Title t= 9100.00000 step= 4550000
42785
    1SAPS     N    1   4.301   3.443   6.394
    1SAPS   HN1    2   4.271   3.430   6.295
    1SAPS   HN2    3   4.287   3.543   6.416
    1SAPS   HN3    4   4.404   3.433   6.400
    1SAPS   C12    5   4.220   3.366   6.493
    1SAPS  H12A    6   4.207   3.271   6.445
    1SAPS   C13    7   4.272   3.333   6.635
    1SAPS  O13A    8   4.369   3.392   6.688
    1SAPS  O13B    9   4.203   3.246   6.700
    1SAPS   C11   10   4.081   3.435   6.516
    1SAPS  H11A   11   4.113   3.530   6.563
    1SAPS  H11B   12   4.009   3.374   6.574
    1SAPS     P   13   3.873   3.524   6.370
    1SAPS   O13   14   3.783   3.406   6.368
    1SAPS   O14   15   3.841   3.624   6.474
    1SAPS   O12   16   4.021   3.471   6.386
    1SAPS   O11   17   3.876   3.593   6.225
    1SAPS    C1   18   3.971   3.689   6.192
    1SAPS    HA   19   3.951   3.783   6.249
    1SAPS    HB   20   4.076   3.660   6.211
    1SAPS    C2   21   3.942   3.722   6.042
    1SAPS    HS   22   3.952   3.627   5.985
    1SAPS   O21   23   4.036   3.818   5.986
    1SAPS   C21   24   4.153   3.768   5.962
    1SAPS   O22   25   4.184   3.650   5.971
    1SAPS   C22   26   4.245   3.877   5.907
    1SAPS   H2R   27   4.272   3.940   5.995
    1SAPS   H2S   28   4.334   3.827   5.864
    1SAPS    C3   29   3.801   3.775   6.017
    1SAPS    HX   30   3.783   3.860   6.086
    1SAPS    HY   31   3.730   3.693   6.040
    1SAPS   O31   32   3.795   3.832   5.887
    1SAPS   C31   33   3.778   3.751   5.779
    1SAPS   O32   34   3.790   3.628   5.783
    1SAPS   C32   35   3.763   3.834   5.655
    1SAPS   H2X   36   3.831   3.921   5.667
    1SAPS   H2Y   37   3.658   3.870   5.653
    1SAPS   C23   38   4.173   3.955   5.793
    1SAPS   H3R   39   4.234   4.039   5.752
    1SAPS   H3S   40   4.079   4.004   5.827
    1SAPS   C24   41   4.147   3.869   5.663
    1SAPS   H4R   42   4.088   3.933   5.594
    1SAPS   H4S   43   4.072   3.793   5.693
    1SAPS   C25   44   4.261   3.804   5.599
    1SAPS   H5R   45   4.294   3.712   5.647
    1SAPS   C26   46   4.314   3.837   5.478
    1SAPS   H6R   47   4.400   3.777   5.443
    1SAPS   C27   48   4.268   3.947   5.387
    1SAPS   H7R   49   4.294   4.041   5.440
    1SAPS   H7S   50   4.159   3.953   5.405
    1SAPS   C28   51   4.322   3.954   5.244
    1SAPS   H8R   52   4.431   3.953   5.229
    1SAPS   C29   53   4.249   3.946   5.131
    1SAPS   H9R   54   4.304   3.960   5.037
    1SAPS  C210   55   4.101   3.934   5.105
    1SAPS  H10R   56   4.048   3.955   5.200
    1SAPS  H10S   57   4.070   3.831   5.078
    1SAPS  C211   58   4.039   4.017   4.991
    1SAPS  H11R   59   3.971   4.095   5.028
    1SAPS  C212   60   4.074   4.019   4.860
    1SAPS  H12R   61   4.011   4.083   4.797
    1SAPS  C213   62   4.169   3.926   4.792
    1SAPS  H13R   63   4.163   3.828   4.843
    1SAPS  H13S   64   4.274   3.961   4.801
    1SAPS  C214   65   4.124   3.920   4.648
    1SAPS  H14R   66   4.072   3.831   4.610
    1SAPS  C215   67   4.155   4.010   4.557
    1SAPS  H15R   68   4.133   3.979   4.454
    1SAPS  C216   69   4.241   4.140   4.572
    1SAPS  H16R   70   4.344   4.122   4.534
    1SAPS  H16S   71   4.247   4.180   4.676
    1SAPS  C217   72   4.188   4.261   4.494
    1SAPS  H17R   73   4.102   4.304   4.550
    1SAPS  H17S   74   4.145   4.244   4.393
    1SAPS  C218   75   4.286   4.383   4.479
    1SAPS  H18R   76   4.257   4.455   4.399
    1SAPS  H18S   77   4.384   4.341   4.447
    1SAPS  C219   78   4.312   4.459   4.606
    1SAPS  H19R   79   4.335   4.388   4.689
    1SAPS  H19S   80   4.219   4.510   4.639
    1SAPS  C220   81   4.432   4.552   4.585
    1SAPS  H20R   82   4.523   4.492   4.563
    1SAPS  H20S   83   4.454   4.613   4.675
    1SAPS  H20T   84   4.406   4.622   4.503
    1SAPS   C33   85   3.803   3.750   5.530
    1SAPS   H3X   86   3.738   3.660   5.521
    1SAPS   H3Y   87   3.908   3.725   5.555
    1SAPS   C34   88   3.783   3.822   5.397
    1SAPS   H4X   89   3.858   3.903   5.381
    1SAPS   H4Y   90   3.690   3.880   5.415
    1SAPS   C35   91   3.775   3.736   5.277
    1SAPS   H5X   92   3.708   3.648   5.286
    1SAPS   H5Y   93   3.880   3.701   5.264
    1SAPS   C36   94   3.739   3.812   5.151
    1SAPS   H6X   95   3.791   3.909   5.144
    1SAPS   H6Y   96   3.630   3.832   5.162
    1SAPS   C37   97   3.759   3.733   5.028
    1SAPS   H7X   98   3.701   3.638   5.038
    1SAPS   H7Y   99   3.869   3.716   5.023
    1SAPS   C38  100   3.716   3.808   4.906
    1SAPS   H8X  101   3.782   3.896   4.914
    1SAPS   H8Y  102   3.611   3.845   4.899
    1SAPS   C39  103   3.741   3.742   4.767
    1SAPS   H9X  104   3.682   3.648   4.758
    1SAPS   H9Y  105   3.851   3.731   4.759
    1SAPS  C310  106   3.694   3.841   4.658
    1SAPS  H10X  107   3.729   3.940   4.693
    1SAPS  H10Y  108   3.583   3.849   4.660
    1SAPS  C311  109   3.729   3.806   4.518
    1SAPS  H11X  110   3.709   3.700   4.492
    1SAPS  H11Y  111   3.839   3.821   4.512
    1SAPS  C312  112   3.658   3.899   4.409
    1SAPS  H12X  113   3.617   3.990   4.456
    1SAPS  H12Y  114   3.569   3.840   4.379
    1SAPS  C313  115   3.742   3.938   4.294
    1SAPS  H13X  116   3.811   3.854   4.269
    1SAPS  H13Y  117   3.808   4.022   4.325
    1SAPS  C314  118   3.661   3.977   4.164
    1SAPS  H14X  119   3.566   4.032   4.182
    1SAPS  H14Y  120   3.623   3.890   4.106
    1SAPS  C315  121   3.757   4.051   4.073
    1SAPS  H15X  122   3.843   3.986   4.048
    1SAPS  H15Y  123   3.803   4.136   4.128
    1SAPS  C316  124   3.707   4.113   3.934
    1SAPS  H16X  125   3.777   4.194   3.905
    1SAPS  H16Y  126   3.609   4.160   3.954
    1SAPS  C317  127   3.701   4.004   3.823
    1SAPS  H17X  128   3.785   3.932   3.834
    1SAPS  H17Y  129   3.714   4.055   3.725
    1SAPS  C318  130   3.575   3.928   3.816
    1SAPS  H18X  131   3.571   3.858   3.903
    1SAPS  H18Y  132   3.573   3.852   3.735
    1SAPS  H18Z  133   3.488   3.994   3.799
    2SAPS     N  134   4.329   6.027   6.350
    2SAPS   HN1  135   4.309   6.063   6.255
    2SAPS   HN2  136   4.380   5.938   6.333
    2SAPS   HN3  137   4.244   6.007   6.408
    2SAPS   C12  138   4.406   6.116   6.438
    2SAPS  H12A  139   4.405   6.077   6.539
    2SAPS   C13  140   4.551   6.134   6.392
    2SAPS  O13A  141   4.593   6.071   6.289
    2SAPS  O13B  142   4.632   6.171   6.482
    2SAPS   C11  143   4.349   6.258   6.436
    2SAPS  H11A  144   4.345   6.293   6.331
    2SAPS  H11B  145   4.413   6.324   6.498
    2SAPS     P  146   4.150   6.387   6.537
    2SAPS   O13  147   4.017   6.350   6.597
    2SAPS   O14  148   4.238   6.474   6.617
    2SAPS   O12  149   4.224   6.252   6.491
    2SAPS   O11  150   4.130   6.456   6.405
    2SAPS    C1  151   4.032   6.432   6.307
    2SAPS    HA  152   3.930   6.422   6.350
    2SAPS    HB  153   4.028   6.519   6.238
    2SAPS    C2  154   4.070   6.308   6.223
    2SAPS    HS  155   4.098   6.219   6.284
    2SAPS   O21  156   4.179   6.346   6.129
    2SAPS   C21  157   4.258   6.251   6.092
    2SAPS   O22  158   4.261   6.135   6.123
    2SAPS   C22  159   4.373   6.317   6.019
    2SAPS   H2R  160   4.379   6.420   6.059
    2SAPS   H2S  161   4.469   6.266   6.041
    2SAPS    C3  162   3.945   6.253   6.154
    2SAPS    HX  163   3.886   6.340   6.117
    2SAPS    HY  164   3.882   6.206   6.232
    2SAPS   O31  165   3.964   6.177   6.032
    2SAPS   C31  166   3.926   6.051   6.026
    2SAPS   O32  167   3.882   5.983   6.115
    2SAPS   C32  168   3.929   5.999   5.882
    2SAPS   H2X  169   3.851   5.920   5.877
    2SAPS   H2Y  170   4.025   5.943   5.878
    2SAPS   C23  171   4.344   6.335   5.866
    2SAPS   H3R  172   4.422   6.405   5.830
    2SAPS   H3S  173   4.241   6.376   5.856
    2SAPS   C24  174   4.349   6.198   5.791
    2SAPS   H4R  175   4.305   6.214   5.690
    2SAPS   H4S  176   4.279   6.129   5.843
    2SAPS   C25  177   4.489   6.140   5.786
    2SAPS   H5R  178   4.520   6.085   5.876
    2SAPS   C26  179   4.574   6.152   5.678
    2SAPS   H6R  180   4.675   6.108   5.681
    2SAPS   C27  181   4.542   6.217   5.552
    2SAPS   H7R  182   4.628   6.260   5.497
    2SAPS   H7S  183   4.491   6.310   5.583
    2SAPS   C28  184   4.451   6.135   5.467
    2SAPS   H8R  185   4.346   6.168   5.481
    2SAPS   C29  186   4.479   6.030   5.383
    2SAPS   H9R  187   4.392   5.974   5.344
    2SAPS  C210  188   4.612   5.960   5.372
    2SAPS  H10R  189   4.671   5.964   5.466
    2SAPS  H10S  190   4.683   6.002   5.298
    2SAPS  C211  191   4.602   5.817   5.350
    2SAPS  H11R  192   4.618   5.755   5.440
    2SAPS  C212  193   4.583   5.744   5.241
    2SAPS  H12R  194   4.561   5.638   5.259
    2SAPS  C213  195   4.559   5.797   5.102
    2SAPS  H13R  196   4.490   5.883   5.098
    2SAPS  H13S  197   4.506   5.721   5.041
    2SAPS  C214  198   4.684   5.839   5.033
    2SAPS  H14R  199   4.760   5.879   5.102
    2SAPS  C215  200   4.704   5.834   4.901
    2SAPS  H15R  201   4.807   5.852   4.867
    2SAPS  C216  202   4.609   5.777   4.806
    2SAPS  H16R  203   4.505   5.815   4.814
    2SAPS  H16S  204   4.610   5.667   4.819
    2SAPS  C217  205   4.636   5.804   4.659
    2SAPS  H17R  206   4.657   5.912   4.648
    2SAPS  H17S  207   4.551   5.768   4.598
    2SAPS  C218  208   4.751   5.709   4.607
    2SAPS  H18R  209   4.716   5.605   4.619
    2SAPS  H18S  210   4.836   5.716   4.678
    2SAPS  C219  211   4.799   5.756   4.465
    2SAPS  H19R  212   4.857   5.851   4.464
    2SAPS  H19S  213   4.706   5.774   4.408
    2SAPS  C220  214   4.885   5.658   4.401
    2SAPS  H20R  215   4.835   5.566   4.363
    2SAPS  H20S  216   4.971   5.624   4.464
    2SAPS  H20T  217   4.930   5.709   4.313
    2SAPS   C33  218   3.902   6.107   5.770
    2SAPS   H3X  219   3.948   6.206   5.792
    2SAPS   H3Y  220   3.793   6.128   5.775
    2SAPS   C34  221   3.940   6.060   5.627
    2SAPS   H4X  222   3.903   5.956   5.620
    2SAPS   H4Y  223   4.051   6.055   5.621
    2SAPS   C35  224   3.888   6.147   5.511
    2SAPS   H5X  225   3.914   6.250   5.544
    2SAPS   H5Y  226   3.777   6.143   5.517
    2SAPS   C36  227   3.941   6.119   5.373
    2SAPS   H6X  228   3.936   6.011   5.347
    2SAPS   H6Y  229   4.046   6.158   5.369
    2SAPS   C37  230   3.852   6.190   5.270
    2SAPS   H7X  231   3.831   6.295   5.297
    2SAPS   H7Y  232   3.753   6.141   5.262
    2SAPS   C38  233   3.930   6.194   5.132
    2SAPS   H8X  234   3.918   6.092   5.088
    2SAPS   H8Y  235   4.038   6.215   5.145
    2SAPS   C39  236   3.864   6.300   5.036
    2SAPS   H9X  237   3.890   6.399   5.080
    2SAPS   H9Y  238   3.754   6.285   5.046
    2SAPS  C310  239   3.912   6.284   4.901
    2SAPS  H10X  240   3.891   6.177   4.877
    2SAPS  H10Y  241   4.021   6.301   4.893
    2SAPS  C311  242   3.852   6.368   4.790
    2SAPS  H11X  243   3.898   6.469   4.792
    2SAPS  H11Y  244   3.743   6.374   4.812
    2SAPS  C312  245   3.877   6.308   4.646
    2SAPS  H12X  246   3.974   6.255   4.638
    2SAPS  H12Y  247   3.898   6.395   4.581
    2SAPS  C313  248   3.762   6.233   4.592
    2SAPS  H13X  249   3.738   6.145   4.657
    2SAPS  H13Y  250   3.787   6.178   4.499
    2SAPS  C314  251   3.634   6.305   4.564
    2SAPS  H14X  252   3.661   6.378   4.485
    2SAPS  H14Y  253   3.607   6.361   4.655
    2SAPS  C315  254   3.506   6.233   4.522
    2SAPS  H15X  255   3.431   6.314   4.526
    2SAPS  H15Y  256   3.469   6.155   4.592
    2SAPS  C316  257   3.506   6.174   4.384
    2SAPS  H16X  258   3.595   6.110   4.364
    2SAPS  H16Y  259   3.527   6.259   4.315
    2SAPS  C317  260   3.371   6.103   4.339
    2SAPS  H17X  261   3.331   6.047   4.426
    2SAPS  H17Y  262   3.396   6.033   4.257
    2SAPS  C318  263   3.270   6.204   4.283
    2SAPS  H18X  264   3.259   6.296   4.345
    2SAPS  H18Y  265   3.169   6.157   4.280
    2SAPS  H18Z  266   3.309   6.229   4.182
    3SAPS     N  267   4.449   3.961   6.243
    3SAPS   HN1  268   4.469   3.900   6.162
    3SAPS   HN2  269   4.402   4.048   6.212
    3SAPS   HN3  270   4.542   3.989   6.280
    3SAPS   C12  271   4.369   3.905   6.346
    3SAPS  H12A  272   4.271   3.935   6.314
    3SAPS   C13  273   4.360   3.754   6.353
    3SAPS  O13A  274   4.426   3.678   6.273
    3SAPS  O13B  275   4.280   3.699   6.433
    3SAPS   C11  276   4.403   3.961   6.492
    3SAPS  H11A  277   4.501   3.916   6.514
    3SAPS  H11B  278   4.333   3.915   6.565
    3SAPS     P  279   4.298   4.200   6.491
    3SAPS   O13  280   4.174   4.125   6.465
    3SAPS   O14  281   4.299   4.291   6.602
    3SAPS   O12  282   4.423   4.107   6.506
    3SAPS   O11  283   4.350   4.279   6.355
    3SAPS    C1  284   4.471   4.347   6.379
    3SAPS    HA  285   4.463   4.427   6.456
    3SAPS    HB  286   4.547   4.276   6.416
    3SAPS    C2  287   4.530   4.406   6.242
    3SAPS    HS  288   4.469   4.494   6.213
    3SAPS   O21  289   4.541   4.298   6.152
    3SAPS   C21  290   4.478   4.332   6.037
    3SAPS   O22  291   4.391   4.417   6.027
    3SAPS   C22  292   4.536   4.251   5.924
    3SAPS   H2R  293   4.645   4.254   5.944
    3SAPS   H2S  294   4.508   4.146   5.946
    3SAPS    C3  295   4.672   4.455   6.266
    3SAPS    HX  296   4.728   4.365   6.298
    3SAPS    HY  297   4.680   4.532   6.346
    3SAPS   O31  298   4.730   4.502   6.147
    3SAPS   C31  299   4.691   4.627   6.123
    3SAPS   O32  300   4.627   4.698   6.196
    3SAPS   C32  301   4.743   4.670   5.995
    3SAPS   H2X  302   4.849   4.635   5.997
    3SAPS   H2Y  303   4.737   4.781   5.995
    3SAPS   C23  304   4.487   4.290   5.781
    3SAPS   H3R  305   4.541   4.382   5.749
    3SAPS   H3S  306   4.379   4.315   5.792
    3SAPS   C24  307   4.505   4.177   5.684
    3SAPS   H4R  308   4.450   4.197   5.590
    3SAPS   H4S  309   4.460   4.084   5.725
    3SAPS   C25  310   4.651   4.152   5.647
    3SAPS   H5R  311   4.721   4.127   5.729
    3SAPS   C26  312   4.706   4.150   5.522
    3SAPS   H6R  313   4.814   4.130   5.513
    3SAPS   C27  314   4.635   4.170   5.396
    3SAPS   H7R  315   4.539   4.114   5.403
    3SAPS   H7S  316   4.700   4.130   5.315
    3SAPS   C28  317   4.614   4.318   5.371
    3SAPS   H8R  318   4.562   4.370   5.453
    3SAPS   C29  319   4.665   4.379   5.262
    3SAPS   H9R  320   4.641   4.486   5.255
    3SAPS  C210  321   4.719   4.320   5.137
    3SAPS  H10R  322   4.768   4.222   5.155
    3SAPS  H10S  323   4.796   4.390   5.097
    3SAPS  C211  324   4.601   4.306   5.040
    3SAPS  H11R  325   4.511   4.266   5.089
    3SAPS  C212  326   4.598   4.369   4.920
    3SAPS  H12R  327   4.505   4.368   4.862
    3SAPS  C213  328   4.714   4.431   4.854
    3SAPS  H13R  329   4.749   4.524   4.903
    3SAPS  H13S  330   4.669   4.465   4.758
    3SAPS  C214  331   4.841   4.350   4.817
    3SAPS  H14R  332   4.931   4.358   4.879
    3SAPS  C215  333   4.848   4.244   4.725
    3SAPS  H15R  334   4.946   4.197   4.705
    3SAPS  C216  335   4.735   4.214   4.628
    3SAPS  H16R  336   4.751   4.240   4.522
    3SAPS  H16S  337   4.647   4.278   4.652
    3SAPS  C217  338   4.680   4.073   4.638
    3SAPS  H17R  339   4.751   3.999   4.596
    3SAPS  H17S  340   4.588   4.071   4.576
    3SAPS  C218  341   4.627   4.037   4.776
    3SAPS  H18R  342   4.540   4.098   4.809
    3SAPS  H18S  343   4.697   4.078   4.852
    3SAPS  C219  344   4.610   3.885   4.775
    3SAPS  H19R  345   4.527   3.859   4.706
    3SAPS  H19S  346   4.702   3.840   4.732
    3SAPS  C220  347   4.583   3.817   4.912
    3SAPS  H20R  348   4.574   3.707   4.898
    3SAPS  H20S  349   4.481   3.851   4.941
    3SAPS  H20T  350   4.656   3.843   4.992
    3SAPS   C33  351   4.663   4.621   5.864
    3SAPS   H3X  352   4.555   4.606   5.887
    3SAPS   H3Y  353   4.713   4.532   5.820
    3SAPS   C34  354   4.683   4.723   5.760
    3SAPS   H4X  355   4.794   4.735   5.762
    3SAPS   H4Y  356   4.643   4.823   5.786
    3SAPS   C35  357   4.636   4.670   5.618
    3SAPS   H5X  358   4.665   4.565   5.595
    3SAPS   H5Y  359   4.527   4.654   5.631
    3SAPS   C36  360   4.666   4.773   5.507
    3SAPS   H6X  361   4.774   4.764   5.485
    3SAPS   H6Y  362   4.649   4.874   5.551
    3SAPS   C37  363   4.574   4.758   5.390
    3SAPS   H7X  364   4.478   4.812   5.407
    3SAPS   H7Y  365   4.566   4.647   5.396
    3SAPS   C38  366   4.621   4.794   5.250
    3SAPS   H8X  367   4.716   4.742   5.224
    3SAPS   H8Y  368   4.655   4.900   5.245
    3SAPS   C39  369   4.513   4.786   5.141
    3SAPS   H9X  370   4.424   4.838   5.182
    3SAPS   H9Y  371   4.488   4.678   5.132
    3SAPS  C310  372   4.559   4.854   5.017
    3SAPS  H10X  373   4.490   4.828   4.934
    3SAPS  H10Y  374   4.659   4.809   5.001
    3SAPS  C311  375   4.563   5.007   5.017
    3SAPS  H11X  376   4.629   5.038   5.100
    3SAPS  H11Y  377   4.460   5.042   5.041
    3SAPS  C312  378   4.612   5.072   4.887
    3SAPS  H12X  379   4.704   5.022   4.850
    3SAPS  H12Y  380   4.631   5.182   4.884
    3SAPS  C313  381   4.500   5.056   4.788
    3SAPS  H13X  382   4.403   5.082   4.837
    3SAPS  H13Y  383   4.492   4.953   4.749
    3SAPS  C314  384   4.532   5.146   4.664
    3SAPS  H14X  385   4.626   5.108   4.619
    3SAPS  H14Y  386   4.549   5.252   4.693
    3SAPS  C315  387   4.423   5.141   4.562
    3SAPS  H15X  388   4.328   5.151   4.618
    3SAPS  H15Y  389   4.433   5.042   4.514
    3SAPS  C316  390   4.442   5.249   4.454
    3SAPS  H16X  391   4.438   5.351   4.498
    3SAPS  H16Y  392   4.363   5.249   4.376
    3SAPS  C317  393   4.588   5.250   4.396
    3SAPS  H17X  394   4.600   5.152   4.344
    3SAPS  H17Y  395   4.661   5.261   4.479
    3SAPS  C318  396   4.614   5.357   4.289
    3SAPS  H18X  397   4.620   5.455   4.339
    3SAPS  H18Y  398   4.530   5.349   4.217
    3SAPS  H18Z  399   4.703   5.353   4.222
    4SAPS     N  400   1.501   2.376   6.704
    4SAPS   HN1  401   1.594   2.331   6.714
    4SAPS   HN2  402   1.442   2.290   6.712
    4SAPS   HN3  403   1.492   2.425   6.613
    4SAPS   C12  404   1.489   2.469   6.819
    4SAPS  H12A  405   1.478   2.410   6.909
    4SAPS   C13  406   1.610   2.565   6.861
    4SAPS  O13A  407   1.711   2.564   6.792
    4SAPS  O13B  408   1.606   2.624   6.972
    4SAPS   C11  409   1.362   2.557   6.807
    4SAPS  H11A  410   1.366   2.648   6.744
    4SAPS  H11B  411   1.347   2.595   6.910
    4SAPS     P  412   1.108   2.504   6.738
    4SAPS   O13  413   1.018   2.409   6.809
    4SAPS   O14  414   1.081   2.646   6.753
    4SAPS   O12  415   1.259   2.472   6.771
    4SAPS   O11  416   1.106   2.491   6.582
    4SAPS    C1  417   1.172   2.368   6.536
    4SAPS    HA  418   1.277   2.352   6.570
    4SAPS    HB  419   1.113   2.278   6.560
    4SAPS    C2  420   1.174   2.376   6.377
    4SAPS    HS  421   1.234   2.287   6.345
    4SAPS   O21  422   1.229   2.495   6.327
    4SAPS   C21  423   1.353   2.531   6.360
    4SAPS   O22  424   1.423   2.471   6.438
    4SAPS   C22  425   1.376   2.668   6.293
    4SAPS   H2R  426   1.284   2.729   6.297
    4SAPS   H2S  427   1.444   2.737   6.348
    4SAPS    C3  428   1.029   2.370   6.321
    4SAPS    HX  429   0.984   2.466   6.353
    4SAPS    HY  430   0.965   2.289   6.362
    4SAPS   O31  431   1.014   2.374   6.172
    4SAPS   C31  432   1.027   2.252   6.121
    4SAPS   O32  433   1.035   2.149   6.187
    4SAPS   C32  434   1.032   2.250   5.964
    4SAPS   H2X  435   1.046   2.357   5.937
    4SAPS   H2Y  436   0.936   2.220   5.916
    4SAPS   C23  437   1.424   2.648   6.146
    4SAPS   H3R  438   1.515   2.585   6.141
    4SAPS   H3S  439   1.454   2.750   6.111
    4SAPS   C24  440   1.318   2.601   6.048
    4SAPS   H4R  441   1.237   2.674   6.026
    4SAPS   H4S  442   1.260   2.517   6.094
    4SAPS   C25  443   1.380   2.546   5.921
    4SAPS   H5R  444   1.426   2.447   5.934
    4SAPS   C26  445   1.379   2.603   5.798
    4SAPS   H6R  446   1.425   2.563   5.706
    4SAPS   C27  447   1.322   2.742   5.767
    4SAPS   H7R  448   1.411   2.805   5.746
    4SAPS   H7S  449   1.276   2.784   5.859
    4SAPS   C28  450   1.226   2.762   5.654
    4SAPS   H8R  451   1.125   2.783   5.692
    4SAPS   C29  452   1.236   2.742   5.524
    4SAPS   H9R  453   1.147   2.770   5.465
    4SAPS  C210  454   1.364   2.722   5.448
    4SAPS  H10R  455   1.441   2.676   5.513
    4SAPS  H10S  456   1.407   2.818   5.410
    4SAPS  C211  457   1.327   2.624   5.334
    4SAPS  H11R  458   1.312   2.519   5.365
    4SAPS  C212  459   1.308   2.649   5.206
    4SAPS  H12R  460   1.289   2.562   5.141
    4SAPS  C213  461   1.341   2.776   5.133
    4SAPS  H13R  462   1.415   2.748   5.056
    4SAPS  H13S  463   1.396   2.844   5.202
    4SAPS  C214  464   1.219   2.852   5.069
    4SAPS  H14R  465   1.148   2.878   5.149
    4SAPS  C215  466   1.192   2.890   4.943
    4SAPS  H15R  467   1.102   2.945   4.911
    4SAPS  C216  468   1.285   2.877   4.818
    4SAPS  H16R  469   1.221   2.851   4.731
    4SAPS  H16S  470   1.360   2.797   4.833
    4SAPS  C217  471   1.360   3.007   4.792
    4SAPS  H17R  472   1.431   2.995   4.707
    4SAPS  H17S  473   1.408   3.039   4.887
    4SAPS  C218  474   1.280   3.134   4.774
    4SAPS  H18R  475   1.227   3.162   4.867
    4SAPS  H18S  476   1.214   3.110   4.687
    4SAPS  C219  477   1.369   3.258   4.749
    4SAPS  H19R  478   1.451   3.218   4.685
    4SAPS  H19S  479   1.415   3.294   4.844
    4SAPS  C220  480   1.294   3.360   4.676
    4SAPS  H20R  481   1.197   3.366   4.729
    4SAPS  H20S  482   1.288   3.341   4.566
    4SAPS  H20T  483   1.336   3.461   4.695
    4SAPS   C33  484   1.149   2.164   5.918
    4SAPS   H3X  485   1.155   2.062   5.962
    4SAPS   H3Y  486   1.239   2.222   5.950
    4SAPS   C34  487   1.163   2.154   5.766
    4SAPS   H4X  488   1.086   2.219   5.719
    4SAPS   H4Y  489   1.164   2.047   5.738
    4SAPS   C35  490   1.295   2.215   5.717
    4SAPS   H5X  491   1.384   2.164   5.761
    4SAPS   H5Y  492   1.306   2.323   5.740
    4SAPS   C36  493   1.316   2.198   5.562
    4SAPS   H6X  494   1.319   2.088   5.546
    4SAPS   H6Y  495   1.410   2.251   5.538
    4SAPS   C37  496   1.204   2.262   5.477
    4SAPS   H7X  497   1.171   2.365   5.503
    4SAPS   H7Y  498   1.124   2.187   5.495
    4SAPS   C38  499   1.244   2.260   5.327
    4SAPS   H8X  500   1.273   2.156   5.299
    4SAPS   H8Y  501   1.332   2.321   5.300
    4SAPS   C39  502   1.127   2.290   5.234
    4SAPS   H9X  503   1.072   2.382   5.264
    4SAPS   H9Y  504   1.044   2.216   5.244
    4SAPS  C310  505   1.164   2.294   5.085
    4SAPS  H10X  506   1.228   2.384   5.076
    4SAPS  H10Y  507   1.074   2.307   5.020
    4SAPS  C311  508   1.246   2.176   5.020
    4SAPS  H11X  509   1.192   2.084   4.988
    4SAPS  H11Y  510   1.325   2.146   5.092
    4SAPS  C312  511   1.327   2.223   4.902
    4SAPS  H12X  512   1.408   2.156   4.869
    4SAPS  H12Y  513   1.369   2.326   4.912
    4SAPS  C313  514   1.235   2.227   4.778
    4SAPS  H13X  515   1.157   2.303   4.800
    4SAPS  H13Y  516   1.184   2.129   4.763
    4SAPS  C314  517   1.313   2.262   4.642
    4SAPS  H14X  518   1.401   2.194   4.638
    4SAPS  H14Y  519   1.336   2.371   4.637
    4SAPS  C315  520   1.234   2.219   4.517
    4SAPS  H15X  521   1.211   2.111   4.524
    4SAPS  H15Y  522   1.293   2.247   4.427
    4SAPS  C316  523   1.111   2.292   4.509
    4SAPS  H16X  524   1.123   2.396   4.471
    4SAPS  H16Y  525   1.051   2.283   4.602
    4SAPS  C317  526   1.016   2.226   4.412
    4SAPS  H17X  527   0.994   2.121   4.442
    4SAPS  H17Y  528   1.071   2.214   4.316
    4SAPS  C318  529   0.881   2.292   4.396
    4SAPS  H18X  530   0.825   2.310   4.490
    4SAPS  H18Y  531   0.810   2.234   4.333
    4SAPS  H18Z  532   0.882   2.389   4.343
    5SAPS     N  533   5.214   4.149   6.853
    5SAPS   HN1  534   5.244   4.199   6.767
    5SAPS   HN2  535   5.142   4.211   6.897
    5SAPS   HN3  536   5.284   4.135   6.928
    5SAPS   C12  537   5.155   4.017   6.809
    5SAPS  H12A  538   5.228   3.953   6.761
    5SAPS   C13  539   5.093   3.937   6.929
    5SAPS  O13A  540   5.075   3.997   7.036
    5SAPS  O13B  541   5.062   3.820   6.918
    5SAPS   C11  542   5.042   4.041   6.708
    5SAPS  H11A  543   4.947   4.081   6.752
    5SAPS  H11B  544   5.018   3.939   6.672
    5SAPS     P  545   5.030   4.219   6.510
    5SAPS   O13  546   4.884   4.188   6.500
    5SAPS   O14  547   5.070   4.355   6.566
    5SAPS   O12  548   5.100   4.107   6.597
    5SAPS   O11  549   5.103   4.201   6.374
    5SAPS    C1  550   5.242   4.228   6.359
    5SAPS    HA  551   5.265   4.331   6.392
    5SAPS    HB  552   5.303   4.167   6.429
    5SAPS    C2  553   5.284   4.224   6.209
    5SAPS    HS  554   5.386   4.264   6.191
    5SAPS   O21  555   5.189   4.299   6.125
    5SAPS   C21  556   5.205   4.430   6.136
    5SAPS   O22  557   5.299   4.487   6.193
    5SAPS   C22  558   5.089   4.500   6.060
    5SAPS   H2R  559   5.011   4.421   6.054
    5SAPS   H2S  560   5.052   4.581   6.126
    5SAPS    C3  561   5.293   4.077   6.153
    5SAPS    HX  562   5.195   4.028   6.172
    5SAPS    HY  563   5.369   4.026   6.216
    5SAPS   O31  564   5.341   4.068   6.019
    5SAPS   C31  565   5.238   4.096   5.934
    5SAPS   O32  566   5.123   4.125   5.964
    5SAPS   C32  567   5.278   4.050   5.786
    5SAPS   H2X  568   5.289   3.940   5.793
    5SAPS   H2Y  569   5.374   4.101   5.765
    5SAPS   C23  570   5.130   4.564   5.923
    5SAPS   H3R  571   5.217   4.632   5.935
    5SAPS   H3S  572   5.047   4.623   5.878
    5SAPS   C24  573   5.163   4.463   5.806
    5SAPS   H4R  574   5.240   4.389   5.838
    5SAPS   H4S  575   5.217   4.508   5.720
    5SAPS   C25  576   5.031   4.387   5.765
    5SAPS   H5R  577   5.000   4.313   5.840
    5SAPS   C26  578   4.973   4.392   5.641
    5SAPS   H6R  579   4.879   4.338   5.621
    5SAPS   C27  580   5.022   4.489   5.535
    5SAPS   H7R  581   5.123   4.447   5.516
    5SAPS   H7S  582   5.041   4.588   5.582
    5SAPS   C28  583   4.940   4.503   5.408
    5SAPS   H8R  584   4.847   4.560   5.419
    5SAPS   C29  585   4.986   4.477   5.286
    5SAPS   H9R  586   4.921   4.495   5.199
    5SAPS  C210  587   5.116   4.407   5.240
    5SAPS  H10R  588   5.088   4.305   5.204
    5SAPS  H10S  589   5.183   4.386   5.326
    5SAPS  C211  590   5.219   4.484   5.151
    5SAPS  H11R  591   5.220   4.445   5.048
    5SAPS  C212  592   5.308   4.574   5.191
    5SAPS  H12R  593   5.375   4.617   5.114
    5SAPS  C213  594   5.331   4.647   5.323
    5SAPS  H13R  595   5.271   4.602   5.405
    5SAPS  H13S  596   5.292   4.748   5.297
    5SAPS  C214  597   5.467   4.665   5.379
    5SAPS  H14R  598   5.538   4.595   5.334
    5SAPS  C215  599   5.516   4.767   5.458
    5SAPS  H15R  600   5.618   4.748   5.496
    5SAPS  C216  601   5.430   4.879   5.518
    5SAPS  H16R  602   5.353   4.895   5.439
    5SAPS  H16S  603   5.492   4.972   5.514
    5SAPS  C217  604   5.395   4.856   5.664
    5SAPS  H17R  605   5.320   4.774   5.667
    5SAPS  H17S  606   5.337   4.947   5.690
    5SAPS  C218  607   5.507   4.844   5.767
    5SAPS  H18R  608   5.585   4.919   5.742
    5SAPS  H18S  609   5.551   4.742   5.764
    5SAPS  C219  610   5.449   4.856   5.910
    5SAPS  H19R  611   5.359   4.791   5.905
    5SAPS  H19S  612   5.423   4.964   5.904
    5SAPS  C220  613   5.551   4.814   6.019
    5SAPS  H20R  614   5.501   4.829   6.116
    5SAPS  H20S  615   5.645   4.874   6.020
    5SAPS  H20T  616   5.573   4.707   5.997
    5SAPS   C33  617   5.182   4.080   5.678
    5SAPS   H3X  618   5.168   4.190   5.678
    5SAPS   H3Y  619   5.082   4.031   5.686
    5SAPS   C34  620   5.243   4.048   5.540
    5SAPS   H4X  621   5.274   3.941   5.543
    5SAPS   H4Y  622   5.333   4.102   5.504
    5SAPS   C35  623   5.144   4.078   5.429
    5SAPS   H5X  624   5.139   4.189   5.419
    5SAPS   H5Y  625   5.040   4.043   5.447
    5SAPS   C36  626   5.179   4.024   5.289
    5SAPS   H6X  627   5.223   3.922   5.300
    5SAPS   H6Y  628   5.255   4.082   5.234
    5SAPS   C37  629   5.044   4.014   5.214
    5SAPS   H7X  630   4.998   4.113   5.192
    5SAPS   H7Y  631   4.978   3.939   5.261
    5SAPS   C38  632   5.068   3.969   5.073
    5SAPS   H8X  633   5.136   3.881   5.081
    5SAPS   H8Y  634   5.122   4.049   5.017
    5SAPS   C39  635   4.947   3.933   4.997
    5SAPS   H9X  636   4.894   4.025   4.963
    5SAPS   H9Y  637   4.866   3.888   5.058
    5SAPS  C310  638   4.972   3.832   4.889
    5SAPS  H10X  639   4.874   3.814   4.839
    5SAPS  H10Y  640   5.001   3.741   4.946
    5SAPS  C311  641   5.084   3.873   4.791
    5SAPS  H11X  642   5.184   3.870   4.838
    5SAPS  H11Y  643   5.071   3.980   4.766
    5SAPS  C312  644   5.065   3.789   4.666
    5SAPS  H12X  645   4.966   3.792   4.615
    5SAPS  H12Y  646   5.064   3.683   4.698
    5SAPS  C313  647   5.177   3.820   4.565
    5SAPS  H13X  648   5.186   3.728   4.504
    5SAPS  H13Y  649   5.271   3.833   4.623
    5SAPS  C314  650   5.144   3.953   4.486
    5SAPS  H14X  651   5.121   4.032   4.560
    5SAPS  H14Y  652   5.058   3.935   4.419
    5SAPS  C315  653   5.255   3.989   4.394
    5SAPS  H15X  654   5.295   3.902   4.338
    5SAPS  H15Y  655   5.334   4.032   4.459
    5SAPS  C316  656   5.220   4.111   4.312
    5SAPS  H16X  657   5.186   4.176   4.394
    5SAPS  H16Y  658   5.132   4.085   4.250
    5SAPS  C317  659   5.341   4.166   4.242
    5SAPS  H17X  660   5.415   4.155   4.324
    5SAPS  H17Y  661   5.318   4.272   4.217
    5SAPS  C318  662   5.393   4.080   4.123
    5SAPS  H18X  663   5.419   3.974   4.144
    5SAPS  H18Y  664   5.491   4.117   4.087
    5SAPS  H18Z  665   5.321   4.083   4.038
    6SAPS     N  666   2.284   3.613   6.481
    6SAPS   HN1  667   2.230   3.694   6.444
    6SAPS   HN2  668   2.373   3.618   6.428
    6SAPS   HN3  669   2.239   3.520   6.470
    6SAPS   C12  670   2.306   3.618   6.622
    6SAPS  H12A  671   2.211   3.613   6.674
    6SAPS   C13  672   2.379   3.490   6.680
    6SAPS  O13A  673   2.393   3.394   6.608
    6SAPS  O13B  674   2.377   3.482   6.808
    6SAPS   C11  675   2.392   3.741   6.671
    6SAPS  H11A  676   2.497   3.728   6.637
    6SAPS  H11B  677   2.401   3.723   6.780
    6SAPS     P  678   2.403   3.993   6.681
    6SAPS   O13  679   2.306   4.103   6.692
    6SAPS   O14  680   2.484   3.962   6.802
    6SAPS   O12  681   2.335   3.861   6.628
    6SAPS   O11  682   2.503   4.026   6.566
    6SAPS    C1  683   2.464   4.005   6.429
    6SAPS    HA  684   2.473   3.897   6.403
    6SAPS    HB  685   2.364   4.037   6.393
    6SAPS    C2  686   2.562   4.085   6.333
    6SAPS    HS  687   2.661   4.040   6.356
    6SAPS   O21  688   2.560   4.228   6.355
    6SAPS   C21  689   2.673   4.278   6.318
    6SAPS   O22  690   2.783   4.228   6.327
    6SAPS   C22  691   2.654   4.425   6.269
    6SAPS   H2R  692   2.575   4.478   6.326
    6SAPS   H2S  693   2.752   4.472   6.290
    6SAPS    C3  694   2.523   4.038   6.184
    6SAPS    HX  695   2.426   4.084   6.157
    6SAPS    HY  696   2.511   3.928   6.178
    6SAPS   O31  697   2.622   4.087   6.093
    6SAPS   C31  698   2.724   4.002   6.072
    6SAPS   O32  699   2.732   3.885   6.113
    6SAPS   C32  700   2.831   4.066   5.984
    6SAPS   H2X  701   2.925   4.047   6.041
    6SAPS   H2Y  702   2.812   4.175   5.981
    6SAPS   C23  703   2.620   4.412   6.115
    6SAPS   H3R  704   2.520   4.366   6.103
    6SAPS   H3S  705   2.701   4.350   6.069
    6SAPS   C24  706   2.607   4.554   6.044
    6SAPS   H4R  707   2.596   4.540   5.934
    6SAPS   H4S  708   2.698   4.611   6.073
    6SAPS   C25  709   2.476   4.627   6.086
    6SAPS   H5R  710   2.430   4.600   6.183
    6SAPS   C26  711   2.418   4.726   6.011
    6SAPS   H6R  712   2.332   4.782   6.050
    6SAPS   C27  713   2.481   4.783   5.883
    6SAPS   H7R  714   2.511   4.708   5.807
    6SAPS   H7S  715   2.578   4.829   5.911
    6SAPS   C28  716   2.406   4.889   5.819
    6SAPS   H8R  717   2.311   4.913   5.870
    6SAPS   C29  718   2.435   4.949   5.704
    6SAPS   H9R  719   2.364   5.018   5.656
    6SAPS  C210  720   2.554   4.909   5.616
    6SAPS  H10R  721   2.602   4.811   5.640
    6SAPS  H10S  722   2.633   4.988   5.614
    6SAPS  C211  723   2.495   4.885   5.479
    6SAPS  H11R  724   2.424   4.804   5.457
    6SAPS  C212  725   2.528   4.961   5.376
    6SAPS  H12R  726   2.488   4.925   5.280
    6SAPS  C213  727   2.618   5.081   5.364
    6SAPS  H13R  728   2.681   5.080   5.272
    6SAPS  H13S  729   2.692   5.090   5.446
    6SAPS  C214  730   2.530   5.199   5.368
    6SAPS  H14R  731   2.460   5.204   5.452
    6SAPS  C215  732   2.535   5.306   5.289
    6SAPS  H15R  733   2.462   5.387   5.301
    6SAPS  C216  734   2.629   5.329   5.169
    6SAPS  H16R  735   2.601   5.262   5.085
    6SAPS  H16S  736   2.735   5.315   5.198
    6SAPS  C217  737   2.603   5.474   5.121
    6SAPS  H17R  738   2.606   5.547   5.204
    6SAPS  H17S  739   2.508   5.491   5.067
    6SAPS  C218  740   2.710   5.515   5.012
    6SAPS  H18R  741   2.713   5.456   4.917
    6SAPS  H18S  742   2.811   5.515   5.059
    6SAPS  C219  743   2.667   5.660   4.949
    6SAPS  H19R  744   2.649   5.736   5.028
    6SAPS  H19S  745   2.567   5.655   4.903
    6SAPS  C220  746   2.762   5.719   4.844
    6SAPS  H20R  747   2.750   5.825   4.812
    6SAPS  H20S  748   2.775   5.642   4.765
    6SAPS  H20T  749   2.847   5.727   4.915
    6SAPS   C33  750   2.838   4.003   5.850
    6SAPS   H3X  751   2.737   3.967   5.822
    6SAPS   H3Y  752   2.910   3.918   5.851
    6SAPS   C34  753   2.887   4.103   5.738
    6SAPS   H4X  754   2.998   4.100   5.742
    6SAPS   H4Y  755   2.862   4.210   5.755
    6SAPS   C35  756   2.839   4.065   5.596
    6SAPS   H5X  757   2.729   4.067   5.582
    6SAPS   H5Y  758   2.866   3.961   5.567
    6SAPS   C36  759   2.886   4.171   5.500
    6SAPS   H6X  760   2.995   4.190   5.514
    6SAPS   H6Y  761   2.825   4.259   5.531
    6SAPS   C37  762   2.847   4.150   5.349
    6SAPS   H7X  763   2.850   4.253   5.308
    6SAPS   H7Y  764   2.738   4.132   5.349
    6SAPS   C38  765   2.941   4.054   5.271
    6SAPS   H8X  766   2.908   3.951   5.297
    6SAPS   H8Y  767   3.049   4.056   5.297
    6SAPS   C39  768   2.934   4.078   5.115
    6SAPS   H9X  769   2.971   3.992   5.054
    6SAPS   H9Y  770   2.995   4.165   5.084
    6SAPS  C310  771   2.797   4.105   5.061
    6SAPS  H10X  772   2.760   4.196   5.113
    6SAPS  H10Y  773   2.730   4.016   5.068
    6SAPS  C311  774   2.815   4.140   4.908
    6SAPS  H11X  775   2.860   4.064   4.841
    6SAPS  H11Y  776   2.876   4.232   4.914
    6SAPS  C312  777   2.678   4.180   4.845
    6SAPS  H12X  778   2.609   4.214   4.925
    6SAPS  H12Y  779   2.623   4.093   4.803
    6SAPS  C313  780   2.692   4.282   4.725
    6SAPS  H13X  781   2.735   4.378   4.762
    6SAPS  H13Y  782   2.591   4.309   4.686
    6SAPS  C314  783   2.791   4.243   4.615
    6SAPS  H14X  784   2.746   4.159   4.558
    6SAPS  H14Y  785   2.883   4.204   4.662
    6SAPS  C315  786   2.830   4.355   4.523
    6SAPS  H15X  787   2.747   4.393   4.459
    6SAPS  H15Y  788   2.911   4.316   4.457
    6SAPS  C316  789   2.894   4.476   4.582
    6SAPS  H16X  790   2.816   4.520   4.647
    6SAPS  H16Y  791   2.913   4.552   4.503
    6SAPS  C317  792   3.025   4.451   4.649
    6SAPS  H17X  793   3.084   4.384   4.583
    6SAPS  H17Y  794   3.005   4.408   4.749
    6SAPS  C318  795   3.085   4.582   4.673
    6SAPS  H18X  796   3.179   4.571   4.731
    6SAPS  H18Y  797   3.021   4.661   4.719
    6SAPS  H18Z  798   3.097   4.622   4.570
    7SAPS     N  799   2.273   0.086   6.828
    7SAPS   HN1  800   2.324   0.137   6.903
    7SAPS   HN2  801   2.211   0.014   6.872
    7SAPS   HN3  802   2.346   0.039   6.771
    7SAPS   C12  803   2.185   0.187   6.770
    7SAPS  H12A  804   2.128   0.138   6.692
    7SAPS   C13  805   2.081   0.255   6.868
    7SAPS  O13A  806   2.048   0.196   6.976
    7SAPS  O13B  807   2.017   0.352   6.819
    7SAPS   C11  808   2.264   0.300   6.703
    7SAPS  H11A  809   2.300   0.381   6.770
    7SAPS  H11B  810   2.191   0.358   6.642
    7SAPS     P  811   2.459   0.371   6.539
    7SAPS   O13  812   2.487   0.487   6.623
    7SAPS   O14  813   2.577   0.316   6.470
    7SAPS   O12  814   2.380   0.257   6.624
    7SAPS   O11  815   2.350   0.413   6.433
    7SAPS    C1  816   2.279   0.319   6.359
    7SAPS    HA  817   2.324   0.218   6.366
    7SAPS    HB  818   2.170   0.310   6.380
    7SAPS    C2  819   2.275   0.347   6.200
    7SAPS    HS  820   2.242   0.254   6.148
    7SAPS   O21  821   2.406   0.389   6.158
    7SAPS   C21  822   2.495   0.297   6.159
    7SAPS   O22  823   2.480   0.177   6.167
    7SAPS   C22  824   2.631   0.363   6.126
    7SAPS   H2R  825   2.621   0.423   6.033
    7SAPS   H2S  826   2.639   0.434   6.212
    7SAPS    C3  827   2.170   0.455   6.158
    7SAPS    HX  828   2.193   0.546   6.218
    7SAPS    HY  829   2.069   0.419   6.189
    7SAPS   O31  830   2.170   0.476   6.017
    7SAPS   C31  831   2.231   0.586   5.972
    7SAPS   O32  832   2.311   0.650   6.040
    7SAPS   C32  833   2.198   0.598   5.823
    7SAPS   H2X  834   2.090   0.574   5.816
    7SAPS   H2Y  835   2.254   0.527   5.758
    7SAPS   C23  836   2.753   0.269   6.115
    7SAPS   H3R  837   2.749   0.177   6.177
    7SAPS   H3S  838   2.845   0.318   6.153
    7SAPS   C24  839   2.786   0.235   5.972
    7SAPS   H4R  840   2.795   0.328   5.913
    7SAPS   H4S  841   2.698   0.179   5.935
    7SAPS   C25  842   2.913   0.162   5.939
    7SAPS   H5R  843   2.929   0.073   6.002
    7SAPS   C26  844   3.005   0.195   5.843
    7SAPS   H6R  845   3.093   0.130   5.837
    7SAPS   C27  846   2.994   0.300   5.743
    7SAPS   H7R  847   2.887   0.316   5.718
    7SAPS   H7S  848   3.046   0.264   5.651
    7SAPS   C28  849   3.062   0.426   5.798
    7SAPS   H8R  850   3.024   0.457   5.897
    7SAPS   C29  851   3.164   0.500   5.747
    7SAPS   H9R  852   3.188   0.599   5.787
    7SAPS  C210  853   3.225   0.454   5.617
    7SAPS  H10R  854   3.151   0.461   5.534
    7SAPS  H10S  855   3.243   0.345   5.614
    7SAPS  C211  856   3.357   0.528   5.585
    7SAPS  H11R  857   3.440   0.500   5.651
    7SAPS  C212  858   3.380   0.582   5.462
    7SAPS  H12R  859   3.482   0.610   5.433
    7SAPS  C213  860   3.276   0.628   5.367
    7SAPS  H13R  861   3.173   0.621   5.407
    7SAPS  H13S  862   3.279   0.571   5.271
    7SAPS  C214  863   3.295   0.770   5.311
    7SAPS  H14R  864   3.230   0.852   5.345
    7SAPS  C215  865   3.369   0.801   5.200
    7SAPS  H15R  866   3.367   0.901   5.153
    7SAPS  C216  867   3.440   0.700   5.107
    7SAPS  H16R  868   3.442   0.603   5.161
    7SAPS  H16S  869   3.548   0.717   5.090
    7SAPS  C217  870   3.344   0.687   4.988
    7SAPS  H17R  871   3.242   0.669   5.027
    7SAPS  H17S  872   3.383   0.593   4.944
    7SAPS  C218  873   3.326   0.795   4.879
    7SAPS  H18R  874   3.259   0.867   4.930
    7SAPS  H18S  875   3.289   0.755   4.781
    7SAPS  C219  876   3.460   0.878   4.843
    7SAPS  H19R  877   3.550   0.813   4.842
    7SAPS  H19S  878   3.481   0.953   4.922
    7SAPS  C220  879   3.465   0.937   4.700
    7SAPS  H20R  880   3.569   0.942   4.662
    7SAPS  H20S  881   3.415   1.037   4.705
    7SAPS  H20T  882   3.410   0.870   4.630
    7SAPS   C33  883   2.212   0.740   5.756
    7SAPS   H3X  884   2.319   0.768   5.757
    7SAPS   H3Y  885   2.156   0.810   5.822
    7SAPS   C34  886   2.158   0.737   5.614
    7SAPS   H4X  887   2.047   0.730   5.626
    7SAPS   H4Y  888   2.215   0.653   5.569
    7SAPS   C35  889   2.198   0.861   5.529
    7SAPS   H5X  890   2.301   0.896   5.553
    7SAPS   H5Y  891   2.118   0.938   5.538
    7SAPS   C36  892   2.208   0.826   5.378
    7SAPS   H6X  893   2.238   0.910   5.312
    7SAPS   H6Y  894   2.102   0.801   5.356
    7SAPS   C37  895   2.293   0.714   5.337
    7SAPS   H7X  896   2.261   0.619   5.385
    7SAPS   H7Y  897   2.394   0.723   5.384
    7SAPS   C38  898   2.313   0.688   5.185
    7SAPS   H8X  899   2.377   0.599   5.167
    7SAPS   H8Y  900   2.364   0.782   5.152
    7SAPS   C39  901   2.189   0.664   5.096
    7SAPS   H9X  902   2.119   0.745   5.125
    7SAPS   H9Y  903   2.146   0.562   5.108
    7SAPS  C310  904   2.214   0.691   4.949
    7SAPS  H10X  905   2.241   0.797   4.927
    7SAPS  H10Y  906   2.116   0.680   4.899
    7SAPS  C311  907   2.323   0.595   4.892
    7SAPS  H11X  908   2.288   0.493   4.918
    7SAPS  H11Y  909   2.411   0.619   4.955
    7SAPS  C312  910   2.343   0.595   4.739
    7SAPS  H12X  911   2.244   0.585   4.689
    7SAPS  H12Y  912   2.423   0.528   4.701
    7SAPS  C313  913   2.397   0.728   4.694
    7SAPS  H13X  914   2.453   0.773   4.779
    7SAPS  H13Y  915   2.314   0.801   4.680
    7SAPS  C314  916   2.489   0.740   4.580
    7SAPS  H14X  917   2.439   0.691   4.493
    7SAPS  H14Y  918   2.579   0.677   4.597
    7SAPS  C315  919   2.532   0.883   4.547
    7SAPS  H15X  920   2.597   0.923   4.627
    7SAPS  H15Y  921   2.449   0.957   4.542
    7SAPS  C316  922   2.619   0.892   4.419
    7SAPS  H16X  923   2.563   0.863   4.328
    7SAPS  H16Y  924   2.706   0.823   4.422
    7SAPS  C317  925   2.682   1.032   4.393
    7SAPS  H17X  926   2.736   1.050   4.488
    7SAPS  H17Y  927   2.599   1.105   4.387
    7SAPS  C318  928   2.779   1.054   4.276
    7SAPS  H18X  929   2.864   0.986   4.298
    7SAPS  H18Y  930   2.810   1.161   4.266
    7SAPS  H18Z  931   2.754   1.021   4.173
    8SAPS     N  932   1.551   1.463   6.565
    8SAPS   HN1  933   1.505   1.426   6.479
    8SAPS   HN2  934   1.475   1.474   6.634
    8SAPS   HN3  935   1.576   1.563   6.547
    8SAPS   C12  936   1.664   1.378   6.599
    8SAPS  H12A  937   1.717   1.423   6.682
    8SAPS   C13  938   1.618   1.245   6.656
    8SAPS  O13A  939   1.497   1.221   6.681
    8SAPS  O13B  940   1.715   1.181   6.707
    8SAPS   C11  941   1.762   1.353   6.482
    8SAPS  H11A  942   1.713   1.285   6.409
    8SAPS  H11B  943   1.857   1.302   6.511
    8SAPS     P  944   1.939   1.555   6.436
    8SAPS   O13  945   1.961   1.661   6.334
    8SAPS   O14  946   1.952   1.591   6.576
    8SAPS   O12  947   1.800   1.476   6.413
    8SAPS   O11  948   2.047   1.438   6.416
    8SAPS    C1  949   2.057   1.386   6.283
    8SAPS    HA  950   2.066   1.276   6.297
    8SAPS    HB  951   1.963   1.398   6.225
    8SAPS    C2  952   2.183   1.438   6.206
    8SAPS    HS  953   2.162   1.537   6.158
    8SAPS   O21  954   2.220   1.350   6.107
    8SAPS   C21  955   2.178   1.378   5.985
    8SAPS   O22  956   2.103   1.469   5.954
    8SAPS   C22  957   2.242   1.272   5.891
    8SAPS   H2R  958   2.352   1.280   5.905
    8SAPS   H2S  959   2.207   1.172   5.925
    8SAPS    C3  960   2.309   1.442   6.305
    8SAPS    HX  961   2.334   1.341   6.346
    8SAPS    HY  962   2.280   1.503   6.393
    8SAPS   O31  963   2.426   1.492   6.236
    8SAPS   C31  964   2.430   1.621   6.214
    8SAPS   O32  965   2.339   1.698   6.239
    8SAPS   C32  966   2.569   1.654   6.171
    8SAPS   H2X  967   2.642   1.633   6.253
    8SAPS   H2Y  968   2.582   1.763   6.157
    8SAPS   C23  969   2.224   1.303   5.737
    8SAPS   H3R  970   2.257   1.405   5.708
    8SAPS   H3S  971   2.115   1.298   5.718
    8SAPS   C24  972   2.269   1.185   5.640
    8SAPS   H4R  973   2.228   1.219   5.542
    8SAPS   H4S  974   2.231   1.086   5.673
    8SAPS   C25  975   2.418   1.167   5.637
    8SAPS   H5R  976   2.450   1.119   5.731
    8SAPS   C26  977   2.501   1.178   5.537
    8SAPS   H6R  978   2.610   1.166   5.545
    8SAPS   C27  979   2.459   1.231   5.402
    8SAPS   H7R  980   2.425   1.337   5.394
    8SAPS   H7S  981   2.376   1.172   5.356
    8SAPS   C28  982   2.561   1.224   5.292
    8SAPS   H8R  983   2.663   1.261   5.309
    8SAPS   C29  984   2.544   1.165   5.170
    8SAPS   H9R  985   2.624   1.162   5.094
    8SAPS  C210  986   2.412   1.118   5.116
    8SAPS  H10R  987   2.356   1.213   5.102
    8SAPS  H10S  988   2.357   1.053   5.188
    8SAPS  C211  989   2.410   1.046   4.982
    8SAPS  H11R  990   2.398   0.938   4.997
    8SAPS  C212  991   2.427   1.092   4.858
    8SAPS  H12R  992   2.426   1.017   4.779
    8SAPS  C213  993   2.433   1.240   4.825
    8SAPS  H13R  994   2.508   1.294   4.887
    8SAPS  H13S  995   2.342   1.288   4.869
    8SAPS  C214  996   2.444   1.269   4.675
    8SAPS  H14R  997   2.548   1.292   4.649
    8SAPS  C215  998   2.350   1.284   4.582
    8SAPS  H15R  999   2.368   1.312   4.477
    8SAPS  C216 1000   2.201   1.269   4.604
    8SAPS  H16R 1001   2.148   1.364   4.581
    8SAPS  H16S 1002   2.185   1.247   4.712
    8SAPS  C217 1003   2.149   1.148   4.525
    8SAPS  H17R 1004   2.048   1.115   4.556
    8SAPS  H17S 1005   2.211   1.057   4.539
    8SAPS  C218 1006   2.128   1.174   4.381
    8SAPS  H18R 1007   2.224   1.206   4.334
    8SAPS  H18S 1008   2.056   1.258   4.366
    8SAPS  C219 1009   2.070   1.055   4.304
    8SAPS  H19R 1010   1.963   1.044   4.332
    8SAPS  H19S 1011   2.130   0.969   4.338
    8SAPS  C220 1012   2.080   1.074   4.151
    8SAPS  H20R 1013   2.057   0.989   4.084
    8SAPS  H20S 1014   2.172   1.129   4.122
    8SAPS  H20T 1015   1.998   1.147   4.134
    8SAPS   C33 1016   2.616   1.588   6.040
    8SAPS   H3X 1017   2.612   1.479   6.061
    8SAPS   H3Y 1018   2.722   1.620   6.023
    8SAPS   C34 1019   2.539   1.618   5.915
    8SAPS   H4X 1020   2.515   1.726   5.904
    8SAPS   H4Y 1021   2.442   1.568   5.933
    8SAPS   C35 1022   2.600   1.566   5.789
    8SAPS   H5X 1023   2.620   1.457   5.787
    8SAPS   H5Y 1024   2.699   1.614   5.773
    8SAPS   C36 1025   2.516   1.609   5.661
    8SAPS   H6X 1026   2.478   1.712   5.680
    8SAPS   H6Y 1027   2.425   1.547   5.673
    8SAPS   C37 1028   2.568   1.581   5.526
    8SAPS   H7X 1029   2.591   1.473   5.517
    8SAPS   H7Y 1030   2.668   1.627   5.513
    8SAPS   C38 1031   2.477   1.637   5.418
    8SAPS   H8X 1032   2.483   1.747   5.432
    8SAPS   H8Y 1033   2.369   1.613   5.427
    8SAPS   C39 1034   2.519   1.614   5.279
    8SAPS   H9X 1035   2.519   1.503   5.268
    8SAPS   H9Y 1036   2.625   1.644   5.264
    8SAPS  C310 1037   2.446   1.683   5.168
    8SAPS  H10X 1038   2.457   1.794   5.164
    8SAPS  H10Y 1039   2.337   1.661   5.159
    8SAPS  C311 1040   2.509   1.649   5.029
    8SAPS  H11X 1041   2.513   1.540   5.010
    8SAPS  H11Y 1042   2.617   1.674   5.034
    8SAPS  C312 1043   2.448   1.721   4.907
    8SAPS  H12X 1044   2.496   1.678   4.817
    8SAPS  H12Y 1045   2.462   1.831   4.918
    8SAPS  C313 1046   2.300   1.694   4.877
    8SAPS  H13X 1047   2.237   1.753   4.947
    8SAPS  H13Y 1048   2.284   1.585   4.892
    8SAPS  C314 1049   2.261   1.732   4.731
    8SAPS  H14X 1050   2.309   1.669   4.652
    8SAPS  H14Y 1051   2.279   1.840   4.716
    8SAPS  C315 1052   2.117   1.703   4.697
    8SAPS  H15X 1053   2.051   1.717   4.785
    8SAPS  H15Y 1054   2.118   1.598   4.660
    8SAPS  C316 1055   2.071   1.793   4.586
    8SAPS  H16X 1056   2.132   1.772   4.495
    8SAPS  H16Y 1057   2.091   1.895   4.626
    8SAPS  C317 1058   1.920   1.772   4.556
    8SAPS  H17X 1059   1.874   1.867   4.521
    8SAPS  H17Y 1060   1.877   1.754   4.656
    8SAPS  C318 1061   1.895   1.658   4.457
    8SAPS  H18X 1062   1.788   1.636   4.437
    8SAPS  H18Y 1063   1.953   1.568   4.488
    8SAPS  H18Z 1064   1.935   1.685   4.358
    9SAPS     N 1065   0.677   4.551   7.105
    9SAPS   HN1 1066   0.655   4.638   7.052
    9SAPS   HN2 1067   0.639   4.468   7.055
    9SAPS   HN3 1068   0.630   4.544   7.198
    9SAPS   C12 1069   0.827   4.544   7.137
    9SAPS  H12A 1070   0.839   4.632   7.199
    9SAPS   C13 1071   0.870   4.416   7.205
    9SAPS  O13A 1072   0.800   4.308   7.191
    9SAPS  O13B 1073   0.993   4.406   7.217
    9SAPS   C11 1074   0.899   4.560   7.000
    9SAPS  H11A 1075   0.871   4.466   6.947
    9SAPS  H11B 1076   1.009   4.566   7.017
    9SAPS     P 1077   0.860   4.670   6.763
    9SAPS   O13 1078   0.738   4.603   6.712
    9SAPS   O14 1079   0.880   4.813   6.722
    9SAPS   O12 1080   0.847   4.670   6.923
    9SAPS   O11 1081   0.994   4.575   6.745
    9SAPS    C1 1082   1.117   4.635   6.703
    9SAPS    HA 1083   1.143   4.740   6.727
    9SAPS    HB 1084   1.200   4.576   6.747
    9SAPS    C2 1085   1.123   4.622   6.542
    9SAPS    HS 1086   1.215   4.669   6.502
    9SAPS   O21 1087   1.013   4.668   6.474
    9SAPS   C21 1088   1.010   4.798   6.466
    9SAPS   O22 1089   1.090   4.878   6.511
    9SAPS   C22 1090   0.882   4.831   6.387
    9SAPS   H2R 1091   0.804   4.756   6.410
    9SAPS   H2S 1092   0.847   4.928   6.429
    9SAPS    C3 1093   1.125   4.471   6.507
    9SAPS    HX 1094   1.031   4.421   6.539
    9SAPS    HY 1095   1.211   4.427   6.562
    9SAPS   O31 1096   1.131   4.452   6.362
    9SAPS   C31 1097   1.257   4.444   6.304
    9SAPS   O32 1098   1.359   4.447   6.374
    9SAPS   C32 1099   1.252   4.437   6.155
    9SAPS   H2X 1100   1.193   4.521   6.113
    9SAPS   H2Y 1101   1.197   4.344   6.127
    9SAPS   C23 1102   0.920   4.849   6.241
    9SAPS   H3R 1103   0.824   4.831   6.186
    9SAPS   H3S 1104   0.998   4.778   6.205
    9SAPS   C24 1105   0.972   4.989   6.199
    9SAPS   H4R 1106   1.041   5.028   6.276
    9SAPS   H4S 1107   0.886   5.059   6.202
    9SAPS   C25 1108   1.042   4.969   6.065
    9SAPS   H5R 1109   1.150   4.951   6.063
    9SAPS   C26 1110   0.985   4.991   5.947
    9SAPS   H6R 1111   1.042   4.983   5.853
    9SAPS   C27 1112   0.842   5.026   5.923
    9SAPS   H7R 1113   0.785   4.979   6.006
    9SAPS   H7S 1114   0.803   4.981   5.829
    9SAPS   C28 1115   0.817   5.176   5.912
    9SAPS   H8R 1116   0.804   5.220   6.013
    9SAPS   C29 1117   0.804   5.248   5.799
    9SAPS   H9R 1118   0.779   5.355   5.810
    9SAPS  C210 1119   0.810   5.196   5.663
    9SAPS  H10R 1120   0.846   5.091   5.658
    9SAPS  H10S 1121   0.886   5.246   5.599
    9SAPS  C211 1122   0.671   5.188   5.612
    9SAPS  H11R 1123   0.600   5.146   5.685
    9SAPS  C212 1124   0.627   5.204   5.488
    9SAPS  H12R 1125   0.518   5.202   5.469
    9SAPS  C213 1126   0.703   5.258   5.364
    9SAPS  H13R 1127   0.801   5.300   5.394
    9SAPS  H13S 1128   0.651   5.349   5.329
    9SAPS  C214 1129   0.724   5.165   5.252
    9SAPS  H14R 1130   0.655   5.080   5.257
    9SAPS  C215 1131   0.782   5.184   5.130
    9SAPS  H15R 1132   0.799   5.099   5.062
    9SAPS  C216 1133   0.854   5.307   5.090
    9SAPS  H16R 1134   0.861   5.383   5.172
    9SAPS  H16S 1135   0.786   5.366   5.024
    9SAPS  C217 1136   0.981   5.273   5.017
    9SAPS  H17R 1137   1.011   5.357   4.950
    9SAPS  H17S 1138   0.969   5.187   4.948
    9SAPS  C218 1139   1.090   5.242   5.121
    9SAPS  H18R 1140   1.090   5.136   5.154
    9SAPS  H18S 1141   1.076   5.306   5.210
    9SAPS  C219 1142   1.235   5.274   5.077
    9SAPS  H19R 1143   1.312   5.260   5.156
    9SAPS  H19S 1144   1.244   5.384   5.070
    9SAPS  C220 1145   1.287   5.202   4.954
    9SAPS  H20R 1146   1.398   5.208   4.943
    9SAPS  H20S 1147   1.241   5.244   4.861
    9SAPS  H20T 1148   1.257   5.096   4.949
    9SAPS   C33 1149   1.386   4.452   6.087
    9SAPS   H3X 1150   1.462   4.387   6.135
    9SAPS   H3Y 1151   1.418   4.559   6.087
    9SAPS   C34 1152   1.384   4.403   5.939
    9SAPS   H4X 1153   1.377   4.293   5.932
    9SAPS   H4Y 1154   1.483   4.431   5.897
    9SAPS   C35 1155   1.271   4.465   5.848
    9SAPS   H5X 1156   1.173   4.431   5.889
    9SAPS   H5Y 1157   1.277   4.403   5.755
    9SAPS   C36 1158   1.266   4.619   5.822
    9SAPS   H6X 1159   1.246   4.668   5.920
    9SAPS   H6Y 1160   1.185   4.634   5.747
    9SAPS   C37 1161   1.389   4.681   5.758
    9SAPS   H7X 1162   1.476   4.662   5.825
    9SAPS   H7Y 1163   1.369   4.789   5.744
    9SAPS   C38 1164   1.414   4.600   5.628
    9SAPS   H8X 1165   1.325   4.595   5.562
    9SAPS   H8Y 1166   1.421   4.493   5.656
    9SAPS   C39 1167   1.540   4.634   5.549
    9SAPS   H9X 1168   1.584   4.549   5.493
    9SAPS   H9Y 1169   1.618   4.692   5.604
    9SAPS  C310 1170   1.497   4.742   5.446
    9SAPS  H10X 1171   1.455   4.827   5.504
    9SAPS  H10Y 1172   1.433   4.690   5.372
    9SAPS  C311 1173   1.618   4.809   5.374
    9SAPS  H11X 1174   1.700   4.736   5.356
    9SAPS  H11Y 1175   1.655   4.884   5.446
    9SAPS  C312 1176   1.575   4.849   5.233
    9SAPS  H12X 1177   1.513   4.940   5.244
    9SAPS  H12Y 1178   1.518   4.772   5.176
    9SAPS  C313 1179   1.700   4.897   5.157
    9SAPS  H13X 1180   1.770   4.812   5.148
    9SAPS  H13Y 1181   1.755   4.978   5.210
    9SAPS  C314 1182   1.667   4.957   5.015
    9SAPS  H14X 1183   1.588   5.030   5.040
    9SAPS  H14Y 1184   1.627   4.875   4.952
    9SAPS  C315 1185   1.795   5.020   4.948
    9SAPS  H15X 1186   1.866   4.937   4.931
    9SAPS  H15Y 1187   1.833   5.093   5.022
    9SAPS  C316 1188   1.772   5.096   4.816
    9SAPS  H16X 1189   1.872   5.132   4.785
    9SAPS  H16Y 1190   1.709   5.186   4.838
    9SAPS  C317 1191   1.717   5.010   4.706
    9SAPS  H17X 1192   1.613   4.982   4.733
    9SAPS  H17Y 1193   1.777   4.917   4.702
    9SAPS  C318 1194   1.736   5.075   4.567
    9SAPS  H18X 1195   1.688   5.175   4.568
    9SAPS  H18Y 1196   1.696   5.006   4.490
    9SAPS  H18Z 1197   1.845   5.090   4.549
   10SAPS     N 1198   1.681   3.736   6.230
   10SAPS   HN1 1199   1.615   3.675   6.283
   10SAPS   HN2 1200   1.668   3.715   6.129
   10SAPS   HN3 1201   1.776   3.700   6.250
   10SAPS   C12 1202   1.657   3.881   6.264
   10SAPS  H12A 1203   1.643   3.925   6.167
   10SAPS   C13 1204   1.528   3.921   6.340
   10SAPS  O13A 1205   1.459   3.833   6.398
   10SAPS  O13B 1206   1.516   4.044   6.368
   10SAPS   C11 1207   1.768   3.941   6.356
   10SAPS  H11A 1208   1.744   3.926   6.463
   10SAPS  H11B 1209   1.766   4.051   6.342
   10SAPS     P 1210   2.036   3.909   6.413
   10SAPS   O13 1211   2.008   3.922   6.555
   10SAPS   O14 1212   2.133   3.809   6.363
   10SAPS   O12 1213   1.900   3.884   6.336
   10SAPS   O11 1214   2.092   4.041   6.357
   10SAPS    C1 1215   2.021   4.164   6.382
   10SAPS    HA 1216   1.945   4.163   6.464
   10SAPS    HB 1217   2.105   4.228   6.416
   10SAPS    C2 1218   1.966   4.242   6.260
   10SAPS    HS 1219   1.862   4.208   6.239
   10SAPS   O21 1220   2.031   4.197   6.141
   10SAPS   C21 1221   2.161   4.207   6.136
   10SAPS   O22 1222   2.240   4.258   6.215
   10SAPS   C22 1223   2.201   4.145   6.008
   10SAPS   H2R 1224   2.307   4.113   6.014
   10SAPS   H2S 1225   2.139   4.055   5.988
   10SAPS    C3 1226   1.967   4.397   6.291
   10SAPS    HX 1227   2.076   4.419   6.302
   10SAPS    HY 1228   1.918   4.423   6.388
   10SAPS   O31 1229   1.892   4.470   6.204
   10SAPS   C31 1230   1.879   4.602   6.227
   10SAPS   O32 1231   1.927   4.661   6.322
   10SAPS   C32 1232   1.797   4.675   6.117
   10SAPS   H2X 1233   1.692   4.695   6.148
   10SAPS   H2Y 1234   1.783   4.610   6.028
   10SAPS   C23 1235   2.180   4.247   5.893
   10SAPS   H3R 1236   2.082   4.298   5.903
   10SAPS   H3S 1237   2.166   4.179   5.807
   10SAPS   C24 1238   2.294   4.347   5.866
   10SAPS   H4R 1239   2.327   4.411   5.951
   10SAPS   H4S 1240   2.259   4.425   5.794
   10SAPS   C25 1241   2.408   4.272   5.804
   10SAPS   H5R 1242   2.458   4.201   5.870
   10SAPS   C26 1243   2.440   4.267   5.673
   10SAPS   H6R 1244   2.507   4.187   5.636
   10SAPS   C27 1245   2.367   4.331   5.562
   10SAPS   H7R 1246   2.262   4.351   5.591
   10SAPS   H7S 1247   2.379   4.266   5.473
   10SAPS   C28 1248   2.436   4.463   5.540
   10SAPS   H8R 1249   2.478   4.512   5.629
   10SAPS   C29 1250   2.445   4.523   5.420
   10SAPS   H9R 1251   2.503   4.615   5.412
   10SAPS  C210 1252   2.416   4.466   5.285
   10SAPS  H10R 1253   2.381   4.547   5.216
   10SAPS  H10S 1254   2.334   4.391   5.284
   10SAPS  C211 1255   2.541   4.412   5.211
   10SAPS  H11R 1256   2.611   4.350   5.270
   10SAPS  C212 1257   2.578   4.424   5.086
   10SAPS  H12R 1258   2.672   4.376   5.055
   10SAPS  C213 1259   2.499   4.501   4.982
   10SAPS  H13R 1260   2.554   4.527   4.890
   10SAPS  H13S 1261   2.469   4.600   5.024
   10SAPS  C214 1262   2.372   4.432   4.931
   10SAPS  H14R 1263   2.346   4.337   4.982
   10SAPS  C215 1264   2.297   4.466   4.828
   10SAPS  H15R 1265   2.203   4.416   4.801
   10SAPS  C216 1266   2.325   4.592   4.746
   10SAPS  H16R 1267   2.392   4.660   4.803
   10SAPS  H16S 1268   2.239   4.662   4.732
   10SAPS  C217 1269   2.391   4.571   4.609
   10SAPS  H17R 1270   2.322   4.516   4.543
   10SAPS  H17S 1271   2.489   4.524   4.633
   10SAPS  C218 1272   2.397   4.709   4.527
   10SAPS  H18R 1273   2.395   4.786   4.607
   10SAPS  H18S 1274   2.311   4.717   4.458
   10SAPS  C219 1275   2.526   4.718   4.450
   10SAPS  H19R 1276   2.542   4.629   4.386
   10SAPS  H19S 1277   2.605   4.715   4.528
   10SAPS  C220 1278   2.547   4.844   4.371
   10SAPS  H20R 1279   2.499   4.838   4.271
   10SAPS  H20S 1280   2.652   4.830   4.337
   10SAPS  H20T 1281   2.523   4.941   4.421
   10SAPS   C33 1282   1.859   4.814   6.078
   10SAPS   H3X 1283   1.839   4.881   6.165
   10SAPS   H3Y 1284   1.801   4.852   5.991
   10SAPS   C34 1285   2.006   4.807   6.048
   10SAPS   H4X 1286   2.074   4.765   6.126
   10SAPS   H4Y 1287   2.044   4.911   6.038
   10SAPS   C35 1288   2.042   4.730   5.919
   10SAPS   H5X 1289   2.001   4.627   5.923
   10SAPS   H5Y 1290   2.151   4.713   5.918
   10SAPS   C36 1291   1.988   4.792   5.795
   10SAPS   H6X 1292   2.013   4.900   5.799
   10SAPS   H6Y 1293   1.877   4.798   5.797
   10SAPS   C37 1294   2.038   4.733   5.670
   10SAPS   H7X 1295   1.970   4.649   5.647
   10SAPS   H7Y 1296   2.141   4.696   5.689
   10SAPS   C38 1297   2.067   4.834   5.554
   10SAPS   H8X 1298   2.169   4.876   5.538
   10SAPS   H8Y 1299   1.996   4.919   5.551
   10SAPS   C39 1300   2.040   4.758   5.421
   10SAPS   H9X 1301   1.937   4.762   5.381
   10SAPS   H9Y 1302   2.061   4.652   5.449
   10SAPS  C310 1303   2.142   4.777   5.304
   10SAPS  H10X 1304   2.100   4.722   5.218
   10SAPS  H10Y 1305   2.242   4.735   5.326
   10SAPS  C311 1306   2.154   4.918   5.264
   10SAPS  H11X 1307   2.212   4.969   5.344
   10SAPS  H11Y 1308   2.054   4.967   5.260
   10SAPS  C312 1309   2.212   4.933   5.125
   10SAPS  H12X 1310   2.167   4.866   5.048
   10SAPS  H12Y 1311   2.319   4.902   5.126
   10SAPS  C313 1312   2.212   5.077   5.071
   10SAPS  H13X 1313   2.293   5.136   5.120
   10SAPS  H13Y 1314   2.121   5.128   5.108
   10SAPS  C314 1315   2.227   5.076   4.922
   10SAPS  H14X 1316   2.142   5.021   4.876
   10SAPS  H14Y 1317   2.314   5.019   4.884
   10SAPS  C315 1318   2.242   5.220   4.865
   10SAPS  H15X 1319   2.342   5.249   4.904
   10SAPS  H15Y 1320   2.169   5.284   4.920
   10SAPS  C316 1321   2.237   5.238   4.717
   10SAPS  H16X 1322   2.271   5.339   4.686
   10SAPS  H16Y 1323   2.134   5.225   4.677
   10SAPS  C317 1324   2.325   5.140   4.634
   10SAPS  H17X 1325   2.276   5.042   4.646
   10SAPS  H17Y 1326   2.429   5.142   4.672
   10SAPS  C318 1327   2.344   5.176   4.487
   10SAPS  H18X 1328   2.410   5.265   4.481
   10SAPS  H18Y 1329   2.243   5.199   4.447
   10SAPS  H18Z 1330   2.409   5.113   4.422
   11SAPS     N 1331   2.997   2.795   2.068
   11SAPS   HN1 1332   3.063   2.804   2.147
   11SAPS   HN2 1333   2.956   2.888   2.047
   11SAPS   HN3 1334   2.931   2.718   2.091
   11SAPS   C12 1335   3.099   2.754   1.965
   11SAPS  H12A 1336   3.138   2.659   1.998
   11SAPS   C13 1337   3.039   2.746   1.822
   11SAPS  O13A 1338   2.918   2.776   1.797
   11SAPS  O13B 1339   3.123   2.712   1.735
   11SAPS   C11 1340   3.204   2.867   1.966
   11SAPS  H11A 1341   3.156   2.963   1.936
   11SAPS  H11B 1342   3.274   2.839   1.884
   11SAPS     P 1343   3.411   2.867   2.131
   11SAPS   O13 1344   3.432   2.733   2.189
   11SAPS   O14 1345   3.500   2.900   2.015
   11SAPS   O12 1346   3.261   2.888   2.094
   11SAPS   O11 1347   3.429   2.972   2.250
   11SAPS    C1 1348   3.324   2.983   2.348
   11SAPS    HA 1349   3.245   3.038   2.294
   11SAPS    HB 1350   3.287   2.885   2.385
   11SAPS    C2 1351   3.354   3.071   2.475
   11SAPS    HS 1352   3.259   3.065   2.532
   11SAPS   O21 1353   3.388   3.211   2.440
   11SAPS   C21 1354   3.280   3.277   2.388
   11SAPS   O22 1355   3.166   3.242   2.382
   11SAPS   C22 1356   3.341   3.412   2.343
   11SAPS   H2R 1357   3.432   3.436   2.402
   11SAPS   H2S 1358   3.366   3.404   2.235
   11SAPS    C3 1359   3.469   3.017   2.566
   11SAPS    HX 1360   3.464   3.081   2.657
   11SAPS    HY 1361   3.561   3.035   2.507
   11SAPS   O31 1362   3.467   2.878   2.608
   11SAPS   C31 1363   3.384   2.842   2.703
   11SAPS   O32 1364   3.311   2.922   2.760
   11SAPS   C32 1365   3.406   2.692   2.735
   11SAPS   H2X 1366   3.484   2.687   2.813
   11SAPS   H2Y 1367   3.441   2.646   2.640
   11SAPS   C23 1368   3.244   3.527   2.369
   11SAPS   H3R 1369   3.137   3.504   2.346
   11SAPS   H3S 1370   3.262   3.614   2.302
   11SAPS   C24 1371   3.257   3.593   2.513
   11SAPS   H4R 1372   3.183   3.676   2.508
   11SAPS   H4S 1373   3.359   3.637   2.502
   11SAPS   C25 1374   3.218   3.501   2.626
   11SAPS   H5R 1375   3.113   3.494   2.659
   11SAPS   C26 1376   3.305   3.468   2.727
   11SAPS   H6R 1377   3.258   3.398   2.798
   11SAPS   C27 1378   3.451   3.492   2.731
   11SAPS   H7R 1379   3.493   3.551   2.647
   11SAPS   H7S 1380   3.512   3.399   2.732
   11SAPS   C28 1381   3.498   3.575   2.854
   11SAPS   H8R 1382   3.490   3.683   2.835
   11SAPS   C29 1383   3.558   3.538   2.967
   11SAPS   H9R 1384   3.583   3.607   3.049
   11SAPS  C210 1385   3.628   3.402   3.001
   11SAPS  H10R 1386   3.598   3.332   2.919
   11SAPS  H10S 1387   3.571   3.352   3.082
   11SAPS  C211 1388   3.773   3.380   3.021
   11SAPS  H11R 1389   3.817   3.327   2.935
   11SAPS  C212 1390   3.842   3.400   3.138
   11SAPS  H12R 1391   3.949   3.374   3.142
   11SAPS  C213 1392   3.785   3.440   3.271
   11SAPS  H13R 1393   3.813   3.364   3.347
   11SAPS  H13S 1394   3.675   3.434   3.270
   11SAPS  C214 1395   3.835   3.576   3.325
   11SAPS  H14R 1396   3.927   3.612   3.278
   11SAPS  C215 1397   3.772   3.655   3.419
   11SAPS  H15R 1398   3.820   3.747   3.455
   11SAPS  C216 1399   3.635   3.640   3.483
   11SAPS  H16R 1400   3.573   3.569   3.425
   11SAPS  H16S 1401   3.591   3.741   3.470
   11SAPS  C217 1402   3.633   3.596   3.627
   11SAPS  H17R 1403   3.675   3.677   3.691
   11SAPS  H17S 1404   3.690   3.501   3.639
   11SAPS  C218 1405   3.496   3.564   3.676
   11SAPS  H18R 1406   3.459   3.468   3.634
   11SAPS  H18S 1407   3.426   3.641   3.639
   11SAPS  C219 1408   3.477   3.557   3.832
   11SAPS  H19R 1409   3.456   3.660   3.867
   11SAPS  H19S 1410   3.568   3.531   3.890
   11SAPS  C220 1411   3.368   3.458   3.881
   11SAPS  H20R 1412   3.276   3.496   3.833
   11SAPS  H20S 1413   3.349   3.468   3.990
   11SAPS  H20T 1414   3.398   3.353   3.861
   11SAPS   C33 1415   3.273   2.625   2.772
   11SAPS   H3X 1416   3.194   2.641   2.696
   11SAPS   H3Y 1417   3.232   2.679   2.860
   11SAPS   C34 1418   3.274   2.478   2.810
   11SAPS   H4X 1419   3.277   2.418   2.717
   11SAPS   H4Y 1420   3.180   2.449   2.861
   11SAPS   C35 1421   3.390   2.428   2.900
   11SAPS   H5X 1422   3.485   2.440   2.844
   11SAPS   H5Y 1423   3.375   2.320   2.920
   11SAPS   C36 1424   3.400   2.492   3.037
   11SAPS   H6X 1425   3.424   2.600   3.039
   11SAPS   H6Y 1426   3.480   2.430   3.082
   11SAPS   C37 1427   3.269   2.476   3.125
   11SAPS   H7X 1428   3.237   2.371   3.146
   11SAPS   H7Y 1429   3.190   2.525   3.063
   11SAPS   C38 1430   3.281   2.552   3.254
   11SAPS   H8X 1431   3.179   2.576   3.290
   11SAPS   H8Y 1432   3.335   2.647   3.232
   11SAPS   C39 1433   3.350   2.480   3.369
   11SAPS   H9X 1434   3.445   2.433   3.337
   11SAPS   H9Y 1435   3.286   2.392   3.393
   11SAPS  C310 1436   3.372   2.572   3.491
   11SAPS  H10X 1437   3.278   2.626   3.518
   11SAPS  H10Y 1438   3.446   2.653   3.481
   11SAPS  C311 1439   3.424   2.491   3.613
   11SAPS  H11X 1440   3.498   2.412   3.590
   11SAPS  H11Y 1441   3.340   2.429   3.649
   11SAPS  C312 1442   3.468   2.591   3.720
   11SAPS  H12X 1443   3.381   2.653   3.750
   11SAPS  H12Y 1444   3.547   2.658   3.682
   11SAPS  C313 1445   3.514   2.521   3.853
   11SAPS  H13X 1446   3.599   2.453   3.835
   11SAPS  H13Y 1447   3.428   2.465   3.897
   11SAPS  C314 1448   3.570   2.621   3.964
   11SAPS  H14X 1449   3.492   2.694   3.995
   11SAPS  H14Y 1450   3.657   2.669   3.914
   11SAPS  C315 1451   3.617   2.552   4.093
   11SAPS  H15X 1452   3.705   2.487   4.072
   11SAPS  H15Y 1453   3.538   2.483   4.129
   11SAPS  C316 1454   3.641   2.652   4.208
   11SAPS  H16X 1455   3.560   2.729   4.215
   11SAPS  H16Y 1456   3.740   2.699   4.194
   11SAPS  C317 1457   3.625   2.595   4.346
   11SAPS  H17X 1458   3.521   2.557   4.351
   11SAPS  H17Y 1459   3.636   2.679   4.418
   11SAPS  C318 1460   3.734   2.493   4.374
   11SAPS  H18X 1461   3.835   2.535   4.359
   11SAPS  H18Y 1462   3.710   2.397   4.323
   11SAPS  H18Z 1463   3.725   2.465   4.481
   12SAPS     N 1464   2.211   2.518   2.079
   12SAPS   HN1 1465   2.192   2.485   2.176
   12SAPS   HN2 1466   2.296   2.576   2.094
   12SAPS   HN3 1467   2.130   2.577   2.050
   12SAPS   C12 1468   2.231   2.410   1.977
   12SAPS  H12A 1469   2.154   2.340   2.007
   12SAPS   C13 1470   2.208   2.451   1.827
   12SAPS  O13A 1471   2.149   2.561   1.797
   12SAPS  O13B 1472   2.222   2.369   1.742
   12SAPS   C11 1473   2.383   2.362   1.984
   12SAPS  H11A 1474   2.443   2.453   1.964
   12SAPS  H11B 1475   2.410   2.290   1.904
   12SAPS     P 1476   2.556   2.250   2.139
   12SAPS   O13 1477   2.548   2.101   2.129
   12SAPS   O14 1478   2.660   2.325   2.060
   12SAPS   O12 1479   2.416   2.314   2.111
   12SAPS   O11 1480   2.571   2.285   2.294
   12SAPS    C1 1481   2.604   2.434   2.319
   12SAPS    HA 1482   2.714   2.441   2.304
   12SAPS    HB 1483   2.557   2.515   2.260
   12SAPS    C2 1484   2.565   2.478   2.461
   12SAPS    HS 1485   2.576   2.587   2.478
   12SAPS   O21 1486   2.626   2.397   2.558
   12SAPS   C21 1487   2.762   2.409   2.559
   12SAPS   O22 1488   2.823   2.496   2.501
   12SAPS   C22 1489   2.822   2.309   2.656
   12SAPS   H2R 1490   2.756   2.219   2.651
   12SAPS   H2S 1491   2.925   2.287   2.622
   12SAPS    C3 1492   2.407   2.460   2.471
   12SAPS    HX 1493   2.376   2.357   2.440
   12SAPS    HY 1494   2.358   2.513   2.386
   12SAPS   O31 1495   2.343   2.501   2.594
   12SAPS   C31 1496   2.337   2.409   2.689
   12SAPS   O32 1497   2.380   2.294   2.684
   12SAPS   C32 1498   2.276   2.473   2.809
   12SAPS   H2X 1499   2.167   2.486   2.793
   12SAPS   H2Y 1500   2.316   2.574   2.832
   12SAPS   C23 1501   2.814   2.365   2.797
   12SAPS   H3R 1502   2.743   2.449   2.811
   12SAPS   H3S 1503   2.913   2.394   2.837
   12SAPS   C24 1504   2.772   2.252   2.894
   12SAPS   H4R 1505   2.814   2.270   2.995
   12SAPS   H4S 1506   2.824   2.163   2.851
   12SAPS   C25 1507   2.621   2.231   2.916
   12SAPS   H5R 1508   2.557   2.236   2.827
   12SAPS   C26 1509   2.576   2.166   3.024
   12SAPS   H6R 1510   2.468   2.152   3.041
   12SAPS   C27 1511   2.673   2.114   3.137
   12SAPS   H7R 1512   2.777   2.095   3.103
   12SAPS   H7S 1513   2.634   2.017   3.174
   12SAPS   C28 1514   2.678   2.216   3.241
   12SAPS   H8R 1515   2.752   2.296   3.225
   12SAPS   C29 1516   2.603   2.218   3.358
   12SAPS   H9R 1517   2.622   2.306   3.421
   12SAPS  C210 1518   2.487   2.126   3.388
   12SAPS  H10R 1519   2.505   2.023   3.351
   12SAPS  H10S 1520   2.392   2.157   3.339
   12SAPS  C211 1521   2.479   2.140   3.541
   12SAPS  H11R 1522   2.424   2.227   3.582
   12SAPS  C212 1523   2.516   2.044   3.628
   12SAPS  H12R 1524   2.522   2.064   3.736
   12SAPS  C213 1525   2.583   1.910   3.604
   12SAPS  H13R 1526   2.684   1.919   3.649
   12SAPS  H13S 1527   2.604   1.910   3.495
   12SAPS  C214 1528   2.516   1.781   3.640
   12SAPS  H14R 1529   2.500   1.715   3.553
   12SAPS  C215 1530   2.499   1.737   3.766
   12SAPS  H15R 1531   2.456   1.638   3.785
   12SAPS  C216 1532   2.538   1.813   3.894
   12SAPS  H16R 1533   2.477   1.785   3.983
   12SAPS  H16S 1534   2.536   1.924   3.888
   12SAPS  C217 1535   2.679   1.768   3.958
   12SAPS  H17R 1536   2.750   1.765   3.873
   12SAPS  H17S 1537   2.661   1.664   3.992
   12SAPS  C218 1538   2.739   1.849   4.074
   12SAPS  H18R 1539   2.683   1.842   4.169
   12SAPS  H18S 1540   2.746   1.954   4.038
   12SAPS  C219 1541   2.888   1.808   4.092
   12SAPS  H19R 1542   2.943   1.843   4.001
   12SAPS  H19S 1543   2.892   1.698   4.098
   12SAPS  C220 1544   2.948   1.874   4.215
   12SAPS  H20R 1545   2.902   1.842   4.311
   12SAPS  H20S 1546   2.931   1.983   4.207
   12SAPS  H20T 1547   3.058   1.855   4.220
   12SAPS   C33 1548   2.307   2.395   2.939
   12SAPS   H3X 1549   2.411   2.409   2.975
   12SAPS   H3Y 1550   2.292   2.289   2.908
   12SAPS   C34 1551   2.212   2.428   3.052
   12SAPS   H4X 1552   2.110   2.387   3.036
   12SAPS   H4Y 1553   2.186   2.536   3.055
   12SAPS   C35 1554   2.253   2.376   3.186
   12SAPS   H5X 1555   2.364   2.368   3.191
   12SAPS   H5Y 1556   2.209   2.276   3.204
   12SAPS   C36 1557   2.216   2.462   3.304
   12SAPS   H6X 1558   2.106   2.465   3.318
   12SAPS   H6Y 1559   2.253   2.566   3.292
   12SAPS   C37 1560   2.261   2.400   3.441
   12SAPS   H7X 1561   2.372   2.392   3.431
   12SAPS   H7Y 1562   2.216   2.300   3.455
   12SAPS   C38 1563   2.220   2.479   3.561
   12SAPS   H8X 1564   2.111   2.497   3.551
   12SAPS   H8Y 1565   2.262   2.582   3.560
   12SAPS   C39 1566   2.279   2.415   3.693
   12SAPS   H9X 1567   2.270   2.504   3.759
   12SAPS   H9Y 1568   2.388   2.398   3.683
   12SAPS  C310 1569   2.214   2.297   3.752
   12SAPS  H10X 1570   2.215   2.214   3.678
   12SAPS  H10Y 1571   2.111   2.339   3.763
   12SAPS  C311 1572   2.263   2.249   3.892
   12SAPS  H11X 1573   2.255   2.337   3.960
   12SAPS  H11Y 1574   2.373   2.234   3.880
   12SAPS  C312 1575   2.180   2.143   3.955
   12SAPS  H12X 1576   2.075   2.179   3.941
   12SAPS  H12Y 1577   2.191   2.139   4.065
   12SAPS  C313 1578   2.195   2.005   3.885
   12SAPS  H13X 1579   2.295   1.973   3.921
   12SAPS  H13Y 1580   2.206   2.012   3.775
   12SAPS  C314 1581   2.099   1.892   3.929
   12SAPS  H14X 1582   2.116   1.876   4.037
   12SAPS  H14Y 1583   2.137   1.797   3.887
   12SAPS  C315 1584   1.946   1.918   3.907
   12SAPS  H15X 1585   1.921   2.006   3.970
   12SAPS  H15Y 1586   1.890   1.836   3.957
   12SAPS  C316 1587   1.896   1.919   3.767
   12SAPS  H16X 1588   1.907   1.818   3.722
   12SAPS  H16Y 1589   1.951   1.989   3.700
   12SAPS  C317 1590   1.752   1.960   3.746
   12SAPS  H17X 1591   1.695   1.894   3.815
   12SAPS  H17Y 1592   1.712   1.948   3.644
   12SAPS  C318 1593   1.736   2.110   3.780
   12SAPS  H18X 1594   1.635   2.145   3.748
   12SAPS  H18Y 1595   1.811   2.171   3.726
   12SAPS  H18Z 1596   1.758   2.124   3.888
   13SAPS     N 1597   5.424   0.525   2.305
   13SAPS   HN1 1598   5.518   0.486   2.330
   13SAPS   HN2 1599   5.411   0.619   2.347
   13SAPS   HN3 1600   5.348   0.461   2.337
   13SAPS   C12 1601   5.425   0.537   2.156
   13SAPS  H12A 1602   5.515   0.594   2.140
   13SAPS   C13 1603   5.427   0.405   2.074
   13SAPS  O13A 1604   5.409   0.295   2.131
   13SAPS  O13B 1605   5.458   0.415   1.951
   13SAPS   C11 1606   5.298   0.624   2.104
   13SAPS  H11A 1607   5.208   0.561   2.118
   13SAPS  H11B 1608   5.312   0.640   1.995
   13SAPS     P 1609   5.152   0.831   2.184
   13SAPS   O13 1610   5.158   0.897   2.314
   13SAPS   O14 1611   5.137   0.912   2.058
   13SAPS   O12 1612   5.287   0.751   2.170
   13SAPS   O11 1613   5.048   0.711   2.188
   13SAPS    C1 1614   5.024   0.636   2.305
   13SAPS    HA 1615   5.018   0.529   2.277
   13SAPS    HB 1616   5.101   0.640   2.385
   13SAPS    C2 1617   4.889   0.674   2.368
   13SAPS    HS 1618   4.894   0.774   2.416
   13SAPS   O21 1619   4.864   0.572   2.459
   13SAPS   C21 1620   4.930   0.575   2.572
   13SAPS   O22 1621   5.023   0.644   2.607
   13SAPS   C22 1622   4.859   0.485   2.675
   13SAPS   H2R 1623   4.749   0.483   2.653
   13SAPS   H2S 1624   4.910   0.386   2.677
   13SAPS    C3 1625   4.770   0.689   2.271
   13SAPS    HX 1626   4.757   0.590   2.224
   13SAPS    HY 1627   4.785   0.760   2.187
   13SAPS   O31 1628   4.656   0.742   2.333
   13SAPS   C31 1629   4.572   0.658   2.381
   13SAPS   O32 1630   4.572   0.533   2.359
   13SAPS   C32 1631   4.461   0.724   2.453
   13SAPS   H2X 1632   4.383   0.648   2.475
   13SAPS   H2Y 1633   4.418   0.800   2.384
   13SAPS   C23 1634   4.878   0.559   2.808
   13SAPS   H3R 1635   4.846   0.666   2.806
   13SAPS   H3S 1636   4.986   0.570   2.831
   13SAPS   C24 1637   4.807   0.500   2.931
   13SAPS   H4R 1638   4.849   0.402   2.961
   13SAPS   H4S 1639   4.705   0.477   2.894
   13SAPS   C25 1640   4.803   0.601   3.046
   13SAPS   H5R 1641   4.895   0.662   3.057
   13SAPS   C26 1642   4.698   0.616   3.135
   13SAPS   H6R 1643   4.720   0.683   3.219
   13SAPS   C27 1644   4.573   0.539   3.144
   13SAPS   H7R 1645   4.585   0.463   3.063
   13SAPS   H7S 1646   4.486   0.601   3.116
   13SAPS   C28 1647   4.553   0.464   3.274
   13SAPS   H8R 1648   4.596   0.363   3.267
   13SAPS   C29 1649   4.490   0.517   3.381
   13SAPS   H9R 1650   4.487   0.467   3.479
   13SAPS  C210 1651   4.438   0.660   3.392
   13SAPS  H10R 1652   4.328   0.663   3.408
   13SAPS  H10S 1653   4.442   0.723   3.301
   13SAPS  C211 1654   4.491   0.735   3.520
   13SAPS  H11R 1655   4.559   0.819   3.500
   13SAPS  C212 1656   4.455   0.705   3.653
   13SAPS  H12R 1657   4.482   0.768   3.739
   13SAPS  C213 1658   4.355   0.594   3.694
   13SAPS  H13R 1659   4.322   0.548   3.599
   13SAPS  H13S 1660   4.272   0.647   3.745
   13SAPS  C214 1661   4.410   0.482   3.783
   13SAPS  H14R 1662   4.491   0.426   3.735
   13SAPS  C215 1663   4.363   0.431   3.903
   13SAPS  H15R 1664   4.418   0.344   3.942
   13SAPS  C216 1665   4.241   0.485   3.981
   13SAPS  H16R 1666   4.153   0.419   3.965
   13SAPS  H16S 1667   4.221   0.589   3.947
   13SAPS  C217 1668   4.282   0.499   4.129
   13SAPS  H17R 1669   4.385   0.540   4.134
   13SAPS  H17S 1670   4.284   0.397   4.173
   13SAPS  C218 1671   4.189   0.584   4.208
   13SAPS  H18R 1672   4.157   0.684   4.171
   13SAPS  H18S 1673   4.251   0.603   4.299
   13SAPS  C219 1674   4.058   0.519   4.265
   13SAPS  H19R 1675   4.089   0.424   4.315
   13SAPS  H19S 1676   3.990   0.504   4.178
   13SAPS  C220 1677   3.988   0.596   4.373
   13SAPS  H20R 1678   3.899   0.540   4.410
   13SAPS  H20S 1679   3.962   0.699   4.339
   13SAPS  H20T 1680   4.061   0.609   4.455
   13SAPS   C33 1681   4.508   0.801   2.583
   13SAPS   H3X 1682   4.438   0.883   2.609
   13SAPS   H3Y 1683   4.612   0.837   2.570
   13SAPS   C34 1684   4.514   0.719   2.714
   13SAPS   H4X 1685   4.592   0.643   2.698
   13SAPS   H4Y 1686   4.413   0.676   2.734
   13SAPS   C35 1687   4.559   0.801   2.839
   13SAPS   H5X 1688   4.668   0.820   2.830
   13SAPS   H5Y 1689   4.554   0.734   2.928
   13SAPS   C36 1690   4.482   0.930   2.873
   13SAPS   H6X 1691   4.376   0.897   2.883
   13SAPS   H6Y 1692   4.473   0.996   2.785
   13SAPS   C37 1693   4.531   1.023   2.986
   13SAPS   H7X 1694   4.436   1.054   3.034
   13SAPS   H7Y 1695   4.573   1.117   2.945
   13SAPS   C38 1696   4.621   0.953   3.088
   13SAPS   H8X 1697   4.728   0.939   3.062
   13SAPS   H8Y 1698   4.586   0.849   3.107
   13SAPS   C39 1699   4.612   1.033   3.226
   13SAPS   H9X 1700   4.521   1.003   3.283
   13SAPS   H9Y 1701   4.625   1.141   3.208
   13SAPS  C310 1702   4.731   0.988   3.311
   13SAPS  H10X 1703   4.822   1.015   3.251
   13SAPS  H10Y 1704   4.739   0.878   3.312
   13SAPS  C311 1705   4.728   1.058   3.444
   13SAPS  H11X 1706   4.661   1.003   3.514
   13SAPS  H11Y 1707   4.683   1.158   3.435
   13SAPS  C312 1708   4.873   1.075   3.499
   13SAPS  H12X 1709   4.869   1.131   3.595
   13SAPS  H12Y 1710   4.933   1.130   3.423
   13SAPS  C313 1711   4.944   0.945   3.521
   13SAPS  H13X 1712   5.045   0.981   3.550
   13SAPS  H13Y 1713   4.979   0.899   3.426
   13SAPS  C314 1714   4.887   0.844   3.621
   13SAPS  H14X 1715   4.948   0.754   3.644
   13SAPS  H14Y 1716   4.789   0.816   3.576
   13SAPS  C315 1717   4.855   0.908   3.758
   13SAPS  H15X 1718   4.784   0.990   3.735
   13SAPS  H15Y 1719   4.944   0.962   3.796
   13SAPS  C316 1720   4.800   0.804   3.858
   13SAPS  H16X 1721   4.879   0.730   3.885
   13SAPS  H16Y 1722   4.719   0.760   3.796
   13SAPS  C317 1723   4.741   0.867   3.985
   13SAPS  H17X 1724   4.660   0.935   3.949
   13SAPS  H17Y 1725   4.825   0.919   4.035
   13SAPS  C318 1726   4.680   0.770   4.088
   13SAPS  H18X 1727   4.760   0.699   4.120
   13SAPS  H18Y 1728   4.608   0.700   4.041
   13SAPS  H18Z 1729   4.647   0.826   4.178
   14SAPS     N 1730   5.749   3.455   2.212
   14SAPS   HN1 1731   5.724   3.357   2.186
   14SAPS   HN2 1732   5.842   3.438   2.257
   14SAPS   HN3 1733   5.688   3.487   2.289
   14SAPS   C12 1734   5.761   3.553   2.107
   14SAPS  H12A 1735   5.764   3.646   2.161
   14SAPS   C13 1736   5.895   3.548   2.023
   14SAPS  O13A 1737   5.989   3.468   2.051
   14SAPS  O13B 1738   5.912   3.642   1.941
   14SAPS   C11 1739   5.647   3.532   2.008
   14SAPS  H11A 1740   5.671   3.452   1.935
   14SAPS  H11B 1741   5.648   3.633   1.962
   14SAPS     P 1742   5.393   3.511   1.976
   14SAPS   O13 1743   5.429   3.587   1.857
   14SAPS   O14 1744   5.338   3.373   1.958
   14SAPS   O12 1745   5.517   3.508   2.075
   14SAPS   O11 1746   5.291   3.603   2.052
   14SAPS    C1 1747   5.334   3.706   2.139
   14SAPS    HA 1748   5.431   3.751   2.109
   14SAPS    HB 1749   5.259   3.788   2.150
   14SAPS    C2 1750   5.356   3.652   2.279
   14SAPS    HS 1751   5.426   3.567   2.292
   14SAPS   O21 1752   5.225   3.632   2.334
   14SAPS   C21 1753   5.195   3.507   2.376
   14SAPS   O22 1754   5.266   3.410   2.374
   14SAPS   C22 1755   5.052   3.504   2.433
   14SAPS   H2R 1756   5.031   3.590   2.500
   14SAPS   H2S 1757   4.987   3.496   2.343
   14SAPS    C3 1758   5.429   3.772   2.350
   14SAPS    HX 1759   5.371   3.866   2.337
   14SAPS    HY 1760   5.524   3.794   2.296
   14SAPS   O31 1761   5.446   3.745   2.487
   14SAPS   C31 1762   5.543   3.655   2.514
   14SAPS   O32 1763   5.626   3.620   2.434
   14SAPS   C32 1764   5.537   3.602   2.659
   14SAPS   H2X 1765   5.572   3.497   2.667
   14SAPS   H2Y 1766   5.431   3.602   2.693
   14SAPS   C23 1767   5.024   3.380   2.521
   14SAPS   H3R 1768   5.042   3.287   2.462
   14SAPS   H3S 1769   4.916   3.388   2.546
   14SAPS   C24 1770   5.114   3.370   2.647
   14SAPS   H4R 1771   5.221   3.377   2.617
   14SAPS   H4S 1772   5.116   3.270   2.697
   14SAPS   C25 1773   5.086   3.478   2.752
   14SAPS   H5R 1774   5.032   3.561   2.704
   14SAPS   C26 1775   5.122   3.487   2.884
   14SAPS   H6R 1776   5.090   3.576   2.940
   14SAPS   C27 1777   5.194   3.382   2.960
   14SAPS   H7R 1778   5.267   3.325   2.900
   14SAPS   H7S 1779   5.121   3.301   2.980
   14SAPS   C28 1780   5.270   3.426   3.077
   14SAPS   H8R 1781   5.372   3.463   3.059
   14SAPS   C29 1782   5.208   3.464   3.190
   14SAPS   H9R 1783   5.263   3.493   3.281
   14SAPS  C210 1784   5.063   3.438   3.210
   14SAPS  H10R 1785   5.041   3.329   3.209
   14SAPS  H10S 1786   5.013   3.492   3.127
   14SAPS  C211 1787   4.998   3.493   3.340
   14SAPS  H11R 1788   4.915   3.564   3.335
   14SAPS  C212 1789   5.026   3.458   3.464
   14SAPS  H12R 1790   4.973   3.519   3.540
   14SAPS  C213 1791   5.129   3.370   3.520
   14SAPS  H13R 1792   5.225   3.376   3.464
   14SAPS  H13S 1793   5.093   3.265   3.515
   14SAPS  C214 1794   5.156   3.398   3.663
   14SAPS  H14R 1795   5.234   3.474   3.678
   14SAPS  C215 1796   5.101   3.344   3.774
   14SAPS  H15R 1797   5.134   3.380   3.873
   14SAPS  C216 1798   4.979   3.253   3.773
   14SAPS  H16R 1799   5.016   3.149   3.782
   14SAPS  H16S 1800   4.933   3.261   3.672
   14SAPS  C217 1801   4.884   3.275   3.891
   14SAPS  H17R 1802   4.936   3.269   3.989
   14SAPS  H17S 1803   4.807   3.196   3.887
   14SAPS  C218 1804   4.807   3.404   3.885
   14SAPS  H18R 1805   4.730   3.411   3.804
   14SAPS  H18S 1806   4.875   3.488   3.862
   14SAPS  C219 1807   4.725   3.424   4.015
   14SAPS  H19R 1808   4.789   3.424   4.106
   14SAPS  H19S 1809   4.668   3.330   4.024
   14SAPS  C220 1810   4.647   3.551   4.026
   14SAPS  H20R 1811   4.717   3.634   4.003
   14SAPS  H20S 1812   4.596   3.561   4.124
   14SAPS  H20T 1813   4.569   3.572   3.949
   14SAPS   C33 1814   5.629   3.665   2.763
   14SAPS   H3X 1815   5.617   3.775   2.754
   14SAPS   H3Y 1816   5.733   3.643   2.730
   14SAPS   C34 1817   5.597   3.614   2.909
   14SAPS   H4X 1818   5.618   3.505   2.915
   14SAPS   H4Y 1819   5.487   3.628   2.923
   14SAPS   C35 1820   5.675   3.698   3.008
   14SAPS   H5X 1821   5.653   3.805   2.991
   14SAPS   H5Y 1822   5.782   3.689   2.982
   14SAPS   C36 1823   5.653   3.693   3.164
   14SAPS   H6X 1824   5.551   3.660   3.194
   14SAPS   H6Y 1825   5.676   3.790   3.212
   14SAPS   C37 1826   5.754   3.586   3.225
   14SAPS   H7X 1827   5.852   3.639   3.225
   14SAPS   H7Y 1828   5.762   3.488   3.174
   14SAPS   C38 1829   5.732   3.574   3.382
   14SAPS   H8X 1830   5.695   3.669   3.425
   14SAPS   H8Y 1831   5.825   3.532   3.426
   14SAPS   C39 1832   5.616   3.473   3.409
   14SAPS   H9X 1833   5.610   3.384   3.343
   14SAPS   H9Y 1834   5.517   3.522   3.397
   14SAPS  C310 1835   5.633   3.409   3.546
   14SAPS  H10X 1836   5.739   3.382   3.566
   14SAPS  H10Y 1837   5.578   3.314   3.556
   14SAPS  C311 1838   5.567   3.495   3.657
   14SAPS  H11X 1839   5.459   3.502   3.632
   14SAPS  H11Y 1840   5.616   3.595   3.655
   14SAPS  C312 1841   5.588   3.450   3.800
   14SAPS  H12X 1842   5.696   3.447   3.824
   14SAPS  H12Y 1843   5.548   3.347   3.812
   14SAPS  C313 1844   5.526   3.544   3.910
   14SAPS  H13X 1845   5.415   3.543   3.904
   14SAPS  H13Y 1846   5.556   3.647   3.880
   14SAPS  C314 1847   5.575   3.505   4.048
   14SAPS  H14X 1848   5.685   3.510   4.044
   14SAPS  H14Y 1849   5.552   3.398   4.070
   14SAPS  C315 1850   5.526   3.592   4.171
   14SAPS  H15X 1851   5.572   3.551   4.263
   14SAPS  H15Y 1852   5.416   3.572   4.172
   14SAPS  C316 1853   5.571   3.737   4.169
   14SAPS  H16X 1854   5.513   3.788   4.248
   14SAPS  H16Y 1855   5.540   3.782   4.072
   14SAPS  C317 1856   5.722   3.768   4.189
   14SAPS  H17X 1857   5.796   3.713   4.127
   14SAPS  H17Y 1858   5.731   3.737   4.295
   14SAPS  C318 1859   5.748   3.917   4.183
   14SAPS  H18X 1860   5.660   3.967   4.228
   14SAPS  H18Y 1861   5.766   3.953   4.080
   14SAPS  H18Z 1862   5.840   3.934   4.244
   15SAPS     N 1863   3.691   2.802   1.857
   15SAPS   HN1 1864   3.609   2.839   1.910
   15SAPS   HN2 1865   3.742   2.883   1.816
   15SAPS   HN3 1866   3.658   2.732   1.787
   15SAPS   C12 1867   3.780   2.743   1.954
   15SAPS  H12A 1868   3.760   2.791   2.049
   15SAPS   C13 1869   3.775   2.595   2.001
   15SAPS  O13A 1870   3.675   2.527   1.972
   15SAPS  O13B 1871   3.861   2.557   2.082
   15SAPS   C11 1872   3.927   2.787   1.915
   15SAPS  H11A 1873   3.960   2.730   1.826
   15SAPS  H11B 1874   4.002   2.768   1.994
   15SAPS     P 1875   3.992   3.044   1.956
   15SAPS   O13 1876   4.134   3.047   1.937
   15SAPS   O14 1877   3.919   3.168   1.918
   15SAPS   O12 1878   3.928   2.928   1.877
   15SAPS   O11 1879   3.949   3.021   2.110
   15SAPS    C1 1880   3.825   3.067   2.160
   15SAPS    HA 1881   3.753   3.082   2.076
   15SAPS    HB 1882   3.790   2.983   2.223
   15SAPS    C2 1883   3.830   3.195   2.240
   15SAPS    HS 1884   3.865   3.282   2.181
   15SAPS   O21 1885   3.910   3.168   2.362
   15SAPS   C21 1886   4.004   3.252   2.393
   15SAPS   O22 1887   4.025   3.359   2.343
   15SAPS   C22 1888   4.072   3.196   2.518
   15SAPS   H2R 1889   4.029   3.252   2.604
   15SAPS   H2S 1890   4.046   3.088   2.528
   15SAPS    C3 1891   3.693   3.237   2.297
   15SAPS    HX 1892   3.644   3.169   2.371
   15SAPS    HY 1893   3.627   3.243   2.207
   15SAPS   O31 1894   3.695   3.376   2.344
   15SAPS   C31 1895   3.725   3.401   2.474
   15SAPS   O32 1896   3.743   3.314   2.556
   15SAPS   C32 1897   3.748   3.555   2.502
   15SAPS   H2X 1898   3.649   3.603   2.516
   15SAPS   H2Y 1899   3.808   3.594   2.417
   15SAPS   C23 1900   4.228   3.207   2.533
   15SAPS   H3R 1901   4.271   3.301   2.492
   15SAPS   H3S 1902   4.273   3.129   2.467
   15SAPS   C24 1903   4.286   3.207   2.672
   15SAPS   H4R 1904   4.247   3.296   2.725
   15SAPS   H4S 1905   4.393   3.233   2.656
   15SAPS   C25 1906   4.260   3.076   2.738
   15SAPS   H5R 1907   4.263   2.994   2.664
   15SAPS   C26 1908   4.234   3.054   2.868
   15SAPS   H6R 1909   4.220   2.950   2.903
   15SAPS   C27 1910   4.207   3.155   2.972
   15SAPS   H7R 1911   4.186   3.252   2.923
   15SAPS   H7S 1912   4.295   3.176   3.036
   15SAPS   C28 1913   4.098   3.124   3.072
   15SAPS   H8R 1914   4.017   3.065   3.024
   15SAPS   C29 1915   4.089   3.124   3.203
   15SAPS   H9R 1916   3.990   3.090   3.235
   15SAPS  C210 1917   4.174   3.197   3.303
   15SAPS  H10R 1918   4.206   3.291   3.253
   15SAPS  H10S 1919   4.269   3.141   3.320
   15SAPS  C211 1920   4.101   3.234   3.426
   15SAPS  H11R 1921   3.996   3.263   3.417
   15SAPS  C212 1922   4.162   3.256   3.549
   15SAPS  H12R 1923   4.101   3.285   3.636
   15SAPS  C213 1924   4.312   3.241   3.573
   15SAPS  H13R 1925   4.366   3.284   3.485
   15SAPS  H13S 1926   4.332   3.132   3.574
   15SAPS  C214 1927   4.350   3.310   3.700
   15SAPS  H14R 1928   4.315   3.414   3.700
   15SAPS  C215 1929   4.430   3.266   3.797
   15SAPS  H15R 1930   4.462   3.328   3.883
   15SAPS  C216 1931   4.491   3.129   3.802
   15SAPS  H16R 1932   4.584   3.140   3.743
   15SAPS  H16S 1933   4.426   3.059   3.744
   15SAPS  C217 1934   4.526   3.076   3.940
   15SAPS  H17R 1935   4.634   3.097   3.958
   15SAPS  H17S 1936   4.510   2.967   3.926
   15SAPS  C218 1937   4.434   3.115   4.056
   15SAPS  H18R 1938   4.435   3.224   4.075
   15SAPS  H18S 1939   4.476   3.065   4.146
   15SAPS  C219 1940   4.290   3.073   4.032
   15SAPS  H19R 1941   4.280   2.966   4.001
   15SAPS  H19S 1942   4.241   3.124   3.947
   15SAPS  C220 1943   4.221   3.085   4.169
   15SAPS  H20R 1944   4.239   2.999   4.236
   15SAPS  H20S 1945   4.112   3.101   4.155
   15SAPS  H20T 1946   4.261   3.178   4.215
   15SAPS   C33 1947   3.828   3.580   2.636
   15SAPS   H3X 1948   3.939   3.579   2.622
   15SAPS   H3Y 1949   3.796   3.513   2.718
   15SAPS   C34 1950   3.800   3.715   2.695
   15SAPS   H4X 1951   3.692   3.741   2.686
   15SAPS   H4Y 1952   3.847   3.794   2.632
   15SAPS   C35 1953   3.851   3.724   2.835
   15SAPS   H5X 1954   3.960   3.741   2.834
   15SAPS   H5Y 1955   3.822   3.634   2.894
   15SAPS   C36 1956   3.802   3.838   2.924
   15SAPS   H6X 1957   3.712   3.794   2.973
   15SAPS   H6Y 1958   3.782   3.931   2.868
   15SAPS   C37 1959   3.902   3.879   3.031
   15SAPS   H7X 1960   3.988   3.931   2.985
   15SAPS   H7Y 1961   3.956   3.790   3.071
   15SAPS   C38 1962   3.858   3.971   3.139
   15SAPS   H8X 1963   3.778   3.920   3.197
   15SAPS   H8Y 1964   3.830   4.070   3.095
   15SAPS   C39 1965   3.965   4.009   3.244
   15SAPS   H9X 1966   4.043   4.063   3.187
   15SAPS   H9Y 1967   3.988   3.910   3.290
   15SAPS  C310 1968   3.910   4.091   3.368
   15SAPS  H10X 1969   3.878   4.025   3.452
   15SAPS  H10Y 1970   3.822   4.153   3.342
   15SAPS  C311 1971   4.019   4.181   3.443
   15SAPS  H11X 1972   4.080   4.230   3.364
   15SAPS  H11Y 1973   4.095   4.128   3.505
   15SAPS  C312 1974   3.955   4.287   3.536
   15SAPS  H12X 1975   3.878   4.239   3.601
   15SAPS  H12Y 1976   3.903   4.365   3.476
   15SAPS  C313 1977   4.050   4.361   3.630
   15SAPS  H13X 1978   3.998   4.441   3.687
   15SAPS  H13Y 1979   4.134   4.403   3.571
   15SAPS  C314 1980   4.105   4.272   3.736
   15SAPS  H14X 1981   4.152   4.174   3.715
   15SAPS  H14Y 1982   4.012   4.243   3.790
   15SAPS  C315 1983   4.192   4.340   3.838
   15SAPS  H15X 1984   4.169   4.448   3.824
   15SAPS  H15Y 1985   4.298   4.327   3.805
   15SAPS  C316 1986   4.161   4.311   3.987
   15SAPS  H16X 1987   4.061   4.352   4.012
   15SAPS  H16Y 1988   4.234   4.357   4.058
   15SAPS  C317 1989   4.153   4.156   4.012
   15SAPS  H17X 1990   4.076   4.112   3.945
   15SAPS  H17Y 1991   4.121   4.145   4.118
   15SAPS  C318 1992   4.289   4.086   4.007
   15SAPS  H18X 1993   4.337   4.110   3.910
   15SAPS  H18Y 1994   4.276   3.979   4.034
   15SAPS  H18Z 1995   4.355   4.135   4.082
   16SAPS     N 1996   5.953   4.238   1.932
   16SAPS   HN1 1997   5.944   4.177   2.016
   16SAPS   HN2 1998   6.054   4.230   1.906
   16SAPS   HN3 1999   5.937   4.336   1.963
   16SAPS   C12 2000   5.865   4.189   1.824
   16SAPS  H12A 2001   5.798   4.269   1.796
   16SAPS   C13 2002   5.945   4.136   1.700
   16SAPS  O13A 2003   6.068   4.132   1.708
   16SAPS  O13B 2004   5.876   4.116   1.600
   16SAPS   C11 2005   5.768   4.081   1.872
   16SAPS  H11A 2006   5.825   3.990   1.901
   16SAPS  H11B 2007   5.697   4.061   1.789
   16SAPS     P 2008   5.547   4.195   1.961
   16SAPS   O13 2009   5.547   4.283   1.844
   16SAPS   O14 2010   5.457   4.074   1.960
   16SAPS   O12 2011   5.698   4.141   1.986
   16SAPS   O11 2012   5.507   4.290   2.089
   16SAPS    C1 2013   5.628   4.354   2.141
   16SAPS    HA 2014   5.724   4.331   2.088
   16SAPS    HB 2015   5.624   4.465   2.138
   16SAPS    C2 2016   5.658   4.322   2.290
   16SAPS    HS 2017   5.753   4.374   2.311
   16SAPS   O21 2018   5.679   4.183   2.301
   16SAPS   C21 2019   5.799   4.133   2.265
   16SAPS   O22 2020   5.888   4.197   2.213
   16SAPS   C22 2021   5.805   3.985   2.291
   16SAPS   H2R 2022   5.704   3.941   2.306
   16SAPS   H2S 2023   5.853   3.937   2.203
   16SAPS    C3 2024   5.543   4.364   2.387
   16SAPS    HX 2025   5.453   4.312   2.349
   16SAPS    HY 2026   5.541   4.475   2.381
   16SAPS   O31 2027   5.567   4.330   2.529
   16SAPS   C31 2028   5.480   4.252   2.586
   16SAPS   O32 2029   5.370   4.214   2.541
   16SAPS   C32 2030   5.528   4.199   2.724
   16SAPS   H2X 2031   5.638   4.182   2.719
   16SAPS   H2Y 2032   5.475   4.104   2.746
   16SAPS   C23 2033   5.897   3.954   2.417
   16SAPS   H3R 2034   5.985   4.018   2.436
   16SAPS   H3S 2035   5.948   3.864   2.376
   16SAPS   C24 2036   5.815   3.933   2.545
   16SAPS   H4R 2037   5.711   3.901   2.525
   16SAPS   H4S 2038   5.799   4.033   2.590
   16SAPS   C25 2039   5.891   3.850   2.645
   16SAPS   H5R 2040   5.908   3.746   2.613
   16SAPS   C26 2041   5.951   3.886   2.760
   16SAPS   H6R 2042   5.990   3.806   2.824
   16SAPS   C27 2043   5.945   4.027   2.819
   16SAPS   H7R 2044   5.919   4.110   2.749
   16SAPS   H7S 2045   6.039   4.060   2.869
   16SAPS   C28 2046   5.833   4.019   2.927
   16SAPS   H8R 2047   5.737   3.977   2.895
   16SAPS   C29 2048   5.854   4.043   3.059
   16SAPS   H9R 2049   5.764   4.044   3.121
   16SAPS  C210 2050   5.978   4.089   3.130
   16SAPS  H10R 2051   5.947   4.140   3.224
   16SAPS  H10S 2052   6.034   4.165   3.071
   16SAPS  C211 2053   6.063   3.985   3.186
   16SAPS  H11R 2054   6.162   3.983   3.139
   16SAPS  C212 2055   6.037   3.904   3.292
   16SAPS  H12R 2056   6.122   3.840   3.318
   16SAPS  C213 2057   5.905   3.903   3.371
   16SAPS  H13R 2058   5.879   3.796   3.383
   16SAPS  H13S 2059   5.822   3.939   3.307
   16SAPS  C214 2060   5.917   3.963   3.507
   16SAPS  H14R 2061   5.858   4.055   3.519
   16SAPS  C215 2062   5.967   3.895   3.611
   16SAPS  H15R 2063   5.976   3.940   3.711
   16SAPS  C216 2064   6.038   3.760   3.611
   16SAPS  H16R 2065   6.141   3.787   3.644
   16SAPS  H16S 2066   6.049   3.720   3.509
   16SAPS  C217 2067   5.966   3.647   3.696
   16SAPS  H17R 2068   5.857   3.661   3.676
   16SAPS  H17S 2069   5.979   3.666   3.804
   16SAPS  C218 2070   6.006   3.507   3.655
   16SAPS  H18R 2071   5.990   3.494   3.545
   16SAPS  H18S 2072   5.935   3.432   3.695
   16SAPS  C219 2073   6.140   3.461   3.714
   16SAPS  H19R 2074   6.226   3.504   3.659
   16SAPS  H19S 2075   6.151   3.351   3.703
   16SAPS  C220 2076   6.154   3.478   3.864
   16SAPS  H20R 2077   6.079   3.420   3.923
   16SAPS  H20S 2078   6.155   3.586   3.891
   16SAPS  H20T 2079   6.254   3.438   3.891
   16SAPS   C33 2080   5.488   4.297   2.837
   16SAPS   H3X 2081   5.377   4.299   2.840
   16SAPS   H3Y 2082   5.500   4.400   2.796
   16SAPS   C34 2083   5.555   4.271   2.968
   16SAPS   H4X 2084   5.661   4.303   2.968
   16SAPS   H4Y 2085   5.561   4.163   2.995
   16SAPS   C35 2086   5.492   4.343   3.086
   16SAPS   H5X 2087   5.383   4.321   3.089
   16SAPS   H5Y 2088   5.513   4.452   3.086
   16SAPS   C36 2089   5.567   4.274   3.201
   16SAPS   H6X 2090   5.676   4.285   3.183
   16SAPS   H6Y 2091   5.545   4.165   3.198
   16SAPS   C37 2092   5.523   4.329   3.338
   16SAPS   H7X 2093   5.423   4.288   3.365
   16SAPS   H7Y 2094   5.523   4.440   3.335
   16SAPS   C38 2095   5.618   4.280   3.452
   16SAPS   H8X 2096   5.715   4.329   3.426
   16SAPS   H8Y 2097   5.628   4.169   3.448
   16SAPS   C39 2098   5.579   4.312   3.591
   16SAPS   H9X 2099   5.479   4.273   3.623
   16SAPS   H9Y 2100   5.564   4.421   3.582
   16SAPS  C310 2101   5.697   4.287   3.689
   16SAPS  H10X 2102   5.786   4.317   3.629
   16SAPS  H10Y 2103   5.704   4.180   3.716
   16SAPS  C311 2104   5.704   4.373   3.820
   16SAPS  H11X 2105   5.694   4.479   3.788
   16SAPS  H11Y 2106   5.807   4.355   3.857
   16SAPS  C312 2107   5.608   4.334   3.929
   16SAPS  H12X 2108   5.665   4.255   3.983
   16SAPS  H12Y 2109   5.512   4.297   3.888
   16SAPS  C313 2110   5.580   4.462   4.014
   16SAPS  H13X 2111   5.657   4.536   3.983
   16SAPS  H13Y 2112   5.580   4.445   4.124
   16SAPS  C314 2113   5.435   4.511   3.970
   16SAPS  H14X 2114   5.352   4.445   4.001
   16SAPS  H14Y 2115   5.425   4.513   3.859
   16SAPS  C315 2116   5.415   4.659   4.003
   16SAPS  H15X 2117   5.313   4.692   3.974
   16SAPS  H15Y 2118   5.491   4.710   3.940
   16SAPS  C316 2119   5.443   4.686   4.155
   16SAPS  H16X 2120   5.552   4.679   4.173
   16SAPS  H16Y 2121   5.395   4.598   4.202
   16SAPS  C317 2122   5.370   4.810   4.205
   16SAPS  H17X 2123   5.267   4.791   4.168
   16SAPS  H17Y 2124   5.408   4.903   4.157
   16SAPS  C318 2125   5.369   4.813   4.361
   16SAPS  H18X 2126   5.309   4.723   4.385
   16SAPS  H18Y 2127   5.309   4.903   4.387
   16SAPS  H18Z 2128   5.468   4.821   4.410
   17SAPS     N 2129   1.429   2.341   1.992
   17SAPS   HN1 2130   1.407   2.285   1.907
   17SAPS   HN2 2131   1.385   2.300   2.077
   17SAPS   HN3 2132   1.396   2.438   1.972
   17SAPS   C12 2133   1.574   2.341   2.029
   17SAPS  H12A 2134   1.609   2.247   1.989
   17SAPS   C13 2135   1.659   2.451   1.966
   17SAPS  O13A 2136   1.617   2.504   1.857
   17SAPS  O13B 2137   1.785   2.440   1.991
   17SAPS   C11 2138   1.583   2.348   2.184
   17SAPS  H11A 2139   1.576   2.454   2.217
   17SAPS  H11B 2140   1.683   2.310   2.214
   17SAPS     P 2141   1.480   2.121   2.261
   17SAPS   O13 2142   1.446   2.070   2.126
   17SAPS   O14 2143   1.605   2.076   2.324
   17SAPS   O12 2144   1.474   2.278   2.258
   17SAPS   O11 2145   1.365   2.074   2.365
   17SAPS    C1 2146   1.375   2.133   2.496
   17SAPS    HA 2147   1.478   2.160   2.527
   17SAPS    HB 2148   1.313   2.225   2.494
   17SAPS    C2 2149   1.324   2.032   2.604
   17SAPS    HS 2150   1.321   2.088   2.700
   17SAPS   O21 2151   1.412   1.916   2.623
   17SAPS   C21 2152   1.403   1.856   2.745
   17SAPS   O22 2153   1.365   1.912   2.847
   17SAPS   C22 2154   1.460   1.708   2.739
   17SAPS   H2R 2155   1.369   1.655   2.701
   17SAPS   H2S 2156   1.542   1.718   2.665
   17SAPS    C3 2157   1.181   1.994   2.577
   17SAPS    HX 2158   1.184   1.923   2.492
   17SAPS    HY 2159   1.125   2.080   2.534
   17SAPS   O31 2160   1.109   1.938   2.692
   17SAPS   C31 2161   1.086   2.025   2.787
   17SAPS   O32 2162   1.103   2.142   2.773
   17SAPS   C32 2163   1.019   1.956   2.904
   17SAPS   H2X 2164   1.099   1.883   2.930
   17SAPS   H2Y 2165   0.923   1.910   2.876
   17SAPS   C23 2166   1.507   1.645   2.868
   17SAPS   H3R 2167   1.530   1.541   2.836
   17SAPS   H3S 2168   1.436   1.654   2.953
   17SAPS   C24 2169   1.638   1.705   2.932
   17SAPS   H4R 2170   1.664   1.630   3.010
   17SAPS   H4S 2171   1.610   1.800   2.981
   17SAPS   C25 2172   1.754   1.722   2.844
   17SAPS   H5R 2173   1.791   1.648   2.771
   17SAPS   C26 2174   1.822   1.838   2.834
   17SAPS   H6R 2175   1.894   1.848   2.751
   17SAPS   C27 2176   1.788   1.964   2.914
   17SAPS   H7R 2177   1.762   1.939   3.019
   17SAPS   H7S 2178   1.703   2.017   2.864
   17SAPS   C28 2179   1.908   2.055   2.902
   17SAPS   H8R 2180   1.913   2.135   2.827
   17SAPS   C29 2181   2.016   2.048   2.985
   17SAPS   H9R 2182   2.096   2.120   2.962
   17SAPS  C210 2183   2.030   1.954   3.099
   17SAPS  H10R 2184   2.136   1.920   3.104
   17SAPS  H10S 2185   1.969   1.864   3.076
   17SAPS  C211 2186   1.975   2.021   3.232
   17SAPS  H11R 2187   1.880   2.076   3.222
   17SAPS  C212 2188   2.029   2.010   3.356
   17SAPS  H12R 2189   1.977   2.052   3.443
   17SAPS  C213 2190   2.160   1.948   3.393
   17SAPS  H13R 2191   2.221   2.019   3.453
   17SAPS  H13S 2192   2.213   1.922   3.299
   17SAPS  C214 2193   2.163   1.815   3.469
   17SAPS  H14R 2194   2.226   1.817   3.559
   17SAPS  C215 2195   2.093   1.700   3.452
   17SAPS  H15R 2196   2.127   1.617   3.516
   17SAPS  C216 2197   1.997   1.660   3.341
   17SAPS  H16R 2198   1.942   1.746   3.297
   17SAPS  H16S 2199   1.927   1.588   3.388
   17SAPS  C217 2200   2.059   1.590   3.219
   17SAPS  H17R 2201   2.119   1.503   3.251
   17SAPS  H17S 2202   2.124   1.666   3.170
   17SAPS  C218 2203   1.949   1.549   3.114
   17SAPS  H18R 2204   1.934   1.643   3.057
   17SAPS  H18S 2205   1.865   1.522   3.182
   17SAPS  C219 2206   1.993   1.444   3.016
   17SAPS  H19R 2207   2.056   1.368   3.067
   17SAPS  H19S 2208   2.055   1.487   2.934
   17SAPS  C220 2209   1.879   1.368   2.954
   17SAPS  H20R 2210   1.903   1.316   2.859
   17SAPS  H20S 2211   1.795   1.432   2.918
   17SAPS  H20T 2212   1.829   1.302   3.028
   17SAPS   C33 2213   1.006   2.052   3.031
   17SAPS   H3X 2214   0.932   2.128   2.999
   17SAPS   H3Y 2215   1.100   2.109   3.048
   17SAPS   C34 2216   0.968   1.970   3.151
   17SAPS   H4X 2217   0.987   2.030   3.243
   17SAPS   H4Y 2218   1.037   1.886   3.173
   17SAPS   C35 2219   0.821   1.938   3.150
   17SAPS   H5X 2220   0.798   1.858   3.076
   17SAPS   H5Y 2221   0.763   2.028   3.121
   17SAPS   C36 2222   0.778   1.907   3.288
   17SAPS   H6X 2223   0.818   1.973   3.368
   17SAPS   H6Y 2224   0.808   1.802   3.311
   17SAPS   C37 2225   0.630   1.911   3.317
   17SAPS   H7X 2226   0.582   1.839   3.247
   17SAPS   H7Y 2227   0.601   2.013   3.286
   17SAPS   C38 2228   0.597   1.885   3.470
   17SAPS   H8X 2229   0.646   1.792   3.505
   17SAPS   H8Y 2230   0.486   1.875   3.474
   17SAPS   C39 2231   0.643   1.993   3.565
   17SAPS   H9X 2232   0.620   2.082   3.503
   17SAPS   H9Y 2233   0.748   1.995   3.600
   17SAPS  C310 2234   0.562   2.003   3.700
   17SAPS  H10X 2235   0.600   1.925   3.770
   17SAPS  H10Y 2236   0.456   1.979   3.680
   17SAPS  C311 2237   0.581   2.138   3.774
   17SAPS  H11X 2238   0.506   2.148   3.856
   17SAPS  H11Y 2239   0.552   2.224   3.710
   17SAPS  C312 2240   0.724   2.168   3.823
   17SAPS  H12X 2241   0.786   2.173   3.732
   17SAPS  H12Y 2242   0.767   2.088   3.886
   17SAPS  C313 2243   0.737   2.298   3.902
   17SAPS  H13X 2244   0.667   2.299   3.988
   17SAPS  H13Y 2245   0.716   2.385   3.835
   17SAPS  C314 2246   0.887   2.315   3.947
   17SAPS  H14X 2247   0.959   2.329   3.864
   17SAPS  H14Y 2248   0.919   2.223   4.002
   17SAPS  C315 2249   0.912   2.435   4.030
   17SAPS  H15X 2250   0.856   2.425   4.126
   17SAPS  H15Y 2251   0.879   2.518   3.964
   17SAPS  C316 2252   1.061   2.448   4.072
   17SAPS  H16X 2253   1.137   2.457   3.992
   17SAPS  H16Y 2254   1.084   2.364   4.141
   17SAPS  C317 2255   1.072   2.574   4.155
   17SAPS  H17X 2256   1.004   2.577   4.243
   17SAPS  H17Y 2257   1.054   2.665   4.094
   17SAPS  C318 2258   1.215   2.593   4.213
   17SAPS  H18X 2259   1.269   2.496   4.203
   17SAPS  H18Y 2260   1.213   2.635   4.315
   17SAPS  H18Z 2261   1.275   2.667   4.156
   18SAPS     N 2262   4.503   2.732   2.506
   18SAPS   HN1 2263   4.551   2.646   2.474
   18SAPS   HN2 2264   4.574   2.806   2.489
   18SAPS   HN3 2265   4.496   2.721   2.609
   18SAPS   C12 2266   4.380   2.751   2.424
   18SAPS  H12A 2267   4.332   2.845   2.444
   18SAPS   C13 2268   4.400   2.756   2.265
   18SAPS  O13A 2269   4.514   2.745   2.218
   18SAPS  O13B 2270   4.303   2.791   2.194
   18SAPS   C11 2271   4.282   2.640   2.462
   18SAPS  H11A 2272   4.337   2.545   2.483
   18SAPS  H11B 2273   4.220   2.617   2.372
   18SAPS     P 2274   4.108   2.577   2.621
   18SAPS   O13 2275   3.966   2.637   2.614
   18SAPS   O14 2276   4.121   2.442   2.556
   18SAPS   O12 2277   4.213   2.683   2.579
   18SAPS   O11 2278   4.138   2.557   2.773
   18SAPS    C1 2279   4.139   2.671   2.852
   18SAPS    HA 2280   4.214   2.744   2.816
   18SAPS    HB 2281   4.043   2.727   2.850
   18SAPS    C2 2282   4.163   2.632   3.004
   18SAPS    HS 2283   4.254   2.569   3.012
   18SAPS   O21 2284   4.037   2.566   3.034
   18SAPS   C21 2285   4.033   2.434   3.023
   18SAPS   O22 2286   4.128   2.360   2.996
   18SAPS   C22 2287   3.904   2.386   3.069
   18SAPS   H2R 2288   3.847   2.473   3.109
   18SAPS   H2S 2289   3.841   2.357   2.983
   18SAPS    C3 2290   4.173   2.756   3.106
   18SAPS    HX 2291   4.070   2.800   3.106
   18SAPS    HY 2292   4.249   2.829   3.073
   18SAPS   O31 2293   4.202   2.708   3.239
   18SAPS   C31 2294   4.288   2.779   3.308
   18SAPS   O32 2295   4.357   2.869   3.262
   18SAPS   C32 2296   4.289   2.727   3.455
   18SAPS   H2X 2297   4.287   2.616   3.450
   18SAPS   H2Y 2298   4.200   2.774   3.503
   18SAPS   C23 2299   3.906   2.266   3.168
   18SAPS   H3R 2300   3.978   2.295   3.248
   18SAPS   H3S 2301   3.953   2.174   3.126
   18SAPS   C24 2302   3.770   2.246   3.228
   18SAPS   H4R 2303   3.781   2.163   3.301
   18SAPS   H4S 2304   3.691   2.215   3.156
   18SAPS   C25 2305   3.705   2.362   3.296
   18SAPS   H5R 2306   3.644   2.416   3.222
   18SAPS   C26 2307   3.726   2.400   3.424
   18SAPS   H6R 2308   3.670   2.489   3.457
   18SAPS   C27 2309   3.810   2.333   3.532
   18SAPS   H7R 2310   3.852   2.241   3.485
   18SAPS   H7S 2311   3.744   2.294   3.612
   18SAPS   C28 2312   3.910   2.432   3.579
   18SAPS   H8R 2313   3.944   2.504   3.503
   18SAPS   C29 2314   3.955   2.450   3.706
   18SAPS   H9R 2315   4.044   2.509   3.729
   18SAPS  C210 2316   3.905   2.378   3.827
   18SAPS  H10R 2317   3.949   2.276   3.832
   18SAPS  H10S 2318   3.795   2.361   3.828
   18SAPS  C211 2319   3.946   2.459   3.955
   18SAPS  H11R 2320   3.900   2.559   3.955
   18SAPS  C212 2321   4.015   2.407   4.061
   18SAPS  H12R 2322   4.035   2.479   4.142
   18SAPS  C213 2323   4.072   2.274   4.086
   18SAPS  H13R 2324   4.183   2.284   4.086
   18SAPS  H13S 2325   4.054   2.199   4.006
   18SAPS  C214 2326   4.019   2.206   4.205
   18SAPS  H14R 2327   3.916   2.173   4.188
   18SAPS  C215 2328   4.089   2.154   4.310
   18SAPS  H15R 2329   4.030   2.105   4.389
   18SAPS  C216 2330   4.238   2.152   4.347
   18SAPS  H16R 2331   4.287   2.181   4.252
   18SAPS  H16S 2332   4.276   2.049   4.361
   18SAPS  C217 2333   4.273   2.236   4.477
   18SAPS  H17R 2334   4.232   2.337   4.454
   18SAPS  H17S 2335   4.384   2.239   4.472
   18SAPS  C218 2336   4.227   2.189   4.612
   18SAPS  H18R 2337   4.310   2.133   4.661
   18SAPS  H18S 2338   4.138   2.124   4.624
   18SAPS  C219 2339   4.209   2.313   4.706
   18SAPS  H19R 2340   4.297   2.380   4.698
   18SAPS  H19S 2341   4.200   2.275   4.810
   18SAPS  C220 2342   4.084   2.400   4.664
   18SAPS  H20R 2343   4.088   2.420   4.555
   18SAPS  H20S 2344   4.104   2.497   4.715
   18SAPS  H20T 2345   3.986   2.358   4.696
   18SAPS   C33 2346   4.405   2.784   3.536
   18SAPS   H3X 2347   4.430   2.889   3.507
   18SAPS   H3Y 2348   4.494   2.718   3.528
   18SAPS   C34 2349   4.369   2.784   3.689
   18SAPS   H4X 2350   4.294   2.863   3.708
   18SAPS   H4Y 2351   4.462   2.818   3.740
   18SAPS   C35 2352   4.319   2.657   3.752
   18SAPS   H5X 2353   4.240   2.601   3.697
   18SAPS   H5Y 2354   4.273   2.692   3.848
   18SAPS   C36 2355   4.434   2.563   3.779
   18SAPS   H6X 2356   4.508   2.616   3.842
   18SAPS   H6Y 2357   4.483   2.523   3.688
   18SAPS   C37 2358   4.380   2.440   3.854
   18SAPS   H7X 2359   4.300   2.388   3.796
   18SAPS   H7Y 2360   4.344   2.468   3.956
   18SAPS   C38 2361   4.492   2.342   3.874
   18SAPS   H8X 2362   4.566   2.375   3.950
   18SAPS   H8Y 2363   4.536   2.315   3.776
   18SAPS   C39 2364   4.450   2.205   3.934
   18SAPS   H9X 2365   4.398   2.144   3.857
   18SAPS   H9Y 2366   4.370   2.226   4.009
   18SAPS  C310 2367   4.563   2.130   3.999
   18SAPS  H10X 2368   4.605   2.185   4.086
   18SAPS  H10Y 2369   4.644   2.137   3.923
   18SAPS  C311 2370   4.522   1.995   4.053
   18SAPS  H11X 2371   4.541   1.928   3.966
   18SAPS  H11Y 2372   4.414   1.995   4.080
   18SAPS  C312 2373   4.613   1.957   4.172
   18SAPS  H12X 2374   4.565   1.872   4.226
   18SAPS  H12Y 2375   4.610   2.042   4.244
   18SAPS  C313 2376   4.759   1.926   4.143
   18SAPS  H13X 2377   4.782   1.897   4.248
   18SAPS  H13Y 2378   4.823   2.011   4.110
   18SAPS  C314 2379   4.785   1.794   4.073
   18SAPS  H14X 2380   4.780   1.796   3.962
   18SAPS  H14Y 2381   4.705   1.729   4.114
   18SAPS  C315 2382   4.916   1.718   4.095
   18SAPS  H15X 2383   4.996   1.793   4.078
   18SAPS  H15Y 2384   4.912   1.647   4.010
   18SAPS  C316 2385   4.914   1.650   4.231
   18SAPS  H16X 2386   4.838   1.571   4.247
   18SAPS  H16Y 2387   4.890   1.733   4.301
   18SAPS  C317 2388   5.048   1.589   4.280
   18SAPS  H17X 2389   5.029   1.537   4.376
   18SAPS  H17Y 2390   5.110   1.680   4.297
   18SAPS  C318 2391   5.113   1.488   4.196
   18SAPS  H18X 2392   5.047   1.402   4.171
   18SAPS  H18Y 2393   5.204   1.439   4.235
   18SAPS  H18Z 2394   5.161   1.527   4.104
   19SAPS     N 2395   3.712   4.633   1.988
   19SAPS   HN1 2396   3.667   4.713   2.036
   19SAPS   HN2 2397   3.634   4.568   1.968
   19SAPS   HN3 2398   3.780   4.582   2.049
   19SAPS   C12 2399   3.778   4.681   1.873
   19SAPS  H12A 2400   3.846   4.606   1.836
   19SAPS   C13 2401   3.686   4.727   1.759
   19SAPS  O13A 2402   3.567   4.710   1.769
   19SAPS  O13B 2403   3.739   4.788   1.664
   19SAPS   C11 2404   3.875   4.796   1.911
   19SAPS  H11A 2405   3.820   4.891   1.927
   19SAPS  H11B 2406   3.936   4.805   1.818
   19SAPS     P 2407   4.057   4.864   2.092
   19SAPS   O13 2408   4.182   4.867   2.014
   19SAPS   O14 2409   3.989   4.986   2.141
   19SAPS   O12 2410   3.963   4.757   2.024
   19SAPS   O11 2411   4.105   4.794   2.221
   19SAPS    C1 2412   4.053   4.667   2.258
   19SAPS    HA 2413   3.942   4.663   2.257
   19SAPS    HB 2414   4.073   4.580   2.192
   19SAPS    C2 2415   4.107   4.629   2.392
   19SAPS    HS 2416   4.077   4.525   2.417
   19SAPS   O21 2417   4.070   4.714   2.493
   19SAPS   C21 2418   3.941   4.717   2.515
   19SAPS   O22 2419   3.864   4.639   2.464
   19SAPS   C22 2420   3.900   4.817   2.621
   19SAPS   H2R 2421   3.928   4.787   2.725
   19SAPS   H2S 2422   3.948   4.913   2.593
   19SAPS    C3 2423   4.266   4.618   2.386
   19SAPS    HX 2424   4.298   4.722   2.364
   19SAPS    HY 2425   4.298   4.555   2.300
   19SAPS   O31 2426   4.328   4.582   2.510
   19SAPS   C31 2427   4.458   4.601   2.509
   19SAPS   O32 2428   4.525   4.635   2.412
   19SAPS   C32 2429   4.505   4.588   2.646
   19SAPS   H2X 2430   4.524   4.482   2.673
   19SAPS   H2Y 2431   4.432   4.635   2.716
   19SAPS   C23 2432   3.746   4.832   2.629
   19SAPS   H3R 2433   3.703   4.735   2.662
   19SAPS   H3S 2434   3.699   4.860   2.533
   19SAPS   C24 2435   3.708   4.941   2.739
   19SAPS   H4R 2436   3.768   5.030   2.710
   19SAPS   H4S 2437   3.741   4.915   2.841
   19SAPS   C25 2438   3.563   4.974   2.727
   19SAPS   H5R 2439   3.542   5.034   2.637
   19SAPS   C26 2440   3.465   4.949   2.819
   19SAPS   H6R 2441   3.360   4.972   2.797
   19SAPS   C27 2442   3.482   4.891   2.955
   19SAPS   H7R 2443   3.437   4.962   3.028
   19SAPS   H7S 2444   3.587   4.894   2.991
   19SAPS   C28 2445   3.413   4.761   2.981
   19SAPS   H8R 2446   3.374   4.701   2.897
   19SAPS   C29 2447   3.381   4.711   3.104
   19SAPS   H9R 2448   3.343   4.608   3.103
   19SAPS  C210 2449   3.433   4.768   3.233
   19SAPS  H10R 2450   3.521   4.833   3.215
   19SAPS  H10S 2451   3.478   4.684   3.290
   19SAPS  C211 2452   3.338   4.829   3.329
   19SAPS  H11R 2453   3.232   4.800   3.330
   19SAPS  C212 2454   3.362   4.929   3.411
   19SAPS  H12R 2455   3.278   4.951   3.478
   19SAPS  C213 2456   3.494   4.997   3.440
   19SAPS  H13R 2457   3.592   4.949   3.424
   19SAPS  H13S 2458   3.501   5.018   3.549
   19SAPS  C214 2459   3.502   5.127   3.364
   19SAPS  H14R 2460   3.414   5.157   3.305
   19SAPS  C215 2461   3.621   5.194   3.345
   19SAPS  H15R 2462   3.612   5.288   3.290
   19SAPS  C216 2463   3.765   5.168   3.387
   19SAPS  H16R 2464   3.818   5.260   3.354
   19SAPS  H16S 2465   3.820   5.092   3.329
   19SAPS  C217 2466   3.802   5.145   3.538
   19SAPS  H17R 2467   3.891   5.078   3.532
   19SAPS  H17S 2468   3.716   5.091   3.583
   19SAPS  C218 2469   3.844   5.261   3.628
   19SAPS  H18R 2470   3.764   5.338   3.637
   19SAPS  H18S 2471   3.929   5.303   3.571
   19SAPS  C219 2472   3.890   5.210   3.766
   19SAPS  H19R 2473   3.949   5.288   3.818
   19SAPS  H19S 2474   3.967   5.134   3.740
   19SAPS  C220 2475   3.783   5.168   3.861
   19SAPS  H20R 2476   3.702   5.242   3.874
   19SAPS  H20S 2477   3.809   5.128   3.961
   19SAPS  H20T 2478   3.734   5.077   3.819
   19SAPS   C33 2479   4.645   4.658   2.648
   19SAPS   H3X 2480   4.639   4.766   2.624
   19SAPS   H3Y 2481   4.709   4.615   2.569
   19SAPS   C34 2482   4.706   4.634   2.782
   19SAPS   H4X 2483   4.816   4.647   2.767
   19SAPS   H4Y 2484   4.688   4.526   2.800
   19SAPS   C35 2485   4.671   4.718   2.903
   19SAPS   H5X 2486   4.567   4.696   2.936
   19SAPS   H5Y 2487   4.664   4.822   2.864
   19SAPS   C36 2488   4.772   4.689   3.017
   19SAPS   H6X 2489   4.869   4.726   2.978
   19SAPS   H6Y 2490   4.785   4.580   3.032
   19SAPS   C37 2491   4.733   4.756   3.150
   19SAPS   H7X 2492   4.625   4.734   3.166
   19SAPS   H7Y 2493   4.730   4.864   3.126
   19SAPS   C38 2494   4.818   4.704   3.271
   19SAPS   H8X 2495   4.926   4.694   3.246
   19SAPS   H8Y 2496   4.787   4.600   3.297
   19SAPS   C39 2497   4.799   4.785   3.399
   19SAPS   H9X 2498   4.693   4.780   3.432
   19SAPS   H9Y 2499   4.827   4.888   3.368
   19SAPS  C310 2500   4.897   4.734   3.503
   19SAPS  H10X 2501   5.002   4.745   3.470
   19SAPS  H10Y 2502   4.873   4.631   3.538
   19SAPS  C311 2503   4.876   4.835   3.625
   19SAPS  H11X 2504   4.768   4.859   3.634
   19SAPS  H11Y 2505   4.932   4.927   3.597
   19SAPS  C312 2506   4.932   4.791   3.758
   19SAPS  H12X 2507   5.033   4.746   3.764
   19SAPS  H12Y 2508   4.872   4.712   3.808
   19SAPS  C313 2509   4.943   4.890   3.871
   19SAPS  H13X 2510   4.842   4.938   3.872
   19SAPS  H13Y 2511   5.017   4.972   3.861
   19SAPS  C314 2512   4.946   4.822   4.010
   19SAPS  H14X 2513   5.049   4.786   4.034
   19SAPS  H14Y 2514   4.872   4.741   4.021
   19SAPS  C315 2515   4.893   4.917   4.126
   19SAPS  H15X 2516   4.784   4.932   4.114
   19SAPS  H15Y 2517   4.945   5.015   4.122
   19SAPS  C316 2518   4.912   4.841   4.260
   19SAPS  H16X 2519   5.020   4.834   4.287
   19SAPS  H16Y 2520   4.886   4.733   4.252
   19SAPS  C317 2521   4.813   4.895   4.369
   19SAPS  H17X 2522   4.719   4.841   4.345
   19SAPS  H17Y 2523   4.796   5.004   4.365
   19SAPS  C318 2524   4.861   4.856   4.515
   19SAPS  H18X 2525   4.792   4.900   4.591
   19SAPS  H18Y 2526   4.956   4.911   4.533
   19SAPS  H18Z 2527   4.878   4.750   4.541
   20SAPS     N 2528   4.785   5.196   1.920
   20SAPS   HN1 2529   4.815   5.295   1.930
   20SAPS   HN2 2530   4.796   5.146   2.010
   20SAPS   HN3 2531   4.845   5.152   1.848
   20SAPS   C12 2532   4.653   5.166   1.875
   20SAPS  H12A 2533   4.656   5.165   1.767
   20SAPS   C13 2534   4.613   5.020   1.904
   20SAPS  O13A 2535   4.701   4.948   1.955
   20SAPS  O13B 2536   4.505   4.974   1.862
   20SAPS   C11 2537   4.552   5.262   1.936
   20SAPS  H11A 2538   4.546   5.251   2.047
   20SAPS  H11B 2539   4.453   5.244   1.889
   20SAPS     P 2540   4.507   5.522   1.937
   20SAPS   O13 2541   4.573   5.637   1.866
   20SAPS   O14 2542   4.359   5.496   1.920
   20SAPS   O12 2543   4.595   5.395   1.895
   20SAPS   O11 2544   4.531   5.536   2.093
   20SAPS    C1 2545   4.670   5.543   2.142
   20SAPS    HA 2546   4.682   5.490   2.239
   20SAPS    HB 2547   4.746   5.500   2.074
   20SAPS    C2 2548   4.699   5.697   2.195
   20SAPS    HS 2549   4.722   5.745   2.097
   20SAPS   O21 2550   4.812   5.700   2.274
   20SAPS   C21 2551   4.871   5.819   2.296
   20SAPS   O22 2552   4.825   5.927   2.250
   20SAPS   C22 2553   4.996   5.815   2.395
   20SAPS   H2R 2554   4.986   5.718   2.448
   20SAPS   H2S 2555   5.087   5.818   2.331
   20SAPS    C3 2556   4.568   5.761   2.266
   20SAPS    HX 2557   4.492   5.778   2.187
   20SAPS    HY 2558   4.595   5.863   2.301
   20SAPS   O31 2559   4.515   5.689   2.381
   20SAPS   C31 2560   4.393   5.729   2.428
   20SAPS   O32 2561   4.331   5.825   2.388
   20SAPS   C32 2562   4.340   5.624   2.527
   20SAPS   H2X 2563   4.427   5.561   2.554
   20SAPS   H2Y 2564   4.265   5.560   2.476
   20SAPS   C23 2565   4.993   5.932   2.499
   20SAPS   H3R 2566   4.980   6.020   2.433
   20SAPS   H3S 2567   5.084   5.941   2.561
   20SAPS   C24 2568   4.866   5.921   2.579
   20SAPS   H4R 2569   4.885   5.840   2.652
   20SAPS   H4S 2570   4.779   5.879   2.524
   20SAPS   C25 2571   4.816   6.045   2.646
   20SAPS   H5R 2572   4.764   6.120   2.585
   20SAPS   C26 2573   4.827   6.076   2.777
   20SAPS   H6R 2574   4.783   6.175   2.800
   20SAPS   C27 2575   4.907   6.014   2.891
   20SAPS   H7R 2576   4.957   6.092   2.953
   20SAPS   H7S 2577   5.002   5.966   2.858
   20SAPS   C28 2578   4.826   5.920   2.973
   20SAPS   H8R 2579   4.798   5.830   2.917
   20SAPS   C29 2580   4.782   5.945   3.096
   20SAPS   H9R 2581   4.735   5.860   3.148
   20SAPS  C210 2582   4.806   6.064   3.175
   20SAPS  H10R 2583   4.722   6.085   3.245
   20SAPS  H10S 2584   4.823   6.150   3.107
   20SAPS  C211 2585   4.941   6.058   3.252
   20SAPS  H11R 2586   5.033   6.066   3.192
   20SAPS  C212 2587   4.951   6.045   3.389
   20SAPS  H12R 2588   5.055   6.048   3.424
   20SAPS  C213 2589   4.846   6.036   3.504
   20SAPS  H13R 2590   4.772   6.117   3.490
   20SAPS  H13S 2591   4.900   6.052   3.600
   20SAPS  C214 2592   4.788   5.901   3.520
   20SAPS  H14R 2593   4.799   5.845   3.425
   20SAPS  C215 2594   4.732   5.851   3.625
   20SAPS  H15R 2595   4.691   5.749   3.622
   20SAPS  C216 2596   4.694   5.919   3.755
   20SAPS  H16R 2597   4.584   5.935   3.749
   20SAPS  H16S 2598   4.735   6.022   3.767
   20SAPS  C217 2599   4.718   5.836   3.884
   20SAPS  H17R 2600   4.664   5.741   3.865
   20SAPS  H17S 2601   4.657   5.876   3.968
   20SAPS  C218 2602   4.864   5.816   3.922
   20SAPS  H18R 2603   4.920   5.770   3.838
   20SAPS  H18S 2604   4.862   5.748   4.010
   20SAPS  C219 2605   4.929   5.948   3.966
   20SAPS  H19R 2606   4.902   6.025   3.890
   20SAPS  H19S 2607   5.039   5.939   3.972
   20SAPS  C220 2608   4.878   5.998   4.107
   20SAPS  H20R 2609   4.879   5.911   4.175
   20SAPS  H20S 2610   4.779   6.046   4.090
   20SAPS  H20T 2611   4.940   6.072   4.162
   20SAPS   C33 2612   4.262   5.678   2.651
   20SAPS   H3X 2613   4.171   5.735   2.623
   20SAPS   H3Y 2614   4.330   5.740   2.714
   20SAPS   C34 2615   4.219   5.569   2.751
   20SAPS   H4X 2616   4.310   5.506   2.761
   20SAPS   H4Y 2617   4.137   5.514   2.700
   20SAPS   C35 2618   4.187   5.632   2.880
   20SAPS   H5X 2619   4.098   5.697   2.870
   20SAPS   H5Y 2620   4.270   5.690   2.926
   20SAPS   C36 2621   4.134   5.528   2.982
   20SAPS   H6X 2622   4.230   5.483   3.017
   20SAPS   H6Y 2623   4.066   5.453   2.936
   20SAPS   C37 2624   4.074   5.609   3.099
   20SAPS   H7X 2625   3.971   5.648   3.085
   20SAPS   H7Y 2626   4.145   5.692   3.121
   20SAPS   C38 2627   4.075   5.522   3.224
   20SAPS   H8X 2628   4.165   5.458   3.224
   20SAPS   H8Y 2629   3.989   5.457   3.196
   20SAPS   C39 2630   4.061   5.585   3.362
   20SAPS   H9X 2631   4.134   5.668   3.344
   20SAPS   H9Y 2632   4.094   5.521   3.447
   20SAPS  C310 2633   3.909   5.620   3.389
   20SAPS  H10X 2634   3.851   5.525   3.382
   20SAPS  H10Y 2635   3.876   5.671   3.296
   20SAPS  C311 2636   3.876   5.690   3.524
   20SAPS  H11X 2637   3.765   5.689   3.529
   20SAPS  H11Y 2638   3.903   5.798   3.524
   20SAPS  C312 2639   3.953   5.635   3.645
   20SAPS  H12X 2640   4.062   5.654   3.631
   20SAPS  H12Y 2641   3.933   5.526   3.653
   20SAPS  C313 2642   3.923   5.688   3.782
   20SAPS  H13X 2643   3.941   5.797   3.774
   20SAPS  H13Y 2644   4.001   5.652   3.852
   20SAPS  C314 2645   3.776   5.692   3.831
   20SAPS  H14X 2646   3.728   5.592   3.825
   20SAPS  H14Y 2647   3.718   5.765   3.770
   20SAPS  C315 2648   3.770   5.745   3.980
   20SAPS  H15X 2649   3.662   5.772   3.985
   20SAPS  H15Y 2650   3.825   5.841   3.989
   20SAPS  C316 2651   3.794   5.644   4.092
   20SAPS  H16X 2652   3.893   5.595   4.093
   20SAPS  H16Y 2653   3.713   5.568   4.080
   20SAPS  C317 2654   3.773   5.692   4.237
   20SAPS  H17X 2655   3.846   5.767   4.275
   20SAPS  H17Y 2656   3.796   5.608   4.306
   20SAPS  C318 2657   3.631   5.746   4.268
   20SAPS  H18X 2658   3.635   5.808   4.361
   20SAPS  H18Y 2659   3.565   5.660   4.292
   20SAPS  H18Z 2660   3.579   5.804   4.190
   21CHL1    C3 2661   1.348   3.696   5.717
   21CHL1    H3 2662   1.453   3.723   5.741
   21CHL1    O3 2663   1.304   3.597   5.809
   21CHL1   H3' 2664   1.218   3.572   5.774
   21CHL1    C4 2665   1.258   3.822   5.723
   21CHL1   H4A 2666   1.151   3.792   5.726
   21CHL1   H4B 2667   1.281   3.866   5.823
   21CHL1    C5 2668   1.281   3.929   5.608
   21CHL1    C6 2669   1.300   4.060   5.633
   21CHL1    H6 2670   1.284   4.097   5.735
   21CHL1    C7 2671   1.327   4.162   5.525
   21CHL1   H7A 2672   1.274   4.256   5.549
   21CHL1   H7B 2673   1.433   4.192   5.538
   21CHL1    C8 2674   1.288   4.122   5.385
   21CHL1    H8 2675   1.178   4.133   5.374
   21CHL1   C14 2676   1.360   4.213   5.284
   21CHL1   H14 2677   1.470   4.205   5.301
   21CHL1   C15 2678   1.341   4.366   5.295
   21CHL1  H15A 2679   1.238   4.372   5.336
   21CHL1  H15B 2680   1.405   4.422   5.366
   21CHL1   C16 2681   1.374   4.415   5.153
   21CHL1  H16A 2682   1.283   4.470   5.122
   21CHL1  H16B 2683   1.462   4.482   5.166
   21CHL1   C17 2684   1.397   4.298   5.058
   21CHL1   H17 2685   1.507   4.286   5.064
   21CHL1   C13 2686   1.329   4.181   5.133
   21CHL1   C18 2687   1.172   4.192   5.106
   21CHL1  H18A 2688   1.153   4.165   4.999
   21CHL1  H18B 2689   1.115   4.125   5.174
   21CHL1  H18C 2690   1.132   4.294   5.125
   21CHL1   C12 2691   1.380   4.038   5.110
   21CHL1  H12A 2692   1.358   4.012   5.005
   21CHL1  H12B 2693   1.489   4.029   5.130
   21CHL1   C11 2694   1.322   3.937   5.210
   21CHL1  H11A 2695   1.216   3.918   5.181
   21CHL1  H11B 2696   1.379   3.843   5.193
   21CHL1    C9 2697   1.341   3.975   5.364
   21CHL1    H9 2698   1.449   3.984   5.386
   21CHL1   C10 2699   1.285   3.869   5.468
   21CHL1   C19 2700   1.149   3.820   5.420
   21CHL1  H19A 2701   1.094   3.782   5.509
   21CHL1  H19B 2702   1.089   3.901   5.374
   21CHL1  H19C 2703   1.167   3.746   5.338
   21CHL1    C1 2704   1.389   3.756   5.474
   21CHL1   H1A 2705   1.402   3.709   5.374
   21CHL1   H1B 2706   1.483   3.812   5.492
   21CHL1    C2 2707   1.360   3.641   5.575
   21CHL1   H2A 2708   1.435   3.559   5.574
   21CHL1   H2B 2709   1.269   3.585   5.546
   21CHL1   C20 2710   1.367   4.332   4.914
   21CHL1   H20 2711   1.257   4.348   4.906
   21CHL1   C21 2712   1.392   4.215   4.823
   21CHL1  H21A 2713   1.368   4.236   4.716
   21CHL1  H21B 2714   1.314   4.136   4.827
   21CHL1  H21C 2715   1.486   4.159   4.840
   21CHL1   C22 2716   1.443   4.457   4.866
   21CHL1  H22A 2717   1.428   4.543   4.935
   21CHL1  H22B 2718   1.552   4.437   4.850
   21CHL1   C23 2719   1.395   4.522   4.733
   21CHL1  H23A 2720   1.411   4.448   4.652
   21CHL1  H23B 2721   1.286   4.533   4.753
   21CHL1   C24 2722   1.455   4.662   4.696
   21CHL1  H24A 2723   1.444   4.728   4.785
   21CHL1  H24B 2724   1.561   4.656   4.663
   21CHL1   C25 2725   1.381   4.728   4.576
   21CHL1   H25 2726   1.277   4.709   4.608
   21CHL1   C26 2727   1.405   4.875   4.566
   21CHL1  H26A 2728   1.377   4.921   4.663
   21CHL1  H26B 2729   1.515   4.885   4.554
   21CHL1  H26C 2730   1.350   4.918   4.479
   21CHL1   C27 2731   1.424   4.661   4.449
   21CHL1  H27A 2732   1.399   4.552   4.449
   21CHL1  H27B 2733   1.364   4.703   4.366
   21CHL1  H27C 2734   1.530   4.664   4.414
   22CHL1    C3 2735   1.968   1.803   5.810
   22CHL1    H3 2736   1.966   1.913   5.828
   22CHL1    O3 2737   2.005   1.746   5.933
   22CHL1   H3' 2738   2.022   1.653   5.920
   22CHL1    C4 2739   1.831   1.758   5.765
   22CHL1   H4A 2740   1.836   1.648   5.757
   22CHL1   H4B 2741   1.757   1.800   5.836
   22CHL1    C5 2742   1.811   1.819   5.628
   22CHL1    C6 2743   1.709   1.905   5.607
   22CHL1    H6 2744   1.631   1.933   5.679
   22CHL1    C7 2745   1.675   1.972   5.477
   22CHL1   H7A 2746   1.566   1.977   5.457
   22CHL1   H7B 2747   1.711   2.076   5.486
   22CHL1    C8 2748   1.750   1.915   5.357
   22CHL1    H8 2749   1.691   1.825   5.327
   22CHL1   C14 2750   1.744   2.011   5.242
   22CHL1   H14 2751   1.787   2.107   5.276
   22CHL1   C15 2752   1.608   2.050   5.188
   22CHL1  H15A 2753   1.540   1.962   5.194
   22CHL1  H15B 2754   1.557   2.132   5.241
   22CHL1   C16 2755   1.624   2.098   5.041
   22CHL1  H16A 2756   1.546   2.043   4.983
   22CHL1  H16B 2757   1.613   2.208   5.036
   22CHL1   C17 2758   1.777   2.065   5.011
   22CHL1   H17 2759   1.835   2.152   5.047
   22CHL1   C13 2760   1.818   1.957   5.115
   22CHL1   C18 2761   1.751   1.827   5.059
   22CHL1  H18A 2762   1.640   1.814   5.059
   22CHL1  H18B 2763   1.791   1.797   4.959
   22CHL1  H18C 2764   1.791   1.745   5.122
   22CHL1   C12 2765   1.963   1.932   5.143
   22CHL1  H12A 2766   2.018   1.888   5.057
   22CHL1  H12B 2767   2.024   2.025   5.153
   22CHL1   C11 2768   1.994   1.848   5.271
   22CHL1  H11A 2769   1.987   1.740   5.246
   22CHL1  H11B 2770   2.102   1.863   5.295
   22CHL1    C9 2771   1.903   1.890   5.392
   22CHL1    H9 2772   1.939   1.991   5.420
   22CHL1   C10 2773   1.919   1.798   5.513
   22CHL1   C19 2774   1.896   1.650   5.472
   22CHL1  H19A 2775   1.902   1.588   5.563
   22CHL1  H19B 2776   1.792   1.639   5.433
   22CHL1  H19C 2777   1.974   1.618   5.399
   22CHL1    C1 2778   2.062   1.823   5.575
   22CHL1   H1A 2779   2.135   1.792   5.498
   22CHL1   H1B 2780   2.088   1.929   5.594
   22CHL1    C2 2781   2.076   1.756   5.712
   22CHL1   H2A 2782   2.178   1.782   5.746
   22CHL1   H2B 2783   2.077   1.646   5.702
   22CHL1   C20 2784   1.799   2.051   4.865
   22CHL1   H20 2785   1.738   1.969   4.821
   22CHL1   C21 2786   1.941   2.011   4.845
   22CHL1  H21A 2787   1.946   1.902   4.865
   22CHL1  H21B 2788   2.011   2.065   4.911
   22CHL1  H21C 2789   1.983   2.047   4.748
   22CHL1   C22 2790   1.761   2.174   4.774
   22CHL1  H22A 2791   1.670   2.223   4.815
   22CHL1  H22B 2792   1.846   2.244   4.783
   22CHL1   C23 2793   1.745   2.127   4.628
   22CHL1  H23A 2794   1.838   2.077   4.595
   22CHL1  H23B 2795   1.663   2.053   4.617
   22CHL1   C24 2796   1.703   2.244   4.529
   22CHL1  H24A 2797   1.612   2.297   4.565
   22CHL1  H24B 2798   1.788   2.316   4.522
   22CHL1   C25 2799   1.665   2.185   4.393
   22CHL1   H25 2800   1.580   2.113   4.401
   22CHL1   C26 2801   1.618   2.300   4.303
   22CHL1  H26A 2802   1.604   2.267   4.198
   22CHL1  H26B 2803   1.523   2.344   4.339
   22CHL1  H26C 2804   1.689   2.385   4.297
   22CHL1   C27 2805   1.780   2.113   4.319
   22CHL1  H27A 2806   1.870   2.175   4.303
   22CHL1  H27B 2807   1.811   2.023   4.376
   22CHL1  H27C 2808   1.755   2.083   4.215
   23CHL1    C3 2809   0.667   3.710   5.606
   23CHL1    H3 2810   0.616   3.613   5.585
   23CHL1    O3 2811   0.694   3.711   5.745
   23CHL1   H3' 2812   0.748   3.789   5.763
   23CHL1    C4 2813   0.805   3.709   5.537
   23CHL1   H4A 2814   0.864   3.798   5.568
   23CHL1   H4B 2815   0.863   3.620   5.568
   23CHL1    C5 2816   0.773   3.702   5.390
   23CHL1    C6 2817   0.806   3.595   5.316
   23CHL1    H6 2818   0.868   3.512   5.354
   23CHL1    C7 2819   0.779   3.590   5.165
   23CHL1   H7A 2820   0.870   3.554   5.112
   23CHL1   H7B 2821   0.703   3.512   5.142
   23CHL1    C8 2822   0.739   3.723   5.105
   23CHL1    H8 2823   0.832   3.783   5.098
   23CHL1   C14 2824   0.676   3.707   4.964
   23CHL1   H14 2825   0.583   3.647   4.967
   23CHL1   C15 2826   0.763   3.621   4.867
   23CHL1  H15A 2827   0.862   3.668   4.849
   23CHL1  H15B 2828   0.753   3.513   4.892
   23CHL1   C16 2829   0.680   3.645   4.740
   23CHL1  H16A 2830   0.739   3.639   4.646
   23CHL1  H16B 2831   0.610   3.558   4.737
   23CHL1   C17 2832   0.601   3.780   4.751
   23CHL1   H17 2833   0.496   3.744   4.757
   23CHL1   C13 2834   0.640   3.832   4.889
   23CHL1   C18 2835   0.758   3.935   4.868
   23CHL1  H18A 2836   0.807   3.966   4.962
   23CHL1  H18B 2837   0.839   3.883   4.812
   23CHL1  H18C 2838   0.727   4.029   4.817
   23CHL1   C12 2839   0.524   3.897   4.977
   23CHL1  H12A 2840   0.488   3.986   4.922
   23CHL1  H12B 2841   0.444   3.820   4.978
   23CHL1   C11 2842   0.577   3.927   5.117
   23CHL1  H11A 2843   0.652   4.009   5.110
   23CHL1  H11B 2844   0.491   3.964   5.176
   23CHL1    C9 2845   0.636   3.798   5.186
   23CHL1    H9 2846   0.547   3.732   5.191
   23CHL1   C10 2847   0.686   3.815   5.335
   23CHL1   C19 2848   0.775   3.945   5.344
   23CHL1  H19A 2849   0.705   4.026   5.313
   23CHL1  H19B 2850   0.800   3.976   5.448
   23CHL1  H19C 2851   0.864   3.955   5.278
   23CHL1    C1 2852   0.555   3.833   5.415
   23CHL1   H1A 2853   0.498   3.924   5.385
   23CHL1   H1B 2854   0.488   3.747   5.397
   23CHL1    C2 2855   0.579   3.823   5.566
   23CHL1   H2A 2856   0.485   3.824   5.626
   23CHL1   H2B 2857   0.623   3.918   5.606
   23CHL1   C20 2858   0.603   3.871   4.621
   23CHL1   H20 2859   0.705   3.913   4.607
   23CHL1   C21 2860   0.502   3.983   4.640
   23CHL1  H21A 2861   0.540   4.041   4.727
   23CHL1  H21B 2862   0.401   3.944   4.663
   23CHL1  H21C 2863   0.486   4.050   4.553
   23CHL1   C22 2864   0.569   3.790   4.494
   23CHL1  H22A 2865   0.641   3.708   4.474
   23CHL1  H22B 2866   0.470   3.742   4.511
   23CHL1   C23 2867   0.551   3.878   4.366
   23CHL1  H23A 2868   0.453   3.931   4.372
   23CHL1  H23B 2869   0.641   3.943   4.362
   23CHL1   C24 2870   0.538   3.787   4.243
   23CHL1  H24A 2871   0.625   3.720   4.225
   23CHL1  H24B 2872   0.449   3.724   4.264
   23CHL1   C25 2873   0.514   3.858   4.107
   23CHL1   H25 2874   0.481   3.776   4.039
   23CHL1   C26 2875   0.393   3.949   4.129
   23CHL1  H26A 2876   0.337   3.981   4.038
   23CHL1  H26B 2877   0.319   3.898   4.194
   23CHL1  H26C 2878   0.425   4.046   4.173
   23CHL1   C27 2879   0.638   3.932   4.060
   23CHL1  H27A 2880   0.660   4.025   4.116
   23CHL1  H27B 2881   0.724   3.862   4.068
   23CHL1  H27C 2882   0.635   3.959   3.953
   24CHL1    C3 2883   3.147   4.512   6.113
   24CHL1    H3 2884   3.247   4.552   6.086
   24CHL1    O3 2885   3.143   4.468   6.249
   24CHL1   H3' 2886   3.134   4.372   6.249
   24CHL1    C4 2887   3.043   4.626   6.098
   24CHL1   H4A 2888   2.952   4.577   6.138
   24CHL1   H4B 2889   3.073   4.716   6.156
   24CHL1    C5 2890   3.023   4.676   5.955
   24CHL1    C6 2891   3.019   4.806   5.918
   24CHL1    H6 2892   3.029   4.879   6.000
   24CHL1    C7 2893   3.012   4.867   5.777
   24CHL1   H7A 2894   2.929   4.938   5.759
   24CHL1   H7B 2895   3.110   4.920   5.766
   24CHL1    C8 2896   2.983   4.753   5.674
   24CHL1    H8 2897   2.873   4.738   5.681
   24CHL1   C14 2898   3.017   4.802   5.539
   24CHL1   H14 2899   3.125   4.827   5.530
   24CHL1   C15 2900   2.947   4.931   5.488
   24CHL1  H15A 2901   2.837   4.912   5.494
   24CHL1  H15B 2902   2.980   5.026   5.535
   24CHL1   C16 2903   2.976   4.922   5.340
   24CHL1  H16A 2904   2.885   4.955   5.286
   24CHL1  H16B 2905   3.058   4.993   5.313
   24CHL1   C17 2906   3.021   4.774   5.299
   24CHL1   H17 2907   3.131   4.786   5.291
   24CHL1   C13 2908   2.990   4.695   5.429
   24CHL1   C18 2909   2.839   4.647   5.418
   24CHL1  H18A 2910   2.812   4.592   5.325
   24CHL1  H18B 2911   2.798   4.586   5.501
   24CHL1  H18C 2912   2.769   4.733   5.421
   24CHL1   C12 2913   3.080   4.575   5.455
   24CHL1  H12A 2914   3.067   4.499   5.375
   24CHL1  H12B 2915   3.188   4.600   5.458
   24CHL1   C11 2916   3.049   4.513   5.595
   24CHL1  H11A 2917   2.947   4.468   5.595
   24CHL1  H11B 2918   3.133   4.447   5.623
   24CHL1    C9 2919   3.052   4.622   5.709
   24CHL1    H9 2920   3.163   4.630   5.710
   24CHL1   C10 2921   3.012   4.568   5.850
   24CHL1   C19 2922   2.866   4.521   5.848
   24CHL1  H19A 2923   2.828   4.486   5.947
   24CHL1  H19B 2924   2.803   4.609   5.822
   24CHL1  H19C 2925   2.850   4.434   5.781
   24CHL1    C1 2926   3.105   4.450   5.883
   24CHL1   H1A 2927   3.075   4.368   5.814
   24CHL1   H1B 2928   3.210   4.480   5.862
   24CHL1    C2 2929   3.108   4.395   6.028
   24CHL1   H2A 2930   3.188   4.319   6.036
   24CHL1   H2B 2931   3.004   4.366   6.051
   24CHL1   C20 2932   2.972   4.727   5.165
   24CHL1   H20 2933   2.862   4.739   5.158
   24CHL1   C21 2934   3.007   4.579   5.135
   24CHL1  H21A 2935   2.963   4.516   5.215
   24CHL1  H21B 2936   3.116   4.563   5.134
   24CHL1  H21C 2937   2.971   4.543   5.036
   24CHL1   C22 2938   3.020   4.819   5.050
   24CHL1  H22A 2939   3.054   4.920   5.080
   24CHL1  H22B 2940   3.106   4.759   5.011
   24CHL1   C23 2941   2.911   4.852   4.937
   24CHL1  H23A 2942   2.971   4.902   4.859
   24CHL1  H23B 2943   2.871   4.757   4.894
   24CHL1   C24 2944   2.792   4.943   4.974
   24CHL1  H24A 2945   2.728   4.885   5.044
   24CHL1  H24B 2946   2.830   5.027   5.036
   24CHL1   C25 2947   2.704   4.983   4.857
   24CHL1   H25 2948   2.608   5.024   4.894
   24CHL1   C26 2949   2.774   5.093   4.780
   24CHL1  H26A 2950   2.783   5.185   4.841
   24CHL1  H26B 2951   2.877   5.065   4.750
   24CHL1  H26C 2952   2.723   5.103   4.682
   24CHL1   C27 2953   2.680   4.863   4.763
   24CHL1  H27A 2954   2.619   4.904   4.679
   24CHL1  H27B 2955   2.772   4.833   4.708
   24CHL1  H27C 2956   2.626   4.772   4.797
   25CHL1    C3 2957   5.912   5.803   5.641
   25CHL1    H3 2958   5.952   5.900   5.604
   25CHL1    O3 2959   5.893   5.792   5.779
   25CHL1   H3' 2960   5.827   5.723   5.782
   25CHL1    C4 2961   5.777   5.763   5.574
   25CHL1   H4A 2962   5.747   5.662   5.608
   25CHL1   H4B 2963   5.696   5.827   5.614
   25CHL1    C5 2964   5.790   5.768   5.424
   25CHL1    C6 2965   5.708   5.854   5.363
   25CHL1    H6 2966   5.629   5.908   5.418
   25CHL1    C7 2967   5.705   5.873   5.212
   25CHL1   H7A 2968   5.604   5.877   5.166
   25CHL1   H7B 2969   5.753   5.972   5.195
   25CHL1    C8 2970   5.787   5.759   5.143
   25CHL1    H8 2971   5.734   5.662   5.155
   25CHL1   C14 2972   5.808   5.803   4.999
   25CHL1   H14 2973   5.870   5.895   5.000
   25CHL1   C15 2974   5.681   5.831   4.920
   25CHL1  H15A 2975   5.594   5.765   4.938
   25CHL1  H15B 2976   5.641   5.933   4.939
   25CHL1   C16 2977   5.728   5.821   4.777
   25CHL1  H16A 2978   5.661   5.743   4.733
   25CHL1  H16B 2979   5.711   5.917   4.725
   25CHL1   C17 2980   5.876   5.767   4.781
   25CHL1   H17 2981   5.943   5.856   4.791
   25CHL1   C13 2982   5.885   5.700   4.918
   25CHL1   C18 2983   5.812   5.566   4.918
   25CHL1  H18A 2984   5.863   5.487   4.857
   25CHL1  H18B 2985   5.802   5.518   5.017
   25CHL1  H18C 2986   5.711   5.571   4.872
   25CHL1   C12 2987   6.030   5.679   4.982
   25CHL1  H12A 2988   6.096   5.612   4.922
   25CHL1  H12B 2989   6.077   5.779   4.981
   25CHL1   C11 2990   6.017   5.631   5.124
   25CHL1  H11A 2991   5.982   5.526   5.125
   25CHL1  H11B 2992   6.116   5.629   5.175
   25CHL1    C9 2993   5.925   5.723   5.207
   25CHL1    H9 2994   5.966   5.826   5.212
   25CHL1   C10 2995   5.899   5.683   5.357
   25CHL1   C19 2996   5.854   5.542   5.352
   25CHL1  H19A 2997   5.828   5.496   5.450
   25CHL1  H19B 2998   5.776   5.518   5.276
   25CHL1  H19C 2999   5.943   5.482   5.327
   25CHL1    C1 3000   6.032   5.703   5.440
   25CHL1   H1A 3001   6.111   5.630   5.415
   25CHL1   H1B 3002   6.065   5.808   5.421
   25CHL1    C2 3003   6.012   5.695   5.596
   25CHL1   H2A 3004   6.111   5.715   5.644
   25CHL1   H2B 3005   5.980   5.597   5.636
   25CHL1   C20 3006   5.916   5.691   4.654
   25CHL1   H20 3007   5.875   5.588   4.657
   25CHL1   C21 3008   6.070   5.695   4.646
   25CHL1  H21A 3009   6.113   5.657   4.551
   25CHL1  H21B 3010   6.120   5.634   4.724
   25CHL1  H21C 3011   6.106   5.800   4.649
   25CHL1   C22 3012   5.850   5.752   4.521
   25CHL1  H22A 3013   5.873   5.681   4.439
   25CHL1  H22B 3014   5.739   5.754   4.533
   25CHL1   C23 3015   5.886   5.897   4.484
   25CHL1  H23A 3016   5.851   5.964   4.565
   25CHL1  H23B 3017   5.995   5.915   4.487
   25CHL1   C24 3018   5.860   5.944   4.338
   25CHL1  H24A 3019   5.883   5.858   4.271
   25CHL1  H24B 3020   5.754   5.975   4.330
   25CHL1   C25 3021   5.954   6.061   4.312
   25CHL1   H25 3022   6.062   6.038   4.324
   25CHL1   C26 3023   5.934   6.105   4.165
   25CHL1  H26A 3024   5.835   6.154   4.151
   25CHL1  H26B 3025   6.013   6.182   4.150
   25CHL1  H26C 3026   5.951   6.025   4.090
   25CHL1   C27 3027   5.930   6.183   4.408
   25CHL1  H27A 3028   5.963   6.281   4.366
   25CHL1  H27B 3029   5.824   6.192   4.440
   25CHL1  H27C 3030   5.989   6.158   4.499
   26CHL1    C3 3031   3.263   3.206   5.701
   26CHL1    H3 3032   3.194   3.282   5.658
   26CHL1    O3 3033   3.208   3.146   5.821
   26CHL1   H3' 3034   3.274   3.160   5.890
   26CHL1    C4 3035   3.277   3.085   5.604
   26CHL1   H4A 3036   3.328   2.998   5.651
   26CHL1   H4B 3037   3.180   3.035   5.588
   26CHL1    C5 3038   3.341   3.129   5.476
   26CHL1    C6 3039   3.281   3.114   5.356
   26CHL1    H6 3040   3.185   3.059   5.354
   26CHL1    C7 3041   3.334   3.150   5.216
   26CHL1   H7A 3042   3.309   3.079   5.133
   26CHL1   H7B 3043   3.291   3.246   5.180
   26CHL1    C8 3044   3.485   3.161   5.236
   26CHL1    H8 3045   3.520   3.056   5.243
   26CHL1   C14 3046   3.555   3.202   5.107
   26CHL1   H14 3047   3.507   3.297   5.073
   26CHL1   C15 3048   3.532   3.106   4.989
   26CHL1  H15A 3049   3.563   3.003   5.013
   26CHL1  H15B 3050   3.437   3.103   4.931
   26CHL1   C16 3051   3.634   3.140   4.882
   26CHL1  H16A 3052   3.697   3.052   4.859
   26CHL1  H16B 3053   3.587   3.193   4.796
   26CHL1   C17 3054   3.728   3.248   4.953
   26CHL1   H17 3055   3.684   3.349   4.946
   26CHL1   C13 3056   3.706   3.223   5.106
   26CHL1   C18 3057   3.777   3.089   5.149
   26CHL1  H18A 3058   3.736   3.060   5.248
   26CHL1  H18B 3059   3.757   3.012   5.070
   26CHL1  H18C 3060   3.885   3.113   5.158
   26CHL1   C12 3061   3.723   3.333   5.213
   26CHL1  H12A 3062   3.830   3.361   5.216
   26CHL1  H12B 3063   3.671   3.424   5.177
   26CHL1   C11 3064   3.667   3.303   5.354
   26CHL1  H11A 3065   3.748   3.236   5.390
   26CHL1  H11B 3066   3.690   3.388   5.422
   26CHL1    C9 3067   3.520   3.255   5.354
   26CHL1    H9 3068   3.463   3.349   5.338
   26CHL1   C10 3069   3.472   3.197   5.486
   26CHL1   C19 3070   3.567   3.093   5.539
   26CHL1  H19A 3071   3.666   3.143   5.554
   26CHL1  H19B 3072   3.545   3.056   5.641
   26CHL1  H19C 3073   3.586   3.012   5.466
   26CHL1    C1 3074   3.453   3.315   5.593
   26CHL1   H1A 3075   3.554   3.359   5.609
   26CHL1   H1B 3076   3.389   3.390   5.543
   26CHL1    C2 3077   3.395   3.277   5.727
   26CHL1   H2A 3078   3.377   3.361   5.796
   26CHL1   H2B 3079   3.468   3.218   5.786
   26CHL1   C20 3080   3.877   3.247   4.893
   26CHL1   H20 3081   3.919   3.147   4.920
   26CHL1   C21 3082   3.962   3.352   4.966
   26CHL1  H21A 3083   3.907   3.449   4.959
   26CHL1  H21B 3084   4.057   3.367   4.911
   26CHL1  H21C 3085   4.000   3.338   5.069
   26CHL1   C22 3086   3.873   3.264   4.741
   26CHL1  H22A 3087   3.979   3.251   4.707
   26CHL1  H22B 3088   3.823   3.170   4.711
   26CHL1   C23 3089   3.819   3.395   4.694
   26CHL1  H23A 3090   3.716   3.413   4.734
   26CHL1  H23B 3091   3.883   3.483   4.716
   26CHL1   C24 3092   3.794   3.406   4.539
   26CHL1  H24A 3093   3.722   3.334   4.495
   26CHL1  H24B 3094   3.739   3.502   4.530
   26CHL1   C25 3095   3.917   3.404   4.446
   26CHL1   H25 3096   3.952   3.299   4.454
   26CHL1   C26 3097   3.884   3.449   4.307
   26CHL1  H26A 3098   3.789   3.403   4.269
   26CHL1  H26B 3099   3.870   3.559   4.313
   26CHL1  H26C 3100   3.971   3.427   4.241
   26CHL1   C27 3101   4.024   3.510   4.503
   26CHL1  H27A 3102   4.053   3.480   4.606
   26CHL1  H27B 3103   4.110   3.525   4.434
   26CHL1  H27C 3104   3.979   3.611   4.517
   27CHL1    C3 3105   6.859   2.581   6.072
   27CHL1    H3 3106   6.778   2.647   6.033
   27CHL1    O3 3107   6.831   2.566   6.212
   27CHL1   H3' 3108   6.833   2.474   6.239
   27CHL1    C4 3109   6.848   2.452   6.002
   27CHL1   H4A 3110   0.033   2.378   6.044
   27CHL1   H4B 3111   6.747   2.407   6.017
   27CHL1    C5 3112   6.878   2.471   5.855
   27CHL1    C6 3113   6.794   2.463   5.756
   27CHL1    H6 3114   6.691   2.433   5.782
   27CHL1    C7 3115   6.819   2.465   5.607
   27CHL1   H7A 3116   6.759   2.391   5.549
   27CHL1   H7B 3117   6.775   2.562   5.575
   27CHL1    C8 3118   0.091   2.470   5.576
   27CHL1    H8 3119   0.124   2.365   5.587
   27CHL1   C14 3120   0.107   2.524   5.437
   27CHL1   H14 3121   0.077   2.631   5.429
   27CHL1   C15 3122   0.021   2.457   5.328
   27CHL1  H15A 3123   0.008   2.348   5.339
   27CHL1  H15B 3124   6.808   2.505   5.342
   27CHL1   C16 3125   0.096   2.492   5.197
   27CHL1  H16A 3126   0.103   2.397   5.140
   27CHL1  H16B 3127   0.039   2.557   5.126
   27CHL1   C17 3128   0.233   2.562   5.237
   27CHL1   H17 3129   0.218   2.671   5.224
   27CHL1   C13 3130   0.254   2.520   5.386
   27CHL1   C18 3131   0.305   2.375   5.401
   27CHL1  H18A 3132   0.409   2.379   5.362
   27CHL1  H18B 3133   0.315   2.331   5.502
   27CHL1  H18C 3134   0.247   2.310   5.333
   27CHL1   C12 3135   0.341   2.613   5.483
   27CHL1  H12A 3136   0.450   2.605   5.462
   27CHL1  H12B 3137   0.304   2.715   5.458
   27CHL1   C11 3138   0.318   2.563   5.629
   27CHL1  H11A 3139   0.364   2.463   5.649
   27CHL1  H11B 3140   0.366   2.639   5.694
   27CHL1    C9 3141   0.167   2.555   5.672
   27CHL1    H9 3142   0.131   2.659   5.657
   27CHL1   C10 3143   0.139   2.520   5.822
   27CHL1   C19 3144   0.249   2.415   5.856
   27CHL1  H19A 3145   0.349   2.464   5.860
   27CHL1  H19B 3146   0.230   2.368   5.954
   27CHL1  H19C 3147   0.261   2.336   5.778
   27CHL1    C1 3148   0.165   2.643   5.899
   27CHL1   H1A 3149   0.272   2.670   5.907
   27CHL1   H1B 3150   0.114   2.729   5.851
   27CHL1    C2 3151   0.116   2.637   6.050
   27CHL1   H2A 3152   0.113   2.740   6.093
   27CHL1   H2B 3153   0.175   2.565   6.111
   27CHL1   C20 3154   0.351   2.524   5.143
   27CHL1   H20 3155   0.376   2.418   5.165
   27CHL1   C21 3156   0.471   2.612   5.176
   27CHL1  H21A 3157   0.442   2.719   5.183
   27CHL1  H21B 3158   0.549   2.601   5.098
   27CHL1  H21C 3159   0.518   2.571   5.268
   27CHL1   C22 3160   0.319   2.535   4.991
   27CHL1  H22A 3161   0.404   2.481   4.945
   27CHL1  H22B 3162   0.221   2.485   4.976
   27CHL1   C23 3163   0.326   2.674   4.930
   27CHL1  H23A 3164   0.242   2.734   4.972
   27CHL1  H23B 3165   0.416   2.721   4.976
   27CHL1   C24 3166   0.330   2.679   4.774
   27CHL1  H24A 3167   0.420   2.635   4.726
   27CHL1  H24B 3168   0.259   2.601   4.738
   27CHL1   C25 3169   0.312   2.822   4.717
   27CHL1   H25 3170   0.223   2.872   4.761
   27CHL1   C26 3171   0.428   2.912   4.742
   27CHL1  H26A 3172   0.437   2.942   4.848
   27CHL1  H26B 3173   0.521   2.864   4.706
   27CHL1  H26C 3174   0.411   3.005   4.684
   27CHL1   C27 3175   0.280   2.820   4.566
   27CHL1  H27A 3176   0.284   2.922   4.524
   27CHL1  H27B 3177   0.183   2.773   4.541
   27CHL1  H27C 3178   0.359   2.763   4.513
   28CHL1    C3 3179   5.163   2.369   6.017
   28CHL1    H3 3180   5.063   2.416   6.005
   28CHL1    O3 3181   5.231   2.427   6.126
   28CHL1   H3' 3182   5.197   2.379   6.202
   28CHL1    C4 3183   5.145   2.218   6.035
   28CHL1   H4A 3184   5.249   2.181   6.048
   28CHL1   H4B 3185   5.093   2.201   6.131
   28CHL1    C5 3186   5.075   2.160   5.919
   28CHL1    C6 3187   4.954   2.093   5.926
   28CHL1    H6 3188   4.913   2.070   6.025
   28CHL1    C7 3189   4.886   2.034   5.806
   28CHL1   H7A 3190   4.837   1.938   5.831
   28CHL1   H7B 3191   4.808   2.099   5.762
   28CHL1    C8 3192   4.984   2.018   5.695
   28CHL1    H8 3193   5.060   1.940   5.717
   28CHL1   C14 3194   4.901   1.969   5.576
   28CHL1   H14 3195   4.826   2.048   5.556
   28CHL1   C15 3196   4.822   1.839   5.582
   28CHL1  H15A 3197   4.885   1.765   5.636
   28CHL1  H15B 3198   4.731   1.864   5.642
   28CHL1   C16 3199   4.793   1.805   5.436
   28CHL1  H16A 3200   4.822   1.701   5.411
   28CHL1  H16B 3201   4.683   1.814   5.425
   28CHL1   C17 3202   4.870   1.906   5.348
   28CHL1   H17 3203   4.803   1.991   5.326
   28CHL1   C13 3204   4.974   1.967   5.449
   28CHL1   C18 3205   5.084   1.863   5.458
   28CHL1  H18A 3206   5.147   1.880   5.368
   28CHL1  H18B 3207   5.154   1.870   5.544
   28CHL1  H18C 3208   5.054   1.757   5.444
   28CHL1   C12 3209   5.014   2.113   5.420
   28CHL1  H12A 3210   5.056   2.128   5.318
   28CHL1  H12B 3211   4.923   2.176   5.422
   28CHL1   C11 3212   5.122   2.157   5.525
   28CHL1  H11A 3213   5.215   2.097   5.516
   28CHL1  H11B 3214   5.156   2.260   5.504
   28CHL1    C9 3215   5.055   2.149   5.667
   28CHL1    H9 3216   4.969   2.219   5.662
   28CHL1   C10 3217   5.142   2.202   5.786
   28CHL1   C19 3218   5.273   2.122   5.770
   28CHL1  H19A 3219   5.330   2.145   5.677
   28CHL1  H19B 3220   5.346   2.140   5.852
   28CHL1  H19C 3221   5.262   2.012   5.762
   28CHL1    C1 3222   5.162   2.355   5.769
   28CHL1   H1A 3223   5.213   2.367   5.671
   28CHL1   H1B 3224   5.068   2.413   5.758
   28CHL1    C2 3225   5.239   2.407   5.887
   28CHL1   H2A 3226   5.249   2.516   5.873
   28CHL1   H2B 3227   5.337   2.356   5.877
   28CHL1   C20 3228   4.922   1.851   5.211
   28CHL1   H20 3229   5.004   1.779   5.230
   28CHL1   C21 3230   4.958   1.967   5.116
   28CHL1  H21A 3231   4.986   1.927   5.016
   28CHL1  H21B 3232   5.046   2.020   5.160
   28CHL1  H21C 3233   4.875   2.039   5.102
   28CHL1   C22 3234   4.813   1.764   5.143
   28CHL1  H22A 3235   4.806   1.674   5.207
   28CHL1  H22B 3236   4.715   1.816   5.141
   28CHL1   C23 3237   4.847   1.720   4.999
   28CHL1  H23A 3238   4.837   1.809   4.933
   28CHL1  H23B 3239   4.957   1.708   4.989
   28CHL1   C24 3240   4.772   1.595   4.946
   28CHL1  H24A 3241   4.815   1.507   5.000
   28CHL1  H24B 3242   4.666   1.598   4.978
   28CHL1   C25 3243   4.788   1.550   4.790
   28CHL1   H25 3244   4.897   1.529   4.786
   28CHL1   C26 3245   4.708   1.429   4.760
   28CHL1  H26A 3246   4.721   1.345   4.832
   28CHL1  H26B 3247   4.603   1.465   4.755
   28CHL1  H26C 3248   4.744   1.391   4.662
   28CHL1   C27 3249   4.748   1.651   4.684
   28CHL1  H27A 3250   4.642   1.681   4.700
   28CHL1  H27B 3251   4.815   1.740   4.688
   28CHL1  H27C 3252   4.760   1.605   4.584
   29CHL1    C3 3253   2.404   3.660   5.887
   29CHL1    H3 3254   2.484   3.602   5.835
   29CHL1    O3 3255   2.417   3.629   6.023
   29CHL1   H3' 3256   2.371   3.702   6.065
   29CHL1    C4 3257   2.427   3.812   5.852
   29CHL1   H4A 3258   2.357   3.879   5.906
   29CHL1   H4B 3259   2.526   3.837   5.897
   29CHL1    C5 3260   2.415   3.829   5.698
   29CHL1    C6 3261   2.514   3.889   5.632
   29CHL1    H6 3262   2.599   3.934   5.684
   29CHL1    C7 3263   2.518   3.918   5.485
   29CHL1   H7A 3264   2.532   4.025   5.460
   29CHL1   H7B 3265   2.600   3.860   5.438
   29CHL1    C8 3266   2.381   3.882   5.421
   29CHL1    H8 3267   2.312   3.966   5.444
   29CHL1   C14 3268   2.399   3.880   5.273
   29CHL1   H14 3269   2.471   3.796   5.261
   29CHL1   C15 3270   2.469   3.993   5.197
   29CHL1  H15A 3271   2.433   4.091   5.235
   29CHL1  H15B 3272   2.579   3.982   5.203
   29CHL1   C16 3273   2.423   3.972   5.056
   29CHL1  H16A 3274   2.397   4.074   5.020
   29CHL1  H16B 3275   2.513   3.945   4.996
   29CHL1   C17 3276   2.312   3.858   5.049
   29CHL1   H17 3277   2.374   3.766   5.038
   29CHL1   C13 3278   2.265   3.849   5.196
   29CHL1   C18 3279   2.167   3.960   5.231
   29CHL1  H18A 3280   2.205   4.061   5.205
   29CHL1  H18B 3281   2.074   3.934   5.175
   29CHL1  H18C 3282   2.149   3.967   5.340
   29CHL1   C12 3283   2.225   3.704   5.239
   29CHL1  H12A 3284   2.128   3.672   5.196
   29CHL1  H12B 3285   2.308   3.634   5.216
   29CHL1   C11 3286   2.203   3.696   5.392
   29CHL1  H11A 3287   2.112   3.758   5.409
   29CHL1  H11B 3288   2.177   3.590   5.415
   29CHL1    C9 3289   2.326   3.750   5.475
   29CHL1    H9 3290   2.409   3.677   5.463
   29CHL1   C10 3291   2.292   3.760   5.626
   29CHL1   C19 3292   2.162   3.841   5.660
   29CHL1  H19A 3293   2.180   3.949   5.645
   29CHL1  H19B 3294   2.077   3.800   5.602
   29CHL1  H19C 3295   2.132   3.836   5.767
   29CHL1    C1 3296   2.271   3.614   5.677
   29CHL1   H1A 3297   2.171   3.580   5.644
   29CHL1   H1B 3298   2.359   3.561   5.635
   29CHL1    C2 3299   2.274   3.596   5.823
   29CHL1   H2A 3300   2.255   3.493   5.859
   29CHL1   H2B 3301   2.194   3.653   5.876
   29CHL1   C20 3302   2.205   3.861   4.938
   29CHL1   H20 3303   2.145   3.952   4.961
   29CHL1   C21 3304   2.116   3.728   4.940
   29CHL1  H21A 3305   2.037   3.742   5.017
   29CHL1  H21B 3306   2.183   3.642   4.959
   29CHL1  H21C 3307   2.074   3.709   4.839
   29CHL1   C22 3308   2.272   3.880   4.799
   29CHL1  H22A 3309   2.332   3.973   4.812
   29CHL1  H22B 3310   2.342   3.796   4.783
   29CHL1   C23 3311   2.186   3.907   4.674
   29CHL1  H23A 3312   2.125   3.817   4.654
   29CHL1  H23B 3313   2.116   3.991   4.695
   29CHL1   C24 3314   2.274   3.938   4.551
   29CHL1  H24A 3315   2.339   4.023   4.585
   29CHL1  H24B 3316   2.339   3.853   4.522
   29CHL1   C25 3317   2.187   3.992   4.440
   29CHL1   H25 3318   2.103   4.046   4.488
   29CHL1   C26 3319   2.251   4.086   4.332
   29CHL1  H26A 3320   2.264   4.182   4.387
   29CHL1  H26B 3321   2.351   4.046   4.305
   29CHL1  H26C 3322   2.180   4.103   4.248
   29CHL1   C27 3323   2.129   3.876   4.357
   29CHL1  H27A 3324   2.052   3.906   4.282
   29CHL1  H27B 3325   2.209   3.814   4.311
   29CHL1  H27C 3326   2.070   3.805   4.418
   30CHL1    C3 3327   2.662   3.230   5.756
   30CHL1    H3 3328   2.648   3.137   5.697
   30CHL1    O3 3329   2.623   3.199   5.890
   30CHL1   H3' 3330   2.697   3.163   5.940
   30CHL1    C4 3331   2.804   3.286   5.744
   30CHL1   H4A 3332   2.804   3.378   5.806
   30CHL1   H4B 3333   2.882   3.222   5.789
   30CHL1    C5 3334   2.841   3.335   5.598
   30CHL1    C6 3335   2.948   3.295   5.525
   30CHL1    H6 3336   3.018   3.221   5.565
   30CHL1    C7 3337   2.975   3.324   5.377
   30CHL1   H7A 3338   3.082   3.343   5.354
   30CHL1   H7B 3339   2.954   3.236   5.313
   30CHL1    C8 3340   2.894   3.444   5.327
   30CHL1    H8 3341   2.944   3.534   5.370
   30CHL1   C14 3342   2.898   3.458   5.172
   30CHL1   H14 3343   2.839   3.373   5.132
   30CHL1   C15 3344   3.034   3.450   5.098
   30CHL1  H15A 3345   3.122   3.498   5.147
   30CHL1  H15B 3346   3.070   3.347   5.077
   30CHL1   C16 3347   3.011   3.526   4.967
   30CHL1  H16A 3348   3.076   3.616   4.970
   30CHL1  H16B 3349   3.034   3.459   4.881
   30CHL1   C17 3350   2.858   3.566   4.969
   30CHL1   H17 3351   2.801   3.478   4.931
   30CHL1   C13 3352   2.818   3.578   5.116
   30CHL1   C18 3353   2.863   3.710   5.172
   30CHL1  H18A 3354   2.972   3.725   5.154
   30CHL1  H18B 3355   2.802   3.793   5.130
   30CHL1  H18C 3356   2.859   3.710   5.283
   30CHL1   C12 3357   2.667   3.548   5.155
   30CHL1  H12A 3358   2.587   3.616   5.117
   30CHL1  H12B 3359   2.642   3.445   5.119
   30CHL1   C11 3360   2.650   3.532   5.308
   30CHL1  H11A 3361   2.659   3.634   5.351
   30CHL1  H11B 3362   2.549   3.487   5.319
   30CHL1    C9 3363   2.750   3.435   5.378
   30CHL1    H9 3364   2.718   3.335   5.341
   30CHL1   C10 3365   2.732   3.426   5.531
   30CHL1   C19 3366   2.743   3.576   5.582
   30CHL1  H19A 3367   2.654   3.628   5.539
   30CHL1  H19B 3368   2.725   3.569   5.691
   30CHL1  H19C 3369   2.836   3.624   5.545
   30CHL1    C1 3370   2.590   3.372   5.562
   30CHL1   H1A 3371   2.511   3.443   5.528
   30CHL1   H1B 3372   2.584   3.282   5.496
   30CHL1    C2 3373   2.564   3.336   5.710
   30CHL1   H2A 3374   2.460   3.297   5.713
   30CHL1   H2B 3375   2.557   3.432   5.764
   30CHL1   C20 3376   2.819   3.683   4.877
   30CHL1   H20 3377   2.870   3.773   4.916
   30CHL1   C21 3378   2.665   3.706   4.884
   30CHL1  H21A 3379   2.639   3.764   4.975
   30CHL1  H21B 3380   2.614   3.607   4.890
   30CHL1  H21C 3381   2.620   3.760   4.798
   30CHL1   C22 3382   2.871   3.664   4.732
   30CHL1  H22A 3383   2.978   3.633   4.729
   30CHL1  H22B 3384   2.822   3.578   4.682
   30CHL1   C23 3385   2.864   3.792   4.641
   30CHL1  H23A 3386   2.757   3.822   4.632
   30CHL1  H23B 3387   2.919   3.878   4.684
   30CHL1   C24 3388   2.930   3.763   4.507
   30CHL1  H24A 3389   3.034   3.727   4.523
   30CHL1  H24B 3390   2.868   3.679   4.470
   30CHL1   C25 3391   2.931   3.883   4.409
   30CHL1   H25 3392   2.840   3.940   4.438
   30CHL1   C26 3393   3.050   3.978   4.443
   30CHL1  H26A 3394   3.068   4.000   4.550
   30CHL1  H26B 3395   3.140   3.926   4.403
   30CHL1  H26C 3396   3.031   4.069   4.382
   30CHL1   C27 3397   2.920   3.832   4.261
   30CHL1  H27A 3398   3.008   3.769   4.232
   30CHL1  H27B 3399   2.828   3.772   4.247
   30CHL1  H27C 3400   2.924   3.916   4.188
   31CHL1    C3 3401   1.652   4.111   5.828
   31CHL1    H3 3402   1.550   4.116   5.784
   31CHL1    O3 3403   1.655   4.058   5.957
   31CHL1   H3' 3404   1.747   4.033   5.973
   31CHL1    C4 3405   1.729   4.012   5.738
   31CHL1   H4A 3406   1.824   3.981   5.786
   31CHL1   H4B 3407   1.674   3.915   5.732
   31CHL1    C5 3408   1.749   4.068   5.596
   31CHL1    C6 3409   1.732   3.990   5.487
   31CHL1    H6 3410   1.687   3.892   5.508
   31CHL1    C7 3411   1.762   4.026   5.339
   31CHL1   H7A 3412   1.835   3.955   5.294
   31CHL1   H7B 3413   1.675   4.030   5.271
   31CHL1    C8 3414   1.839   4.162   5.326
   31CHL1    H8 3415   1.947   4.145   5.347
   31CHL1   C14 3416   1.810   4.228   5.183
   31CHL1   H14 3417   1.703   4.257   5.179
   31CHL1   C15 3418   1.813   4.146   5.060
   31CHL1  H15A 3419   1.875   4.054   5.059
   31CHL1  H15B 3420   1.714   4.104   5.032
   31CHL1   C16 3421   1.858   4.244   4.951
   31CHL1  H16A 3422   1.964   4.222   4.926
   31CHL1  H16B 3423   1.789   4.238   4.864
   31CHL1   C17 3424   1.858   4.388   5.017
   31CHL1   H17 3425   1.753   4.424   5.028
   31CHL1   C13 3426   1.897   4.358   5.160
   31CHL1   C18 3427   2.047   4.342   5.173
   31CHL1  H18A 3428   2.077   4.300   5.271
   31CHL1  H18B 3429   2.085   4.271   5.096
   31CHL1  H18C 3430   2.108   4.434   5.161
   31CHL1   C12 3431   1.839   4.457   5.268
   31CHL1  H12A 3432   1.907   4.544   5.261
   31CHL1  H12B 3433   1.732   4.471   5.240
   31CHL1   C11 3434   1.856   4.399   5.409
   31CHL1  H11A 3435   1.965   4.388   5.427
   31CHL1  H11B 3436   1.832   4.479   5.482
   31CHL1    C9 3437   1.792   4.257   5.436
   31CHL1    H9 3438   1.684   4.281   5.419
   31CHL1   C10 3439   1.796   4.214   5.584
   31CHL1   C19 3440   1.944   4.215   5.627
   31CHL1  H19A 3441   1.980   4.318   5.644
   31CHL1  H19B 3442   1.954   4.166   5.726
   31CHL1  H19C 3443   1.999   4.159   5.547
   31CHL1    C1 3444   1.712   4.307   5.671
   31CHL1   H1A 3445   1.737   4.415   5.668
   31CHL1   H1B 3446   1.606   4.304   5.638
   31CHL1    C2 3447   1.708   4.252   5.821
   31CHL1   H2A 3448   1.633   4.307   5.881
   31CHL1   H2B 3449   1.811   4.262   5.863
   31CHL1   C20 3450   1.936   4.490   4.933
   31CHL1   H20 3451   2.042   4.459   4.923
   31CHL1   C21 3452   1.931   4.631   4.993
   31CHL1  H21A 3453   1.987   4.629   5.089
   31CHL1  H21B 3454   1.823   4.655   5.000
   31CHL1  H21C 3455   1.974   4.708   4.926
   31CHL1   C22 3456   1.878   4.494   4.785
   31CHL1  H22A 3457   1.869   4.397   4.732
   31CHL1  H22B 3458   1.772   4.526   4.789
   31CHL1   C23 3459   1.971   4.579   4.681
   31CHL1  H23A 3460   2.039   4.654   4.726
   31CHL1  H23B 3461   2.025   4.497   4.628
   31CHL1   C24 3462   1.879   4.643   4.577
   31CHL1  H24A 3463   1.808   4.566   4.541
   31CHL1  H24B 3464   1.825   4.722   4.632
   31CHL1   C25 3465   1.930   4.724   4.456
   31CHL1   H25 3466   1.850   4.780   4.402
   31CHL1   C26 3467   2.040   4.821   4.505
   31CHL1  H26A 3468   2.095   4.874   4.424
   31CHL1  H26B 3469   1.986   4.892   4.571
   31CHL1  H26C 3470   2.124   4.766   4.552
   31CHL1   C27 3471   1.982   4.639   4.346
   31CHL1  H27A 3472   2.014   4.710   4.266
   31CHL1  H27B 3473   2.076   4.581   4.362
   31CHL1  H27C 3474   1.913   4.562   4.307
   32CHL1    C3 3475   1.808   2.243   5.798
   32CHL1    H3 3476   1.806   2.149   5.737
   32CHL1    O3 3477   1.807   2.201   5.934
   32CHL1   H3' 3478   1.732   2.144   5.949
   32CHL1    C4 3479   1.937   2.319   5.763
   32CHL1   H4A 3480   1.936   2.404   5.834
   32CHL1   H4B 3481   2.020   2.247   5.780
   32CHL1    C5 3482   1.931   2.348   5.614
   32CHL1    C6 3483   2.019   2.298   5.525
   32CHL1    H6 3484   2.100   2.235   5.566
   32CHL1    C7 3485   2.014   2.319   5.373
   32CHL1   H7A 3486   2.118   2.339   5.338
   32CHL1   H7B 3487   1.982   2.225   5.322
   32CHL1    C8 3488   1.925   2.437   5.344
   32CHL1    H8 3489   1.984   2.525   5.377
   32CHL1   C14 3490   1.905   2.441   5.199
   32CHL1   H14 3491   1.866   2.342   5.166
   32CHL1   C15 3492   2.024   2.464   5.099
   32CHL1  H15A 3493   2.095   2.539   5.140
   32CHL1  H15B 3494   2.085   2.372   5.083
   32CHL1   C16 3495   1.966   2.515   4.973
   32CHL1  H16A 3496   1.997   2.621   4.957
   32CHL1  H16B 3497   1.994   2.467   4.877
   32CHL1   C17 3498   1.813   2.520   4.996
   32CHL1   H17 3499   1.774   2.421   4.967
   32CHL1   C13 3500   1.801   2.543   5.150
   32CHL1   C18 3501   1.848   2.689   5.188
   32CHL1  H18A 3502   1.828   2.716   5.294
   32CHL1  H18B 3503   1.955   2.709   5.169
   32CHL1  H18C 3504   1.788   2.758   5.125
   32CHL1   C12 3505   1.667   2.505   5.212
   32CHL1  H12A 3506   1.590   2.581   5.184
   32CHL1  H12B 3507   1.641   2.401   5.183
   32CHL1   C11 3508   1.674   2.507   5.365
   32CHL1  H11A 3509   1.689   2.611   5.403
   32CHL1  H11B 3510   1.572   2.478   5.399
   32CHL1    C9 3511   1.796   2.423   5.417
   32CHL1    H9 3512   1.765   2.318   5.403
   32CHL1   C10 3513   1.807   2.434   5.570
   32CHL1   C19 3514   1.838   2.584   5.614
   32CHL1  H19A 3515   1.880   2.571   5.716
   32CHL1  H19B 3516   1.911   2.645   5.557
   32CHL1  H19C 3517   1.741   2.637   5.625
   32CHL1    C1 3518   1.676   2.376   5.639
   32CHL1   H1A 3519   1.584   2.438   5.633
   32CHL1   H1B 3520   1.656   2.281   5.586
   32CHL1    C2 3521   1.690   2.338   5.781
   32CHL1   H2A 3522   1.597   2.284   5.812
   32CHL1   H2B 3523   1.697   2.427   5.847
   32CHL1   C20 3524   1.721   2.615   4.899
   32CHL1   H20 3525   1.697   2.710   4.952
   32CHL1   C21 3526   1.583   2.547   4.875
   32CHL1  H21A 3527   1.575   2.447   4.827
   32CHL1  H21B 3528   1.514   2.600   4.807
   32CHL1  H21C 3529   1.548   2.537   4.980
   32CHL1   C22 3530   1.792   2.644   4.760
   32CHL1  H22A 3531   1.875   2.709   4.795
   32CHL1  H22B 3532   1.844   2.551   4.725
   32CHL1   C23 3533   1.715   2.710   4.647
   32CHL1  H23A 3534   1.645   2.638   4.599
   32CHL1  H23B 3535   1.665   2.797   4.694
   32CHL1   C24 3536   1.818   2.750   4.540
   32CHL1  H24A 3537   1.876   2.831   4.590
   32CHL1  H24B 3538   1.897   2.673   4.527
   32CHL1   C25 3539   1.790   2.823   4.407
   32CHL1   H25 3540   1.744   2.919   4.439
   32CHL1   C26 3541   1.932   2.849   4.344
   32CHL1  H26A 3542   1.923   2.908   4.250
   32CHL1  H26B 3543   2.005   2.906   4.405
   32CHL1  H26C 3544   1.982   2.753   4.318
   32CHL1   C27 3545   1.692   2.753   4.306
   32CHL1  H27A 3546   1.688   2.807   4.210
   32CHL1  H27B 3547   1.715   2.647   4.283
   32CHL1  H27C 3548   1.586   2.756   4.340
   33CHL1    C3 3549   0.578   1.642   5.921
   33CHL1    H3 3550   0.678   1.679   5.890
   33CHL1    O3 3551   0.563   1.621   6.059
   33CHL1   H3' 3552   0.622   1.547   6.077
   33CHL1    C4 3553   0.466   1.737   5.867
   33CHL1   H4A 3554   0.366   1.705   5.902
   33CHL1   H4B 3555   0.491   1.833   5.917
   33CHL1    C5 3556   0.486   1.749   5.717
   33CHL1    C6 3557   0.500   1.872   5.663
   33CHL1    H6 3558   0.502   1.957   5.734
   33CHL1    C7 3559   0.498   1.897   5.514
   33CHL1   H7A 3560   0.438   1.987   5.489
   33CHL1   H7B 3561   0.604   1.919   5.488
   33CHL1    C8 3562   0.462   1.770   5.427
   33CHL1    H8 3563   0.351   1.774   5.422
   33CHL1   C14 3564   0.510   1.789   5.286
   33CHL1   H14 3565   0.620   1.797   5.282
   33CHL1   C15 3566   0.467   1.928   5.217
   33CHL1  H15A 3567   0.359   1.939   5.241
   33CHL1  H15B 3568   0.524   2.010   5.266
   33CHL1   C16 3569   0.483   1.895   5.067
   33CHL1  H16A 3570   0.384   1.917   5.021
   33CHL1  H16B 3571   0.555   1.961   5.014
   33CHL1   C17 3572   0.509   1.737   5.055
   33CHL1   H17 3573   0.620   1.732   5.054
   33CHL1   C13 3574   0.472   1.677   5.190
   33CHL1   C18 3575   0.317   1.658   5.199
   33CHL1  H18A 3576   0.295   1.578   5.125
   33CHL1  H18B 3577   0.279   1.636   5.301
   33CHL1  H18C 3578   0.262   1.750   5.169
   33CHL1   C12 3579   0.550   1.555   5.239
   33CHL1  H12A 3580   0.518   1.471   5.173
   33CHL1  H12B 3581   0.661   1.561   5.229
   33CHL1   C11 3582   0.517   1.517   5.388
   33CHL1  H11A 3583   0.420   1.464   5.398
   33CHL1  H11B 3584   0.582   1.432   5.418
   33CHL1    C9 3585   0.521   1.642   5.480
   33CHL1    H9 3586   0.630   1.661   5.484
   33CHL1   C10 3587   0.477   1.617   5.629
   33CHL1   C19 3588   0.334   1.561   5.635
   33CHL1  H19A 3589   0.309   1.545   5.742
   33CHL1  H19B 3590   0.260   1.628   5.586
   33CHL1  H19C 3591   0.329   1.460   5.590
   33CHL1    C1 3592   0.569   1.521   5.702
   33CHL1   H1A 3593   0.546   1.419   5.666
   33CHL1   H1B 3594   0.676   1.543   5.683
   33CHL1    C2 3595   0.555   1.510   5.855
   33CHL1   H2A 3596   0.632   1.444   5.900
   33CHL1   H2B 3597   0.454   1.469   5.877
   33CHL1   C20 3598   0.473   1.664   4.925
   33CHL1   H20 3599   0.411   1.576   4.952
   33CHL1   C21 3600   0.602   1.607   4.875
   33CHL1  H21A 3601   0.644   1.536   4.950
   33CHL1  H21B 3602   0.687   1.676   4.858
   33CHL1  H21C 3603   0.585   1.545   4.784
   33CHL1   C22 3604   0.405   1.752   4.816
   33CHL1  H22A 3605   0.322   1.805   4.867
   33CHL1  H22B 3606   0.465   1.840   4.784
   33CHL1   C23 3607   0.346   1.672   4.697
   33CHL1  H23A 3608   0.425   1.665   4.620
   33CHL1  H23B 3609   0.311   1.573   4.735
   33CHL1   C24 3610   0.222   1.746   4.633
   33CHL1  H24A 3611   0.147   1.774   4.710
   33CHL1  H24B 3612   0.258   1.843   4.592
   33CHL1   C25 3613   0.142   1.674   4.527
   33CHL1   H25 3614   0.118   1.580   4.582
   33CHL1   C26 3615   0.017   1.761   4.495
   33CHL1  H26A 3616   6.824   1.706   4.439
   33CHL1  H26B 3617   6.850   1.784   4.590
   33CHL1  H26C 3618   0.042   1.854   4.439
   33CHL1   C27 3619   0.235   1.623   4.409
   33CHL1  H27A 3620   0.311   1.554   4.452
   33CHL1  H27B 3621   0.184   1.545   4.349
   33CHL1  H27C 3622   0.272   1.701   4.338
   34CHL1    C3 3623   2.510   2.638   6.064
   34CHL1    H3 3624   2.609   2.678   6.033
   34CHL1    O3 3625   2.519   2.608   6.205
   34CHL1   H3' 3626   2.447   2.548   6.226
   34CHL1    C4 3627   2.420   2.755   6.042
   34CHL1   H4A 3628   2.316   2.730   6.072
   34CHL1   H4B 3629   2.457   2.840   6.103
   34CHL1    C5 3630   2.412   2.788   5.891
   34CHL1    C6 3631   2.447   2.909   5.841
   34CHL1    H6 3632   2.478   2.997   5.899
   34CHL1    C7 3633   2.433   2.940   5.700
   34CHL1   H7A 3634   2.395   3.043   5.684
   34CHL1   H7B 3635   2.538   2.939   5.663
   34CHL1    C8 3636   2.358   2.836   5.615
   34CHL1    H8 3637   2.250   2.847   5.637
   34CHL1   C14 3638   2.398   2.864   5.462
   34CHL1   H14 3639   2.507   2.851   5.447
   34CHL1   C15 3640   2.360   3.002   5.402
   34CHL1  H15A 3641   2.259   3.040   5.430
   34CHL1  H15B 3642   2.437   3.077   5.431
   34CHL1   C16 3643   2.352   2.974   5.252
   34CHL1  H16A 3644   2.247   3.001   5.226
   34CHL1  H16B 3645   2.415   3.038   5.186
   34CHL1   C17 3646   2.377   2.817   5.228
   34CHL1   H17 3647   2.486   2.796   5.229
   34CHL1   C13 3648   2.329   2.760   5.367
   34CHL1   C18 3649   2.169   2.764   5.368
   34CHL1  H18A 3650   2.132   2.692   5.292
   34CHL1  H18B 3651   2.132   2.729   5.467
   34CHL1  H18C 3652   2.129   2.866   5.350
   34CHL1   C12 3653   2.381   2.617   5.409
   34CHL1  H12A 3654   2.329   2.534   5.356
   34CHL1  H12B 3655   2.492   2.615   5.398
   34CHL1   C11 3656   2.344   2.582   5.551
   34CHL1  H11A 3657   2.236   2.559   5.565
   34CHL1  H11B 3658   2.394   2.489   5.587
   34CHL1    C9 3659   2.398   2.695   5.654
   34CHL1    H9 3660   2.507   2.685   5.636
   34CHL1   C10 3661   2.378   2.668   5.803
   34CHL1   C19 3662   2.229   2.631   5.840
   34CHL1  H19A 3663   2.161   2.716   5.818
   34CHL1  H19B 3664   2.190   2.543   5.785
   34CHL1  H19C 3665   2.220   2.593   5.944
   34CHL1    C1 3666   2.459   2.543   5.831
   34CHL1   H1A 3667   2.415   2.455   5.779
   34CHL1   H1B 3668   2.568   2.554   5.813
   34CHL1    C2 3669   2.465   2.515   5.982
   34CHL1   H2A 3670   2.538   2.437   6.011
   34CHL1   H2B 3671   2.367   2.477   6.021
   34CHL1   C20 3672   2.310   2.767   5.100
   34CHL1   H20 3673   2.202   2.773   5.125
   34CHL1   C21 3674   2.357   2.621   5.063
   34CHL1  H21A 3675   2.307   2.586   4.971
   34CHL1  H21B 3676   2.330   2.558   5.151
   34CHL1  H21C 3677   2.468   2.626   5.052
   34CHL1   C22 3678   2.339   2.869   4.981
   34CHL1  H22A 3679   2.274   2.955   5.008
   34CHL1  H22B 3680   2.444   2.904   4.986
   34CHL1   C23 3681   2.296   2.830   4.844
   34CHL1  H23A 3682   2.371   2.757   4.806
   34CHL1  H23B 3683   2.194   2.788   4.837
   34CHL1   C24 3684   2.300   2.956   4.755
   34CHL1  H24A 3685   2.228   3.030   4.796
   34CHL1  H24B 3686   2.399   3.006   4.757
   34CHL1   C25 3687   2.252   2.925   4.614
   34CHL1   H25 3688   2.144   2.904   4.627
   34CHL1   C26 3689   2.265   3.057   4.530
   34CHL1  H26A 3690   2.221   3.048   4.429
   34CHL1  H26B 3691   2.200   3.128   4.586
   34CHL1  H26C 3692   2.364   3.108   4.537
   34CHL1   C27 3693   2.331   2.814   4.556
   34CHL1  H27A 3694   2.440   2.838   4.559
   34CHL1  H27B 3695   2.318   2.717   4.609
   34CHL1  H27C 3696   2.312   2.791   4.449
   35CHL1    C3 3697   3.861   5.117   6.525
   35CHL1    H3 3698   3.951   5.177   6.551
   35CHL1    O3 3699   3.822   5.054   6.640
   35CHL1   H3' 3700   3.742   5.005   6.617
   35CHL1    C4 3701   3.754   5.212   6.480
   35CHL1   H4A 3702   3.663   5.152   6.458
   35CHL1   H4B 3703   3.733   5.273   6.571
   35CHL1    C5 3704   3.804   5.295   6.364
   35CHL1    C6 3705   3.804   5.433   6.360
   35CHL1    H6 3706   3.765   5.483   6.449
   35CHL1    C7 3707   3.841   5.512   6.246
   35CHL1   H7A 3708   3.777   5.603   6.242
   35CHL1   H7B 3709   3.945   5.552   6.256
   35CHL1    C8 3710   3.841   5.425   6.114
   35CHL1    H8 3711   3.738   5.400   6.083
   35CHL1   C14 3712   3.912   5.495   5.996
   35CHL1   H14 3713   4.021   5.506   6.014
   35CHL1   C15 3714   3.867   5.637   5.957
   35CHL1  H15A 3715   3.757   5.648   5.946
   35CHL1  H15B 3716   3.895   5.713   6.034
   35CHL1   C16 3717   3.928   5.663   5.816
   35CHL1  H16A 3718   3.854   5.706   5.746
   35CHL1  H16B 3719   4.019   5.725   5.822
   35CHL1   C17 3720   3.968   5.515   5.766
   35CHL1   H17 3721   4.077   5.499   5.779
   35CHL1   C13 3722   3.901   5.415   5.860
   35CHL1   C18 3723   3.753   5.391   5.825
   35CHL1  H18A 3724   3.750   5.331   5.731
   35CHL1  H18B 3725   3.706   5.332   5.906
   35CHL1  H18C 3726   3.692   5.483   5.818
   35CHL1   C12 3727   3.982   5.282   5.884
   35CHL1  H12A 3728   3.957   5.222   5.794
   35CHL1  H12B 3729   4.090   5.309   5.891
   35CHL1   C11 3730   3.938   5.198   6.003
   35CHL1  H11A 3731   3.840   5.156   5.970
   35CHL1  H11B 3732   4.025   5.134   6.027
   35CHL1    C9 3733   3.916   5.289   6.133
   35CHL1    H9 3734   4.020   5.315   6.162
   35CHL1   C10 3735   3.848   5.203   6.248
   35CHL1   C19 3736   3.713   5.144   6.192
   35CHL1  H19A 3737   3.657   5.082   6.265
   35CHL1  H19B 3738   3.644   5.204   6.129
   35CHL1  H19C 3739   3.748   5.063   6.124
   35CHL1    C1 3740   3.956   5.096   6.298
   35CHL1   H1A 3741   3.977   5.030   6.211
   35CHL1   H1B 3742   4.048   5.155   6.317
   35CHL1    C2 3743   3.907   5.016   6.414
   35CHL1   H2A 3744   3.987   4.946   6.445
   35CHL1   H2B 3745   3.820   4.949   6.398
   35CHL1   C20 3746   3.965   5.503   5.610
   35CHL1   H20 3747   3.863   5.507   5.566
   35CHL1   C21 3748   4.017   5.368   5.570
   35CHL1  H21A 3749   4.021   5.376   5.460
   35CHL1  H21B 3750   3.951   5.284   5.601
   35CHL1  H21C 3751   4.119   5.342   5.606
   35CHL1   C22 3752   4.054   5.615   5.540
   35CHL1  H22A 3753   4.033   5.711   5.591
   35CHL1  H22B 3754   4.161   5.595   5.561
   35CHL1   C23 3755   4.027   5.634   5.389
   35CHL1  H23A 3756   4.045   5.544   5.326
   35CHL1  H23B 3757   3.924   5.674   5.374
   35CHL1   C24 3758   4.118   5.745   5.344
   35CHL1  H24A 3759   4.095   5.841   5.396
   35CHL1  H24B 3760   4.219   5.705   5.367
   35CHL1   C25 3761   4.101   5.778   5.188
   35CHL1   H25 3762   3.994   5.800   5.169
   35CHL1   C26 3763   4.172   5.914   5.152
   35CHL1  H26A 3764   4.149   5.994   5.225
   35CHL1  H26B 3765   4.280   5.899   5.170
   35CHL1  H26C 3766   4.166   5.934   5.043
   35CHL1   C27 3767   4.150   5.661   5.112
   35CHL1  H27A 3768   4.075   5.582   5.131
   35CHL1  H27B 3769   4.137   5.674   5.003
   35CHL1  H27C 3770   4.249   5.629   5.152
   36CHL1    C3 3771   6.620   3.774   6.018
   36CHL1    H3 3772   6.520   3.732   5.991
   36CHL1    O3 3773   6.623   3.762   6.164
   36CHL1   H3' 3774   6.563   3.827   6.204
   36CHL1    C4 3775   6.708   3.682   5.938
   36CHL1   H4A 3776   6.809   3.706   5.977
   36CHL1   H4B 3777   6.683   3.577   5.966
   36CHL1    C5 3778   6.691   3.697   5.791
   36CHL1    C6 3779   6.635   3.604   5.708
   36CHL1    H6 3780   6.620   3.502   5.746
   36CHL1    C7 3781   6.630   3.607   5.554
   36CHL1   H7A 3782   6.674   3.513   5.515
   36CHL1   H7B 3783   6.529   3.626   5.514
   36CHL1    C8 3784   6.713   3.726   5.505
   36CHL1    H8 3785   6.822   3.703   5.513
   36CHL1   C14 3786   6.675   3.750   5.360
   36CHL1   H14 3787   6.567   3.775   5.352
   36CHL1   C15 3788   6.687   3.633   5.261
   36CHL1  H15A 3789   6.770   3.565   5.292
   36CHL1  H15B 3790   6.605   3.559   5.278
   36CHL1   C16 3791   6.688   3.704   5.122
   36CHL1  H16A 3792   6.773   3.649   5.076
   36CHL1  H16B 3793   6.602   3.670   5.061
   36CHL1   C17 3794   6.695   3.860   5.144
   36CHL1   H17 3795   6.590   3.897   5.139
   36CHL1   C13 3796   6.741   3.871   5.293
   36CHL1   C18 3797   0.010   3.848   5.297
   36CHL1  H18A 3798   0.048   3.839   5.401
   36CHL1  H18B 3799   0.056   3.766   5.238
   36CHL1  H18C 3800   0.054   3.945   5.267
   36CHL1   C12 3801   6.699   3.994   5.372
   36CHL1  H12A 3802   6.754   4.084   5.337
   36CHL1  H12B 3803   6.589   4.002   5.359
   36CHL1   C11 3804   6.732   3.979   5.522
   36CHL1  H11A 3805   6.843   3.983   5.522
   36CHL1  H11B 3806   6.713   4.073   5.578
   36CHL1    C9 3807   6.693   3.850   5.593
   36CHL1    H9 3808   6.582   3.856   5.597
   36CHL1   C10 3809   6.723   3.838   5.739
   36CHL1   C19 3810   6.862   3.882   5.776
   36CHL1  H19A 3811   6.878   3.990   5.760
   36CHL1  H19B 3812   6.882   3.864   5.884
   36CHL1  H19C 3813   0.052   3.827   5.717
   36CHL1    C1 3814   6.624   3.934   5.819
   36CHL1   H1A 3815   6.671   4.034   5.808
   36CHL1   H1B 3816   6.518   3.927   5.786
   36CHL1    C2 3817   6.626   3.918   5.972
   36CHL1   H2A 3818   6.541   3.981   6.006
   36CHL1   H2B 3819   6.715   3.956   6.026
   36CHL1   C20 3820   6.772   3.946   5.045
   36CHL1   H20 3821   6.880   3.936   5.069
   36CHL1   C21 3822   6.736   4.093   5.042
   36CHL1  H21A 3823   6.756   4.135   5.143
   36CHL1  H21B 3824   6.632   4.125   5.020
   36CHL1  H21C 3825   6.808   4.149   4.979
   36CHL1   C22 3826   6.750   3.896   4.896
   36CHL1  H22A 3827   6.821   3.951   4.831
   36CHL1  H22B 3828   6.767   3.787   4.884
   36CHL1   C23 3829   6.613   3.931   4.836
   36CHL1  H23A 3830   6.528   3.907   4.904
   36CHL1  H23B 3831   6.608   4.038   4.806
   36CHL1   C24 3832   6.584   3.848   4.706
   36CHL1  H24A 3833   6.609   3.742   4.725
   36CHL1  H24B 3834   6.477   3.851   4.678
   36CHL1   C25 3835   6.665   3.882   4.582
   36CHL1   H25 3836   6.770   3.878   4.617
   36CHL1   C26 3837   6.642   3.780   4.463
   36CHL1  H26A 3838   6.671   3.676   4.488
   36CHL1  H26B 3839   6.536   3.775   4.429
   36CHL1  H26C 3840   6.704   3.809   4.375
   36CHL1   C27 3841   6.635   4.021   4.534
   36CHL1  H27A 3842   6.527   4.021   4.512
   36CHL1  H27B 3843   6.637   4.099   4.614
   36CHL1  H27C 3844   6.702   4.049   4.450
   37CHL1    C3 3845   0.783   0.227   6.411
   37CHL1    H3 3846   0.853   0.301   6.366
   37CHL1    O3 3847   0.804   0.239   6.550
   37CHL1   H3' 3848   0.899   0.232   6.561
   37CHL1    C4 3849   0.629   0.248   6.378
   37CHL1   H4A 3850   0.571   0.177   6.441
   37CHL1   H4B 3851   0.601   0.352   6.406
   37CHL1    C5 3852   0.589   0.229   6.230
   37CHL1    C6 3853   0.509   0.314   6.165
   37CHL1    H6 3854   0.472   0.402   6.220
   37CHL1    C7 3855   0.477   0.295   6.018
   37CHL1   H7A 3856   0.373   0.320   5.990
   37CHL1   H7B 3857   0.543   0.360   5.957
   37CHL1    C8 3858   0.497   0.155   5.964
   37CHL1    H8 3859   0.414   0.091   6.003
   37CHL1   C14 3860   0.501   0.152   5.812
   37CHL1   H14 3861   0.593   0.209   5.785
   37CHL1   C15 3862   0.393   0.229   5.739
   37CHL1  H15A 3863   0.295   0.206   5.785
   37CHL1  H15B 3864   0.414   0.338   5.737
   37CHL1   C16 3865   0.397   0.172   5.591
   37CHL1  H16A 3866   0.295   0.132   5.572
   37CHL1  H16B 3867   0.426   0.251   5.519
   37CHL1   C17 3868   0.503   0.056   5.593
   37CHL1   H17 3869   0.595   0.111   5.564
   37CHL1   C13 3870   0.515   0.019   5.738
   37CHL1   C18 3871   0.392   6.820   5.789
   37CHL1  H18A 3872   0.303   6.882   5.764
   37CHL1  H18B 3873   0.382   6.722   5.737
   37CHL1  H18C 3874   0.394   6.811   5.899
   37CHL1   C12 3875   0.640   6.835   5.787
   37CHL1  H12A 3876   0.646   6.728   5.757
   37CHL1  H12B 3877   0.721   0.011   5.744
   37CHL1   C11 3878   0.658   6.842   5.947
   37CHL1  H11A 3879   0.597   6.762   5.995
   37CHL1  H11B 3880   0.762   6.812   5.971
   37CHL1    C9 3881   0.628   0.092   6.012
   37CHL1    H9 3882   0.716   0.153   5.980
   37CHL1   C10 3883   0.638   0.096   6.167
   37CHL1   C19 3884   0.549   6.870   6.230
   37CHL1  H19A 3885   0.441   6.881   6.204
   37CHL1  H19B 3886   0.585   6.772   6.193
   37CHL1  H19C 3887   0.560   6.878   6.340
   37CHL1    C1 3888   0.790   0.087   6.208
   37CHL1   H1A 3889   0.845   0.000   6.167
   37CHL1   H1B 3890   0.838   0.173   6.157
   37CHL1    C2 3891   0.828   0.098   6.359
   37CHL1   H2A 3892   0.939   0.091   6.357
   37CHL1   H2B 3893   0.793   0.006   6.412
   37CHL1   C20 3894   0.478   6.835   5.487
   37CHL1   H20 3895   0.389   6.777   5.518
   37CHL1   C21 3896   0.598   6.737   5.461
   37CHL1  H21A 3897   0.567   6.652   5.396
   37CHL1  H21B 3898   0.649   6.694   5.550
   37CHL1  H21C 3899   0.681   6.795   5.415
   37CHL1   C22 3900   0.444   0.006   5.349
   37CHL1  H22A 3901   0.377   0.093   5.368
   37CHL1  H22B 3902   0.533   0.058   5.309
   37CHL1   C23 3903   0.377   6.802   5.247
   37CHL1  H23A 3904   0.449   6.730   5.202
   37CHL1  H23B 3905   0.297   6.739   5.292
   37CHL1   C24 3906   0.292   6.878   5.140
   37CHL1  H24A 3907   0.209   0.042   5.194
   37CHL1  H24B 3908   0.358   0.061   5.083
   37CHL1   C25 3909   0.223   6.776   5.042
   37CHL1   H25 3910   0.171   6.693   5.095
   37CHL1   C26 3911   0.114   6.838   4.946
   37CHL1  H26A 3912   0.025   6.878   4.999
   37CHL1  H26B 3913   0.163   0.017   4.871
   37CHL1  H26C 3914   0.068   6.758   4.885
   37CHL1   C27 3915   0.332   6.712   4.958
   37CHL1  H27A 3916   0.291   6.690   4.858
   37CHL1  H27B 3917   0.419   6.779   4.938
   37CHL1  H27C 3918   0.372   6.623   5.012
   38CHL1    C3 3919   1.345   0.854   6.077
   38CHL1    H3 3920   1.433   0.807   6.028
   38CHL1    O3 3921   1.374   0.859   6.212
   38CHL1   H3' 3922   1.456   0.909   6.215
   38CHL1    C4 3923   1.300   0.992   6.026
   38CHL1   H4A 3924   1.210   1.030   6.080
   38CHL1   H4B 3925   1.371   1.071   6.059
   38CHL1    C5 3926   1.274   0.979   5.873
   38CHL1    C6 3927   1.347   1.054   5.785
   38CHL1    H6 3928   1.428   1.121   5.817
   38CHL1    C7 3929   1.321   1.055   5.638
   38CHL1   H7A 3930   1.309   1.158   5.597
   38CHL1   H7B 3931   1.411   1.012   5.590
   38CHL1    C8 3932   1.194   0.971   5.596
   38CHL1    H8 3933   1.110   1.041   5.614
   38CHL1   C14 3934   1.202   0.947   5.449
   38CHL1   H14 3935   1.290   0.886   5.422
   38CHL1   C15 3936   1.226   1.063   5.348
   38CHL1  H15A 3937   1.151   1.144   5.363
   38CHL1  H15B 3938   1.327   1.103   5.369
   38CHL1   C16 3939   1.202   0.990   5.212
   38CHL1  H16A 3940   1.147   1.061   5.146
   38CHL1  H16B 3941   1.305   0.973   5.174
   38CHL1   C17 3942   1.136   0.857   5.242
   38CHL1   H17 3943   1.216   0.781   5.252
   38CHL1   C13 3944   1.092   0.860   5.390
   38CHL1   C18 3945   0.955   0.946   5.391
   38CHL1  H18A 3946   0.939   0.980   5.496
   38CHL1  H18B 3947   0.965   1.030   5.318
   38CHL1  H18C 3948   0.865   0.884   5.378
   38CHL1   C12 3949   1.082   0.729   5.472
   38CHL1  H12A 3950   1.001   0.664   5.433
   38CHL1  H12B 3951   1.178   0.675   5.452
   38CHL1   C11 3952   1.061   0.749   5.624
   38CHL1  H11A 3953   0.960   0.790   5.644
   38CHL1  H11B 3954   1.068   0.650   5.674
   38CHL1    C9 3955   1.181   0.841   5.673
   38CHL1    H9 3956   1.270   0.776   5.658
   38CHL1   C10 3957   1.174   0.876   5.825
   38CHL1   C19 3958   1.034   0.932   5.858
   38CHL1  H19A 3959   1.012   0.942   5.966
   38CHL1  H19B 3960   1.028   1.040   5.834
   38CHL1  H19C 3961   0.955   0.882   5.798
   38CHL1    C1 3962   1.191   0.743   5.906
   38CHL1   H1A 3963   1.092   0.693   5.910
   38CHL1   H1B 3964   1.256   0.673   5.850
   38CHL1    C2 3965   1.227   0.759   6.056
   38CHL1   H2A 3966   1.249   0.656   6.093
   38CHL1   H2B 3967   1.139   0.784   6.119
   38CHL1   C20 3968   1.048   0.792   5.141
   38CHL1   H20 3969   0.947   0.837   5.155
   38CHL1   C21 3970   1.048   0.632   5.146
   38CHL1  H21A 3971   1.152   0.601   5.166
   38CHL1  H21B 3972   1.020   0.584   5.050
   38CHL1  H21C 3973   0.975   0.601   5.224
   38CHL1   C22 3974   1.091   0.825   4.989
   38CHL1  H22A 3975   1.025   0.790   4.908
   38CHL1  H22B 3976   1.073   0.934   4.983
   38CHL1   C23 3977   1.233   0.784   4.955
   38CHL1  H23A 3978   1.310   0.807   5.032
   38CHL1  H23B 3979   1.238   0.673   4.947
   38CHL1   C24 3980   1.271   0.848   4.818
   38CHL1  H24A 3981   1.205   0.806   4.740
   38CHL1  H24B 3982   1.242   0.956   4.815
   38CHL1   C25 3983   1.418   0.817   4.788
   38CHL1   H25 3984   1.444   0.711   4.809
   38CHL1   C26 3985   1.431   0.836   4.631
   38CHL1  H26A 3986   1.530   0.797   4.599
   38CHL1  H26B 3987   1.345   0.789   4.580
   38CHL1  H26C 3988   1.416   0.946   4.620
   38CHL1   C27 3989   1.512   0.904   4.868
   38CHL1  H27A 3990   1.472   1.008   4.874
   38CHL1  H27B 3991   1.532   0.863   4.969
   38CHL1  H27C 3992   1.603   0.911   4.805
   39CHL1    C3 3993   3.402   1.537   6.112
   39CHL1    H3 3994   3.394   1.427   6.108
   39CHL1    O3 3995   3.400   1.568   6.246
   39CHL1   H3' 3996   3.305   1.565   6.261
   39CHL1    C4 3997   3.533   1.581   6.058
   39CHL1   H4A 3998   3.573   1.679   6.093
   39CHL1   H4B 3999   3.610   1.507   6.090
   39CHL1    C5 4000   3.544   1.589   5.908
   39CHL1    C6 4001   3.637   1.518   5.843
   39CHL1    H6 4002   3.712   1.458   5.897
   39CHL1    C7 4003   3.641   1.527   5.692
   39CHL1   H7A 4004   3.748   1.528   5.661
   39CHL1   H7B 4005   3.613   1.425   5.658
   39CHL1    C8 4006   3.571   1.645   5.633
   39CHL1    H8 4007   3.635   1.734   5.652
   39CHL1   C14 4008   3.561   1.624   5.477
   39CHL1   H14 4009   3.495   1.537   5.453
   39CHL1   C15 4010   3.700   1.591   5.410
   39CHL1  H15A 4011   3.782   1.650   5.456
   39CHL1  H15B 4012   3.710   1.480   5.410
   39CHL1   C16 4013   3.674   1.636   5.264
   39CHL1  H16A 4014   3.752   1.709   5.235
   39CHL1  H16B 4015   3.681   1.546   5.199
   39CHL1   C17 4016   3.530   1.697   5.262
   39CHL1   H17 4017   3.462   1.609   5.252
   39CHL1   C13 4018   3.505   1.749   5.407
   39CHL1   C18 4019   3.593   1.879   5.423
   39CHL1  H18A 4020   3.546   1.963   5.367
   39CHL1  H18B 4021   3.595   1.918   5.527
   39CHL1  H18C 4022   3.698   1.859   5.392
   39CHL1   C12 4023   3.360   1.762   5.454
   39CHL1  H12A 4024   3.303   1.844   5.405
   39CHL1  H12B 4025   3.318   1.664   5.423
   39CHL1   C11 4026   3.353   1.772   5.610
   39CHL1  H11A 4027   3.408   1.865   5.637
   39CHL1  H11B 4028   3.249   1.776   5.649
   39CHL1    C9 4029   3.431   1.662   5.682
   39CHL1    H9 4030   3.383   1.565   5.657
   39CHL1   C10 4031   3.430   1.671   5.836
   39CHL1   C19 4032   3.468   1.813   5.875
   39CHL1  H19A 4033   3.466   1.836   5.984
   39CHL1  H19B 4034   3.563   1.850   5.831
   39CHL1  H19C 4035   3.393   1.885   5.836
   39CHL1    C1 4036   3.296   1.619   5.896
   39CHL1   H1A 4037   3.214   1.667   5.838
   39CHL1   H1B 4038   3.284   1.517   5.853
   39CHL1    C2 4039   3.277   1.608   6.047
   39CHL1   H2A 4040   3.184   1.560   6.082
   39CHL1   H2B 4041   3.275   1.710   6.091
   39CHL1   C20 4042   3.508   1.802   5.140
   39CHL1   H20 4043   3.536   1.904   5.170
   39CHL1   C21 4044   3.360   1.814   5.114
   39CHL1  H21A 4045   3.302   1.859   5.198
   39CHL1  H21B 4046   3.307   1.720   5.088
   39CHL1  H21C 4047   3.349   1.883   5.028
   39CHL1   C22 4048   3.590   1.781   5.010
   39CHL1  H22A 4049   3.697   1.770   5.036
   39CHL1  H22B 4050   3.551   1.686   4.966
   39CHL1   C23 4051   3.576   1.898   4.911
   39CHL1  H23A 4052   3.482   1.879   4.856
   39CHL1  H23B 4053   3.577   1.997   4.961
   39CHL1   C24 4054   3.685   1.896   4.805
   39CHL1  H24A 4055   3.788   1.916   4.840
   39CHL1  H24B 4056   3.683   1.793   4.764
   39CHL1   C25 4057   3.660   1.988   4.681
   39CHL1   H25 4058   3.557   1.962   4.648
   39CHL1   C26 4059   3.658   2.138   4.720
   39CHL1  H26A 4060   3.747   2.164   4.782
   39CHL1  H26B 4061   3.654   2.209   4.634
   39CHL1  H26C 4062   3.570   2.166   4.783
   39CHL1   C27 4063   3.753   1.961   4.563
   39CHL1  H27A 4064   3.731   2.039   4.486
   39CHL1  H27B 4065   3.852   1.968   4.612
   39CHL1  H27C 4066   3.729   1.865   4.513
   40CHL1    C3 4067   3.564   4.076   5.982
   40CHL1    H3 4068   3.601   3.983   5.933
   40CHL1    O3 4069   3.575   4.073   6.126
   40CHL1   H3' 4070   3.525   4.000   6.164
   40CHL1    C4 4071   3.646   4.189   5.931
   40CHL1   H4A 4072   3.616   4.285   5.977
   40CHL1   H4B 4073   3.753   4.175   5.959
   40CHL1    C5 4074   3.643   4.192   5.781
   40CHL1    C6 4075   3.754   4.184   5.700
   40CHL1    H6 4076   3.857   4.175   5.738
   40CHL1    C7 4077   3.752   4.180   5.550
   40CHL1   H7A 4078   3.826   4.251   5.508
   40CHL1   H7B 4079   3.777   4.081   5.508
   40CHL1    C8 4080   3.611   4.214   5.493
   40CHL1    H8 4081   3.591   4.324   5.494
   40CHL1   C14 4082   3.594   4.174   5.348
   40CHL1   H14 4083   3.610   4.064   5.344
   40CHL1   C15 4084   3.705   4.231   5.256
   40CHL1  H15A 4085   3.723   4.337   5.285
   40CHL1  H15B 4086   3.800   4.175   5.268
   40CHL1   C16 4087   3.642   4.228   5.112
   40CHL1  H16A 4088   3.659   4.331   5.074
   40CHL1  H16B 4089   3.698   4.160   5.043
   40CHL1   C17 4090   3.499   4.184   5.125
   40CHL1   H17 4091   3.505   4.074   5.112
   40CHL1   C13 4092   3.461   4.211   5.275
   40CHL1   C18 4093   3.449   4.368   5.284
   40CHL1  H18A 4094   3.347   4.391   5.246
   40CHL1  H18B 4095   3.445   4.405   5.389
   40CHL1  H18C 4096   3.529   4.427   5.235
   40CHL1   C12 4097   3.349   4.135   5.347
   40CHL1  H12A 4098   3.255   4.180   5.310
   40CHL1  H12B 4099   3.351   4.026   5.328
   40CHL1   C11 4100   3.364   4.161   5.502
   40CHL1  H11A 4101   3.332   4.267   5.513
   40CHL1  H11B 4102   3.298   4.088   5.553
   40CHL1    C9 4103   3.506   4.143   5.576
   40CHL1    H9 4104   3.531   4.035   5.585
   40CHL1   C10 4105   3.493   4.192   5.723
   40CHL1   C19 4106   3.453   4.342   5.741
   40CHL1  H19A 4107   3.508   4.409   5.671
   40CHL1  H19B 4108   3.347   4.347   5.706
   40CHL1  H19C 4109   3.458   4.385   5.843
   40CHL1    C1 4110   3.403   4.087   5.794
   40CHL1   H1A 4111   3.298   4.098   5.758
   40CHL1   H1B 4112   3.445   3.988   5.767
   40CHL1    C2 4113   3.412   4.093   5.945
   40CHL1   H2A 4114   3.366   4.002   5.989
   40CHL1   H2B 4115   3.375   4.186   5.992
   40CHL1   C20 4116   3.404   4.240   5.020
   40CHL1   H20 4117   3.392   4.350   5.021
   40CHL1   C21 4118   3.263   4.176   5.031
   40CHL1  H21A 4119   3.204   4.190   4.938
   40CHL1  H21B 4120   3.209   4.242   5.102
   40CHL1  H21C 4121   3.280   4.073   5.070
   40CHL1   C22 4122   3.459   4.211   4.878
   40CHL1  H22A 4123   3.556   4.265   4.872
   40CHL1  H22B 4124   3.483   4.103   4.867
   40CHL1   C23 4125   3.374   4.246   4.761
   40CHL1  H23A 4126   3.293   4.171   4.760
   40CHL1  H23B 4127   3.327   4.344   4.784
   40CHL1   C24 4128   3.445   4.243   4.625
   40CHL1  H24A 4129   3.520   4.325   4.619
   40CHL1  H24B 4130   3.485   4.141   4.604
   40CHL1   C25 4131   3.350   4.263   4.507
   40CHL1   H25 4132   3.251   4.275   4.556
   40CHL1   C26 4133   3.382   4.398   4.447
   40CHL1  H26A 4134   3.340   4.419   4.346
   40CHL1  H26B 4135   3.344   4.480   4.511
   40CHL1  H26C 4136   3.490   4.422   4.459
   40CHL1   C27 4137   3.358   4.150   4.397
   40CHL1  H27A 4138   3.276   4.179   4.329
   40CHL1  H27B 4139   3.457   4.146   4.346
   40CHL1  H27C 4140   3.322   4.059   4.451
   41CHL1    C3 4141   0.210   4.812   5.918
   41CHL1    H3 4142   0.217   4.703   5.899
   41CHL1    O3 4143   0.194   4.823   6.059
   41CHL1   H3' 4144   0.102   4.830   6.086
   41CHL1    C4 4145   0.320   4.894   5.857
   41CHL1   H4A 4146   0.303   4.996   5.898
   41CHL1   H4B 4147   0.416   4.878   5.911
   41CHL1    C5 4148   0.335   4.888   5.709
   41CHL1    C6 4149   0.449   4.860   5.648
   41CHL1    H6 4150   0.538   4.841   5.710
   41CHL1    C7 4151   0.477   4.844   5.502
   41CHL1   H7A 4152   0.565   4.906   5.474
   41CHL1   H7B 4153   0.485   4.737   5.473
   41CHL1    C8 4154   0.360   4.893   5.419
   41CHL1    H8 4155   0.375   5.002   5.403
   41CHL1   C14 4156   0.369   4.826   5.279
   41CHL1   H14 4157   0.348   4.718   5.297
   41CHL1   C15 4158   0.500   4.827   5.197
   41CHL1  H15A 4159   0.545   4.928   5.199
   41CHL1  H15B 4160   0.579   4.758   5.235
   41CHL1   C16 4161   0.461   4.790   5.057
   41CHL1  H16A 4162   0.498   4.873   4.993
   41CHL1  H16B 4163   0.511   4.695   5.026
   41CHL1   C17 4164   0.303   4.792   5.055
   41CHL1   H17 4165   0.273   4.688   5.083
   41CHL1   C13 4166   0.264   4.876   5.187
   41CHL1   C18 4167   0.276   5.033   5.161
   41CHL1  H18A 4168   0.199   5.059   5.086
   41CHL1  H18B 4169   0.260   5.090   5.255
   41CHL1  H18C 4170   0.375   5.060   5.118
   41CHL1   C12 4171   0.123   4.842   5.247
   41CHL1  H12A 4172   0.047   4.885   5.178
   41CHL1  H12B 4173   0.124   4.731   5.242
   41CHL1   C11 4174   0.105   4.906   5.389
   41CHL1  H11A 4175   0.103   5.017   5.384
   41CHL1  H11B 4176   0.014   4.868   5.440
   41CHL1    C9 4177   0.223   4.861   5.485
   41CHL1    H9 4178   0.215   4.751   5.489
   41CHL1   C10 4179   0.204   4.904   5.629
   41CHL1   C19 4180   0.178   5.059   5.634
   41CHL1  H19A 4181   0.166   5.071   5.743
   41CHL1  H19B 4182   0.267   5.119   5.604
   41CHL1  H19C 4183   0.086   5.094   5.581
   41CHL1    C1 4184   0.094   4.815   5.691
   41CHL1   H1A 4185   6.878   4.840   5.654
   41CHL1   H1B 4186   0.109   4.707   5.669
   41CHL1    C2 4187   0.072   4.831   5.841
   41CHL1   H2A 4188   0.003   4.750   5.872
   41CHL1   H2B 4189   0.021   4.919   5.885
   41CHL1   C20 4190   0.258   4.815   4.914
   41CHL1   H20 4191   0.296   4.919   4.902
   41CHL1   C21 4192   0.101   4.825   4.914
   41CHL1  H21A 4193   0.065   4.846   4.811
   41CHL1  H21B 4194   0.069   4.903   4.986
   41CHL1  H21C 4195   0.049   4.730   4.936
   41CHL1   C22 4196   0.303   4.714   4.807
   41CHL1  H22A 4197   0.414   4.720   4.807
   41CHL1  H22B 4198   0.258   4.619   4.843
   41CHL1   C23 4199   0.264   4.748   4.660
   41CHL1  H23A 4200   0.153   4.746   4.651
   41CHL1  H23B 4201   0.303   4.851   4.655
   41CHL1   C24 4202   0.343   4.658   4.567
   41CHL1  H24A 4203   0.452   4.672   4.586
   41CHL1  H24B 4204   0.310   4.556   4.597
   41CHL1   C25 4205   0.336   4.680   4.411
   41CHL1   H25 4206   0.235   4.658   4.371
   41CHL1   C26 4207   0.355   4.833   4.382
   41CHL1  H26A 4208   0.287   4.893   4.446
   41CHL1  H26B 4209   0.455   4.868   4.414
   41CHL1  H26C 4210   0.350   4.860   4.275
   41CHL1   C27 4211   0.442   4.591   4.339
   41CHL1  H27A 4212   0.450   4.613   4.230
   41CHL1  H27B 4213   0.542   4.607   4.385
   41CHL1  H27C 4214   0.419   4.484   4.357
   42CHL1    C3 4215   5.298   3.586   6.078
   42CHL1    H3 4216   5.191   3.615   6.069
   42CHL1    O3 4217   5.314   3.605   6.216
   42CHL1   H3' 4218   5.405   3.582   6.234
   42CHL1    C4 4219   5.321   3.439   6.044
   42CHL1   H4A 4220   5.424   3.399   6.052
   42CHL1   H4B 4221   5.266   3.369   6.110
   42CHL1    C5 4222   5.285   3.431   5.895
   42CHL1    C6 4223   5.203   3.331   5.847
   42CHL1    H6 4224   5.154   3.263   5.919
   42CHL1    C7 4225   5.189   3.300   5.699
   42CHL1   H7A 4226   5.203   3.190   5.694
   42CHL1   H7B 4227   5.083   3.320   5.670
   42CHL1    C8 4228   5.275   3.377   5.597
   42CHL1    H8 4229   5.376   3.333   5.584
   42CHL1   C14 4230   5.208   3.374   5.463
   42CHL1   H14 4231   5.108   3.418   5.483
   42CHL1   C15 4232   5.184   3.241   5.395
   42CHL1  H15A 4233   5.280   3.186   5.395
   42CHL1  H15B 4234   5.101   3.178   5.436
   42CHL1   C16 4235   5.165   3.279   5.248
   42CHL1  H16A 4236   5.245   3.231   5.188
   42CHL1  H16B 4237   5.068   3.243   5.208
   42CHL1   C17 4238   5.186   3.435   5.233
   42CHL1   H17 4239   5.087   3.478   5.256
   42CHL1   C13 4240   5.275   3.457   5.355
   42CHL1   C18 4241   5.416   3.394   5.314
   42CHL1  H18A 4242   5.479   3.390   5.405
   42CHL1  H18B 4243   5.404   3.289   5.278
   42CHL1  H18C 4244   5.463   3.460   5.238
   42CHL1   C12 4245   5.299   3.597   5.403
   42CHL1  H12A 4246   5.357   3.658   5.331
   42CHL1  H12B 4247   5.204   3.654   5.416
   42CHL1   C11 4248   5.365   3.605   5.540
   42CHL1  H11A 4249   5.472   3.578   5.521
   42CHL1  H11B 4250   5.355   3.708   5.579
   42CHL1    C9 4251   5.294   3.517   5.653
   42CHL1    H9 4252   5.195   3.568   5.659
   42CHL1   C10 4253   5.360   3.519   5.793
   42CHL1   C19 4254   5.504   3.465   5.785
   42CHL1  H19A 4255   5.505   3.356   5.763
   42CHL1  H19B 4256   5.551   3.514   5.697
   42CHL1  H19C 4257   5.574   3.494   5.866
   42CHL1    C1 4258   5.371   3.663   5.845
   42CHL1   H1A 4259   5.456   3.704   5.785
   42CHL1   H1B 4260   5.284   3.726   5.817
   42CHL1    C2 4261   5.395   3.672   5.999
   42CHL1   H2A 4262   5.372   3.778   6.025
   42CHL1   H2B 4263   5.502   3.646   6.019
   42CHL1   C20 4264   5.222   3.496   5.096
   42CHL1   H20 4265   5.323   3.465   5.062
   42CHL1   C21 4266   5.215   3.648   5.087
   42CHL1  H21A 4267   5.228   3.680   4.981
   42CHL1  H21B 4268   5.303   3.701   5.129
   42CHL1  H21C 4269   5.124   3.690   5.134
   42CHL1   C22 4270   5.137   3.427   4.980
   42CHL1  H22A 4271   5.156   3.480   4.884
   42CHL1  H22B 4272   5.177   3.323   4.971
   42CHL1   C23 4273   4.988   3.449   5.007
   42CHL1  H23A 4274   4.951   3.383   5.088
   42CHL1  H23B 4275   4.974   3.548   5.056
   42CHL1   C24 4276   4.901   3.447   4.878
   42CHL1  H24A 4277   4.946   3.522   4.809
   42CHL1  H24B 4278   4.909   3.348   4.827
   42CHL1   C25 4279   4.749   3.474   4.897
   42CHL1   H25 4280   4.727   3.568   4.952
   42CHL1   C26 4281   4.683   3.497   4.760
   42CHL1  H26A 4282   4.730   3.567   4.687
   42CHL1  H26B 4283   4.671   3.400   4.709
   42CHL1  H26C 4284   4.578   3.530   4.775
   42CHL1   C27 4285   4.676   3.369   4.980
   42CHL1  H27A 4286   4.566   3.384   4.977
   42CHL1  H27B 4287   4.694   3.276   4.923
   42CHL1  H27C 4288   4.711   3.351   5.084
   43CHL1    C3 4289   6.245   1.775   6.074
   43CHL1    H3 4290   6.264   1.875   6.029
   43CHL1    O3 4291   6.253   1.774   6.216
   43CHL1   H3' 4292   6.339   1.808   6.242
   43CHL1    C4 4293   6.100   1.751   6.026
   43CHL1   H4A 4294   6.065   1.656   6.072
   43CHL1   H4B 4295   6.038   1.831   6.073
   43CHL1    C5 4296   6.091   1.739   5.877
   43CHL1    C6 4297   6.005   1.816   5.819
   43CHL1    H6 4298   5.939   1.881   5.878
   43CHL1    C7 4299   5.984   1.808   5.670
   43CHL1   H7A 4300   5.874   1.797   5.665
   43CHL1   H7B 4301   6.022   1.904   5.626
   43CHL1    C8 4302   6.051   1.696   5.598
   43CHL1    H8 4303   5.978   1.613   5.610
   43CHL1   C14 4304   6.070   1.727   5.454
   43CHL1   H14 4305   6.142   1.811   5.460
   43CHL1   C15 4306   5.947   1.785   5.374
   43CHL1  H15A 4307   5.863   1.720   5.408
   43CHL1  H15B 4308   5.927   1.891   5.399
   43CHL1   C16 4309   5.985   1.766   5.225
   43CHL1  H16A 4310   5.909   1.708   5.169
   43CHL1  H16B 4311   6.000   1.863   5.173
   43CHL1   C17 4312   6.123   1.691   5.227
   43CHL1   H17 4313   6.197   1.773   5.234
   43CHL1   C13 4314   6.131   1.622   5.368
   43CHL1   C18 4315   6.037   1.499   5.369
   43CHL1  H18A 4316   6.022   1.458   5.471
   43CHL1  H18B 4317   5.940   1.518   5.318
   43CHL1  H18C 4318   6.087   1.412   5.322
   43CHL1   C12 4319   6.266   1.585   5.423
   43CHL1  H12A 4320   6.315   1.500   5.370
   43CHL1  H12B 4321   6.331   1.674   5.413
   43CHL1   C11 4322   6.259   1.545   5.567
   43CHL1  H11A 4323   6.209   1.447   5.578
   43CHL1  H11B 4324   6.365   1.543   5.601
   43CHL1    C9 4325   6.186   1.655   5.654
   43CHL1    H9 4326   6.250   1.744   5.636
   43CHL1   C10 4327   6.185   1.633   5.807
   43CHL1   C19 4328   6.122   1.493   5.844
   43CHL1  H19A 4329   6.011   1.494   5.837
   43CHL1  H19B 4330   6.154   1.396   5.799
   43CHL1  H19C 4331   6.149   1.473   5.950
   43CHL1    C1 4332   6.330   1.661   5.865
   43CHL1   H1A 4333   6.383   1.566   5.844
   43CHL1   H1B 4334   6.368   1.745   5.803
   43CHL1    C2 4335   6.332   1.672   6.014
   43CHL1   H2A 4336   6.436   1.689   6.049
   43CHL1   H2B 4337   6.292   1.582   6.064
   43CHL1   C20 4338   6.155   1.621   5.096
   43CHL1   H20 4339   6.068   1.554   5.078
   43CHL1   C21 4340   6.266   1.517   5.098
   43CHL1  H21A 4341   6.257   1.454   5.007
   43CHL1  H21B 4342   6.253   1.459   5.192
   43CHL1  H21C 4343   6.367   1.562   5.086
   43CHL1   C22 4344   6.169   1.720   4.979
   43CHL1  H22A 4345   6.092   1.798   4.966
   43CHL1  H22B 4346   6.270   1.765   4.986
   43CHL1   C23 4347   6.170   1.656   4.841
   43CHL1  H23A 4348   6.265   1.602   4.822
   43CHL1  H23B 4349   6.100   1.571   4.827
   43CHL1   C24 4350   6.136   1.761   4.737
   43CHL1  H24A 4351   6.034   1.801   4.752
   43CHL1  H24B 4352   6.214   1.839   4.748
   43CHL1   C25 4353   6.148   1.718   4.591
   43CHL1   H25 4354   6.252   1.680   4.581
   43CHL1   C26 4355   6.060   1.592   4.553
   43CHL1  H26A 4356   6.065   1.562   4.446
   43CHL1  H26B 4357   6.079   1.502   4.615
   43CHL1  H26C 4358   5.952   1.608   4.572
   43CHL1   C27 4359   6.119   1.826   4.491
   43CHL1  H27A 4360   6.172   1.798   4.398
   43CHL1  H27B 4361   6.010   1.841   4.474
   43CHL1  H27C 4362   6.169   1.921   4.520
   44CHL1    C3 4363   6.740   3.099   6.056
   44CHL1    H3 4364   6.637   3.081   6.019
   44CHL1    O3 4365   6.749   3.104   6.200
   44CHL1   H3' 4366   6.823   3.164   6.213
   44CHL1    C4 4367   6.829   2.989   5.994
   44CHL1   H4A 4368   0.046   3.003   6.033
   44CHL1   H4B 4369   6.786   2.896   6.037
   44CHL1    C5 4370   6.828   2.983   5.840
   44CHL1    C6 4371   6.786   2.870   5.774
   44CHL1    H6 4372   6.760   2.786   5.841
   44CHL1    C7 4373   6.779   2.862   5.622
   44CHL1   H7A 4374   6.803   2.765   5.575
   44CHL1   H7B 4375   6.673   2.874   5.593
   44CHL1    C8 4376   6.860   2.976   5.557
   44CHL1    H8 4377   0.082   2.956   5.561
   44CHL1   C14 4378   6.816   2.975   5.406
   44CHL1   H14 4379   6.709   3.004   5.413
   44CHL1   C15 4380   6.831   2.851   5.319
   44CHL1  H15A 4381   0.048   2.814   5.336
   44CHL1  H15B 4382   6.760   2.771   5.348
   44CHL1   C16 4383   6.813   2.905   5.176
   44CHL1  H16A 4384   0.015   2.874   5.117
   44CHL1  H16B 4385   6.718   2.876   5.126
   44CHL1   C17 4386   6.813   3.064   5.191
   44CHL1   H17 4387   6.708   3.098   5.200
   44CHL1   C13 4388   6.883   3.092   5.328
   44CHL1   C18 4389   0.149   3.068   5.317
   44CHL1  H18A 4390   0.176   2.981   5.252
   44CHL1  H18B 4391   0.200   3.149   5.261
   44CHL1  H18C 4392   0.204   3.066   5.413
   44CHL1   C12 4393   6.868   3.226   5.396
   44CHL1  H12A 4394   0.043   3.305   5.347
   44CHL1  H12B 4395   6.761   3.253   5.379
   44CHL1   C11 4396   0.017   3.226   5.549
   44CHL1  H11A 4397   0.128   3.218   5.555
   44CHL1  H11B 4398   6.876   3.329   5.578
   44CHL1    C9 4399   6.839   3.109   5.628
   44CHL1    H9 4400   6.731   3.132   5.616
   44CHL1   C10 4401   6.876   3.110   5.775
   44CHL1   C19 4402   0.141   3.122   5.793
   44CHL1  H19A 4403   0.177   3.220   5.756
   44CHL1  H19B 4404   0.171   3.114   5.899
   44CHL1  H19C 4405   0.202   3.051   5.733
   44CHL1    C1 4406   6.801   3.227   5.853
   44CHL1   H1A 4407   6.844   3.320   5.809
   44CHL1   H1B 4408   6.697   3.236   5.814
   44CHL1    C2 4409   6.790   3.235   6.004
   44CHL1   H2A 4410   6.728   3.314   6.051
   44CHL1   H2B 4411   0.007   3.256   6.038
   44CHL1   C20 4412   6.867   3.137   5.069
   44CHL1   H20 4413   0.091   3.121   5.070
   44CHL1   C21 4414   6.838   3.287   5.072
   44CHL1  H21A 4415   6.839   3.327   4.968
   44CHL1  H21B 4416   0.033   3.331   5.133
   44CHL1  H21C 4417   6.741   3.310   5.121
   44CHL1   C22 4418   6.824   3.078   4.934
   44CHL1  H22A 4419   6.877   3.130   4.852
   44CHL1  H22B 4420   6.860   2.976   4.906
   44CHL1   C23 4421   6.671   3.077   4.903
   44CHL1  H23A 4422   6.618   3.010   4.973
   44CHL1  H23B 4423   6.634   3.181   4.910
   44CHL1   C24 4424   6.638   3.028   4.759
   44CHL1  H24A 4425   6.678   3.105   4.689
   44CHL1  H24B 4426   6.678   2.928   4.735
   44CHL1   C25 4427   6.486   3.027   4.724
   44CHL1   H25 4428   6.438   2.995   4.819
   44CHL1   C26 4429   6.425   3.163   4.667
   44CHL1  H26A 4430   6.478   3.208   4.580
   44CHL1  H26B 4431   6.321   3.153   4.629
   44CHL1  H26C 4432   6.436   3.247   4.740
   44CHL1   C27 4433   6.462   2.921   4.620
   44CHL1  H27A 4434   6.494   2.944   4.516
   44CHL1  H27B 4435   6.497   2.821   4.655
   44CHL1  H27C 4436   6.351   2.914   4.607
   45CHL1    C3 4437   6.197   4.358   5.866
   45CHL1    H3 4438   6.133   4.448   5.860
   45CHL1    O3 4439   6.221   4.328   6.006
   45CHL1   H3' 4440   6.205   4.409   6.054
   45CHL1    C4 4441   6.145   4.237   5.807
   45CHL1   H4A 4442   6.217   4.155   5.830
   45CHL1   H4B 4443   6.049   4.223   5.862
   45CHL1    C5 4444   6.125   4.234   5.659
   45CHL1    C6 4445   6.004   4.210   5.601
   45CHL1    H6 4446   5.917   4.193   5.665
   45CHL1    C7 4447   5.995   4.182   5.450
   45CHL1   H7A 4448   5.947   4.084   5.429
   45CHL1   H7B 4449   5.928   4.259   5.404
   45CHL1    C8 4450   6.132   4.197   5.373
   45CHL1    H8 4451   6.174   4.095   5.388
   45CHL1   C14 4452   6.113   4.221   5.228
   45CHL1   H14 4453   6.061   4.319   5.229
   45CHL1   C15 4454   6.009   4.134   5.156
   45CHL1  H15A 4455   6.023   4.027   5.183
   45CHL1  H15B 4456   5.904   4.158   5.183
   45CHL1   C16 4457   6.042   4.150   5.010
   45CHL1  H16A 4458   6.075   4.053   4.968
   45CHL1  H16B 4459   5.951   4.181   4.954
   45CHL1   C17 4460   6.166   4.249   5.007
   45CHL1   H17 4461   6.123   4.351   5.005
   45CHL1   C13 4462   6.235   4.226   5.144
   45CHL1   C18 4463   6.313   4.093   5.134
   45CHL1  H18A 4464   6.244   4.013   5.100
   45CHL1  H18B 4465   6.407   4.095   5.075
   45CHL1  H18C 4466   6.352   4.053   5.230
   45CHL1   C12 4467   6.328   4.339   5.202
   45CHL1  H12A 4468   6.422   4.351   5.144
   45CHL1  H12B 4469   6.280   4.437   5.185
   45CHL1   C11 4470   6.355   4.326   5.349
   45CHL1  H11A 4471   6.429   4.243   5.356
   45CHL1  H11B 4472   6.402   4.418   5.392
   45CHL1    C9 4473   6.227   4.295   5.432
   45CHL1    H9 4474   6.177   4.394   5.430
   45CHL1   C10 4475   6.257   4.264   5.582
   45CHL1   C19 4476   6.349   4.139   5.595
   45CHL1  H19A 4477   6.386   4.137   5.699
   45CHL1  H19B 4478   6.295   4.047   5.564
   45CHL1  H19C 4479   6.438   4.144   5.528
   45CHL1    C1 4480   6.311   4.393   5.645
   45CHL1   H1A 4481   6.408   4.427   5.602
   45CHL1   H1B 4482   6.245   4.477   5.613
   45CHL1    C2 4483   6.322   4.395   5.798
   45CHL1   H2A 4484   6.355   4.494   5.837
   45CHL1   H2B 4485   6.389   4.314   5.833
   45CHL1   C20 4486   6.251   4.228   4.884
   45CHL1   H20 4487   6.307   4.132   4.882
   45CHL1   C21 4488   6.350   4.346   4.871
   45CHL1  H21A 4489   6.437   4.315   4.932
   45CHL1  H21B 4490   6.313   4.444   4.907
   45CHL1  H21C 4491   6.385   4.356   4.766
   45CHL1   C22 4492   6.167   4.225   4.753
   45CHL1  H22A 4493   6.080   4.156   4.760
   45CHL1  H22B 4494   6.118   4.324   4.747
   45CHL1   C23 4495   6.244   4.182   4.633
   45CHL1  H23A 4496   6.312   4.265   4.603
   45CHL1  H23B 4497   6.305   4.095   4.668
   45CHL1   C24 4498   6.157   4.148   4.508
   45CHL1  H24A 4499   6.083   4.069   4.534
   45CHL1  H24B 4500   6.102   4.238   4.474
   45CHL1   C25 4501   6.239   4.104   4.386
   45CHL1   H25 4502   6.301   4.014   4.407
   45CHL1   C26 4503   6.143   4.062   4.267
   45CHL1  H26A 4504   6.072   3.984   4.300
   45CHL1  H26B 4505   6.085   4.151   4.231
   45CHL1  H26C 4506   6.198   4.020   4.180
   45CHL1   C27 4507   6.331   4.210   4.326
   45CHL1  H27A 4508   6.398   4.251   4.404
   45CHL1  H27B 4509   6.389   4.164   4.242
   45CHL1  H27C 4510   6.272   4.296   4.287
   46CHL1    C3 4511   2.028   5.639   5.759
   46CHL1    H3 4512   2.107   5.581   5.708
   46CHL1    O3 4513   2.018   5.574   5.885
   46CHL1   H3' 4514   1.963   5.497   5.871
   46CHL1    C4 4515   2.083   5.781   5.781
   46CHL1   H4A 4516   2.009   5.841   5.838
   46CHL1   H4B 4517   2.174   5.770   5.844
   46CHL1    C5 4518   2.103   5.851   5.646
   46CHL1    C6 4519   2.221   5.907   5.611
   46CHL1    H6 4520   2.303   5.916   5.684
   46CHL1    C7 4521   2.248   5.975   5.483
   46CHL1   H7A 4522   2.318   6.060   5.493
   46CHL1   H7B 4523   2.296   5.895   5.422
   46CHL1    C8 4524   2.109   6.016   5.419
   46CHL1    H8 4525   2.063   6.096   5.480
   46CHL1   C14 4526   2.135   6.068   5.281
   46CHL1   H14 4527   2.168   5.982   5.219
   46CHL1   C15 4528   2.237   6.184   5.278
   46CHL1  H15A 4529   2.217   6.251   5.364
   46CHL1  H15B 4530   2.338   6.139   5.290
   46CHL1   C16 4531   2.215   6.238   5.133
   46CHL1  H16A 4532   2.193   6.347   5.143
   46CHL1  H16B 4533   2.311   6.235   5.079
   46CHL1   C17 4534   2.087   6.164   5.072
   46CHL1   H17 4535   2.118   6.071   5.019
   46CHL1   C13 4536   2.018   6.117   5.194
   46CHL1   C18 4537   1.944   6.231   5.264
   46CHL1  H18A 4538   1.852   6.255   5.205
   46CHL1  H18B 4539   1.921   6.194   5.366
   46CHL1  H18C 4540   2.003   6.325   5.264
   46CHL1   C12 4541   1.919   5.994   5.176
   46CHL1  H12A 4542   1.817   6.008   5.134
   46CHL1  H12B 4543   1.977   5.919   5.119
   46CHL1   C11 4544   1.893   5.930   5.316
   46CHL1  H11A 4545   1.827   6.003   5.368
   46CHL1  H11B 4546   1.845   5.832   5.301
   46CHL1    C9 4547   2.016   5.897   5.409
   46CHL1    H9 4548   2.065   5.814   5.354
   46CHL1   C10 4549   1.977   5.848   5.548
   46CHL1   C19 4550   1.878   5.943   5.622
   46CHL1  H19A 4551   1.929   6.036   5.653
   46CHL1  H19B 4552   1.794   5.965   5.553
   46CHL1  H19C 4553   1.830   5.897   5.711
   46CHL1    C1 4554   1.915   5.706   5.541
   46CHL1   H1A 4555   1.810   5.714   5.505
   46CHL1   H1B 4556   1.984   5.648   5.476
   46CHL1    C2 4557   1.897   5.640   5.677
   46CHL1   H2A 4558   1.861   5.536   5.658
   46CHL1   H2B 4559   1.822   5.690   5.741
   46CHL1   C20 4560   2.021   6.241   4.958
   46CHL1   H20 4561   1.982   6.338   4.997
   46CHL1   C21 4562   1.902   6.165   4.900
   46CHL1  H21A 4563   1.859   6.208   4.807
   46CHL1  H21B 4564   1.818   6.154   4.971
   46CHL1  H21C 4565   1.937   6.066   4.865
   46CHL1   C22 4566   2.129   6.288   4.853
   46CHL1  H22A 4567   2.214   6.343   4.899
   46CHL1  H22B 4568   2.169   6.196   4.804
   46CHL1   C23 4569   2.056   6.373   4.747
   46CHL1  H23A 4570   1.989   6.325   4.672
   46CHL1  H23B 4571   1.989   6.445   4.799
   46CHL1   C24 4572   2.153   6.452   4.657
   46CHL1  H24A 4573   2.189   6.538   4.718
   46CHL1  H24B 4574   2.234   6.384   4.623
   46CHL1   C25 4575   2.083   6.507   4.525
   46CHL1   H25 4576   1.995   6.442   4.505
   46CHL1   C26 4577   2.015   6.644   4.530
   46CHL1  H26A 4578   1.948   6.640   4.618
   46CHL1  H26B 4579   2.081   6.730   4.552
   46CHL1  H26C 4580   1.954   6.669   4.441
   46CHL1   C27 4581   2.170   6.495   4.401
   46CHL1  H27A 4582   2.114   6.526   4.310
   46CHL1  H27B 4583   2.263   6.555   4.406
   46CHL1  H27C 4584   2.198   6.388   4.393
   47CHL1    C3 4585   3.594   4.699   6.127
   47CHL1    H3 4586   3.566   4.592   6.129
   47CHL1    O3 4587   3.610   4.744   6.264
   47CHL1   H3' 4588   3.690   4.701   6.292
   47CHL1    C4 4589   3.727   4.725   6.043
   47CHL1   H4A 4590   3.763   4.827   6.065
   47CHL1   H4B 4591   3.809   4.665   6.088
   47CHL1    C5 4592   3.707   4.701   5.896
   47CHL1    C6 4593   3.785   4.620   5.821
   47CHL1    H6 4594   3.873   4.577   5.872
   47CHL1    C7 4595   3.770   4.595   5.671
   47CHL1   H7A 4596   3.861   4.592   5.607
   47CHL1   H7B 4597   3.728   4.495   5.648
   47CHL1    C8 4598   3.672   4.705   5.606
   47CHL1    H8 4599   3.732   4.799   5.602
   47CHL1   C14 4600   3.638   4.670   5.465
   47CHL1   H14 4601   3.580   4.577   5.479
   47CHL1   C15 4602   3.754   4.627   5.378
   47CHL1  H15A 4603   3.836   4.700   5.394
   47CHL1  H15B 4604   3.792   4.523   5.392
   47CHL1   C16 4605   3.701   4.642   5.239
   47CHL1  H16A 4606   3.770   4.706   5.181
   47CHL1  H16B 4607   3.700   4.542   5.190
   47CHL1   C17 4608   3.561   4.717   5.241
   47CHL1   H17 4609   3.485   4.637   5.235
   47CHL1   C13 4610   3.556   4.774   5.388
   47CHL1   C18 4611   3.621   4.916   5.381
   47CHL1  H18A 4612   3.627   4.951   5.486
   47CHL1  H18B 4613   3.722   4.909   5.336
   47CHL1  H18C 4614   3.548   4.983   5.329
   47CHL1   C12 4615   3.426   4.774   5.469
   47CHL1  H12A 4616   3.343   4.834   5.424
   47CHL1  H12B 4617   3.390   4.670   5.456
   47CHL1   C11 4618   3.431   4.802   5.618
   47CHL1  H11A 4619   3.419   4.909   5.645
   47CHL1  H11B 4620   3.334   4.770   5.662
   47CHL1    C9 4621   3.549   4.723   5.690
   47CHL1    H9 4622   3.516   4.618   5.695
   47CHL1   C10 4623   3.583   4.773   5.838
   47CHL1   C19 4624   3.623   4.921   5.836
   47CHL1  H19A 4625   3.703   4.953   5.765
   47CHL1  H19B 4626   3.541   4.986   5.800
   47CHL1  H19C 4627   3.646   4.957   5.939
   47CHL1    C1 4628   3.449   4.764   5.924
   47CHL1   H1A 4629   3.369   4.831   5.885
   47CHL1   H1B 4630   3.416   4.660   5.900
   47CHL1    C2 4631   3.470   4.773   6.072
   47CHL1   H2A 4632   3.376   4.742   6.121
   47CHL1   H2B 4633   3.497   4.878   6.100
   47CHL1   C20 4634   3.520   4.802   5.120
   47CHL1   H20 4635   3.590   4.888   5.111
   47CHL1   C21 4636   3.376   4.862   5.136
   47CHL1  H21A 4637   3.380   4.924   5.228
   47CHL1  H21B 4638   3.314   4.771   5.149
   47CHL1  H21C 4639   3.347   4.914   5.042
   47CHL1   C22 4640   3.549   4.725   4.985
   47CHL1  H22A 4641   3.649   4.677   4.980
   47CHL1  H22B 4642   3.465   4.656   4.960
   47CHL1   C23 4643   3.569   4.817   4.868
   47CHL1  H23A 4644   3.489   4.894   4.862
   47CHL1  H23B 4645   3.669   4.865   4.876
   47CHL1   C24 4646   3.555   4.738   4.738
   47CHL1  H24A 4647   3.620   4.648   4.741
   47CHL1  H24B 4648   3.452   4.696   4.738
   47CHL1   C25 4649   3.603   4.809   4.610
   47CHL1   H25 4650   3.712   4.787   4.604
   47CHL1   C26 4651   3.545   4.745   4.484
   47CHL1  H26A 4652   3.559   4.638   4.458
   47CHL1  H26B 4653   3.435   4.758   4.491
   47CHL1  H26C 4654   3.572   4.805   4.394
   47CHL1   C27 4655   3.594   4.963   4.619
   47CHL1  H27A 4656   3.621   5.004   4.519
   47CHL1  H27B 4657   3.494   4.999   4.650
   47CHL1  H27C 4658   3.674   4.995   4.689
   48CHL1    C3 4659   0.920   5.822   5.956
   48CHL1    H3 4660   0.817   5.856   5.980
   48CHL1    O3 4661   0.983   5.806   6.080
   48CHL1   H3' 4662   1.036   5.884   6.098
   48CHL1    C4 4663   0.922   5.694   5.881
   48CHL1   H4A 4664   1.031   5.672   5.881
   48CHL1   H4B 4665   0.862   5.622   5.939
   48CHL1    C5 4666   0.870   5.705   5.738
   48CHL1    C6 4667   0.762   5.628   5.697
   48CHL1    H6 4668   0.703   5.563   5.764
   48CHL1    C7 4669   0.694   5.636   5.563
   48CHL1   H7A 4670   0.665   5.533   5.533
   48CHL1   H7B 4671   0.604   5.698   5.583
   48CHL1    C8 4672   0.786   5.708   5.458
   48CHL1    H8 4673   0.862   5.637   5.418
   48CHL1   C14 4674   0.700   5.763   5.341
   48CHL1   H14 4675   0.630   5.839   5.382
   48CHL1   C15 4676   0.612   5.665   5.273
   48CHL1  H15A 4677   0.667   5.569   5.259
   48CHL1  H15B 4678   0.520   5.631   5.325
   48CHL1   C16 4679   0.578   5.733   5.140
   48CHL1  H16A 4680   0.580   5.661   5.056
   48CHL1  H16B 4681   0.472   5.764   5.151
   48CHL1   C17 4682   0.667   5.855   5.123
   48CHL1   H17 4683   0.612   5.945   5.159
   48CHL1   C13 4684   0.780   5.835   5.224
   48CHL1   C18 4685   0.884   5.734   5.163
   48CHL1  H18A 4686   0.933   5.668   5.237
   48CHL1  H18B 4687   0.831   5.671   5.089
   48CHL1  H18C 4688   0.966   5.792   5.115
   48CHL1   C12 4689   0.842   5.960   5.290
   48CHL1  H12A 4690   0.906   6.016   5.218
   48CHL1  H12B 4691   0.760   6.030   5.314
   48CHL1   C11 4692   0.923   5.926   5.414
   48CHL1  H11A 4693   1.014   5.875   5.376
   48CHL1  H11B 4694   0.953   6.019   5.467
   48CHL1    C9 4695   0.859   5.831   5.516
   48CHL1    H9 4696   0.778   5.903   5.541
   48CHL1   C10 4697   0.936   5.807   5.641
   48CHL1   C19 4698   1.069   5.752   5.596
   48CHL1  H19A 4699   1.054   5.669   5.524
   48CHL1  H19B 4700   1.130   5.837   5.559
   48CHL1  H19C 4701   1.124   5.708   5.682
   48CHL1    C1 4702   0.944   5.941   5.723
   48CHL1   H1A 4703   1.016   6.001   5.663
   48CHL1   H1B 4704   0.841   5.983   5.732
   48CHL1    C2 4705   0.999   5.926   5.872
   48CHL1   H2A 4706   0.982   6.027   5.915
   48CHL1   H2B 4707   1.108   5.906   5.879
   48CHL1   C20 4708   0.703   5.879   4.975
   48CHL1   H20 4709   0.760   5.789   4.943
   48CHL1   C21 4710   0.788   6.008   4.959
   48CHL1  H21A 4711   0.732   6.089   5.011
   48CHL1  H21B 4712   0.886   5.998   5.010
   48CHL1  H21C 4713   0.808   6.049   4.858
   48CHL1   C22 4714   0.583   5.888   4.875
   48CHL1  H22A 4715   0.492   5.858   4.932
   48CHL1  H22B 4716   0.561   5.992   4.844
   48CHL1   C23 4717   0.604   5.812   4.746
   48CHL1  H23A 4718   0.708   5.821   4.709
   48CHL1  H23B 4719   0.585   5.706   4.771
   48CHL1   C24 4720   0.508   5.842   4.631
   48CHL1  H24A 4721   0.401   5.836   4.659
   48CHL1  H24B 4722   0.529   5.947   4.600
   48CHL1   C25 4723   0.527   5.741   4.511
   48CHL1   H25 4724   0.637   5.737   4.493
   48CHL1   C26 4725   0.473   5.595   4.536
   48CHL1  H26A 4726   0.502   5.560   4.637
   48CHL1  H26B 4727   0.363   5.601   4.522
   48CHL1  H26C 4728   0.517   5.523   4.464
   48CHL1   C27 4729   0.470   5.796   4.384
   48CHL1  H27A 4730   0.489   5.722   4.303
   48CHL1  H27B 4731   0.359   5.810   4.385
   48CHL1  H27C 4732   0.517   5.887   4.341
   49CHL1    C3 4733   4.075   4.135   2.688
   49CHL1    H3 4734   3.981   4.138   2.747
   49CHL1    O3 4735   4.032   4.092   2.560
   49CHL1   H3' 4736   4.110   4.094   2.504
   49CHL1    C4 4737   4.149   4.272   2.683
   49CHL1   H4A 4738   4.232   4.256   2.612
   49CHL1   H4B 4739   4.078   4.349   2.644
   49CHL1    C5 4740   4.198   4.325   2.824
   49CHL1    C6 4741   4.183   4.452   2.860
   49CHL1    H6 4742   4.139   4.525   2.790
   49CHL1    C7 4743   4.225   4.505   2.995
   49CHL1   H7A 4744   4.274   4.605   2.993
   49CHL1   H7B 4745   4.131   4.512   3.054
   49CHL1    C8 4746   4.325   4.410   3.065
   49CHL1    H8 4747   4.422   4.446   3.025
   49CHL1   C14 4748   4.318   4.436   3.218
   49CHL1   H14 4749   4.223   4.382   3.237
   49CHL1   C15 4750   4.321   4.582   3.264
   49CHL1  H15A 4751   4.391   4.628   3.191
   49CHL1  H15B 4752   4.219   4.624   3.251
   49CHL1   C16 4753   4.364   4.576   3.411
   49CHL1  H16A 4754   4.459   4.633   3.414
   49CHL1  H16B 4755   4.287   4.623   3.476
   49CHL1   C17 4756   4.404   4.428   3.437
   49CHL1   H17 4757   4.311   4.381   3.476
   49CHL1   C13 4758   4.433   4.371   3.294
   49CHL1   C18 4759   4.580   4.416   3.244
   49CHL1  H18A 4760   4.596   4.391   3.137
   49CHL1  H18B 4761   4.594   4.523   3.270
   49CHL1  H18C 4762   4.645   4.347   3.301
   49CHL1   C12 4763   4.411   4.217   3.277
   49CHL1  H12A 4764   4.494   4.158   3.321
   49CHL1  H12B 4765   4.320   4.185   3.331
   49CHL1   C11 4766   4.399   4.182   3.127
   49CHL1  H11A 4767   4.502   4.183   3.086
   49CHL1  H11B 4768   4.362   4.077   3.124
   49CHL1    C9 4769   4.295   4.268   3.042
   49CHL1    H9 4770   4.195   4.249   3.087
   49CHL1   C10 4771   4.285   4.223   2.898
   49CHL1   C19 4772   4.429   4.217   2.828
   49CHL1  H19A 4773   4.487   4.138   2.879
   49CHL1  H19B 4774   4.423   4.191   2.720
   49CHL1  H19C 4775   4.487   4.312   2.831
   49CHL1    C1 4776   4.218   4.081   2.895
   49CHL1   H1A 4777   4.299   4.011   2.925
   49CHL1   H1B 4778   4.130   4.073   2.962
   49CHL1    C2 4779   4.168   4.032   2.750
   49CHL1   H2A 4780   4.121   3.932   2.750
   49CHL1   H2B 4781   4.259   4.017   2.688
   49CHL1   C20 4782   4.502   4.397   3.551
   49CHL1   H20 4783   4.609   4.398   3.522
   49CHL1   C21 4784   4.486   4.257   3.605
   49CHL1  H21A 4785   4.560   4.236   3.685
   49CHL1  H21B 4786   4.489   4.181   3.525
   49CHL1  H21C 4787   4.384   4.244   3.647
   49CHL1   C22 4788   4.497   4.503   3.663
   49CHL1  H22A 4789   4.538   4.602   3.632
   49CHL1  H22B 4790   4.392   4.529   3.686
   49CHL1   C23 4791   4.559   4.465   3.797
   49CHL1  H23A 4792   4.492   4.382   3.829
   49CHL1  H23B 4793   4.664   4.429   3.784
   49CHL1   C24 4794   4.550   4.579   3.907
   49CHL1  H24A 4795   4.651   4.627   3.905
   49CHL1  H24B 4796   4.480   4.654   3.865
   49CHL1   C25 4797   4.519   4.544   4.056
   49CHL1   H25 4798   4.429   4.480   4.056
   49CHL1   C26 4799   4.634   4.467   4.126
   49CHL1  H26A 4800   4.658   4.374   4.070
   49CHL1  H26B 4801   4.719   4.533   4.153
   49CHL1  H26C 4802   4.598   4.425   4.223
   49CHL1   C27 4803   4.488   4.670   4.142
   49CHL1  H27A 4804   4.409   4.725   4.086
   49CHL1  H27B 4805   4.436   4.654   4.239
   49CHL1  H27C 4806   4.578   4.729   4.168
   50CHL1    C3 4807   3.992   1.977   2.706
   50CHL1    H3 4808   3.891   1.943   2.672
   50CHL1    O3 4809   4.060   2.065   2.616
   50CHL1   H3' 4810   4.132   2.105   2.664
   50CHL1    C4 4811   3.986   2.034   2.851
   50CHL1   H4A 4812   4.085   2.068   2.885
   50CHL1   H4B 4813   3.939   2.135   2.848
   50CHL1    C5 4814   3.926   1.940   2.950
   50CHL1    C6 4815   3.815   1.976   3.023
   50CHL1    H6 4816   3.771   2.075   3.002
   50CHL1    C7 4817   3.764   1.896   3.138
   50CHL1   H7A 4818   3.729   1.958   3.223
   50CHL1   H7B 4819   3.664   1.855   3.110
   50CHL1    C8 4820   3.867   1.778   3.180
   50CHL1    H8 4821   3.951   1.822   3.239
   50CHL1   C14 4822   3.801   1.679   3.270
   50CHL1   H14 4823   3.711   1.639   3.219
   50CHL1   C15 4824   3.736   1.735   3.401
   50CHL1  H15A 4825   3.806   1.806   3.449
   50CHL1  H15B 4826   3.641   1.788   3.382
   50CHL1   C16 4827   3.718   1.612   3.485
   50CHL1  H16A 4828   3.763   1.626   3.585
   50CHL1  H16B 4829   3.609   1.591   3.494
   50CHL1   C17 4830   3.786   1.493   3.410
   50CHL1   H17 4831   3.707   1.441   3.353
   50CHL1   C13 4832   3.883   1.560   3.317
   50CHL1   C18 4833   4.013   1.601   3.393
   50CHL1  H18A 4834   4.076   1.673   3.336
   50CHL1  H18B 4835   3.994   1.649   3.491
   50CHL1  H18C 4836   4.081   1.514   3.406
   50CHL1   C12 4837   3.931   1.480   3.195
   50CHL1  H12A 4838   4.016   1.412   3.218
   50CHL1  H12B 4839   3.855   1.413   3.149
   50CHL1   C11 4840   3.999   1.572   3.088
   50CHL1  H11A 4841   4.096   1.604   3.131
   50CHL1  H11B 4842   4.020   1.512   2.997
   50CHL1    C9 4843   3.924   1.706   3.058
   50CHL1    H9 4844   3.834   1.673   3.001
   50CHL1   C10 4845   3.993   1.804   2.964
   50CHL1   C19 4846   4.133   1.836   3.031
   50CHL1  H19A 4847   4.126   1.857   3.139
   50CHL1  H19B 4848   4.195   1.744   3.021
   50CHL1  H19C 4849   4.179   1.914   2.967
   50CHL1    C1 4850   4.015   1.746   2.820
   50CHL1   H1A 4851   4.079   1.655   2.831
   50CHL1   H1B 4852   3.912   1.714   2.792
   50CHL1    C2 4853   4.075   1.849   2.724
   50CHL1   H2A 4854   4.084   1.807   2.621
   50CHL1   H2B 4855   4.179   1.875   2.754
   50CHL1   C20 4856   3.846   1.389   3.513
   50CHL1   H20 4857   3.940   1.432   3.555
   50CHL1   C21 4858   3.889   1.266   3.444
   50CHL1  H21A 4859   3.972   1.297   3.377
   50CHL1  H21B 4860   3.801   1.231   3.385
   50CHL1  H21C 4861   3.915   1.192   3.523
   50CHL1   C22 4862   3.751   1.353   3.624
   50CHL1  H22A 4863   3.693   1.436   3.669
   50CHL1  H22B 4864   3.672   1.296   3.571
   50CHL1   C23 4865   3.814   1.272   3.738
   50CHL1  H23A 4866   3.805   1.162   3.724
   50CHL1  H23B 4867   3.924   1.286   3.746
   50CHL1   C24 4868   3.736   1.312   3.864
   50CHL1  H24A 4869   3.748   1.422   3.874
   50CHL1  H24B 4870   3.629   1.288   3.847
   50CHL1   C25 4871   3.786   1.251   3.996
   50CHL1   H25 4872   3.783   1.140   3.990
   50CHL1   C26 4873   3.927   1.305   4.035
   50CHL1  H26A 4874   3.962   1.257   4.128
   50CHL1  H26B 4875   3.989   1.287   3.945
   50CHL1  H26C 4876   3.918   1.414   4.056
   50CHL1   C27 4877   3.690   1.280   4.117
   50CHL1  H27A 4878   3.679   1.390   4.110
   50CHL1  H27B 4879   3.588   1.240   4.097
   50CHL1  H27C 4880   3.737   1.247   4.213
   51CHL1    C3 4881   3.728   2.888   2.971
   51CHL1    H3 4882   3.830   2.929   2.959
   51CHL1    O3 4883   3.687   2.836   2.844
   51CHL1   H3' 4884   3.689   2.913   2.787
   51CHL1    C4 4885   3.718   2.773   3.076
   51CHL1   H4A 4886   3.611   2.745   3.069
   51CHL1   H4B 4887   3.788   2.695   3.039
   51CHL1    C5 4888   3.748   2.828   3.213
   51CHL1    C6 4889   3.853   2.776   3.277
   51CHL1    H6 4890   3.915   2.698   3.230
   51CHL1    C7 4891   3.886   2.822   3.420
   51CHL1   H7A 4892   3.923   2.732   3.474
   51CHL1   H7B 4893   3.979   2.882   3.411
   51CHL1    C8 4894   3.776   2.907   3.491
   51CHL1    H8 4895   3.693   2.844   3.530
   51CHL1   C14 4896   3.833   2.983   3.609
   51CHL1   H14 4897   3.915   3.040   3.560
   51CHL1   C15 4898   3.901   2.910   3.729
   51CHL1  H15A 4899   3.834   2.826   3.757
   51CHL1  H15B 4900   4.001   2.871   3.698
   51CHL1   C16 4901   3.903   3.024   3.841
   51CHL1  H16A 4902   3.858   2.975   3.930
   51CHL1  H16B 4903   4.007   3.061   3.856
   51CHL1   C17 4904   3.816   3.146   3.786
   51CHL1   H17 4905   3.893   3.205   3.733
   51CHL1   C13 4906   3.732   3.076   3.674
   51CHL1   C18 4907   3.616   3.000   3.733
   51CHL1  H18A 4908   3.645   2.914   3.797
   51CHL1  H18B 4909   3.551   3.056   3.803
   51CHL1  H18C 4910   3.538   2.985   3.655
   51CHL1   C12 4911   3.692   3.186   3.576
   51CHL1  H12A 4912   3.637   3.271   3.622
   51CHL1  H12B 4913   3.788   3.235   3.550
   51CHL1   C11 4914   3.633   3.123   3.450
   51CHL1  H11A 4915   3.541   3.075   3.490
   51CHL1  H11B 4916   3.594   3.193   3.373
   51CHL1    C9 4917   3.721   3.012   3.393
   51CHL1    H9 4918   3.806   3.074   3.356
   51CHL1   C10 4919   3.669   2.948   3.269
   51CHL1   C19 4920   3.530   2.892   3.299
   51CHL1  H19A 4921   3.486   2.844   3.210
   51CHL1  H19B 4922   3.527   2.810   3.374
   51CHL1  H19C 4923   3.464   2.975   3.334
   51CHL1    C1 4924   3.660   3.053   3.151
   51CHL1   H1A 4925   3.583   3.126   3.184
   51CHL1   H1B 4926   3.757   3.106   3.141
   51CHL1    C2 4927   3.630   3.002   3.006
   51CHL1   H2A 4928   3.643   3.084   2.932
   51CHL1   H2B 4929   3.523   2.975   2.994
   51CHL1   C20 4930   3.751   3.231   3.895
   51CHL1   H20 4931   3.653   3.275   3.867
   51CHL1   C21 4932   3.851   3.347   3.943
   51CHL1  H21A 4933   3.945   3.299   3.978
   51CHL1  H21B 4934   3.814   3.413   4.024
   51CHL1  H21C 4935   3.868   3.412   3.855
   51CHL1   C22 4936   3.713   3.162   4.033
   51CHL1  H22A 4937   3.661   3.066   4.015
   51CHL1  H22B 4938   3.801   3.157   4.101
   51CHL1   C23 4939   3.607   3.240   4.121
   51CHL1  H23A 4940   3.642   3.344   4.139
   51CHL1  H23B 4941   3.512   3.252   4.065
   51CHL1   C24 4942   3.574   3.184   4.258
   51CHL1  H24A 4943   3.659   3.199   4.328
   51CHL1  H24B 4944   3.499   3.257   4.297
   51CHL1   C25 4945   3.506   3.042   4.267
   51CHL1   H25 4946   3.572   2.968   4.218
   51CHL1   C26 4947   3.519   2.999   4.415
   51CHL1  H26A 4948   3.483   2.894   4.423
   51CHL1  H26B 4949   3.618   3.022   4.458
   51CHL1  H26C 4950   3.446   3.054   4.478
   51CHL1   C27 4951   3.370   3.019   4.198
   51CHL1  H27A 4952   3.357   2.909   4.205
   51CHL1  H27B 4953   3.282   3.069   4.245
   51CHL1  H27C 4954   3.378   3.058   4.095
   52CHL1    C3 4955   3.010   4.316   2.535
   52CHL1    H3 4956   3.030   4.425   2.539
   52CHL1    O3 4957   3.033   4.267   2.401
   52CHL1   H3' 4958   3.101   4.320   2.360
   52CHL1    C4 4959   3.109   4.244   2.623
   52CHL1   H4A 4960   3.109   4.133   2.612
   52CHL1   H4B 4961   3.206   4.278   2.580
   52CHL1    C5 4962   3.085   4.294   2.770
   52CHL1    C6 4963   3.185   4.354   2.840
   52CHL1    H6 4964   3.278   4.386   2.792
   52CHL1    C7 4965   3.171   4.387   2.986
   52CHL1   H7A 4966   3.262   4.352   3.040
   52CHL1   H7B 4967   3.154   4.496   3.002
   52CHL1    C8 4968   3.053   4.314   3.060
   52CHL1    H8 4969   3.075   4.206   3.073
   52CHL1   C14 4970   3.010   4.380   3.188
   52CHL1   H14 4971   2.985   4.486   3.170
   52CHL1   C15 4972   3.124   4.387   3.288
   52CHL1  H15A 4973   3.166   4.284   3.295
   52CHL1  H15B 4974   3.203   4.458   3.254
   52CHL1   C16 4975   3.053   4.423   3.416
   52CHL1  H16A 4976   3.070   4.351   3.499
   52CHL1  H16B 4977   3.067   4.525   3.459
   52CHL1   C17 4978   2.897   4.406   3.388
   52CHL1   H17 4979   2.857   4.506   3.361
   52CHL1   C13 4980   2.886   4.326   3.257
   52CHL1   C18 4981   2.907   4.176   3.294
   52CHL1  H18A 4982   2.931   4.114   3.205
   52CHL1  H18B 4983   2.992   4.168   3.365
   52CHL1  H18C 4984   2.811   4.135   3.331
   52CHL1   C12 4985   2.771   4.357   3.167
   52CHL1  H12A 4986   2.681   4.305   3.206
   52CHL1  H12B 4987   2.759   4.467   3.176
   52CHL1   C11 4988   2.789   4.289   3.027
   52CHL1  H11A 4989   2.786   4.179   3.044
   52CHL1  H11B 4990   2.698   4.304   2.966
   52CHL1    C9 4991   2.927   4.327   2.968
   52CHL1    H9 4992   2.919   4.437   2.955
   52CHL1   C10 4993   2.948   4.267   2.827
   52CHL1   C19 4994   2.914   4.110   2.834
   52CHL1  H19A 4995   2.806   4.094   2.852
   52CHL1  H19B 4996   2.951   4.057   2.743
   52CHL1  H19C 4997   2.971   4.056   2.913
   52CHL1    C1 4998   2.850   4.331   2.731
   52CHL1   H1A 4999   2.753   4.283   2.758
   52CHL1   H1B 5000   2.836   4.441   2.737
   52CHL1    C2 5001   2.867   4.288   2.586
   52CHL1   H2A 5002   2.794   4.327   2.511
   52CHL1   H2B 5003   2.840   4.181   2.582
   52CHL1   C20 5004   2.811   4.359   3.513
   52CHL1   H20 5005   2.816   4.249   3.523
   52CHL1   C21 5006   2.669   4.399   3.483
   52CHL1  H21A 5007   2.650   4.508   3.478
   52CHL1  H21B 5008   2.599   4.390   3.569
   52CHL1  H21C 5009   2.630   4.348   3.393
   52CHL1   C22 5010   2.854   4.427   3.643
   52CHL1  H22A 5011   2.962   4.418   3.665
   52CHL1  H22B 5012   2.833   4.535   3.629
   52CHL1   C23 5013   2.784   4.369   3.766
   52CHL1  H23A 5014   2.674   4.383   3.779
   52CHL1  H23B 5015   2.797   4.260   3.752
   52CHL1   C24 5016   2.847   4.427   3.896
   52CHL1  H24A 5017   2.957   4.412   3.887
   52CHL1  H24B 5018   2.835   4.537   3.900
   52CHL1   C25 5019   2.782   4.366   4.019
   52CHL1   H25 5020   2.672   4.379   4.005
   52CHL1   C26 5021   2.818   4.214   4.026
   52CHL1  H26A 5022   2.772   4.150   3.948
   52CHL1  H26B 5023   2.928   4.210   4.017
   52CHL1  H26C 5024   2.786   4.170   4.123
   52CHL1   C27 5025   2.817   4.431   4.148
   52CHL1  H27A 5026   2.921   4.403   4.176
   52CHL1  H27B 5027   2.813   4.541   4.137
   52CHL1  H27C 5028   2.736   4.399   4.217
   53CHL1    C3 5029   3.145   3.178   2.886
   53CHL1    H3 5030   3.090   3.272   2.906
   53CHL1    O3 5031   3.179   3.150   2.757
   53CHL1   H3' 5032   3.242   3.077   2.757
   53CHL1    C4 5033   3.265   3.173   2.989
   53CHL1   H4A 5034   3.326   3.083   2.965
   53CHL1   H4B 5035   3.335   3.255   2.960
   53CHL1    C5 5036   3.231   3.168   3.139
   53CHL1    C6 5037   3.281   3.253   3.227
   53CHL1    H6 5038   3.356   3.324   3.191
   53CHL1    C7 5039   3.263   3.253   3.373
   53CHL1   H7A 5040   3.358   3.269   3.428
   53CHL1   H7B 5041   3.211   3.348   3.396
   53CHL1    C8 5042   3.194   3.124   3.422
   53CHL1    H8 5043   3.266   3.040   3.434
   53CHL1   C14 5044   3.132   3.148   3.555
   53CHL1   H14 5045   3.047   3.219   3.546
   53CHL1   C15 5046   3.217   3.203   3.668
   53CHL1  H15A 5047   3.319   3.160   3.661
   53CHL1  H15B 5048   3.232   3.313   3.662
   53CHL1   C16 5049   3.150   3.162   3.800
   53CHL1  H16A 5050   3.223   3.114   3.868
   53CHL1  H16B 5051   3.101   3.242   3.859
   53CHL1   C17 5052   3.033   3.077   3.762
   53CHL1   H17 5053   2.947   3.144   3.736
   53CHL1   C13 5054   3.074   3.019   3.621
   53CHL1   C18 5055   3.176   2.909   3.633
   53CHL1  H18A 5056   3.213   2.872   3.535
   53CHL1  H18B 5057   3.263   2.941   3.695
   53CHL1  H18C 5058   3.127   2.824   3.685
   53CHL1   C12 5059   2.952   2.969   3.532
   53CHL1  H12A 5060   2.933   2.867   3.574
   53CHL1  H12B 5061   2.868   3.041   3.534
   53CHL1   C11 5062   2.996   2.963   3.384
   53CHL1  H11A 5063   3.067   2.878   3.389
   53CHL1  H11B 5064   2.909   2.941   3.319
   53CHL1    C9 5065   3.082   3.081   3.324
   53CHL1    H9 5066   3.011   3.167   3.318
   53CHL1   C10 5067   3.128   3.062   3.174
   53CHL1   C19 5068   3.183   2.919   3.161
   53CHL1  H19A 5069   3.109   2.837   3.158
   53CHL1  H19B 5070   3.256   2.913   3.078
   53CHL1  H19C 5071   3.249   2.899   3.249
   53CHL1    C1 5072   3.004   3.092   3.086
   53CHL1   H1A 5073   2.915   3.028   3.103
   53CHL1   H1B 5074   2.964   3.194   3.100
   53CHL1    C2 5075   3.038   3.077   2.934
   53CHL1   H2A 5076   2.944   3.099   2.878
   53CHL1   H2B 5077   3.073   2.973   2.915
   53CHL1   C20 5078   2.979   2.982   3.868
   53CHL1   H20 5079   2.922   2.901   3.817
   53CHL1   C21 5080   2.875   3.062   3.951
   53CHL1  H21A 5081   2.916   3.151   4.002
   53CHL1  H21B 5082   2.818   3.001   4.024
   53CHL1  H21C 5083   2.805   3.103   3.875
   53CHL1   C22 5084   3.089   2.926   3.961
   53CHL1  H22A 5085   3.180   2.908   3.900
   53CHL1  H22B 5086   3.100   3.002   4.042
   53CHL1   C23 5087   3.046   2.790   4.022
   53CHL1  H23A 5088   2.948   2.801   4.072
   53CHL1  H23B 5089   3.034   2.725   3.933
   53CHL1   C24 5090   3.138   2.729   4.126
   53CHL1  H24A 5091   3.232   2.713   4.069
   53CHL1  H24B 5092   3.160   2.800   4.208
   53CHL1   C25 5093   3.094   2.595   4.189
   53CHL1   H25 5094   3.037   2.545   4.108
   53CHL1   C26 5095   3.218   2.515   4.220
   53CHL1  H26A 5096   3.182   2.429   4.280
   53CHL1  H26B 5097   3.287   2.481   4.140
   53CHL1  H26C 5098   3.279   2.586   4.281
   53CHL1   C27 5099   3.014   2.622   4.314
   53CHL1  H27A 5100   2.956   2.530   4.333
   53CHL1  H27B 5101   3.084   2.637   4.399
   53CHL1  H27C 5102   2.942   2.706   4.304
   54CHL1    C3 5103   2.522   3.506   2.663
   54CHL1    H3 5104   2.601   3.577   2.697
   54CHL1    O3 5105   2.522   3.521   2.522
   54CHL1   H3' 5106   2.512   3.432   2.489
   54CHL1    C4 5107   2.566   3.360   2.705
   54CHL1   H4A 5108   2.487   3.295   2.663
   54CHL1   H4B 5109   2.655   3.339   2.643
   54CHL1    C5 5110   2.578   3.339   2.847
   54CHL1    C6 5111   2.694   3.293   2.908
   54CHL1    H6 5112   2.778   3.278   2.840
   54CHL1    C7 5113   2.711   3.286   3.058
   54CHL1   H7A 5114   2.760   3.189   3.079
   54CHL1   H7B 5115   2.784   3.359   3.098
   54CHL1    C8 5116   2.573   3.287   3.135
   54CHL1    H8 5117   2.524   3.189   3.117
   54CHL1   C14 5118   2.595   3.309   3.278
   54CHL1   H14 5119   2.649   3.406   3.284
   54CHL1   C15 5120   2.686   3.209   3.361
   54CHL1  H15A 5121   2.649   3.111   3.323
   54CHL1  H15B 5122   2.793   3.226   3.336
   54CHL1   C16 5123   2.663   3.241   3.512
   54CHL1  H16A 5124   2.614   3.152   3.556
   54CHL1  H16B 5125   2.754   3.274   3.567
   54CHL1   C17 5126   2.552   3.356   3.508
   54CHL1   H17 5127   2.605   3.454   3.505
   54CHL1   C13 5128   2.479   3.334   3.374
   54CHL1   C18 5129   2.391   3.215   3.368
   54CHL1  H18A 5130   2.359   3.177   3.269
   54CHL1  H18B 5131   2.426   3.128   3.427
   54CHL1  H18C 5132   2.297   3.237   3.424
   54CHL1   C12 5133   2.396   3.454   3.320
   54CHL1  H12A 5134   2.297   3.475   3.367
   54CHL1  H12B 5135   2.461   3.544   3.320
   54CHL1   C11 5136   2.359   3.426   3.172
   54CHL1  H11A 5137   2.288   3.340   3.168
   54CHL1  H11B 5138   2.302   3.516   3.141
   54CHL1    C9 5139   2.484   3.393   3.081
   54CHL1    H9 5140   2.542   3.487   3.089
   54CHL1   C10 5141   2.455   3.378   2.926
   54CHL1   C19 5142   2.342   3.267   2.913
   54CHL1  H19A 5143   2.247   3.320   2.936
   54CHL1  H19B 5144   2.336   3.230   2.808
   54CHL1  H19C 5145   2.357   3.186   2.987
   54CHL1    C1 5146   2.394   3.515   2.877
   54CHL1   H1A 5147   2.300   3.552   2.924
   54CHL1   H1B 5148   2.472   3.589   2.906
   54CHL1    C2 5149   2.386   3.535   2.725
   54CHL1   H2A 5150   2.350   3.633   2.685
   54CHL1   H2B 5151   2.316   3.463   2.677
   54CHL1   C20 5152   2.465   3.352   3.640
   54CHL1   H20 5153   2.390   3.270   3.632
   54CHL1   C21 5154   2.399   3.495   3.641
   54CHL1  H21A 5155   2.325   3.508   3.560
   54CHL1  H21B 5156   2.474   3.575   3.623
   54CHL1  H21C 5157   2.345   3.517   3.735
   54CHL1   C22 5158   2.553   3.339   3.771
   54CHL1  H22A 5159   2.475   3.347   3.850
   54CHL1  H22B 5160   2.600   3.239   3.769
   54CHL1   C23 5161   2.652   3.453   3.790
   54CHL1  H23A 5162   2.710   3.449   3.696
   54CHL1  H23B 5163   2.602   3.552   3.798
   54CHL1   C24 5164   2.745   3.426   3.910
   54CHL1  H24A 5165   2.687   3.435   4.004
   54CHL1  H24B 5166   2.793   3.327   3.893
   54CHL1   C25 5167   2.869   3.524   3.917
   54CHL1   H25 5168   2.831   3.629   3.916
   54CHL1   C26 5169   2.948   3.502   4.052
   54CHL1  H26A 5170   2.892   3.546   4.137
   54CHL1  H26B 5171   2.978   3.397   4.075
   54CHL1  H26C 5172   3.046   3.554   4.051
   54CHL1   C27 5173   2.968   3.515   3.800
   54CHL1  H27A 5174   3.036   3.603   3.790
   54CHL1  H27B 5175   3.017   3.416   3.809
   54CHL1  H27C 5176   2.913   3.503   3.704
   55CHL1    C3 5177   3.747   5.993   2.449
   55CHL1    H3 5178   3.664   6.067   2.442
   55CHL1    O3 5179   3.781   5.955   2.315
   55CHL1   H3' 5180   3.788   6.039   2.269
   55CHL1    C4 5181   3.870   6.047   2.515
   55CHL1   H4A 5182   3.944   5.964   2.509
   55CHL1   H4B 5183   3.904   6.134   2.455
   55CHL1    C5 5184   3.848   6.092   2.664
   55CHL1    C6 5185   3.869   6.221   2.697
   55CHL1    H6 5186   3.909   6.292   2.622
   55CHL1    C7 5187   3.847   6.274   2.832
   55CHL1   H7A 5188   3.937   6.327   2.870
   55CHL1   H7B 5189   3.750   6.328   2.826
   55CHL1    C8 5190   3.824   6.159   2.931
   55CHL1    H8 5191   3.928   6.122   2.950
   55CHL1   C14 5192   3.772   6.198   3.065
   55CHL1   H14 5193   3.676   6.249   3.040
   55CHL1   C15 5194   3.859   6.300   3.139
   55CHL1  H15A 5195   3.965   6.265   3.141
   55CHL1  H15B 5196   3.850   6.396   3.085
   55CHL1   C16 5197   3.811   6.288   3.279
   55CHL1  H16A 5198   3.898   6.281   3.348
   55CHL1  H16B 5199   3.760   6.376   3.323
   55CHL1   C17 5200   3.724   6.161   3.293
   55CHL1   H17 5201   3.621   6.202   3.284
   55CHL1   C13 5202   3.751   6.080   3.161
   55CHL1   C18 5203   3.879   6.001   3.193
   55CHL1  H18A 5204   3.917   5.939   3.109
   55CHL1  H18B 5205   3.958   6.063   3.242
   55CHL1  H18C 5206   3.859   5.918   3.264
   55CHL1   C12 5207   3.638   5.999   3.098
   55CHL1  H12A 5208   3.623   5.909   3.161
   55CHL1  H12B 5209   3.546   6.061   3.097
   55CHL1   C11 5210   3.682   5.942   2.967
   55CHL1  H11A 5211   3.763   5.868   2.989
   55CHL1  H11B 5212   3.603   5.877   2.924
   55CHL1    C9 5213   3.732   6.047   2.870
   55CHL1    H9 5214   3.639   6.098   2.839
   55CHL1   C10 5215   3.793   5.979   2.749
   55CHL1   C19 5216   3.908   5.880   2.789
   55CHL1  H19A 5217   3.974   5.850   2.705
   55CHL1  H19B 5218   3.974   5.929   2.865
   55CHL1  H19C 5219   3.863   5.792   2.839
   55CHL1    C1 5220   3.674   5.917   2.675
   55CHL1   H1A 5221   3.643   5.830   2.735
   55CHL1   H1B 5222   3.587   5.986   2.666
   55CHL1    C2 5223   3.709   5.869   2.527
   55CHL1   H2A 5224   3.622   5.824   2.475
   55CHL1   H2B 5225   3.795   5.799   2.524
   55CHL1   C20 5226   3.727   6.095   3.430
   55CHL1   H20 5227   3.826   6.047   3.449
   55CHL1   C21 5228   3.635   5.973   3.440
   55CHL1  H21A 5229   3.694   5.882   3.418
   55CHL1  H21B 5230   3.562   6.014   3.366
   55CHL1  H21C 5231   3.588   5.974   3.541
   55CHL1   C22 5232   3.683   6.184   3.553
   55CHL1  H22A 5233   3.713   6.289   3.530
   55CHL1  H22B 5234   3.573   6.182   3.572
   55CHL1   C23 5235   3.758   6.152   3.685
   55CHL1  H23A 5236   3.752   6.042   3.700
   55CHL1  H23B 5237   3.864   6.178   3.664
   55CHL1   C24 5238   3.702   6.234   3.809
   55CHL1  H24A 5239   3.785   6.234   3.883
   55CHL1  H24B 5240   3.680   6.333   3.763
   55CHL1   C25 5241   3.576   6.181   3.867
   55CHL1   H25 5242   3.512   6.148   3.783
   55CHL1   C26 5243   3.603   6.063   3.961
   55CHL1  H26A 5244   3.526   6.060   4.041
   55CHL1  H26B 5245   3.604   5.966   3.907
   55CHL1  H26C 5246   3.703   6.073   4.008
   55CHL1   C27 5247   3.514   6.297   3.954
   55CHL1  H27A 5248   3.425   6.253   4.004
   55CHL1  H27B 5249   3.585   6.320   4.035
   55CHL1  H27C 5250   3.473   6.376   3.886
   56CHL1    C3 5251   5.249   1.883   2.841
   56CHL1    H3 5252   5.225   1.775   2.835
   56CHL1    O3 5253   5.198   1.951   2.728
   56CHL1   H3' 5254   5.246   1.907   2.658
   56CHL1    C4 5255   5.199   1.930   2.979
   56CHL1   H4A 5256   5.214   2.040   2.985
   56CHL1   H4B 5257   5.089   1.922   2.970
   56CHL1    C5 5258   5.258   1.867   3.102
   56CHL1    C6 5259   5.175   1.821   3.197
   56CHL1    H6 5260   5.066   1.833   3.191
   56CHL1    C7 5261   5.226   1.755   3.321
   56CHL1   H7A 5262   5.173   1.788   3.413
   56CHL1   H7B 5263   5.209   1.646   3.312
   56CHL1    C8 5264   5.384   1.782   3.345
   56CHL1    H8 5265   5.386   1.889   3.376
   56CHL1   C14 5266   5.444   1.688   3.453
   56CHL1   H14 5267   5.438   1.586   3.410
   56CHL1   C15 5268   5.361   1.678   3.584
   56CHL1  H15A 5269   5.314   1.778   3.594
   56CHL1  H15B 5270   5.274   1.612   3.567
   56CHL1   C16 5271   5.466   1.639   3.683
   56CHL1  H16A 5272   5.483   1.729   3.746
   56CHL1  H16B 5273   5.439   1.552   3.746
   56CHL1   C17 5274   5.604   1.608   3.604
   56CHL1   H17 5275   5.586   1.507   3.561
   56CHL1   C13 5276   5.592   1.701   3.483
   56CHL1   C18 5277   5.625   1.841   3.531
   56CHL1  H18A 5278   5.564   1.914   3.475
   56CHL1  H18B 5279   5.614   1.856   3.641
   56CHL1  H18C 5280   5.730   1.861   3.500
   56CHL1   C12 5281   5.666   1.670   3.354
   56CHL1  H12A 5282   5.776   1.688   3.356
   56CHL1  H12B 5283   5.653   1.564   3.326
   56CHL1   C11 5284   5.617   1.767   3.235
   56CHL1  H11A 5285   5.649   1.862   3.282
   56CHL1  H11B 5286   5.671   1.754   3.139
   56CHL1    C9 5287   5.465   1.763   3.213
   56CHL1    H9 5288   5.444   1.661   3.176
   56CHL1   C10 5289   5.409   1.849   3.104
   56CHL1   C19 5290   5.469   1.991   3.134
   56CHL1  H19A 5291   5.425   2.062   3.060
   56CHL1  H19B 5292   5.439   2.030   3.234
   56CHL1  H19C 5293   5.579   1.997   3.126
   56CHL1    C1 5294   5.460   1.806   2.958
   56CHL1   H1A 5295   5.570   1.805   2.950
   56CHL1   H1B 5296   5.429   1.700   2.944
   56CHL1    C2 5297   5.406   1.888   2.837
   56CHL1   H2A 5298   5.437   1.842   2.741
   56CHL1   H2B 5299   5.447   1.991   2.849
   56CHL1   C20 5300   5.728   1.607   3.693
   56CHL1   H20 5301   5.761   1.707   3.729
   56CHL1   C21 5302   5.842   1.555   3.608
   56CHL1  H21A 5303   5.925   1.530   3.678
   56CHL1  H21B 5304   5.879   1.642   3.549
   56CHL1  H21C 5305   5.808   1.472   3.542
   56CHL1   C22 5306   5.713   1.515   3.820
   56CHL1  H22A 5307   5.647   1.425   3.812
   56CHL1  H22B 5308   5.810   1.464   3.835
   56CHL1   C23 5309   5.659   1.587   3.949
   56CHL1  H23A 5310   5.703   1.689   3.949
   56CHL1  H23B 5311   5.548   1.592   3.942
   56CHL1   C24 5312   5.715   1.523   4.082
   56CHL1  H24A 5313   5.823   1.498   4.079
   56CHL1  H24B 5314   5.696   1.594   4.166
   56CHL1   C25 5315   5.642   1.394   4.132
   56CHL1   H25 5316   5.625   1.336   4.039
   56CHL1   C26 5317   5.739   1.327   4.233
   56CHL1  H26A 5318   5.830   1.303   4.175
   56CHL1  H26B 5319   5.771   1.393   4.316
   56CHL1  H26C 5320   5.703   1.233   4.280
   56CHL1   C27 5321   5.507   1.417   4.199
   56CHL1  H27A 5322   5.446   1.475   4.126
   56CHL1  H27B 5323   5.462   1.320   4.228
   56CHL1  H27C 5324   5.507   1.476   4.293
   57CHL1    C3 5325   4.250   6.764   2.830
   57CHL1    H3 5326   4.272   6.861   2.879
   57CHL1    O3 5327   4.274   6.757   2.693
   57CHL1   H3' 5328   4.237   6.675   2.657
   57CHL1    C4 5329   4.342   6.662   2.897
   57CHL1   H4A 5330   4.326   6.563   2.852
   57CHL1   H4B 5331   4.443   6.691   2.862
   57CHL1    C5 5332   4.325   6.655   3.050
   57CHL1    C6 5333   4.427   6.677   3.127
   57CHL1    H6 5334   4.529   6.693   3.089
   57CHL1    C7 5335   4.414   6.657   3.276
   57CHL1   H7A 5336   4.491   6.583   3.307
   57CHL1   H7B 5337   4.427   6.761   3.313
   57CHL1    C8 5338   4.275   6.605   3.329
   57CHL1    H8 5339   4.274   6.494   3.326
   57CHL1   C14 5340   4.258   6.649   3.474
   57CHL1   H14 5341   4.269   6.759   3.468
   57CHL1   C15 5342   4.367   6.603   3.577
   57CHL1  H15A 5343   4.390   6.496   3.558
   57CHL1  H15B 5344   4.457   6.663   3.550
   57CHL1   C16 5345   4.297   6.624   3.716
   57CHL1  H16A 5346   4.311   6.530   3.773
   57CHL1  H16B 5347   4.326   6.700   3.792
   57CHL1   C17 5348   4.145   6.643   3.683
   57CHL1   H17 5349   4.145   6.754   3.688
   57CHL1   C13 5350   4.123   6.602   3.534
   57CHL1   C18 5351   4.107   6.450   3.539
   57CHL1  H18A 5352   4.002   6.419   3.556
   57CHL1  H18B 5353   4.131   6.410   3.438
   57CHL1  H18C 5354   4.182   6.394   3.598
   57CHL1   C12 5355   4.015   6.666   3.451
   57CHL1  H12A 5356   3.920   6.624   3.490
   57CHL1  H12B 5357   4.016   6.777   3.448
   57CHL1   C11 5358   4.027   6.623   3.307
   57CHL1  H11A 5359   4.006   6.514   3.303
   57CHL1  H11B 5360   3.948   6.678   3.252
   57CHL1    C9 5361   4.165   6.663   3.252
   57CHL1    H9 5362   4.174   6.774   3.254
   57CHL1   C10 5363   4.182   6.638   3.099
   57CHL1   C19 5364   4.134   6.495   3.069
   57CHL1  H19A 5365   4.162   6.430   3.155
   57CHL1  H19B 5366   4.023   6.494   3.068
   57CHL1  H19C 5367   4.166   6.453   2.971
   57CHL1    C1 5368   4.080   6.727   3.020
   57CHL1   H1A 5369   3.978   6.693   3.047
   57CHL1   H1B 5370   4.094   6.832   3.054
   57CHL1    C2 5371   4.108   6.730   2.868
   57CHL1   H2A 5372   4.036   6.800   2.820
   57CHL1   H2B 5373   4.087   6.632   2.820
   57CHL1   C20 5374   4.053   6.588   3.797
   57CHL1   H20 5375   4.061   6.478   3.795
   57CHL1   C21 5376   3.911   6.643   3.784
   57CHL1  H21A 5377   3.864   6.595   3.695
   57CHL1  H21B 5378   3.921   6.750   3.758
   57CHL1  H21C 5379   3.845   6.622   3.870
   57CHL1   C22 5380   4.104   6.626   3.941
   57CHL1  H22A 5381   4.024   6.596   4.013
   57CHL1  H22B 5382   4.201   6.578   3.966
   57CHL1   C23 5383   4.126   6.774   3.973
   57CHL1  H23A 5384   4.202   6.812   3.902
   57CHL1  H23B 5385   4.035   6.836   3.960
   57CHL1   C24 5386   4.164   6.796   4.119
   57CHL1  H24A 5387   4.100   6.741   4.191
   57CHL1  H24B 5388   4.271   6.765   4.122
   57CHL1   C25 5389   4.182   0.054   4.172
   57CHL1   H25 5390   4.242   0.109   4.098
   57CHL1   C26 5391   4.056   0.143   4.182
   57CHL1  H26A 5392   4.071   0.226   4.254
   57CHL1  H26B 5393   4.033   0.194   4.086
   57CHL1  H26C 5394   3.976   0.078   4.223
   57CHL1   C27 5395   4.256   0.043   4.307
   57CHL1  H27A 5396   4.193   6.880   4.384
   57CHL1  H27B 5397   4.341   6.859   4.288
   57CHL1  H27C 5398   4.294   0.137   4.353
   58CHL1    C3 5399   4.309   0.390   2.822
   58CHL1    H3 5400   4.408   0.434   2.849
   58CHL1    O3 5401   4.304   0.378   2.679
   58CHL1   H3' 5402   4.276   0.287   2.662
   58CHL1    C4 5403   4.297   0.247   2.879
   58CHL1   H4A 5404   4.221   0.187   2.824
   58CHL1   H4B 5405   4.396   0.200   2.866
   58CHL1    C5 5406   4.266   0.243   3.030
   58CHL1    C6 5407   4.325   0.170   3.127
   58CHL1    H6 5408   4.416   0.114   3.099
   58CHL1    C7 5409   4.283   0.170   3.275
   58CHL1   H7A 5410   4.278   0.063   3.304
   58CHL1   H7B 5411   4.357   0.216   3.344
   58CHL1    C8 5412   4.145   0.224   3.299
   58CHL1    H8 5413   4.077   0.145   3.261
   58CHL1   C14 5414   4.132   0.250   3.449
   58CHL1   H14 5415   4.194   0.338   3.478
   58CHL1   C15 5416   4.171   0.137   3.544
   58CHL1  H15A 5417   4.117   0.045   3.510
   58CHL1  H15B 5418   4.277   0.110   3.562
   58CHL1   C16 5419   4.092   0.177   3.672
   58CHL1  H16A 5420   4.047   0.088   3.722
   58CHL1  H16B 5421   4.160   0.235   3.738
   58CHL1   C17 5422   3.990   0.290   3.634
   58CHL1   H17 5423   4.031   0.393   3.647
   58CHL1   C13 5424   3.983   0.286   3.476
   58CHL1   C18 5425   3.878   0.184   3.434
   58CHL1  H18A 5426   3.780   0.201   3.485
   58CHL1  H18B 5427   3.878   0.173   3.324
   58CHL1  H18C 5428   3.910   0.086   3.476
   58CHL1   C12 5429   3.965   0.427   3.410
   58CHL1  H12A 5430   3.857   0.452   3.423
   58CHL1  H12B 5431   4.008   0.510   3.469
   58CHL1   C11 5432   3.992   0.428   3.255
   58CHL1  H11A 5433   3.906   0.373   3.212
   58CHL1  H11B 5434   4.000   0.531   3.216
   58CHL1    C9 5435   4.123   0.356   3.218
   58CHL1    H9 5436   4.207   0.414   3.261
   58CHL1   C10 5437   4.142   0.341   3.068
   58CHL1   C19 5438   4.016   0.271   3.007
   58CHL1  H19A 5439   3.929   0.341   3.005
   58CHL1  H19B 5440   4.033   0.232   2.905
   58CHL1  H19C 5441   3.988   0.178   3.060
   58CHL1    C1 5442   4.176   0.483   3.015
   58CHL1   H1A 5443   4.095   0.550   3.048
   58CHL1   H1B 5444   4.269   0.517   3.066
   58CHL1    C2 5445   4.194   0.488   2.862
   58CHL1   H2A 5446   4.220   0.589   2.822
   58CHL1   H2B 5447   4.104   0.448   2.812
   58CHL1   C20 5448   3.866   0.286   3.721
   58CHL1   H20 5449   3.827   0.184   3.702
   58CHL1   C21 5450   3.774   0.409   3.674
   58CHL1  H21A 5451   3.836   0.498   3.649
   58CHL1  H21B 5452   3.718   0.446   3.762
   58CHL1  H21C 5453   3.703   0.383   3.592
   58CHL1   C22 5454   3.900   0.305   3.872
   58CHL1  H22A 5455   3.997   0.264   3.906
   58CHL1  H22B 5456   3.908   0.415   3.886
   58CHL1   C23 5457   3.787   0.254   3.962
   58CHL1  H23A 5458   3.687   0.284   3.925
   58CHL1  H23B 5459   3.796   0.143   3.966
   58CHL1   C24 5460   3.784   0.331   4.099
   58CHL1  H24A 5461   3.876   0.315   4.159
   58CHL1  H24B 5462   3.786   0.439   4.074
   58CHL1   C25 5463   3.655   0.303   4.180
   58CHL1   H25 5464   3.566   0.330   4.120
   58CHL1   C26 5465   3.657   0.150   4.218
   58CHL1  H26A 5466   3.567   0.113   4.271
   58CHL1  H26B 5467   3.688   0.083   4.135
   58CHL1  H26C 5468   3.733   0.147   4.300
   58CHL1   C27 5469   3.662   0.397   4.308
   58CHL1  H27A 5470   3.575   0.386   4.377
   58CHL1  H27B 5471   3.760   0.386   4.359
   58CHL1  H27C 5472   3.654   0.501   4.269
   59CHL1    C3 5473   2.560   5.004   2.699
   59CHL1    H3 5474   2.510   4.907   2.717
   59CHL1    O3 5475   2.580   5.011   2.560
   59CHL1   H3' 5476   2.597   5.102   2.535
   59CHL1    C4 5477   2.447   5.106   2.742
   59CHL1   H4A 5478   2.482   5.209   2.719
   59CHL1   H4B 5479   2.357   5.084   2.681
   59CHL1    C5 5480   2.420   5.095   2.886
   59CHL1    C6 5481   2.297   5.057   2.939
   59CHL1    H6 5482   2.210   5.031   2.876
   59CHL1    C7 5483   2.268   5.065   3.090
   59CHL1   H7A 5484   2.169   5.112   3.110
   59CHL1   H7B 5485   2.266   4.967   3.141
   59CHL1    C8 5486   2.382   5.143   3.161
   59CHL1    H8 5487   2.371   5.246   3.122
   59CHL1   C14 5488   2.360   5.136   3.310
   59CHL1   H14 5489   2.380   5.035   3.351
   59CHL1   C15 5490   2.216   5.174   3.361
   59CHL1  H15A 5491   2.184   5.254   3.291
   59CHL1  H15B 5492   2.153   5.083   3.353
   59CHL1   C16 5493   2.237   5.214   3.509
   59CHL1  H16A 5494   2.191   5.314   3.525
   59CHL1  H16B 5495   2.188   5.148   3.584
   59CHL1   C17 5496   2.394   5.201   3.535
   59CHL1   H17 5497   2.408   5.099   3.577
   59CHL1   C13 5498   2.466   5.216   3.393
   59CHL1   C18 5499   2.464   5.368   3.361
   59CHL1  H18A 5500   2.520   5.427   3.437
   59CHL1  H18B 5501   2.502   5.388   3.258
   59CHL1  H18C 5502   2.368   5.422   3.364
   59CHL1   C12 5503   2.605   5.153   3.371
   59CHL1  H12A 5504   2.679   5.223   3.416
   59CHL1  H12B 5505   2.615   5.053   3.418
   59CHL1   C11 5506   2.636   5.142   3.216
   59CHL1  H11A 5507   2.664   5.248   3.194
   59CHL1  H11B 5508   2.726   5.079   3.202
   59CHL1    C9 5509   2.518   5.095   3.128
   59CHL1    H9 5510   2.515   4.984   3.132
   59CHL1   C10 5511   2.542   5.114   2.969
   59CHL1   C19 5512   2.606   5.258   2.955
   59CHL1  H19A 5513   2.705   5.250   3.005
   59CHL1  H19B 5514   2.611   5.284   2.847
   59CHL1  H19C 5515   2.544   5.335   3.005
   59CHL1    C1 5516   2.653   5.009   2.929
   59CHL1   H1A 5517   2.751   5.030   2.979
   59CHL1   H1B 5518   2.614   4.909   2.957
   59CHL1    C2 5519   2.683   5.017   2.780
   59CHL1   H2A 5520   2.754   4.938   2.746
   59CHL1   H2B 5521   2.732   5.115   2.760
   59CHL1   C20 5522   2.437   5.293   3.651
   59CHL1   H20 5523   2.415   5.396   3.617
   59CHL1   C21 5524   2.589   5.265   3.679
   59CHL1  H21A 5525   2.619   5.311   3.776
   59CHL1  H21B 5526   2.660   5.316   3.610
   59CHL1  H21C 5527   2.624   5.159   3.678
   59CHL1   C22 5528   2.353   5.278   3.784
   59CHL1  H22A 5529   2.399   5.354   3.850
   59CHL1  H22B 5530   2.246   5.302   3.763
   59CHL1   C23 5531   2.335   5.135   3.843
   59CHL1  H23A 5532   2.288   5.066   3.770
   59CHL1  H23B 5533   2.440   5.100   3.852
   59CHL1   C24 5534   2.273   5.127   3.979
   59CHL1  H24A 5535   2.326   5.188   4.055
   59CHL1  H24B 5536   2.165   5.156   3.980
   59CHL1   C25 5537   2.259   4.987   4.041
   59CHL1   H25 5538   2.354   4.930   4.031
   59CHL1   C26 5539   2.230   4.995   4.188
   59CHL1  H26A 5540   2.302   5.063   4.238
   59CHL1  H26B 5541   2.130   5.041   4.203
   59CHL1  H26C 5542   2.216   4.897   4.238
   59CHL1   C27 5543   2.149   4.905   3.969
   59CHL1  H27A 5544   2.172   4.889   3.862
   59CHL1  H27B 5545   2.131   4.814   4.030
   59CHL1  H27C 5546   2.057   4.968   3.978
   60CHL1    C3 5547   5.290   5.559   2.729
   60CHL1    H3 5548   5.399   5.558   2.751
   60CHL1    O3 5549   5.257   5.542   2.590
   60CHL1   H3' 5550   5.328   5.587   2.543
   60CHL1    C4 5551   5.227   5.446   2.809
   60CHL1   H4A 5552   5.122   5.428   2.777
   60CHL1   H4B 5553   5.278   5.354   2.773
   60CHL1    C5 5554   5.242   5.453   2.959
   60CHL1    C6 5555   5.294   5.353   3.034
   60CHL1    H6 5556   5.322   5.259   2.985
   60CHL1    C7 5557   5.302   5.365   3.180
   60CHL1   H7A 5558   5.259   5.271   3.219
   60CHL1   H7B 5559   5.408   5.365   3.214
   60CHL1    C8 5560   5.227   5.475   3.255
   60CHL1    H8 5561   5.120   5.448   3.263
   60CHL1   C14 5562   5.279   5.498   3.392
   60CHL1   H14 5563   5.389   5.511   3.391
   60CHL1   C15 5564   5.258   5.389   3.490
   60CHL1  H15A 5565   5.151   5.363   3.481
   60CHL1  H15B 5566   5.320   5.299   3.465
   60CHL1   C16 5567   5.285   5.454   3.618
   60CHL1  H16A 5568   5.212   5.433   3.700
   60CHL1  H16B 5569   5.383   5.411   3.648
   60CHL1   C17 5570   5.292   5.611   3.595
   60CHL1   H17 5571   5.398   5.642   3.584
   60CHL1   C13 5572   5.235   5.628   3.461
   60CHL1   C18 5573   5.076   5.633   3.483
   60CHL1  H18A 5574   5.050   5.559   3.562
   60CHL1  H18B 5575   5.033   5.729   3.519
   60CHL1  H18C 5576   5.014   5.618   3.392
   60CHL1   C12 5577   5.267   5.751   3.377
   60CHL1  H12A 5578   5.236   5.852   3.413
   60CHL1  H12B 5579   5.377   5.767   3.380
   60CHL1   C11 5580   5.205   5.742   3.238
   60CHL1  H11A 5581   5.096   5.760   3.243
   60CHL1  H11B 5582   5.241   5.827   3.176
   60CHL1    C9 5583   5.242   5.604   3.171
   60CHL1    H9 5584   5.353   5.612   3.160
   60CHL1   C10 5585   5.203   5.590   3.024
   60CHL1   C19 5586   5.049   5.602   3.030
   60CHL1  H19A 5587   5.010   5.519   3.092
   60CHL1  H19B 5588   5.003   5.691   3.077
   60CHL1  H19C 5589   5.015   5.609   2.924
   60CHL1    C1 5590   5.254   5.710   2.937
   60CHL1   H1A 5591   5.203   5.809   2.942
   60CHL1   H1B 5592   5.365   5.710   2.945
   60CHL1    C2 5593   5.235   5.693   2.781
   60CHL1   H2A 5594   5.292   5.775   2.732
   60CHL1   H2B 5595   5.128   5.702   2.755
   60CHL1   C20 5596   5.242   5.694   3.716
   60CHL1   H20 5597   5.142   5.659   3.749
   60CHL1   C21 5598   5.228   5.842   3.688
   60CHL1  H21A 5599   5.146   5.865   3.617
   60CHL1  H21B 5600   5.321   5.885   3.646
   60CHL1  H21C 5601   5.194   5.901   3.776
   60CHL1   C22 5602   5.336   5.676   3.843
   60CHL1  H22A 5603   5.359   5.569   3.862
   60CHL1  H22B 5604   5.436   5.719   3.821
   60CHL1   C23 5605   5.276   5.742   3.974
   60CHL1  H23A 5606   5.294   5.851   3.963
   60CHL1  H23B 5607   5.165   5.734   3.968
   60CHL1   C24 5608   5.327   5.688   4.103
   60CHL1  H24A 5609   5.344   5.579   4.089
   60CHL1  H24B 5610   5.427   5.731   4.122
   60CHL1   C25 5611   5.237   5.710   4.221
   60CHL1   H25 5612   5.138   5.663   4.208
   60CHL1   C26 5613   5.307   5.642   4.343
   60CHL1  H26A 5614   5.249   5.651   4.438
   60CHL1  H26B 5615   5.328   5.536   4.316
   60CHL1  H26C 5616   5.405   5.688   4.367
   60CHL1   C27 5617   5.217   5.862   4.248
   60CHL1  H27A 5618   5.316   5.910   4.264
   60CHL1  H27B 5619   5.171   5.904   4.156
   60CHL1  H27C 5620   5.144   5.878   4.330
   61CHL1    C3 5621   5.111   2.365   3.237
   61CHL1    H3 5622   5.003   2.352   3.262
   61CHL1    O3 5623   5.111   2.409   3.101
   61CHL1   H3' 5624   5.206   2.424   3.097
   61CHL1    C4 5625   5.177   2.463   3.331
   61CHL1   H4A 5626   5.275   2.487   3.285
   61CHL1   H4B 5627   5.124   2.561   3.332
   61CHL1    C5 5628   5.199   2.415   3.468
   61CHL1    C6 5629   5.169   2.488   3.578
   61CHL1    H6 5630   5.121   2.587   3.576
   61CHL1    C7 5631   5.182   2.429   3.717
   61CHL1   H7A 5632   5.212   2.515   3.780
   61CHL1   H7B 5633   5.082   2.389   3.743
   61CHL1    C8 5634   5.269   2.306   3.732
   61CHL1    H8 5635   5.374   2.340   3.723
   61CHL1   C14 5636   5.250   2.239   3.865
   61CHL1   H14 5637   5.141   2.218   3.877
   61CHL1   C15 5638   5.295   2.320   3.981
   61CHL1  H15A 5639   5.404   2.335   3.966
   61CHL1  H15B 5640   5.250   2.419   4.002
   61CHL1   C16 5641   5.276   2.221   4.102
   61CHL1  H16A 5642   5.353   2.247   4.177
   61CHL1  H16B 5643   5.176   2.241   4.146
   61CHL1   C17 5644   5.263   2.081   4.035
   61CHL1   H17 5645   5.156   2.052   4.024
   61CHL1   C13 5646   5.316   2.101   3.889
   61CHL1   C18 5647   5.474   2.104   3.880
   61CHL1  H18A 5648   5.522   2.166   3.959
   61CHL1  H18B 5649   5.506   1.999   3.899
   61CHL1  H18C 5650   5.500   2.149   3.782
   61CHL1   C12 5651   5.256   2.017   3.774
   61CHL1  H12A 5652   5.309   1.921   3.791
   61CHL1  H12B 5653   5.147   1.997   3.777
   61CHL1   C11 5654   5.285   2.064   3.634
   61CHL1  H11A 5655   5.396   2.072   3.625
   61CHL1  H11B 5656   5.255   1.992   3.555
   61CHL1    C9 5657   5.227   2.202   3.621
   61CHL1    H9 5658   5.119   2.182   3.633
   61CHL1   C10 5659   5.243   2.265   3.483
   61CHL1   C19 5660   5.399   2.254   3.446
   61CHL1  H19A 5661   5.421   2.308   3.351
   61CHL1  H19B 5662   5.463   2.307   3.520
   61CHL1  H19C 5663   5.430   2.148   3.446
   61CHL1    C1 5664   5.171   2.170   3.380
   61CHL1   H1A 5665   5.211   2.068   3.396
   61CHL1   H1B 5666   5.062   2.184   3.402
   61CHL1    C2 5667   5.177   2.226   3.237
   61CHL1   H2A 5668   5.115   2.162   3.172
   61CHL1   H2B 5669   5.277   2.240   3.191
   61CHL1   C20 5670   5.331   1.975   4.123
   61CHL1   H20 5671   5.440   1.997   4.128
   61CHL1   C21 5672   5.306   1.830   4.059
   61CHL1  H21A 5673   5.292   1.755   4.140
   61CHL1  H21B 5674   5.381   1.799   3.983
   61CHL1  H21C 5675   5.216   1.836   3.995
   61CHL1   C22 5676   5.279   1.980   4.270
   61CHL1  H22A 5677   5.290   2.081   4.314
   61CHL1  H22B 5678   5.168   1.978   4.273
   61CHL1   C23 5679   5.343   1.885   4.373
   61CHL1  H23A 5680   5.308   1.781   4.356
   61CHL1  H23B 5681   5.453   1.870   4.376
   61CHL1   C24 5682   5.301   1.928   4.511
   61CHL1  H24A 5683   5.377   1.999   4.549
   61CHL1  H24B 5684   5.205   1.983   4.519
   61CHL1   C25 5685   5.303   1.819   4.620
   61CHL1   H25 5686   5.402   1.771   4.607
   61CHL1   C26 5687   5.298   1.887   4.760
   61CHL1  H26A 5688   5.195   1.926   4.778
   61CHL1  H26B 5689   5.321   1.804   4.830
   61CHL1  H26C 5690   5.370   1.970   4.777
   61CHL1   C27 5691   5.187   1.725   4.595
   61CHL1  H27A 5692   5.172   1.670   4.691
   61CHL1  H27B 5693   5.098   1.789   4.576
   61CHL1  H27C 5694   5.200   1.658   4.507
   62CHL1    C3 5695   1.330   0.731   2.983
   62CHL1    H3 5696   1.281   0.825   3.017
   62CHL1    O3 5697   1.355   0.740   2.845
   62CHL1   H3' 5698   1.393   0.658   2.811
   62CHL1    C4 5699   1.468   0.710   3.055
   62CHL1   H4A 5700   1.524   0.617   3.031
   62CHL1   H4B 5701   1.540   0.787   3.018
   62CHL1    C5 5702   1.443   0.715   3.204
   62CHL1    C6 5703   1.499   0.805   3.287
   62CHL1    H6 5704   1.558   0.890   3.249
   62CHL1    C7 5705   1.484   0.807   3.437
   62CHL1   H7A 5706   1.585   0.823   3.480
   62CHL1   H7B 5707   1.416   0.890   3.463
   62CHL1    C8 5708   1.422   0.680   3.491
   62CHL1    H8 5709   1.505   0.607   3.503
   62CHL1   C14 5710   1.365   0.703   3.631
   62CHL1   H14 5711   1.276   0.768   3.613
   62CHL1   C15 5712   1.461   0.764   3.731
   62CHL1  H15A 5713   1.561   0.714   3.731
   62CHL1  H15B 5714   1.477   0.870   3.702
   62CHL1   C16 5715   1.389   0.744   3.866
   62CHL1  H16A 5716   1.461   0.703   3.940
   62CHL1  H16B 5717   1.335   0.836   3.896
   62CHL1   C17 5718   1.270   0.652   3.827
   62CHL1   H17 5719   1.185   0.722   3.807
   62CHL1   C13 5720   1.309   0.586   3.696
   62CHL1   C18 5721   1.416   0.476   3.717
   62CHL1  H18A 5722   1.498   0.509   3.784
   62CHL1  H18B 5723   1.375   0.380   3.754
   62CHL1  H18C 5724   1.468   0.457   3.620
   62CHL1   C12 5725   1.197   0.532   3.611
   62CHL1  H12A 5726   1.164   0.431   3.644
   62CHL1  H12B 5727   1.109   0.600   3.614
   62CHL1   C11 5728   1.226   0.513   3.461
   62CHL1  H11A 5729   1.279   0.416   3.451
   62CHL1  H11B 5730   1.129   0.501   3.407
   62CHL1    C9 5731   1.311   0.624   3.401
   62CHL1    H9 5732   1.243   0.711   3.393
   62CHL1   C10 5733   1.343   0.601   3.252
   62CHL1   C19 5734   1.420   0.464   3.238
   62CHL1  H19A 5735   1.518   0.469   3.290
   62CHL1  H19B 5736   1.360   0.376   3.269
   62CHL1  H19C 5737   1.445   0.451   3.131
   62CHL1    C1 5738   1.211   0.604   3.169
   62CHL1   H1A 5739   1.150   0.513   3.191
   62CHL1   H1B 5740   1.143   0.691   3.184
   62CHL1    C2 5741   1.242   0.614   3.012
   62CHL1   H2A 5742   1.144   0.619   2.958
   62CHL1   H2B 5743   1.289   0.516   2.989
   62CHL1   C20 5744   1.214   0.573   3.947
   62CHL1   H20 5745   1.302   0.555   4.013
   62CHL1   C21 5746   1.140   0.439   3.918
   62CHL1  H21A 5747   1.043   0.453   3.868
   62CHL1  H21B 5748   1.120   0.397   4.019
   62CHL1  H21C 5749   1.202   0.360   3.869
   62CHL1   C22 5750   1.118   0.650   4.032
   62CHL1  H22A 5751   1.148   0.757   4.024
   62CHL1  H22B 5752   1.013   0.648   3.994
   62CHL1   C23 5753   1.129   0.605   4.182
   62CHL1  H23A 5754   1.086   0.506   4.208
   62CHL1  H23B 5755   1.236   0.611   4.214
   62CHL1   C24 5756   1.043   0.712   4.260
   62CHL1  H24A 5757   0.991   0.794   4.206
   62CHL1  H24B 5758   0.964   0.652   4.311
   62CHL1   C25 5759   1.122   0.780   4.363
   62CHL1   H25 5760   1.187   0.699   4.403
   62CHL1   C26 5761   1.221   0.879   4.305
   62CHL1  H26A 5762   1.296   0.922   4.375
   62CHL1  H26B 5763   1.284   0.825   4.231
   62CHL1  H26C 5764   1.158   0.963   4.269
   62CHL1   C27 5765   1.040   0.849   4.467
   62CHL1  H27A 5766   0.986   0.932   4.416
   62CHL1  H27B 5767   0.963   0.777   4.501
   62CHL1  H27C 5768   1.101   0.891   4.549
   63CHL1    C3 5769   4.158   5.109   2.396
   63CHL1    H3 5770   4.088   5.023   2.409
   63CHL1    O3 5771   4.150   5.157   2.258
   63CHL1   H3' 5772   4.086   5.095   2.223
   63CHL1    C4 5773   4.117   5.220   2.497
   63CHL1   H4A 5774   4.189   5.302   2.473
   63CHL1   H4B 5775   4.015   5.254   2.472
   63CHL1    C5 5776   4.125   5.179   2.637
   63CHL1    C6 5777   4.015   5.179   2.719
   63CHL1    H6 5778   3.932   5.236   2.677
   63CHL1    C7 5779   4.014   5.135   2.861
   63CHL1   H7A 5780   3.950   5.200   2.924
   63CHL1   H7B 5781   3.972   5.034   2.879
   63CHL1    C8 5782   4.152   5.117   2.918
   63CHL1    H8 5783   4.195   5.219   2.926
   63CHL1   C14 5784   4.153   5.060   3.061
   63CHL1   H14 5785   4.110   4.958   3.052
   63CHL1   C15 5786   4.062   5.126   3.167
   63CHL1  H15A 5787   4.067   5.236   3.151
   63CHL1  H15B 5788   3.957   5.091   3.161
   63CHL1   C16 5789   4.123   5.094   3.300
   63CHL1  H16A 5790   4.137   5.189   3.356
   63CHL1  H16B 5791   4.043   5.038   3.353
   63CHL1   C17 5792   4.254   5.011   3.263
   63CHL1   H17 5793   4.219   4.906   3.257
   63CHL1   C13 5794   4.290   5.052   3.118
   63CHL1   C18 5795   4.353   5.192   3.122
   63CHL1  H18A 5796   4.288   5.273   3.161
   63CHL1  H18B 5797   4.450   5.174   3.173
   63CHL1  H18C 5798   4.379   5.232   3.022
   63CHL1   C12 5799   4.353   4.945   3.024
   63CHL1  H12A 5800   4.448   4.912   3.070
   63CHL1  H12B 5801   4.280   4.862   3.034
   63CHL1   C11 5802   4.370   4.990   2.881
   63CHL1  H11A 5803   4.450   5.067   2.886
   63CHL1  H11B 5804   4.411   4.904   2.823
   63CHL1    C9 5805   4.235   5.030   2.816
   63CHL1    H9 5806   4.181   4.936   2.791
   63CHL1   C10 5807   4.257   5.100   2.677
   63CHL1   C19 5808   4.372   5.203   2.690
   63CHL1  H19A 5809   4.358   5.266   2.782
   63CHL1  H19B 5810   4.472   5.156   2.700
   63CHL1  H19C 5811   4.378   5.275   2.606
   63CHL1    C1 5812   4.299   4.999   2.567
   63CHL1   H1A 5813   4.388   4.939   2.596
   63CHL1   H1B 5814   4.225   4.917   2.575
   63CHL1    C2 5815   4.298   5.046   2.424
   63CHL1   H2A 5816   4.304   4.959   2.355
   63CHL1   H2B 5817   4.382   5.117   2.411
   63CHL1   C20 5818   4.358   5.022   3.376
   63CHL1   H20 5819   4.392   5.128   3.385
   63CHL1   C21 5820   4.487   4.941   3.341
   63CHL1  H21A 5821   4.545   4.992   3.261
   63CHL1  H21B 5822   4.458   4.840   3.307
   63CHL1  H21C 5823   4.553   4.923   3.428
   63CHL1   C22 5824   4.298   4.978   3.515
   63CHL1  H22A 5825   4.194   5.015   3.526
   63CHL1  H22B 5826   4.293   4.867   3.525
   63CHL1   C23 5827   4.371   5.053   3.632
   63CHL1  H23A 5828   4.481   5.036   3.625
   63CHL1  H23B 5829   4.362   5.161   3.607
   63CHL1   C24 5830   4.318   5.020   3.767
   63CHL1  H24A 5831   4.213   5.057   3.771
   63CHL1  H24B 5832   4.311   4.909   3.772
   63CHL1   C25 5833   4.397   5.083   3.885
   63CHL1   H25 5834   4.403   5.192   3.864
   63CHL1   C26 5835   4.323   5.067   4.023
   63CHL1  H26A 5836   4.230   5.128   4.024
   63CHL1  H26B 5837   4.305   4.958   4.027
   63CHL1  H26C 5838   4.397   5.096   4.102
   63CHL1   C27 5839   4.533   5.014   3.893
   63CHL1  H27A 5840   4.585   5.052   3.983
   63CHL1  H27B 5841   4.514   4.905   3.899
   63CHL1  H27C 5842   4.596   5.038   3.805
   64CHL1    C3 5843   2.741   2.977   2.516
   64CHL1    H3 5844   2.816   3.042   2.567
   64CHL1    O3 5845   2.727   3.003   2.374
   64CHL1   H3' 5846   2.670   2.938   2.334
   64CHL1    C4 5847   2.774   2.832   2.541
   64CHL1   H4A 5848   2.691   2.773   2.496
   64CHL1   H4B 5849   2.870   2.814   2.489
   64CHL1    C5 5850   2.783   2.801   2.686
   64CHL1    C6 5851   2.899   2.749   2.736
   64CHL1    H6 5852   2.988   2.720   2.679
   64CHL1    C7 5853   2.901   2.712   2.882
   64CHL1   H7A 5854   2.966   2.623   2.896
   64CHL1   H7B 5855   2.973   2.777   2.937
   64CHL1    C8 5856   2.780   2.713   2.962
   64CHL1    H8 5857   2.720   2.623   2.937
   64CHL1   C14 5858   2.800   2.712   3.116
   64CHL1   H14 5859   2.851   2.808   3.139
   64CHL1   C15 5860   2.886   2.606   3.182
   64CHL1  H15A 5861   2.863   2.504   3.144
   64CHL1  H15B 5862   2.995   2.619   3.167
   64CHL1   C16 5863   2.849   2.601   3.333
   64CHL1  H16A 5864   2.820   2.495   3.351
   64CHL1  H16B 5865   2.932   2.625   3.402
   64CHL1   C17 5866   2.726   2.701   3.340
   64CHL1   H17 5867   2.775   2.796   3.368
   64CHL1   C13 5868   2.667   2.712   3.197
   64CHL1   C18 5869   2.581   2.590   3.174
   64CHL1  H18A 5870   2.536   2.581   3.073
   64CHL1  H18B 5871   2.648   2.502   3.186
   64CHL1  H18C 5872   2.496   2.588   3.246
   64CHL1   C12 5873   2.601   2.851   3.169
   64CHL1  H12A 5874   2.508   2.867   3.228
   64CHL1  H12B 5875   2.669   2.933   3.199
   64CHL1   C11 5876   2.571   2.862   3.023
   64CHL1  H11A 5877   2.487   2.789   3.009
   64CHL1  H11B 5878   2.542   2.966   2.998
   64CHL1    C9 5879   2.693   2.832   2.923
   64CHL1    H9 5880   2.765   2.916   2.935
   64CHL1   C10 5881   2.667   2.831   2.774
   64CHL1   C19 5882   2.558   2.722   2.742
   64CHL1  H19A 5883   2.461   2.745   2.791
   64CHL1  H19B 5884   2.532   2.714   2.634
   64CHL1  H19C 5885   2.593   2.624   2.781
   64CHL1    C1 5886   2.609   2.972   2.741
   64CHL1   H1A 5887   2.513   2.984   2.796
   64CHL1   H1B 5888   2.675   3.050   2.783
   64CHL1    C2 5889   2.603   3.000   2.590
   64CHL1   H2A 5890   2.562   3.102   2.575
   64CHL1   H2B 5891   2.536   2.933   2.532
   64CHL1   C20 5892   2.638   2.654   3.460
   64CHL1   H20 5893   2.600   2.553   3.432
   64CHL1   C21 5894   2.507   2.737   3.477
   64CHL1  H21A 5895   2.527   2.842   3.505
   64CHL1  H21B 5896   2.444   2.690   3.555
   64CHL1  H21C 5897   2.451   2.744   3.381
   64CHL1   C22 5898   2.717   2.655   3.590
   64CHL1  H22A 5899   2.819   2.617   3.569
   64CHL1  H22B 5900   2.722   2.762   3.617
   64CHL1   C23 5901   2.654   2.569   3.699
   64CHL1  H23A 5902   2.547   2.594   3.717
   64CHL1  H23B 5903   2.654   2.465   3.660
   64CHL1   C24 5904   2.735   2.576   3.833
   64CHL1  H24A 5905   2.835   2.536   3.806
   64CHL1  H24B 5906   2.748   2.682   3.862
   64CHL1   C25 5907   2.671   2.506   3.954
   64CHL1   H25 5908   2.566   2.540   3.970
   64CHL1   C26 5909   2.649   2.352   3.934
   64CHL1  H26A 5910   2.749   2.309   3.915
   64CHL1  H26B 5911   2.610   2.294   4.021
   64CHL1  H26C 5912   2.589   2.330   3.843
   64CHL1   C27 5913   2.750   2.518   4.092
   64CHL1  H27A 5914   2.840   2.454   4.084
   64CHL1  H27B 5915   2.789   2.622   4.103
   64CHL1  H27C 5916   2.688   2.481   4.176
   65CHL1    C3 5917   0.633   0.631   2.652
   65CHL1    H3 5918   0.624   0.742   2.662
   65CHL1    O3 5919   0.656   0.617   2.515
   65CHL1   H3' 5920   0.685   0.526   2.501
   65CHL1    C4 5921   0.766   0.595   2.721
   65CHL1   H4A 5922   0.787   0.494   2.678
   65CHL1   H4B 5923   0.859   0.650   2.696
   65CHL1    C5 5924   0.757   0.587   2.870
   65CHL1    C6 5925   0.835   0.655   2.947
   65CHL1    H6 5926   0.910   0.719   2.899
   65CHL1    C7 5927   0.829   0.643   3.096
   65CHL1   H7A 5928   0.930   0.614   3.132
   65CHL1   H7B 5929   0.796   0.739   3.140
   65CHL1    C8 5930   0.748   0.521   3.148
   65CHL1    H8 5931   0.809   0.432   3.118
   65CHL1   C14 5932   0.738   0.512   3.303
   65CHL1   H14 5933   0.690   0.608   3.331
   65CHL1   C15 5934   0.866   0.513   3.385
   65CHL1  H15A 5935   0.935   0.442   3.335
   65CHL1  H15B 5936   0.914   0.613   3.381
   65CHL1   C16 5937   0.816   0.475   3.526
   65CHL1  H16A 5938   0.884   0.392   3.555
   65CHL1  H16B 5939   0.822   0.561   3.597
   65CHL1   C17 5940   0.661   0.438   3.510
   65CHL1   H17 5941   0.611   0.536   3.528
   65CHL1   C13 5942   0.644   0.403   3.364
   65CHL1   C18 5943   0.700   0.252   3.345
   65CHL1  H18A 5944   0.614   0.185   3.367
   65CHL1  H18B 5945   0.736   0.235   3.242
   65CHL1  H18C 5946   0.780   0.246   3.423
   65CHL1   C12 5947   0.509   0.425   3.293
   65CHL1  H12A 5948   0.447   0.335   3.318
   65CHL1  H12B 5949   0.461   0.518   3.329
   65CHL1   C11 5950   0.516   0.423   3.140
   65CHL1  H11A 5951   0.556   0.321   3.120
   65CHL1  H11B 5952   0.411   0.427   3.102
   65CHL1    C9 5953   0.617   0.518   3.072
   65CHL1    H9 5954   0.583   0.622   3.089
   65CHL1   C10 5955   0.632   0.506   2.921
   65CHL1   C19 5956   0.656   0.353   2.886
   65CHL1  H19A 5957   0.701   0.333   2.786
   65CHL1  H19B 5958   0.727   0.304   2.956
   65CHL1  H19C 5959   0.560   0.298   2.892
   65CHL1    C1 5960   0.506   0.561   2.852
   65CHL1   H1A 5961   0.414   0.507   2.883
   65CHL1   H1B 5962   0.487   0.666   2.882
   65CHL1    C2 5963   0.512   0.548   2.701
   65CHL1   H2A 5964   0.411   0.575   2.662
   65CHL1   H2B 5965   0.534   0.445   2.668
   65CHL1   C20 5966   0.620   0.345   3.624
   65CHL1   H20 5967   0.669   0.247   3.605
   65CHL1   C21 5968   0.465   0.318   3.619
   65CHL1  H21A 5969   0.429   0.240   3.689
   65CHL1  H21B 5970   0.439   0.283   3.517
   65CHL1  H21C 5971   0.423   0.420   3.634
   65CHL1   C22 5972   0.660   0.379   3.775
   65CHL1  H22A 5973   0.763   0.421   3.784
   65CHL1  H22B 5974   0.595   0.461   3.811
   65CHL1   C23 5975   0.650   0.270   3.881
   65CHL1  H23A 5976   0.542   0.247   3.874
   65CHL1  H23B 5977   0.710   0.178   3.860
   65CHL1   C24 5978   0.675   0.312   4.023
   65CHL1  H24A 5979   0.782   0.337   4.011
   65CHL1  H24B 5980   0.619   0.401   4.058
   65CHL1   C25 5981   0.656   0.207   4.134
   65CHL1   H25 5982   0.546   0.191   4.143
   65CHL1   C26 5983   0.707   0.068   4.099
   65CHL1  H26A 5984   0.669   0.038   3.998
   65CHL1  H26B 5985   0.818   0.069   4.098
   65CHL1  H26C 5986   0.677   0.001   4.182
   65CHL1   C27 5987   0.723   0.252   4.262
   65CHL1  H27A 5988   0.831   0.259   4.238
   65CHL1  H27B 5989   0.679   0.349   4.296
   65CHL1  H27C 5990   0.705   0.178   4.343
   66CHL1    C3 5991   4.403   2.219   3.229
   66CHL1    H3 5992   4.511   2.231   3.254
   66CHL1    O3 5993   4.393   2.290   3.104
   66CHL1   H3' 5994   4.306   2.283   3.062
   66CHL1    C4 5995   4.370   2.073   3.205
   66CHL1   H4A 5996   4.279   2.064   3.143
   66CHL1   H4B 5997   4.450   2.030   3.141
   66CHL1    C5 5998   4.352   1.992   3.334
   66CHL1    C6 5999   4.425   1.879   3.354
   66CHL1    H6 6000   4.497   1.839   3.282
   66CHL1    C7 6001   4.399   1.793   3.473
   66CHL1   H7A 6002   4.379   1.686   3.452
   66CHL1   H7B 6003   4.495   1.791   3.529
   66CHL1    C8 6004   4.281   1.826   3.568
   66CHL1    H8 6005   4.183   1.791   3.528
   66CHL1   C14 6006   4.293   1.768   3.707
   66CHL1   H14 6007   4.386   1.804   3.756
   66CHL1   C15 6008   4.322   1.614   3.707
   66CHL1  H15A 6009   4.263   1.561   3.629
   66CHL1  H15B 6010   4.429   1.588   3.687
   66CHL1   C16 6011   4.271   1.565   3.845
   66CHL1  H16A 6012   4.191   1.490   3.827
   66CHL1  H16B 6013   4.362   1.527   3.897
   66CHL1   C17 6014   4.219   1.689   3.923
   66CHL1   H17 6015   4.301   1.740   3.977
   66CHL1   C13 6016   4.176   1.789   3.808
   66CHL1   C18 6017   4.036   1.743   3.748
   66CHL1  H18A 6018   3.960   1.761   3.828
   66CHL1  H18B 6019   4.002   1.797   3.658
   66CHL1  H18C 6020   4.041   1.634   3.727
   66CHL1   C12 6021   4.172   1.944   3.828
   66CHL1  H12A 6022   4.081   1.975   3.884
   66CHL1  H12B 6023   4.263   1.971   3.886
   66CHL1   C11 6024   4.174   2.014   3.689
   66CHL1  H11A 6025   4.074   2.014   3.641
   66CHL1  H11B 6026   4.174   2.124   3.707
   66CHL1    C9 6027   4.278   1.975   3.586
   66CHL1    H9 6028   4.374   1.995   3.636
   66CHL1   C10 6029   4.264   2.052   3.446
   66CHL1   C19 6030   4.124   2.044   3.399
   66CHL1  H19A 6031   4.116   2.076   3.293
   66CHL1  H19B 6032   4.087   1.941   3.419
   66CHL1  H19C 6033   4.069   2.117   3.462
   66CHL1    C1 6034   4.316   2.197   3.464
   66CHL1   H1A 6035   4.253   2.251   3.537
   66CHL1   H1B 6036   4.414   2.189   3.516
   66CHL1    C2 6037   4.316   2.282   3.337
   66CHL1   H2A 6038   4.348   2.386   3.364
   66CHL1   H2B 6039   4.212   2.281   3.298
   66CHL1   C20 6040   4.118   1.654   4.026
   66CHL1   H20 6041   4.028   1.622   3.971
   66CHL1   C21 6042   4.075   1.782   4.110
   66CHL1  H21A 6043   4.021   1.752   4.203
   66CHL1  H21B 6044   4.010   1.841   4.043
   66CHL1  H21C 6045   4.164   1.840   4.143
   66CHL1   C22 6046   4.166   1.533   4.115
   66CHL1  H22A 6047   4.081   1.521   4.186
   66CHL1  H22B 6048   4.166   1.435   4.064
   66CHL1   C23 6049   4.302   1.554   4.185
   66CHL1  H23A 6050   4.388   1.559   4.114
   66CHL1  H23B 6051   4.310   1.656   4.227
   66CHL1   C24 6052   4.321   1.457   4.306
   66CHL1  H24A 6053   4.234   1.474   4.373
   66CHL1  H24B 6054   4.321   1.348   4.282
   66CHL1   C25 6055   4.452   1.473   4.385
   66CHL1   H25 6056   4.466   1.578   4.419
   66CHL1   C26 6057   4.432   1.395   4.515
   66CHL1  H26A 6058   4.498   1.410   4.603
   66CHL1  H26B 6059   4.328   1.409   4.550
   66CHL1  H26C 6060   4.438   1.285   4.502
   66CHL1   C27 6061   4.578   1.417   4.315
   66CHL1  H27A 6062   4.567   1.306   4.308
   66CHL1  H27B 6063   4.668   1.441   4.375
   66CHL1  H27C 6064   4.584   1.465   4.215
   67CHL1    C3 6065   4.301   6.235   2.611
   67CHL1    H3 6066   4.224   6.299   2.660
   67CHL1    O3 6067   4.301   6.262   2.470
   67CHL1   H3' 6068   4.300   6.358   2.467
   67CHL1    C4 6069   4.438   6.256   2.679
   67CHL1   H4A 6070   4.516   6.198   2.625
   67CHL1   H4B 6071   4.466   6.362   2.661
   67CHL1    C5 6072   4.432   6.224   2.828
   67CHL1    C6 6073   4.476   6.316   2.912
   67CHL1    H6 6074   4.514   6.414   2.881
   67CHL1    C7 6075   4.471   6.301   3.059
   67CHL1   H7A 6076   4.567   6.337   3.101
   67CHL1   H7B 6077   4.382   6.361   3.089
   67CHL1    C8 6078   4.439   6.153   3.107
   67CHL1    H8 6079   4.526   6.085   3.096
   67CHL1   C14 6080   4.396   6.169   3.257
   67CHL1   H14 6081   4.297   6.218   3.243
   67CHL1   C15 6082   4.481   6.243   3.359
   67CHL1  H15A 6083   4.590   6.229   3.341
   67CHL1  H15B 6084   4.481   6.353   3.342
   67CHL1   C16 6085   4.422   6.189   3.495
   67CHL1  H16A 6086   4.498   6.134   3.553
   67CHL1  H16B 6087   4.372   6.265   3.558
   67CHL1   C17 6088   4.309   6.090   3.458
   67CHL1   H17 6089   4.225   6.158   3.432
   67CHL1   C13 6090   4.355   6.033   3.325
   67CHL1   C18 6091   4.488   5.954   3.352
   67CHL1  H18A 6092   4.511   5.905   3.255
   67CHL1  H18B 6093   4.572   6.007   3.402
   67CHL1  H18C 6094   4.459   5.863   3.410
   67CHL1   C12 6095   4.253   5.960   3.231
   67CHL1  H12A 6096   4.261   5.852   3.260
   67CHL1  H12B 6097   4.150   5.992   3.256
   67CHL1   C11 6098   4.281   5.961   3.080
   67CHL1  H11A 6099   4.363   5.886   3.072
   67CHL1  H11B 6100   4.187   5.930   3.029
   67CHL1    C9 6101   4.328   6.095   3.021
   67CHL1    H9 6102   4.237   6.158   3.024
   67CHL1   C10 6103   4.364   6.082   2.873
   67CHL1   C19 6104   4.470   5.970   2.839
   67CHL1  H19A 6105   4.487   5.972   2.730
   67CHL1  H19B 6106   4.563   5.992   2.897
   67CHL1  H19C 6107   4.428   5.871   2.869
   67CHL1    C1 6108   4.239   6.055   2.782
   67CHL1   H1A 6109   4.216   5.947   2.794
   67CHL1   H1B 6110   4.153   6.115   2.818
   67CHL1    C2 6111   4.260   6.088   2.632
   67CHL1   H2A 6112   4.172   6.053   2.573
   67CHL1   H2B 6113   4.345   6.031   2.588
   67CHL1   C20 6114   4.269   5.995   3.573
   67CHL1   H20 6115   4.358   5.936   3.605
   67CHL1   C21 6116   4.160   5.899   3.535
   67CHL1  H21A 6117   4.209   5.810   3.490
   67CHL1  H21B 6118   4.085   5.945   3.467
   67CHL1  H21C 6119   4.113   5.861   3.628
   67CHL1   C22 6120   4.229   6.071   3.702
   67CHL1  H22A 6121   4.289   6.164   3.712
   67CHL1  H22B 6122   4.126   6.113   3.701
   67CHL1   C23 6123   4.243   5.985   3.826
   67CHL1  H23A 6124   4.198   5.887   3.801
   67CHL1  H23B 6125   4.353   5.974   3.836
   67CHL1   C24 6126   4.175   6.044   3.955
   67CHL1  H24A 6127   4.229   6.137   3.983
   67CHL1  H24B 6128   4.069   6.056   3.924
   67CHL1   C25 6129   4.178   5.958   4.083
   67CHL1   H25 6130   4.143   5.855   4.063
   67CHL1   C26 6131   4.318   5.953   4.140
   67CHL1  H26A 6132   4.376   5.906   4.059
   67CHL1  H26B 6133   4.356   6.050   4.178
   67CHL1  H26C 6134   4.321   5.885   4.228
   67CHL1   C27 6135   4.082   6.008   4.191
   67CHL1  H27A 6136   3.976   6.002   4.159
   67CHL1  H27B 6137   4.089   5.943   4.280
   67CHL1  H27C 6138   4.104   6.114   4.218
   68CHL1    C3 6139   1.605   5.479   2.926
   68CHL1    H3 6140   1.713   5.495   2.907
   68CHL1    O3 6141   1.533   5.487   2.806
   68CHL1   H3' 6142   1.565   5.409   2.759
   68CHL1    C4 6143   1.584   5.340   2.993
   68CHL1   H4A 6144   1.474   5.321   2.994
   68CHL1   H4B 6145   1.624   5.259   2.927
   68CHL1    C5 6146   1.648   5.342   3.130
   68CHL1    C6 6147   1.738   5.246   3.166
   68CHL1    H6 6148   1.765   5.165   3.097
   68CHL1    C7 6149   1.803   5.226   3.298
   68CHL1   H7A 6150   1.775   5.127   3.340
   68CHL1   H7B 6151   1.912   5.242   3.282
   68CHL1    C8 6152   1.740   5.319   3.404
   68CHL1    H8 6153   1.650   5.268   3.445
   68CHL1   C14 6154   1.836   5.333   3.526
   68CHL1   H14 6155   1.921   5.398   3.498
   68CHL1   C15 6156   1.880   5.204   3.598
   68CHL1  H15A 6157   1.802   5.127   3.582
   68CHL1  H15B 6158   1.968   5.167   3.540
   68CHL1   C16 6159   1.907   5.250   3.740
   68CHL1  H16A 6160   1.848   5.180   3.804
   68CHL1  H16B 6161   2.013   5.232   3.771
   68CHL1   C17 6162   1.866   5.399   3.757
   68CHL1   H17 6163   1.956   5.461   3.735
   68CHL1   C13 6164   1.766   5.421   3.639
   68CHL1   C18 6165   1.630   5.354   3.674
   68CHL1  H18A 6166   1.558   5.356   3.590
   68CHL1  H18B 6167   1.637   5.248   3.705
   68CHL1  H18C 6168   1.594   5.425   3.751
   68CHL1   C12 6169   1.751   5.564   3.585
   68CHL1  H12A 6170   1.704   5.628   3.663
   68CHL1  H12B 6171   1.850   5.606   3.559
   68CHL1   C11 6172   1.670   5.564   3.456
   68CHL1  H11A 6173   1.565   5.549   3.489
   68CHL1  H11B 6174   1.662   5.667   3.416
   68CHL1    C9 6175   1.704   5.454   3.348
   68CHL1    H9 6176   1.805   5.479   3.308
   68CHL1   C10 6177   1.606   5.454   3.231
   68CHL1   C19 6178   1.466   5.424   3.282
   68CHL1  H19A 6179   1.430   5.490   3.364
   68CHL1  H19B 6180   1.385   5.434   3.207
   68CHL1  H19C 6181   1.445   5.320   3.317
   68CHL1    C1 6182   1.610   5.587   3.159
   68CHL1   H1A 6183   1.568   5.666   3.224
   68CHL1   H1B 6184   1.714   5.610   3.130
   68CHL1    C2 6185   1.542   5.585   3.019
   68CHL1   H2A 6186   1.555   5.688   2.979
   68CHL1   H2B 6187   1.434   5.564   3.036
   68CHL1   C20 6188   1.820   5.423   3.901
   68CHL1   H20 6189   1.721   5.375   3.917
   68CHL1   C21 6190   1.797   5.580   3.912
   68CHL1  H21A 6191   1.768   5.610   4.015
   68CHL1  H21B 6192   1.713   5.607   3.845
   68CHL1  H21C 6193   1.894   5.627   3.885
   68CHL1   C22 6194   1.917   5.373   4.007
   68CHL1  H22A 6195   2.006   5.328   3.959
   68CHL1  H22B 6196   1.961   5.456   4.066
   68CHL1   C23 6197   1.851   5.275   4.112
   68CHL1  H23A 6198   1.926   5.270   4.193
   68CHL1  H23B 6199   1.765   5.339   4.143
   68CHL1   C24 6200   1.798   5.140   4.067
   68CHL1  H24A 6201   1.728   5.153   3.982
   68CHL1  H24B 6202   1.882   5.072   4.043
   68CHL1   C25 6203   1.729   5.069   4.184
   68CHL1   H25 6204   1.788   5.090   4.275
   68CHL1   C26 6205   1.587   5.130   4.202
   68CHL1  H26A 6206   1.540   5.122   4.101
   68CHL1  H26B 6207   1.514   5.077   4.268
   68CHL1  H26C 6208   1.595   5.234   4.237
   68CHL1   C27 6209   1.723   4.915   4.160
   68CHL1  H27A 6210   1.656   4.903   4.072
   68CHL1  H27B 6211   1.822   4.875   4.129
   68CHL1  H27C 6212   1.686   4.864   4.251
   69CHL1    C3 6213   0.461   2.991   2.733
   69CHL1    H3 6214   0.351   3.002   2.727
   69CHL1    O3 6215   0.523   3.016   2.603
   69CHL1   H3' 6216   0.482   3.095   2.568
   69CHL1    C4 6217   0.519   3.104   2.829
   69CHL1   H4A 6218   0.625   3.113   2.797
   69CHL1   H4B 6219   0.473   3.196   2.785
   69CHL1    C5 6220   0.491   3.086   2.976
   69CHL1    C6 6221   0.438   3.182   3.052
   69CHL1    H6 6222   0.416   3.274   2.997
   69CHL1    C7 6223   0.415   3.168   3.199
   69CHL1   H7A 6224   0.430   3.267   3.249
   69CHL1   H7B 6225   0.311   3.134   3.217
   69CHL1    C8 6226   0.514   3.058   3.264
   69CHL1    H8 6227   0.619   3.094   3.258
   69CHL1   C14 6228   0.470   3.020   3.401
   69CHL1   H14 6229   0.383   2.951   3.391
   69CHL1   C15 6230   0.427   3.133   3.498
   69CHL1  H15A 6231   0.480   3.230   3.501
   69CHL1  H15B 6232   0.321   3.158   3.481
   69CHL1   C16 6233   0.447   3.066   3.636
   69CHL1  H16A 6234   0.510   3.130   3.701
   69CHL1  H16B 6235   0.348   3.056   3.685
   69CHL1   C17 6236   0.505   2.925   3.615
   69CHL1   H17 6237   0.414   2.861   3.608
   69CHL1   C13 6238   0.571   2.929   3.471
   69CHL1   C18 6239   0.705   2.997   3.479
   69CHL1  H18A 6240   0.699   3.084   3.547
   69CHL1  H18B 6241   0.773   2.921   3.525
   69CHL1  H18C 6242   0.759   3.008   3.382
   69CHL1   C12 6243   0.581   2.789   3.401
   69CHL1  H12A 6244   0.665   2.728   3.439
   69CHL1  H12B 6245   0.488   2.729   3.416
   69CHL1   C11 6246   0.592   2.818   3.247
   69CHL1  H11A 6247   0.701   2.840   3.243
   69CHL1  H11B 6248   0.592   2.730   3.178
   69CHL1    C9 6249   0.516   2.930   3.178
   69CHL1    H9 6250   0.412   2.891   3.184
   69CHL1   C10 6251   0.542   2.947   3.028
   69CHL1   C19 6252   0.695   2.952   3.006
   69CHL1  H19A 6253   0.736   2.849   3.012
   69CHL1  H19B 6254   0.724   2.984   2.904
   69CHL1  H19C 6255   0.747   3.014   3.083
   69CHL1    C1 6256   0.478   2.837   2.939
   69CHL1   H1A 6257   0.523   2.743   2.976
   69CHL1   H1B 6258   0.367   2.838   2.952
   69CHL1    C2 6259   0.498   2.856   2.784
   69CHL1   H2A 6260   0.451   2.772   2.729
   69CHL1   H2B 6261   0.607   2.840   2.771
   69CHL1   C20 6262   0.581   2.873   3.737
   69CHL1   H20 6263   0.680   2.922   3.736
   69CHL1   C21 6264   0.615   2.728   3.719
   69CHL1  H21A 6265   0.680   2.686   3.799
   69CHL1  H21B 6266   0.688   2.728   3.636
   69CHL1  H21C 6267   0.524   2.669   3.697
   69CHL1   C22 6268   0.508   2.898   3.873
   69CHL1  H22A 6269   0.445   2.989   3.872
   69CHL1  H22B 6270   0.436   2.814   3.881
   69CHL1   C23 6271   0.610   2.892   3.984
   69CHL1  H23A 6272   0.647   2.787   3.983
   69CHL1  H23B 6273   0.696   2.957   3.957
   69CHL1   C24 6274   0.547   2.929   4.116
   69CHL1  H24A 6275   0.533   3.038   4.102
   69CHL1  H24B 6276   0.458   2.864   4.131
   69CHL1   C25 6277   0.651   2.920   4.230
   69CHL1   H25 6278   0.702   2.823   4.212
   69CHL1   C26 6279   0.764   3.032   4.224
   69CHL1  H26A 6280   0.829   3.017   4.312
   69CHL1  H26B 6281   0.824   3.018   4.131
   69CHL1  H26C 6282   0.715   3.131   4.214
   69CHL1   C27 6283   0.583   2.909   4.362
   69CHL1  H27A 6284   0.523   3.003   4.362
   69CHL1  H27B 6285   0.516   2.821   4.357
   69CHL1  H27C 6286   0.647   2.896   4.452
   70CHL1    C3 6287   2.275   0.404   2.568
   70CHL1    H3 6288   2.295   0.511   2.543
   70CHL1    O3 6289   2.263   0.328   2.452
   70CHL1   H3' 6290   2.168   0.320   2.440
   70CHL1    C4 6291   2.398   0.353   2.642
   70CHL1   H4A 6292   2.384   0.245   2.665
   70CHL1   H4B 6293   2.487   0.353   2.576
   70CHL1    C5 6294   2.418   0.429   2.778
   70CHL1    C6 6295   2.520   0.516   2.800
   70CHL1    H6 6296   2.592   0.523   2.717
   70CHL1    C7 6297   2.540   0.582   2.931
   70CHL1   H7A 6298   2.648   0.574   2.956
   70CHL1   H7B 6299   2.514   0.687   2.906
   70CHL1    C8 6300   2.448   0.537   3.053
   70CHL1    H8 6301   2.498   0.446   3.092
   70CHL1   C14 6302   2.447   0.643   3.161
   70CHL1   H14 6303   2.408   0.736   3.115
   70CHL1   C15 6304   2.576   0.696   3.230
   70CHL1  H15A 6305   2.650   0.616   3.252
   70CHL1  H15B 6306   2.623   0.770   3.162
   70CHL1   C16 6307   2.527   0.766   3.354
   70CHL1  H16A 6308   2.579   0.720   3.441
   70CHL1  H16B 6309   2.547   0.875   3.348
   70CHL1   C17 6310   2.373   0.736   3.359
   70CHL1   H17 6311   2.326   0.816   3.297
   70CHL1   C13 6312   2.352   0.610   3.274
   70CHL1   C18 6313   2.393   0.486   3.354
   70CHL1  H18A 6314   2.393   0.388   3.301
   70CHL1  H18B 6315   2.490   0.505   3.404
   70CHL1  H18C 6316   2.317   0.462   3.431
   70CHL1   C12 6317   2.211   0.597   3.217
   70CHL1  H12A 6318   2.136   0.590   3.299
   70CHL1  H12B 6319   2.194   0.701   3.182
   70CHL1   C11 6320   2.205   0.495   3.107
   70CHL1  H11A 6321   2.235   0.400   3.157
   70CHL1  H11B 6322   2.106   0.481   3.059
   70CHL1    C9 6323   2.310   0.526   2.997
   70CHL1    H9 6324   2.267   0.618   2.952
   70CHL1   C10 6325   2.300   0.423   2.874
   70CHL1   C19 6326   2.287   0.281   2.944
   70CHL1  H19A 6327   2.301   0.203   2.865
   70CHL1  H19B 6328   2.370   0.266   3.016
   70CHL1  H19C 6329   2.190   0.267   2.996
   70CHL1    C1 6330   2.171   0.454   2.795
   70CHL1   H1A 6331   2.086   0.429   2.862
   70CHL1   H1B 6332   2.154   0.560   2.769
   70CHL1    C2 6333   2.152   0.377   2.655
   70CHL1   H2A 6334   2.056   0.413   2.615
   70CHL1   H2B 6335   2.136   0.268   2.668
   70CHL1   C20 6336   2.315   0.746   3.499
   70CHL1   H20 6337   2.216   0.695   3.492
   70CHL1   C21 6338   2.307   0.893   3.520
   70CHL1  H21A 6339   2.254   0.920   3.614
   70CHL1  H21B 6340   2.228   0.928   3.451
   70CHL1  H21C 6341   2.398   0.951   3.494
   70CHL1   C22 6342   2.400   0.685   3.611
   70CHL1  H22A 6343   2.448   0.594   3.568
   70CHL1  H22B 6344   2.474   0.754   3.656
   70CHL1   C23 6345   2.304   0.645   3.730
   70CHL1  H23A 6346   2.249   0.740   3.746
   70CHL1  H23B 6347   2.233   0.568   3.694
   70CHL1   C24 6348   2.379   0.608   3.856
   70CHL1  H24A 6349   2.424   0.507   3.852
   70CHL1  H24B 6350   2.467   0.672   3.877
   70CHL1   C25 6351   2.291   0.586   3.979
   70CHL1   H25 6352   2.200   0.529   3.953
   70CHL1   C26 6353   2.373   0.525   4.089
   70CHL1  H26A 6354   2.312   0.529   4.182
   70CHL1  H26B 6355   2.402   0.421   4.065
   70CHL1  H26C 6356   2.463   0.586   4.113
   70CHL1   C27 6357   2.241   0.725   4.024
   70CHL1  H27A 6358   2.173   0.736   4.110
   70CHL1  H27B 6359   2.324   0.799   4.029
   70CHL1  H27C 6360   2.192   0.774   3.937
   71CHL1    C3 6361   5.771   5.830   2.707
   71CHL1    H3 6362   5.713   5.762   2.772
   71CHL1    O3 6363   5.763   5.797   2.572
   71CHL1   H3' 6364   5.780   5.879   2.524
   71CHL1    C4 6365   5.708   5.969   2.729
   71CHL1   H4A 6366   5.750   6.024   2.642
   71CHL1   H4B 6367   5.598   5.958   2.719
   71CHL1    C5 6368   5.737   6.038   2.863
   71CHL1    C6 6369   5.633   6.086   2.931
   71CHL1    H6 6370   5.528   6.080   2.898
   71CHL1    C7 6371   5.654   6.158   3.066
   71CHL1   H7A 6372   5.602   6.256   3.073
   71CHL1   H7B 6373   5.600   6.094   3.140
   71CHL1    C8 6374   5.800   6.183   3.109
   71CHL1    H8 6375   5.840   6.275   3.061
   71CHL1   C14 6376   5.809   6.214   3.259
   71CHL1   H14 6377   5.787   6.112   3.297
   71CHL1   C15 6378   5.713   6.315   3.322
   71CHL1  H15A 6379   5.709   6.414   3.272
   71CHL1  H15B 6380   5.615   6.264   3.337
   71CHL1   C16 6381   5.775   6.337   3.465
   71CHL1  H16A 6382   5.795   6.446   3.478
   71CHL1  H16B 6383   5.708   6.291   3.541
   71CHL1   C17 6384   5.910   6.262   3.460
   71CHL1   H17 6385   5.892   6.162   3.505
   71CHL1   C13 6386   5.950   6.241   3.311
   71CHL1   C18 6387   6.021   6.368   3.256
   71CHL1  H18A 6388   5.967   6.461   3.284
   71CHL1  H18B 6389   6.125   6.379   3.292
   71CHL1  H18C 6390   6.023   6.356   3.145
   71CHL1   C12 6391   6.025   6.113   3.271
   71CHL1  H12A 6392   6.129   6.115   3.312
   71CHL1  H12B 6393   5.982   6.027   3.326
   71CHL1   C11 6394   6.033   6.070   3.122
   71CHL1  H11A 6395   6.113   6.139   3.088
   71CHL1  H11B 6396   6.072   5.967   3.116
   71CHL1    C9 6397   5.892   6.066   3.063
   71CHL1    H9 6398   5.851   5.977   3.116
   71CHL1   C10 6399   5.880   6.041   2.913
   71CHL1   C19 6400   5.970   6.148   2.851
   71CHL1  H19A 6401   5.964   6.164   2.741
   71CHL1  H19B 6402   5.951   6.242   2.909
   71CHL1  H19C 6403   6.076   6.117   2.864
   71CHL1    C1 6404   5.941   5.897   2.886
   71CHL1   H1A 6405   6.050   5.903   2.907
   71CHL1   H1B 6406   5.900   5.818   2.953
   71CHL1    C2 6407   5.920   5.844   2.740
   71CHL1   H2A 6408   5.973   5.747   2.745
   71CHL1   H2B 6409   5.965   5.918   2.670
   71CHL1   C20 6410   6.013   6.332   3.554
   71CHL1   H20 6411   6.058   6.425   3.514
   71CHL1   C21 6412   6.132   6.226   3.571
   71CHL1  H21A 6413   6.213   6.260   3.638
   71CHL1  H21B 6414   6.185   6.208   3.475
   71CHL1  H21C 6415   6.079   6.133   3.601
   71CHL1   C22 6416   5.947   6.358   3.692
   71CHL1  H22A 6417   5.881   6.448   3.691
   71CHL1  H22B 6418   5.883   6.272   3.721
   71CHL1   C23 6419   6.039   6.393   3.810
   71CHL1  H23A 6420   5.975   6.414   3.899
   71CHL1  H23B 6421   6.092   6.298   3.830
   71CHL1   C24 6422   6.130   6.515   3.792
   71CHL1  H24A 6423   6.189   6.494   3.701
   71CHL1  H24B 6424   6.061   6.595   3.755
   71CHL1   C25 6425   6.223   6.555   3.906
   71CHL1   H25 6426   6.275   6.642   3.861
   71CHL1   C26 6427   6.152   6.587   4.036
   71CHL1  H26A 6428   6.213   6.572   4.127
   71CHL1  H26B 6429   6.109   6.689   4.039
   71CHL1  H26C 6430   6.070   6.513   4.046
   71CHL1   C27 6431   6.320   6.439   3.933
   71CHL1  H27A 6432   6.381   6.425   3.841
   71CHL1  H27B 6433   6.387   6.469   4.016
   71CHL1  H27C 6434   6.267   6.343   3.952
   72CHL1    C3 6435   0.045   4.821   2.589
   72CHL1    H3 6436   6.859   4.744   2.622
   72CHL1    O3 6437   0.081   4.799   2.452
   72CHL1   H3' 6438   0.129   4.872   2.411
   72CHL1    C4 6439   6.883   4.966   2.610
   72CHL1   H4A 6440   0.080   5.022   2.563
   72CHL1   H4B 6441   6.799   4.986   2.540
   72CHL1    C5 6442   6.866   5.006   2.755
   72CHL1    C6 6443   6.749   5.058   2.805
   72CHL1    H6 6444   6.673   5.079   2.729
   72CHL1    C7 6445   6.732   5.082   2.951
   72CHL1   H7A 6446   6.679   5.176   2.977
   72CHL1   H7B 6447   6.668   5.003   2.997
   72CHL1    C8 6448   6.863   5.099   3.034
   72CHL1    H8 6449   0.021   5.194   2.996
   72CHL1   C14 6450   6.840   5.096   3.188
   72CHL1   H14 6451   6.798   4.993   3.192
   72CHL1   C15 6452   6.728   5.182   3.247
   72CHL1  H15A 6453   6.757   5.285   3.217
   72CHL1  H15B 6454   6.627   5.154   3.209
   72CHL1   C16 6455   6.743   5.147   3.399
   72CHL1  H16A 6456   6.731   5.243   3.453
   72CHL1  H16B 6457   6.666   5.076   3.434
   72CHL1   C17 6458   0.003   5.095   3.419
   72CHL1   H17 6459   6.879   4.986   3.433
   72CHL1   C13 6460   0.068   5.106   3.278
   72CHL1   C18 6461   0.124   5.246   3.258
   72CHL1  H18A 6462   0.068   5.337   3.288
   72CHL1  H18B 6463   0.220   5.252   3.314
   72CHL1  H18C 6464   0.151   5.275   3.154
   72CHL1   C12 6465   0.161   4.990   3.238
   72CHL1  H12A 6466   0.260   5.005   3.286
   72CHL1  H12B 6467   0.112   4.893   3.262
   72CHL1   C11 6468   0.197   4.985   3.084
   72CHL1  H11A 6469   0.269   5.069   3.072
   72CHL1  H11B 6470   0.253   4.891   3.069
   72CHL1    C9 6471   0.076   4.987   2.998
   72CHL1    H9 6472   0.016   4.898   3.024
   72CHL1   C10 6473   0.101   4.969   2.844
   72CHL1   C19 6474   0.217   5.076   2.812
   72CHL1  H19A 6475   0.180   5.166   2.866
   72CHL1  H19B 6476   0.306   5.038   2.867
   72CHL1  H19C 6477   0.234   5.088   2.703
   72CHL1    C1 6478   0.152   4.823   2.812
   72CHL1   H1A 6479   0.253   4.825   2.858
   72CHL1   H1B 6480   0.098   4.746   2.871
   72CHL1    C2 6481   0.177   4.791   2.664
   72CHL1   H2A 6482   0.205   4.687   2.635
   72CHL1   H2B 6483   0.256   4.853   2.615
   72CHL1   C20 6484   0.072   5.167   3.543
   72CHL1   H20 6485   0.084   5.277   3.530
   72CHL1   C21 6486   0.214   5.100   3.558
   72CHL1  H21A 6487   0.276   5.154   3.634
   72CHL1  H21B 6488   0.279   5.118   3.470
   72CHL1  H21C 6489   0.208   4.989   3.566
   72CHL1   C22 6490   6.874   5.149   3.668
   72CHL1  H22A 6491   6.764   5.163   3.655
   72CHL1  H22B 6492   6.883   5.042   3.697
   72CHL1   C23 6493   0.050   5.231   3.781
   72CHL1  H23A 6494   0.144   5.186   3.820
   72CHL1  H23B 6495   0.083   5.329   3.740
   72CHL1   C24 6496   6.846   5.257   3.901
   72CHL1  H24A 6497   6.755   5.312   3.870
   72CHL1  H24B 6498   6.808   5.158   3.933
   72CHL1   C25 6499   0.010   5.338   4.024
   72CHL1   H25 6500   0.029   5.439   3.982
   72CHL1   C26 6501   6.802   5.351   4.150
   72CHL1  H26A 6502   6.709   5.397   4.111
   72CHL1  H26B 6503   6.781   5.247   4.184
   72CHL1  H26C 6504   6.849   5.406   4.233
   72CHL1   C27 6505   0.141   5.285   4.081
   72CHL1  H27A 6506   0.119   5.182   4.117
   72CHL1  H27B 6507   0.225   5.266   4.010
   72CHL1  H27C 6508   0.183   5.353   4.159
   73CHL1    C3 6509   1.084   5.209   2.880
   73CHL1    H3 6510   1.158   5.130   2.904
   73CHL1    O3 6511   1.064   5.212   2.740
   73CHL1   H3' 6512   1.014   5.291   2.716
   73CHL1    C4 6513   0.948   5.186   2.954
   73CHL1   H4A 6514   0.870   5.261   2.930
   73CHL1   H4B 6515   0.917   5.084   2.923
   73CHL1    C5 6516   0.960   5.208   3.103
   73CHL1    C6 6517   0.941   5.109   3.182
   73CHL1    H6 6518   0.914   5.013   3.133
   73CHL1    C7 6519   0.972   5.106   3.332
   73CHL1   H7A 6520   0.880   5.063   3.378
   73CHL1   H7B 6521   1.064   5.051   3.362
   73CHL1    C8 6522   0.983   5.245   3.388
   73CHL1    H8 6523   0.879   5.283   3.379
   73CHL1   C14 6524   1.038   5.244   3.530
   73CHL1   H14 6525   1.144   5.212   3.519
   73CHL1   C15 6526   0.961   5.157   3.641
   73CHL1  H15A 6527   0.855   5.169   3.610
   73CHL1  H15B 6528   1.012   5.059   3.640
   73CHL1   C16 6529   0.994   5.220   3.779
   73CHL1  H16A 6530   0.899   5.264   3.816
   73CHL1  H16B 6531   1.036   5.153   3.856
   73CHL1   C17 6532   1.093   5.324   3.728
   73CHL1   H17 6533   1.191   5.276   3.709
   73CHL1   C13 6534   1.045   5.379   3.594
   73CHL1   C18 6535   0.905   5.450   3.599
   73CHL1  H18A 6536   0.836   5.399   3.669
   73CHL1  H18B 6537   0.916   5.552   3.641
   73CHL1  H18C 6538   0.863   5.463   3.497
   73CHL1   C12 6539   1.144   5.457   3.503
   73CHL1  H12A 6540   1.153   5.562   3.536
   73CHL1  H12B 6541   1.242   5.406   3.511
   73CHL1   C11 6542   1.091   5.464   3.364
   73CHL1  H11A 6543   1.003   5.531   3.356
   73CHL1  H11B 6544   1.167   5.517   3.304
   73CHL1    C9 6545   1.071   5.326   3.301
   73CHL1    H9 6546   1.165   5.267   3.302
   73CHL1   C10 6547   1.031   5.333   3.149
   73CHL1   C19 6548   0.932   5.453   3.126
   73CHL1  H19A 6549   0.847   5.447   3.197
   73CHL1  H19B 6550   0.968   5.557   3.144
   73CHL1  H19C 6551   0.882   5.459   3.027
   73CHL1    C1 6552   1.157   5.361   3.065
   73CHL1   H1A 6553   1.190   5.466   3.085
   73CHL1   H1B 6554   1.235   5.286   3.090
   73CHL1    C2 6555   1.139   5.345   2.916
   73CHL1   H2A 6556   1.240   5.365   2.876
   73CHL1   H2B 6557   1.080   5.429   2.875
   73CHL1   C20 6558   1.137   5.435   3.825
   73CHL1   H20 6559   1.131   5.529   3.766
   73CHL1   C21 6560   1.284   5.412   3.873
   73CHL1  H21A 6561   1.284   5.313   3.923
   73CHL1  H21B 6562   1.314   5.498   3.936
   73CHL1  H21C 6563   1.342   5.408   3.778
   73CHL1   C22 6564   1.052   5.452   3.956
   73CHL1  H22A 6565   0.946   5.460   3.922
   73CHL1  H22B 6566   1.067   5.359   4.015
   73CHL1   C23 6567   1.088   5.579   4.034
   73CHL1  H23A 6568   1.185   5.555   4.083
   73CHL1  H23B 6569   1.112   5.671   3.977
   73CHL1   C24 6570   0.980   5.603   4.141
   73CHL1  H24A 6571   0.881   5.608   4.091
   73CHL1  H24B 6572   0.978   5.518   4.212
   73CHL1   C25 6573   1.003   5.733   4.215
   73CHL1   H25 6574   1.013   5.818   4.145
   73CHL1   C26 6575   0.867   5.747   4.288
   73CHL1  H26A 6576   0.771   5.752   4.234
   73CHL1  H26B 6577   0.861   5.664   4.362
   73CHL1  H26C 6578   0.872   5.840   4.348
   73CHL1   C27 6579   1.110   5.733   4.321
   73CHL1  H27A 6580   1.212   5.728   4.278
   73CHL1  H27B 6581   1.105   5.831   4.373
   73CHL1  H27C 6582   1.101   5.644   4.386
   74CHL1    C3 6583   0.948   4.445   2.532
   74CHL1    H3 6584   0.872   4.522   2.558
   74CHL1    O3 6585   0.952   4.421   2.394
   74CHL1   H3' 6586   1.029   4.366   2.378
   74CHL1    C4 6587   1.081   4.504   2.579
   74CHL1   H4A 6588   1.157   4.426   2.560
   74CHL1   H4B 6589   1.098   4.590   2.510
   74CHL1    C5 6590   1.072   4.544   2.726
   74CHL1    C6 6591   1.101   4.672   2.766
   74CHL1    H6 6592   1.137   4.749   2.697
   74CHL1    C7 6593   1.086   4.711   2.909
   74CHL1   H7A 6594   1.165   4.781   2.943
   74CHL1   H7B 6595   0.987   4.760   2.910
   74CHL1    C8 6596   1.094   4.592   3.013
   74CHL1    H8 6597   1.195   4.546   3.011
   74CHL1   C14 6598   1.046   4.637   3.151
   74CHL1   H14 6599   0.942   4.670   3.132
   74CHL1   C15 6600   1.127   4.747   3.217
   74CHL1  H15A 6601   1.233   4.732   3.189
   74CHL1  H15B 6602   1.096   4.849   3.188
   74CHL1   C16 6603   1.088   4.736   3.366
   74CHL1  H16A 6604   1.177   4.734   3.432
   74CHL1  H16B 6605   1.029   4.821   3.407
   74CHL1   C17 6606   1.007   4.604   3.379
   74CHL1   H17 6607   0.898   4.620   3.375
   74CHL1   C13 6608   1.043   4.528   3.254
   74CHL1   C18 6609   1.183   4.463   3.287
   74CHL1  H18A 6610   1.173   4.381   3.362
   74CHL1  H18B 6611   1.221   4.428   3.188
   74CHL1  H18C 6612   1.251   4.539   3.331
   74CHL1   C12 6613   0.937   4.426   3.203
   74CHL1  H12A 6614   0.923   4.352   3.285
   74CHL1  H12B 6615   0.838   4.475   3.214
   74CHL1   C11 6616   0.972   4.370   3.073
   74CHL1  H11A 6617   1.067   4.313   3.088
   74CHL1  H11B 6618   0.886   4.309   3.040
   74CHL1    C9 6619   0.992   4.487   2.967
   74CHL1    H9 6620   0.894   4.539   2.962
   74CHL1   C10 6621   1.025   4.430   2.822
   74CHL1   C19 6622   1.135   4.326   2.846
   74CHL1  H19A 6623   1.096   4.231   2.889
   74CHL1  H19B 6624   1.180   4.300   2.748
   74CHL1  H19C 6625   1.216   4.356   2.917
   74CHL1    C1 6626   0.902   4.361   2.758
   74CHL1   H1A 6627   0.872   4.280   2.828
   74CHL1   H1B 6628   0.825   4.442   2.759
   74CHL1    C2 6629   0.914   4.317   2.612
   74CHL1   H2A 6630   0.819   4.277   2.572
   74CHL1   H2B 6631   0.992   4.238   2.613
   74CHL1   C20 6632   1.024   4.541   3.522
   74CHL1   H20 6633   1.122   4.491   3.536
   74CHL1   C21 6634   0.920   4.426   3.528
   74CHL1  H21A 6635   0.962   4.335   3.480
   74CHL1  H21B 6636   0.821   4.447   3.483
   74CHL1  H21C 6637   0.890   4.395   3.631
   74CHL1   C22 6638   1.011   4.644   3.641
   74CHL1  H22A 6639   1.026   4.588   3.736
   74CHL1  H22B 6640   1.086   4.726   3.636
   74CHL1   C23 6641   0.869   4.699   3.655
   74CHL1  H23A 6642   0.854   4.771   3.572
   74CHL1  H23B 6643   0.783   4.628   3.662
   74CHL1   C24 6644   0.860   4.791   3.780
   74CHL1  H24A 6645   0.869   4.722   3.866
   74CHL1  H24B 6646   0.930   4.876   3.786
   74CHL1   C25 6647   0.719   4.858   3.790
   74CHL1   H25 6648   0.699   4.911   3.695
   74CHL1   C26 6649   0.616   4.751   3.829
   74CHL1  H26A 6650   0.519   4.799   3.855
   74CHL1  H26B 6651   0.600   4.680   3.745
   74CHL1  H26C 6652   0.642   4.690   3.918
   74CHL1   C27 6653   0.728   4.963   3.903
   74CHL1  H27A 6654   0.636   5.026   3.905
   74CHL1  H27B 6655   0.745   4.901   3.994
   74CHL1  H27C 6656   0.814   5.030   3.886
   75CHL1    C3 6657   0.721   3.447   2.771
   75CHL1    H3 6658   0.671   3.351   2.798
   75CHL1    O3 6659   0.708   3.451   2.628
   75CHL1   H3' 6660   0.619   3.483   2.612
   75CHL1    C4 6661   0.679   3.575   2.843
   75CHL1   H4A 6662   0.745   3.659   2.813
   75CHL1   H4B 6663   0.577   3.595   2.805
   75CHL1    C5 6664   0.677   3.558   2.988
   75CHL1    C6 6665   0.561   3.569   3.053
   75CHL1    H6 6666   0.474   3.604   2.995
   75CHL1    C7 6667   0.541   3.553   3.201
   75CHL1   H7A 6668   0.488   3.644   3.238
   75CHL1   H7B 6669   0.467   3.472   3.214
   75CHL1    C8 6670   0.672   3.530   3.274
   75CHL1    H8 6671   0.727   3.626   3.281
   75CHL1   C14 6672   0.646   3.476   3.416
   75CHL1   H14 6673   0.609   3.372   3.398
   75CHL1   C15 6674   0.538   3.532   3.510
   75CHL1  H15A 6675   0.545   3.642   3.498
   75CHL1  H15B 6676   0.435   3.499   3.482
   75CHL1   C16 6677   0.577   3.493   3.657
   75CHL1  H16A 6678   0.592   3.588   3.714
   75CHL1  H16B 6679   0.493   3.431   3.694
   75CHL1   C17 6680   0.711   3.415   3.642
   75CHL1   H17 6681   0.673   3.312   3.623
   75CHL1   C13 6682   0.765   3.462   3.507
   75CHL1   C18 6683   0.847   3.594   3.532
   75CHL1  H18A 6684   0.933   3.592   3.603
   75CHL1  H18B 6685   0.887   3.642   3.440
   75CHL1  H18C 6686   0.786   3.678   3.569
   75CHL1   C12 6687   0.864   3.359   3.444
   75CHL1  H12A 6688   0.956   3.344   3.504
   75CHL1  H12B 6689   0.815   3.259   3.436
   75CHL1   C11 6690   0.894   3.396   3.294
   75CHL1  H11A 6691   0.961   3.485   3.295
   75CHL1  H11B 6692   0.950   3.310   3.251
   75CHL1    C9 6693   0.765   3.429   3.203
   75CHL1    H9 6694   0.712   3.332   3.195
   75CHL1   C10 6695   0.798   3.500   3.063
   75CHL1   C19 6696   0.899   3.610   3.080
   75CHL1  H19A 6697   0.871   3.692   3.150
   75CHL1  H19B 6698   0.997   3.568   3.108
   75CHL1  H19C 6699   0.916   3.669   2.987
   75CHL1    C1 6700   0.860   3.389   2.976
   75CHL1   H1A 6701   0.966   3.375   3.007
   75CHL1   H1B 6702   0.809   3.295   3.008
   75CHL1    C2 6703   0.861   3.408   2.820
   75CHL1   H2A 6704   0.906   3.321   2.768
   75CHL1   H2B 6705   0.921   3.497   2.792
   75CHL1   C20 6706   0.804   3.426   3.763
   75CHL1   H20 6707   0.903   3.405   3.717
   75CHL1   C21 6708   0.778   3.304   3.845
   75CHL1  H21A 6709   0.785   3.214   3.780
   75CHL1  H21B 6710   0.672   3.300   3.879
   75CHL1  H21C 6711   0.847   3.297   3.931
   75CHL1   C22 6712   0.794   3.537   3.862
   75CHL1  H22A 6713   0.774   3.631   3.808
   75CHL1  H22B 6714   0.716   3.507   3.936
   75CHL1   C23 6715   0.935   3.570   3.929
   75CHL1  H23A 6716   0.964   3.492   4.002
   75CHL1  H23B 6717   1.014   3.582   3.851
   75CHL1   C24 6718   0.927   3.701   4.015
   75CHL1  H24A 6719   0.900   3.785   3.947
   75CHL1  H24B 6720   0.845   3.681   4.087
   75CHL1   C25 6721   1.052   3.740   4.086
   75CHL1   H25 6722   1.120   3.652   4.092
   75CHL1   C26 6723   1.130   3.851   4.006
   75CHL1  H26A 6724   1.232   3.850   4.050
   75CHL1  H26B 6725   1.142   3.825   3.898
   75CHL1  H26C 6726   1.081   3.949   4.022
   75CHL1   C27 6727   1.021   3.798   4.224
   75CHL1  H27A 6728   1.112   3.810   4.286
   75CHL1  H27B 6729   0.969   3.896   4.215
   75CHL1  H27C 6730   0.964   3.723   4.283
   76CHL1    C3 6731   6.352   4.958   2.679
   76CHL1    H3 6732   6.437   4.897   2.718
   76CHL1    O3 6733   6.342   4.938   2.541
   76CHL1   H3' 6734   6.270   4.990   2.505
   76CHL1    C4 6735   6.223   4.906   2.748
   76CHL1   H4A 6736   6.133   4.950   2.700
   76CHL1   H4B 6737   6.211   4.801   2.713
   76CHL1    C5 6738   6.232   4.922   2.903
   76CHL1    C6 6739   6.234   4.819   2.992
   76CHL1    H6 6740   6.214   4.721   2.946
   76CHL1    C7 6741   6.237   4.839   3.143
   76CHL1   H7A 6742   6.183   4.762   3.202
   76CHL1   H7B 6743   6.338   4.821   3.185
   76CHL1    C8 6744   6.189   4.982   3.186
   76CHL1    H8 6745   6.079   4.979   3.173
   76CHL1   C14 6746   6.222   5.004   3.332
   76CHL1   H14 6747   6.332   4.997   3.347
   76CHL1   C15 6748   6.173   4.901   3.443
   76CHL1  H15A 6749   6.067   4.881   3.421
   76CHL1  H15B 6750   6.242   4.814   3.438
   76CHL1   C16 6751   6.171   4.979   3.564
   76CHL1  H16A 6752   6.067   4.994   3.600
   76CHL1  H16B 6753   6.237   4.943   3.646
   76CHL1   C17 6754   6.211   5.129   3.533
   76CHL1   H17 6755   6.320   5.130   3.554
   76CHL1   C13 6756   6.179   5.147   3.387
   76CHL1   C18 6757   6.026   5.158   3.368
   76CHL1  H18A 6758   5.966   5.080   3.419
   76CHL1  H18B 6759   5.987   5.254   3.407
   76CHL1  H18C 6760   5.987   5.149   3.264
   76CHL1   C12 6761   6.266   5.250   3.307
   76CHL1  H12A 6762   6.247   5.356   3.334
   76CHL1  H12B 6763   6.374   5.234   3.329
   76CHL1   C11 6764   6.249   5.232   3.153
   76CHL1  H11A 6765   6.152   5.276   3.120
   76CHL1  H11B 6766   6.321   5.302   3.106
   76CHL1    C9 6767   6.261   5.085   3.099
   76CHL1    H9 6768   6.369   5.061   3.116
   76CHL1   C10 6769   6.242   5.067   2.948
   76CHL1   C19 6770   6.106   5.136   2.906
   76CHL1  H19A 6771   6.025   5.112   2.978
   76CHL1  H19B 6772   6.124   5.246   2.909
   76CHL1  H19C 6773   6.068   5.126   2.802
   76CHL1    C1 6774   6.355   5.135   2.872
   76CHL1   H1A 6775   6.353   5.245   2.890
   76CHL1   H1B 6776   6.456   5.107   2.911
   76CHL1    C2 6777   6.365   5.106   2.715
   76CHL1   H2A 6778   6.465   5.141   2.681
   76CHL1   H2B 6779   6.302   5.168   2.648
   76CHL1   C20 6780   6.151   5.231   3.631
   76CHL1   H20 6781   6.044   5.252   3.609
   76CHL1   C21 6782   6.230   5.366   3.616
   76CHL1  H21A 6783   6.202   5.443   3.690
   76CHL1  H21B 6784   6.189   5.408   3.521
   76CHL1  H21C 6785   6.338   5.339   3.612
   76CHL1   C22 6786   6.158   5.192   3.778
   76CHL1  H22A 6787   6.123   5.087   3.788
   76CHL1  H22B 6788   6.264   5.201   3.810
   76CHL1   C23 6789   6.079   5.273   3.880
   76CHL1  H23A 6790   6.087   5.383   3.866
   76CHL1  H23B 6791   5.972   5.240   3.875
   76CHL1   C24 6792   6.122   5.239   4.025
   76CHL1  H24A 6793   6.130   5.130   4.043
   76CHL1  H24B 6794   6.228   5.270   4.036
   76CHL1   C25 6795   6.042   5.288   4.146
   76CHL1   H25 6796   5.946   5.233   4.148
   76CHL1   C26 6797   6.130   5.269   4.274
   76CHL1  H26A 6798   6.219   5.334   4.263
   76CHL1  H26B 6799   6.093   5.317   4.367
   76CHL1  H26C 6800   6.169   5.169   4.304
   76CHL1   C27 6801   6.003   5.442   4.133
   76CHL1  H27A 6802   6.094   5.506   4.137
   76CHL1  H27B 6803   5.962   5.460   4.032
   76CHL1  H27C 6804   5.942   5.467   4.223
   77SOPE     N 6805   2.815   2.854   6.551
   77SOPE   HN1 6806   2.872   2.817   6.472
   77SOPE   HN2 6807   2.829   2.805   6.642
   77SOPE   HN3 6808   2.717   2.830   6.527
   77SOPE   C12 6809   2.819   3.003   6.569
   77SOPE  H12A 6810   2.740   3.030   6.643
   77SOPE  H12B 6811   2.805   3.045   6.467
   77SOPE   C11 6812   2.953   3.058   6.630
   77SOPE  H11A 6813   2.973   3.022   6.733
   77SOPE  H11B 6814   2.954   3.169   6.628
   77SOPE     P 6815   3.133   3.090   6.434
   77SOPE   O13 6816   3.247   3.013   6.385
   77SOPE   O14 6817   3.156   3.227   6.483
   77SOPE   O12 6818   3.054   3.008   6.542
   77SOPE   O11 6819   3.029   3.100   6.315
   77SOPE    C1 6820   2.966   3.220   6.271
   77SOPE    HA 6821   2.992   3.312   6.328
   77SOPE    HB 6822   2.858   3.223   6.295
   77SOPE    C2 6823   2.989   3.261   6.121
   77SOPE    HS 6824   2.903   3.319   6.082
   77SOPE   O21 6825   3.014   3.147   6.036
   77SOPE   C21 6826   2.914   3.057   6.033
   77SOPE   O22 6827   2.798   3.084   6.046
   77SOPE   C22 6828   2.970   2.924   5.996
   77SOPE   H2R 6829   3.024   2.885   6.085
   77SOPE   H2S 6830   3.043   2.934   5.913
   77SOPE    C3 6831   3.114   3.359   6.111
   77SOPE    HX 6832   3.200   3.290   6.118
   77SOPE    HY 6833   3.124   3.425   6.199
   77SOPE   O31 6834   3.126   3.430   5.986
   77SOPE   C31 6835   3.026   3.513   5.963
   77SOPE   O32 6836   2.944   3.548   6.046
   77SOPE   C32 6837   3.035   3.564   5.823
   77SOPE   H2X 6838   2.930   3.596   5.802
   77SOPE   H2Y 6839   3.069   3.478   5.762
   77SOPE   C23 6840   2.860   2.822   5.963
   77SOPE   H3R 6841   2.784   2.821   6.043
   77SOPE   H3S 6842   2.910   2.723   5.958
   77SOPE   C24 6843   2.789   2.852   5.831
   77SOPE   H4R 6844   2.705   2.778   5.831
   77SOPE   H4S 6845   2.758   2.959   5.838
   77SOPE   C25 6846   2.868   2.834   5.701
   77SOPE   H5R 6847   2.968   2.881   5.711
   77SOPE   H5S 6848   2.891   2.725   5.695
   77SOPE   C26 6849   2.804   2.893   5.571
   77SOPE   H6R 6850   2.701   2.850   5.569
   77SOPE   H6S 6851   2.799   3.004   5.575
   77SOPE   C27 6852   2.876   2.853   5.442
   77SOPE   H7R 6853   2.968   2.916   5.446
   77SOPE   H7S 6854   2.909   2.747   5.448
   77SOPE   C28 6855   2.805   2.864   5.304
   77SOPE   H8R 6856   2.850   2.815   5.215
   77SOPE   H8S 6857   2.718   2.794   5.306
   77SOPE   C29 6858   2.742   2.996   5.263
   77SOPE   H91 6859   2.717   3.072   5.339
   77SOPE  C210 6860   2.733   3.039   5.143
   77SOPE  H101 6861   2.680   3.135   5.133
   77SOPE  C211 6862   2.773   2.968   5.017
   77SOPE  H11R 6863   2.678   2.922   4.984
   77SOPE  H11S 6864   2.842   2.882   5.026
   77SOPE  C212 6865   2.832   3.057   4.909
   77SOPE  H12R 6866   2.851   2.985   4.827
   77SOPE  H12S 6867   2.930   3.099   4.938
   77SOPE  C213 6868   2.750   3.169   4.841
   77SOPE  H13R 6869   2.710   3.234   4.922
   77SOPE  H13S 6870   2.650   3.140   4.802
   77SOPE  C214 6871   2.825   3.250   4.745
   77SOPE  H14R 6872   2.923   3.286   4.784
   77SOPE  H14S 6873   2.778   3.343   4.706
   77SOPE  C215 6874   2.859   3.162   4.624
   77SOPE  H15R 6875   2.764   3.116   4.590
   77SOPE  H15S 6876   2.933   3.086   4.656
   77SOPE  C216 6877   2.923   3.235   4.502
   77SOPE  H16R 6878   3.032   3.248   4.514
   77SOPE  H16S 6879   2.882   3.336   4.481
   77SOPE  C217 6880   2.900   3.150   4.374
   77SOPE  H17R 6881   2.922   3.046   4.405
   77SOPE  H17S 6882   2.976   3.184   4.301
   77SOPE  C218 6883   2.768   3.162   4.309
   77SOPE  H18R 6884   2.717   3.259   4.295
   77SOPE  H18S 6885   2.685   3.116   4.369
   77SOPE  H18T 6886   2.760   3.119   4.207
   77SOPE   C33 6887   3.119   3.687   5.801
   77SOPE   H3X 6888   3.222   3.667   5.838
   77SOPE   H3Y 6889   3.080   3.775   5.856
   77SOPE   C34 6890   3.137   3.734   5.651
   77SOPE   H4X 6891   3.191   3.831   5.644
   77SOPE   H4Y 6892   3.038   3.751   5.604
   77SOPE   C35 6893   3.222   3.642   5.555
   77SOPE   H5X 6894   3.179   3.540   5.542
   77SOPE   H5Y 6895   3.317   3.622   5.609
   77SOPE   C36 6896   3.263   3.711   5.416
   77SOPE   H6X 6897   3.324   3.799   5.446
   77SOPE   H6Y 6898   3.167   3.740   5.369
   77SOPE   C37 6899   3.336   3.617   5.326
   77SOPE   H7X 6900   3.283   3.520   5.316
   77SOPE   H7Y 6901   3.433   3.584   5.369
   77SOPE   C38 6902   3.358   3.672   5.181
   77SOPE   H8X 6903   3.420   3.763   5.195
   77SOPE   H8Y 6904   3.259   3.712   5.147
   77SOPE   C39 6905   3.405   3.574   5.074
   77SOPE   H9X 6906   3.350   3.480   5.098
   77SOPE   H9Y 6907   3.512   3.547   5.082
   77SOPE  C310 6908   3.374   3.618   4.929
   77SOPE  H10X 6909   3.459   3.686   4.906
   77SOPE  H10Y 6910   3.289   3.687   4.909
   77SOPE  C311 6911   3.380   3.496   4.838
   77SOPE  H11X 6912   3.285   3.444   4.863
   77SOPE  H11Y 6913   3.463   3.428   4.864
   77SOPE  C312 6914   3.371   3.535   4.693
   77SOPE  H12X 6915   3.456   3.601   4.667
   77SOPE  H12Y 6916   3.273   3.586   4.681
   77SOPE  C313 6917   3.356   3.410   4.606
   77SOPE  H13X 6918   3.297   3.344   4.672
   77SOPE  H13Y 6919   3.453   3.360   4.587
   77SOPE  C314 6920   3.296   3.450   4.463
   77SOPE  H14X 6921   3.189   3.473   4.477
   77SOPE  H14Y 6922   3.300   3.357   4.403
   77SOPE  C315 6923   3.380   3.548   4.385
   77SOPE  H15X 6924   3.478   3.502   4.360
   77SOPE  H15Y 6925   3.406   3.633   4.452
   77SOPE  C316 6926   3.297   3.603   4.267
   77SOPE  H16X 6927   3.198   3.640   4.301
   77SOPE  H16Y 6928   3.295   3.523   4.189
   77SOPE  C317 6929   3.366   3.723   4.208
   77SOPE  H17X 6930   3.467   3.695   4.170
   77SOPE  H17Y 6931   3.390   3.797   4.287
   77SOPE  C318 6932   3.287   3.776   4.085
   77SOPE  H18X 6933   3.183   3.800   4.117
   77SOPE  H18Y 6934   3.284   3.707   3.998
   77SOPE  H18Z 6935   3.336   3.866   4.041
   78SOPE     N 6936   2.382   3.209   6.856
   78SOPE   HN1 6937   2.386   3.305   6.815
   78SOPE   HN2 6938   2.394   3.227   6.958
   78SOPE   HN3 6939   2.464   3.154   6.825
   78SOPE   C12 6940   2.246   3.130   6.850
   78SOPE  H12A 6941   2.176   3.187   6.915
   78SOPE  H12B 6942   2.253   3.034   6.906
   78SOPE   C11 6943   2.203   3.139   6.702
   78SOPE  H11A 6944   2.273   3.081   6.639
   78SOPE  H11B 6945   2.193   3.245   6.673
   78SOPE     P 6946   1.975   3.106   6.570
   78SOPE   O13 6947   1.944   3.254   6.591
   78SOPE   O14 6948   1.863   3.012   6.583
   78SOPE   O12 6949   2.077   3.072   6.685
   78SOPE   O11 6950   2.055   3.098   6.436
   78SOPE    C1 6951   2.146   2.992   6.405
   78SOPE    HA 6952   2.139   2.901   6.469
   78SOPE    HB 6953   2.250   3.031   6.417
   78SOPE    C2 6954   2.108   2.944   6.263
   78SOPE    HS 6955   2.181   2.864   6.243
   78SOPE   O21 6956   2.100   3.034   6.151
   78SOPE   C21 6957   2.215   3.084   6.106
   78SOPE   O22 6958   2.330   3.049   6.129
   78SOPE   C22 6959   2.181   3.203   6.007
   78SOPE   H2R 6960   2.279   3.252   5.992
   78SOPE   H2S 6961   2.114   3.272   6.062
   78SOPE    C3 6962   1.969   2.873   6.270
   78SOPE    HX 6963   1.890   2.943   6.305
   78SOPE    HY 6964   1.974   2.785   6.339
   78SOPE   O31 6965   1.924   2.817   6.141
   78SOPE   C31 6966   1.805   2.861   6.094
   78SOPE   O32 6967   1.733   2.940   6.152
   78SOPE   C32 6968   1.786   2.781   5.959
   78SOPE   H2X 6969   1.754   2.677   5.980
   78SOPE   H2Y 6970   1.878   2.783   5.897
   78SOPE   C23 6971   2.122   3.153   5.870
   78SOPE   H3R 6972   2.026   3.098   5.881
   78SOPE   H3S 6973   2.200   3.083   5.833
   78SOPE   C24 6974   2.089   3.269   5.774
   78SOPE   H4R 6975   2.010   3.336   5.815
   78SOPE   H4S 6976   2.178   3.335   5.765
   78SOPE   C25 6977   2.047   3.215   5.637
   78SOPE   H5R 6978   2.081   3.111   5.613
   78SOPE   H5S 6979   1.939   3.230   5.616
   78SOPE   C26 6980   2.098   3.315   5.521
   78SOPE   H6R 6981   2.045   3.411   5.537
   78SOPE   H6S 6982   2.206   3.325   5.544
   78SOPE   C27 6983   2.074   3.269   5.375
   78SOPE   H7R 6984   2.126   3.175   5.347
   78SOPE   H7S 6985   1.966   3.244   5.364
   78SOPE   C28 6986   2.112   3.375   5.269
   78SOPE   H8R 6987   2.036   3.456   5.268
   78SOPE   H8S 6988   2.214   3.419   5.275
   78SOPE   C29 6989   2.099   3.312   5.133
   78SOPE   H91 6990   1.995   3.285   5.108
   78SOPE  C210 6991   2.205   3.301   5.049
   78SOPE  H101 6992   2.186   3.256   4.950
   78SOPE  C211 6993   2.348   3.328   5.077
   78SOPE  H11R 6994   2.378   3.264   5.163
   78SOPE  H11S 6995   2.364   3.433   5.108
   78SOPE  C212 6996   2.422   3.309   4.941
   78SOPE  H12R 6997   2.419   3.205   4.903
   78SOPE  H12S 6998   2.529   3.334   4.956
   78SOPE  C213 6999   2.378   3.420   4.843
   78SOPE  H13R 7000   2.390   3.518   4.894
   78SOPE  H13S 7001   2.271   3.402   4.822
   78SOPE  C214 7002   2.451   3.426   4.705
   78SOPE  H14R 7003   2.434   3.330   4.651
   78SOPE  H14S 7004   2.561   3.441   4.709
   78SOPE  C215 7005   2.380   3.525   4.603
   78SOPE  H15R 7006   2.377   3.623   4.656
   78SOPE  H15S 7007   2.275   3.491   4.594
   78SOPE  C216 7008   2.437   3.534   4.463
   78SOPE  H16R 7009   2.540   3.575   4.469
   78SOPE  H16S 7010   2.376   3.610   4.411
   78SOPE  C217 7011   2.421   3.406   4.383
   78SOPE  H17R 7012   2.451   3.312   4.434
   78SOPE  H17S 7013   2.488   3.404   4.295
   78SOPE  C218 7014   2.282   3.392   4.324
   78SOPE  H18R 7015   2.277   3.305   4.255
   78SOPE  H18S 7016   2.258   3.483   4.265
   78SOPE  H18T 7017   2.202   3.383   4.401
   78SOPE   C33 7018   1.668   2.833   5.871
   78SOPE   H3X 7019   1.595   2.883   5.938
   78SOPE   H3Y 7020   1.612   2.750   5.825
   78SOPE   C34 7021   1.735   2.935   5.766
   78SOPE   H4X 7022   1.779   2.876   5.683
   78SOPE   H4Y 7023   1.817   2.998   5.808
   78SOPE   C35 7024   1.620   3.019   5.715
   78SOPE   H5X 7025   1.597   3.086   5.800
   78SOPE   H5Y 7026   1.528   2.961   5.692
   78SOPE   C36 7027   1.648   3.099   5.589
   78SOPE   H6X 7028   1.725   3.176   5.612
   78SOPE   H6Y 7029   1.556   3.156   5.565
   78SOPE   C37 7030   1.678   3.017   5.462
   78SOPE   H7X 7031   1.598   2.939   5.457
   78SOPE   H7Y 7032   1.776   2.966   5.469
   78SOPE   C38 7033   1.672   3.102   5.341
   78SOPE   H8X 7034   1.750   3.180   5.344
   78SOPE   H8Y 7035   1.572   3.150   5.332
   78SOPE   C39 7036   1.691   3.011   5.215
   78SOPE   H9X 7037   1.600   2.947   5.210
   78SOPE   H9Y 7038   1.781   2.946   5.211
   78SOPE  C310 7039   1.694   3.100   5.082
   78SOPE  H10X 7040   1.764   3.183   5.104
   78SOPE  H10Y 7041   1.593   3.142   5.061
   78SOPE  C311 7042   1.743   3.012   4.964
   78SOPE  H11X 7043   1.682   2.920   4.953
   78SOPE  H11Y 7044   1.849   2.992   4.993
   78SOPE  C312 7045   1.738   3.081   4.828
   78SOPE  H12X 7046   1.643   3.136   4.811
   78SOPE  H12Y 7047   1.733   3.003   4.749
   78SOPE  C313 7048   1.862   3.174   4.805
   78SOPE  H13X 7049   1.954   3.113   4.818
   78SOPE  H13Y 7050   1.868   3.241   4.893
   78SOPE  C314 7051   1.860   3.272   4.687
   78SOPE  H14X 7052   1.761   3.323   4.689
   78SOPE  H14Y 7053   1.846   3.225   4.588
   78SOPE  C315 7054   1.979   3.359   4.691
   78SOPE  H15X 7055   2.062   3.292   4.661
   78SOPE  H15Y 7056   1.990   3.392   4.797
   78SOPE  C316 7057   1.971   3.476   4.592
   78SOPE  H16X 7058   2.072   3.523   4.589
   78SOPE  H16Y 7059   1.906   3.560   4.625
   78SOPE  C317 7060   1.918   3.438   4.453
   78SOPE  H17X 7061   1.818   3.391   4.464
   78SOPE  H17Y 7062   1.988   3.367   4.406
   78SOPE  C318 7063   1.895   3.567   4.361
   78SOPE  H18X 7064   1.989   3.626   4.354
   78SOPE  H18Y 7065   1.828   3.641   4.409
   78SOPE  H18Z 7066   1.858   3.544   4.259
   79SOPE     N 7067   4.739   0.334   6.530
   79SOPE   HN1 7068   4.754   0.377   6.623
   79SOPE   HN2 7069   4.640   0.301   6.528
   79SOPE   HN3 7070   4.808   0.256   6.525
   79SOPE   C12 7071   4.762   0.442   6.430
   79SOPE  H12A 7072   4.768   0.402   6.327
   79SOPE  H12B 7073   4.861   0.483   6.459
   79SOPE   C11 7074   4.658   0.560   6.442
   79SOPE  H11A 7075   4.563   0.513   6.408
   79SOPE  H11B 7076   4.687   0.645   6.376
   79SOPE     P 7077   4.542   0.729   6.616
   79SOPE   O13 7078   4.596   0.828   6.709
   79SOPE   O14 7079   4.415   0.662   6.656
   79SOPE   O12 7080   4.655   0.619   6.581
   79SOPE   O11 7081   4.518   0.800   6.474
   79SOPE    C1 7082   4.567   0.932   6.449
   79SOPE    HA 7083   4.677   0.933   6.458
   79SOPE    HB 7084   4.529   1.001   6.528
   79SOPE    C2 7085   4.536   0.984   6.305
   79SOPE    HS 7086   4.429   0.968   6.280
   79SOPE   O21 7087   4.609   0.904   6.204
   79SOPE   C21 7088   4.543   0.878   6.086
   79SOPE   O22 7089   4.425   0.897   6.059
   79SOPE   C22 7090   4.650   0.828   5.994
   79SOPE   H2R 7091   4.705   0.744   6.042
   79SOPE   H2S 7092   4.729   0.904   5.975
   79SOPE    C3 7093   4.572   1.129   6.280
   79SOPE    HX 7094   4.681   1.132   6.299
   79SOPE    HY 7095   4.523   1.201   6.349
   79SOPE   O31 7096   4.560   1.165   6.139
   79SOPE   C31 7097   4.439   1.208   6.114
   79SOPE   O32 7098   4.349   1.231   6.197
   79SOPE   C32 7099   4.444   1.247   5.964
   79SOPE   H2X 7100   4.504   1.168   5.913
   79SOPE   H2Y 7101   4.494   1.346   5.966
   79SOPE   C23 7102   4.594   0.782   5.859
   79SOPE   H3R 7103   4.533   0.860   5.809
   79SOPE   H3S 7104   4.521   0.699   5.873
   79SOPE   C24 7105   4.698   0.731   5.760
   79SOPE   H4R 7106   4.763   0.821   5.757
   79SOPE   H4S 7107   4.759   0.652   5.807
   79SOPE   C25 7108   4.643   0.675   5.627
   79SOPE   H5R 7109   4.561   0.601   5.638
   79SOPE   H5S 7110   4.604   0.762   5.569
   79SOPE   C26 7111   4.755   0.605   5.552
   79SOPE   H6R 7112   4.838   0.677   5.531
   79SOPE   H6S 7113   4.801   0.524   5.612
   79SOPE   C27 7114   4.707   0.554   5.408
   79SOPE   H7R 7115   4.665   0.452   5.419
   79SOPE   H7S 7116   4.623   0.622   5.384
   79SOPE   C28 7117   4.814   0.554   5.297
   79SOPE   H8R 7118   4.762   0.542   5.200
   79SOPE   H8S 7119   4.857   0.656   5.302
   79SOPE   C29 7120   4.932   0.464   5.314
   79SOPE   H91 7121   4.915   0.360   5.346
   79SOPE  C210 7122   5.061   0.485   5.287
   79SOPE  H101 7123   5.135   0.405   5.276
   79SOPE  C211 7124   5.121   0.611   5.229
   79SOPE  H11R 7125   5.214   0.650   5.275
   79SOPE  H11S 7126   5.050   0.696   5.235
   79SOPE  C212 7127   5.158   0.601   5.072
   79SOPE  H12R 7128   5.243   0.530   5.058
   79SOPE  H12S 7129   5.187   0.704   5.044
   79SOPE  C213 7130   5.042   0.564   4.979
   79SOPE  H13R 7131   4.971   0.647   4.997
   79SOPE  H13S 7132   4.990   0.471   5.009
   79SOPE  C214 7133   5.078   0.546   4.835
   79SOPE  H14R 7134   5.136   0.451   4.829
   79SOPE  H14S 7135   5.161   0.616   4.810
   79SOPE  C215 7136   4.962   0.553   4.738
   79SOPE  H15R 7137   4.905   0.636   4.785
   79SOPE  H15S 7138   4.896   0.465   4.752
   79SOPE  C216 7139   4.998   0.591   4.594
   79SOPE  H16R 7140   5.055   0.686   4.595
   79SOPE  H16S 7141   4.906   0.623   4.540
   79SOPE  C217 7142   5.071   0.471   4.527
   79SOPE  H17R 7143   4.993   0.392   4.519
   79SOPE  H17S 7144   5.153   0.428   4.588
   79SOPE  C218 7145   5.115   0.498   4.385
   79SOPE  H18R 7146   5.215   0.547   4.391
   79SOPE  H18S 7147   5.038   0.554   4.328
   79SOPE  H18T 7148   5.135   0.405   4.328
   79SOPE   C33 7149   4.302   1.252   5.902
   79SOPE   H3X 7150   4.297   1.315   5.811
   79SOPE   H3Y 7151   4.228   1.296   5.972
   79SOPE   C34 7152   4.253   1.115   5.855
   79SOPE   H4X 7153   4.143   1.104   5.851
   79SOPE   H4Y 7154   4.288   1.028   5.915
   79SOPE   C35 7155   4.302   1.095   5.713
   79SOPE   H5X 7156   4.413   1.101   5.705
   79SOPE   H5Y 7157   4.264   1.175   5.646
   79SOPE   C36 7158   4.262   0.961   5.650
   79SOPE   H6X 7159   4.154   0.962   5.623
   79SOPE   H6Y 7160   4.282   0.886   5.729
   79SOPE   C37 7161   4.336   0.921   5.522
   79SOPE   H7X 7162   4.444   0.930   5.548
   79SOPE   H7Y 7163   4.309   1.000   5.448
   79SOPE   C38 7164   4.302   0.777   5.462
   79SOPE   H8X 7165   4.194   0.772   5.440
   79SOPE   H8Y 7166   4.337   0.693   5.526
   79SOPE   C39 7167   4.365   0.757   5.319
   79SOPE   H9X 7168   4.473   0.775   5.340
   79SOPE   H9Y 7169   4.321   0.841   5.262
   79SOPE  C310 7170   4.341   0.619   5.257
   79SOPE  H10X 7171   4.233   0.592   5.258
   79SOPE  H10Y 7172   4.398   0.543   5.314
   79SOPE  C311 7173   4.401   0.621   5.114
   79SOPE  H11X 7174   4.398   0.514   5.084
   79SOPE  H11Y 7175   4.505   0.659   5.117
   79SOPE  C312 7176   4.313   0.700   5.009
   79SOPE  H12X 7177   4.292   0.805   5.040
   79SOPE  H12Y 7178   4.212   0.658   5.028
   79SOPE  C313 7179   4.352   0.670   4.865
   79SOPE  H13X 7180   4.285   0.710   4.786
   79SOPE  H13Y 7181   4.359   0.560   4.847
   79SOPE  C314 7182   4.494   0.719   4.826
   79SOPE  H14X 7183   4.574   0.708   4.903
   79SOPE  H14Y 7184   4.491   0.830   4.827
   79SOPE  C315 7185   4.546   0.654   4.695
   79SOPE  H15X 7186   4.545   0.544   4.703
   79SOPE  H15Y 7187   4.653   0.686   4.687
   79SOPE  C316 7188   4.459   0.704   4.572
   79SOPE  H16X 7189   4.420   0.804   4.599
   79SOPE  H16Y 7190   4.368   0.643   4.553
   79SOPE  C317 7191   4.555   0.718   4.451
   79SOPE  H17X 7192   4.624   0.800   4.478
   79SOPE  H17Y 7193   4.495   0.743   4.361
   79SOPE  C318 7194   4.637   0.591   4.414
   79SOPE  H18X 7195   4.575   0.499   4.410
   79SOPE  H18Y 7196   4.709   0.568   4.495
   79SOPE  H18Z 7197   4.688   0.607   4.317
   80SOPE     N 7198   1.811   3.436   6.736
   80SOPE   HN1 7199   1.853   3.369   6.668
   80SOPE   HN2 7200   1.799   3.530   6.693
   80SOPE   HN3 7201   1.885   3.452   6.807
   80SOPE   C12 7202   1.686   3.379   6.795
   80SOPE  H12A 7203   1.638   3.458   6.857
   80SOPE  H12B 7204   1.717   3.299   6.865
   80SOPE   C11 7205   1.589   3.344   6.684
   80SOPE  H11A 7206   1.498   3.320   6.743
   80SOPE  H11B 7207   1.626   3.253   6.630
   80SOPE     P 7208   1.506   3.432   6.451
   80SOPE   O13 7209   1.563   3.536   6.360
   80SOPE   O14 7210   1.365   3.445   6.474
   80SOPE   O12 7211   1.570   3.453   6.599
   80SOPE   O11 7212   1.557   3.293   6.398
   80SOPE    C1 7213   1.683   3.279   6.334
   80SOPE    HA 7214   1.722   3.177   6.354
   80SOPE    HB 7215   1.760   3.350   6.370
   80SOPE    C2 7216   1.667   3.288   6.176
   80SOPE    HS 7217   1.647   3.396   6.164
   80SOPE   O21 7218   1.555   3.210   6.134
   80SOPE   C21 7219   1.470   3.274   6.047
   80SOPE   O22 7220   1.464   3.393   6.044
   80SOPE   C22 7221   1.376   3.174   5.984
   80SOPE   H2R 7222   1.308   3.134   6.062
   80SOPE   H2S 7223   1.431   3.085   5.946
   80SOPE    C3 7224   1.795   3.260   6.091
   80SOPE    HX 7225   1.822   3.153   6.077
   80SOPE    HY 7226   1.883   3.302   6.145
   80SOPE   O31 7227   1.768   3.295   5.956
   80SOPE   C31 7228   1.777   3.428   5.934
   80SOPE   O32 7229   1.800   3.509   6.023
   80SOPE   C32 7230   1.737   3.461   5.794
   80SOPE   H2X 7231   1.627   3.447   5.786
   80SOPE   H2Y 7232   1.793   3.388   5.732
   80SOPE   C23 7233   1.292   3.231   5.869
   80SOPE   H3R 7234   1.351   3.255   5.777
   80SOPE   H3S 7235   1.240   3.319   5.914
   80SOPE   C24 7236   1.192   3.130   5.817
   80SOPE   H4R 7237   1.247   3.045   5.771
   80SOPE   H4S 7238   1.131   3.102   5.906
   80SOPE   C25 7239   1.084   3.189   5.715
   80SOPE   H5R 7240   1.015   3.103   5.707
   80SOPE   H5S 7241   1.045   3.282   5.762
   80SOPE   C26 7242   1.151   3.218   5.582
   80SOPE   H6R 7243   1.093   3.290   5.519
   80SOPE   H6S 7244   1.240   3.280   5.604
   80SOPE   C27 7245   1.191   3.091   5.497
   80SOPE   H7R 7246   1.278   3.052   5.555
   80SOPE   H7S 7247   1.103   3.025   5.513
   80SOPE   C28 7248   1.214   3.124   5.349
   80SOPE   H8R 7249   1.300   3.188   5.322
   80SOPE   H8S 7250   1.222   3.024   5.300
   80SOPE   C29 7251   1.084   3.184   5.285
   80SOPE   H91 7252   0.989   3.153   5.331
   80SOPE  C210 7253   1.085   3.267   5.178
   80SOPE  H101 7254   0.991   3.307   5.137
   80SOPE  C211 7255   1.201   3.312   5.105
   80SOPE  H11R 7256   1.176   3.328   4.998
   80SOPE  H11S 7257   1.263   3.219   5.098
   80SOPE  C212 7258   1.285   3.423   5.163
   80SOPE  H12R 7259   1.393   3.410   5.140
   80SOPE  H12S 7260   1.284   3.413   5.273
   80SOPE  C213 7261   1.232   3.562   5.125
   80SOPE  H13R 7262   1.306   3.640   5.149
   80SOPE  H13S 7263   1.142   3.583   5.187
   80SOPE  C214 7264   1.203   3.580   4.973
   80SOPE  H14R 7265   1.106   3.534   4.945
   80SOPE  H14S 7266   1.278   3.540   4.902
   80SOPE  C215 7267   1.208   3.731   4.934
   80SOPE  H15R 7268   1.312   3.766   4.953
   80SOPE  H15S 7269   1.135   3.777   5.004
   80SOPE  C216 7270   1.162   3.756   4.785
   80SOPE  H16R 7271   1.055   3.725   4.780
   80SOPE  H16S 7272   1.215   3.680   4.723
   80SOPE  C217 7273   1.187   3.896   4.722
   80SOPE  H17R 7274   1.296   3.919   4.725
   80SOPE  H17S 7275   1.127   3.972   4.776
   80SOPE  C218 7276   1.162   3.893   4.569
   80SOPE  H18R 7277   1.070   3.835   4.544
   80SOPE  H18S 7278   1.238   3.828   4.522
   80SOPE  H18T 7279   1.175   3.996   4.530
   80SOPE   C33 7280   1.775   3.610   5.749
   80SOPE   H3X 7281   1.885   3.613   5.758
   80SOPE   H3Y 7282   1.735   3.685   5.821
   80SOPE   C34 7283   1.751   3.663   5.612
   80SOPE   H4X 7284   1.820   3.744   5.580
   80SOPE   H4Y 7285   1.654   3.717   5.610
   80SOPE   C35 7286   1.749   3.554   5.499
   80SOPE   H5X 7287   1.671   3.477   5.516
   80SOPE   H5Y 7288   1.845   3.499   5.509
   80SOPE   C36 7289   1.725   3.617   5.362
   80SOPE   H6X 7290   1.816   3.675   5.338
   80SOPE   H6Y 7291   1.635   3.681   5.376
   80SOPE   C37 7292   1.681   3.505   5.264
   80SOPE   H7X 7293   1.581   3.457   5.276
   80SOPE   H7Y 7294   1.760   3.428   5.273
   80SOPE   C38 7295   1.678   3.568   5.122
   80SOPE   H8X 7296   1.782   3.607   5.114
   80SOPE   H8Y 7297   1.615   3.659   5.124
   80SOPE   C39 7298   1.641   3.476   5.006
   80SOPE   H9X 7299   1.531   3.462   5.007
   80SOPE   H9Y 7300   1.682   3.374   5.011
   80SOPE  C310 7301   1.671   3.555   4.871
   80SOPE  H10X 7302   1.632   3.491   4.790
   80SOPE  H10Y 7303   1.782   3.557   4.875
   80SOPE  C311 7304   1.616   3.692   4.855
   80SOPE  H11X 7305   1.652   3.762   4.934
   80SOPE  H11Y 7306   1.505   3.697   4.855
   80SOPE  C312 7307   1.668   3.753   4.723
   80SOPE  H12X 7308   1.627   3.693   4.639
   80SOPE  H12Y 7309   1.779   3.747   4.724
   80SOPE  C313 7310   1.633   3.903   4.717
   80SOPE  H13X 7311   1.684   3.969   4.790
   80SOPE  H13Y 7312   1.523   3.919   4.717
   80SOPE  C314 7313   1.693   3.950   4.585
   80SOPE  H14X 7314   1.639   3.894   4.507
   80SOPE  H14Y 7315   1.798   3.913   4.582
   80SOPE  C315 7316   1.689   4.104   4.559
   80SOPE  H15X 7317   1.750   4.155   4.636
   80SOPE  H15Y 7318   1.581   4.132   4.561
   80SOPE  C316 7319   1.747   4.140   4.425
   80SOPE  H16X 7320   1.674   4.114   4.346
   80SOPE  H16Y 7321   1.840   4.084   4.402
   80SOPE  C317 7322   1.759   4.294   4.404
   80SOPE  H17X 7323   1.841   4.330   4.470
   80SOPE  H17Y 7324   1.660   4.337   4.428
   80SOPE  C318 7325   1.790   4.333   4.265
   80SOPE  H18X 7326   1.767   4.440   4.248
   80SOPE  H18Y 7327   1.729   4.272   4.194
   80SOPE  H18Z 7328   1.897   4.326   4.237
   81SOPE     N 7329   4.759   0.825   6.941
   81SOPE   HN1 7330   4.824   0.907   6.943
   81SOPE   HN2 7331   4.696   0.836   6.859
   81SOPE   HN3 7332   4.706   0.839   7.029
   81SOPE   C12 7333   4.833   0.694   6.949
   81SOPE  H12A 7334   4.755   0.615   6.952
   81SOPE  H12B 7335   4.892   0.694   7.043
   81SOPE   C11 7336   4.908   0.663   6.820
   81SOPE  H11A 7337   4.970   0.750   6.788
   81SOPE  H11B 7338   4.837   0.649   6.736
   81SOPE     P 7339   4.995   0.420   6.766
   81SOPE   O13 7340   4.857   0.360   6.768
   81SOPE   O14 7341   5.099   0.335   6.827
   81SOPE   O12 7342   4.983   0.555   6.846
   81SOPE   O11 7343   5.036   0.458   6.619
   81SOPE    C1 7344   5.156   0.527   6.593
   81SOPE    HA 7345   5.243   0.466   6.624
   81SOPE    HB 7346   5.152   0.627   6.642
   81SOPE    C2 7347   5.179   0.543   6.440
   81SOPE    HS 7348   5.264   0.614   6.432
   81SOPE   O21 7349   5.065   0.610   6.367
   81SOPE   C21 7350   5.061   0.741   6.400
   81SOPE   O22 7351   5.145   0.807   6.457
   81SOPE   C22 7352   4.932   0.806   6.335
   81SOPE   H2R 7353   4.864   0.828   6.420
   81SOPE   H2S 7354   4.885   0.730   6.268
   81SOPE    C3 7355   5.218   0.411   6.360
   81SOPE    HX 7356   5.139   0.333   6.369
   81SOPE    HY 7357   5.302   0.375   6.423
   81SOPE   O31 7358   5.249   0.439   6.228
   81SOPE   C31 7359   5.151   0.432   6.132
   81SOPE   O32 7360   5.033   0.407   6.152
   81SOPE   C32 7361   5.209   0.486   6.000
   81SOPE   H2X 7362   5.276   0.410   5.955
   81SOPE   H2Y 7363   5.283   0.568   6.018
   81SOPE   C23 7364   4.969   0.942   6.270
   81SOPE   H3R 7365   5.063   0.976   6.318
   81SOPE   H3S 7366   4.879   1.004   6.287
   81SOPE   C24 7367   4.996   0.941   6.116
   81SOPE   H4R 7368   5.095   0.891   6.111
   81SOPE   H4S 7369   4.920   0.882   6.061
   81SOPE   C25 7370   4.989   1.080   6.056
   81SOPE   H5R 7371   4.888   1.123   6.073
   81SOPE   H5S 7372   5.056   1.146   6.116
   81SOPE   C26 7373   5.017   1.088   5.900
   81SOPE   H6R 7374   5.122   1.058   5.882
   81SOPE   H6S 7375   4.943   1.035   5.836
   81SOPE   C27 7376   4.996   1.231   5.850
   81SOPE   H7R 7377   4.891   1.263   5.862
   81SOPE   H7S 7378   5.055   1.298   5.917
   81SOPE   C28 7379   5.033   1.238   5.700
   81SOPE   H8R 7380   5.140   1.207   5.697
   81SOPE   H8S 7381   4.978   1.167   5.635
   81SOPE   C29 7382   5.007   1.371   5.638
   81SOPE   H91 7383   5.030   1.448   5.713
   81SOPE  C210 7384   4.950   1.391   5.518
   81SOPE  H101 7385   4.926   1.495   5.492
   81SOPE  C211 7386   4.918   1.294   5.416
   81SOPE  H11R 7387   4.808   1.285   5.407
   81SOPE  H11S 7388   4.964   1.196   5.440
   81SOPE  C212 7389   4.967   1.346   5.280
   81SOPE  H12R 7390   5.077   1.353   5.279
   81SOPE  H12S 7391   4.918   1.444   5.261
   81SOPE  C213 7392   4.920   1.245   5.167
   81SOPE  H13R 7393   4.970   1.280   5.074
   81SOPE  H13S 7394   4.811   1.255   5.146
   81SOPE  C214 7395   4.941   1.090   5.194
   81SOPE  H14R 7396   4.877   1.050   5.275
   81SOPE  H14S 7397   5.048   1.081   5.222
   81SOPE  C215 7398   4.932   1.004   5.070
   81SOPE  H15R 7399   4.823   0.984   5.057
   81SOPE  H15S 7400   4.991   0.914   5.098
   81SOPE  C216 7401   4.990   1.067   4.941
   81SOPE  H16R 7402   5.094   1.100   4.963
   81SOPE  H16S 7403   4.931   1.151   4.901
   81SOPE  C217 7404   4.991   0.967   4.822
   81SOPE  H17R 7405   5.051   0.876   4.841
   81SOPE  H17S 7406   5.018   1.019   4.729
   81SOPE  C218 7407   4.857   0.916   4.781
   81SOPE  H18R 7408   4.818   0.847   4.858
   81SOPE  H18S 7409   4.860   0.859   4.686
   81SOPE  H18T 7410   4.784   1.000   4.775
   81SOPE   C33 7411   5.102   0.551   5.915
   81SOPE   H3X 7412   5.045   0.632   5.965
   81SOPE   H3Y 7413   5.032   0.475   5.873
   81SOPE   C34 7414   5.177   0.611   5.798
   81SOPE   H4X 7415   5.223   0.528   5.741
   81SOPE   H4Y 7416   5.264   0.668   5.838
   81SOPE   C35 7417   5.078   0.686   5.710
   81SOPE   H5X 7418   5.031   0.774   5.759
   81SOPE   H5Y 7419   4.995   0.615   5.691
   81SOPE   C36 7420   5.146   0.729   5.574
   81SOPE   H6X 7421   5.065   0.739   5.498
   81SOPE   H6Y 7422   5.213   0.646   5.541
   81SOPE   C37 7423   5.222   0.863   5.579
   81SOPE   H7X 7424   5.291   0.862   5.666
   81SOPE   H7Y 7425   5.145   0.942   5.588
   81SOPE   C38 7426   5.288   0.880   5.439
   81SOPE   H8X 7427   5.213   0.861   5.359
   81SOPE   H8Y 7428   5.380   0.820   5.424
   81SOPE   C39 7429   5.327   1.023   5.398
   81SOPE   H9X 7430   5.402   1.053   5.474
   81SOPE   H9Y 7431   5.250   1.103   5.396
   81SOPE  C310 7432   5.401   1.029   5.262
   81SOPE  H10X 7433   5.479   0.950   5.268
   81SOPE  H10Y 7434   5.444   1.129   5.240
   81SOPE  C311 7435   5.327   0.989   5.129
   81SOPE  H11X 7436   5.232   1.046   5.126
   81SOPE  H11Y 7437   5.295   0.883   5.137
   81SOPE  C312 7438   5.423   1.009   5.013
   81SOPE  H12X 7439   5.522   0.959   5.024
   81SOPE  H12Y 7440   5.448   1.117   5.003
   81SOPE  C313 7441   5.370   0.956   4.882
   81SOPE  H13X 7442   5.273   0.999   4.849
   81SOPE  H13Y 7443   5.338   0.850   4.887
   81SOPE  C314 7444   5.462   0.995   4.759
   81SOPE  H14X 7445   5.562   0.953   4.783
   81SOPE  H14Y 7446   5.462   1.106   4.752
   81SOPE  C315 7447   5.412   0.926   4.634
   81SOPE  H15X 7448   5.305   0.954   4.618
   81SOPE  H15Y 7449   5.406   0.816   4.641
   81SOPE  C316 7450   5.501   0.968   4.514
   81SOPE  H16X 7451   5.608   0.945   4.533
   81SOPE  H16Y 7452   5.496   1.077   4.493
   81SOPE  C317 7453   5.465   0.892   4.387
   81SOPE  H17X 7454   5.356   0.881   4.370
   81SOPE  H17Y 7455   5.503   0.788   4.380
   81SOPE  C318 7456   5.531   0.948   4.263
   81SOPE  H18X 7457   5.483   1.047   4.246
   81SOPE  H18Y 7458   5.510   0.893   4.169
   81SOPE  H18Z 7459   5.640   0.954   4.284
   82SOPE     N 7460   1.604   0.231   6.772
   82SOPE   HN1 7461   1.577   0.158   6.840
   82SOPE   HN2 7462   1.678   0.197   6.707
   82SOPE   HN3 7463   1.635   0.316   6.823
   82SOPE   C12 7464   1.477   0.267   6.697
   82SOPE  H12A 7465   1.396   0.288   6.770
   82SOPE  H12B 7466   1.442   0.182   6.634
   82SOPE   C11 7467   1.505   0.395   6.612
   82SOPE  H11A 7468   1.406   0.415   6.565
   82SOPE  H11B 7469   1.586   0.381   6.538
   82SOPE     P 7470   1.599   0.635   6.640
   82SOPE   O13 7471   1.739   0.627   6.683
   82SOPE   O14 7472   1.526   0.756   6.683
   82SOPE   O12 7473   1.521   0.514   6.699
   82SOPE   O11 7474   1.600   0.612   6.491
   82SOPE    C1 7475   1.672   0.683   6.392
   82SOPE    HA 7476   1.773   0.719   6.422
   82SOPE    HB 7477   1.618   0.776   6.366
   82SOPE    C2 7478   1.687   0.590   6.266
   82SOPE    HS 7479   1.763   0.511   6.286
   82SOPE   O21 7480   1.734   0.670   6.162
   82SOPE   C21 7481   1.859   0.706   6.161
   82SOPE   O22 7482   1.948   0.664   6.236
   82SOPE   C22 7483   1.889   0.809   6.043
   82SOPE   H2R 7484   1.996   0.817   6.016
   82SOPE   H2S 7485   1.888   0.908   6.094
   82SOPE    C3 7486   1.546   0.527   6.220
   82SOPE    HX 7487   1.486   0.619   6.200
   82SOPE    HY 7488   1.494   0.477   6.305
   82SOPE   O31 7489   1.562   0.438   6.108
   82SOPE   C31 7490   1.449   0.396   6.043
   82SOPE   O32 7491   1.338   0.414   6.095
   82SOPE   C32 7492   1.481   0.326   5.914
   82SOPE   H2X 7493   1.468   0.221   5.949
   82SOPE   H2Y 7494   1.585   0.357   5.892
   82SOPE   C23 7495   1.791   0.806   5.930
   82SOPE   H3R 7496   1.818   0.882   5.853
   82SOPE   H3S 7497   1.689   0.835   5.964
   82SOPE   C24 7498   1.790   0.678   5.847
   82SOPE   H4R 7499   1.894   0.668   5.809
   82SOPE   H4S 7500   1.775   0.592   5.916
   82SOPE   C25 7501   1.695   0.670   5.727
   82SOPE   H5R 7502   1.670   0.565   5.703
   82SOPE   H5S 7503   1.595   0.712   5.750
   82SOPE   C26 7504   1.741   0.735   5.603
   82SOPE   H6R 7505   1.754   0.845   5.612
   82SOPE   H6S 7506   1.844   0.699   5.583
   82SOPE   C27 7507   1.649   0.718   5.479
   82SOPE   H7R 7508   1.625   0.611   5.463
   82SOPE   H7S 7509   1.552   0.760   5.513
   82SOPE   C28 7510   1.689   0.794   5.356
   82SOPE   H8R 7511   1.678   0.900   5.386
   82SOPE   H8S 7512   1.798   0.774   5.343
   82SOPE   C29 7513   1.610   0.768   5.231
   82SOPE   H91 7514   1.522   0.832   5.214
   82SOPE  C210 7515   1.618   0.656   5.155
   82SOPE  H101 7516   1.548   0.635   5.073
   82SOPE  C211 7517   1.720   0.550   5.174
   82SOPE  H11R 7518   1.680   0.487   5.256
   82SOPE  H11S 7519   1.814   0.602   5.201
   82SOPE  C212 7520   1.760   0.479   5.037
   82SOPE  H12R 7521   1.802   0.559   4.972
   82SOPE  H12S 7522   1.681   0.424   4.982
   82SOPE  C213 7523   1.880   0.378   5.055
   82SOPE  H13R 7524   1.840   0.282   5.092
   82SOPE  H13S 7525   1.950   0.414   5.134
   82SOPE  C214 7526   1.958   0.360   4.917
   82SOPE  H14R 7527   2.046   0.296   4.943
   82SOPE  H14S 7528   2.007   0.451   4.878
   82SOPE  C215 7529   1.867   0.301   4.812
   82SOPE  H15R 7530   1.783   0.371   4.792
   82SOPE  H15S 7531   1.827   0.209   4.859
   82SOPE  C216 7532   1.929   0.256   4.679
   82SOPE  H16R 7533   2.024   0.205   4.704
   82SOPE  H16S 7534   1.954   0.344   4.616
   82SOPE  C217 7535   1.838   0.150   4.617
   82SOPE  H17R 7536   1.733   0.176   4.644
   82SOPE  H17S 7537   1.868   0.053   4.663
   82SOPE  C218 7538   1.848   0.134   4.464
   82SOPE  H18R 7539   1.951   0.112   4.429
   82SOPE  H18S 7540   1.824   0.231   4.416
   82SOPE  H18T 7541   1.775   0.054   4.436
   82SOPE   C33 7542   1.381   0.374   5.803
   82SOPE   H3X 7543   1.377   0.485   5.801
   82SOPE   H3Y 7544   1.281   0.330   5.821
   82SOPE   C34 7545   1.433   0.337   5.661
   82SOPE   H4X 7546   1.453   0.228   5.657
   82SOPE   H4Y 7547   1.539   0.366   5.643
   82SOPE   C35 7548   1.344   0.389   5.546
   82SOPE   H5X 7549   1.342   0.500   5.537
   82SOPE   H5Y 7550   1.240   0.360   5.572
   82SOPE   C36 7551   1.376   0.324   5.409
   82SOPE   H6X 7552   1.329   0.223   5.411
   82SOPE   H6Y 7553   1.486   0.310   5.397
   82SOPE   C37 7554   1.312   0.379   5.278
   82SOPE   H7X 7555   1.324   0.489   5.269
   82SOPE   H7Y 7556   1.206   0.347   5.288
   82SOPE   C38 7557   1.372   0.319   5.150
   82SOPE   H8X 7558   1.369   0.209   5.161
   82SOPE   H8Y 7559   1.477   0.354   5.140
   82SOPE   C39 7560   1.308   0.361   5.020
   82SOPE   H9X 7561   1.321   0.467   4.991
   82SOPE   H9Y 7562   1.197   0.364   5.025
   82SOPE  C310 7563   1.353   0.270   4.899
   82SOPE  H10X 7564   1.463   0.283   4.889
   82SOPE  H10Y 7565   1.310   0.305   4.803
   82SOPE  C311 7566   1.313   0.122   4.904
   82SOPE  H11X 7567   1.203   0.116   4.921
   82SOPE  H11Y 7568   1.362   0.065   4.986
   82SOPE  C312 7569   1.352   0.032   4.783
   82SOPE  H12X 7570   1.298   0.064   4.691
   82SOPE  H12Y 7571   1.312   6.818   4.807
   82SOPE  C313 7572   1.503   0.020   4.760
   82SOPE  H13X 7573   1.567   0.008   4.850
   82SOPE  H13Y 7574   1.547   0.119   4.735
   82SOPE  C314 7575   1.544   6.801   4.663
   82SOPE  H14X 7576   1.523   6.698   4.701
   82SOPE  H14Y 7577   1.650   6.815   4.632
   82SOPE  C315 7578   1.462   6.800   4.527
   82SOPE  H15X 7579   1.485   0.018   4.496
   82SOPE  H15Y 7580   1.354   6.800   4.554
   82SOPE  C316 7581   1.492   6.687   4.433
   82SOPE  H16X 7582   1.405   6.685   4.363
   82SOPE  H16Y 7583   1.505   6.586   4.477
   82SOPE  C317 7584   1.615   6.718   4.352
   82SOPE  H17X 7585   1.705   6.734   4.414
   82SOPE  H17Y 7586   1.611   6.817   4.302
   82SOPE  C318 7587   1.648   6.599   4.261
   82SOPE  H18X 7588   1.743   6.616   4.206
   82SOPE  H18Y 7589   1.567   6.590   4.186
   82SOPE  H18Z 7590   1.659   6.506   4.321
   83SOPE     N 7591   1.647   2.774   1.795
   83SOPE   HN1 7592   1.747   2.769   1.769
   83SOPE   HN2 7593   1.641   2.847   1.868
   83SOPE   HN3 7594   1.608   2.691   1.844
   83SOPE   C12 7595   1.546   2.777   1.687
   83SOPE  H12A 7596   1.560   2.677   1.641
   83SOPE  H12B 7597   1.569   2.856   1.613
   83SOPE   C11 7598   1.397   2.790   1.751
   83SOPE  H11A 7599   1.324   2.748   1.679
   83SOPE  H11B 7600   1.368   2.897   1.763
   83SOPE     P 7601   1.254   2.694   1.933
   83SOPE   O13 7602   1.249   2.547   1.959
   83SOPE   O14 7603   1.139   2.757   1.862
   83SOPE   O12 7604   1.393   2.721   1.878
   83SOPE   O11 7605   1.263   2.762   2.077
   83SOPE    C1 7606   1.391   2.816   2.119
   83SOPE    HA 7607   1.417   2.911   2.066
   83SOPE    HB 7608   1.480   2.752   2.102
   83SOPE    C2 7609   1.397   2.859   2.265
   83SOPE    HS 7610   1.504   2.873   2.292
   83SOPE   O21 7611   1.324   2.761   2.341
   83SOPE   C21 7612   1.401   2.658   2.370
   83SOPE   O22 7613   1.520   2.644   2.350
   83SOPE   C22 7614   1.316   2.555   2.439
   83SOPE   H2R 7615   1.322   2.453   2.397
   83SOPE   H2S 7616   1.210   2.585   2.424
   83SOPE    C3 7617   1.333   3.003   2.293
   83SOPE    HX 7618   1.229   3.001   2.253
   83SOPE    HY 7619   1.394   3.078   2.239
   83SOPE   O31 7620   1.340   3.035   2.436
   83SOPE   C31 7621   1.221   3.035   2.499
   83SOPE   O32 7622   1.114   2.989   2.451
   83SOPE   C32 7623   1.235   3.080   2.644
   83SOPE   H2X 7624   1.200   3.185   2.646
   83SOPE   H2Y 7625   1.343   3.074   2.671
   83SOPE   C23 7626   1.343   2.535   2.584
   83SOPE   H3R 7627   1.451   2.533   2.609
   83SOPE   H3S 7628   1.293   2.445   2.626
   83SOPE   C24 7629   1.279   2.650   2.666
   83SOPE   H4R 7630   1.325   2.743   2.625
   83SOPE   H4S 7631   1.169   2.642   2.654
   83SOPE   C25 7632   1.314   2.634   2.814
   83SOPE   H5R 7633   1.424   2.639   2.828
   83SOPE   H5S 7634   1.277   2.723   2.869
   83SOPE   C26 7635   1.279   2.502   2.885
   83SOPE   H6R 7636   1.169   2.490   2.880
   83SOPE   H6S 7637   1.336   2.416   2.844
   83SOPE   C27 7638   1.314   2.507   3.034
   83SOPE   H7R 7639   1.425   2.506   3.044
   83SOPE   H7S 7640   1.287   2.602   3.086
   83SOPE   C28 7641   1.265   2.381   3.123
   83SOPE   H8R 7642   1.307   2.411   3.221
   83SOPE   H8S 7643   1.154   2.379   3.122
   83SOPE   C29 7644   1.336   2.253   3.084
   83SOPE   H91 7645   1.330   2.216   2.980
   83SOPE  C210 7646   1.411   2.172   3.160
   83SOPE  H101 7647   1.444   2.076   3.118
   83SOPE  C211 7648   1.416   2.182   3.310
   83SOPE  H11R 7649   1.349   2.265   3.342
   83SOPE  H11S 7650   1.515   2.193   3.359
   83SOPE  C212 7651   1.354   2.064   3.388
   83SOPE  H12R 7652   1.407   1.969   3.362
   83SOPE  H12S 7653   1.247   2.044   3.365
   83SOPE  C213 7654   1.356   2.081   3.539
   83SOPE  H13R 7655   1.300   2.171   3.572
   83SOPE  H13S 7656   1.460   2.079   3.578
   83SOPE  C214 7657   1.280   1.965   3.603
   83SOPE  H14R 7658   1.325   1.870   3.566
   83SOPE  H14S 7659   1.177   1.954   3.562
   83SOPE  C215 7660   1.277   1.981   3.755
   83SOPE  H15R 7661   1.212   1.901   3.795
   83SOPE  H15S 7662   1.219   2.072   3.780
   83SOPE  C216 7663   1.412   1.970   3.828
   83SOPE  H16R 7664   1.475   2.060   3.817
   83SOPE  H16S 7665   1.468   1.877   3.802
   83SOPE  C217 7666   1.392   1.964   3.981
   83SOPE  H17R 7667   1.333   1.871   3.988
   83SOPE  H17S 7668   1.321   2.045   4.007
   83SOPE  C218 7669   1.510   1.952   4.070
   83SOPE  H18R 7670   1.477   1.929   4.174
   83SOPE  H18S 7671   1.570   2.045   4.071
   83SOPE  H18T 7672   1.579   1.869   4.046
   83SOPE   C33 7673   1.143   3.003   2.744
   83SOPE   H3X 7674   1.180   2.899   2.737
   83SOPE   H3Y 7675   1.035   3.007   2.720
   83SOPE   C34 7676   1.147   3.048   2.889
   83SOPE   H4X 7677   1.109   3.152   2.895
   83SOPE   H4Y 7678   1.254   3.039   2.917
   83SOPE   C35 7679   1.064   2.961   2.983
   83SOPE   H5X 7680   1.090   2.852   2.982
   83SOPE   H5Y 7681   0.958   2.966   2.952
   83SOPE   C36 7682   1.083   3.017   3.125
   83SOPE   H6X 7683   0.998   3.083   3.149
   83SOPE   H6Y 7684   1.180   3.071   3.133
   83SOPE   C37 7685   1.085   2.904   3.234
   83SOPE   H7X 7686   1.157   2.819   3.227
   83SOPE   H7Y 7687   0.988   2.851   3.248
   83SOPE   C38 7688   1.114   2.977   3.369
   83SOPE   H8X 7689   1.037   3.055   3.389
   83SOPE   H8Y 7690   1.211   3.031   3.366
   83SOPE   C39 7691   1.110   2.892   3.497
   83SOPE   H9X 7692   1.211   2.845   3.496
   83SOPE   H9Y 7693   1.025   2.824   3.477
   83SOPE  C310 7694   1.081   2.967   3.627
   83SOPE  H10X 7695   0.976   3.003   3.631
   83SOPE  H10Y 7696   1.148   3.056   3.633
   83SOPE  C311 7697   1.131   2.893   3.749
   83SOPE  H11X 7698   1.233   2.855   3.727
   83SOPE  H11Y 7699   1.064   2.806   3.764
   83SOPE  C312 7700   1.160   2.984   3.870
   83SOPE  H12X 7701   1.067   3.018   3.919
   83SOPE  H12Y 7702   1.215   3.075   3.835
   83SOPE  C313 7703   1.238   2.913   3.983
   83SOPE  H13X 7704   1.342   2.903   3.946
   83SOPE  H13Y 7705   1.208   2.807   3.997
   83SOPE  C314 7706   1.226   3.000   4.104
   83SOPE  H14X 7707   1.134   2.970   4.158
   83SOPE  H14Y 7708   1.212   3.107   4.075
   83SOPE  C315 7709   1.346   3.005   4.199
   83SOPE  H15X 7710   1.443   3.023   4.148
   83SOPE  H15Y 7711   1.348   2.903   4.242
   83SOPE  C316 7712   1.345   3.109   4.307
   83SOPE  H16X 7713   1.251   3.109   4.366
   83SOPE  H16Y 7714   1.352   3.209   4.260
   83SOPE  C317 7715   1.463   3.103   4.402
   83SOPE  H17X 7716   1.455   3.006   4.455
   83SOPE  H17Y 7717   1.448   3.180   4.480
   83SOPE  C318 7718   1.594   3.133   4.332
   83SOPE  H18X 7719   1.628   3.064   4.252
   83SOPE  H18Y 7720   1.669   3.144   4.414
   83SOPE  H18Z 7721   1.586   3.230   4.278
   84SOPE     N 7722   0.874   1.098   2.383
   84SOPE   HN1 7723   0.878   1.011   2.440
   84SOPE   HN2 7724   0.855   1.057   2.289
   84SOPE   HN3 7725   0.962   1.153   2.390
   84SOPE   C12 7726   0.757   1.170   2.435
   84SOPE  H12A 7727   0.745   1.276   2.404
   84SOPE  H12B 7728   0.781   1.181   2.543
   84SOPE   C11 7729   0.631   1.082   2.420
   84SOPE  H11A 7730   0.551   1.135   2.477
   84SOPE  H11B 7731   0.654   0.979   2.456
   84SOPE     P 7732   0.487   1.155   2.211
   84SOPE   O13 7733   0.454   1.098   2.077
   84SOPE   O14 7734   0.538   1.297   2.208
   84SOPE   O12 7735   0.598   1.066   2.284
   84SOPE   O11 7736   0.367   1.136   2.313
   84SOPE    C1 7737   0.306   1.013   2.343
   84SOPE    HA 7738   0.380   0.931   2.330
   84SOPE    HB 7739   0.234   0.988   2.262
   84SOPE    C2 7740   0.242   1.006   2.482
   84SOPE    HS 7741   0.166   1.086   2.490
   84SOPE   O21 7742   0.337   1.020   2.592
   84SOPE   C21 7743   0.360   1.135   2.654
   84SOPE   O22 7744   0.312   1.242   2.624
   84SOPE   C22 7745   0.462   1.116   2.761
   84SOPE   H2R 7746   0.497   1.216   2.796
   84SOPE   H2S 7747   0.552   1.067   2.719
   84SOPE    C3 7748   0.162   0.878   2.497
   84SOPE    HX 7749   0.234   0.795   2.484
   84SOPE    HY 7750   0.088   0.867   2.415
   84SOPE   O31 7751   0.088   0.871   2.619
   84SOPE   C31 7752   0.052   0.747   2.660
   84SOPE   O32 7753   0.053   0.649   2.589
   84SOPE   C32 7754   0.031   0.751   2.809
   84SOPE   H2X 7755   6.880   0.650   2.838
   84SOPE   H2Y 7756   6.849   0.831   2.843
   84SOPE   C23 7757   0.417   1.036   2.886
   84SOPE   H3R 7758   0.397   0.930   2.860
   84SOPE   H3S 7759   0.322   1.086   2.914
   84SOPE   C24 7760   0.517   1.041   3.003
   84SOPE   H4R 7761   0.619   1.002   2.982
   84SOPE   H4S 7762   0.520   1.146   3.038
   84SOPE   C25 7763   0.462   0.976   3.124
   84SOPE   H5R 7764   0.374   1.033   3.161
   84SOPE   H5S 7765   0.439   0.870   3.103
   84SOPE   C26 7766   0.564   0.988   3.246
   84SOPE   H6R 7767   0.665   0.953   3.213
   84SOPE   H6S 7768   0.574   1.093   3.281
   84SOPE   C27 7769   0.513   0.911   3.362
   84SOPE   H7R 7770   0.417   0.950   3.401
   84SOPE   H7S 7771   0.483   0.810   3.325
   84SOPE   C28 7772   0.607   0.870   3.477
   84SOPE   H8R 7773   0.542   0.818   3.552
   84SOPE   H8S 7774   0.686   0.797   3.450
   84SOPE   C29 7775   0.670   1.004   3.527
   84SOPE   H91 7776   0.721   1.071   3.456
   84SOPE  C210 7777   0.679   1.037   3.659
   84SOPE  H101 7778   0.722   1.134   3.687
   84SOPE  C211 7779   0.637   0.943   3.767
   84SOPE  H11R 7780   0.557   0.869   3.745
   84SOPE  H11S 7781   0.597   1.000   3.854
   84SOPE  C212 7782   0.765   0.867   3.801
   84SOPE  H12R 7783   0.842   0.927   3.853
   84SOPE  H12S 7784   0.814   0.829   3.709
   84SOPE  C213 7785   0.732   0.746   3.895
   84SOPE  H13R 7786   0.827   0.692   3.916
   84SOPE  H13S 7787   0.655   0.681   3.849
   84SOPE  C214 7788   0.676   0.782   4.033
   84SOPE  H14R 7789   0.580   0.831   4.008
   84SOPE  H14S 7790   0.731   0.866   4.080
   84SOPE  C215 7791   0.668   0.668   4.136
   84SOPE  H15R 7792   0.771   0.626   4.146
   84SOPE  H15S 7793   0.599   0.583   4.116
   84SOPE  C216 7794   0.636   0.719   4.272
   84SOPE  H16R 7795   0.687   0.816   4.293
   84SOPE  H16S 7796   0.678   0.647   4.345
   84SOPE  C217 7797   0.490   0.721   4.316
   84SOPE  H17R 7798   0.454   0.616   4.304
   84SOPE  H17S 7799   0.441   0.793   4.247
   84SOPE  C218 7800   0.476   0.765   4.466
   84SOPE  H18R 7801   0.567   0.731   4.520
   84SOPE  H18S 7802   0.398   0.716   4.529
   84SOPE  H18T 7803   0.464   0.875   4.476
   84SOPE   C33 7804   0.157   0.775   2.882
   84SOPE   H3X 7805   0.184   0.883   2.889
   84SOPE   H3Y 7806   0.246   0.735   2.830
   84SOPE   C34 7807   0.155   0.737   3.035
   84SOPE   H4X 7808   0.258   0.711   3.067
   84SOPE   H4Y 7809   0.095   0.644   3.041
   84SOPE   C35 7810   0.087   0.842   3.121
   84SOPE   H5X 7811   6.877   0.859   3.069
   84SOPE   H5Y 7812   0.148   0.935   3.121
   84SOPE   C36 7813   0.048   0.784   3.262
   84SOPE   H6X 7814   0.001   0.683   3.253
   84SOPE   H6Y 7815   6.852   0.848   3.299
   84SOPE   C37 7816   0.164   0.785   3.358
   84SOPE   H7X 7817   0.205   0.888   3.363
   84SOPE   H7Y 7818   0.252   0.729   3.321
   84SOPE   C38 7819   0.122   0.742   3.502
   84SOPE   H8X 7820   0.068   0.646   3.491
   84SOPE   H8Y 7821   0.046   0.819   3.529
   84SOPE   C39 7822   0.232   0.749   3.611
   84SOPE   H9X 7823   0.283   0.848   3.614
   84SOPE   H9Y 7824   0.302   0.675   3.568
   84SOPE  C310 7825   0.178   0.708   3.745
   84SOPE  H10X 7826   0.101   0.629   3.740
   84SOPE  H10Y 7827   0.128   0.792   3.797
   84SOPE  C311 7828   0.278   0.633   3.845
   84SOPE  H11X 7829   0.370   0.695   3.838
   84SOPE  H11Y 7830   0.312   0.530   3.822
   84SOPE  C312 7831   0.242   0.639   3.992
   84SOPE  H12X 7832   0.251   0.742   4.031
   84SOPE  H12Y 7833   0.319   0.595   4.058
   84SOPE  C313 7834   0.107   0.569   4.024
   84SOPE  H13X 7835   0.117   0.461   4.002
   84SOPE  H13Y 7836   0.035   0.613   3.952
   84SOPE  C314 7837   0.053   0.599   4.168
   84SOPE  H14X 7838   0.048   0.708   4.186
   84SOPE  H14Y 7839   0.126   0.554   4.239
   84SOPE  C315 7840   6.805   0.532   4.205
   84SOPE  H15X 7841   6.805   0.429   4.164
   84SOPE  H15Y 7842   6.720   0.587   4.157
   84SOPE  C316 7843   6.774   0.519   4.359
   84SOPE  H16X 7844   6.875   0.496   4.401
   84SOPE  H16Y 7845   6.702   0.437   4.377
   84SOPE  C317 7846   6.722   0.646   4.424
   84SOPE  H17X 7847   6.618   0.659   4.387
   84SOPE  H17Y 7848   6.782   0.729   4.383
   84SOPE  C318 7849   6.728   0.642   4.571
   84SOPE  H18X 7850   6.719   0.745   4.611
   84SOPE  H18Y 7851   6.822   0.606   4.619
   84SOPE  H18Z 7852   6.653   0.575   4.618
   85SOPE     N 7853   4.940   3.600   1.779
   85SOPE   HN1 7854   4.988   3.546   1.704
   85SOPE   HN2 7855   4.923   3.530   1.853
   85SOPE   HN3 7856   4.847   3.638   1.751
   85SOPE   C12 7857   5.033   3.703   1.841
   85SOPE  H12A 7858   5.064   3.780   1.766
   85SOPE  H12B 7859   5.129   3.655   1.866
   85SOPE   C11 7860   4.964   3.758   1.963
   85SOPE  H11A 7861   5.042   3.819   2.014
   85SOPE  H11B 7862   4.933   3.673   2.027
   85SOPE     P 7863   4.863   3.998   1.908
   85SOPE   O13 7864   4.727   4.056   1.897
   85SOPE   O14 7865   4.953   4.025   1.799
   85SOPE   O12 7866   4.846   3.834   1.923
   85SOPE   O11 7867   4.929   4.026   2.050
   85SOPE    C1 7868   4.849   3.981   2.160
   85SOPE    HA 7869   4.810   3.877   2.162
   85SOPE    HB 7870   4.758   4.044   2.157
   85SOPE    C2 7871   4.913   3.998   2.300
   85SOPE    HS 7872   4.843   3.972   2.382
   85SOPE   O21 7873   4.955   4.134   2.332
   85SOPE   C21 7874   4.851   4.215   2.360
   85SOPE   O22 7875   4.732   4.178   2.366
   85SOPE   C22 7876   4.902   4.354   2.402
   85SOPE   H2R 7877   4.838   4.423   2.345
   85SOPE   H2S 7878   5.008   4.371   2.373
   85SOPE    C3 7879   5.042   3.902   2.316
   85SOPE    HX 7880   5.096   3.932   2.223
   85SOPE    HY 7881   5.020   3.796   2.294
   85SOPE   O31 7882   5.123   3.922   2.427
   85SOPE   C31 7883   5.077   3.884   2.545
   85SOPE   O32 7884   4.968   3.838   2.573
   85SOPE   C32 7885   5.181   3.904   2.648
   85SOPE   H2X 7886   5.203   4.013   2.652
   85SOPE   H2Y 7887   5.268   3.846   2.610
   85SOPE   C23 7888   4.875   4.385   2.552
   85SOPE   H3R 7889   4.764   4.388   2.553
   85SOPE   H3S 7890   4.919   4.483   2.581
   85SOPE   C24 7891   4.931   4.281   2.655
   85SOPE   H4R 7892   4.893   4.184   2.616
   85SOPE   H4S 7893   5.041   4.285   2.663
   85SOPE   C25 7894   4.881   4.316   2.797
   85SOPE   H5R 7895   4.904   4.423   2.818
   85SOPE   H5S 7896   4.771   4.320   2.808
   85SOPE   C26 7897   4.937   4.218   2.899
   85SOPE   H6R 7898   4.915   4.117   2.856
   85SOPE   H6S 7899   5.046   4.224   2.920
   85SOPE   C27 7900   4.853   4.228   3.027
   85SOPE   H7R 7901   4.847   4.336   3.051
   85SOPE   H7S 7902   4.749   4.195   3.007
   85SOPE   C28 7903   4.917   4.166   3.148
   85SOPE   H8R 7904   4.851   4.176   3.237
   85SOPE   H8S 7905   4.928   4.057   3.132
   85SOPE   C29 7906   5.051   4.217   3.183
   85SOPE   H91 7907   5.131   4.173   3.122
   85SOPE  C210 7908   5.083   4.325   3.256
   85SOPE  H101 7909   5.187   4.360   3.256
   85SOPE  C211 7910   4.983   4.396   3.350
   85SOPE  H11R 7911   4.881   4.381   3.308
   85SOPE  H11S 7912   5.004   4.505   3.355
   85SOPE  C212 7913   4.994   4.345   3.496
   85SOPE  H12R 7914   4.972   4.236   3.488
   85SOPE  H12S 7915   4.914   4.371   3.568
   85SOPE  C213 7916   5.135   4.373   3.559
   85SOPE  H13R 7917   5.140   4.483   3.543
   85SOPE  H13S 7918   5.211   4.307   3.512
   85SOPE  C214 7919   5.131   4.348   3.713
   85SOPE  H14R 7920   5.233   4.377   3.748
   85SOPE  H14S 7921   5.119   4.240   3.734
   85SOPE  C215 7922   5.029   4.433   3.783
   85SOPE  H15R 7923   4.935   4.374   3.792
   85SOPE  H15S 7924   5.015   4.528   3.727
   85SOPE  C216 7925   5.056   4.472   3.926
   85SOPE  H16R 7926   4.980   4.549   3.951
   85SOPE  H16S 7927   5.153   4.525   3.940
   85SOPE  C217 7928   5.039   4.361   4.029
   85SOPE  H17R 7929   5.119   4.287   4.008
   85SOPE  H17S 7930   4.943   4.306   4.024
   85SOPE  C218 7931   5.054   4.413   4.168
   85SOPE  H18R 7932   5.017   4.340   4.243
   85SOPE  H18S 7933   4.998   4.505   4.197
   85SOPE  H18T 7934   5.158   4.446   4.185
   85SOPE   C33 7935   5.131   3.854   2.790
   85SOPE   H3X 7936   5.096   3.749   2.794
   85SOPE   H3Y 7937   5.044   3.919   2.815
   85SOPE   C34 7938   5.232   3.901   2.894
   85SOPE   H4X 7939   5.235   4.012   2.896
   85SOPE   H4Y 7940   5.334   3.866   2.869
   85SOPE   C35 7941   5.199   3.857   3.034
   85SOPE   H5X 7942   5.205   3.746   3.045
   85SOPE   H5Y 7943   5.096   3.891   3.057
   85SOPE   C36 7944   5.302   3.916   3.132
   85SOPE   H6X 7945   5.313   4.026   3.122
   85SOPE   H6Y 7946   5.408   3.885   3.118
   85SOPE   C37 7947   5.253   3.907   3.277
   85SOPE   H7X 7948   5.142   3.909   3.288
   85SOPE   H7Y 7949   5.288   3.992   3.338
   85SOPE   C38 7950   5.297   3.779   3.351
   85SOPE   H8X 7951   5.398   3.748   3.318
   85SOPE   H8Y 7952   5.229   3.698   3.318
   85SOPE   C39 7953   5.308   3.783   3.499
   85SOPE   H9X 7954   5.367   3.873   3.528
   85SOPE   H9Y 7955   5.354   3.688   3.535
   85SOPE  C310 7956   5.175   3.794   3.574
   85SOPE  H10X 7957   5.097   3.732   3.526
   85SOPE  H10Y 7958   5.148   3.902   3.563
   85SOPE  C311 7959   5.188   3.768   3.726
   85SOPE  H11X 7960   5.266   3.840   3.759
   85SOPE  H11Y 7961   5.228   3.666   3.743
   85SOPE  C312 7962   5.061   3.786   3.802
   85SOPE  H12X 7963   4.991   3.704   3.776
   85SOPE  H12Y 7964   5.024   3.886   3.771
   85SOPE  C313 7965   5.083   3.791   3.950
   85SOPE  H13X 7966   4.989   3.830   3.993
   85SOPE  H13Y 7967   5.179   3.842   3.974
   85SOPE  C314 7968   5.105   3.646   4.014
   85SOPE  H14X 7969   5.209   3.612   3.997
   85SOPE  H14Y 7970   5.037   3.575   3.962
   85SOPE  C315 7971   5.087   3.639   4.162
   85SOPE  H15X 7972   4.982   3.674   4.170
   85SOPE  H15Y 7973   5.153   3.717   4.207
   85SOPE  C316 7974   5.099   3.503   4.219
   85SOPE  H16X 7975   5.207   3.478   4.207
   85SOPE  H16Y 7976   5.026   3.445   4.159
   85SOPE  C317 7977   5.066   3.494   4.373
   85SOPE  H17X 7978   5.149   3.534   4.434
   85SOPE  H17Y 7979   5.068   3.386   4.398
   85SOPE  C318 7980   4.929   3.563   4.413
   85SOPE  H18X 7981   4.845   3.506   4.369
   85SOPE  H18Y 7982   4.922   3.664   4.367
   85SOPE  H18Z 7983   4.920   3.573   4.524
   86SOPE     N 7984   4.246   1.318   2.031
   86SOPE   HN1 7985   4.265   1.314   2.133
   86SOPE   HN2 7986   4.142   1.319   2.031
   86SOPE   HN3 7987   4.282   1.232   1.984
   86SOPE   C12 7988   4.308   1.446   1.992
   86SOPE  H12A 7989   4.272   1.532   2.051
   86SOPE  H12B 7990   4.288   1.459   1.883
   86SOPE   C11 7991   4.460   1.444   2.010
   86SOPE  H11A 7992   4.481   1.440   2.120
   86SOPE  H11B 7993   4.487   1.545   1.973
   86SOPE     P 7994   4.682   1.329   1.948
   86SOPE   O13 7995   4.741   1.462   1.924
   86SOPE   O14 7996   4.718   1.211   1.865
   86SOPE   O12 7997   4.524   1.334   1.945
   86SOPE   O11 7998   4.714   1.292   2.098
   86SOPE    C1 7999   4.644   1.181   2.160
   86SOPE    HA 8000   4.631   1.089   2.097
   86SOPE    HB 8001   4.542   1.215   2.185
   86SOPE    C2 8002   4.696   1.154   2.306
   86SOPE    HS 8003   4.607   1.114   2.359
   86SOPE   O21 8004   4.752   1.273   2.369
   86SOPE   C21 8005   4.672   1.340   2.451
   86SOPE   O22 8006   4.561   1.305   2.483
   86SOPE   C22 8007   4.742   1.473   2.486
   86SOPE   H2R 8008   4.676   1.519   2.562
   86SOPE   H2S 8009   4.749   1.538   2.397
   86SOPE    C3 8010   4.809   1.051   2.308
   86SOPE    HX 8011   4.908   1.080   2.266
   86SOPE    HY 8012   4.780   0.968   2.240
   86SOPE   O31 8013   4.822   0.998   2.441
   86SOPE   C31 8014   4.922   1.047   2.521
   86SOPE   O32 8015   5.014   1.119   2.485
   86SOPE   C32 8016   4.890   1.003   2.664
   86SOPE   H2X 8017   4.888   0.894   2.644
   86SOPE   H2Y 8018   4.788   1.035   2.694
   86SOPE   C23 8019   4.876   1.457   2.568
   86SOPE   H3R 8020   4.956   1.404   2.512
   86SOPE   H3S 8021   4.847   1.396   2.656
   86SOPE   C24 8022   4.923   1.595   2.624
   86SOPE   H4R 8023   4.998   1.637   2.555
   86SOPE   H4S 8024   4.830   1.655   2.634
   86SOPE   C25 8025   4.988   1.583   2.769
   86SOPE   H5R 8026   5.019   1.689   2.777
   86SOPE   H5S 8027   4.905   1.553   2.835
   86SOPE   C26 8028   5.099   1.485   2.777
   86SOPE   H6R 8029   5.059   1.382   2.764
   86SOPE   H6S 8030   5.177   1.508   2.702
   86SOPE   C27 8031   5.172   1.471   2.911
   86SOPE   H7R 8032   5.205   1.574   2.940
   86SOPE   H7S 8033   5.092   1.431   2.977
   86SOPE   C28 8034   5.282   1.367   2.898
   86SOPE   H8R 8035   5.297   1.308   2.991
   86SOPE   H8S 8036   5.242   1.294   2.825
   86SOPE   C29 8037   5.415   1.435   2.866
   86SOPE   H91 8038   5.426   1.517   2.793
   86SOPE  C210 8039   5.539   1.395   2.921
   86SOPE  H101 8040   5.635   1.438   2.889
   86SOPE  C211 8041   5.561   1.277   3.005
   86SOPE  H11R 8042   5.656   1.227   2.975
   86SOPE  H11S 8043   5.483   1.198   3.011
   86SOPE  C212 8044   5.587   1.335   3.144
   86SOPE  H12R 8045   5.508   1.404   3.182
   86SOPE  H12S 8046   5.678   1.395   3.124
   86SOPE  C213 8047   5.613   1.223   3.245
   86SOPE  H13R 8048   5.695   1.149   3.231
   86SOPE  H13S 8049   5.517   1.169   3.240
   86SOPE  C214 8050   5.624   1.274   3.388
   86SOPE  H14R 8051   5.541   1.343   3.414
   86SOPE  H14S 8052   5.714   1.339   3.392
   86SOPE  C215 8053   5.630   1.152   3.483
   86SOPE  H15R 8054   5.712   1.087   3.445
   86SOPE  H15S 8055   5.542   1.085   3.473
   86SOPE  C216 8056   5.632   1.186   3.632
   86SOPE  H16R 8057   5.542   1.242   3.666
   86SOPE  H16S 8058   5.717   1.257   3.646
   86SOPE  C217 8059   5.659   1.066   3.719
   86SOPE  H17R 8060   5.763   1.030   3.705
   86SOPE  H17S 8061   5.590   0.986   3.685
   86SOPE  C218 8062   5.641   1.092   3.871
   86SOPE  H18R 8063   5.685   1.190   3.900
   86SOPE  H18S 8064   5.669   1.009   3.940
   86SOPE  H18T 8065   5.533   1.101   3.898
   86SOPE   C33 8066   5.001   1.052   2.756
   86SOPE   H3X 8067   4.988   1.162   2.766
   86SOPE   H3Y 8068   5.106   1.036   2.723
   86SOPE   C34 8069   4.979   1.010   2.897
   86SOPE   H4X 8070   4.966   0.900   2.907
   86SOPE   H4Y 8071   4.880   1.047   2.932
   86SOPE   C35 8072   5.086   1.047   2.998
   86SOPE   H5X 8073   5.059   1.033   3.105
   86SOPE   H5Y 8074   5.098   1.156   2.983
   86SOPE   C36 8075   5.223   0.993   2.959
   86SOPE   H6X 8076   5.296   1.043   3.027
   86SOPE   H6Y 8077   5.251   1.023   2.855
   86SOPE   C37 8078   5.246   0.841   2.973
   86SOPE   H7X 8079   5.352   0.813   2.953
   86SOPE   H7Y 8080   5.181   0.779   2.908
   86SOPE   C38 8081   5.214   0.787   3.114
   86SOPE   H8X 8082   5.112   0.827   3.135
   86SOPE   H8Y 8083   5.285   0.823   3.192
   86SOPE   C39 8084   5.212   0.631   3.131
   86SOPE   H9X 8085   5.313   0.592   3.107
   86SOPE   H9Y 8086   5.148   0.586   3.052
   86SOPE  C310 8087   5.145   0.601   3.270
   86SOPE  H10X 8088   5.043   0.643   3.259
   86SOPE  H10Y 8089   5.192   0.670   3.343
   86SOPE  C311 8090   5.142   0.454   3.323
   86SOPE  H11X 8091   5.248   0.424   3.320
   86SOPE  H11Y 8092   5.101   0.384   3.247
   86SOPE  C312 8093   5.086   0.451   3.465
   86SOPE  H12X 8094   5.001   0.521   3.485
   86SOPE  H12Y 8095   5.155   0.503   3.536
   86SOPE  C313 8096   5.052   0.308   3.520
   86SOPE  H13X 8097   5.131   0.236   3.488
   86SOPE  H13Y 8098   4.955   0.270   3.483
   86SOPE  C314 8099   5.048   0.316   3.676
   86SOPE  H14X 8100   5.140   0.367   3.714
   86SOPE  H14Y 8101   5.043   0.214   3.719
   86SOPE  C315 8102   4.932   0.391   3.741
   86SOPE  H15X 8103   4.842   0.354   3.688
   86SOPE  H15Y 8104   4.923   0.497   3.708
   86SOPE  C316 8105   4.920   0.367   3.890
   86SOPE  H16X 8106   4.989   0.435   3.945
   86SOPE  H16Y 8107   4.974   0.275   3.920
   86SOPE  C317 8108   4.783   0.383   3.951
   86SOPE  H17X 8109   4.726   0.293   3.919
   86SOPE  H17Y 8110   4.736   0.466   3.894
   86SOPE  C318 8111   4.780   0.397   4.097
   86SOPE  H18X 8112   4.677   0.384   4.135
   86SOPE  H18Y 8113   4.823   0.495   4.129
   86SOPE  H18Z 8114   4.831   0.307   4.137
   87SOPE     N 8115   6.459   0.830   2.248
   87SOPE   HN1 8116   6.460   0.819   2.351
   87SOPE   HN2 8117   6.530   0.903   2.226
   87SOPE   HN3 8118   6.371   0.880   2.223
   87SOPE   C12 8119   6.474   0.705   2.167
   87SOPE  H12A 8120   6.550   0.641   2.218
   87SOPE  H12B 8121   6.507   0.733   2.064
   87SOPE   C11 8122   6.346   0.621   2.160
   87SOPE  H11A 8123   6.339   0.564   2.256
   87SOPE  H11B 8124   6.356   0.536   2.089
   87SOPE     P 8125   6.095   0.627   2.077
   87SOPE   O13 8126   6.109   0.645   1.931
   87SOPE   O14 8127   5.982   0.704   2.137
   87SOPE   O12 8128   6.224   0.695   2.141
   87SOPE   O11 8129   6.084   0.477   2.114
   87SOPE    C1 8130   5.984   0.420   2.199
   87SOPE    HA 8131   5.941   0.334   2.143
   87SOPE    HB 8132   5.894   0.481   2.225
   87SOPE    C2 8133   6.048   0.359   2.331
   87SOPE    HS 8134   5.970   0.299   2.383
   87SOPE   O21 8135   6.097   0.458   2.417
   87SOPE   C21 8136   6.022   0.560   2.445
   87SOPE   O22 8137   5.901   0.572   2.442
   87SOPE   C22 8138   6.109   0.671   2.495
   87SOPE   H2R 8139   6.058   0.769   2.513
   87SOPE   H2S 8140   6.174   0.686   2.407
   87SOPE    C3 8141   6.155   0.251   2.297
   87SOPE    HX 8142   6.228   0.303   2.231
   87SOPE    HY 8143   6.107   0.163   2.250
   87SOPE   O31 8144   6.216   0.187   2.413
   87SOPE   C31 8145   6.343   0.203   2.426
   87SOPE   O32 8146   6.424   0.259   2.349
   87SOPE   C32 8147   6.394   0.147   2.560
   87SOPE   H2X 8148   6.415   0.039   2.552
   87SOPE   H2Y 8149   6.312   0.168   2.631
   87SOPE   C23 8150   6.181   0.616   2.614
   87SOPE   H3R 8151   6.250   0.692   2.655
   87SOPE   H3S 8152   6.243   0.526   2.592
   87SOPE   C24 8153   6.084   0.565   2.733
   87SOPE   H4R 8154   6.008   0.645   2.735
   87SOPE   H4S 8155   6.034   0.475   2.693
   87SOPE   C25 8156   6.150   0.544   2.863
   87SOPE   H5R 8157   6.220   0.458   2.856
   87SOPE   H5S 8158   6.205   0.641   2.867
   87SOPE   C26 8159   6.063   0.534   2.988
   87SOPE   H6R 8160   5.986   0.614   2.992
   87SOPE   H6S 8161   6.000   0.444   2.979
   87SOPE   C27 8162   6.147   0.530   3.114
   87SOPE   H7R 8163   6.235   0.465   3.097
   87SOPE   H7S 8164   6.188   0.628   3.145
   87SOPE   C28 8165   6.068   0.468   3.228
   87SOPE   H8R 8166   5.982   0.533   3.252
   87SOPE   H8S 8167   6.028   0.372   3.190
   87SOPE   C29 8168   6.146   0.430   3.352
   87SOPE   H91 8169   6.206   0.339   3.343
   87SOPE  C210 8170   6.151   0.503   3.467
   87SOPE  H101 8171   6.216   0.464   3.548
   87SOPE  C211 8172   6.091   0.638   3.497
   87SOPE  H11R 8173   6.029   0.672   3.410
   87SOPE  H11S 8174   6.171   0.715   3.499
   87SOPE  C212 8175   6.001   0.650   3.622
   87SOPE  H12R 8176   5.958   0.751   3.636
   87SOPE  H12S 8177   6.064   0.623   3.709
   87SOPE  C213 8178   5.871   0.567   3.633
   87SOPE  H13R 8179   5.904   0.461   3.632
   87SOPE  H13S 8180   5.812   0.597   3.544
   87SOPE  C214 8181   5.799   0.597   3.766
   87SOPE  H14R 8182   5.725   0.515   3.767
   87SOPE  H14S 8183   5.752   0.697   3.763
   87SOPE  C215 8184   5.886   0.582   3.894
   87SOPE  H15R 8185   5.972   0.652   3.892
   87SOPE  H15S 8186   5.916   0.476   3.906
   87SOPE  C216 8187   5.816   0.604   4.030
   87SOPE  H16R 8188   5.787   0.711   4.042
   87SOPE  H16S 8189   5.893   0.578   4.106
   87SOPE  C217 8190   5.683   0.523   4.042
   87SOPE  H17R 8191   5.693   0.415   4.020
   87SOPE  H17S 8192   5.612   0.561   3.966
   87SOPE  C218 8193   5.619   0.546   4.184
   87SOPE  H18R 8194   5.699   0.523   4.257
   87SOPE  H18S 8195   5.534   0.475   4.195
   87SOPE  H18T 8196   5.589   0.653   4.185
   87SOPE   C33 8197   6.516   0.220   2.615
   87SOPE   H3X 8198   6.604   0.209   2.549
   87SOPE   H3Y 8199   6.547   0.164   2.706
   87SOPE   C34 8200   6.487   0.370   2.655
   87SOPE   H4X 8201   6.388   0.375   2.705
   87SOPE   H4Y 8202   6.484   0.436   2.566
   87SOPE   C35 8203   6.596   0.416   2.749
   87SOPE   H5X 8204   6.692   0.420   2.694
   87SOPE   H5Y 8205   6.587   0.339   2.829
   87SOPE   C36 8206   6.565   0.553   2.820
   87SOPE   H6X 8207   6.456   0.557   2.841
   87SOPE   H6Y 8208   6.573   0.635   2.746
   87SOPE   C37 8209   6.642   0.563   2.943
   87SOPE   H7X 8210   6.655   0.672   2.963
   87SOPE   H7Y 8211   6.747   0.531   2.927
   87SOPE   C38 8212   6.586   0.488   3.070
   87SOPE   H8X 8213   6.599   0.378   3.062
   87SOPE   H8Y 8214   6.476   0.504   3.073
   87SOPE   C39 8215   6.636   0.546   3.204
   87SOPE   H9X 8216   6.687   0.641   3.180
   87SOPE   H9Y 8217   6.725   0.485   3.232
   87SOPE  C310 8218   6.537   0.571   3.316
   87SOPE  H10X 8219   6.481   0.477   3.329
   87SOPE  H10Y 8220   6.466   0.649   3.282
   87SOPE  C311 8221   6.613   0.616   3.441
   87SOPE  H11X 8222   6.653   0.719   3.441
   87SOPE  H11Y 8223   6.708   0.559   3.451
   87SOPE  C312 8224   6.523   0.608   3.568
   87SOPE  H12X 8225   6.477   0.507   3.573
   87SOPE  H12Y 8226   6.444   0.685   3.559
   87SOPE  C313 8227   6.618   0.622   3.698
   87SOPE  H13X 8228   6.671   0.719   3.697
   87SOPE  H13Y 8229   6.677   0.528   3.710
   87SOPE  C314 8230   6.540   0.629   3.830
   87SOPE  H14X 8231   6.495   0.730   3.832
   87SOPE  H14Y 8232   6.610   0.610   3.914
   87SOPE  C315 8233   6.429   0.519   3.849
   87SOPE  H15X 8234   6.480   0.425   3.820
   87SOPE  H15Y 8235   6.350   0.536   3.772
   87SOPE  C316 8236   6.372   0.500   3.990
   87SOPE  H16X 8237   6.324   0.593   4.026
   87SOPE  H16Y 8238   6.450   0.480   4.067
   87SOPE  C317 8239   6.269   0.389   4.008
   87SOPE  H17X 8240   6.332   0.297   4.006
   87SOPE  H17Y 8241   6.205   0.374   3.919
   87SOPE  C318 8242   6.163   0.398   4.124
   87SOPE  H18X 8243   6.082   0.471   4.106
   87SOPE  H18Y 8244   6.200   0.428   4.224
   87SOPE  H18Z 8245   6.110   0.301   4.117
   88SOPE     N 8246   1.225   6.026   1.640
   88SOPE   HN1 8247   1.126   6.023   1.608
   88SOPE   HN2 8248   1.287   6.046   1.558
   88SOPE   HN3 8249   1.257   5.935   1.680
   88SOPE   C12 8250   1.246   6.124   1.751
   88SOPE  H12A 8251   1.228   6.227   1.715
   88SOPE  H12B 8252   1.355   6.119   1.771
   88SOPE   C11 8253   1.168   6.080   1.870
   88SOPE  H11A 8254   1.202   5.977   1.893
   88SOPE  H11B 8255   1.068   6.086   1.822
   88SOPE     P 8256   1.095   6.287   2.025
   88SOPE   O13 8257   0.989   6.306   1.923
   88SOPE   O14 8258   1.166   6.413   2.065
   88SOPE   O12 8259   1.203   6.178   1.974
   88SOPE   O11 8260   1.036   6.223   2.153
   88SOPE    C1 8261   1.131   6.161   2.244
   88SOPE    HA 8262   1.199   6.240   2.283
   88SOPE    HB 8263   1.199   6.085   2.200
   88SOPE    C2 8264   1.053   6.094   2.351
   88SOPE    HS 8265   0.961   6.052   2.303
   88SOPE   O21 8266   1.009   6.198   2.439
   88SOPE   C21 8267   0.909   6.162   2.520
   88SOPE   O22 8268   0.841   6.062   2.503
   88SOPE   C22 8269   0.898   6.264   2.636
   88SOPE   H2R 8270   0.852   6.361   2.607
   88SOPE   H2S 8271   1.002   6.268   2.675
   88SOPE    C3 8272   1.133   5.986   2.427
   88SOPE    HX 8273   1.166   5.906   2.357
   88SOPE    HY 8274   1.066   5.928   2.493
   88SOPE   O31 8275   1.244   6.042   2.499
   88SOPE   C31 8276   1.226   6.074   2.626
   88SOPE   O32 8277   1.128   6.052   2.688
   88SOPE   C32 8278   1.348   6.149   2.670
   88SOPE   H2X 8279   1.348   6.254   2.633
   88SOPE   H2Y 8280   1.437   6.102   2.624
   88SOPE   C23 8281   0.805   6.200   2.747
   88SOPE   H3R 8282   0.854   6.108   2.786
   88SOPE   H3S 8283   0.709   6.155   2.715
   88SOPE   C24 8284   0.773   6.295   2.860
   88SOPE   H4R 8285   0.861   6.328   2.918
   88SOPE   H4S 8286   0.723   6.385   2.819
   88SOPE   C25 8287   0.673   6.229   2.970
   88SOPE   H5R 8288   0.581   6.206   2.911
   88SOPE   H5S 8289   0.716   6.136   3.013
   88SOPE   C26 8290   0.632   6.323   3.081
   88SOPE   H6R 8291   0.727   6.336   3.137
   88SOPE   H6S 8292   0.594   6.420   3.040
   88SOPE   C27 8293   0.526   6.273   3.175
   88SOPE   H7R 8294   0.429   6.277   3.120
   88SOPE   H7S 8295   0.552   6.169   3.206
   88SOPE   C28 8296   0.515   6.366   3.299
   88SOPE   H8R 8297   0.608   6.350   3.358
   88SOPE   H8S 8298   0.524   6.473   3.271
   88SOPE   C29 8299   0.386   6.350   3.379
   88SOPE   H91 8300   0.301   6.414   3.352
   88SOPE  C210 8301   0.362   6.279   3.489
   88SOPE  H101 8302   0.264   6.288   3.536
   88SOPE  C211 8303   0.462   6.186   3.566
   88SOPE  H11R 8304   0.556   6.166   3.511
   88SOPE  H11S 8305   0.420   6.084   3.576
   88SOPE  C212 8306   0.502   6.231   3.704
   88SOPE  H12R 8307   0.544   6.149   3.766
   88SOPE  H12S 8308   0.409   6.259   3.759
   88SOPE  C213 8309   0.604   6.351   3.703
   88SOPE  H13R 8310   0.571   6.414   3.617
   88SOPE  H13S 8311   0.701   6.307   3.670
   88SOPE  C214 8312   0.607   6.428   3.844
   88SOPE  H14R 8313   0.594   6.356   3.928
   88SOPE  H14S 8314   0.518   6.494   3.843
   88SOPE  C215 8315   0.734   6.507   3.857
   88SOPE  H15R 8316   0.744   6.590   3.785
   88SOPE  H15S 8317   0.821   6.437   3.859
   88SOPE  C216 8318   0.736   6.556   3.994
   88SOPE  H16R 8319   0.713   6.470   4.059
   88SOPE  H16S 8320   0.645   6.620   4.002
   88SOPE  C217 8321   0.868   6.615   4.044
   88SOPE  H17R 8322   0.860   6.723   4.064
   88SOPE  H17S 8323   0.947   6.611   3.965
   88SOPE  C218 8324   0.922   6.544   4.169
   88SOPE  H18R 8325   0.861   6.578   4.255
   88SOPE  H18S 8326   1.024   6.580   4.195
   88SOPE  H18T 8327   0.917   6.433   4.168
   88SOPE   C33 8328   1.369   6.145   2.819
   88SOPE   H3X 8329   1.472   6.173   2.851
   88SOPE   H3Y 8330   1.364   6.037   2.848
   88SOPE   C34 8331   1.259   6.227   2.898
   88SOPE   H4X 8332   1.158   6.227   2.851
   88SOPE   H4Y 8333   1.286   6.334   2.894
   88SOPE   C35 8334   1.247   6.177   3.044
   88SOPE   H5X 8335   1.349   6.190   3.087
   88SOPE   H5Y 8336   1.221   6.069   3.043
   88SOPE   C36 8337   1.129   6.244   3.120
   88SOPE   H6X 8338   1.034   6.209   3.074
   88SOPE   H6Y 8339   1.133   6.354   3.103
   88SOPE   C37 8340   1.118   6.196   3.267
   88SOPE   H7X 8341   1.216   6.227   3.311
   88SOPE   H7Y 8342   1.087   6.089   3.270
   88SOPE   C38 8343   1.002   6.274   3.332
   88SOPE   H8X 8344   0.914   6.265   3.264
   88SOPE   H8Y 8345   1.036   6.380   3.336
   88SOPE   C39 8346   0.943   6.227   3.470
   88SOPE   H9X 8347   0.896   6.126   3.473
   88SOPE   H9Y 8348   0.870   6.303   3.505
   88SOPE  C310 8349   1.049   6.225   3.583
   88SOPE  H10X 8350   1.089   6.328   3.596
   88SOPE  H10Y 8351   1.136   6.175   3.535
   88SOPE  C311 8352   1.004   6.157   3.718
   88SOPE  H11X 8353   0.986   6.051   3.691
   88SOPE  H11Y 8354   0.911   6.212   3.745
   88SOPE  C312 8355   1.104   6.173   3.828
   88SOPE  H12X 8356   1.123   6.281   3.845
   88SOPE  H12Y 8357   1.202   6.128   3.799
   88SOPE  C313 8358   1.054   6.112   3.968
   88SOPE  H13X 8359   1.080   6.005   3.979
   88SOPE  H13Y 8360   0.944   6.124   3.976
   88SOPE  C314 8361   1.103   6.179   4.095
   88SOPE  H14X 8362   1.113   6.287   4.069
   88SOPE  H14Y 8363   1.200   6.125   4.105
   88SOPE  C315 8364   1.019   6.157   4.224
   88SOPE  H15X 8365   0.994   6.049   4.236
   88SOPE  H15Y 8366   0.924   6.214   4.220
   88SOPE  C316 8367   1.090   6.202   4.351
   88SOPE  H16X 8368   1.139   6.298   4.323
   88SOPE  H16Y 8369   1.164   6.128   4.389
   88SOPE  C317 8370   1.000   6.245   4.467
   88SOPE  H17X 8371   0.916   6.300   4.420
   88SOPE  H17Y 8372   1.058   6.304   4.541
   88SOPE  C318 8373   0.943   6.116   4.531
   88SOPE  H18X 8374   1.018   6.035   4.541
   88SOPE  H18Y 8375   0.855   6.073   4.479
   88SOPE  H18Z 8376   0.907   6.140   4.633
   89SAPC     N 8377   4.733   3.095   6.801
   89SAPC   C12 8378   4.767   3.006   6.682
   89SAPC  H12A 8379   4.710   2.914   6.688
   89SAPC  H12B 8380   4.871   2.979   6.683
   89SAPC   C13 8381   4.588   3.117   6.793
   89SAPC  H13A 8382   4.518   3.035   6.798
   89SAPC  H13B 8383   4.555   3.190   6.867
   89SAPC  H13C 8384   4.577   3.138   6.688
   89SAPC   C14 8385   4.763   3.020   6.930
   89SAPC  H14A 8386   4.863   2.981   6.931
   89SAPC  H14B 8387   4.746   3.097   7.004
   89SAPC  H14C 8388   4.689   2.944   6.949
   89SAPC   C15 8389   4.815   3.222   6.808
   89SAPC  H15A 8390   4.921   3.210   6.798
   89SAPC  H15B 8391   4.775   3.293   6.736
   89SAPC  H15C 8392   4.806   3.272   6.904
   89SAPC   C11 8393   4.768   3.076   6.540
   89SAPC  H11A 8394   4.795   3.004   6.461
   89SAPC  H11B 8395   4.837   3.164   6.541
   89SAPC     P 8396   4.581   3.157   6.378
   89SAPC   O13 8397   4.444   3.104   6.349
   89SAPC   O14 8398   4.595   3.306   6.383
   89SAPC   O12 8399   4.630   3.107   6.519
   89SAPC   O11 8400   4.692   3.100   6.276
   89SAPC    C1 8401   4.810   3.181   6.261
   89SAPC    HA 8402   4.842   3.230   6.355
   89SAPC    HB 8403   4.887   3.102   6.242
   89SAPC    C2 8404   4.797   3.279   6.143
   89SAPC    HS 8405   4.732   3.360   6.182
   89SAPC   O21 8406   4.736   3.204   6.037
   89SAPC   C21 8407   4.645   3.265   5.968
   89SAPC   O22 8408   4.600   3.378   5.998
   89SAPC   C22 8409   4.596   3.191   5.849
   89SAPC   H2R 8410   4.623   3.084   5.854
   89SAPC   H2S 8411   4.485   3.186   5.846
   89SAPC    C3 8412   4.928   3.334   6.103
   89SAPC    HX 8413   4.966   3.245   6.048
   89SAPC    HY 8414   5.004   3.357   6.180
   89SAPC   O31 8415   4.916   3.445   6.018
   89SAPC   C31 8416   4.921   3.562   6.079
   89SAPC   O32 8417   4.921   3.574   6.202
   89SAPC   C32 8418   4.918   3.679   5.979
   89SAPC   H2X 8419   4.994   3.750   6.019
   89SAPC   H2Y 8420   4.815   3.719   5.987
   89SAPC   C23 8421   4.631   3.254   5.716
   89SAPC   H3R 8422   4.619   3.364   5.713
   89SAPC   H3S 8423   4.556   3.221   5.640
   89SAPC   C24 8424   4.765   3.206   5.672
   89SAPC   H4R 8425   4.755   3.095   5.681
   89SAPC   H4S 8426   4.841   3.240   5.746
   89SAPC   C25 8427   4.799   3.255   5.534
   89SAPC   H5R 8428   4.805   3.364   5.521
   89SAPC   C26 8429   4.799   3.186   5.415
   89SAPC   H6R 8430   4.817   3.238   5.320
   89SAPC   C27 8431   4.781   3.040   5.391
   89SAPC   H7R 8432   4.701   3.035   5.314
   89SAPC   H7S 8433   4.737   2.992   5.480
   89SAPC   C28 8434   4.892   2.959   5.344
   89SAPC   H8R 8435   4.955   2.939   5.433
   89SAPC   C29 8436   4.924   2.920   5.222
   89SAPC   H9R 8437   5.019   2.864   5.209
   89SAPC  C210 8438   4.840   2.962   5.103
   89SAPC  H10R 8439   4.778   3.051   5.124
   89SAPC  H10S 8440   4.771   2.884   5.065
   89SAPC  C211 8441   4.944   3.010   4.995
   89SAPC  H11R 8442   5.047   3.024   5.031
   89SAPC  C212 8443   4.910   3.040   4.869
   89SAPC  H12R 8444   4.988   3.089   4.809
   89SAPC  C213 8445   4.773   3.036   4.807
   89SAPC  H13R 8446   4.741   3.139   4.781
   89SAPC  H13S 8447   4.701   3.008   4.887
   89SAPC  C214 8448   4.777   2.941   4.686
   89SAPC  H14R 8449   4.799   2.834   4.702
   89SAPC  C215 8450   4.767   2.987   4.561
   89SAPC  H15R 8451   4.754   2.909   4.484
   89SAPC  C216 8452   4.743   3.130   4.515
   89SAPC  H16R 8453   4.728   3.203   4.598
   89SAPC  H16S 8454   4.646   3.124   4.462
   89SAPC  C217 8455   4.853   3.175   4.420
   89SAPC  H17R 8456   4.952   3.155   4.466
   89SAPC  H17S 8457   4.843   3.284   4.401
   89SAPC  C218 8458   4.870   3.101   4.280
   89SAPC  H18R 8459   4.795   3.134   4.205
   89SAPC  H18S 8460   4.851   2.992   4.289
   89SAPC  C219 8461   5.008   3.109   4.215
   89SAPC  H19R 8462   5.092   3.074   4.278
   89SAPC  H19S 8463   5.024   3.215   4.182
   89SAPC  C220 8464   5.009   3.016   4.097
   89SAPC  H20R 8465   4.915   3.031   4.039
   89SAPC  H20S 8466   5.003   2.912   4.135
   89SAPC  H20T 8467   5.088   3.031   4.021
   89SAPC   C33 8468   4.933   3.646   5.830
   89SAPC   H3X 8469   4.844   3.595   5.789
   89SAPC   H3Y 8470   5.021   3.580   5.812
   89SAPC   C34 8471   4.966   3.779   5.753
   89SAPC   H4X 8472   5.051   3.830   5.802
   89SAPC   H4Y 8473   4.886   3.856   5.762
   89SAPC   C35 8474   4.993   3.745   5.599
   89SAPC   H5X 8475   5.019   3.637   5.600
   89SAPC   H5Y 8476   5.073   3.812   5.561
   89SAPC   C36 8477   4.866   3.761   5.513
   89SAPC   H6X 8478   4.837   3.865   5.486
   89SAPC   H6Y 8479   4.783   3.718   5.573
   89SAPC   C37 8480   4.874   3.659   5.392
   89SAPC   H7X 8481   4.868   3.555   5.430
   89SAPC   H7Y 8482   4.972   3.667   5.340
   89SAPC   C38 8483   4.769   3.677   5.285
   89SAPC   H8X 8484   4.816   3.621   5.202
   89SAPC   H8Y 8485   4.764   3.788   5.275
   89SAPC   C39 8486   4.632   3.614   5.310
   89SAPC   H9X 8487   4.603   3.662   5.406
   89SAPC   H9Y 8488   4.665   3.508   5.320
   89SAPC  C310 8489   4.521   3.628   5.207
   89SAPC  H10X 8490   4.563   3.592   5.111
   89SAPC  H10Y 8491   4.509   3.738   5.198
   89SAPC  C311 8492   4.397   3.557   5.247
   89SAPC  H11X 8493   4.363   3.594   5.346
   89SAPC  H11Y 8494   4.414   3.447   5.256
   89SAPC  C312 8495   4.272   3.577   5.164
   89SAPC  H12X 8496   4.264   3.515   5.072
   89SAPC  H12Y 8497   4.265   3.678   5.119
   89SAPC  C313 8498   4.138   3.574   5.232
   89SAPC  H13X 8499   4.060   3.580   5.153
   89SAPC  H13Y 8500   4.132   3.648   5.314
   89SAPC  C314 8501   4.101   3.443   5.311
   89SAPC  H14X 8502   4.111   3.357   5.242
   89SAPC  H14Y 8503   3.991   3.454   5.322
   89SAPC  C315 8504   4.162   3.421   5.450
   89SAPC  H15X 8505   4.175   3.516   5.506
   89SAPC  H15Y 8506   4.261   3.370   5.451
   89SAPC  C316 8507   4.070   3.328   5.537
   89SAPC  H16X 8508   4.036   3.235   5.486
   89SAPC  H16Y 8509   3.981   3.384   5.573
   89SAPC  C317 8510   4.142   3.265   5.661
   89SAPC  H17X 8511   4.229   3.207   5.621
   89SAPC  H17Y 8512   4.081   3.184   5.706
   89SAPC  C318 8513   4.173   3.368   5.771
   89SAPC  H18X 8514   4.185   3.310   5.865
   89SAPC  H18Y 8515   4.084   3.432   5.787
   89SAPC  H18Z 8516   4.257   3.436   5.746
   90SAPC     N 8517   2.289   5.756   6.806
   90SAPC   C12 8518   2.413   5.709   6.741
   90SAPC  H12A 8519   2.409   5.604   6.718
   90SAPC  H12B 8520   2.488   5.716   6.818
   90SAPC   C13 8521   2.177   5.759   6.709
   90SAPC  H13A 8522   2.170   5.666   6.653
   90SAPC  H13B 8523   2.080   5.771   6.755
   90SAPC  H13C 8524   2.192   5.840   6.639
   90SAPC   C14 8525   2.252   5.649   6.901
   90SAPC  H14A 8526   2.242   5.554   6.852
   90SAPC  H14B 8527   2.329   5.631   6.975
   90SAPC  H14C 8528   2.158   5.673   6.948
   90SAPC   C15 8529   2.311   5.880   6.876
   90SAPC  H15A 8530   2.388   5.868   6.951
   90SAPC  H15B 8531   2.326   5.961   6.806
   90SAPC  H15C 8532   2.226   5.906   6.937
   90SAPC   C11 8533   2.458   5.787   6.617
   90SAPC  H11A 8534   2.383   5.789   6.536
   90SAPC  H11B 8535   2.549   5.738   6.576
   90SAPC     P 8536   2.638   5.946   6.709
   90SAPC   O13 8537   2.652   6.091   6.735
   90SAPC   O14 8538   2.668   5.855   6.826
   90SAPC   O12 8539   2.491   5.922   6.652
   90SAPC   O11 8540   2.718   5.908   6.579
   90SAPC    C1 8541   2.697   5.963   6.446
   90SAPC    HA 8542   2.698   5.879   6.373
   90SAPC    HB 8543   2.594   6.003   6.447
   90SAPC    C2 8544   2.809   6.065   6.409
   90SAPC    HS 8545   2.798   6.151   6.477
   90SAPC   O21 8546   2.790   6.105   6.270
   90SAPC   C21 8547   2.864   6.210   6.236
   90SAPC   O22 8548   2.936   6.277   6.312
   90SAPC   C22 8549   2.852   6.251   6.088
   90SAPC   H2R 8550   2.840   6.165   6.019
   90SAPC   H2S 8551   2.768   6.324   6.083
   90SAPC    C3 8552   2.946   5.990   6.427
   90SAPC    HX 8553   2.942   5.976   6.538
   90SAPC    HY 8554   3.026   6.059   6.394
   90SAPC   O31 8555   2.940   5.857   6.365
   90SAPC   C31 8556   2.991   5.850   6.245
   90SAPC   O32 8557   3.036   5.945   6.181
   90SAPC   C32 8558   2.978   5.710   6.205
   90SAPC   H2X 8559   2.874   5.673   6.194
   90SAPC   H2Y 8560   3.039   5.652   6.278
   90SAPC   C23 8561   2.975   6.343   6.054
   90SAPC   H3R 8562   3.072   6.316   6.103
   90SAPC   H3S 8563   2.963   6.449   6.085
   90SAPC   C24 8564   2.998   6.344   5.906
   90SAPC   H4R 8565   3.080   6.416   5.882
   90SAPC   H4S 8566   2.908   6.380   5.851
   90SAPC   C25 8567   3.023   6.200   5.853
   90SAPC   H5R 8568   2.934   6.135   5.853
   90SAPC   C26 8569   3.149   6.159   5.808
   90SAPC   H6R 8570   3.166   6.054   5.781
   90SAPC   C27 8571   3.270   6.242   5.817
   90SAPC   H7R 8572   3.290   6.277   5.920
   90SAPC   H7S 8573   3.246   6.331   5.755
   90SAPC   C28 8574   3.390   6.175   5.752
   90SAPC   H8R 8575   3.446   6.101   5.812
   90SAPC   C29 8576   3.429   6.194   5.625
   90SAPC   H9R 8577   3.511   6.130   5.589
   90SAPC  C210 8578   3.380   6.289   5.517
   90SAPC  H10R 8579   3.459   6.364   5.497
   90SAPC  H10S 8580   3.299   6.359   5.549
   90SAPC  C211 8581   3.324   6.208   5.399
   90SAPC  H11R 8582   3.226   6.171   5.433
   90SAPC  C212 8583   3.383   6.178   5.284
   90SAPC  H12R 8584   3.318   6.138   5.204
   90SAPC  C213 8585   3.512   6.237   5.229
   90SAPC  H13R 8586   3.553   6.161   5.160
   90SAPC  H13S 8587   3.577   6.257   5.317
   90SAPC  C214 8588   3.507   6.366   5.156
   90SAPC  H14R 8589   3.550   6.453   5.208
   90SAPC  C215 8590   3.442   6.382   5.033
   90SAPC  H15R 8591   3.442   6.480   4.983
   90SAPC  C216 8592   3.382   6.274   4.946
   90SAPC  H16R 8593   3.416   6.170   4.968
   90SAPC  H16S 8594   3.409   6.297   4.841
   90SAPC  C217 8595   3.226   6.260   4.949
   90SAPC  H17R 8596   3.198   6.245   5.056
   90SAPC  H17S 8597   3.214   6.165   4.893
   90SAPC  C218 8598   3.147   6.369   4.877
   90SAPC  H18R 8599   3.205   6.388   4.784
   90SAPC  H18S 8600   3.148   6.460   4.942
   90SAPC  C219 8601   3.009   6.327   4.827
   90SAPC  H19R 8602   2.970   6.410   4.764
   90SAPC  H19S 8603   2.943   6.312   4.916
   90SAPC  C220 8604   3.011   6.205   4.740
   90SAPC  H20R 8605   2.929   6.204   4.665
   90SAPC  H20S 8606   3.012   6.111   4.800
   90SAPC  H20T 8607   3.099   6.211   4.672
   90SAPC   C33 8608   3.044   5.686   6.065
   90SAPC   H3X 8609   3.083   5.582   6.063
   90SAPC   H3Y 8610   3.140   5.739   6.051
   90SAPC   C34 8611   2.955   5.721   5.937
   90SAPC   H4X 8612   2.906   5.819   5.952
   90SAPC   H4Y 8613   2.876   5.643   5.928
   90SAPC   C35 8614   3.044   5.745   5.818
   90SAPC   H5X 8615   3.109   5.657   5.800
   90SAPC   H5Y 8616   3.114   5.826   5.849
   90SAPC   C36 8617   2.972   5.784   5.692
   90SAPC   H6X 8618   2.920   5.881   5.705
   90SAPC   H6Y 8619   2.887   5.719   5.664
   90SAPC   C37 8620   3.074   5.784   5.576
   90SAPC   H7X 8621   3.110   5.678   5.570
   90SAPC   H7Y 8622   3.163   5.846   5.600
   90SAPC   C38 8623   3.023   5.821   5.439
   90SAPC   H8X 8624   2.984   5.925   5.447
   90SAPC   H8Y 8625   2.934   5.759   5.415
   90SAPC   C39 8626   3.124   5.833   5.327
   90SAPC   H9X 8627   3.194   5.746   5.329
   90SAPC   H9Y 8628   3.186   5.924   5.339
   90SAPC  C310 8629   3.056   5.833   5.186
   90SAPC  H10X 8630   2.984   5.917   5.174
   90SAPC  H10Y 8631   3.002   5.738   5.172
   90SAPC  C311 8632   3.156   5.836   5.073
   90SAPC  H11X 8633   3.247   5.774   5.086
   90SAPC  H11Y 8634   3.202   5.937   5.079
   90SAPC  C312 8635   3.090   5.815   4.937
   90SAPC  H12X 8636   3.022   5.903   4.937
   90SAPC  H12Y 8637   3.032   5.720   4.936
   90SAPC  C313 8638   3.190   5.838   4.825
   90SAPC  H13X 8639   3.274   5.768   4.843
   90SAPC  H13Y 8640   3.228   5.942   4.835
   90SAPC  C314 8641   3.114   5.824   4.694
   90SAPC  H14X 8642   3.080   5.926   4.669
   90SAPC  H14Y 8643   3.021   5.763   4.703
   90SAPC  C315 8644   3.206   5.772   4.581
   90SAPC  H15X 8645   3.225   5.667   4.614
   90SAPC  H15Y 8646   3.305   5.822   4.585
   90SAPC  C316 8647   3.142   5.779   4.441
   90SAPC  H16X 8648   3.123   5.885   4.412
   90SAPC  H16Y 8649   3.051   5.716   4.431
   90SAPC  C317 8650   3.237   5.724   4.335
   90SAPC  H17X 8651   3.266   5.624   4.374
   90SAPC  H17Y 8652   3.330   5.785   4.332
   90SAPC  C318 8653   3.181   5.709   4.194
   90SAPC  H18X 8654   3.074   5.678   4.197
   90SAPC  H18Y 8655   3.231   5.628   4.137
   90SAPC  H18Z 8656   3.191   5.804   4.138
   91SAPC     N 8657   0.332   5.301   6.777
   91SAPC   C12 8658   0.296   5.264   6.635
   91SAPC  H12A 8659   0.188   5.260   6.625
   91SAPC  H12B 8660   0.326   5.166   6.600
   91SAPC   C13 8661   0.466   5.354   6.790
   91SAPC  H13A 8662   0.487   5.387   6.890
   91SAPC  H13B 8663   0.539   5.278   6.764
   91SAPC  H13C 8664   0.477   5.433   6.717
   91SAPC   C14 8665   0.238   5.404   6.839
   91SAPC  H14A 8666   0.272   5.456   6.927
   91SAPC  H14B 8667   0.226   5.488   6.773
   91SAPC  H14C 8668   0.141   5.360   6.857
   91SAPC   C15 8669   0.322   5.183   6.857
   91SAPC  H15A 8670   0.346   5.201   6.961
   91SAPC  H15B 8671   0.221   5.143   6.856
   91SAPC  H15C 8672   0.382   5.099   6.825
   91SAPC   C11 8673   0.337   5.366   6.524
   91SAPC  H11A 8674   0.297   5.326   6.429
   91SAPC  H11B 8675   0.448   5.373   6.518
   91SAPC     P 8676   0.138   5.522   6.480
   91SAPC   O13 8677   0.049   5.402   6.507
   91SAPC   O14 8678   0.089   5.654   6.527
   91SAPC   O12 8679   0.285   5.496   6.543
   91SAPC   O11 8680   0.176   5.534   6.330
   91SAPC    C1 8681   0.271   5.635   6.276
   91SAPC    HA 8682   0.275   5.733   6.328
   91SAPC    HB 8683   0.371   5.586   6.286
   91SAPC    C2 8684   0.243   5.664   6.126
   91SAPC    HS 8685   0.256   5.567   6.073
   91SAPC   O21 8686   0.328   5.775   6.088
   91SAPC   C21 8687   0.460   5.756   6.064
   91SAPC   O22 8688   0.521   5.654   6.093
   91SAPC   C22 8689   0.533   5.881   6.015
   91SAPC   H2R 8690   0.475   5.968   6.052
   91SAPC   H2S 8691   0.629   5.879   6.070
   91SAPC    C3 8692   0.099   5.713   6.115
   91SAPC    HX 8693   0.082   5.799   6.183
   91SAPC    HY 8694   0.038   5.628   6.150
   91SAPC   O31 8695   0.069   5.752   5.973
   91SAPC   C31 8696   6.829   5.753   5.953
   91SAPC   O32 8697   6.735   5.750   6.032
   91SAPC   C32 8698   6.797   5.742   5.801
   91SAPC   H2X 8699   6.830   5.638   5.779
   91SAPC   H2Y 8700   6.863   5.814   5.749
   91SAPC   C23 8701   0.562   5.889   5.865
   91SAPC   H3R 8702   0.561   5.796   5.804
   91SAPC   H3S 8703   0.664   5.931   5.852
   91SAPC   C24 8704   0.463   5.980   5.801
   91SAPC   H4R 8705   0.448   6.070   5.866
   91SAPC   H4S 8706   0.362   5.939   5.782
   91SAPC   C25 8707   0.517   6.044   5.678
   91SAPC   H5R 8708   0.586   6.128   5.694
   91SAPC   C26 8709   0.476   6.008   5.554
   91SAPC   H6R 8710   0.527   6.050   5.466
   91SAPC   C27 8711   0.370   5.907   5.513
   91SAPC   H7R 8712   0.409   5.807   5.543
   91SAPC   H7S 8713   0.383   5.906   5.402
   91SAPC   C28 8714   0.227   5.931   5.540
   91SAPC   H8R 8715   0.218   5.972   5.642
   91SAPC   C29 8716   0.123   5.930   5.455
   91SAPC   H9R 8717   0.023   5.951   5.495
   91SAPC  C210 8718   0.126   5.882   5.307
   91SAPC  H10R 8719   0.211   5.811   5.293
   91SAPC  H10S 8720   0.156   5.968   5.244
   91SAPC  C211 8721   0.002   5.804   5.263
   91SAPC  H11R 8722   6.840   5.742   5.340
   91SAPC  C212 8723   6.836   5.819   5.139
   91SAPC  H12R 8724   6.745   5.758   5.129
   91SAPC  C213 8725   6.885   5.901   5.027
   91SAPC  H13R 8726   0.035   5.993   5.077
   91SAPC  H13S 8727   6.802   5.919   4.956
   91SAPC  C214 8728   0.122   5.842   4.958
   91SAPC  H14R 8729   0.217   5.851   5.012
   91SAPC  C215 8730   0.135   5.798   4.827
   91SAPC  H15R 8731   0.236   5.771   4.794
   91SAPC  C216 8732   0.023   5.797   4.730
   91SAPC  H16R 8733   6.873   5.902   4.723
   91SAPC  H16S 8734   6.828   5.729   4.764
   91SAPC  C217 8735   0.065   5.770   4.589
   91SAPC  H17R 8736   0.108   5.668   4.580
   91SAPC  H17S 8737   0.143   5.845   4.563
   91SAPC  C218 8738   6.838   5.788   4.494
   91SAPC  H18R 8739   6.817   5.895   4.473
   91SAPC  H18S 8740   6.743   5.746   4.533
   91SAPC  C219 8741   6.866   5.724   4.359
   91SAPC  H19R 8742   6.845   5.617   4.382
   91SAPC  H19S 8743   0.086   5.739   4.332
   91SAPC  C220 8744   6.760   5.770   4.261
   91SAPC  H20R 8745   6.743   5.715   4.167
   91SAPC  H20S 8746   6.789   5.874   4.234
   91SAPC  H20T 8747   6.659   5.775   4.307
   91SAPC   C33 8748   6.653   5.754   5.771
   91SAPC   H3X 8749   6.619   5.860   5.782
   91SAPC   H3Y 8750   6.606   5.690   5.849
   91SAPC   C34 8751   6.619   5.723   5.624
   91SAPC   H4X 8752   6.668   5.627   5.595
   91SAPC   H4Y 8753   6.665   5.805   5.565
   91SAPC   C35 8754   6.475   5.716   5.598
   91SAPC   H5X 8755   6.437   5.818   5.619
   91SAPC   H5Y 8756   6.419   5.640   5.656
   91SAPC   C36 8757   6.450   5.679   5.453
   91SAPC   H6X 8758   6.341   5.672   5.431
   91SAPC   H6Y 8759   6.488   5.583   5.412
   91SAPC   C37 8760   6.483   5.784   5.348
   91SAPC   H7X 8761   6.590   5.812   5.342
   91SAPC   H7Y 8762   6.416   5.872   5.358
   91SAPC   C38 8763   6.438   5.729   5.207
   91SAPC   H8X 8764   6.340   5.680   5.224
   91SAPC   H8Y 8765   6.512   5.654   5.171
   91SAPC   C39 8766   6.416   5.834   5.101
   91SAPC   H9X 8767   6.508   5.896   5.104
   91SAPC   H9Y 8768   6.330   5.894   5.137
   91SAPC  C310 8769   6.404   5.775   4.959
   91SAPC  H10X 8770   6.314   5.711   4.950
   91SAPC  H10Y 8771   6.496   5.713   4.959
   91SAPC  C311 8772   6.418   5.891   4.856
   91SAPC  H11X 8773   6.508   5.950   4.884
   91SAPC  H11Y 8774   6.328   5.953   4.879
   91SAPC  C312 8775   6.422   5.839   4.711
   91SAPC  H12X 8776   6.336   5.772   4.694
   91SAPC  H12Y 8777   6.507   5.769   4.693
   91SAPC  C313 8778   6.421   5.954   4.612
   91SAPC  H13X 8779   6.510   6.018   4.633
   91SAPC  H13Y 8780   6.344   6.033   4.623
   91SAPC  C314 8781   6.431   5.914   4.467
   91SAPC  H14X 8782   6.333   5.874   4.434
   91SAPC  H14Y 8783   6.498   5.826   4.453
   91SAPC  C315 8784   6.479   6.018   4.369
   91SAPC  H15X 8785   6.442   5.975   4.273
   91SAPC  H15Y 8786   6.590   6.022   4.363
   91SAPC  C316 8787   6.421   6.155   4.400
   91SAPC  H16X 8788   6.475   6.193   4.490
   91SAPC  H16Y 8789   6.316   6.125   4.420
   91SAPC  C317 8790   6.417   6.254   4.281
   91SAPC  H17X 8791   6.374   6.192   4.199
   91SAPC  H17Y 8792   6.527   6.258   4.267
   91SAPC  C318 8793   6.347   6.385   4.316
   91SAPC  H18X 8794   6.410   6.445   4.385
   91SAPC  H18Y 8795   6.248   6.374   4.364
   91SAPC  H18Z 8796   6.337   6.445   4.223
   92SAPC     N 8797   5.691   4.935   6.460
   92SAPC   C12 8798   5.723   5.068   6.519
   92SAPC  H12A 8799   5.639   5.103   6.577
   92SAPC  H12B 8800   5.755   5.136   6.441
   92SAPC   C13 8801   5.685   4.825   6.558
   92SAPC  H13A 8802   5.778   4.819   6.612
   92SAPC  H13B 8803   5.605   4.844   6.629
   92SAPC  H13C 8804   5.665   4.728   6.514
   92SAPC   C14 8805   5.560   4.927   6.395
   92SAPC  H14A 8806   5.474   4.937   6.460
   92SAPC  H14B 8807   5.540   4.998   6.315
   92SAPC  H14C 8808   5.550   4.826   6.356
   92SAPC   C15 8809   5.792   4.897   6.356
   92SAPC  H15A 8810   5.894   4.924   6.380
   92SAPC  H15B 8811   5.786   4.790   6.336
   92SAPC  H15C 8812   5.765   4.943   6.262
   92SAPC   C11 8813   5.843   5.064   6.613
   92SAPC  H11A 8814   5.804   5.001   6.696
   92SAPC  H11B 8815   5.869   5.163   6.657
   92SAPC     P 8816   6.093   5.003   6.657
   92SAPC   O13 8817   6.056   5.008   6.799
   92SAPC   O14 8818   6.179   4.892   6.616
   92SAPC   O12 8819   5.960   5.011   6.563
   92SAPC   O11 8820   6.174   5.125   6.613
   92SAPC    C1 8821   6.159   5.200   6.494
   92SAPC    HA 8822   6.052   5.213   6.467
   92SAPC    HB 8823   6.183   5.303   6.528
   92SAPC    C2 8824   6.258   5.156   6.385
   92SAPC    HS 8825   6.258   5.237   6.309
   92SAPC   O21 8826   6.218   5.034   6.317
   92SAPC   C21 8827   6.106   5.044   6.249
   92SAPC   O22 8828   6.036   5.140   6.231
   92SAPC   C22 8829   6.087   4.917   6.163
   92SAPC   H2R 8830   6.180   4.871   6.124
   92SAPC   H2S 8831   6.035   4.834   6.216
   92SAPC    C3 8832   6.402   5.147   6.445
   92SAPC    HX 8833   6.407   5.057   6.510
   92SAPC    HY 8834   6.432   5.231   6.510
   92SAPC   O31 8835   6.500   5.128   6.343
   92SAPC   C31 8836   6.532   5.235   6.268
   92SAPC   O32 8837   6.488   5.350   6.279
   92SAPC   C32 8838   6.636   5.201   6.167
   92SAPC   H2X 8839   6.645   5.090   6.169
   92SAPC   H2Y 8840   6.729   5.236   6.215
   92SAPC   C23 8841   5.996   4.943   6.034
   92SAPC   H3R 8842   6.063   5.005   5.969
   92SAPC   H3S 8843   5.903   4.997   6.063
   92SAPC   C24 8844   5.972   4.809   5.967
   92SAPC   H4R 8845   5.923   4.737   6.036
   92SAPC   H4S 8846   6.060   4.748   5.939
   92SAPC   C25 8847   5.876   4.834   5.856
   92SAPC   H5R 8848   5.784   4.887   5.882
   92SAPC   C26 8849   5.886   4.792   5.727
   92SAPC   H6R 8850   5.810   4.832   5.659
   92SAPC   C27 8851   5.991   4.699   5.659
   92SAPC   H7R 8852   6.063   4.656   5.732
   92SAPC   H7S 8853   6.052   4.766   5.595
   92SAPC   C28 8854   5.941   4.594   5.561
   92SAPC   H8R 8855   5.906   4.502   5.610
   92SAPC   C29 8856   5.945   4.593   5.429
   92SAPC   H9R 8857   5.894   4.513   5.373
   92SAPC  C210 8858   5.996   4.699   5.334
   92SAPC  H10R 8859   6.094   4.661   5.300
   92SAPC  H10S 8860   6.018   4.794   5.388
   92SAPC  C211 8861   5.898   4.725   5.222
   92SAPC  H11R 8862   5.809   4.784   5.249
   92SAPC  C212 8863   5.910   4.687   5.091
   92SAPC  H12R 8864   5.836   4.724   5.018
   92SAPC  C213 8865   6.020   4.608   5.015
   92SAPC  H13R 8866   5.970   4.549   4.935
   92SAPC  H13S 8867   6.058   4.529   5.083
   92SAPC  C214 8868   6.130   4.690   4.961
   92SAPC  H14R 8869   6.196   4.736   5.036
   92SAPC  C215 8870   6.154   4.729   4.835
   92SAPC  H15R 8871   6.244   4.789   4.814
   92SAPC  C216 8872   6.072   4.687   4.714
   92SAPC  H16R 8873   6.009   4.773   4.684
   92SAPC  H16S 8874   6.000   4.609   4.747
   92SAPC  C217 8875   6.142   4.638   4.585
   92SAPC  H17R 8876   6.066   4.633   4.504
   92SAPC  H17S 8877   6.185   4.537   4.600
   92SAPC  C218 8878   6.249   4.730   4.539
   92SAPC  H18R 8879   6.326   4.760   4.613
   92SAPC  H18S 8880   6.197   4.816   4.492
   92SAPC  C219 8881   6.334   4.670   4.428
   92SAPC  H19R 8882   6.263   4.649   4.345
   92SAPC  H19S 8883   6.357   4.567   4.461
   92SAPC  C220 8884   6.453   4.753   4.383
   92SAPC  H20R 8885   6.488   4.717   4.284
   92SAPC  H20S 8886   6.539   4.734   4.450
   92SAPC  H20T 8887   6.430   4.861   4.384
   92SAPC   C33 8888   6.610   5.263   6.034
   92SAPC   H3X 8889   6.599   5.374   6.038
   92SAPC   H3Y 8890   6.521   5.222   5.983
   92SAPC   C34 8891   6.734   5.234   5.946
   92SAPC   H4X 8892   6.748   5.126   5.924
   92SAPC   H4Y 8893   6.822   5.272   6.002
   92SAPC   C35 8894   6.732   5.305   5.803
   92SAPC   H5X 8895   6.836   5.306   5.765
   92SAPC   H5Y 8896   6.701   5.411   5.806
   92SAPC   C36 8897   6.645   5.225   5.708
   92SAPC   H6X 8898   6.537   5.229   5.733
   92SAPC   H6Y 8899   6.682   5.120   5.712
   92SAPC   C37 8900   6.676   5.270   5.564
   92SAPC   H7X 8901   6.786   5.263   5.552
   92SAPC   H7Y 8902   6.650   5.378   5.552
   92SAPC   C38 8903   6.592   5.198   5.458
   92SAPC   H8X 8904   6.482   5.210   5.456
   92SAPC   H8Y 8905   6.608   5.090   5.480
   92SAPC   C39 8906   6.657   5.208   5.319
   92SAPC   H9X 8907   6.615   5.125   5.258
   92SAPC   H9Y 8908   6.767   5.197   5.329
   92SAPC  C310 8909   6.636   5.337   5.248
   92SAPC  H10X 8910   6.688   5.422   5.298
   92SAPC  H10Y 8911   6.530   5.368   5.251
   92SAPC  C311 8912   6.698   5.327   5.107
   92SAPC  H11X 8913   6.626   5.273   5.042
   92SAPC  H11Y 8914   6.791   5.266   5.109
   92SAPC  C312 8915   6.731   5.462   5.050
   92SAPC  H12X 8916   6.793   5.514   5.126
   92SAPC  H12Y 8917   6.637   5.518   5.031
   92SAPC  C313 8918   6.819   5.461   4.924
   92SAPC  H13X 8919   0.027   5.407   4.946
   92SAPC  H13Y 8920   6.850   5.564   4.897
   92SAPC  C314 8921   6.753   5.392   4.798
   92SAPC  H14X 8922   6.645   5.420   4.797
   92SAPC  H14Y 8923   6.751   5.283   4.818
   92SAPC  C315 8924   6.821   5.419   4.660
   92SAPC  H15X 8925   6.839   5.529   4.663
   92SAPC  H15Y 8926   6.748   5.413   4.577
   92SAPC  C316 8927   0.065   5.341   4.639
   92SAPC  H16X 8928   0.043   5.232   4.648
   92SAPC  H16Y 8929   0.143   5.375   4.710
   92SAPC  C317 8930   0.132   5.360   4.499
   92SAPC  H17X 8931   0.168   5.465   4.488
   92SAPC  H17Y 8932   0.055   5.348   4.420
   92SAPC  C318 8933   0.262   5.276   4.473
   92SAPC  H18X 8934   0.286   5.308   4.370
   92SAPC  H18Y 8935   0.237   5.169   4.491
   92SAPC  H18Z 8936   0.345   5.296   4.544
   93SAPC     N 8937   1.076   6.575   7.067
   93SAPC   C12 8938   1.100   6.686   6.963
   93SAPC  H12A 8939   1.204   6.697   6.936
   93SAPC  H12B 8940   1.055   6.767   7.018
   93SAPC   C13 8941   1.153   6.459   7.017
   93SAPC  H13A 8942   1.141   6.365   7.070
   93SAPC  H13B 8943   1.119   6.438   6.917
   93SAPC  H13C 8944   1.261   6.469   7.011
   93SAPC   C14 8945   1.131   6.624   7.196
   93SAPC  H14A 8946   1.234   6.658   7.188
   93SAPC  H14B 8947   1.068   6.694   7.247
   93SAPC  H14C 8948   1.140   6.536   7.257
   93SAPC   C15 8949   0.932   6.549   7.081
   93SAPC  H15A 8950   0.870   6.637   7.087
   93SAPC  H15B 8951   0.885   6.500   6.996
   93SAPC  H15C 8952   0.915   6.488   7.168
   93SAPC   C11 8953   1.026   6.675   6.826
   93SAPC  H11A 8954   1.006   6.782   6.805
   93SAPC  H11B 8955   0.932   6.617   6.832
   93SAPC     P 8956   1.216   6.682   6.639
   93SAPC   O13 8957   1.227   6.829   6.669
   93SAPC   O14 8958   1.343   6.605   6.644
   93SAPC   O12 8959   1.108   6.618   6.727
   93SAPC   O11 8960   1.164   6.672   6.498
   93SAPC    C1 8961   1.032   6.652   6.462
   93SAPC    HA 8962   0.993   6.558   6.505
   93SAPC    HB 8963   0.971   6.737   6.502
   93SAPC    C2 8964   1.025   6.637   6.307
   93SAPC    HS 8965   1.089   6.551   6.280
   93SAPC   O21 8966   1.061   6.762   6.253
   93SAPC   C21 8967   1.116   6.764   6.134
   93SAPC   O22 8968   1.125   6.668   6.062
   93SAPC   C22 8969   1.176   0.013   6.090
   93SAPC   H2R 8970   1.139   0.086   6.166
   93SAPC   H2S 8971   1.286   0.005   6.109
   93SAPC    C3 8972   0.882   6.589   6.257
   93SAPC    HX 8973   0.811   6.660   6.306
   93SAPC    HY 8974   0.851   6.494   6.307
   93SAPC   O31 8975   0.852   6.573   6.114
   93SAPC   C31 8976   0.915   6.476   6.053
   93SAPC   O32 8977   0.992   6.406   6.109
   93SAPC   C32 8978   0.878   6.481   5.899
   93SAPC   H2X 8979   0.879   6.587   5.866
   93SAPC   H2Y 8980   0.775   6.442   5.887
   93SAPC   C23 8981   1.159   0.046   5.937
   93SAPC   H3R 8982   1.189   6.859   5.859
   93SAPC   H3S 8983   1.226   0.134   5.924
   93SAPC   C24 8984   1.018   0.094   5.907
   93SAPC   H4R 8985   0.978   0.166   5.982
   93SAPC   H4S 8986   0.947   0.009   5.919
   93SAPC   C25 8987   1.011   0.144   5.759
   93SAPC   H5R 8988   1.027   0.253   5.749
   93SAPC   C26 8989   0.992   0.067   5.647
   93SAPC   H6R 8990   0.994   0.118   5.550
   93SAPC   C27 8991   0.957   6.807   5.641
   93SAPC   H7R 8992   0.866   6.787   5.579
   93SAPC   H7S 8993   0.936   6.761   5.740
   93SAPC   C28 8994   1.079   6.728   5.619
   93SAPC   H8R 8995   1.147   6.711   5.703
   93SAPC   C29 8996   1.108   6.660   5.507
   93SAPC   H9R 8997   1.201   6.602   5.499
   93SAPC  C210 8998   1.028   6.666   5.375
   93SAPC  H10R 8999   0.927   6.712   5.389
   93SAPC  H10S 9000   1.017   6.561   5.341
   93SAPC  C211 9001   1.089   6.755   5.264
   93SAPC  H11R 9002   1.089   6.861   5.292
   93SAPC  C212 9003   1.142   6.718   5.146
   93SAPC  H12R 9004   1.187   6.795   5.080
   93SAPC  C213 9005   1.143   6.572   5.085
   93SAPC  H13R 9006   1.086   6.505   5.153
   93SAPC  H13S 9007   1.249   6.537   5.084
   93SAPC  C214 9008   1.093   6.573   4.945
   93SAPC  H14R 9009   1.000   6.631   4.931
   93SAPC  C215 9010   1.131   6.492   4.846
   93SAPC  H15R 9011   1.085   6.502   4.747
   93SAPC  C216 9012   1.254   6.394   4.855
   93SAPC  H16R 9013   1.220   6.288   4.861
   93SAPC  H16S 9014   1.306   6.402   4.953
   93SAPC  C217 9015   1.364   6.417   4.752
   93SAPC  H17R 9016   1.403   6.515   4.785
   93SAPC  H17S 9017   1.325   6.427   4.648
   93SAPC  C218 9018   1.468   6.298   4.754
   93SAPC  H18R 9019   1.412   6.204   4.736
   93SAPC  H18S 9020   1.520   6.288   4.852
   93SAPC  C219 9021   1.567   6.303   4.641
   93SAPC  H19R 9022   1.660   6.361   4.660
   93SAPC  H19S 9023   1.520   6.348   4.550
   93SAPC  C220 9024   1.614   6.160   4.596
   93SAPC  H20R 9025   1.675   6.103   4.669
   93SAPC  H20S 9026   1.678   6.169   4.506
   93SAPC  H20T 9027   1.523   6.110   4.558
   93SAPC   C33 9028   0.974   6.398   5.797
   93SAPC   H3X 9029   0.984   6.301   5.850
   93SAPC   H3Y 9030   1.078   6.437   5.808
   93SAPC   C34 9031   0.926   6.397   5.648
   93SAPC   H4X 9032   1.006   6.352   5.585
   93SAPC   H4Y 9033   0.908   6.504   5.624
   93SAPC   C35 9034   0.798   6.311   5.617
   93SAPC   H5X 9035   0.710   6.364   5.661
   93SAPC   H5Y 9036   0.817   6.216   5.670
   93SAPC   C36 9037   0.773   6.264   5.476
   93SAPC   H6X 9038   0.677   6.208   5.470
   93SAPC   H6Y 9039   0.853   6.196   5.443
   93SAPC   C37 9040   0.755   6.379   5.379
   93SAPC   H7X 9041   0.848   6.440   5.385
   93SAPC   H7Y 9042   0.670   6.450   5.389
   93SAPC   C38 9043   0.726   6.324   5.236
   93SAPC   H8X 9044   0.639   6.255   5.238
   93SAPC   H8Y 9045   0.818   6.264   5.218
   93SAPC   C39 9046   0.705   6.430   5.134
   93SAPC   H9X 9047   0.792   6.499   5.143
   93SAPC   H9Y 9048   0.615   6.493   5.155
   93SAPC  C310 9049   0.699   6.375   4.989
   93SAPC  H10X 9050   0.616   6.303   4.971
   93SAPC  H10Y 9051   0.788   6.309   4.975
   93SAPC  C311 9052   0.704   6.485   4.879
   93SAPC  H11X 9053   0.788   6.556   4.895
   93SAPC  H11Y 9054   0.609   6.541   4.887
   93SAPC  C312 9055   0.704   6.429   4.740
   93SAPC  H12X 9056   0.645   6.336   4.751
   93SAPC  H12Y 9057   0.802   6.389   4.709
   93SAPC  C313 9058   0.651   6.521   4.629
   93SAPC  H13X 9059   0.698   6.621   4.633
   93SAPC  H13Y 9060   0.544   6.541   4.650
   93SAPC  C314 9061   0.663   6.461   4.484
   93SAPC  H14X 9062   0.630   6.356   4.473
   93SAPC  H14Y 9063   0.774   6.456   4.481
   93SAPC  C315 9064   0.599   6.538   4.362
   93SAPC  H15X 9065   0.599   6.468   4.276
   93SAPC  H15Y 9066   0.665   6.626   4.348
   93SAPC  C316 9067   0.455   6.588   4.383
   93SAPC  H16X 9068   0.460   6.655   4.472
   93SAPC  H16Y 9069   0.388   6.502   4.403
   93SAPC  C317 9070   0.408   6.696   4.281
   93SAPC  H17X 9071   0.493   6.762   4.255
   93SAPC  H17Y 9072   0.320   6.749   4.324
   93SAPC  C318 9073   0.380   6.643   4.142
   93SAPC  H18X 9074   0.462   6.577   4.107
   93SAPC  H18Y 9075   0.359   6.723   4.067
   93SAPC  H18Z 9076   0.296   6.571   4.148
   94SAPC     N 9077   6.525   5.150   7.099
   94SAPC   C12 9078   6.528   5.153   6.943
   94SAPC  H12A 9079   6.600   5.225   6.907
   94SAPC  H12B 9080   6.431   5.185   6.908
   94SAPC   C13 9081   6.498   5.286   7.157
   94SAPC  H13A 9082   6.394   5.310   7.146
   94SAPC  H13B 9083   6.518   5.294   7.263
   94SAPC  H13C 9084   6.550   5.364   7.103
   94SAPC   C14 9085   6.423   5.052   7.151
   94SAPC  H14A 9086   6.430   4.958   7.098
   94SAPC  H14B 9087   6.446   5.023   7.253
   94SAPC  H14C 9088   6.325   5.098   7.148
   94SAPC   C15 9089   6.654   5.105   7.151
   94SAPC  H15A 9090   6.669   5.002   7.124
   94SAPC  H15B 9091   6.737   5.161   7.108
   94SAPC  H15C 9092   6.657   5.111   7.259
   94SAPC   C11 9093   6.562   5.013   6.873
   94SAPC  H11A 9094   6.527   5.015   6.768
   94SAPC  H11B 9095   6.502   4.930   6.917
   94SAPC     P 9096   6.813   5.049   6.819
   94SAPC   O13 9097   6.850   5.172   6.887
   94SAPC   O14 9098   0.030   4.946   6.811
   94SAPC   O12 9099   6.694   4.978   6.892
   94SAPC   O11 9100   6.760   5.080   6.675
   94SAPC    C1 9101   6.732   4.982   6.580
   94SAPC    HA 9102   6.703   4.892   6.638
   94SAPC    HB 9103   6.648   5.009   6.513
   94SAPC    C2 9104   6.855   4.934   6.500
   94SAPC    HS 9105   0.051   4.931   6.574
   94SAPC   O21 9106   6.876   5.029   6.397
   94SAPC   C21 9107   0.113   5.057   6.358
   94SAPC   O22 9108   0.209   5.010   6.417
   94SAPC   C22 9109   0.113   5.150   6.240
   94SAPC   H2R 9110   0.020   5.139   6.180
   94SAPC   H2S 9111   0.111   5.251   6.286
   94SAPC    C3 9112   6.843   4.803   6.431
   94SAPC    HX 9113   6.844   4.729   6.514
   94SAPC    HY 9114   0.043   4.785   6.363
   94SAPC   O31 9115   6.719   4.795   6.360
   94SAPC   C31 9116   6.729   4.805   6.226
   94SAPC   O32 9117   6.828   4.820   6.157
   94SAPC   C32 9118   6.589   4.807   6.172
   94SAPC   H2X 9119   6.533   4.888   6.224
   94SAPC   H2Y 9120   6.536   4.711   6.189
   94SAPC   C23 9121   0.238   5.148   6.156
   94SAPC   H3R 9122   0.254   5.056   6.096
   94SAPC   H3S 9123   0.324   5.152   6.227
   94SAPC   C24 9124   0.226   5.269   6.064
   94SAPC   H4R 9125   0.178   5.349   6.123
   94SAPC   H4S 9126   0.158   5.243   5.980
   94SAPC   C25 9127   0.369   5.314   6.032
   94SAPC   H5R 9128   0.453   5.294   6.100
   94SAPC   C26 9129   0.409   5.366   5.909
   94SAPC   H6R 9130   0.513   5.398   5.891
   94SAPC   C27 9131   0.308   5.383   5.792
   94SAPC   H7R 9132   0.205   5.366   5.830
   94SAPC   H7S 9133   0.328   5.311   5.710
   94SAPC   C28 9134   0.302   5.525   5.735
   94SAPC   H8R 9135   0.301   5.608   5.807
   94SAPC   C29 9136   0.299   5.559   5.600
   94SAPC   H9R 9137   0.302   5.665   5.573
   94SAPC  C210 9138   0.300   5.451   5.493
   94SAPC  H10R 9139   0.329   5.348   5.525
   94SAPC  H10S 9140   0.381   5.481   5.423
   94SAPC  C211 9141   0.165   5.450   5.422
   94SAPC  H11R 9142   0.078   5.461   5.489
   94SAPC  C212 9143   0.141   5.438   5.288
   94SAPC  H12R 9144   0.037   5.430   5.255
   94SAPC  C213 9145   0.251   5.403   5.184
   94SAPC  H13R 9146   0.198   5.346   5.105
   94SAPC  H13S 9147   0.334   5.334   5.210
   94SAPC  C214 9148   0.305   5.530   5.113
   94SAPC  H14R 9149   0.312   5.621   5.174
   94SAPC  C215 9150   0.345   5.553   4.985
   94SAPC  H15R 9151   0.374   5.653   4.949
   94SAPC  C216 9152   0.358   5.434   4.886
   94SAPC  H16R 9153   0.362   5.461   4.779
   94SAPC  H16S 9154   0.263   5.376   4.891
   94SAPC  C217 9155   0.477   5.337   4.905
   94SAPC  H17R 9156   0.492   5.306   5.010
   94SAPC  H17S 9157   0.560   5.395   4.859
   94SAPC  C218 9158   0.458   5.205   4.834
   94SAPC  H18R 9159   0.428   5.240   4.734
   94SAPC  H18S 9160   0.384   5.135   4.878
   94SAPC  C219 9161   0.596   5.131   4.828
   94SAPC  H19R 9162   0.612   5.094   4.932
   94SAPC  H19S 9163   0.676   5.203   4.802
   94SAPC  C220 9164   0.605   5.014   4.729
   94SAPC  H20R 9165   0.523   4.940   4.747
   94SAPC  H20S 9166   0.690   4.949   4.759
   94SAPC  H20T 9167   0.618   5.044   4.623
   94SAPC   C33 9168   6.608   4.834   6.023
   94SAPC   H3X 9169   6.660   4.751   5.971
   94SAPC   H3Y 9170   6.667   4.923   5.994
   94SAPC   C34 9171   6.469   4.856   5.963
   94SAPC   H4X 9172   6.426   4.952   5.996
   94SAPC   H4Y 9173   6.411   4.766   5.993
   94SAPC   C35 9174   6.476   4.844   5.818
   94SAPC   H5X 9175   6.520   4.748   5.783
   94SAPC   H5Y 9176   6.542   4.929   5.790
   94SAPC   C36 9177   6.339   4.858   5.740
   94SAPC   H6X 9178   6.279   4.943   5.781
   94SAPC   H6Y 9179   6.277   4.768   5.759
   94SAPC   C37 9180   6.366   4.873   5.587
   94SAPC   H7X 9181   6.448   4.944   5.563
   94SAPC   H7Y 9182   6.275   4.928   5.555
   94SAPC   C38 9183   6.384   4.751   5.503
   94SAPC   H8X 9184   6.314   4.672   5.538
   94SAPC   H8Y 9185   6.486   4.708   5.510
   94SAPC   C39 9186   6.362   4.779   5.350
   94SAPC   H9X 9187   6.272   4.844   5.359
   94SAPC   H9Y 9188   6.324   4.686   5.302
   94SAPC  C310 9189   6.481   4.844   5.280
   94SAPC  H10X 9190   6.571   4.789   5.313
   94SAPC  H10Y 9191   6.476   4.948   5.320
   94SAPC  C311 9192   6.450   4.846   5.127
   94SAPC  H11X 9193   6.342   4.859   5.106
   94SAPC  H11Y 9194   6.476   4.742   5.097
   94SAPC  C312 9195   6.536   4.938   5.042
   94SAPC  H12X 9196   6.640   4.899   5.052
   94SAPC  H12Y 9197   6.534   5.045   5.073
   94SAPC  C313 9198   6.513   4.930   4.890
   94SAPC  H13X 9199   6.417   4.982   4.870
   94SAPC  H13Y 9200   6.495   4.822   4.870
   94SAPC  C314 9201   6.623   4.988   4.792
   94SAPC  H14X 9202   6.723   4.952   4.824
   94SAPC  H14Y 9203   6.625   5.098   4.811
   94SAPC  C315 9204   6.607   4.965   4.649
   94SAPC  H15X 9205   6.498   4.967   4.626
   94SAPC  H15Y 9206   6.631   4.859   4.624
   94SAPC  C316 9207   6.691   5.057   4.562
   94SAPC  H16X 9208   6.782   5.073   4.625
   94SAPC  H16Y 9209   6.639   5.151   4.533
   94SAPC  C317 9210   6.739   5.004   4.430
   94SAPC  H17X 9211   6.786   5.093   4.384
   94SAPC  H17Y 9212   6.655   4.968   4.367
   94SAPC  C318 9213   6.838   4.892   4.425
   94SAPC  H18X 9214   6.864   4.881   4.318
   94SAPC  H18Y 9215   6.786   4.808   4.474
   94SAPC  H18Z 9216   0.041   4.918   4.488
   95SAPC     N 9217   3.937   6.027   1.870
   95SAPC   C12 9218   3.813   5.961   1.815
   95SAPC  H12A 9219   3.837   5.855   1.817
   95SAPC  H12B 9220   3.779   5.984   1.716
   95SAPC   C13 9221   4.046   5.998   1.768
   95SAPC  H13A 9222   4.084   5.898   1.756
   95SAPC  H13B 9223   4.015   6.040   1.674
   95SAPC  H13C 9224   4.131   6.057   1.802
   95SAPC   C14 9225   3.925   6.177   1.880
   95SAPC  H14A 9226   4.013   6.220   1.926
   95SAPC  H14B 9227   3.914   6.226   1.785
   95SAPC  H14C 9228   3.835   6.207   1.932
   95SAPC   C15 9229   3.971   5.983   2.007
   95SAPC  H15A 9230   3.907   6.027   2.082
   95SAPC  H15B 9231   3.967   5.877   2.022
   95SAPC  H15C 9232   4.069   6.016   2.040
   95SAPC   C11 9233   3.689   5.961   1.908
   95SAPC  H11A 9234   3.653   6.065   1.897
   95SAPC  H11B 9235   3.715   5.931   2.012
   95SAPC     P 9236   3.594   5.717   1.888
   95SAPC   O13 9237   3.476   5.657   1.819
   95SAPC   O14 9238   3.726   5.663   1.850
   95SAPC   O12 9239   3.598   5.869   1.859
   95SAPC   O11 9240   3.575   5.700   2.043
   95SAPC    C1 9241   3.475   5.770   2.121
   95SAPC    HA 9242   3.520   5.802   2.218
   95SAPC    HB 9243   3.425   5.855   2.071
   95SAPC    C2 9244   3.371   5.667   2.171
   95SAPC    HS 9245   3.315   5.628   2.084
   95SAPC   O21 9246   3.282   5.736   2.256
   95SAPC   C21 9247   3.177   5.667   2.300
   95SAPC   O22 9248   3.136   5.563   2.258
   95SAPC   C22 9249   3.110   5.743   2.420
   95SAPC   H2R 9250   3.135   5.694   2.516
   95SAPC   H2S 9251   3.151   5.846   2.413
   95SAPC    C3 9252   3.442   5.543   2.234
   95SAPC    HX 9253   3.519   5.499   2.167
   95SAPC    HY 9254   3.356   5.478   2.260
   95SAPC   O31 9255   3.508   5.583   2.352
   95SAPC   C31 9256   3.536   5.485   2.437
   95SAPC   O32 9257   3.516   5.366   2.417
   95SAPC   C32 9258   3.606   5.543   2.559
   95SAPC   H2X 9259   3.563   5.641   2.589
   95SAPC   H2Y 9260   3.713   5.555   2.534
   95SAPC   C23 9261   2.955   5.734   2.423
   95SAPC   H3R 9262   2.921   5.777   2.519
   95SAPC   H3S 9263   2.918   5.630   2.414
   95SAPC   C24 9264   2.884   5.822   2.314
   95SAPC   H4R 9265   2.776   5.800   2.327
   95SAPC   H4S 9266   2.902   5.789   2.209
   95SAPC   C25 9267   2.916   5.971   2.321
   95SAPC   H5R 9268   2.985   6.020   2.251
   95SAPC   C26 9269   2.878   6.062   2.410
   95SAPC   H6R 9270   2.932   6.158   2.404
   95SAPC   C27 9271   2.781   6.047   2.521
   95SAPC   H7R 9272   2.721   5.958   2.495
   95SAPC   H7S 9273   2.727   6.143   2.517
   95SAPC   C28 9274   2.850   6.012   2.652
   95SAPC   H8R 9275   2.910   5.920   2.652
   95SAPC   C29 9276   2.840   6.085   2.767
   95SAPC   H9R 9277   2.903   6.048   2.850
   95SAPC  C210 9278   2.769   6.224   2.776
   95SAPC  H10R 9279   2.767   6.272   2.676
   95SAPC  H10S 9280   2.827   6.299   2.835
   95SAPC  C211 9281   2.631   6.195   2.832
   95SAPC  H11R 9282   2.561   6.138   2.768
   95SAPC  C212 9283   2.594   6.215   2.959
   95SAPC  H12R 9284   2.490   6.193   2.985
   95SAPC  C213 9285   2.681   6.272   3.066
   95SAPC  H13R 9286   2.631   6.329   3.147
   95SAPC  H13S 9287   2.759   6.337   3.020
   95SAPC  C214 9288   2.749   6.157   3.143
   95SAPC  H14R 9289   2.679   6.098   3.204
   95SAPC  C215 9290   2.885   6.125   3.159
   95SAPC  H15R 9291   2.908   6.037   3.220
   95SAPC  C216 9292   2.997   6.197   3.092
   95SAPC  H16R 9293   2.955   6.286   3.041
   95SAPC  H16S 9294   3.035   6.130   3.012
   95SAPC  C217 9295   3.100   6.254   3.194
   95SAPC  H17R 9296   3.059   6.347   3.238
   95SAPC  H17S 9297   3.194   6.285   3.143
   95SAPC  C218 9298   3.150   6.162   3.299
   95SAPC  H18R 9299   3.073   6.115   3.363
   95SAPC  H18S 9300   3.205   6.213   3.381
   95SAPC  C219 9301   3.237   6.044   3.247
   95SAPC  H19R 9302   3.322   6.081   3.185
   95SAPC  H19S 9303   3.169   5.990   3.177
   95SAPC  C220 9304   3.298   5.965   3.362
   95SAPC  H20R 9305   3.368   5.884   3.331
   95SAPC  H20S 9306   3.218   5.923   3.425
   95SAPC  H20T 9307   3.357   6.036   3.424
   95SAPC   C33 9308   3.595   5.443   2.670
   95SAPC   H3X 9309   3.624   5.341   2.638
   95SAPC   H3Y 9310   3.493   5.432   2.713
   95SAPC   C34 9311   3.691   5.477   2.786
   95SAPC   H4X 9312   3.659   5.573   2.832
   95SAPC   H4Y 9313   3.796   5.468   2.753
   95SAPC   C35 9314   3.689   5.376   2.908
   95SAPC   H5X 9315   3.784   5.385   2.964
   95SAPC   H5Y 9316   3.698   5.277   2.859
   95SAPC   C36 9317   3.564   5.360   2.994
   95SAPC   H6X 9318   3.575   5.267   3.053
   95SAPC   H6Y 9319   3.481   5.350   2.922
   95SAPC   C37 9320   3.543   5.487   3.087
   95SAPC   H7X 9321   3.524   5.573   3.020
   95SAPC   H7Y 9322   3.637   5.506   3.145
   95SAPC   C38 9323   3.418   5.475   3.179
   95SAPC   H8X 9324   3.441   5.377   3.227
   95SAPC   H8Y 9325   3.325   5.477   3.118
   95SAPC   C39 9326   3.410   5.589   3.285
   95SAPC   H9X 9327   3.303   5.596   3.315
   95SAPC   H9Y 9328   3.445   5.683   3.238
   95SAPC  C310 9329   3.492   5.574   3.412
   95SAPC  H10X 9330   3.602   5.580   3.393
   95SAPC  H10Y 9331   3.473   5.470   3.446
   95SAPC  C311 9332   3.448   5.663   3.531
   95SAPC  H11X 9333   3.348   5.704   3.504
   95SAPC  H11Y 9334   3.516   5.750   3.537
   95SAPC  C312 9335   3.428   5.590   3.671
   95SAPC  H12X 9336   3.532   5.576   3.707
   95SAPC  H12Y 9337   3.384   5.490   3.652
   95SAPC  C313 9338   3.345   5.666   3.774
   95SAPC  H13X 9339   3.327   5.605   3.865
   95SAPC  H13Y 9340   3.248   5.672   3.722
   95SAPC  C314 9341   3.390   5.812   3.805
   95SAPC  H14X 9342   3.442   5.859   3.718
   95SAPC  H14Y 9343   3.462   5.803   3.888
   95SAPC  C315 9344   3.279   5.904   3.849
   95SAPC  H15X 9345   3.318   5.996   3.899
   95SAPC  H15Y 9346   3.217   5.852   3.925
   95SAPC  C316 9347   3.189   5.955   3.729
   95SAPC  H16X 9348   3.125   5.871   3.694
   95SAPC  H16Y 9349   3.248   5.978   3.638
   95SAPC  C317 9350   3.107   6.087   3.761
   95SAPC  H17X 9351   3.071   6.082   3.866
   95SAPC  H17Y 9352   3.036   6.102   3.677
   95SAPC  C318 9353   3.209   6.206   3.756
   95SAPC  H18X 9354   3.289   6.204   3.833
   95SAPC  H18Y 9355   3.162   6.305   3.779
   95SAPC  H18Z 9356   3.244   6.215   3.651
   96SAPC     N 9357   3.650   2.479   2.375
   96SAPC   C12 9358   3.625   2.423   2.235
   96SAPC  H12A 9359   3.710   2.448   2.173
   96SAPC  H12B 9360   3.534   2.474   2.206
   96SAPC   C13 9361   3.782   2.425   2.422
   96SAPC  H13A 9362   3.817   2.460   2.518
   96SAPC  H13B 9363   3.789   2.317   2.420
   96SAPC  H13C 9364   3.859   2.443   2.348
   96SAPC   C14 9365   3.663   2.629   2.370
   96SAPC  H14A 9366   3.665   2.676   2.467
   96SAPC  H14B 9367   3.753   2.656   2.317
   96SAPC  H14C 9368   3.575   2.665   2.320
   96SAPC   C15 9369   3.551   2.442   2.476
   96SAPC  H15A 9370   3.455   2.477   2.441
   96SAPC  H15B 9371   3.547   2.334   2.476
   96SAPC  H15C 9372   3.581   2.486   2.571
   96SAPC   C11 9373   3.600   2.271   2.231
   96SAPC  H11A 9374   3.686   2.219   2.276
   96SAPC  H11B 9375   3.594   2.239   2.125
   96SAPC     P 9376   3.336   2.276   2.218
   96SAPC   O13 9377   3.312   2.422   2.212
   96SAPC   O14 9378   3.341   2.209   2.088
   96SAPC   O12 9379   3.470   2.247   2.298
   96SAPC   O11 9380   3.230   2.210   2.305
   96SAPC    C1 9381   3.233   2.216   2.444
   96SAPC    HA 9382   3.335   2.192   2.482
   96SAPC    HB 9383   3.209   2.320   2.476
   96SAPC    C2 9384   3.146   2.116   2.513
   96SAPC    HS 9385   3.043   2.141   2.481
   96SAPC   O21 9386   3.167   2.138   2.651
   96SAPC   C21 9387   3.110   2.059   2.737
   96SAPC   O22 9388   3.036   1.961   2.717
   96SAPC   C22 9389   3.153   2.100   2.881
   96SAPC   H2R 9390   3.260   2.128   2.866
   96SAPC   H2S 9391   3.100   2.193   2.912
   96SAPC    C3 9392   3.175   1.973   2.463
   96SAPC    HX 9393   3.182   1.978   2.353
   96SAPC    HY 9394   3.088   1.905   2.477
   96SAPC   O31 9395   3.299   1.924   2.516
   96SAPC   C31 9396   3.294   1.789   2.547
   96SAPC   O32 9397   3.198   1.716   2.515
   96SAPC   C32 9398   3.431   1.733   2.595
   96SAPC   H2X 9399   3.496   1.729   2.505
   96SAPC   H2Y 9400   3.440   1.635   2.645
   96SAPC   C23 9401   3.141   1.983   2.988
   96SAPC   H3R 9402   3.193   1.888   2.967
   96SAPC   H3S 9403   3.035   1.950   2.994
   96SAPC   C24 9404   3.180   2.031   3.125
   96SAPC   H4R 9405   3.164   1.960   3.209
   96SAPC   H4S 9406   3.111   2.114   3.150
   96SAPC   C25 9407   3.318   2.090   3.136
   96SAPC   H5R 9408   3.368   2.133   3.048
   96SAPC   C26 9409   3.391   2.094   3.248
   96SAPC   H6R 9410   3.496   2.124   3.245
   96SAPC   C27 9411   3.349   2.032   3.383
   96SAPC   H7R 9412   3.402   1.935   3.394
   96SAPC   H7S 9413   3.239   2.015   3.391
   96SAPC   C28 9414   3.382   2.113   3.501
   96SAPC   H8R 9415   3.326   2.208   3.496
   96SAPC   C29 9416   3.465   2.085   3.604
   96SAPC   H9R 9417   3.483   2.155   3.687
   96SAPC  C210 9418   3.553   1.963   3.623
   96SAPC  H10R 9419   3.547   1.889   3.540
   96SAPC  H10S 9420   3.508   1.900   3.703
   96SAPC  C211 9421   3.702   1.997   3.644
   96SAPC  H11R 9422   3.758   2.013   3.551
   96SAPC  C212 9423   3.771   1.993   3.756
   96SAPC  H12R 9424   3.878   2.022   3.756
   96SAPC  C213 9425   3.725   1.949   3.889
   96SAPC  H13R 9426   3.783   1.858   3.914
   96SAPC  H13S 9427   3.622   1.908   3.891
   96SAPC  C214 9428   3.738   2.034   4.012
   96SAPC  H14R 9429   3.828   2.006   4.069
   96SAPC  C215 9430   3.653   2.129   4.055
   96SAPC  H15R 9431   3.659   2.177   4.154
   96SAPC  C216 9432   3.529   2.169   3.979
   96SAPC  H16R 9433   3.521   2.100   3.893
   96SAPC  H16S 9434   3.532   2.275   3.944
   96SAPC  C217 9435   3.394   2.157   4.058
   96SAPC  H17R 9436   3.388   2.221   4.149
   96SAPC  H17S 9437   3.387   2.048   4.078
   96SAPC  C218 9438   3.276   2.197   3.974
   96SAPC  H18R 9439   3.279   2.125   3.890
   96SAPC  H18S 9440   3.271   2.306   3.953
   96SAPC  C219 9441   3.145   2.171   4.048
   96SAPC  H19R 9442   3.132   2.237   4.137
   96SAPC  H19S 9443   3.149   2.069   4.090
   96SAPC  C220 9444   3.026   2.171   3.948
   96SAPC  H20R 9445   3.041   2.080   3.886
   96SAPC  H20S 9446   3.030   2.269   3.896
   96SAPC  H20T 9447   2.936   2.153   4.010
   96SAPC   C33 9448   3.515   1.821   2.689
   96SAPC   H3X 9449   3.523   1.925   2.654
   96SAPC   H3Y 9450   3.616   1.774   2.689
   96SAPC   C34 9451   3.472   1.815   2.841
   96SAPC   H4X 9452   3.386   1.883   2.860
   96SAPC   H4Y 9453   3.558   1.855   2.899
   96SAPC   C35 9454   3.437   1.673   2.904
   96SAPC   H5X 9455   3.513   1.594   2.887
   96SAPC   H5Y 9456   3.349   1.629   2.853
   96SAPC   C36 9457   3.420   1.679   3.060
   96SAPC   H6X 9458   3.358   1.769   3.080
   96SAPC   H6Y 9459   3.525   1.688   3.096
   96SAPC   C37 9460   3.340   1.557   3.109
   96SAPC   H7X 9461   3.388   1.460   3.085
   96SAPC   H7Y 9462   3.233   1.554   3.081
   96SAPC   C38 9463   3.335   1.569   3.261
   96SAPC   H8X 9464   3.280   1.666   3.269
   96SAPC   H8Y 9465   3.434   1.584   3.309
   96SAPC   C39 9466   3.257   1.461   3.334
   96SAPC   H9X 9467   3.290   1.366   3.287
   96SAPC   H9Y 9468   3.151   1.475   3.305
   96SAPC  C310 9469   3.275   1.460   3.486
   96SAPC  H10X 9470   3.383   1.434   3.492
   96SAPC  H10Y 9471   3.216   1.375   3.526
   96SAPC  C311 9472   3.230   1.599   3.537
   96SAPC  H11X 9473   3.129   1.633   3.507
   96SAPC  H11Y 9474   3.296   1.677   3.493
   96SAPC  C312 9475   3.246   1.597   3.691
   96SAPC  H12X 9476   3.348   1.556   3.703
   96SAPC  H12Y 9477   3.172   1.526   3.733
   96SAPC  C313 9478   3.229   1.735   3.754
   96SAPC  H13X 9479   3.132   1.774   3.719
   96SAPC  H13Y 9480   3.306   1.806   3.716
   96SAPC  C314 9481   3.211   1.735   3.907
   96SAPC  H14X 9482   3.141   1.652   3.930
   96SAPC  H14Y 9483   3.165   1.832   3.936
   96SAPC  C315 9484   3.336   1.714   3.989
   96SAPC  H15X 9485   3.419   1.781   3.956
   96SAPC  H15Y 9486   3.376   1.611   3.976
   96SAPC  C316 9487   3.310   1.728   4.141
   96SAPC  H16X 9488   3.231   1.653   4.161
   96SAPC  H16Y 9489   3.265   1.829   4.156
   96SAPC  C317 9490   3.434   1.700   4.222
   96SAPC  H17X 9491   3.451   1.591   4.240
   96SAPC  H17Y 9492   3.423   1.746   4.322
   96SAPC  C318 9493   3.568   1.763   4.169
   96SAPC  H18X 9494   3.604   1.709   4.078
   96SAPC  H18Y 9495   3.646   1.766   4.248
   96SAPC  H18Z 9496   3.544   1.869   4.146
   97SAPC     N 9497   2.415   0.543   2.150
   97SAPC   C12 9498   2.537   0.469   2.094
   97SAPC  H12A 9499   2.531   0.367   2.129
   97SAPC  H12B 9500   2.629   0.511   2.131
   97SAPC   C13 9501   2.424   0.553   2.299
   97SAPC  H13A 9502   2.393   0.462   2.347
   97SAPC  H13B 9503   2.523   0.588   2.325
   97SAPC  H13C 9504   2.355   0.630   2.329
   97SAPC   C14 9505   2.411   0.685   2.098
   97SAPC  H14A 9506   2.438   0.692   1.994
   97SAPC  H14B 9507   2.314   0.724   2.126
   97SAPC  H14C 9508   2.480   0.754   2.144
   97SAPC   C15 9509   2.295   0.472   2.113
   97SAPC  H15A 9510   2.214   0.507   2.176
   97SAPC  H15B 9511   2.268   0.485   2.010
   97SAPC  H15C 9512   2.298   0.366   2.132
   97SAPC   C11 9513   2.553   0.484   1.942
   97SAPC  H11A 9514   2.457   0.481   1.887
   97SAPC  H11B 9515   2.618   0.398   1.914
   97SAPC     P 9516   2.761   0.642   1.930
   97SAPC   O13 9517   2.830   0.605   1.812
   97SAPC   O14 9518   2.764   0.783   1.978
   97SAPC   O12 9519   2.610   0.611   1.907
   97SAPC   O11 9520   2.796   0.537   2.049
   97SAPC    C1 9521   2.942   0.518   2.056
   97SAPC    HA 9522   2.993   0.483   1.964
   97SAPC    HB 9523   2.991   0.606   2.100
   97SAPC    C2 9524   2.983   0.400   2.160
   97SAPC    HS 9525   2.975   0.309   2.098
   97SAPC   O21 9526   2.890   0.386   2.269
   97SAPC   C21 9527   2.904   0.279   2.340
   97SAPC   O22 9528   2.981   0.188   2.310
   97SAPC   C22 9529   2.814   0.295   2.468
   97SAPC   H2R 9530   2.829   0.403   2.490
   97SAPC   H2S 9531   2.715   0.265   2.428
   97SAPC    C3 9532   3.132   0.413   2.191
   97SAPC    HX 9533   3.198   0.391   2.105
   97SAPC    HY 9534   3.164   0.331   2.259
   97SAPC   O31 9535   3.154   0.539   2.249
   97SAPC   C31 9536   3.257   0.554   2.336
   97SAPC   O32 9537   3.333   0.466   2.369
   97SAPC   C32 9538   3.242   0.696   2.391
   97SAPC   H2X 9539   3.199   0.764   2.315
   97SAPC   H2Y 9540   3.342   0.734   2.424
   97SAPC   C23 9541   2.868   0.192   2.572
   97SAPC   H3R 9542   2.976   0.170   2.568
   97SAPC   H3S 9543   2.813   0.095   2.565
   97SAPC   C24 9544   2.845   0.240   2.716
   97SAPC   H4R 9545   2.746   0.288   2.707
   97SAPC   H4S 9546   2.927   0.312   2.741
   97SAPC   C25 9547   2.855   0.127   2.812
   97SAPC   H5R 9548   2.930   0.048   2.801
   97SAPC   C26 9549   2.772   0.114   2.917
   97SAPC   H6R 9550   2.790   0.037   2.994
   97SAPC   C27 9551   2.656   0.205   2.957
   97SAPC   H7R 9552   2.557   0.159   2.979
   97SAPC   H7S 9553   2.643   0.272   2.869
   97SAPC   C28 9554   2.695   0.284   3.084
   97SAPC   H8R 9555   2.691   0.388   3.049
   97SAPC   C29 9556   2.699   0.252   3.219
   97SAPC   H9R 9557   2.738   0.331   3.285
   97SAPC  C210 9558   2.678   0.122   3.288
   97SAPC  H10R 9559   2.775   0.076   3.316
   97SAPC  H10S 9560   2.628   0.050   3.220
   97SAPC  C211 9561   2.590   0.132   3.412
   97SAPC  H11R 9562   2.495   0.077   3.404
   97SAPC  C212 9563   2.616   0.197   3.529
   97SAPC  H12R 9564   2.545   0.185   3.612
   97SAPC  C213 9565   2.745   0.274   3.552
   97SAPC  H13R 9566   2.814   0.257   3.466
   97SAPC  H13S 9567   2.805   0.236   3.638
   97SAPC  C214 9568   2.726   0.424   3.565
   97SAPC  H14R 9569   2.690   0.471   3.472
   97SAPC  C215 9570   2.719   0.500   3.677
   97SAPC  H15R 9571   2.686   0.604   3.670
   97SAPC  C216 9572   2.752   0.456   3.819
   97SAPC  H16R 9573   2.794   0.353   3.827
   97SAPC  H16S 9574   2.663   0.447   3.885
   97SAPC  C217 9575   2.869   0.532   3.887
   97SAPC  H17R 9576   2.844   0.641   3.885
   97SAPC  H17S 9577   2.964   0.528   3.831
   97SAPC  C218 9578   2.897   0.482   4.030
   97SAPC  H18R 9579   2.981   0.541   4.074
   97SAPC  H18S 9580   2.929   0.376   4.021
   97SAPC  C219 9581   2.770   0.498   4.112
   97SAPC  H19R 9582   2.704   0.410   4.098
   97SAPC  H19S 9583   2.706   0.585   4.083
   97SAPC  C220 9584   2.806   0.507   4.256
   97SAPC  H20R 9585   2.863   0.602   4.246
   97SAPC  H20S 9586   2.867   0.423   4.295
   97SAPC  H20T 9587   2.725   0.523   4.330
   97SAPC   C33 9588   3.145   0.695   2.511
   97SAPC   H3X 9589   3.041   0.673   2.481
   97SAPC   H3Y 9590   3.136   0.798   2.553
   97SAPC   C34 9591   3.188   0.588   2.626
   97SAPC   H4X 9592   3.290   0.612   2.660
   97SAPC   H4Y 9593   3.188   0.490   2.573
   97SAPC   C35 9594   3.092   0.582   2.743
   97SAPC   H5X 9595   2.989   0.550   2.715
   97SAPC   H5Y 9596   3.075   0.686   2.778
   97SAPC   C36 9597   3.138   0.499   2.863
   97SAPC   H6X 9598   3.222   0.560   2.902
   97SAPC   H6Y 9599   3.179   0.399   2.838
   97SAPC   C37 9600   3.030   0.479   2.972
   97SAPC   H7X 9601   2.943   0.424   2.930
   97SAPC   H7Y 9602   2.982   0.579   2.981
   97SAPC   C38 9603   3.083   0.403   3.098
   97SAPC   H8X 9604   3.179   0.351   3.077
   97SAPC   H8Y 9605   3.014   0.324   3.135
   97SAPC   C39 9606   3.107   0.504   3.209
   97SAPC   H9X 9607   3.156   0.593   3.163
   97SAPC   H9Y 9608   3.167   0.448   3.284
   97SAPC  C310 9609   2.979   0.546   3.284
   97SAPC  H10X 9610   2.927   0.454   3.318
   97SAPC  H10Y 9611   2.912   0.596   3.211
   97SAPC  C311 9612   2.995   0.624   3.417
   97SAPC  H11X 9613   3.078   0.580   3.475
   97SAPC  H11Y 9614   2.899   0.605   3.469
   97SAPC  C312 9615   3.002   0.776   3.412
   97SAPC  H12X 9616   2.921   0.819   3.349
   97SAPC  H12Y 9617   3.102   0.793   3.366
   97SAPC  C313 9618   3.014   0.844   3.554
   97SAPC  H13X 9619   3.077   0.935   3.550
   97SAPC  H13Y 9620   3.073   0.769   3.611
   97SAPC  C314 9621   2.892   0.884   3.623
   97SAPC  H14X 9622   2.842   0.788   3.647
   97SAPC  H14Y 9623   2.824   0.937   3.552
   97SAPC  C315 9624   2.906   0.960   3.755
   97SAPC  H15X 9625   2.922   1.068   3.735
   97SAPC  H15Y 9626   2.992   0.906   3.798
   97SAPC  C316 9627   2.774   0.963   3.842
   97SAPC  H16X 9628   2.791   1.051   3.908
   97SAPC  H16Y 9629   2.744   0.873   3.900
   97SAPC  C317 9630   2.640   1.001   3.779
   97SAPC  H17X 9631   2.612   0.935   3.694
   97SAPC  H17Y 9632   2.662   1.105   3.745
   97SAPC  C318 9633   2.530   1.003   3.884
   97SAPC  H18X 9634   2.558   1.088   3.949
   97SAPC  H18Y 9635   2.517   0.908   3.941
   97SAPC  H18Z 9636   2.433   1.022   3.833
   98SAPC     N 9637   5.477   1.273   1.967
   98SAPC   C12 9638   5.480   1.385   2.074
   98SAPC  H12A 9639   5.506   1.336   2.167
   98SAPC  H12B 9640   5.378   1.418   2.083
   98SAPC   C13 9641   5.383   1.174   2.012
   98SAPC  H13A 9642   5.389   1.093   1.942
   98SAPC  H13B 9643   5.415   1.132   2.106
   98SAPC  H13C 9644   5.279   1.204   2.013
   98SAPC   C14 9645   5.413   1.340   1.841
   98SAPC  H14A 9646   5.488   1.401   1.794
   98SAPC  H14B 9647   5.379   1.267   1.769
   98SAPC  H14C 9648   5.331   1.402   1.873
   98SAPC   C15 9649   5.613   1.205   1.941
   98SAPC  H15A 9650   5.613   1.124   1.870
   98SAPC  H15B 9651   5.686   1.280   1.912
   98SAPC  H15C 9652   5.648   1.163   2.034
   98SAPC   C11 9653   5.582   1.502   2.058
   98SAPC  H11A 9654   5.569   1.576   2.140
   98SAPC  H11B 9655   5.551   1.553   1.964
   98SAPC     P 9656   5.808   1.461   2.192
   98SAPC   O13 9657   5.939   1.411   2.162
   98SAPC   O14 9658   5.787   1.595   2.252
   98SAPC   O12 9659   5.726   1.466   2.064
   98SAPC   O11 9660   5.716   1.350   2.261
   98SAPC    C1 9661   5.766   1.218   2.284
   98SAPC    HA 9662   5.719   1.142   2.218
   98SAPC    HB 9663   5.868   1.199   2.243
   98SAPC    C2 9664   5.763   1.178   2.430
   98SAPC    HS 9665   5.656   1.161   2.456
   98SAPC   O21 9666   5.824   1.278   2.498
   98SAPC   C21 9667   5.782   1.303   2.619
   98SAPC   O22 9668   5.684   1.254   2.669
   98SAPC   C22 9669   5.879   1.389   2.698
   98SAPC   H2R 9670   5.961   1.409   2.625
   98SAPC   H2S 9671   5.826   1.485   2.718
   98SAPC    C3 9672   5.843   1.051   2.457
   98SAPC    HX 9673   5.947   1.066   2.420
   98SAPC    HY 9674   5.804   0.966   2.397
   98SAPC   O31 9675   5.863   1.026   2.601
   98SAPC   C31 9676   5.763   0.960   2.667
   98SAPC   O32 9677   5.661   0.916   2.612
   98SAPC   C32 9678   5.786   0.946   2.814
   98SAPC   H2X 9679   5.836   1.036   2.855
   98SAPC   H2Y 9680   5.849   0.858   2.838
   98SAPC   C23 9681   5.937   1.331   2.832
   98SAPC   H3R 9682   5.985   1.235   2.802
   98SAPC   H3S 9683   5.852   1.300   2.896
   98SAPC   C24 9684   6.048   1.414   2.893
   98SAPC   H4R 9685   6.127   1.431   2.817
   98SAPC   H4S 9686   6.104   1.366   2.975
   98SAPC   C25 9687   5.991   1.552   2.936
   98SAPC   H5R 9688   6.007   1.623   2.854
   98SAPC   C26 9689   5.958   1.596   3.052
   98SAPC   H6R 9690   5.929   1.701   3.061
   98SAPC   C27 9691   5.957   1.507   3.182
   98SAPC   H7R 9692   5.966   1.397   3.168
   98SAPC   H7S 9693   5.858   1.527   3.228
   98SAPC   C28 9694   6.073   1.546   3.274
   98SAPC   H8R 9695   6.143   1.627   3.248
   98SAPC   C29 9696   6.112   1.462   3.378
   98SAPC   H9R 9697   6.206   1.479   3.432
   98SAPC  C210 9698   6.039   1.339   3.424
   98SAPC  H10R 9699   6.050   1.257   3.350
   98SAPC  H10S 9700   5.932   1.369   3.422
   98SAPC  C211 9701   6.093   1.298   3.562
   98SAPC  H11R 9702   6.080   1.372   3.642
   98SAPC  C212 9703   6.149   1.178   3.597
   98SAPC  H12R 9704   6.191   1.174   3.699
   98SAPC  C213 9705   6.181   1.054   3.514
   98SAPC  H13R 9706   6.222   0.988   3.593
   98SAPC  H13S 9707   6.258   1.072   3.436
   98SAPC  C214 9708   6.048   1.007   3.462
   98SAPC  H14R 9709   5.962   1.011   3.531
   98SAPC  C215 9710   6.024   0.950   3.342
   98SAPC  H15R 9711   5.918   0.933   3.318
   98SAPC  C216 9712   6.123   0.918   3.229
   98SAPC  H16R 9713   6.111   0.809   3.210
   98SAPC  H16S 9714   6.229   0.944   3.254
   98SAPC  C217 9715   6.097   1.001   3.101
   98SAPC  H17R 9716   6.122   1.105   3.133
   98SAPC  H17S 9717   5.988   0.999   3.080
   98SAPC  C218 9718   6.184   0.951   2.982
   98SAPC  H18R 9719   6.167   0.841   2.974
   98SAPC  H18S 9720   6.292   0.954   3.010
   98SAPC  C219 9721   6.160   1.020   2.850
   98SAPC  H19R 9722   6.194   1.123   2.875
   98SAPC  H19S 9723   6.054   1.037   2.822
   98SAPC  C220 9724   6.252   0.967   2.745
   98SAPC  H20R 9725   6.282   0.863   2.771
   98SAPC  H20S 9726   6.349   1.019   2.729
   98SAPC  H20T 9727   6.200   0.961   2.647
   98SAPC   C33 9728   5.647   0.930   2.881
   98SAPC   H3X 9729   5.591   0.842   2.841
   98SAPC   H3Y 9730   5.577   1.008   2.842
   98SAPC   C34 9731   5.651   0.927   3.039
   98SAPC   H4X 9732   5.557   0.960   3.087
   98SAPC   H4Y 9733   5.732   0.989   3.083
   98SAPC   C35 9734   5.674   0.787   3.089
   98SAPC   H5X 9735   5.767   0.749   3.042
   98SAPC   H5Y 9736   5.589   0.726   3.052
   98SAPC   C36 9737   5.679   0.769   3.239
   98SAPC   H6X 9738   5.766   0.828   3.275
   98SAPC   H6Y 9739   5.693   0.662   3.262
   98SAPC   C37 9740   5.550   0.802   3.305
   98SAPC   H7X 9741   5.467   0.741   3.264
   98SAPC   H7Y 9742   5.529   0.911   3.292
   98SAPC   C38 9743   5.549   0.767   3.455
   98SAPC   H8X 9744   5.594   0.858   3.501
   98SAPC   H8Y 9745   5.615   0.682   3.482
   98SAPC   C39 9746   5.405   0.759   3.513
   98SAPC   H9X 9747   5.330   0.767   3.431
   98SAPC   H9Y 9748   5.388   0.853   3.570
   98SAPC  C310 9749   5.386   0.641   3.611
   98SAPC  H10X 9750   5.486   0.638   3.661
   98SAPC  H10Y 9751   5.384   0.545   3.555
   98SAPC  C311 9752   5.263   0.643   3.712
   98SAPC  H11X 9753   5.264   0.548   3.769
   98SAPC  H11Y 9754   5.164   0.650   3.662
   98SAPC  C312 9755   5.264   0.758   3.808
   98SAPC  H12X 9756   5.223   0.853   3.767
   98SAPC  H12Y 9757   5.373   0.778   3.817
   98SAPC  C313 9758   5.193   0.740   3.950
   98SAPC  H13X 9759   5.251   0.670   4.013
   98SAPC  H13Y 9760   5.088   0.710   3.931
   98SAPC  C314 9761   5.181   0.876   4.031
   98SAPC  H14X 9762   5.119   0.943   3.968
   98SAPC  H14Y 9763   5.281   0.925   4.032
   98SAPC  C315 9764   5.099   0.856   4.163
   98SAPC  H15X 9765   5.161   0.780   4.215
   98SAPC  H15Y 9766   4.992   0.829   4.150
   98SAPC  C316 9767   5.105   0.991   4.243
   98SAPC  H16X 9768   5.053   1.070   4.185
   98SAPC  H16Y 9769   5.211   1.024   4.250
   98SAPC  C317 9770   5.028   0.986   4.379
   98SAPC  H17X 9771   5.044   1.084   4.429
   98SAPC  H17Y 9772   5.077   0.917   4.451
   98SAPC  C318 9773   4.876   0.955   4.378
   98SAPC  H18X 9774   4.858   0.847   4.361
   98SAPC  H18Y 9775   4.838   0.990   4.279
   98SAPC  H18Z 9776   4.828   0.993   4.471
   99SAPC     N 9777   3.577   5.270   1.826
   99SAPC   C12 9778   3.557   5.127   1.779
   99SAPC  H12A 9779   3.652   5.089   1.744
   99SAPC  H12B 9780   3.488   5.123   1.696
   99SAPC   C13 9781   3.655   5.343   1.721
   99SAPC  H13A 9782   3.760   5.320   1.728
   99SAPC  H13B 9783   3.612   5.328   1.623
   99SAPC  H13C 9784   3.643   5.450   1.735
   99SAPC   C14 9785   3.438   5.329   1.835
   99SAPC  H14A 9786   3.381   5.267   1.903
   99SAPC  H14B 9787   3.448   5.429   1.875
   99SAPC  H14C 9788   3.390   5.323   1.739
   99SAPC   C15 9789   3.650   5.287   1.949
   99SAPC  H15A 9790   3.744   5.234   1.948
   99SAPC  H15B 9791   3.667   5.394   1.959
   99SAPC  H15C 9792   3.580   5.252   2.023
   99SAPC   C11 9793   3.484   5.028   1.883
   99SAPC  H11A 9794   3.541   5.034   1.978
   99SAPC  H11B 9795   3.486   4.926   1.838
   99SAPC     P 9796   3.261   5.001   2.015
   99SAPC   O13 9797   3.177   5.108   2.076
   99SAPC   O14 9798   3.193   4.890   1.944
   99SAPC   O12 9799   3.355   5.075   1.914
   99SAPC   O11 9800   3.366   4.952   2.129
   99SAPC    C1 9801   3.372   5.031   2.247
   99SAPC    HA 9802   3.477   5.027   2.283
   99SAPC    HB 9803   3.359   5.138   2.218
   99SAPC    C2 9804   3.267   4.991   2.357
   99SAPC    HS 9805   3.168   5.012   2.312
   99SAPC   O21 9806   3.282   5.076   2.473
   99SAPC   C21 9807   3.244   5.199   2.457
   99SAPC   O22 9808   3.209   5.249   2.357
   99SAPC   C22 9809   3.265   5.268   2.594
   99SAPC   H2R 9810   3.355   5.221   2.640
   99SAPC   H2S 9811   3.295   5.372   2.570
   99SAPC    C3 9812   3.285   4.843   2.398
   99SAPC    HX 9813   3.381   4.831   2.452
   99SAPC    HY 9814   3.293   4.780   2.307
   99SAPC   O31 9815   3.168   4.788   2.466
   99SAPC   C31 9816   3.187   4.729   2.573
   99SAPC   O32 9817   3.293   4.712   2.635
   99SAPC   C32 9818   3.056   4.688   2.627
   99SAPC   H2X 9819   3.063   4.591   2.681
   99SAPC   H2Y 9820   2.985   4.666   2.543
   99SAPC   C23 9821   3.139   5.253   2.688
   99SAPC   H3R 9822   3.132   5.143   2.702
   99SAPC   H3S 9823   3.050   5.285   2.629
   99SAPC   C24 9824   3.141   5.328   2.821
   99SAPC   H4R 9825   3.032   5.339   2.837
   99SAPC   H4S 9826   3.186   5.429   2.812
   99SAPC   C25 9827   3.201   5.232   2.930
   99SAPC   H5R 9828   3.302   5.193   2.910
   99SAPC   C26 9829   3.130   5.184   3.036
   99SAPC   H6R 9830   3.177   5.109   3.101
   99SAPC   C27 9831   2.988   5.207   3.076
   99SAPC   H7R 9832   2.958   5.119   3.137
   99SAPC   H7S 9833   2.917   5.202   2.990
   99SAPC   C28 9834   2.953   5.331   3.153
   99SAPC   H8R 9835   2.906   5.411   3.093
   99SAPC   C29 9836   2.949   5.358   3.288
   99SAPC   H9R 9837   2.909   5.456   3.319
   99SAPC  C210 9838   2.993   5.269   3.404
   99SAPC  H10R 9839   3.025   5.169   3.370
   99SAPC  H10S 9840   2.907   5.248   3.471
   99SAPC  C211 9841   3.098   5.340   3.476
   99SAPC  H11R 9842   3.180   5.379   3.413
   99SAPC  C212 9843   3.101   5.373   3.608
   99SAPC  H12R 9844   3.177   5.438   3.655
   99SAPC  C213 9845   2.986   5.351   3.701
   99SAPC  H13R 9846   2.954   5.245   3.708
   99SAPC  H13S 9847   2.895   5.395   3.655
   99SAPC  C214 9848   2.995   5.399   3.841
   99SAPC  H14R 9849   2.929   5.485   3.864
   99SAPC  C215 9850   3.075   5.343   3.939
   99SAPC  H15R 9851   3.074   5.391   4.038
   99SAPC  C216 9852   3.173   5.231   3.923
   99SAPC  H16R 9853   3.233   5.253   3.833
   99SAPC  H16S 9854   3.126   5.131   3.916
   99SAPC  C217 9855   3.275   5.224   4.047
   99SAPC  H17R 9856   3.358   5.150   4.037
   99SAPC  H17S 9857   3.221   5.184   4.136
   99SAPC  C218 9858   3.346   5.360   4.068
   99SAPC  H18R 9859   3.272   5.440   4.090
   99SAPC  H18S 9860   3.391   5.378   3.968
   99SAPC  C219 9861   3.458   5.365   4.171
   99SAPC  H19R 9862   3.495   5.469   4.181
   99SAPC  H19S 9863   3.536   5.293   4.137
   99SAPC  C220 9864   3.425   5.329   4.319
   99SAPC  H20R 9865   3.373   5.410   4.374
   99SAPC  H20S 9866   3.528   5.315   4.357
   99SAPC  H20T 9867   3.370   5.233   4.334
   99SAPC   C33 9868   2.996   4.777   2.737
   99SAPC   H3X 9869   2.887   4.755   2.725
   99SAPC   H3Y 9870   3.002   4.882   2.701
   99SAPC   C34 9871   3.041   4.750   2.886
   99SAPC   H4X 9872   3.150   4.771   2.891
   99SAPC   H4Y 9873   3.031   4.641   2.907
   99SAPC   C35 9874   2.958   4.822   2.997
   99SAPC   H5X 9875   2.853   4.786   2.986
   99SAPC   H5Y 9876   2.948   4.930   2.971
   99SAPC   C36 9877   3.007   4.808   3.145
   99SAPC   H6X 9878   3.080   4.892   3.152
   99SAPC   H6Y 9879   3.071   4.718   3.160
   99SAPC   C37 9880   2.890   4.806   3.251
   99SAPC   H7X 9881   2.830   4.715   3.234
   99SAPC   H7Y 9882   2.828   4.896   3.231
   99SAPC   C38 9883   2.935   4.783   3.397
   99SAPC   H8X 9884   3.026   4.720   3.404
   99SAPC   H8Y 9885   2.847   4.723   3.428
   99SAPC   C39 9886   2.950   4.913   3.476
   99SAPC   H9X 9887   2.868   4.987   3.460
   99SAPC   H9Y 9888   3.044   4.969   3.460
   99SAPC  C310 9889   2.937   4.893   3.630
   99SAPC  H10X 9890   2.849   4.829   3.651
   99SAPC  H10Y 9891   2.928   4.991   3.681
   99SAPC  C311 9892   3.044   4.827   3.703
   99SAPC  H11X 9893   3.142   4.877   3.685
   99SAPC  H11Y 9894   3.054   4.725   3.660
   99SAPC  C312 9895   3.011   4.819   3.855
   99SAPC  H12X 9896   2.909   4.778   3.871
   99SAPC  H12Y 9897   3.005   4.926   3.882
   99SAPC  C313 9898   3.121   4.738   3.923
   99SAPC  H13X 9899   3.214   4.794   3.898
   99SAPC  H13Y 9900   3.138   4.635   3.885
   99SAPC  C314 9901   3.112   4.709   4.070
   99SAPC  H14X 9902   3.198   4.645   4.098
   99SAPC  H14Y 9903   3.020   4.660   4.108
   99SAPC  C315 9904   3.127   4.832   4.158
   99SAPC  H15X 9905   3.047   4.906   4.136
   99SAPC  H15Y 9906   3.222   4.883   4.132
   99SAPC  C316 9907   3.128   4.809   4.311
   99SAPC  H16X 9908   3.172   4.709   4.331
   99SAPC  H16Y 9909   3.019   4.799   4.331
   99SAPC  C317 9910   3.190   4.915   4.389
   99SAPC  H17X 9911   3.131   5.006   4.366
   99SAPC  H17Y 9912   3.297   4.933   4.365
   99SAPC  C318 9913   3.171   4.908   4.544
   99SAPC  H18X 9914   3.224   4.994   4.591
   99SAPC  H18Y 9915   3.219   4.816   4.581
   99SAPC  H18Z 9916   3.065   4.905   4.577
  100SAPC     N 9917   1.910   4.323   1.776
  100SAPC   C12 9918   1.834   4.428   1.697
  100SAPC  H12A 9919   1.831   4.395   1.595
  100SAPC  H12B 9920   1.890   4.521   1.698
  100SAPC   C13 9921   2.041   4.287   1.715
  100SAPC  H13A 9922   2.035   4.264   1.609
  100SAPC  H13B 9923   2.106   4.372   1.728
  100SAPC  H13C 9924   2.097   4.210   1.766
  100SAPC   C14 9925   1.935   4.364   1.913
  100SAPC  H14A 9926   1.846   4.410   1.954
  100SAPC  H14B 9927   1.973   4.286   1.979
  100SAPC  H14C 9928   2.012   4.439   1.907
  100SAPC   C15 9929   1.821   4.196   1.770
  100SAPC  H15A 9930   1.865   4.116   1.827
  100SAPC  H15B 9931   1.732   4.201   1.832
  100SAPC  H15C 9932   1.797   4.166   1.669
  100SAPC   C11 9933   1.681   4.456   1.731
  100SAPC  H11A 9934   1.627   4.361   1.712
  100SAPC  H11B 9935   1.643   4.533   1.662
  100SAPC     P 9936   1.554   4.551   1.941
  100SAPC   O13 9937   1.597   4.659   2.037
  100SAPC   O14 9938   1.454   4.596   1.841
  100SAPC   O12 9939   1.683   4.502   1.864
  100SAPC   O11 9940   1.513   4.422   2.019
  100SAPC    C1 9941   1.605   4.346   2.097
  100SAPC    HA 9942   1.597   4.241   2.062
  100SAPC    HB 9943   1.714   4.368   2.096
  100SAPC    C2 9944   1.555   4.342   2.251
  100SAPC    HS 9945   1.451   4.305   2.265
  100SAPC   O21 9946   1.584   4.469   2.310
  100SAPC   C21 9947   1.500   4.524   2.400
  100SAPC   O22 9948   1.392   4.473   2.433
  100SAPC   C22 9949   1.570   4.635   2.462
  100SAPC   H2R 9950   1.616   4.693   2.380
  100SAPC   H2S 9951   1.494   4.697   2.515
  100SAPC    C3 9952   1.639   4.248   2.337
  100SAPC    HX 9953   1.747   4.275   2.331
  100SAPC    HY 9954   1.644   4.150   2.284
  100SAPC   O31 9955   1.590   4.245   2.473
  100SAPC   C31 9956   1.493   4.161   2.495
  100SAPC   O32 9957   1.445   4.086   2.413
  100SAPC   C32 9958   1.431   4.190   2.626
  100SAPC   H2X 9959   1.322   4.210   2.619
  100SAPC   H2Y 9960   1.474   4.284   2.665
  100SAPC   C23 9961   1.691   4.592   2.555
  100SAPC   H3R 9962   1.736   4.691   2.579
  100SAPC   H3S 9963   1.761   4.525   2.501
  100SAPC   C24 9964   1.649   4.514   2.677
  100SAPC   H4R 9965   1.736   4.476   2.734
  100SAPC   H4S 9966   1.596   4.425   2.636
  100SAPC   C25 9967   1.547   4.588   2.765
  100SAPC   H5R 9968   1.461   4.620   2.705
  100SAPC   C26 9969   1.541   4.588   2.902
  100SAPC   H6R 9970   1.460   4.642   2.953
  100SAPC   C27 9971   1.637   4.517   2.997
  100SAPC   H7R 9972   1.677   4.587   3.073
  100SAPC   H7S 9973   1.724   4.468   2.949
  100SAPC   C28 9974   1.553   4.404   3.058
  100SAPC   H8R 9975   1.510   4.337   2.983
  100SAPC   C29 9976   1.543   4.368   3.188
  100SAPC   H9R 9977   1.477   4.283   3.209
  100SAPC  C210 9978   1.599   4.427   3.313
  100SAPC  H10R 9979   1.517   4.475   3.370
  100SAPC  H10S 9980   1.671   4.505   3.280
  100SAPC  C211 9981   1.658   4.329   3.402
  100SAPC  H11R 9982   1.747   4.281   3.359
  100SAPC  C212 9983   1.637   4.304   3.535
  100SAPC  H12R 9984   1.708   4.235   3.584
  100SAPC  C213 9985   1.530   4.357   3.625
  100SAPC  H13R 9986   1.524   4.461   3.587
  100SAPC  H13S 9987   1.572   4.357   3.728
  100SAPC  C214 9988   1.394   4.297   3.619
  100SAPC  H14R 9989   1.356   4.271   3.519
  100SAPC  C215 9990   1.310   4.278   3.723
  100SAPC  H15R 9991   1.207   4.244   3.701
  100SAPC  C216 9992   1.325   4.323   3.867
  100SAPC  H16R 9993   1.247   4.401   3.883
  100SAPC  H16S 9994   1.414   4.389   3.878
  100SAPC  C217 9995   1.356   4.209   3.970
  100SAPC  H17R 9996   1.459   4.178   3.944
  100SAPC  H17S 9997   1.288   4.121   3.957
  100SAPC  C218 9998   1.338   4.257   4.119
  100SAPC  H18R 9999   1.230   4.285   4.124
  100SAPC  H18S10000   1.397   4.348   4.143
  100SAPC  C21910001   1.356   4.145   4.222
  100SAPC  H19R10002   1.464   4.119   4.215
  100SAPC  H19S10003   1.291   4.062   4.190
  100SAPC  C22010004   1.314   4.194   4.366
  100SAPC  H20R10005   1.209   4.228   4.377
  100SAPC  H20S10006   1.376   4.283   4.391
  100SAPC  H20T10007   1.323   4.117   4.445
  100SAPC   C3310008   1.460   4.079   2.723
  100SAPC   H3X10009   1.431   3.982   2.678
  100SAPC   H3Y10010   1.400   4.083   2.817
  100SAPC   C3410011   1.608   4.074   2.762
  100SAPC   H4X10012   1.635   4.167   2.815
  100SAPC   H4Y10013   1.667   4.056   2.669
  100SAPC   C3510014   1.639   3.962   2.857
  100SAPC   H5X10015   1.745   3.932   2.846
  100SAPC   H5Y10016   1.570   3.880   2.826
  100SAPC   C3610017   1.614   4.013   3.000
  100SAPC   H6X10018   1.506   4.036   3.016
  100SAPC   H6Y10019   1.675   4.104   3.016
  100SAPC   C3710020   1.659   3.917   3.110
  100SAPC   H7X10021   1.765   3.883   3.111
  100SAPC   H7Y10022   1.606   3.820   3.106
  100SAPC   C3810023   1.626   3.964   3.250
  100SAPC   H8X10024   1.517   3.980   3.268
  100SAPC   H8Y10025   1.683   4.056   3.277
  100SAPC   C3910026   1.669   3.863   3.356
  100SAPC   H9X10027   1.778   3.869   3.374
  100SAPC   H9Y10028   1.648   3.761   3.319
  100SAPC  C31010029   1.580   3.896   3.487
  100SAPC  H10X10030   1.480   3.932   3.456
  100SAPC  H10Y10031   1.639   3.980   3.530
  100SAPC  C31110032   1.548   3.778   3.588
  100SAPC  H11X10033   1.646   3.755   3.635
  100SAPC  H11Y10034   1.517   3.686   3.534
  100SAPC  C31210035   1.454   3.814   3.696
  100SAPC  H12X10036   1.440   3.734   3.771
  100SAPC  H12Y10037   1.351   3.834   3.659
  100SAPC  C31310038   1.501   3.937   3.781
  100SAPC  H13X10039   1.418   3.960   3.852
  100SAPC  H13Y10040   1.506   4.028   3.717
  100SAPC  C31410041   1.631   3.898   3.850
  100SAPC  H14X10042   1.717   3.895   3.780
  100SAPC  H14Y10043   1.620   3.791   3.877
  100SAPC  C31510044   1.661   4.002   3.969
  100SAPC  H15X10045   1.560   4.015   4.014
  100SAPC  H15Y10046   1.689   4.106   3.941
  100SAPC  C31610047   1.767   3.956   4.073
  100SAPC  H16X10048   1.724   3.861   4.113
  100SAPC  H16Y10049   1.770   4.035   4.151
  100SAPC  C31710050   1.909   3.944   4.012
  100SAPC  H17X10051   1.901   3.876   3.925
  100SAPC  H17Y10052   1.980   3.898   4.084
  100SAPC  C31810053   1.966   4.073   3.958
  100SAPC  H18X10054   1.943   4.153   4.032
  100SAPC  H18Y10055   1.902   4.113   3.876
  100SAPC  H18Z10056   2.077   4.077   3.950
  101OSM      N10057   3.476   3.112   6.838
  101OSM    C1510058   3.402   2.989   6.885
  101OSM   H15A10059   3.383   2.995   6.991
  101OSM   H15B10060   3.456   2.897   6.868
  101OSM   H15C10061   3.301   2.977   6.848
  101OSM    C1410062   3.394   3.226   6.888
  101OSM   H14A10063   3.304   3.220   6.829
  101OSM   H14B10064   3.437   3.321   6.863
  101OSM   H14C10065   3.361   3.220   6.991
  101OSM    C1310066   3.616   3.111   6.888
  101OSM   H13A10067   3.667   3.191   6.836
  101OSM   H13B10068   3.662   3.016   6.866
  101OSM   H13C10069   3.618   3.131   6.994
  101OSM    C1210070   3.471   3.103   6.690
  101OSM   H12A10071   3.518   3.192   6.650
  101OSM   H12B10072   3.370   3.108   6.654
  101OSM    C1110073   3.536   2.975   6.610
  101OSM   H11A10074   3.535   2.997   6.501
  101OSM   H11B10075   3.467   2.892   6.636
  101OSM      P10076   3.723   2.810   6.687
  101OSM    O1310077   3.868   2.816   6.729
  101OSM    O1410078   3.631   2.750   6.789
  101OSM    O1110079   3.709   2.723   6.553
  101OSM    O1210080   3.669   2.959   6.657
  101OSM    C1S10081   3.771   2.792   6.436
  101OSM    H1S10082   3.881   2.778   6.433
  101OSM    H1T10083   3.731   2.896   6.438
  101OSM     NF10084   3.782   2.816   6.192
  101OSM    HNF10085   3.724   2.877   6.140
  101OSM    C2S10086   3.714   2.743   6.301
  101OSM    H2S10087   3.745   2.637   6.286
  101OSM    C3S10088   3.561   2.759   6.303
  101OSM    H3S10089   3.532   2.863   6.329
  101OSM     O310090   3.491   2.680   6.397
  101OSM    HO310091   3.554   2.648   6.462
  101OSM    C4S10092   3.489   2.724   6.168
  101OSM    H4S10093   3.499   2.621   6.132
  101OSM    C5S10094   3.401   2.812   6.110
  101OSM    H5S10095   3.396   2.910   6.160
  101OSM    C6S10096   3.322   2.789   5.980
  101OSM    H6S10097   3.362   2.865   5.910
  101OSM    H6T10098   3.216   2.821   5.994
  101OSM    C7S10099   3.316   2.647   5.932
  101OSM    H7S10100   3.286   2.571   6.007
  101OSM    H7T10101   3.420   2.630   5.898
  101OSM    C8S10102   3.225   2.621   5.811
  101OSM    H8S10103   3.119   2.647   5.831
  101OSM    H8T10104   3.230   2.514   5.782
  101OSM    C9S10105   3.262   2.721   5.700
  101OSM    H9S10106   3.369   2.749   5.712
  101OSM    H9T10107   3.201   2.814   5.704
  101OSM   C10S10108   3.247   2.651   5.567
  101OSM   H10S10109   3.159   2.585   5.556
  101OSM   H10T10110   3.338   2.589   5.550
  101OSM   C11S10111   3.242   2.762   5.457
  101OSM   H11S10112   3.346   2.797   5.441
  101OSM   H11T10113   3.171   2.840   5.493
  101OSM   C12S10114   3.198   2.693   5.327
  101OSM   H12S10115   3.089   2.708   5.315
  101OSM   H12T10116   3.217   2.584   5.331
  101OSM   C13S10117   3.262   2.756   5.209
  101OSM   H13S10118   3.369   2.770   5.237
  101OSM   H13T10119   3.217   2.852   5.178
  101OSM   C14S10120   3.240   2.669   5.090
  101OSM   H14S10121   3.132   2.648   5.075
  101OSM   H14T10122   3.298   2.575   5.096
  101OSM   C15S10123   3.284   2.734   4.956
  101OSM   H15S10124   3.314   2.644   4.899
  101OSM   H15T10125   3.366   2.805   4.980
  101OSM   C16S10126   3.178   2.829   4.891
  101OSM   H16S10127   3.154   2.900   4.974
  101OSM   H16T10128   3.086   2.773   4.862
  101OSM   C17S10129   3.224   2.913   4.769
  101OSM   H17S10130   3.326   2.951   4.789
  101OSM   H17T10131   3.151   2.997   4.767
  101OSM   C18S10132   3.218   2.834   4.634
  101OSM   H18S10133   3.272   2.737   4.645
  101OSM   H18T10134   3.268   2.886   4.549
  101OSM   H18U10135   3.115   2.803   4.606
  101OSM    C1F10136   3.913   2.816   6.163
  101OSM     OF10137   3.980   2.725   6.214
  101OSM    C2F10138   3.964   2.926   6.076
  101OSM    H2F10139   4.066   2.946   6.115
  101OSM    H2G10140   3.899   3.014   6.095
  101OSM    C3F10141   3.967   2.873   5.930
  101OSM    H3F10142   3.994   2.765   5.941
  101OSM    H3G10143   4.053   2.926   5.884
  101OSM    C4F10144   3.839   2.895   5.856
  101OSM    H4F10145   3.820   3.005   5.854
  101OSM    H4G10146   3.757   2.848   5.914
  101OSM    C5F10147   3.825   2.842   5.711
  101OSM    H5F10148   3.722   2.841   5.671
  101OSM    H5G10149   3.863   2.738   5.701
  101OSM    C6F10150   3.917   2.928   5.624
  101OSM    H6F10151   4.007   2.967   5.677
  101OSM    H6G10152   3.879   3.030   5.603
  101OSM    C7F10153   3.966   2.849   5.504
  101OSM    H7F10154   3.876   2.805   5.457
  101OSM    H7G10155   4.024   2.763   5.543
  101OSM    C8F10156   4.048   2.936   5.411
  101OSM    H8F10157   4.018   3.043   5.409
  101OSM    H8G10158   4.044   2.900   5.306
  101OSM    C9F10159   4.192   2.925   5.459
  101OSM    H9F10160   4.217   2.851   5.537
  101OSM   C10F10161   4.293   2.989   5.403
  101OSM   H10F10162   4.394   2.963   5.439
  101OSM   C11F10163   4.292   3.105   5.306
  101OSM   H11F10164   4.340   3.199   5.341
  101OSM   H11G10165   4.183   3.125   5.297
  101OSM   C12F10166   4.354   3.055   5.168
  101OSM   H12F10167   4.305   2.961   5.138
  101OSM   H12G10168   4.463   3.039   5.184
  101OSM   C13F10169   4.329   3.155   5.052
  101OSM   H13F10170   4.369   3.251   5.090
  101OSM   H13G10171   4.219   3.173   5.046
  101OSM   C14F10172   4.381   3.109   4.917
  101OSM   H14F10173   4.349   3.003   4.908
  101OSM   H14G10174   4.492   3.108   4.927
  101OSM   C15F10175   4.350   3.201   4.796
  101OSM   H15F10176   4.410   3.292   4.811
  101OSM   H15G10177   4.246   3.239   4.792
  101OSM   C16F10178   4.386   3.134   4.656
  101OSM   H16F10179   4.349   3.029   4.664
  101OSM   H16G10180   4.496   3.123   4.644
  101OSM   C17F10181   4.320   3.210   4.540
  101OSM   H17F10182   4.212   3.205   4.562
  101OSM   H17G10183   4.351   3.164   4.444
  101OSM   C18F10184   4.348   3.364   4.529
  101OSM   H18F10185   4.458   3.377   4.524
  101OSM   H18G10186   4.309   3.423   4.615
  101OSM   H18H10187   4.301   3.386   4.431
  102OSM      N10188   4.393   2.304   6.899
  102OSM    C1510189   4.541   2.273   6.896
  102OSM   H15A10190   4.589   2.265   6.993
  102OSM   H15B10191   4.592   2.355   6.848
  102OSM   H15C10192   4.553   2.181   6.841
  102OSM    C1410193   4.372   2.418   6.995
  102OSM   H14A10194   4.266   2.425   7.015
  102OSM   H14B10195   4.409   2.509   6.950
  102OSM   H14C10196   4.432   2.391   7.081
  102OSM    C1310197   4.335   2.336   6.767
  102OSM   H13A10198   4.381   2.426   6.729
  102OSM   H13B10199   4.227   2.341   6.773
  102OSM   H13C10200   4.359   2.261   6.693
  102OSM    C1210201   4.325   2.177   6.944
  102OSM   H12A10202   4.371   2.139   7.034
  102OSM   H12B10203   4.351   2.101   6.871
  102OSM    C1110204   4.175   2.176   6.954
  102OSM   H11A10205   4.137   2.248   7.030
  102OSM   H11B10206   4.154   2.082   7.008
  102OSM      P10207   4.052   2.075   6.752
  102OSM    O1310208   4.168   1.990   6.715
  102OSM    O1410209   3.939   2.010   6.824
  102OSM    O1110210   3.993   2.154   6.627
  102OSM    O1210211   4.106   2.197   6.833
  102OSM    C1S10212   4.087   2.188   6.523
  102OSM    H1S10213   4.158   2.105   6.500
  102OSM    H1T10214   4.149   2.266   6.572
  102OSM     NF10215   4.126   2.268   6.286
  102OSM    HNF10216   4.149   2.362   6.265
  102OSM    C2S10217   4.019   2.240   6.390
  102OSM    H2S10218   3.961   2.154   6.350
  102OSM    C3S10219   3.918   2.349   6.430
  102OSM    H3S10220   3.976   2.425   6.487
  102OSM     O310221   3.800   2.313   6.510
  102OSM    HO310222   3.815   2.227   6.550
  102OSM    C4S10223   3.876   2.406   6.298
  102OSM    H4S10224   3.949   2.479   6.259
  102OSM    C5S10225   3.773   2.370   6.215
  102OSM    H5S10226   3.722   2.277   6.243
  102OSM    C6S10227   3.745   2.438   6.081
  102OSM    H6S10228   3.720   2.545   6.097
  102OSM    H6T10229   3.657   2.388   6.037
  102OSM    C7S10230   3.868   2.422   5.986
  102OSM    H7S10231   3.889   2.314   5.974
  102OSM    H7T10232   3.952   2.480   6.032
  102OSM    C8S10233   3.844   2.476   5.841
  102OSM    H8S10234   3.933   2.462   5.776
  102OSM    H8T10235   3.817   2.583   5.849
  102OSM    C9S10236   3.731   2.401   5.768
  102OSM    H9S10237   3.641   2.403   5.832
  102OSM    H9T10238   3.759   2.294   5.765
  102OSM   C10S10239   3.704   2.454   5.627
  102OSM   H10S10240   3.805   2.466   5.581
  102OSM   H10T10241   3.654   2.552   5.643
  102OSM   C11S10242   3.613   2.368   5.538
  102OSM   H11S10243   3.527   2.341   5.603
  102OSM   H11T10244   3.663   2.274   5.509
  102OSM   C12S10245   3.576   2.435   5.401
  102OSM   H12S10246   3.514   2.528   5.404
  102OSM   H12T10247   3.524   2.361   5.337
  102OSM   C13S10248   3.694   2.493   5.326
  102OSM   H13S10249   3.773   2.419   5.299
  102OSM   H13T10250   3.743   2.571   5.389
  102OSM   C14S10251   3.656   2.567   5.196
  102OSM   H14S10252   3.581   2.643   5.226
  102OSM   H14T10253   3.607   2.489   5.134
  102OSM   C15S10254   3.774   2.628   5.116
  102OSM   H15S10255   3.857   2.555   5.120
  102OSM   H15T10256   3.819   2.711   5.175
  102OSM   C16S10257   3.729   2.670   4.978
  102OSM   H16S10258   3.801   2.723   4.911
  102OSM   H16T10259   3.655   2.751   4.993
  102OSM   C17S10260   3.679   2.557   4.891
  102OSM   H17S10261   3.587   2.516   4.938
  102OSM   H17T10262   3.764   2.486   4.882
  102OSM   C18S10263   3.633   2.597   4.755
  102OSM   H18S10264   3.714   2.650   4.700
  102OSM   H18T10265   3.536   2.649   4.758
  102OSM   H18U10266   3.621   2.501   4.700
  102OSM    C1F10267   4.205   2.173   6.225
  102OSM     OF10268   4.209   2.058   6.266
  102OSM    C2F10269   4.296   2.209   6.107
  102OSM    H2F10270   4.392   2.251   6.144
  102OSM    H2G10271   4.237   2.285   6.052
  102OSM    C3F10272   4.315   2.085   6.016
  102OSM    H3F10273   4.219   2.040   5.982
  102OSM    H3G10274   4.362   1.995   6.061
  102OSM    C4F10275   4.390   2.153   5.901
  102OSM    H4F10276   4.488   2.191   5.934
  102OSM    H4G10277   4.329   2.235   5.858
  102OSM    C5F10278   4.400   2.048   5.792
  102OSM    H5F10279   4.306   1.994   5.767
  102OSM    H5G10280   4.465   1.966   5.829
  102OSM    C6F10281   4.467   2.102   5.668
  102OSM    H6F10282   4.571   2.125   5.699
  102OSM    H6G10283   4.424   2.201   5.642
  102OSM    C7F10284   4.457   2.014   5.549
  102OSM    H7F10285   4.349   1.996   5.533
  102OSM    H7G10286   4.511   1.920   5.575
  102OSM    C8F10287   4.510   2.082   5.428
  102OSM    H8F10288   4.620   2.099   5.431
  102OSM    H8G10289   4.469   2.184   5.415
  102OSM    C9F10290   4.482   1.998   5.300
  102OSM    H9F10291   4.490   1.889   5.318
  102OSM   C10F10292   4.420   2.037   5.185
  102OSM   H10F10293   4.395   1.975   5.098
  102OSM   C11F10294   4.396   2.186   5.160
  102OSM   H11F10295   4.446   2.250   5.236
  102OSM   H11G10296   4.290   2.214   5.178
  102OSM   C12F10297   4.426   2.220   5.010
  102OSM   H12F10298   4.394   2.326   5.001
  102OSM   H12G10299   4.362   2.151   4.951
  102OSM   C13F10300   4.577   2.214   4.984
  102OSM   H13F10301   4.617   2.114   5.010
  102OSM   H13G10302   4.623   2.267   5.069
  102OSM   C14F10303   4.618   2.264   4.844
  102OSM   H14F10304   4.658   2.367   4.846
  102OSM   H14G10305   4.523   2.291   4.792
  102OSM   C15F10306   4.695   2.163   4.763
  102OSM   H15F10307   4.630   2.073   4.760
  102OSM   H15G10308   4.786   2.130   4.819
  102OSM   C16F10309   4.723   2.225   4.627
  102OSM   H16F10310   4.794   2.310   4.635
  102OSM   H16G10311   4.629   2.275   4.597
  102OSM   C17F10312   4.769   2.122   4.524
  102OSM   H17F10313   4.738   2.157   4.423
  102OSM   H17G10314   4.713   2.028   4.545
  102OSM   C18F10315   4.918   2.091   4.528
  102OSM   H18F10316   4.951   2.069   4.631
  102OSM   H18G10317   4.976   2.180   4.494
  102OSM   H18H10318   4.932   1.999   4.467
  103OSM      N10319   3.982   4.398   6.850
  103OSM    C1510320   3.884   4.309   6.916
  103OSM   H15A10321   3.882   4.204   6.891
  103OSM   H15B10322   3.782   4.344   6.905
  103OSM   H15C10323   3.893   4.313   7.023
  103OSM    C1410324   3.951   4.544   6.846
  103OSM   H14A10325   3.951   4.585   6.945
  103OSM   H14B10326   3.854   4.562   6.802
  103OSM   H14C10327   4.024   4.599   6.789
  103OSM    C1310328   4.112   4.375   6.931
  103OSM   H13A10329   4.197   4.426   6.888
  103OSM   H13B10330   4.142   4.271   6.929
  103OSM   H13C10331   4.091   4.412   7.030
  103OSM    C1210332   3.996   4.351   6.711
  103OSM   H12A10333   4.027   4.248   6.725
  103OSM   H12B10334   4.077   4.398   6.657
  103OSM    C1110335   3.873   4.349   6.607
  103OSM   H11A10336   3.789   4.292   6.652
  103OSM   H11B10337   3.899   4.296   6.513
  103OSM      P10338   3.881   4.601   6.488
  103OSM    O1310339   3.802   4.614   6.363
  103OSM    O1410340   3.875   4.727   6.573
  103OSM    O1110341   4.036   4.565   6.459
  103OSM    O1210342   3.828   4.480   6.576
  103OSM    C1S10343   4.080   4.494   6.345
  103OSM    H1S10344   4.012   4.410   6.320
  103OSM    H1T10345   4.176   4.445   6.372
  103OSM     NF10346   4.131   4.495   6.100
  103OSM    HNF10347   4.223   4.477   6.068
  103OSM    C2S10348   4.109   4.577   6.218
  103OSM    H2S10349   4.021   4.640   6.192
  103OSM    C3S10350   4.224   4.677   6.247
  103OSM    H3S10351   4.323   4.628   6.251
  103OSM     O310352   4.214   4.750   6.368
  103OSM    HO310353   4.146   4.714   6.425
  103OSM    C4S10354   4.249   4.783   6.131
  103OSM    H4S10355   4.190   4.876   6.133
  103OSM    C5S10356   4.317   4.779   6.017
  103OSM    H5S10357   4.368   4.683   5.997
  103OSM    C6S10358   4.311   4.881   5.911
  103OSM    H6S10359   4.404   4.891   5.850
  103OSM    H6T10360   4.283   4.978   5.957
  103OSM    C7S10361   4.203   4.855   5.811
  103OSM    H7S10362   4.102   4.828   5.850
  103OSM    H7T10363   4.233   4.764   5.754
  103OSM    C8S10364   4.172   4.966   5.706
  103OSM    H8S10365   4.265   5.024   5.687
  103OSM    H8T10366   4.086   5.028   5.740
  103OSM    C9S10367   4.140   4.903   5.576
  103OSM    H9S10368   4.058   4.828   5.583
  103OSM    H9T10369   4.228   4.856   5.526
  103OSM   C10S10370   4.079   5.002   5.482
  103OSM   H10S10371   4.154   5.080   5.459
  103OSM   H10T10372   3.992   5.057   5.523
  103OSM   C11S10373   4.043   4.948   5.348
  103OSM   H11S10374   3.963   4.873   5.367
  103OSM   H11T10375   4.121   4.899   5.285
  103OSM   C12S10376   3.982   5.059   5.254
  103OSM   H12S10377   4.042   5.152   5.263
  103OSM   H12T10378   3.890   5.092   5.307
  103OSM   C13S10379   3.943   5.018   5.112
  103OSM   H13S10380   3.897   5.105   5.061
  103OSM   H13T10381   3.863   4.941   5.113
  103OSM   C14S10382   4.063   4.987   5.025
  103OSM   H14S10383   4.118   4.896   5.058
  103OSM   H14T10384   4.128   5.076   5.039
  103OSM   C15S10385   4.011   4.946   4.877
  103OSM   H15S10386   3.951   5.036   4.850
  103OSM   H15T10387   3.952   4.853   4.888
  103OSM   C16S10388   4.141   4.927   4.789
  103OSM   H16S10389   4.192   4.837   4.830
  103OSM   H16T10390   4.203   5.019   4.800
  103OSM   C17S10391   4.124   4.919   4.635
  103OSM   H17S10392   4.074   4.821   4.617
  103OSM   H17T10393   4.216   4.901   4.575
  103OSM   C18S10394   4.062   5.041   4.584
  103OSM   H18S10395   4.118   5.134   4.609
  103OSM   H18T10396   3.958   5.044   4.623
  103OSM   H18U10397   4.046   5.047   4.475
  103OSM    C1F10398   4.037   4.422   6.039
  103OSM     OF10399   3.922   4.425   6.082
  103OSM    C2F10400   4.075   4.340   5.923
  103OSM    H2F10401   3.984   4.279   5.901
  103OSM    H2G10402   4.147   4.261   5.954
  103OSM    C3F10403   4.116   4.428   5.796
  103OSM    H3F10404   4.213   4.480   5.812
  103OSM    H3G10405   4.038   4.501   5.768
  103OSM    C4F10406   4.118   4.323   5.683
  103OSM    H4F10407   4.021   4.280   5.648
  103OSM    H4G10408   4.175   4.234   5.717
  103OSM    C5F10409   4.169   4.393   5.560
  103OSM    H5F10410   4.279   4.382   5.553
  103OSM    H5G10411   4.158   4.502   5.549
  103OSM    C6F10412   4.120   4.332   5.431
  103OSM    H6F10413   4.014   4.364   5.420
  103OSM    H6G10414   4.130   4.222   5.446
  103OSM    C7F10415   4.175   4.386   5.307
  103OSM    H7F10416   4.279   4.349   5.295
  103OSM    H7G10417   4.168   4.497   5.311
  103OSM    C8F10418   4.106   4.329   5.178
  103OSM    H8F10419   3.995   4.328   5.193
  103OSM    H8G10420   4.134   4.223   5.161
  103OSM    C9F10421   4.142   4.423   5.064
  103OSM    H9F10422   4.248   4.452   5.053
  103OSM   C10F10423   4.059   4.495   4.987
  103OSM   H10F10424   4.105   4.548   4.903
  103OSM   C11F10425   3.909   4.476   4.982
  103OSM   H11F10426   3.859   4.572   5.006
  103OSM   H11G10427   3.873   4.394   5.049
  103OSM   C12F10428   3.850   4.436   4.842
  103OSM   H12F10429   3.877   4.524   4.780
  103OSM   H12G10430   3.739   4.435   4.841
  103OSM   C13F10431   3.903   4.310   4.776
  103OSM   H13F10432   3.892   4.230   4.852
  103OSM   H13G10433   4.013   4.327   4.771
  103OSM   C14F10434   3.839   4.281   4.644
  103OSM   H14F10435   3.733   4.251   4.658
  103OSM   H14G10436   3.887   4.189   4.603
  103OSM   C15F10437   3.832   4.391   4.535
  103OSM   H15F10438   3.932   4.435   4.513
  103OSM   H15G10439   3.788   4.488   4.567
  103OSM   C16F10440   3.778   4.337   4.404
  103OSM   H16F10441   3.674   4.303   4.422
  103OSM   H16G10442   3.846   4.255   4.375
  103OSM   C17F10443   3.761   4.451   4.295
  103OSM   H17F10444   3.867   4.457   4.262
  103OSM   H17G10445   3.739   4.546   4.347
  103OSM   C18F10446   3.662   4.413   4.176
  103OSM   H18F10447   3.556   4.413   4.209
  103OSM   H18G10448   3.684   4.313   4.134
  103OSM   H18H10449   3.679   4.485   4.093
  104OSM      N10450   5.473   3.309   6.796
  104OSM    C1510451   5.466   3.434   6.721
  104OSM   H15A10452   5.452   3.515   6.791
  104OSM   H15B10453   5.377   3.446   6.661
  104OSM   H15C10454   5.558   3.449   6.666
  104OSM    C1410455   5.586   3.322   6.896
  104OSM   H14A10456   5.568   3.407   6.961
  104OSM   H14B10457   5.680   3.335   6.845
  104OSM   H14C10458   5.599   3.239   6.964
  104OSM    C1310459   5.347   3.285   6.875
  104OSM   H13A10460   5.276   3.228   6.816
  104OSM   H13B10461   5.295   3.378   6.894
  104OSM   H13C10462   5.379   3.234   6.964
  104OSM    C1210463   5.494   3.197   6.692
  104OSM   H12A10464   5.584   3.218   6.637
  104OSM   H12B10465   5.412   3.214   6.624
  104OSM    C1110466   5.505   3.055   6.747
  104OSM   H11A10467   5.465   3.036   6.849
  104OSM   H11B10468   5.612   3.034   6.763
  104OSM      P10469   5.428   2.817   6.707
  104OSM    O1310470   5.548   2.787   6.791
  104OSM    O1410471   5.299   2.799   6.769
  104OSM    O1110472   5.431   2.731   6.578
  104OSM    O1210473   5.443   2.968   6.650
  104OSM    C1S10474   5.331   2.714   6.484
  104OSM    H1S10475   5.275   2.810   6.480
  104OSM    H1T10476   5.266   2.629   6.514
  104OSM     NF10477   5.279   2.681   6.243
  104OSM    HNF10478   5.239   2.597   6.207
  104OSM    C2S10479   5.384   2.684   6.338
  104OSM    H2S10480   5.458   2.763   6.315
  104OSM    C3S10481   5.475   2.550   6.344
  104OSM    H3S10482   5.402   2.466   6.344
  104OSM     O310483   5.558   2.536   6.455
  104OSM    HO310484   5.528   2.606   6.513
  104OSM    C4S10485   5.559   2.535   6.222
  104OSM    H4S10486   5.533   2.444   6.167
  104OSM    C5S10487   5.675   2.595   6.185
  104OSM    H5S10488   5.713   2.675   6.249
  104OSM    C6S10489   5.747   2.557   6.063
  104OSM    H6S10490   5.826   2.482   6.085
  104OSM    H6T10491   5.812   2.642   6.033
  104OSM    C7S10492   5.673   2.523   5.931
  104OSM    H7S10493   5.631   2.421   5.944
  104OSM    H7T10494   5.752   2.506   5.855
  104OSM    C8S10495   5.571   2.621   5.873
  104OSM    H8S10496   5.595   2.723   5.912
  104OSM    H8T10497   5.473   2.585   5.911
  104OSM    C9S10498   5.578   2.608   5.726
  104OSM    H9S10499   5.680   2.642   5.701
  104OSM    H9T10500   5.495   2.670   5.686
  104OSM   C10S10501   5.559   2.462   5.675
  104OSM   H10S10502   5.459   2.424   5.705
  104OSM   H10T10503   5.638   2.404   5.728
  104OSM   C11S10504   5.579   2.446   5.525
  104OSM   H11S10505   5.678   2.486   5.497
  104OSM   H11T10506   5.511   2.522   5.479
  104OSM   C12S10507   5.548   2.307   5.472
  104OSM   H12S10508   5.439   2.283   5.479
  104OSM   H12T10509   5.608   2.234   5.531
  104OSM   C13S10510   5.600   2.296   5.329
  104OSM   H13S10511   5.596   2.187   5.306
  104OSM   H13T10512   5.705   2.332   5.332
  104OSM   C14S10513   5.505   2.380   5.240
  104OSM   H14S10514   5.500   2.485   5.278
  104OSM   H14T10515   5.406   2.330   5.248
  104OSM   C15S10516   5.542   2.352   5.098
  104OSM   H15S10517   5.531   2.242   5.101
  104OSM   H15T10518   5.644   2.384   5.066
  104OSM   C16S10519   5.442   2.407   4.992
  104OSM   H16S10520   5.496   2.463   4.913
  104OSM   H16T10521   5.371   2.482   5.033
  104OSM   C17S10522   5.350   2.295   4.928
  104OSM   H17S10523   5.413   2.217   4.881
  104OSM   H17T10524   5.282   2.348   4.858
  104OSM   C18S10525   5.256   2.239   5.036
  104OSM   H18S10526   5.197   2.154   4.994
  104OSM   H18T10527   5.183   2.314   5.073
  104OSM   H18U10528   5.313   2.202   5.123
  104OSM    C1F10529   5.217   2.793   6.206
  104OSM     OF10530   5.266   2.901   6.230
  104OSM    C2F10531   5.093   2.763   6.127
  104OSM    H2F10532   5.008   2.775   6.198
  104OSM    H2G10533   5.100   2.657   6.095
  104OSM    C3F10534   5.086   2.858   6.004
  104OSM    H3F10535   5.181   2.843   5.948
  104OSM    H3G10536   5.066   2.963   6.035
  104OSM    C4F10537   4.967   2.811   5.915
  104OSM    H4F10538   4.885   2.880   5.942
  104OSM    H4G10539   4.933   2.707   5.934
  104OSM    C5F10540   4.993   2.826   5.768
  104OSM    H5F10541   5.054   2.917   5.747
  104OSM    H5G10542   4.899   2.829   5.710
  104OSM    C6F10543   5.073   2.714   5.706
  104OSM    H6F10544   5.014   2.624   5.731
  104OSM    H6G10545   5.170   2.687   5.754
  104OSM    C7F10546   5.100   2.733   5.562
  104OSM    H7F10547   5.183   2.807   5.561
  104OSM    H7G10548   5.007   2.774   5.517
  104OSM    C8F10549   5.144   2.613   5.473
  104OSM    H8F10550   5.193   2.546   5.547
  104OSM    H8G10551   5.221   2.655   5.405
  104OSM    C9F10552   5.033   2.539   5.397
  104OSM    H9F10553   4.955   2.512   5.470
  104OSM   C10F10554   5.011   2.533   5.265
  104OSM   H10F10555   4.922   2.477   5.235
  104OSM   C11F10556   5.105   2.584   5.156
  104OSM   H11F10557   5.178   2.504   5.128
  104OSM   H11G10558   5.170   2.664   5.198
  104OSM   C12F10559   5.030   2.642   5.033
  104OSM   H12F10560   5.101   2.690   4.963
  104OSM   H12G10561   4.955   2.714   5.072
  104OSM   C13F10562   4.976   2.533   4.945
  104OSM   H13F10563   4.886   2.487   4.992
  104OSM   H13G10564   5.040   2.443   4.946
  104OSM   C14F10565   4.948   2.574   4.796
  104OSM   H14F10566   4.940   2.685   4.795
  104OSM   H14G10567   4.851   2.538   4.757
  104OSM   C15F10568   5.057   2.528   4.702
  104OSM   H15F10569   5.085   2.427   4.737
  104OSM   H15G10570   5.152   2.586   4.710
  104OSM   C16F10571   5.019   2.534   4.556
  104OSM   H16F10572   4.945   2.452   4.548
  104OSM   H16G10573   5.100   2.504   4.486
  104OSM   C17F10574   4.972   2.667   4.505
  104OSM   H17F10575   5.035   2.752   4.540
  104OSM   H17G10576   4.871   2.693   4.543
  104OSM   C18F10577   4.959   2.674   4.349
  104OSM   H18F10578   4.882   2.600   4.317
  104OSM   H18G10579   5.055   2.656   4.296
  104OSM   H18H10580   4.928   2.778   4.327
  105OSM      N10581   5.814   4.083   6.892
  105OSM    C1510582   5.675   4.063   6.952
  105OSM   H15A10583   5.672   4.066   7.060
  105OSM   H15B10584   5.636   3.966   6.925
  105OSM   H15C10585   5.603   4.138   6.922
  105OSM    C1410586   5.861   4.220   6.932
  105OSM   H14A10587   5.954   4.247   6.885
  105OSM   H14B10588   5.862   4.223   7.040
  105OSM   H14C10589   5.795   4.300   6.902
  105OSM    C1310590   5.907   3.977   6.942
  105OSM   H13A10591   5.999   4.008   6.894
  105OSM   H13B10592   5.884   3.879   6.904
  105OSM   H13C10593   5.919   3.976   7.050
  105OSM    C1210594   5.813   4.083   6.741
  105OSM   H12A10595   5.903   4.131   6.705
  105OSM   H12B10596   5.723   4.130   6.703
  105OSM    C1110597   5.800   3.946   6.669
  105OSM   H11A10598   5.883   3.882   6.705
  105OSM   H11B10599   5.807   3.953   6.559
  105OSM      P10600   5.542   3.924   6.633
  105OSM    O1310601   5.425   3.844   6.679
  105OSM    O1410602   5.540   4.072   6.638
  105OSM    O1110603   5.569   3.887   6.481
  105OSM    O1210604   5.672   3.878   6.710
  105OSM    C1S10605   5.638   3.768   6.452
  105OSM    H1S10606   5.586   3.675   6.483
  105OSM    H1T10607   5.742   3.755   6.490
  105OSM     NF10608   5.735   3.634   6.249
  105OSM    HNF10609   5.834   3.628   6.235
  105OSM    C2S10610   5.671   3.758   6.295
  105OSM    H2S10611   5.573   3.768   6.244
  105OSM    C3S10612   5.758   3.879   6.250
  105OSM    H3S10613   5.853   3.865   6.305
  105OSM     O310614   5.718   4.003   6.303
  105OSM    HO310615   5.643   3.969   6.353
  105OSM    C4S10616   5.798   3.885   6.107
  105OSM    H4S10617   5.891   3.832   6.081
  105OSM    C5S10618   5.737   3.953   6.008
  105OSM    H5S10619   5.641   3.999   6.031
  105OSM    C6S10620   5.787   3.947   5.866
  105OSM    H6S10621   5.883   3.890   5.864
  105OSM    H6T10622   5.796   4.054   5.835
  105OSM    C7S10623   5.683   3.898   5.765
  105OSM    H7S10624   5.598   3.968   5.777
  105OSM    H7T10625   5.650   3.795   5.790
  105OSM    C8S10626   5.743   3.894   5.625
  105OSM    H8S10627   5.835   3.833   5.633
  105OSM    H8T10628   5.782   3.993   5.592
  105OSM    C9S10629   5.659   3.833   5.515
  105OSM    H9S10630   5.571   3.900   5.502
  105OSM    H9T10631   5.636   3.727   5.539
  105OSM   C10S10632   5.736   3.836   5.382
  105OSM   H10S10633   5.830   3.776   5.391
  105OSM   H10T10634   5.761   3.942   5.359
  105OSM   C11S10635   5.659   3.781   5.255
  105OSM   H11S10636   5.559   3.828   5.245
  105OSM   H11T10637   5.635   3.676   5.281
  105OSM   C12S10638   5.744   3.797   5.130
  105OSM   H12S10639   5.843   3.746   5.132
  105OSM   H12T10640   5.760   3.906   5.115
  105OSM   C13S10641   5.684   3.714   5.010
  105OSM   H13S10642   5.659   3.613   5.048
  105OSM   H13T10643   5.750   3.709   4.920
  105OSM   C14S10644   5.554   3.772   4.949
  105OSM   H14S10645   5.580   3.877   4.925
  105OSM   H14T10646   5.474   3.772   5.027
  105OSM   C15S10647   5.500   3.715   4.817
  105OSM   H15S10648   5.562   3.755   4.734
  105OSM   H15T10649   5.405   3.766   4.790
  105OSM   C16S10650   5.492   3.564   4.799
  105OSM   H16S10651   5.426   3.526   4.880
  105OSM   H16T10652   5.593   3.519   4.808
  105OSM   C17S10653   5.423   3.520   4.662
  105OSM   H17S10654   5.490   3.547   4.578
  105OSM   H17T10655   5.331   3.581   4.650
  105OSM   C18S10656   5.380   3.371   4.658
  105OSM   H18S10657   5.472   3.310   4.658
  105OSM   H18T10658   5.318   3.357   4.567
  105OSM   H18U10659   5.319   3.335   4.744
  105OSM    C1F10660   5.676   3.512   6.258
  105OSM     OF10661   5.557   3.501   6.272
  105OSM    C2F10662   5.764   3.389   6.263
  105OSM    H2F10663   5.743   3.322   6.350
  105OSM    H2G10664   5.870   3.421   6.268
  105OSM    C3F10665   5.752   3.310   6.133
  105OSM    H3F10666   5.645   3.286   6.115
  105OSM    H3G10667   5.817   3.221   6.142
  105OSM    C4F10668   5.812   3.392   6.012
  105OSM    H4F10669   5.918   3.409   6.039
  105OSM    H4G10670   5.771   3.493   5.993
  105OSM    C5F10671   5.806   3.315   5.885
  105OSM    H5F10672   5.702   3.286   5.860
  105OSM    H5G10673   5.851   3.215   5.902
  105OSM    C6F10674   5.879   3.383   5.769
  105OSM    H6F10675   5.985   3.397   5.798
  105OSM    H6G10676   5.829   3.473   5.728
  105OSM    C7F10677   5.860   3.289   5.641
  105OSM    H7F10678   5.751   3.283   5.618
  105OSM    H7G10679   5.900   3.187   5.660
  105OSM    C8F10680   5.950   3.342   5.530
  105OSM    H8F10681   5.968   3.258   5.459
  105OSM    H8G10682   6.048   3.372   5.573
  105OSM    C9F10683   5.886   3.452   5.459
  105OSM    H9F10684   5.895   3.551   5.508
  105OSM   C10F10685   5.804   3.435   5.354
  105OSM   H10F10686   5.754   3.524   5.313
  105OSM   C11F10687   5.771   3.305   5.285
  105OSM   H11F10688   5.666   3.275   5.307
  105OSM   H11G10689   5.830   3.222   5.329
  105OSM   C12F10690   5.781   3.315   5.129
  105OSM   H12F10691   5.886   3.311   5.095
  105OSM   H12G10692   5.733   3.409   5.095
  105OSM   C13F10693   5.697   3.203   5.066
  105OSM   H13F10694   5.594   3.205   5.106
  105OSM   H13G10695   5.743   3.109   5.104
  105OSM   C14F10696   5.686   3.196   4.913
  105OSM   H14F10697   5.653   3.294   4.871
  105OSM   H14G10698   5.622   3.112   4.879
  105OSM   C15F10699   5.819   3.169   4.838
  105OSM   H15F10700   5.859   3.066   4.845
  105OSM   H15G10701   5.895   3.236   4.883
  105OSM   C16F10702   5.812   3.209   4.682
  105OSM   H16F10703   5.778   3.315   4.683
  105OSM   H16G10704   5.724   3.152   4.644
  105OSM   C17F10705   5.937   3.199   4.599
  105OSM   H17F10706   5.909   3.202   4.492
  105OSM   H17G10707   5.996   3.108   4.625
  105OSM   C18F10708   6.037   3.315   4.631
  105OSM   H18F10709   6.103   3.322   4.542
  105OSM   H18G10710   6.082   3.302   4.732
  105OSM   H18H10711   5.989   3.415   4.629
  106OSM      N10712   4.195   1.427   7.072
  106OSM    C1510713   4.195   1.577   7.093
  106OSM   H15A10714   4.189   1.606   7.197
  106OSM   H15B10715   4.109   1.622   7.046
  106OSM   H15C10716   4.287   1.626   7.067
  106OSM    C1410717   4.333   1.390   7.110
  106OSM   H14A10718   4.352   1.434   7.207
  106OSM   H14B10719   4.401   1.437   7.041
  106OSM   H14C10720   4.348   1.284   7.096
  106OSM    C1310721   4.101   1.357   7.164
  106OSM   H13A10722   4.133   1.362   7.267
  106OSM   H13B10723   4.096   1.252   7.142
  106OSM   H13C10724   4.000   1.395   7.153
  106OSM    C1210725   4.163   1.395   6.930
  106OSM   H12A10726   4.058   1.415   6.911
  106OSM   H12B10727   4.171   1.289   6.912
  106OSM    C1110728   4.232   1.473   6.815
  106OSM   H11A10729   4.211   1.579   6.840
  106OSM   H11B10730   4.180   1.447   6.720
  106OSM      P10731   4.439   1.345   6.748
  106OSM    O1310732   4.589   1.352   6.769
  106OSM    O1410733   4.368   1.225   6.808
  106OSM    O1110734   4.397   1.366   6.599
  106OSM    O1210735   4.376   1.464   6.812
  106OSM    C1S10736   4.448   1.478   6.525
  106OSM    H1S10737   4.554   1.453   6.502
  106OSM    H1T10738   4.451   1.567   6.592
  106OSM     NF10739   4.429   1.629   6.323
  106OSM    HNF10740   4.383   1.717   6.326
  106OSM    C2S10741   4.374   1.507   6.393
  106OSM    H2S10742   4.406   1.421   6.330
  106OSM    C3S10743   4.226   1.505   6.397
  106OSM    H3S10744   4.193   1.587   6.465
  106OSM     O310745   4.166   1.393   6.457
  106OSM    HO310746   4.238   1.354   6.508
  106OSM    C4S10747   4.167   1.507   6.261
  106OSM    H4S10748   4.176   1.424   6.190
  106OSM    C5S10749   4.118   1.614   6.205
  106OSM    H5S10750   4.101   1.709   6.259
  106OSM    C6S10751   4.059   1.605   6.066
  106OSM    H6S10752   3.953   1.637   6.069
  106OSM    H6T10753   4.071   1.506   6.017
  106OSM    C7S10754   4.131   1.700   5.972
  106OSM    H7S10755   4.240   1.689   5.991
  106OSM    H7T10756   4.105   1.804   6.002
  106OSM    C8S10757   4.091   1.681   5.831
  106OSM    H8S10758   4.123   1.769   5.770
  106OSM    H8T10759   3.982   1.687   5.815
  106OSM    C9S10760   4.138   1.543   5.777
  106OSM    H9S10761   4.095   1.457   5.831
  106OSM    H9T10762   4.249   1.547   5.778
  106OSM   C10S10763   4.104   1.533   5.621
  106OSM   H10S10764   3.993   1.538   5.610
  106OSM   H10T10765   4.138   1.432   5.590
  106OSM   C11S10766   4.164   1.641   5.525
  106OSM   H11S10767   4.273   1.659   5.541
  106OSM   H11T10768   4.105   1.734   5.538
  106OSM   C12S10769   4.131   1.615   5.376
  106OSM   H12S10770   4.023   1.638   5.367
  106OSM   H12T10771   4.144   1.508   5.349
  106OSM   C13S10772   4.192   1.712   5.278
  106OSM   H13S10773   4.302   1.697   5.280
  106OSM   H13T10774   4.170   1.813   5.320
  106OSM   C14S10775   4.123   1.685   5.139
  106OSM   H14S10776   4.016   1.713   5.150
  106OSM   H14T10777   4.139   1.578   5.114
  106OSM   C15S10778   4.183   1.770   5.027
  106OSM   H15S10779   4.196   1.877   5.053
  106OSM   H15T10780   4.122   1.778   4.934
  106OSM   C16S10781   4.314   1.708   4.982
  106OSM   H16S10782   4.291   1.604   4.950
  106OSM   H16T10783   4.381   1.704   5.071
  106OSM   C17S10784   4.401   1.771   4.870
  106OSM   H17S10785   4.495   1.712   4.870
  106OSM   H17T10786   4.415   1.878   4.897
  106OSM   C18S10787   4.341   1.777   4.725
  106OSM   H18S10788   4.315   1.677   4.683
  106OSM   H18T10789   4.415   1.827   4.658
  106OSM   H18U10790   4.256   1.848   4.730
  106OSM    C1F10791   4.553   1.620   6.270
  106OSM     OF10792   4.621   1.517   6.284
  106OSM    C2F10793   4.604   1.749   6.193
  106OSM    H2F10794   4.606   1.831   6.268
  106OSM    H2G10795   4.521   1.785   6.128
  106OSM    C3F10796   4.737   1.728   6.121
  106OSM    H3F10797   4.803   1.690   6.201
  106OSM    H3G10798   4.787   1.815   6.073
  106OSM    C4F10799   4.731   1.624   6.006
  106OSM    H4F10800   4.681   1.533   6.044
  106OSM    H4G10801   4.840   1.610   5.988
  106OSM    C5F10802   4.655   1.666   5.879
  106OSM    H5F10803   4.709   1.758   5.850
  106OSM    H5G10804   4.552   1.680   5.919
  106OSM    C6F10805   4.650   1.554   5.769
  106OSM    H6F10806   4.635   1.457   5.822
  106OSM    H6G10807   4.747   1.534   5.719
  106OSM    C7F10808   4.542   1.582   5.663
  106OSM    H7F10809   4.554   1.690   5.640
  106OSM    H7G10810   4.445   1.573   5.716
  106OSM    C8F10811   4.547   1.522   5.526
  106OSM    H8F10812   4.632   1.568   5.471
  106OSM    H8G10813   4.459   1.563   5.472
  106OSM    C9F10814   4.561   1.368   5.517
  106OSM    H9F10815   4.653   1.328   5.561
  106OSM   C10F10816   4.486   1.278   5.461
  106OSM   H10F10817   4.506   1.170   5.469
  106OSM   C11F10818   4.359   1.299   5.388
  106OSM   H11F10819   4.328   1.406   5.381
  106OSM   H11G10820   4.281   1.252   5.451
  106OSM   C12F10821   4.349   1.238   5.251
  106OSM   H12F10822   4.244   1.229   5.217
  106OSM   H12G10823   4.401   1.140   5.240
  106OSM   C13F10824   4.403   1.323   5.141
  106OSM   H13F10825   4.515   1.320   5.138
  106OSM   H13G10826   4.365   1.426   5.158
  106OSM   C14F10827   4.359   1.292   5.000
  106OSM   H14F10828   4.389   1.376   4.934
  106OSM   H14G10829   4.248   1.279   5.002
  106OSM   C15F10830   4.428   1.162   4.949
  106OSM   H15F10831   4.416   1.074   5.016
  106OSM   H15G10832   4.534   1.189   4.970
  106OSM   C16F10833   4.403   1.138   4.800
  106OSM   H16F10834   4.488   1.075   4.763
  106OSM   H16G10835   4.428   1.238   4.759
  106OSM   C17F10836   4.258   1.088   4.764
  106OSM   H17F10837   4.201   1.103   4.858
  106OSM   H17G10838   4.245   0.985   4.724
  106OSM   C18F10839   4.191   1.181   4.671
  106OSM   H18F10840   4.169   1.282   4.710
  106OSM   H18G10841   4.091   1.145   4.639
  106OSM   H18H10842   4.261   1.185   4.585
  107OSM      N10843   3.851   6.685   6.830
  107OSM    C1510844   3.831   6.647   6.973
  107OSM   H15A10845   3.848   6.542   6.990
  107OSM   H15B10846   3.737   6.682   7.014
  107OSM   H15C10847   3.916   6.692   7.023
  107OSM    C1410848   3.803   6.823   6.826
  107OSM   H14A10849   3.876   0.011   6.854
  107OSM   H14B10850   3.707   6.834   6.875
  107OSM   H14C10851   3.779   6.861   6.728
  107OSM    C1310852   3.986   6.660   6.785
  107OSM   H13A10853   3.991   6.691   6.682
  107OSM   H13B10854   4.014   6.556   6.795
  107OSM   H13C10855   4.059   6.718   6.841
  107OSM    C1210856   3.757   6.597   6.747
  107OSM   H12A10857   3.654   6.623   6.768
  107OSM   H12B10858   3.756   6.492   6.773
  107OSM    C1110859   3.769   6.599   6.588
  107OSM   H11A10860   3.693   6.538   6.535
  107OSM   H11B10861   3.870   6.562   6.561
  107OSM      P10862   3.851   6.811   6.442
  107OSM    O1310863   3.800   0.063   6.459
  107OSM    O1410864   3.994   6.788   6.491
  107OSM    O1110865   3.818   6.746   6.306
  107OSM    O1210866   3.761   6.733   6.540
  107OSM    C1S10867   3.695   6.694   6.257
  107OSM    H1S10868   3.608   6.748   6.301
  107OSM    H1T10869   3.684   6.590   6.294
  107OSM     NF10870   3.552   6.643   6.061
  107OSM    HNF10871   3.550   6.561   6.004
  107OSM    C2S10872   3.683   6.696   6.105
  107OSM    H2S10873   3.679   6.802   6.075
  107OSM    C3S10874   3.808   6.626   6.039
  107OSM    H3S10875   3.843   6.535   6.092
  107OSM     O310876   3.907   6.723   6.048
  107OSM    HO310877   3.913   6.752   6.140
  107OSM    C4S10878   3.785   6.597   5.890
  107OSM    H4S10879   3.788   6.686   5.825
  107OSM    C5S10880   3.779   6.479   5.826
  107OSM    H5S10881   3.795   6.390   5.890
  107OSM    C6S10882   3.768   6.461   5.678
  107OSM    H6S10883   3.684   6.394   5.649
  107OSM    H6T10884   3.864   6.410   5.655
  107OSM    C7S10885   3.755   6.592   5.594
  107OSM    H7S10886   3.831   6.672   5.611
  107OSM    H7T10887   3.660   6.648   5.605
  107OSM    C8S10888   3.778   6.575   5.442
  107OSM    H8S10889   3.706   6.510   5.388
  107OSM    H8T10890   3.870   6.513   5.431
  107OSM    C9S10891   3.819   6.703   5.363
  107OSM    H9S10892   3.909   6.751   5.407
  107OSM    H9T10893   3.739   6.777   5.383
  107OSM   C10S10894   3.845   6.679   5.217
  107OSM   H10S10895   3.815   6.578   5.182
  107OSM   H10T10896   3.956   6.675   5.203
  107OSM   C11S10897   3.793   6.784   5.113
  107OSM   H11S10898   3.838   6.885   5.129
  107OSM   H11T10899   3.685   6.802   5.132
  107OSM   C12S10900   3.833   6.731   4.969
  107OSM   H12S10901   3.778   6.637   4.947
  107OSM   H12T10902   3.938   6.698   4.957
  107OSM   C13S10903   3.778   6.824   4.863
  107OSM   H13S10904   3.827   0.037   4.849
  107OSM   H13T10905   3.672   6.848   4.886
  107OSM   C14S10906   3.783   6.747   4.731
  107OSM   H14S10907   3.716   6.658   4.732
  107OSM   H14T10908   3.886   6.709   4.718
  107OSM   C15S10909   3.737   6.828   4.611
  107OSM   H15S10910   3.799   0.033   4.621
  107OSM   H15T10911   3.630   6.857   4.621
  107OSM   C16S10912   3.748   6.748   4.474
  107OSM   H16S10913   3.705   6.815   4.396
  107OSM   H16T10914   3.670   6.668   4.475
  107OSM   C17S10915   3.883   6.691   4.434
  107OSM   H17S10916   3.913   6.620   4.514
  107OSM   H17T10917   3.957   6.773   4.426
  107OSM   C18S10918   3.886   6.616   4.291
  107OSM   H18S10919   3.839   6.683   4.217
  107OSM   H18T10920   3.817   6.529   4.299
  107OSM   H18U10921   3.984   6.570   4.268
  107OSM    C1F10922   3.443   6.716   6.091
  107OSM     OF10923   3.447   6.830   6.133
  107OSM    C2F10924   3.319   6.638   6.062
  107OSM    H2F10925   3.260   6.642   6.156
  107OSM    H2G10926   3.351   6.533   6.043
  107OSM    C3F10927   3.240   6.696   5.943
  107OSM    H3F10928   3.208   6.798   5.971
  107OSM    H3G10929   3.152   6.628   5.936
  107OSM    C4F10930   3.319   6.699   5.807
  107OSM    H4F10931   3.367   6.600   5.787
  107OSM    H4G10932   3.406   6.766   5.817
  107OSM    C5F10933   3.232   6.751   5.690
  107OSM    H5F10934   3.219   6.859   5.713
  107OSM    H5G10935   3.134   6.699   5.698
  107OSM    C6F10936   3.299   6.726   5.546
  107OSM    H6F10937   3.337   6.622   5.542
  107OSM    H6G10938   3.393   6.782   5.525
  107OSM    C7F10939   3.204   6.734   5.426
  107OSM    H7F10940   3.174   6.838   5.400
  107OSM    H7G10941   3.115   6.677   5.461
  107OSM    C8F10942   3.264   6.682   5.301
  107OSM    H8F10943   3.184   6.679   5.223
  107OSM    H8G10944   3.288   6.577   5.327
  107OSM    C9F10945   3.383   6.771   5.249
  107OSM    H9F10946   3.431   6.831   5.328
  107OSM   C10F10947   3.415   6.793   5.123
  107OSM   H10F10948   3.493   6.868   5.103
  107OSM   C11F10949   3.343   6.733   5.007
  107OSM   H11F10950   3.283   6.645   5.038
  107OSM   H11G10951   3.414   6.697   4.930
  107OSM   C12F10952   3.242   6.831   4.938
  107OSM   H12F10953   3.302   0.029   4.897
  107OSM   H12G10954   3.187   6.881   5.021
  107OSM   C13F10955   3.138   6.778   4.845
  107OSM   H13F10956   3.041   6.746   4.891
  107OSM   H13G10957   3.178   6.686   4.797
  107OSM   C14F10958   3.088   6.882   4.744
  107OSM   H14F10959   3.182   0.034   4.699
  107OSM   H14G10960   3.033   0.082   4.787
  107OSM   C15F10961   3.026   6.823   4.606
  107OSM   H15F10962   3.088   6.742   4.564
  107OSM   H15G10963   3.011   0.020   4.533
  107OSM   C16F10964   2.883   6.755   4.626
  107OSM   H16F10965   2.821   6.835   4.672
  107OSM   H16G10966   2.907   6.678   4.702
  107OSM   C17F10967   2.812   6.691   4.507
  107OSM   H17F10968   2.767   6.780   4.458
  107OSM   H17G10969   2.736   6.621   4.548
  107OSM   C18F10970   2.909   6.620   4.409
  107OSM   H18F10971   2.957   6.538   4.467
  107OSM   H18G10972   2.992   6.685   4.373
  107OSM   H18H10973   2.866   6.583   4.314
  108OSM      N10974   6.571   5.666   6.408
  108OSM    C1510975   6.648   5.649   6.280
  108OSM   H15A10976   6.591   5.698   6.203
  108OSM   H15B10977   6.646   5.544   6.256
  108OSM   H15C10978   6.748   5.692   6.280
  108OSM    C1410979   6.638   5.589   6.514
  108OSM   H14A10980   6.733   5.629   6.547
  108OSM   H14B10981   6.669   5.491   6.479
  108OSM   H14C10982   6.572   5.578   6.598
  108OSM    C1310983   6.566   5.816   6.444
  108OSM   H13A10984   6.658   5.860   6.479
  108OSM   H13B10985   6.485   5.836   6.514
  108OSM   H13C10986   6.544   5.865   6.350
  108OSM    C1210987   6.428   5.610   6.393
  108OSM   H12A10988   6.435   5.504   6.371
  108OSM   H12B10989   6.379   5.648   6.305
  108OSM    C1110990   6.317   5.629   6.497
  108OSM   H11A10991   6.353   5.587   6.593
  108OSM   H11B10992   6.226   5.580   6.456
  108OSM      P10993   6.227   5.865   6.423
  108OSM    O1310994   6.089   5.895   6.474
  108OSM    O1410995   6.306   5.984   6.386
  108OSM    O1110996   6.212   5.776   6.296
  108OSM    O1210997   6.303   5.770   6.516
  108OSM    C1S10998   6.181   5.836   6.173
  108OSM    H1S10999   6.258   5.913   6.153
  108OSM    H1T11000   6.080   5.881   6.173
  108OSM     NF11001   6.143   5.810   5.943
  108OSM    HNF11002   6.058   5.779   5.902
  108OSM    C2S11003   6.177   5.733   6.062
  108OSM    H2S11004   6.280   5.698   6.043
  108OSM    C3S11005   6.089   5.608   6.100
  108OSM    H3S11006   5.986   5.649   6.094
  108OSM     O311007   6.098   5.551   6.229
  108OSM    HO311008   6.124   5.631   6.277
  108OSM    C4S11009   6.096   5.506   5.993
  108OSM    H4S11010   6.034   5.525   5.905
  108OSM    C5S11011   6.185   5.404   5.984
  108OSM    H5S11012   6.262   5.412   6.063
  108OSM    C6S11013   6.212   5.312   5.865
  108OSM    H6S11014   6.181   5.208   5.886
  108OSM    H6T11015   6.319   5.314   5.836
  108OSM    C7S11016   6.148   5.357   5.732
  108OSM    H7S11017   6.170   5.464   5.715
  108OSM    H7T11018   6.039   5.346   5.750
  108OSM    C8S11019   6.192   5.280   5.610
  108OSM    H8S11020   6.148   5.178   5.617
  108OSM    H8T11021   6.302   5.261   5.612
  108OSM    C9S11022   6.136   5.328   5.477
  108OSM    H9S11023   6.171   5.433   5.464
  108OSM    H9T11024   6.026   5.315   5.471
  108OSM   C10S11025   6.194   5.252   5.356
  108OSM   H10S11026   6.165   5.145   5.350
  108OSM   H10T11027   6.304   5.240   5.363
  108OSM   C11S11028   6.172   5.317   5.216
  108OSM   H11S11029   6.217   5.418   5.219
  108OSM   H11T11030   6.066   5.328   5.186
  108OSM   C12S11031   6.236   5.247   5.093
  108OSM   H12S11032   6.184   5.151   5.070
  108OSM   H12T11033   6.341   5.219   5.112
  108OSM   C13S11034   6.245   5.342   4.968
  108OSM   H13S11035   6.310   5.423   5.007
  108OSM   H13T11036   6.142   5.379   4.947
  108OSM   C14S11037   6.304   5.270   4.851
  108OSM   H14S11038   6.234   5.193   4.813
  108OSM   H14T11039   6.394   5.224   4.897
  108OSM   C15S11040   6.327   5.373   4.734
  108OSM   H15S11041   6.399   5.441   4.783
  108OSM   H15T11042   6.231   5.420   4.703
  108OSM   C16S11043   6.393   5.313   4.606
  108OSM   H16S11044   6.320   5.253   4.548
  108OSM   H16T11045   6.484   5.252   4.625
  108OSM   C17S11046   6.430   5.425   4.507
  108OSM   H17S11047   6.503   5.494   4.555
  108OSM   H17T11048   6.336   5.477   4.480
  108OSM   C18S11049   6.476   5.378   4.368
  108OSM   H18S11050   6.582   5.345   4.362
  108OSM   H18T11051   6.469   5.465   4.298
  108OSM   H18U11052   6.409   5.302   4.323
  108OSM    C1F11053   6.237   5.884   5.886
  108OSM     OF11054   6.358   5.881   5.915
  108OSM    C2F11055   6.187   5.973   5.781
  108OSM    H2F11056   6.106   6.037   5.823
  108OSM    H2G11057   6.147   5.912   5.698
  108OSM    C3F11058   6.300   6.064   5.734
  108OSM    H3F11059   6.389   6.009   5.696
  108OSM    H3G11060   6.334   6.134   5.813
  108OSM    C4F11061   6.245   6.155   5.624
  108OSM    H4F11062   6.331   6.223   5.607
  108OSM    H4G11063   6.160   6.213   5.666
  108OSM    C5F11064   6.209   6.081   5.500
  108OSM    H5F11065   6.130   6.006   5.518
  108OSM    H5G11066   6.297   6.024   5.462
  108OSM    C6F11067   6.173   6.177   5.395
  108OSM    H6F11068   6.265   6.228   5.362
  108OSM    H6G11069   6.109   6.260   5.434
  108OSM    C7F11070   6.094   6.099   5.283
  108OSM    H7F11071   6.012   6.034   5.321
  108OSM    H7G11072   6.156   6.034   5.218
  108OSM    C8F11073   6.038   6.205   5.185
  108OSM    H8F11074   6.130   6.251   5.143
  108OSM    H8G11075   5.983   6.289   5.231
  108OSM    C9F11076   5.958   6.155   5.063
  108OSM    H9F11077   5.862   6.112   5.094
  108OSM   C10F11078   6.000   6.151   4.938
  108OSM   H10F11079   5.942   6.127   4.847
  108OSM   C11F11080   6.146   6.182   4.897
  108OSM   H11F11081   6.175   6.118   4.811
  108OSM   H11G11082   6.215   6.161   4.981
  108OSM   C12F11083   6.178   6.324   4.848
  108OSM   H12F11084   6.286   6.324   4.820
  108OSM   H12G11085   6.162   6.377   4.944
  108OSM   C13F11086   6.097   6.379   4.734
  108OSM   H13F11087   5.988   6.368   4.756
  108OSM   H13G11088   6.130   6.314   4.650
  108OSM   C14F11089   6.126   6.526   4.709
  108OSM   H14F11090   6.112   6.567   4.811
  108OSM   H14G11091   6.057   6.570   4.633
  108OSM   C15F11092   6.263   6.553   4.642
  108OSM   H15F11093   6.276   6.495   4.547
  108OSM   H15G11094   6.346   6.541   4.715
  108OSM   C16F11095   6.281   6.691   4.583
  108OSM   H16F11096   6.389   6.716   4.594
  108OSM   H16G11097   6.231   6.756   4.658
  108OSM   C17F11098   6.224   6.724   4.445
  108OSM   H17F11099   6.117   6.697   4.435
  108OSM   H17G11100   6.283   6.662   4.374
  108OSM   C18F11101   6.220   6.875   4.417
  108OSM   H18F11102   6.198   0.021   4.313
  108OSM   H18G11103   6.318   0.029   4.447
  108OSM   H18H11104   6.141   0.022   4.487
  109OSM      N11105   3.048   2.334   6.759
  109OSM    C1511106   3.050   2.213   6.855
  109OSM   H15A11107   3.123   2.136   6.839
  109OSM   H15B11108   2.957   2.159   6.858
  109OSM   H15C11109   3.073   2.253   6.953
  109OSM    C1411110   3.191   2.382   6.733
  109OSM   H14A11111   3.242   2.305   6.677
  109OSM   H14B11112   3.243   2.385   6.828
  109OSM   H14C11113   3.194   2.479   6.685
  109OSM    C1311114   2.982   2.291   6.632
  109OSM   H13A11115   2.985   2.372   6.561
  109OSM   H13B11116   2.878   2.268   6.648
  109OSM   H13C11117   3.028   2.197   6.604
  109OSM    C1211118   2.970   2.447   6.817
  109OSM   H12A11119   2.980   2.528   6.746
  109OSM   H12B11120   3.015   2.495   6.902
  109OSM    C1111121   2.818   2.419   6.871
  109OSM   H11A11122   2.778   2.502   6.934
  109OSM   H11B11123   2.819   2.343   6.952
  109OSM      P11124   2.655   2.481   6.670
  109OSM    O1311125   2.512   2.465   6.675
  109OSM    O1411126   2.709   2.619   6.689
  109OSM    O1111127   2.690   2.446   6.525
  109OSM    O1211128   2.726   2.376   6.765
  109OSM    C1S11129   2.673   2.312   6.467
  109OSM    H1S11130   2.575   2.273   6.502
  109OSM    H1T11131   2.749   2.237   6.497
  109OSM     NF11132   2.627   2.193   6.250
  109OSM    HNF11133   2.691   2.127   6.213
  109OSM    C2S11134   2.675   2.319   6.307
  109OSM    H2S11135   2.602   2.401   6.287
  109OSM    C3S11136   2.819   2.380   6.265
  109OSM    H3S11137   2.896   2.305   6.292
  109OSM     O311138   2.864   2.503   6.324
  109OSM    HO311139   2.788   2.520   6.380
  109OSM    C4S11140   2.821   2.399   6.118
  109OSM    H4S11141   2.731   2.455   6.091
  109OSM    C5S11142   2.917   2.338   6.037
  109OSM    H5S11143   2.996   2.278   6.085
  109OSM    C6S11144   2.940   2.358   5.885
  109OSM    H6S11145   2.963   2.257   5.845
  109OSM    H6T11146   3.039   2.406   5.873
  109OSM    C7S11147   2.826   2.435   5.809
  109OSM    H7S11148   2.820   2.537   5.851
  109OSM    H7T11149   2.730   2.381   5.824
  109OSM    C8S11150   2.875   2.458   5.662
  109OSM    H8S11151   2.928   2.364   5.638
  109OSM    H8T11152   2.953   2.537   5.650
  109OSM    C9S11153   2.758   2.477   5.562
  109OSM    H9S11154   2.722   2.581   5.579
  109OSM    H9T11155   2.675   2.411   5.596
  109OSM   C10S11156   2.804   2.443   5.411
  109OSM   H10S11157   2.811   2.333   5.403
  109OSM   H10T11158   2.903   2.487   5.388
  109OSM   C11S11159   2.719   2.485   5.289
  109OSM   H11S11160   2.702   2.594   5.303
  109OSM   H11T11161   2.623   2.430   5.287
  109OSM   C12S11162   2.796   2.451   5.166
  109OSM   H12S11163   2.780   2.341   5.156
  109OSM   H12T11164   2.903   2.479   5.175
  109OSM   C13S11165   2.742   2.531   5.050
  109OSM   H13S11166   2.759   2.635   5.083
  109OSM   H13T11167   2.634   2.511   5.036
  109OSM   C14S11168   2.826   2.503   4.927
  109OSM   H14S11169   2.839   2.394   4.911
  109OSM   H14T11170   2.926   2.549   4.942
  109OSM   C15S11171   2.767   2.557   4.806
  109OSM   H15S11172   2.668   2.518   4.774
  109OSM   H15T11173   2.830   2.530   4.718
  109OSM   C16S11174   2.744   2.712   4.795
  109OSM   H16S11175   2.840   2.767   4.812
  109OSM   H16T11176   2.684   2.738   4.885
  109OSM   C17S11177   2.664   2.760   4.675
  109OSM   H17S11178   2.614   2.856   4.700
  109OSM   H17T11179   2.582   2.689   4.653
  109OSM   C18S11180   2.760   2.772   4.551
  109OSM   H18S11181   2.849   2.832   4.579
  109OSM   H18T11182   2.702   2.826   4.472
  109OSM   H18U11183   2.800   2.674   4.519
  109OSM    C1F11184   2.501   2.144   6.257
  109OSM     OF11185   2.414   2.203   6.319
  109OSM    C2F11186   2.480   2.006   6.199
  109OSM    H2F11187   2.454   1.941   6.284
  109OSM    H2G11188   2.576   1.977   6.151
  109OSM    C3F11189   2.371   2.012   6.094
  109OSM    H3F11190   2.277   2.049   6.139
  109OSM    H3G11191   2.352   1.914   6.044
  109OSM    C4F11192   2.387   2.104   5.973
  109OSM    H4F11193   2.346   2.205   5.996
  109OSM    H4G11194   2.313   2.060   5.903
  109OSM    C5F11195   2.524   2.099   5.905
  109OSM    H5F11196   2.541   1.989   5.903
  109OSM    H5G11197   2.609   2.157   5.949
  109OSM    C6F11198   2.523   2.155   5.761
  109OSM    H6F11199   2.628   2.172   5.727
  109OSM    H6G11200   2.478   2.256   5.770
  109OSM    C7F11201   2.432   2.077   5.663
  109OSM    H7F11202   2.335   2.053   5.710
  109OSM    H7G11203   2.488   1.984   5.639
  109OSM    C8F11204   2.421   2.140   5.525
  109OSM    H8F11205   2.527   2.153   5.493
  109OSM    H8G11206   2.377   2.242   5.535
  109OSM    C9F11207   2.339   2.053   5.423
  109OSM    H9F11208   2.305   1.953   5.453
  109OSM   C10F11209   2.313   2.102   5.297
  109OSM   H10F11210   2.273   2.028   5.227
  109OSM   C11F11211   2.358   2.237   5.241
  109OSM   H11F11212   2.385   2.310   5.321
  109OSM   H11G11213   2.279   2.280   5.175
  109OSM   C12F11214   2.483   2.218   5.148
  109OSM   H12F11215   2.561   2.165   5.207
  109OSM   H12G11216   2.532   2.313   5.118
  109OSM   C13F11217   2.458   2.125   5.023
  109OSM   H13F11218   2.440   2.025   5.067
  109OSM   H13G11219   2.548   2.113   4.959
  109OSM   C14F11220   2.326   2.161   4.943
  109OSM   H14F11221   2.239   2.177   5.010
  109OSM   H14G11222   2.306   2.069   4.884
  109OSM   C15F11223   2.347   2.284   4.854
  109OSM   H15F11224   2.436   2.259   4.792
  109OSM   H15G11225   2.379   2.370   4.915
  109OSM   C16F11226   2.221   2.322   4.779
  109OSM   H16F11227   2.149   2.362   4.854
  109OSM   H16G11228   2.190   2.225   4.733
  109OSM   C17F11229   2.244   2.422   4.658
  109OSM   H17F11230   2.295   2.354   4.586
  109OSM   H17G11231   2.324   2.494   4.684
  109OSM   C18F11232   2.121   2.488   4.606
  109OSM   H18F11233   2.067   2.551   4.681
  109OSM   H18G11234   2.046   2.407   4.590
  109OSM   H18H11235   2.130   2.538   4.508
  110OSM      N11236   5.212   6.620   6.770
  110OSM    C1511237   5.290   6.700   6.880
  110OSM   H15A11238   5.270   6.806   6.888
  110OSM   H15B11239   5.396   6.679   6.876
  110OSM   H15C11240   5.252   6.672   6.977
  110OSM    C1411241   5.076   6.689   6.749
  110OSM   H14A11242   5.081   6.787   6.703
  110OSM   H14B11243   5.027   6.688   6.845
  110OSM   H14C11244   5.011   6.625   6.692
  110OSM    C1311245   5.282   6.644   6.637
  110OSM   H13A11246   5.241   6.576   6.564
  110OSM   H13B11247   5.389   6.634   6.651
  110OSM   H13C11248   5.267   6.747   6.608
  110OSM    C1211249   5.206   6.474   6.801
  110OSM   H12A11250   5.131   6.422   6.744
  110OSM   H12B11251   5.169   6.457   6.902
  110OSM    C1111252   5.345   6.398   6.777
  110OSM   H11A11253   5.337   6.303   6.834
  110OSM   H11B11254   5.430   6.462   6.810
  110OSM      P11255   5.309   6.297   6.535
  110OSM    O1311256   5.390   6.181   6.486
  110OSM    O1411257   5.171   6.269   6.576
  110OSM    O1111258   5.310   6.401   6.416
  110OSM    O1211259   5.384   6.364   6.650
  110OSM    C1S11260   5.431   6.462   6.369
  110OSM    H1S11261   5.520   6.409   6.409
  110OSM    H1T11262   5.422   6.571   6.389
  110OSM     NF11263   5.546   6.550   6.169
  110OSM    HNF11264   5.511   6.633   6.127
  110OSM    C2S11265   5.450   6.454   6.218
  110OSM    H2S11266   5.499   6.357   6.195
  110OSM    C3S11267   5.311   6.457   6.142
  110OSM    H3S11268   5.261   6.551   6.174
  110OSM     O311269   5.223   6.344   6.179
  110OSM    HO311270   5.274   6.314   6.254
  110OSM    C4S11271   5.318   6.442   6.000
  110OSM    H4S11272   5.377   6.362   5.954
  110OSM    C5S11273   5.276   6.529   5.913
  110OSM    H5S11274   5.229   6.624   5.942
  110OSM    C6S11275   5.305   6.528   5.765
  110OSM    H6S11276   5.347   6.431   5.730
  110OSM    H6T11277   5.375   6.606   5.727
  110OSM    C7S11278   5.170   6.529   5.689
  110OSM    H7S11279   5.121   6.627   5.707
  110OSM    H7T11280   5.103   6.454   5.738
  110OSM    C8S11281   5.182   6.511   5.540
  110OSM    H8S11282   5.092   6.457   5.504
  110OSM    H8T11283   5.263   6.438   5.519
  110OSM    C9S11284   5.200   6.645   5.462
  110OSM    H9S11285   5.289   6.697   5.502
  110OSM    H9T11286   5.113   6.711   5.480
  110OSM   C10S11287   5.208   6.624   5.313
  110OSM   H10S11288   5.127   6.557   5.279
  110OSM   H10T11289   5.302   6.566   5.305
  110OSM   C11S11290   5.233   6.752   5.235
  110OSM   H11S11291   5.270   6.731   5.133
  110OSM   H11T11292   5.307   6.815   5.290
  110OSM   C12S11293   5.094   6.819   5.226
  110OSM   H12S11294   5.066   6.860   5.326
  110OSM   H12T11295   5.024   6.739   5.196
  110OSM   C13S11296   5.087   0.059   5.139
  110OSM   H13S11297   5.112   0.038   5.033
  110OSM   H13T11298   5.164   0.127   5.183
  110OSM   C14S11299   4.945   0.119   5.147
  110OSM   H14S11300   4.956   0.228   5.126
  110OSM   H14T11301   4.916   0.130   5.253
  110OSM   C15S11302   4.840   0.055   5.064
  110OSM   H15S11303   4.823   6.844   5.115
  110OSM   H15T11304   4.880   0.029   4.964
  110OSM   C16S11305   4.721   0.146   5.045
  110OSM   H16S11306   4.685   0.180   5.144
  110OSM   H16T11307   4.634   0.081   5.019
  110OSM   C17S11308   4.745   0.258   4.939
  110OSM   H17S11309   4.771   0.199   4.848
  110OSM   H17T11310   4.825   0.325   4.975
  110OSM   C18S11311   4.619   0.346   4.902
  110OSM   H18S11312   4.551   0.356   4.989
  110OSM   H18T11313   4.557   0.303   4.820
  110OSM   H18U11314   4.639   0.450   4.868
  110OSM    C1F11315   5.675   6.546   6.198
  110OSM     OF11316   5.724   6.470   6.277
  110OSM    C2F11317   5.760   6.639   6.119
  110OSM    H2F11318   5.821   6.573   6.055
  110OSM    H2G11319   5.814   6.707   6.188
  110OSM    C3F11320   5.683   6.722   6.004
  110OSM    H3F11321   5.604   6.783   6.052
  110OSM    H3G11322   5.625   6.653   5.940
  110OSM    C4F11323   5.776   6.821   5.928
  110OSM    H4F11324   5.813   6.765   5.839
  110OSM    H4G11325   5.857   6.862   5.991
  110OSM    C5F11326   5.696   0.061   5.890
  110OSM    H5F11327   5.769   0.137   5.852
  110OSM    H5G11328   5.648   0.095   5.984
  110OSM    C6F11329   5.581   0.039   5.795
  110OSM    H6F11330   5.501   0.116   5.794
  110OSM    H6G11331   5.544   6.824   5.822
  110OSM    C7F11332   5.630   0.031   5.652
  110OSM    H7F11333   5.707   6.837   5.643
  110OSM    H7G11334   5.681   0.126   5.628
  110OSM    C8F11335   5.521   6.876   5.542
  110OSM    H8F11336   5.434   0.058   5.550
  110OSM    H8G11337   5.492   6.773   5.570
  110OSM    C9F11338   5.597   6.878   5.410
  110OSM    H9F11339   5.674   6.800   5.399
  110OSM   C10F11340   5.589   0.088   5.321
  110OSM   H10F11341   5.653   0.079   5.231
  110OSM   C11F11342   5.505   0.217   5.329
  110OSM   H11F11343   5.581   0.290   5.366
  110OSM   H11G11344   5.421   0.202   5.401
  110OSM   C12F11345   5.445   0.264   5.192
  110OSM   H12F11346   5.398   0.362   5.219
  110OSM   H12G11347   5.385   0.180   5.153
  110OSM   C13F11348   5.548   0.299   5.080
  110OSM   H13F11349   5.618   0.215   5.057
  110OSM   H13G11350   5.622   0.368   5.127
  110OSM   C14F11351   5.500   0.362   4.947
  110OSM   H14F11352   5.594   0.365   4.888
  110OSM   H14G11353   5.462   0.466   4.948
  110OSM   C15F11354   5.399   0.274   4.880
  110OSM   H15F11355   5.300   0.295   4.925
  110OSM   H15G11356   5.424   0.165   4.881
  110OSM   C16F11357   5.383   0.311   4.730
  110OSM   H16F11358   5.381   0.422   4.731
  110OSM   H16G11359   5.293   0.261   4.689
  110OSM   C17F11360   5.493   0.255   4.641
  110OSM   H17F11361   5.493   0.144   4.629
  110OSM   H17G11362   5.591   0.274   4.690
  110OSM   C18F11363   5.497   0.318   4.501
  110OSM   H18F11364   5.594   0.312   4.448
  110OSM   H18G11365   5.492   0.428   4.506
  110OSM   H18H11366   5.415   0.281   4.434
  111OSM      N11367   1.114   3.594   6.237
  111OSM    C1511368   1.237   3.655   6.296
  111OSM   H15A11369   1.302   3.686   6.216
  111OSM   H15B11370   1.280   3.587   6.369
  111OSM   H15C11371   1.212   3.742   6.355
  111OSM    C1411372   1.056   3.691   6.130
  111OSM   H14A11373   1.129   3.722   6.057
  111OSM   H14B11374   1.007   3.777   6.173
  111OSM   H14C11375   0.982   3.636   6.074
  111OSM    C1311376   1.156   3.464   6.176
  111OSM   H13A11377   1.225   3.418   6.246
  111OSM   H13B11378   1.198   3.479   6.078
  111OSM   H13C11379   1.072   3.398   6.157
  111OSM    C1211380   1.006   3.556   6.346
  111OSM   H12A11381   1.050   3.494   6.423
  111OSM   H12B11382   0.933   3.487   6.307
  111OSM    C1111383   0.944   3.676   6.425
  111OSM   H11A11384   1.033   3.736   6.456
  111OSM   H11B11385   0.904   3.636   6.520
  111OSM      P11386   0.725   3.677   6.283
  111OSM    O1311387   0.763   3.556   6.208
  111OSM    O1411388   0.630   3.648   6.394
  111OSM    O1111389   0.657   3.785   6.187
  111OSM    O1211390   0.846   3.746   6.350
  111OSM    C1S11391   0.742   3.886   6.127
  111OSM    H1S11392   0.835   3.840   6.089
  111OSM    H1T11393   0.771   3.963   6.202
  111OSM     NF11394   0.764   4.060   5.952
  111OSM    HNF11395   0.776   4.150   5.992
  111OSM    C2S11396   0.665   3.969   6.019
  111OSM    H2S11397   0.639   3.898   5.939
  111OSM    C3S11398   0.541   4.030   6.080
  111OSM    H3S11399   0.572   4.091   6.168
  111OSM     O311400   0.452   3.938   6.134
  111OSM    HO311401   0.494   3.852   6.129
  111OSM    C4S11402   0.471   4.119   5.980
  111OSM    H4S11403   0.496   4.226   5.985
  111OSM    C5S11404   0.386   4.085   5.880
  111OSM    H5S11405   0.364   3.978   5.869
  111OSM    C6S11406   0.336   4.177   5.766
  111OSM    H6S11407   0.225   4.169   5.767
  111OSM    H6T11408   0.364   4.129   5.670
  111OSM    C7S11409   0.372   4.324   5.783
  111OSM    H7S11410   0.482   4.334   5.767
  111OSM    H7T11411   0.356   4.353   5.889
  111OSM    C8S11412   0.307   4.436   5.700
  111OSM    H8S11413   0.352   4.536   5.715
  111OSM    H8T11414   0.198   4.437   5.723
  111OSM    C9S11415   0.309   4.422   5.545
  111OSM    H9S11416   0.245   4.494   5.490
  111OSM    H9T11417   0.265   4.324   5.520
  111OSM   C10S11418   0.451   4.448   5.491
  111OSM   H10S11419   0.524   4.376   5.532
  111OSM   H10T11420   0.486   4.545   5.533
  111OSM   C11S11421   0.456   4.446   5.337
  111OSM   H11S11422   0.558   4.482   5.314
  111OSM   H11T11423   0.374   4.506   5.291
  111OSM   C12S11424   0.450   4.300   5.285
  111OSM   H12S11425   0.365   4.245   5.330
  111OSM   H12T11426   0.536   4.253   5.338
  111OSM   C13S11427   0.457   4.280   5.133
  111OSM   H13S11428   0.517   4.187   5.129
  111OSM   H13T11429   0.525   4.356   5.088
  111OSM   C14S11430   0.325   4.261   5.065
  111OSM   H14S11431   0.267   4.352   5.091
  111OSM   H14T11432   0.272   4.169   5.096
  111OSM   C15S11433   0.334   4.252   4.912
  111OSM   H15S11434   0.404   4.172   4.880
  111OSM   H15T11435   0.370   4.356   4.896
  111OSM   C16S11436   0.200   4.217   4.850
  111OSM   H16S11437   0.125   4.295   4.877
  111OSM   H16T11438   0.155   4.121   4.883
  111OSM   C17S11439   0.194   4.219   4.698
  111OSM   H17S11440   0.278   4.151   4.670
  111OSM   H17T11441   0.219   4.320   4.661
  111OSM   C18S11442   0.050   4.186   4.648
  111OSM   H18S11443   6.860   4.250   4.698
  111OSM   H18T11444   0.033   4.077   4.661
  111OSM   H18U11445   0.042   4.204   4.539
  111OSM    C1F11446   0.870   4.009   5.882
  111OSM     OF11447   0.852   3.904   5.822
  111OSM    C2F11448   1.004   4.083   5.889
  111OSM    H2F11449   1.079   4.013   5.846
  111OSM    H2G11450   1.035   4.104   5.993
  111OSM    C3F11451   1.004   4.210   5.798
  111OSM    H3F11452   1.113   4.234   5.793
  111OSM    H3G11453   0.952   4.288   5.857
  111OSM    C4F11454   0.932   4.195   5.662
  111OSM    H4F11455   0.824   4.199   5.690
  111OSM    H4G11456   0.939   4.096   5.611
  111OSM    C5F11457   0.965   4.299   5.558
  111OSM    H5F11458   1.073   4.289   5.537
  111OSM    H5G11459   0.957   4.400   5.603
  111OSM    C6F11460   0.880   4.288   5.426
  111OSM    H6F11461   0.774   4.287   5.458
  111OSM    H6G11462   0.900   4.184   5.392
  111OSM    C7F11463   0.910   4.385   5.305
  111OSM    H7F11464   1.016   4.379   5.274
  111OSM    H7G11465   0.888   4.487   5.344
  111OSM    C8F11466   0.825   4.352   5.185
  111OSM    H8F11467   0.720   4.323   5.207
  111OSM    H8G11468   0.872   4.261   5.142
  111OSM    C9F11469   0.827   4.466   5.087
  111OSM    H9F11470   0.838   4.570   5.118
  111OSM   C10F11471   0.823   4.446   4.948
  111OSM   H10F11472   0.821   4.532   4.879
  111OSM   C11F11473   0.816   4.317   4.875
  111OSM   H11F11474   0.729   4.250   4.891
  111OSM   H11G11475   0.894   4.248   4.915
  111OSM   C12F11476   0.823   4.327   4.724
  111OSM   H12F11477   0.748   4.404   4.696
  111OSM   H12G11478   0.788   4.234   4.673
  111OSM   C13F11479   0.946   4.382   4.663
  111OSM   H13F11480   1.029   4.308   4.673
  111OSM   H13G11481   0.984   4.469   4.720
  111OSM   C14F11482   0.927   4.412   4.512
  111OSM   H14F11483   0.845   4.487   4.517
  111OSM   H14G11484   0.876   4.324   4.468
  111OSM   C15F11485   1.046   4.469   4.440
  111OSM   H15F11486   1.134   4.402   4.446
  111OSM   H15G11487   1.084   4.567   4.477
  111OSM   C16F11488   1.000   4.494   4.297
  111OSM   H16F11489   0.926   4.576   4.312
  111OSM   H16G11490   0.948   4.407   4.251
  111OSM   C17F11491   1.105   4.549   4.199
  111OSM   H17F11492   1.179   4.467   4.187
  111OSM   H17G11493   1.148   4.641   4.245
  111OSM   C18F11494   1.035   4.588   4.065
  111OSM   H18F11495   1.104   4.621   3.984
  111OSM   H18G11496   0.961   4.669   4.084
  111OSM   H18H11497   0.976   4.500   4.032
  112OSM      N11498   3.571   1.234   7.253
  112OSM    C1511499   3.457   1.220   7.355
  112OSM   H15A11500   3.477   1.140   7.424
  112OSM   H15B11501   3.356   1.226   7.318
  112OSM   H15C11502   3.463   1.299   7.428
  112OSM    C1411503   3.704   1.204   7.308
  112OSM   H14A11504   3.776   1.227   7.231
  112OSM   H14B11505   3.709   1.100   7.335
  112OSM   H14C11506   3.726   1.270   7.391
  112OSM    C1311507   3.553   1.125   7.155
  112OSM   H13A11508   3.651   1.107   7.112
  112OSM   H13B11509   3.485   1.135   7.073
  112OSM   H13C11510   3.521   1.032   7.201
  112OSM    C1211511   3.583   1.369   7.188
  112OSM   H12A11512   3.574   1.446   7.263
  112OSM   H12B11513   3.509   1.383   7.111
  112OSM    C1111514   3.716   1.408   7.110
  112OSM   H11A11515   3.785   1.447   7.188
  112OSM   H11B11516   3.697   1.488   7.036
  112OSM      P11517   3.768   1.244   6.905
  112OSM    O1311518   3.770   1.096   6.900
  112OSM    O1411519   3.650   1.314   6.849
  112OSM    O1111520   3.900   1.297   6.829
  112OSM    O1211521   3.784   1.289   7.057
  112OSM    C1S11522   3.912   1.274   6.688
  112OSM    H1S11523   3.878   1.173   6.658
  112OSM    H1T11524   4.021   1.277   6.665
  112OSM     NF11525   3.881   1.374   6.460
  112OSM    HNF11526   3.972   1.401   6.430
  112OSM    C2S11527   3.864   1.398   6.601
  112OSM    H2S11528   3.753   1.397   6.611
  112OSM    C3S11529   3.915   1.533   6.648
  112OSM    H3S11530   4.026   1.538   6.641
  112OSM     O311531   3.886   1.559   6.784
  112OSM    HO311532   3.906   1.473   6.823
  112OSM    C4S11533   3.848   1.647   6.562
  112OSM    H4S11534   3.744   1.621   6.538
  112OSM    C5S11535   3.907   1.759   6.511
  112OSM    H5S11536   4.013   1.775   6.536
  112OSM    C6S11537   3.833   1.862   6.433
  112OSM    H6S11538   3.868   1.961   6.471
  112OSM    H6T11539   3.722   1.860   6.440
  112OSM    C7S11540   3.868   1.855   6.286
  112OSM    H7S11541   3.851   1.757   6.238
  112OSM    H7T11542   3.973   1.891   6.282
  112OSM    C8S11543   3.791   1.953   6.195
  112OSM    H8S11544   3.809   2.061   6.215
  112OSM    H8T11545   3.682   1.943   6.210
  112OSM    C9S11546   3.818   1.925   6.044
  112OSM    H9S11547   3.793   1.819   6.025
  112OSM    H9T11548   3.929   1.930   6.033
  112OSM   C10S11549   3.745   2.020   5.946
  112OSM   H10S11550   3.776   2.123   5.973
  112OSM   H10T11551   3.636   2.009   5.961
  112OSM   C11S11552   3.799   1.992   5.805
  112OSM   H11S11553   3.727   2.035   5.733
  112OSM   H11T11554   3.798   1.883   5.783
  112OSM   C12S11555   3.943   2.040   5.780
  112OSM   H12S11556   4.013   1.993   5.852
  112OSM   H12T11557   3.942   2.148   5.806
  112OSM   C13S11558   3.998   2.023   5.642
  112OSM   H13S11559   3.983   1.916   5.615
  112OSM   H13T11560   4.106   2.048   5.639
  112OSM   C14S11561   3.925   2.108   5.533
  112OSM   H14S11562   3.937   2.217   5.551
  112OSM   H14T11563   3.819   2.077   5.524
  112OSM   C15S11564   3.990   2.073   5.400
  112OSM   H15S11565   3.965   1.965   5.398
  112OSM   H15T11566   4.097   2.087   5.426
  112OSM   C16S11567   3.924   2.150   5.289
  112OSM   H16S11568   3.963   2.253   5.297
  112OSM   H16T11569   3.813   2.151   5.294
  112OSM   C17S11570   3.977   2.105   5.143
  112OSM   H17S11571   3.958   1.997   5.124
  112OSM   H17T11572   4.085   2.133   5.139
  112OSM   C18S11573   3.910   2.198   5.040
  112OSM   H18S11574   3.946   2.173   4.938
  112OSM   H18T11575   3.945   2.301   5.064
  112OSM   H18U11576   3.800   2.196   5.057
  112OSM    C1F11577   3.814   1.277   6.393
  112OSM     OF11578   3.710   1.232   6.445
  112OSM    C2F11579   3.879   1.229   6.263
  112OSM    H2F11580   3.904   1.121   6.269
  112OSM    H2G11581   3.954   1.302   6.225
  112OSM    C3F11582   3.782   1.220   6.140
  112OSM    H3F11583   3.715   1.309   6.142
  112OSM    H3G11584   3.720   1.127   6.140
  112OSM    C4F11585   3.859   1.224   6.010
  112OSM    H4F11586   3.923   1.133   6.014
  112OSM    H4G11587   3.918   1.317   5.994
  112OSM    C5F11588   3.773   1.187   5.880
  112OSM    H5F11589   3.686   1.255   5.870
  112OSM    H5G11590   3.718   1.093   5.901
  112OSM    C6F11591   3.854   1.170   5.745
  112OSM    H6F11592   3.893   1.067   5.759
  112OSM    H6G11593   3.937   1.243   5.739
  112OSM    C7F11594   3.766   1.176   5.616
  112OSM    H7F11595   3.756   1.284   5.591
  112OSM    H7G11596   3.668   1.137   5.650
  112OSM    C8F11597   3.816   1.093   5.502
  112OSM    H8F11598   3.740   1.091   5.421
  112OSM    H8G11599   3.828   0.986   5.532
  112OSM    C9F11600   3.946   1.157   5.449
  112OSM    H9F11601   4.029   1.150   5.521
  112OSM   C10F11602   3.970   1.207   5.332
  112OSM   H10F11603   4.066   1.258   5.314
  112OSM   C11F11604   3.877   1.229   5.220
  112OSM   H11F11605   3.805   1.312   5.239
  112OSM   H11G11606   3.801   1.149   5.202
  112OSM   C12F11607   3.951   1.262   5.088
  112OSM   H12F11608   4.023   1.184   5.053
  112OSM   H12G11609   3.998   1.363   5.091
  112OSM   C13F11610   3.850   1.274   4.972
  112OSM   H13F11611   3.757   1.320   5.013
  112OSM   H13G11612   3.816   1.173   4.940
  112OSM   C14F11613   3.894   1.347   4.850
  112OSM   H14F11614   3.819   1.338   4.768
  112OSM   H14G11615   3.983   1.291   4.811
  112OSM   C15F11616   3.940   1.495   4.870
  112OSM   H15F11617   4.049   1.499   4.893
  112OSM   H15G11618   3.881   1.540   4.952
  112OSM   C16F11619   3.926   1.574   4.740
  112OSM   H16F11620   3.947   1.670   4.791
  112OSM   H16G11621   3.818   1.579   4.715
  112OSM   C17F11622   4.017   1.528   4.629
  112OSM   H17F11623   3.995   1.423   4.600
  112OSM   H17G11624   4.126   1.530   4.649
  112OSM   C18F11625   3.999   1.598   4.495
  112OSM   H18F11626   3.952   1.699   4.503
  112OSM   H18G11627   3.930   1.540   4.430
  112OSM   H18H11628   4.094   1.617   4.441
  113OSM      N11629   0.630   2.100   6.933
  113OSM    C1511630   0.620   2.244   6.924
  113OSM   H15A11631   0.621   2.286   7.024
  113OSM   H15B11632   0.521   2.268   6.889
  113OSM   H15C11633   0.704   2.283   6.869
  113OSM    C1411634   0.738   2.054   7.031
  113OSM   H14A11635   0.837   2.056   6.988
  113OSM   H14B11636   0.729   1.953   7.069
  113OSM   H14C11637   0.748   2.122   7.114
  113OSM    C1311638   0.504   2.039   6.988
  113OSM   H13A11639   0.481   2.088   7.081
  113OSM   H13B11640   0.519   1.933   7.003
  113OSM   H13C11641   0.419   2.044   6.921
  113OSM    C1211642   0.654   2.043   6.796
  113OSM   H12A11643   0.671   1.937   6.805
  113OSM   H12B11644   0.749   2.080   6.761
  113OSM    C1111645   0.547   2.061   6.683
  113OSM   H11A11646   0.589   2.030   6.584
  113OSM   H11B11647   0.535   2.170   6.671
  113OSM      P11648   0.406   1.837   6.699
  113OSM    O1311649   0.539   1.784   6.671
  113OSM    O1411650   0.335   1.780   6.815
  113OSM    O1111651   0.318   1.838   6.566
  113OSM    O1211652   0.422   1.995   6.710
  113OSM    C1S11653   0.341   1.743   6.465
  113OSM    H1S11654   0.306   1.641   6.493
  113OSM    H1T11655   0.446   1.722   6.436
  113OSM     NF11656   0.279   1.668   6.230
  113OSM    HNF11657   0.323   1.679   6.142
  113OSM    C2S11658   0.276   1.781   6.331
  113OSM    H2S11659   0.167   1.793   6.348
  113OSM    C3S11660   0.326   1.926   6.279
  113OSM    H3S11661   0.435   1.916   6.261
  113OSM     O311662   0.324   2.035   6.378
  113OSM    HO311663   0.303   1.988   6.458
  113OSM    C4S11664   0.251   1.961   6.150
  113OSM    H4S11665   0.287   1.917   6.056
  113OSM    C5S11666   0.136   2.032   6.139
  113OSM    H5S11667   0.087   2.078   6.226
  113OSM    C6S11668   0.063   2.053   6.007
  113OSM    H6S11669   0.005   2.148   6.006
  113OSM    H6T11670   6.874   1.973   5.991
  113OSM    C7S11671   0.152   2.062   5.879
  113OSM    H7S11672   0.208   1.966   5.875
  113OSM    H7T11673   0.220   2.149   5.893
  113OSM    C8S11674   0.051   2.066   5.763
  113OSM    H8S11675   6.883   2.163   5.756
  113OSM    H8T11676   6.866   1.981   5.770
  113OSM    C9S11677   0.124   2.056   5.633
  113OSM    H9S11678   0.185   1.963   5.628
  113OSM    H9T11679   0.194   2.142   5.626
  113OSM   C10S11680   0.028   2.047   5.513
  113OSM   H10S11681   6.848   2.136   5.513
  113OSM   H10T11682   6.860   1.951   5.524
  113OSM   C11S11683   0.106   2.037   5.382
  113OSM   H11S11684   0.165   1.943   5.382
  113OSM   H11T11685   0.180   2.118   5.363
  113OSM   C12S11686   0.014   2.028   5.260
  113OSM   H12S11687   6.824   2.109   5.272
  113OSM   H12T11688   6.833   1.940   5.262
  113OSM   C13S11689   0.091   2.034   5.131
  113OSM   H13S11690   0.151   1.945   5.102
  113OSM   H13T11691   0.167   2.113   5.152
  113OSM   C14S11692   0.005   2.077   5.017
  113OSM   H14S11693   6.817   2.152   5.052
  113OSM   H14T11694   6.838   1.988   4.978
  113OSM   C15S11695   0.079   2.133   4.900
  113OSM   H15S11696   0.150   2.216   4.919
  113OSM   H15T11697   6.878   2.181   4.850
  113OSM   C16S11698   0.147   2.028   4.801
  113OSM   H16S11699   0.067   1.958   4.769
  113OSM   H16T11700   0.235   1.982   4.850
  113OSM   C17S11701   0.198   2.108   4.674
  113OSM   H17S11702   0.119   2.184   4.652
  113OSM   H17T11703   0.207   2.029   4.597
  113OSM   C18S11704   0.326   2.171   4.720
  113OSM   H18S11705   0.387   2.097   4.775
  113OSM   H18T11706   0.321   2.262   4.784
  113OSM   H18U11707   0.392   2.195   4.634
  113OSM    C1F11708   0.239   1.547   6.262
  113OSM     OF11709   0.173   1.527   6.368
  113OSM    C2F11710   0.280   1.441   6.165
  113OSM    H2F11711   0.389   1.447   6.148
  113OSM    H2G11712   0.219   1.456   6.074
  113OSM    C3F11713   0.252   1.304   6.213
  113OSM    H3F11714   0.277   1.294   6.321
  113OSM    H3G11715   0.314   1.231   6.158
  113OSM    C4F11716   0.110   1.243   6.215
  113OSM    H4F11717   0.038   1.314   6.260
  113OSM    H4G11718   0.118   1.148   6.273
  113OSM    C5F11719   0.057   1.207   6.078
  113OSM    H5F11720   0.032   1.302   6.026
  113OSM    H5G11721   6.848   1.150   6.086
  113OSM    C6F11722   0.148   1.110   6.000
  113OSM    H6F11723   0.186   1.035   6.074
  113OSM    H6G11724   0.240   1.160   5.961
  113OSM    C7F11725   0.076   1.043   5.883
  113OSM    H7F11726   0.007   0.970   5.930
  113OSM    H7G11727   0.155   0.990   5.824
  113OSM    C8F11728   0.009   1.141   5.790
  113OSM    H8F11729   0.089   1.214   5.766
  113OSM    H8G11730   6.816   1.194   5.847
  113OSM    C9F11731   6.820   1.084   5.670
  113OSM    H9F11732   6.790   0.979   5.684
  113OSM   C10F11733   6.788   1.144   5.559
  113OSM   H10F11734   6.731   1.094   5.479
  113OSM   C11F11735   6.829   1.290   5.539
  113OSM   H11F11736   6.858   1.333   5.637
  113OSM   H11G11737   6.744   1.351   5.503
  113OSM   C12F11738   0.048   1.295   5.428
  113OSM   H12F11739   0.138   1.242   5.466
  113OSM   H12G11740   0.063   1.404   5.415
  113OSM   C13F11741   6.885   1.251   5.283
  113OSM   H13F11742   6.804   1.320   5.251
  113OSM   H13G11743   6.841   1.149   5.284
  113OSM   C14F11744   0.112   1.254   5.180
  113OSM   H14F11745   0.196   1.191   5.218
  113OSM   H14G11746   0.159   1.353   5.196
  113OSM   C15F11747   0.079   1.216   5.033
  113OSM   H15F11748   0.001   1.288   4.999
  113OSM   H15G11749   0.031   1.116   5.041
  113OSM   C16F11750   0.199   1.194   4.945
  113OSM   H16F11751   0.178   1.112   4.874
  113OSM   H16G11752   0.282   1.161   5.011
  113OSM   C17F11753   0.244   1.323   4.874
  113OSM   H17F11754   0.237   1.412   4.940
  113OSM   H17G11755   0.178   1.356   4.791
  113OSM   C18F11756   0.391   1.312   4.825
  113OSM   H18F11757   0.459   1.293   4.910
  113OSM   H18G11758   0.429   1.400   4.769
  113OSM   H18H11759   0.399   1.223   4.758
  114OSM      N11760   0.274   0.021   6.758
  114OSM    C1511761   0.353   0.074   6.877
  114OSM   H15A11762   0.452   0.030   6.881
  114OSM   H15B11763   0.294   0.062   6.967
  114OSM   H15C11764   0.358   0.181   6.865
  114OSM    C1411765   0.343   0.080   6.639
  114OSM   H14A11766   0.339   0.188   6.647
  114OSM   H14B11767   0.305   0.051   6.542
  114OSM   H14C11768   0.450   0.064   6.645
  114OSM    C1311769   0.288   6.759   6.767
  114OSM   H13A11770   0.231   6.716   6.687
  114OSM   H13B11771   0.254   6.721   6.863
  114OSM   H13C11772   0.388   6.722   6.748
  114OSM    C1211773   0.128   0.065   6.760
  114OSM   H12A11774   0.127   0.173   6.771
  114OSM   H12B11775   0.084   0.032   6.853
  114OSM    C1111776   0.032   0.010   6.651
  114OSM   H11A11777   0.048   0.054   6.550
  114OSM   H11B11778   6.817   0.044   6.682
  114OSM      P11779   6.802   6.666   6.697
  114OSM    O1311780   6.844   6.521   6.691
  114OSM    O1411781   6.760   6.728   6.821
  114OSM    O1111782   6.687   6.693   6.588
  114OSM    O1211783   0.038   6.750   6.641
  114OSM    C1S11784   6.690   6.673   6.443
  114OSM    H1S11785   6.648   6.574   6.418
  114OSM    H1T11786   6.795   6.678   6.407
  114OSM     NF11787   6.593   6.743   6.224
  114OSM    HNF11788   6.647   6.805   6.168
  114OSM    C2S11789   6.586   6.765   6.368
  114OSM    H2S11790   6.483   6.729   6.387
  114OSM    C3S11791   6.607   0.027   6.415
  114OSM    H3S11792   6.715   0.049   6.404
  114OSM     O311793   6.568   0.045   6.551
  114OSM    HO311794   6.572   6.844   6.591
  114OSM    C4S11795   6.527   0.115   6.319
  114OSM    H4S11796   6.418   0.110   6.331
  114OSM    C5S11797   6.589   0.206   6.242
  114OSM    H5S11798   6.695   0.229   6.258
  114OSM    C6S11799   6.518   0.296   6.148
  114OSM    H6S11800   6.561   0.398   6.157
  114OSM    H6T11801   6.409   0.295   6.168
  114OSM    C7S11802   6.552   0.226   6.019
  114OSM    H7S11803   6.515   0.122   6.008
  114OSM    H7T11804   6.660   0.228   5.990
  114OSM    C8S11805   6.487   0.289   5.893
  114OSM    H8S11806   6.509   0.398   5.887
  114OSM    H8T11807   6.381   0.266   5.916
  114OSM    C9S11808   6.511   0.214   5.763
  114OSM    H9S11809   6.510   0.105   5.784
  114OSM    H9T11810   6.614   0.232   5.724
  114OSM   C10S11811   6.411   0.228   5.655
  114OSM   H10S11812   6.415   0.326   5.602
  114OSM   H10T11813   6.306   0.223   5.693
  114OSM   C11S11814   6.444   0.123   5.545
  114OSM   H11S11815   6.416   0.024   5.587
  114OSM   H11T11816   6.554   0.121   5.531
  114OSM   C12S11817   6.374   0.148   5.407
  114OSM   H12S11818   6.268   0.178   5.424
  114OSM   H12T11819   6.361   0.051   5.354
  114OSM   C13S11820   6.444   0.261   5.327
  114OSM   H13S11821   6.553   0.240   5.326
  114OSM   H13T11822   6.423   0.352   5.387
  114OSM   C14S11823   6.380   0.273   5.190
  114OSM   H14S11824   6.410   0.376   5.164
  114OSM   H14T11825   6.269   0.283   5.200
  114OSM   C15S11826   6.431   0.172   5.085
  114OSM   H15S11827   6.393   0.074   5.120
  114OSM   H15T11828   6.541   0.175   5.096
  114OSM   C16S11829   6.385   0.212   4.947
  114OSM   H16S11830   6.431   0.311   4.923
  114OSM   H16T11831   6.278   0.239   4.961
  114OSM   C17S11832   6.418   0.104   4.848
  114OSM   H17S11833   6.354   0.016   4.871
  114OSM   H17T11834   6.522   0.075   4.872
  114OSM   C18S11835   6.400   0.154   4.707
  114OSM   H18S11836   6.458   0.247   4.686
  114OSM   H18T11837   6.289   0.160   4.696
  114OSM   H18U11838   6.440   0.073   4.643
  114OSM    C1F11839   6.562   6.628   6.173
  114OSM     OF11840   6.504   6.542   6.238
  114OSM    C2F11841   6.614   6.600   6.031
  114OSM    H2F11842   6.687   6.516   6.038
  114OSM    H2G11843   6.657   6.698   6.000
  114OSM    C3F11844   6.508   6.554   5.924
  114OSM    H3F11845   6.409   6.604   5.926
  114OSM    H3G11846   6.472   6.450   5.934
  114OSM    C4F11847   6.561   6.582   5.777
  114OSM    H4F11848   6.670   6.565   5.769
  114OSM    H4G11849   6.546   6.691   5.759
  114OSM    C5F11850   6.473   6.522   5.666
  114OSM    H5F11851   6.364   6.524   5.687
  114OSM    H5G11852   6.508   6.417   5.652
  114OSM    C6F11853   6.514   6.607   5.546
  114OSM    H6F11854   6.624   6.621   5.549
  114OSM    H6G11855   6.464   6.706   5.559
  114OSM    C7F11856   6.452   6.552   5.419
  114OSM    H7F11857   6.347   6.517   5.424
  114OSM    H7G11858   6.510   6.460   5.396
  114OSM    C8F11859   6.453   6.661   5.309
  114OSM    H8F11860   6.545   6.724   5.311
  114OSM    H8G11861   6.376   6.738   5.332
  114OSM    C9F11862   6.431   6.603   5.172
  114OSM    H9F11863   6.506   6.536   5.127
  114OSM   C10F11864   6.320   6.608   5.093
  114OSM   H10F11865   6.318   6.554   4.998
  114OSM   C11F11866   6.187   6.688   5.126
  114OSM   H11F11867   6.123   6.707   5.037
  114OSM   H11G11868   6.220   6.780   5.178
  114OSM   C12F11869   6.092   6.617   5.217
  114OSM   H12F11870   6.150   6.570   5.300
  114OSM   H12G11871   6.049   6.523   5.175
  114OSM   C13F11872   5.984   6.704   5.278
  114OSM   H13F11873   6.027   6.780   5.345
  114OSM   H13G11874   5.934   6.638   5.352
  114OSM   C14F11875   5.883   6.756   5.177
  114OSM   H14F11876   5.926   6.827   5.104
  114OSM   H14G11877   5.804   6.809   5.234
  114OSM   C15F11878   5.820   6.647   5.091
  114OSM   H15F11879   5.777   6.567   5.156
  114OSM   H15G11880   5.893   6.595   5.026
  114OSM   C16F11881   5.706   6.710   5.005
  114OSM   H16F11882   5.745   6.808   4.970
  114OSM   H16G11883   5.619   6.733   5.070
  114OSM   C17F11884   5.652   6.625   4.886
  114OSM   H17F11885   5.624   6.525   4.925
  114OSM   H17G11886   5.730   6.605   4.810
  114OSM   C18F11887   5.525   6.683   4.823
  114OSM   H18F11888   5.532   6.779   4.767
  114OSM   H18G11889   5.441   6.683   4.896
  114OSM   H18H11890   5.485   6.613   4.746
  115OSM      N11891   0.107   2.563   6.701
  115OSM    C1511892   0.016   2.516   6.579
  115OSM   H15A11893   0.025   2.589   6.500
  115OSM   H15B11894   6.803   2.516   6.622
  115OSM   H15C11895   0.038   2.417   6.544
  115OSM    C1411896   0.079   2.471   6.826
  115OSM   H14A11897   0.076   2.368   6.794
  115OSM   H14B11898   6.872   2.502   6.870
  115OSM   H14C11899   0.159   2.495   6.895
  115OSM    C1311900   0.247   2.538   6.659
  115OSM   H13A11901   0.271   2.594   6.570
  115OSM   H13B11902   0.268   2.437   6.628
  115OSM   H13C11903   0.314   2.561   6.741
  115OSM    C1211904   0.073   2.711   6.739
  115OSM   H12A11905   0.049   2.769   6.651
  115OSM   H12B11906   0.158   2.753   6.791
  115OSM    C1111907   6.842   2.731   6.841
  115OSM   H11A11908   6.826   2.840   6.848
  115OSM   H11B11909   6.867   2.681   6.937
  115OSM      P11910   6.590   2.735   6.829
  115OSM    O1311911   6.483   2.648   6.783
  115OSM    O1411912   6.580   2.788   6.968
  115OSM    O1111913   6.595   2.856   6.729
  115OSM    O1211914   6.727   2.659   6.796
  115OSM    C1S11915   6.625   2.835   6.588
  115OSM    H1S11916   6.578   2.739   6.557
  115OSM    H1T11917   6.733   2.826   6.563
  115OSM     NF11918   6.562   2.911   6.348
  115OSM    HNF11919   6.633   2.956   6.295
  115OSM    C2S11920   6.564   2.953   6.488
  115OSM    H2S11921   6.459   2.957   6.523
  115OSM    C3S11922   6.633   3.091   6.521
  115OSM    H3S11923   6.738   3.082   6.484
  115OSM     O311924   6.635   3.119   6.665
  115OSM    HO311925   6.626   3.030   6.701
  115OSM    C4S11926   6.563   3.206   6.447
  115OSM    H4S11927   6.610   3.236   6.352
  115OSM    C5S11928   6.442   3.260   6.478
  115OSM    H5S11929   6.389   3.232   6.570
  115OSM    C6S11930   6.379   3.366   6.399
  115OSM    H6S11931   6.407   3.463   6.447
  115OSM    H6T11932   6.269   3.355   6.395
  115OSM    C7S11933   6.419   3.379   6.257
  115OSM    H7S11934   6.425   3.275   6.217
  115OSM    H7T11935   6.520   3.424   6.248
  115OSM    C8S11936   6.317   3.456   6.168
  115OSM    H8S11937   6.326   3.563   6.196
  115OSM    H8T11938   6.219   3.413   6.198
  115OSM    C9S11939   6.326   3.436   6.015
  115OSM    H9S11940   6.426   3.470   5.981
  115OSM    H9T11941   6.245   3.498   5.972
  115OSM   C10S11942   6.320   3.300   5.953
  115OSM   H10S11943   6.217   3.260   5.963
  115OSM   H10T11944   6.383   3.224   6.004
  115OSM   C11S11945   6.357   3.297   5.804
  115OSM   H11S11946   6.456   3.347   5.796
  115OSM   H11T11947   6.275   3.347   5.748
  115OSM   C12S11948   6.364   3.156   5.731
  115OSM   H12S11949   6.264   3.107   5.742
  115OSM   H12T11950   6.446   3.094   5.771
  115OSM   C13S11951   6.412   3.186   5.581
  115OSM   H13S11952   6.521   3.172   5.563
  115OSM   H13T11953   6.383   3.290   5.559
  115OSM   C14S11954   6.334   3.094   5.482
  115OSM   H14S11955   6.224   3.111   5.481
  115OSM   H14T11956   6.347   2.991   5.521
  115OSM   C15S11957   6.387   3.112   5.340
  115OSM   H15S11958   6.416   3.012   5.301
  115OSM   H15T11959   6.474   3.179   5.354
  115OSM   C16S11960   6.282   3.171   5.244
  115OSM   H16S11961   6.250   3.263   5.298
  115OSM   H16T11962   6.192   3.107   5.231
  115OSM   C17S11963   6.340   3.194   5.107
  115OSM   H17S11964   6.356   3.095   5.059
  115OSM   H17T11965   6.434   3.252   5.118
  115OSM   C18S11966   6.245   3.276   5.023
  115OSM   H18S11967   6.220   3.357   5.096
  115OSM   H18T11968   6.149   3.223   5.006
  115OSM   H18U11969   6.296   3.306   4.929
  115OSM    C1F11970   6.488   2.806   6.301
  115OSM     OF11971   6.419   2.744   6.382
  115OSM    C2F11972   6.502   2.771   6.152
  115OSM    H2F11973   6.610   2.751   6.134
  115OSM    H2G11974   6.469   2.852   6.083
  115OSM    C3F11975   6.430   2.639   6.116
  115OSM    H3F11976   6.319   2.646   6.109
  115OSM    H3G11977   6.462   2.567   6.194
  115OSM    C4F11978   6.479   2.583   5.983
  115OSM    H4F11979   6.439   2.480   5.977
  115OSM    H4G11980   6.590   2.578   5.972
  115OSM    C5F11981   6.424   2.664   5.862
  115OSM    H5F11982   6.455   2.770   5.873
  115OSM    H5G11983   6.313   2.663   5.863
  115OSM    C6F11984   6.464   2.606   5.724
  115OSM    H6F11985   6.425   2.503   5.709
  115OSM    H6G11986   6.574   2.607   5.739
  115OSM    C7F11987   6.438   2.699   5.605
  115OSM    H7F11988   6.477   2.801   5.624
  115OSM    H7G11989   6.329   2.714   5.599
  115OSM    C8F11990   6.504   2.663   5.478
  115OSM    H8F11991   6.614   2.678   5.486
  115OSM    H8G11992   6.472   2.738   5.403
  115OSM    C9F11993   6.483   2.524   5.427
  115OSM    H9F11994   6.514   2.445   5.497
  115OSM   C10F11995   6.423   2.494   5.311
  115OSM   H10F11996   6.422   2.389   5.278
  115OSM   C11F11997   6.364   2.590   5.206
  115OSM   H11F11998   6.305   2.671   5.255
  115OSM   H11G11999   6.296   2.544   5.131
  115OSM   C12F12000   6.473   2.660   5.124
  115OSM   H12F12001   6.560   2.692   5.185
  115OSM   H12G12002   6.429   2.752   5.081
  115OSM   C13F12003   6.523   2.577   5.013
  115OSM   H13F12004   6.436   2.564   4.945
  115OSM   H13G12005   6.554   2.478   5.053
  115OSM   C14F12006   6.640   2.634   4.927
  115OSM   H14F12007   6.712   2.673   5.002
  115OSM   H14G12008   6.604   2.721   4.867
  115OSM   C15F12009   6.703   2.529   4.825
  115OSM   H15F12010   6.623   2.497   4.756
  115OSM   H15G12011   6.741   2.446   4.888
  115OSM   C16F12012   6.811   2.591   4.737
  115OSM   H16F12013   6.876   2.634   4.816
  115OSM   H16G12014   6.757   2.664   4.673
  115OSM   C17F12015   0.012   2.498   4.654
  115OSM   H17F12016   0.048   2.418   4.722
  115OSM   H17G12017   0.102   2.553   4.617
  115OSM   C18F12018   6.824   2.428   4.547
  115OSM   H18F12019   6.805   2.491   4.457
  115OSM   H18G12020   6.726   2.387   4.577
  115OSM   H18H12021   6.886   2.349   4.499
  116OSM      N12022   1.403   1.817   6.959
  116OSM    C1512023   1.543   1.844   7.005
  116OSM   H15A12024   1.552   1.861   7.111
  116OSM   H15B12025   1.570   1.939   6.962
  116OSM   H15C12026   1.608   1.766   6.969
  116OSM    C1412027   1.360   1.702   7.049
  116OSM   H14A12028   1.433   1.625   7.028
  116OSM   H14B12029   1.266   1.664   7.013
  116OSM   H14C12030   1.360   1.727   7.154
  116OSM    C1312031   1.314   1.933   6.979
  116OSM   H13A12032   1.208   1.915   6.968
  116OSM   H13B12033   1.328   2.018   6.913
  116OSM   H13C12034   1.326   1.975   7.078
  116OSM    C1212035   1.400   1.783   6.811
  116OSM   H12A12036   1.446   1.685   6.810
  116OSM   H12B12037   1.470   1.844   6.755
  116OSM    C1112038   1.272   1.768   6.732
  116OSM   H11A12039   1.287   1.753   6.623
  116OSM   H11B12040   1.216   1.863   6.742
  116OSM      P12041   1.227   1.514   6.750
  116OSM    O1312042   1.376   1.490   6.756
  116OSM    O1412043   1.144   1.416   6.826
  116OSM    O1112044   1.181   1.520   6.601
  116OSM    O1212045   1.193   1.668   6.789
  116OSM    C1S12046   1.051   1.541   6.551
  116OSM    H1S12047   1.013   1.643   6.569
  116OSM    H1T12048   0.979   1.475   6.604
  116OSM     NF12049   0.957   1.589   6.326
  116OSM    HNF12050   0.890   1.535   6.276
  116OSM    C2S12051   1.062   1.520   6.399
  116OSM    H2S12052   1.161   1.561   6.369
  116OSM    C3S12053   1.067   1.366   6.374
  116OSM    H3S12054   0.959   1.345   6.389
  116OSM     O312055   1.146   1.283   6.463
  116OSM    HO312056   1.199   1.343   6.517
  116OSM    C4S12057   1.102   1.347   6.225
  116OSM    H4S12058   1.007   1.341   6.170
  116OSM    C5S12059   1.217   1.346   6.157
  116OSM    H5S12060   1.314   1.343   6.209
  116OSM    C6S12061   1.235   1.345   6.010
  116OSM    H6S12062   1.296   1.256   5.984
  116OSM    H6T12063   1.290   1.436   5.979
  116OSM    C7S12064   1.102   1.343   5.926
  116OSM    H7S12065   1.036   1.427   5.957
  116OSM    H7T12066   1.046   1.253   5.960
  116OSM    C8S12067   1.110   1.342   5.772
  116OSM    H8S12068   1.140   1.240   5.740
  116OSM    H8T12069   1.186   1.414   5.733
  116OSM    C9S12070   0.976   1.381   5.685
  116OSM    H9S12071   0.941   1.479   5.722
  116OSM    H9T12072   0.897   1.307   5.707
  116OSM   C10S12073   1.004   1.374   5.542
  116OSM   H10S12074   1.047   1.274   5.519
  116OSM   H10T12075   1.077   1.452   5.512
  116OSM   C11S12076   0.890   1.400   5.452
  116OSM   H11S12077   0.858   1.506   5.453
  116OSM   H11T12078   0.808   1.334   5.488
  116OSM   C12S12079   0.918   1.362   5.308
  116OSM   H12S12080   0.824   1.329   5.261
  116OSM   H12T12081   0.988   1.276   5.301
  116OSM   C13S12082   0.994   1.467   5.227
  116OSM   H13S12083   1.098   1.469   5.265
  116OSM   H13T12084   0.936   1.561   5.245
  116OSM   C14S12085   1.002   1.444   5.075
  116OSM   H14S12086   0.998   1.542   5.022
  116OSM   H14T12087   0.906   1.394   5.050
  116OSM   C15S12088   1.126   1.354   5.033
  116OSM   H15S12089   1.108   1.250   5.069
  116OSM   H15T12090   1.227   1.389   5.063
  116OSM   C16S12091   1.137   1.351   4.883
  116OSM   H16S12092   1.150   1.453   4.841
  116OSM   H16T12093   1.042   1.310   4.841
  116OSM   C17S12094   1.247   1.267   4.842
  116OSM   H17S12095   1.240   1.164   4.885
  116OSM   H17T12096   1.329   1.326   4.889
  116OSM   C18S12097   1.258   1.246   4.696
  116OSM   H18S12098   1.352   1.192   4.671
  116OSM   H18T12099   1.276   1.340   4.640
  116OSM   H18U12100   1.172   1.197   4.645
  116OSM    C1F12101   0.947   1.723   6.318
  116OSM     OF12102   1.038   1.794   6.362
  116OSM    C2F12103   0.823   1.781   6.260
  116OSM    H2F12104   0.761   1.845   6.327
  116OSM    H2G12105   0.751   1.698   6.239
  116OSM    C3F12106   0.847   1.866   6.129
  116OSM    H3F12107   0.892   1.965   6.151
  116OSM    H3G12108   0.747   1.900   6.095
  116OSM    C4F12109   0.906   1.797   6.008
  116OSM    H4F12110   0.871   1.692   5.996
  116OSM    H4G12111   1.017   1.793   6.009
  116OSM    C5F12112   0.885   1.866   5.879
  116OSM    H5F12113   0.917   1.972   5.887
  116OSM    H5G12114   0.780   1.866   5.844
  116OSM    C6F12115   0.976   1.813   5.767
  116OSM    H6F12116   0.969   1.703   5.772
  116OSM    H6G12117   1.080   1.850   5.779
  116OSM    C7F12118   0.923   1.862   5.628
  116OSM    H7F12119   0.941   1.972   5.628
  116OSM    H7G12120   0.819   1.825   5.617
  116OSM    C8F12121   1.009   1.807   5.514
  116OSM    H8F12122   1.019   1.698   5.535
  116OSM    H8G12123   1.111   1.851   5.519
  116OSM    C9F12124   0.929   1.825   5.390
  116OSM    H9F12125   0.820   1.833   5.404
  116OSM   C10F12126   0.973   1.839   5.266
  116OSM   H10F12127   0.896   1.850   5.188
  116OSM   C11F12128   1.113   1.847   5.215
  116OSM   H11F12129   1.187   1.802   5.285
  116OSM   H11G12130   1.137   1.954   5.199
  116OSM   C12F12131   1.148   1.777   5.079
  116OSM   H12F12132   1.069   1.794   5.003
  116OSM   H12G12133   1.143   1.670   5.107
  116OSM   C13F12134   1.287   1.792   5.014
  116OSM   H13F12135   1.364   1.757   5.086
  116OSM   H13G12136   1.298   1.900   4.990
  116OSM   C14F12137   1.324   1.723   4.881
  116OSM   H14F12138   1.248   1.745   4.803
  116OSM   H14G12139   1.327   1.612   4.889
  116OSM   C15F12140   1.457   1.761   4.817
  116OSM   H15F12141   1.537   1.719   4.883
  116OSM   H15G12142   1.475   1.870   4.814
  116OSM   C16F12143   1.457   1.694   4.676
  116OSM   H16F12144   1.419   1.590   4.684
  116OSM   H16G12145   1.565   1.685   4.649
  116OSM   C17F12146   1.385   1.771   4.564
  116OSM   H17F12147   1.277   1.781   4.589
  116OSM   H17G12148   1.383   1.717   4.467
  116OSM   C18F12149   1.441   1.913   4.530
  116OSM   H18F12150   1.376   1.958   4.451
  116OSM   H18G12151   1.546   1.895   4.496
  116OSM   H18H12152   1.445   1.982   4.617
  117OSM      N12153   0.771   4.082   6.545
  117OSM    C1512154   0.871   4.146   6.453
  117OSM   H15A12155   0.969   4.145   6.498
  117OSM   H15B12156   0.845   4.241   6.410
  117OSM   H15C12157   0.877   4.077   6.370
  117OSM    C1412158   0.806   3.946   6.588
  117OSM   H14A12159   0.905   3.925   6.628
  117OSM   H14B12160   0.802   3.875   6.506
  117OSM   H14C12161   0.731   3.897   6.648
  117OSM    C1312162   0.768   4.166   6.670
  117OSM   H13A12163   0.867   4.182   6.710
  117OSM   H13B12164   0.703   4.124   6.746
  117OSM   H13C12165   0.729   4.264   6.647
  117OSM    C1212166   0.642   4.078   6.471
  117OSM   H12A12167   0.563   4.023   6.521
  117OSM   H12B12168   0.658   4.008   6.390
  117OSM    C1112169   0.578   4.201   6.407
  117OSM   H11A12170   0.481   4.168   6.363
  117OSM   H11B12171   0.636   4.257   6.331
  117OSM      P12172   0.402   4.300   6.579
  117OSM    O1312173   0.356   4.171   6.628
  117OSM    O1412174   0.418   4.404   6.685
  117OSM    O1112175   0.287   4.360   6.484
  117OSM    O1212176   0.537   4.291   6.509
  117OSM    C1S12177   0.316   4.464   6.388
  117OSM    H1S12178   0.425   4.484   6.382
  117OSM    H1T12179   0.268   4.560   6.417
  117OSM     NF12180   0.323   4.535   6.146
  117OSM    HNF12181   0.296   4.631   6.140
  117OSM    C2S12182   0.261   4.439   6.243
  117OSM    H2S12183   0.286   4.337   6.206
  117OSM    C3S12184   0.112   4.450   6.252
  117OSM    H3S12185   0.091   4.555   6.282
  117OSM     O312186   0.058   4.372   6.348
  117OSM    HO312187   0.132   4.321   6.383
  117OSM    C4S12188   0.047   4.423   6.118
  117OSM    H4S12189   0.056   4.510   6.051
  117OSM    C5S12190   6.885   4.304   6.078
  117OSM    H5S12191   0.015   4.233   6.160
  117OSM    C6S12192   6.836   4.272   5.940
  117OSM    H6S12193   6.739   4.218   5.941
  117OSM    H6T12194   0.009   4.195   5.886
  117OSM    C7S12195   6.818   4.389   5.843
  117OSM    H7S12196   0.019   4.458   5.855
  117OSM    H7T12197   6.729   4.438   5.888
  117OSM    C8S12198   6.800   4.326   5.705
  117OSM    H8S12199   6.705   4.269   5.706
  117OSM    H8T12200   0.005   4.264   5.691
  117OSM    C9S12201   6.799   4.433   5.596
  117OSM    H9S12202   6.884   4.501   5.617
  117OSM    H9T12203   6.712   4.501   5.609
  117OSM   C10S12204   6.804   4.383   5.452
  117OSM   H10S12205   6.728   4.305   5.431
  117OSM   H10T12206   0.016   4.334   5.438
  117OSM   C11S12207   6.785   4.500   5.344
  117OSM   H11S12208   6.866   4.577   5.347
  117OSM   H11T12209   6.683   4.543   5.354
  117OSM   C12S12210   6.796   4.438   5.204
  117OSM   H12S12211   6.729   4.350   5.211
  117OSM   H12T12212   0.015   4.425   5.173
  117OSM   C13S12213   6.736   4.533   5.100
  117OSM   H13S12214   6.782   4.635   5.105
  117OSM   H13T12215   6.630   4.550   5.128
  117OSM   C14S12216   6.735   4.476   4.961
  117OSM   H14S12217   6.684   4.378   4.953
  117OSM   H14T12218   6.834   4.438   4.927
  117OSM   C15S12219   6.665   4.564   4.863
  117OSM   H15S12220   6.707   4.666   4.876
  117OSM   H15T12221   6.559   4.577   4.894
  117OSM   C16S12222   6.664   4.527   4.716
  117OSM   H16S12223   6.608   4.608   4.665
  117OSM   H16T12224   6.617   4.428   4.699
  117OSM   C17S12225   6.800   4.530   4.645
  117OSM   H17S12226   6.862   4.447   4.684
  117OSM   H17T12227   6.846   4.622   4.686
  117OSM   C18S12228   6.780   4.517   4.492
  117OSM   H18S12229   6.704   4.579   4.440
  117OSM   H18T12230   6.749   4.413   4.473
  117OSM   H18U12231   6.873   4.535   4.433
  117OSM    C1F12232   0.451   4.515   6.112
  117OSM     OF12233   0.516   4.415   6.140
  117OSM    C2F12234   0.512   4.619   6.024
  117OSM    H2F12235   0.548   4.706   6.084
  117OSM    H2G12236   0.437   4.650   5.948
  117OSM    C3F12237   0.637   4.571   5.952
  117OSM    H3F12238   0.627   4.484   5.884
  117OSM    H3G12239   0.714   4.546   6.028
  117OSM    C4F12240   0.700   4.686   5.876
  117OSM    H4F12241   0.803   4.705   5.914
  117OSM    H4G12242   0.646   4.782   5.891
  117OSM    C5F12243   0.719   4.660   5.723
  117OSM    H5F12244   0.617   4.629   5.690
  117OSM    H5G12245   0.789   4.575   5.711
  117OSM    C6F12246   0.785   4.768   5.642
  117OSM    H6F12247   0.884   4.803   5.676
  117OSM    H6G12248   0.717   4.856   5.636
  117OSM    C7F12249   0.810   4.727   5.497
  117OSM    H7F12250   0.723   4.672   5.453
  117OSM    H7G12251   0.887   4.647   5.497
  117OSM    C8F12252   0.866   4.830   5.402
  117OSM    H8F12253   0.796   4.915   5.390
  117OSM    H8G12254   0.886   4.785   5.301
  117OSM    C9F12255   1.001   4.886   5.440
  117OSM    H9F12256   1.000   4.957   5.524
  117OSM   C10F12257   1.124   4.860   5.381
  117OSM   H10F12258   1.216   4.911   5.414
  117OSM   C11F12259   1.147   4.761   5.267
  117OSM   H11F12260   1.079   4.675   5.280
  117OSM   H11G12261   1.249   4.719   5.276
  117OSM   C12F12262   1.119   4.833   5.134
  117OSM   H12F12263   1.196   4.912   5.118
  117OSM   H12G12264   1.024   4.889   5.146
  117OSM   C13F12265   1.151   4.730   5.022
  117OSM   H13F12266   1.100   4.633   5.045
  117OSM   H13G12267   1.260   4.711   5.032
  117OSM   C14F12268   1.129   4.780   4.884
  117OSM   H14F12269   1.162   4.710   4.805
  117OSM   H14G12270   1.171   4.878   4.853
  117OSM   C15F12271   0.971   4.783   4.859
  117OSM   H15F12272   0.912   4.860   4.913
  117OSM   H15G12273   0.922   4.687   4.888
  117OSM   C16F12274   0.941   4.784   4.705
  117OSM   H16F12275   0.832   4.801   4.693
  117OSM   H16G12276   0.973   4.689   4.659
  117OSM   C17F12277   1.012   4.895   4.621
  117OSM   H17F12278   1.117   4.863   4.604
  117OSM   H17G12279   1.009   4.993   4.672
  117OSM   C18F12280   0.949   4.905   4.475
  117OSM   H18F12281   0.839   4.920   4.480
  117OSM   H18G12282   0.968   4.809   4.423
  117OSM   H18H12283   0.985   4.995   4.421
  118OSM      N12284   0.083   3.642   6.638
  118OSM    C1512285   0.167   3.539   6.701
  118OSM   H15A12286   0.129   3.441   6.677
  118OSM   H15B12287   0.190   3.550   6.806
  118OSM   H15C12288   0.264   3.537   6.653
  118OSM    C1412289   6.845   3.662   6.714
  118OSM   H14A12290   6.786   3.739   6.666
  118OSM   H14B12291   6.856   3.678   6.820
  118OSM   H14C12292   6.786   3.572   6.708
  118OSM    C1312293   0.159   3.772   6.625
  118OSM   H13A12294   0.258   3.748   6.588
  118OSM   H13B12295   0.165   3.820   6.722
  118OSM   H13C12296   0.105   3.838   6.558
  118OSM    C1212297   0.047   3.601   6.500
  118OSM   H12A12298   0.131   3.596   6.434
  118OSM   H12B12299   6.878   3.686   6.464
  118OSM    C1112300   6.840   3.479   6.471
  118OSM   H11A12301   6.822   3.453   6.365
  118OSM   H11B12302   6.739   3.496   6.515
  118OSM      P12303   0.127   3.297   6.457
  118OSM    O1312304   0.242   3.275   6.549
  118OSM    O1412305   0.085   3.180   6.377
  118OSM    O1112306   0.180   3.413   6.358
  118OSM    O1212307   0.011   3.361   6.540
  118OSM    C1S12308   0.304   3.387   6.285
  118OSM    H1S12309   0.346   3.286   6.302
  118OSM    H1T12310   0.388   3.450   6.320
  118OSM     NF12311   0.402   3.344   6.057
  118OSM    HNF12312   0.459   3.412   6.012
  118OSM    C2S12313   0.288   3.399   6.133
  118OSM    H2S12314   0.202   3.332   6.110
  118OSM    C3S12315   0.244   3.545   6.098
  118OSM    H3S12316   0.319   3.621   6.126
  118OSM     O312317   0.140   3.597   6.178
  118OSM    HO312318   0.135   3.533   6.249
  118OSM    C4S12319   0.197   3.559   5.961
  118OSM    H4S12320   0.094   3.522   5.946
  118OSM    C5S12321   0.266   3.613   5.862
  118OSM    H5S12322   0.367   3.654   5.879
  118OSM    C6S12323   0.210   3.624   5.726
  118OSM    H6S12324   0.238   3.731   5.718
  118OSM    H6T12325   0.099   3.614   5.716
  118OSM    C7S12326   0.293   3.541   5.626
  118OSM    H7S12327   0.272   3.433   5.641
  118OSM    H7T12328   0.401   3.558   5.642
  118OSM    C8S12329   0.261   3.574   5.479
  118OSM    H8S12330   0.271   3.682   5.457
  118OSM    H8T12331   0.154   3.549   5.459
  118OSM    C9S12332   0.343   3.486   5.381
  118OSM    H9S12333   0.327   3.376   5.386
  118OSM    H9T12334   0.451   3.506   5.395
  118OSM   C10S12335   0.300   3.521   5.237
  118OSM   H10S12336   0.353   3.610   5.197
  118OSM   H10T12337   0.192   3.547   5.231
  118OSM   C11S12338   0.319   3.413   5.131
  118OSM   H11S12339   0.252   3.332   5.167
  118OSM   H11T12340   0.424   3.377   5.133
  118OSM   C12S12341   0.300   3.458   4.984
  118OSM   H12S12342   0.385   3.523   4.952
  118OSM   H12T12343   0.204   3.515   4.977
  118OSM   C13S12344   0.305   3.339   4.889
  118OSM   H13S12345   0.209   3.282   4.893
  118OSM   H13T12346   0.387   3.282   4.938
  118OSM   C14S12347   0.332   3.385   4.747
  118OSM   H14S12348   0.348   3.284   4.702
  118OSM   H14T12349   0.406   3.467   4.732
  118OSM   C15S12350   0.210   3.434   4.670
  118OSM   H15S12351   0.116   3.405   4.720
  118OSM   H15T12352   0.199   3.394   4.567
  118OSM   C16S12353   0.210   3.589   4.669
  118OSM   H16S12354   0.307   3.635   4.644
  118OSM   H16T12355   0.192   3.608   4.777
  118OSM   C17S12356   0.106   3.652   4.575
  118OSM   H17S12357   0.026   3.709   4.628
  118OSM   H17T12358   0.055   3.571   4.518
  118OSM   C18S12359   0.162   3.756   4.476
  118OSM   H18S12360   0.199   3.846   4.530
  118OSM   H18T12361   0.087   3.785   4.399
  118OSM   H18U12362   0.252   3.717   4.425
  118OSM    C1F12363   0.439   3.215   6.050
  118OSM     OF12364   0.379   3.127   6.111
  118OSM    C2F12365   0.568   3.180   5.981
  118OSM    H2F12366   0.592   3.080   6.024
  118OSM    H2G12367   0.650   3.246   6.015
  118OSM    C3F12368   0.553   3.196   5.831
  118OSM    H3F12369   0.537   3.302   5.803
  118OSM    H3G12370   0.467   3.135   5.793
  118OSM    C4F12371   0.683   3.156   5.751
  118OSM    H4F12372   0.730   3.074   5.809
  118OSM    H4G12373   0.747   3.245   5.760
  118OSM    C5F12374   0.660   3.129   5.604
  118OSM    H5F12375   0.605   3.034   5.592
  118OSM    H5G12376   0.758   3.111   5.555
  118OSM    C6F12377   0.602   3.241   5.518
  118OSM    H6F12378   0.677   3.318   5.545
  118OSM    H6G12379   0.500   3.266   5.556
  118OSM    C7F12380   0.612   3.213   5.374
  118OSM    H7F12381   0.716   3.181   5.351
  118OSM    H7G12382   0.593   3.311   5.326
  118OSM    C8F12383   0.504   3.112   5.330
  118OSM    H8F12384   0.426   3.165   5.271
  118OSM    H8G12385   0.444   3.090   5.421
  118OSM    C9F12386   0.554   2.990   5.255
  118OSM    H9F12387   0.565   2.906   5.325
  118OSM   C10F12388   0.607   2.979   5.134
  118OSM   H10F12389   0.648   2.881   5.107
  118OSM   C11F12390   0.647   3.092   5.041
  118OSM   H11F12391   0.679   3.189   5.085
  118OSM   H11G12392   0.569   3.106   4.964
  118OSM   C12F12393   0.778   3.056   4.964
  118OSM   H12F12394   0.750   2.960   4.914
  118OSM   H12G12395   0.852   3.026   5.041
  118OSM   C13F12396   0.829   3.153   4.851
  118OSM   H13F12397   0.912   3.105   4.796
  118OSM   H13G12398   0.849   3.256   4.888
  118OSM   C14F12399   0.724   3.180   4.746
  118OSM   H14F12400   0.635   3.215   4.803
  118OSM   H14G12401   0.682   3.085   4.709
  118OSM   C15F12402   0.772   3.272   4.631
  118OSM   H15F12403   0.854   3.222   4.575
  118OSM   H15G12404   0.815   3.370   4.663
  118OSM   C16F12405   0.665   3.307   4.530
  118OSM   H16F12406   0.585   3.365   4.580
  118OSM   H16G12407   0.619   3.214   4.492
  118OSM   C17F12408   0.725   3.389   4.421
  118OSM   H17F12409   0.798   3.328   4.362
  118OSM   H17G12410   0.783   3.472   4.466
  118OSM   C18F12411   0.621   3.430   4.318
  118OSM   H18F12412   0.541   3.492   4.365
  118OSM   H18G12413   0.565   3.345   4.274
  118OSM   H18H12414   0.653   3.501   4.239
  119OSM      N12415   2.873   0.712   6.839
  119OSM    C1512416   2.894   0.592   6.929
  119OSM   H15A12417   2.983   0.536   6.904
  119OSM   H15B12418   2.812   0.523   6.920
  119OSM   H15C12419   2.897   0.615   7.035
  119OSM    C1412420   2.822   0.663   6.706
  119OSM   H14A12421   2.718   0.637   6.721
  119OSM   H14B12422   2.872   0.576   6.666
  119OSM   H14C12423   2.823   0.746   6.637
  119OSM    C1312424   2.759   0.802   6.890
  119OSM   H13A12425   2.773   0.824   6.995
  119OSM   H13B12426   2.664   0.751   6.884
  119OSM   H13C12427   2.766   0.885   6.821
  119OSM    C1212428   3.007   0.789   6.815
  119OSM   H12A12429   3.088   0.717   6.812
  119OSM   H12B12430   3.022   0.850   6.903
  119OSM    C1112431   3.018   0.886   6.698
  119OSM   H11A12432   3.031   0.828   6.604
  119OSM   H11B12433   3.113   0.943   6.704
  119OSM      P12434   2.870   1.049   6.553
  119OSM    O1312435   2.758   0.971   6.496
  119OSM    O1412436   2.848   1.192   6.581
  119OSM    O1112437   2.990   1.055   6.451
  119OSM    O1212438   2.912   0.981   6.690
  119OSM    C1S12439   2.999   0.961   6.338
  119OSM    H1S12440   2.947   0.864   6.357
  119OSM    H1T12441   3.104   0.936   6.314
  119OSM     NF12442   2.939   0.927   6.101
  119OSM    HNF12443   3.016   0.919   6.037
  119OSM    C2S12444   2.957   1.028   6.206
  119OSM    H2S12445   2.859   1.077   6.223
  119OSM    C3S12446   3.063   1.145   6.170
  119OSM    H3S12447   3.161   1.094   6.158
  119OSM     O312448   3.083   1.243   6.269
  119OSM    HO312449   3.041   1.208   6.348
  119OSM    C4S12450   3.020   1.202   6.038
  119OSM    H4S12451   3.085   1.177   5.953
  119OSM    C5S12452   2.925   1.299   6.028
  119OSM    H5S12453   2.852   1.318   6.109
  119OSM    C6S12454   2.888   1.369   5.899
  119OSM    H6S12455   2.863   1.477   5.908
  119OSM    H6T12456   2.792   1.333   5.855
  119OSM    C7S12457   2.991   1.346   5.780
  119OSM    H7S12458   2.982   1.238   5.756
  119OSM    H7T12459   3.096   1.368   5.809
  119OSM    C8S12460   2.948   1.433   5.663
  119OSM    H8S12461   2.959   1.540   5.687
  119OSM    H8T12462   2.841   1.417   5.638
  119OSM    C9S12463   3.038   1.402   5.543
  119OSM    H9S12464   3.018   1.299   5.506
  119OSM    H9T12465   3.145   1.396   5.574
  119OSM   C10S12466   3.040   1.494   5.423
  119OSM   H10S12467   3.129   1.468   5.362
  119OSM   H10T12468   3.061   1.598   5.453
  119OSM   C11S12469   2.911   1.474   5.342
  119OSM   H11S12470   2.815   1.485   5.396
  119OSM   H11T12471   2.909   1.365   5.319
  119OSM   C12S12472   2.906   1.556   5.211
  119OSM   H12S12473   2.977   1.637   5.234
  119OSM   H12T12474   2.808   1.600   5.182
  119OSM   C13S12475   2.962   1.472   5.089
  119OSM   H13S12476   3.063   1.432   5.112
  119OSM   H13T12477   2.977   1.543   5.006
  119OSM   C14S12478   2.865   1.361   5.044
  119OSM   H14S12479   2.768   1.406   5.014
  119OSM   H14T12480   2.842   1.290   5.126
  119OSM   C15S12481   2.933   1.275   4.934
  119OSM   H15S12482   3.006   1.207   4.983
  119OSM   H15T12483   2.978   1.332   4.850
  119OSM   C16S12484   2.826   1.182   4.871
  119OSM   H16S12485   2.737   1.247   4.858
  119OSM   H16T12486   2.801   1.102   4.943
  119OSM   C17S12487   2.863   1.115   4.736
  119OSM   H17S12488   2.860   1.190   4.655
  119OSM   H17T12489   2.793   1.034   4.707
  119OSM   C18S12490   3.001   1.047   4.740
  119OSM   H18S12491   3.021   0.994   4.835
  119OSM   H18T12492   3.082   1.122   4.729
  119OSM   H18U12493   3.004   0.961   4.670
  119OSM    C1F12494   2.846   0.828   6.098
  119OSM     OF12495   2.752   0.831   6.182
  119OSM    C2F12496   2.862   0.711   6.007
  119OSM    H2F12497   2.882   0.631   6.081
  119OSM    H2G12498   2.942   0.737   5.935
  119OSM    C3F12499   2.730   0.681   5.928
  119OSM    H3F12500   2.636   0.676   5.988
  119OSM    H3G12501   2.743   0.594   5.860
  119OSM    C4F12502   2.702   0.795   5.820
  119OSM    H4F12503   2.673   0.893   5.864
  119OSM    H4G12504   2.636   0.758   5.739
  119OSM    C5F12505   2.821   0.819   5.730
  119OSM    H5F12506   2.863   0.719   5.705
  119OSM    H5G12507   2.903   0.870   5.784
  119OSM    C6F12508   2.794   0.908   5.609
  119OSM    H6F12509   2.764   1.009   5.644
  119OSM    H6G12510   2.706   0.866   5.556
  119OSM    C7F12511   2.904   0.913   5.501
  119OSM    H7F12512   2.923   0.808   5.472
  119OSM    H7G12513   2.986   0.967   5.553
  119OSM    C8F12514   2.841   1.000   5.388
  119OSM    H8F12515   2.823   1.106   5.417
  119OSM    H8G12516   2.740   0.955   5.377
  119OSM    C9F12517   2.911   0.991   5.259
  119OSM    H9F12518   3.004   1.050   5.260
  119OSM   C10F12519   2.869   0.925   5.151
  119OSM   H10F12520   2.927   0.952   5.061
  119OSM   C11F12521   2.735   0.850   5.155
  119OSM   H11F12522   2.659   0.926   5.182
  119OSM   H11G12523   2.735   0.773   5.235
  119OSM   C12F12524   2.693   0.785   5.021
  119OSM   H12F12525   2.726   0.851   4.937
  119OSM   H12G12526   2.583   0.789   5.008
  119OSM   C13F12527   2.725   0.632   4.999
  119OSM   H13F12528   2.638   0.592   4.944
  119OSM   H13G12529   2.747   0.571   5.090
  119OSM   C14F12530   2.853   0.606   4.912
  119OSM   H14F12531   2.876   0.498   4.921
  119OSM   H14G12532   2.931   0.661   4.969
  119OSM   C15F12533   2.846   0.638   4.764
  119OSM   H15F12534   2.796   0.737   4.755
  119OSM   H15G12535   2.781   0.566   4.710
  119OSM   C16F12536   2.990   0.642   4.712
  119OSM   H16F12537   3.034   0.550   4.757
  119OSM   H16G12538   3.033   0.732   4.761
  119OSM   C17F12539   2.992   0.647   4.560
  119OSM   H17F12540   2.929   0.733   4.529
  119OSM   H17G12541   2.939   0.556   4.524
  119OSM   C18F12542   3.140   0.655   4.514
  119OSM   H18F12543   3.150   0.613   4.412
  119OSM   H18G12544   3.206   0.606   4.589
  119OSM   H18H12545   3.174   0.761   4.517
  120OSM      N12546   4.936   5.251   6.713
  120OSM    C1512547   4.980   5.111   6.736
  120OSM   H15A12548   4.975   5.043   6.653
  120OSM   H15B12549   4.905   5.070   6.803
  120OSM   H15C12550   5.078   5.105   6.781
  120OSM    C1412551   4.811   5.253   6.623
  120OSM   H14A12552   4.794   5.357   6.597
  120OSM   H14B12553   4.726   5.205   6.669
  120OSM   H14C12554   4.838   5.207   6.529
  120OSM    C1312555   4.915   5.313   6.843
  120OSM   H13A12556   4.859   5.405   6.845
  120OSM   H13B12557   5.012   5.336   6.886
  120OSM   H13C12558   4.867   5.247   6.914
  120OSM    C1212559   5.052   5.319   6.640
  120OSM   H12A12560   5.020   5.417   6.610
  120OSM   H12B12561   5.071   5.269   6.546
  120OSM    C1112562   5.191   5.328   6.717
  120OSM   H11A12563   5.179   5.354   6.825
  120OSM   H11B12564   5.247   5.410   6.667
  120OSM      P12565   5.351   5.149   6.610
  120OSM    O1312566   5.478   5.212   6.623
  120OSM    O1412567   5.353   5.003   6.626
  120OSM    O1112568   5.292   5.194   6.472
  120OSM    O1212569   5.269   5.207   6.731
  120OSM    C1S12570   5.365   5.232   6.355
  120OSM    H1S12571   5.476   5.222   6.363
  120OSM    H1T12572   5.354   5.340   6.332
  120OSM     NF12573   5.406   5.195   6.108
  120OSM    HNF12574   5.357   5.237   6.032
  120OSM    C2S12575   5.323   5.155   6.218
  120OSM    H2S12576   5.345   5.048   6.238
  120OSM    C3S12577   5.172   5.178   6.204
  120OSM    H3S12578   5.156   5.286   6.184
  120OSM     O312579   5.099   5.152   6.322
  120OSM    HO312580   5.170   5.140   6.386
  120OSM    C4S12581   5.111   5.121   6.080
  120OSM    H4S12582   5.116   5.202   6.004
  120OSM    C5S12583   5.060   5.000   6.056
  120OSM    H5S12584   5.056   4.918   6.129
  120OSM    C6S12585   4.998   4.971   5.920
  120OSM    H6S12586   4.889   4.981   5.939
  120OSM    H6T12587   5.024   4.866   5.895
  120OSM    C7S12588   5.045   5.051   5.796
  120OSM    H7S12589   5.155   5.040   5.784
  120OSM    H7T12590   5.019   5.158   5.809
  120OSM    C8S12591   4.971   5.017   5.669
  120OSM    H8S12592   4.875   5.073   5.669
  120OSM    H8T12593   4.940   4.911   5.681
  120OSM    C9S12594   5.055   5.022   5.540
  120OSM    H9S12595   5.153   4.973   5.555
  120OSM    H9T12596   5.090   5.125   5.515
  120OSM   C10S12597   4.989   4.967   5.418
  120OSM   H10S12598   4.888   5.011   5.399
  120OSM   H10T12599   4.972   4.858   5.431
  120OSM   C11S12600   5.075   4.990   5.297
  120OSM   H11S12601   5.170   4.934   5.317
  120OSM   H11T12602   5.122   5.088   5.275
  120OSM   C12S12603   5.013   4.924   5.171
  120OSM   H12S12604   4.933   4.984   5.124
  120OSM   H12T12605   4.970   4.826   5.201
  120OSM   C13S12606   5.108   4.872   5.052
  120OSM   H13S12607   5.194   4.816   5.094
  120OSM   H13T12608   5.155   4.959   5.002
  120OSM   C14S12609   5.029   4.777   4.957
  120OSM   H14S12610   4.937   4.822   4.914
  120OSM   H14T12611   5.006   4.692   5.026
  120OSM   C15S12612   5.129   4.741   4.846
  120OSM   H15S12613   5.224   4.710   4.894
  120OSM   H15T12614   5.157   4.829   4.785
  120OSM   C16S12615   5.090   4.628   4.742
  120OSM   H16S12616   5.020   4.670   4.667
  120OSM   H16T12617   5.037   4.545   4.794
  120OSM   C17S12618   5.211   4.589   4.663
  120OSM   H17S12619   5.288   4.533   4.720
  120OSM   H17T12620   5.250   4.682   4.615
  120OSM   C18S12621   5.167   4.491   4.554
  120OSM   H18S12622   5.128   4.396   4.597
  120OSM   H18T12623   5.255   4.456   4.495
  120OSM   H18U12624   5.085   4.537   4.494
  120OSM    C1F12625   5.538   5.189   6.099
  120OSM     OF12626   5.613   5.125   6.175
  120OSM    C2F12627   5.589   5.251   5.977
  120OSM    H2F12628   5.592   5.362   5.987
  120OSM    H2G12629   5.525   5.207   5.898
  120OSM    C3F12630   5.742   5.210   5.950
  120OSM    H3F12631   5.740   5.100   5.964
  120OSM    H3G12632   5.808   5.241   6.033
  120OSM    C4F12633   5.803   5.248   5.813
  120OSM    H4F12634   5.911   5.226   5.826
  120OSM    H4G12635   5.796   5.357   5.790
  120OSM    C5F12636   5.747   5.163   5.698
  120OSM    H5F12637   5.642   5.192   5.676
  120OSM    H5G12638   5.754   5.054   5.721
  120OSM    C6F12639   5.820   5.184   5.562
  120OSM    H6F12640   5.927   5.160   5.581
  120OSM    H6G12641   5.815   5.293   5.542
  120OSM    C7F12642   5.768   5.099   5.447
  120OSM    H7F12643   5.657   5.111   5.447
  120OSM    H7G12644   5.796   4.995   5.473
  120OSM    C8F12645   5.813   5.139   5.304
  120OSM    H8F12646   5.924   5.128   5.302
  120OSM    H8G12647   5.788   5.245   5.284
  120OSM    C9F12648   5.745   5.047   5.203
  120OSM    H9F12649   5.649   5.004   5.234
  120OSM   C10F12650   5.796   5.024   5.079
  120OSM   H10F12651   5.738   4.956   5.016
  120OSM   C11F12652   5.935   5.064   5.025
  120OSM   H11F12653   6.014   4.996   5.062
  120OSM   H11G12654   5.958   5.170   5.045
  120OSM   C12F12655   5.944   5.040   4.869
  120OSM   H12F12656   5.902   4.941   4.840
  120OSM   H12G12657   6.052   5.019   4.851
  120OSM   C13F12658   5.896   5.156   4.779
  120OSM   H13F12659   5.980   5.229   4.771
  120OSM   H13G12660   5.816   5.212   4.832
  120OSM   C14F12661   5.868   5.105   4.636
  120OSM   H14F12662   5.794   5.022   4.641
  120OSM   H14G12663   5.954   5.062   4.581
  120OSM   C15F12664   5.822   5.221   4.540
  120OSM   H15F12665   5.827   5.171   4.441
  120OSM   H15G12666   5.894   5.305   4.548
  120OSM   C16F12667   5.675   5.259   4.553
  120OSM   H16F12668   5.665   5.306   4.653
  120OSM   H16G12669   5.617   5.164   4.544
  120OSM   C17F12670   5.637   5.366   4.449
  120OSM   H17F12671   5.707   5.451   4.459
  120OSM   H17G12672   5.534   5.401   4.473
  120OSM   C18F12673   5.625   5.331   4.299
  120OSM   H18F12674   5.547   5.252   4.295
  120OSM   H18G12675   5.716   5.294   4.248
  120OSM   H18H12676   5.582   5.419   4.247
  121OSM      N12677   6.259   1.124   6.920
  121OSM    C1512678   6.272   1.060   6.781
  121OSM   H15A12679   6.182   1.005   6.759
  121OSM   H15B12680   6.363   1.002   6.779
  121OSM   H15C12681   6.277   1.141   6.710
  121OSM    C1412682   6.149   1.237   6.913
  121OSM   H14A12683   6.146   1.288   6.817
  121OSM   H14B12684   6.178   1.319   6.978
  121OSM   H14C12685   6.050   1.194   6.919
  121OSM    C1312686   6.213   1.026   7.028
  121OSM   H13A12687   6.286   0.946   7.029
  121OSM   H13B12688   6.112   0.988   7.021
  121OSM   H13C12689   6.220   1.072   7.125
  121OSM    C1212690   6.392   1.183   6.951
  121OSM   H12A12691   6.384   1.227   7.050
  121OSM   H12B12692   6.410   1.270   6.890
  121OSM    C1112693   6.524   1.099   6.949
  121OSM   H11A12694   6.501   1.010   7.013
  121OSM   H11B12695   6.604   1.155   7.001
  121OSM      P12696   6.606   1.168   6.714
  121OSM    O1312697   6.565   1.304   6.759
  121OSM    O1412698   6.743   1.145   6.670
  121OSM    O1112699   6.519   1.127   6.588
  121OSM    O1212700   6.572   1.062   6.821
  121OSM    C1S12701   6.505   1.195   6.465
  121OSM    H1S12702   6.553   1.296   6.462
  121OSM    H1T12703   6.394   1.198   6.458
  121OSM     NF12704   6.513   1.181   6.207
  121OSM    HNF12705   6.439   1.138   6.157
  121OSM    C2S12706   6.543   1.111   6.336
  121OSM    H2S12707   6.652   1.097   6.356
  121OSM    C3S12708   6.471   0.974   6.342
  121OSM    H3S12709   6.363   0.999   6.347
  121OSM     O312710   6.499   0.901   6.462
  121OSM    HO312711   6.536   0.969   6.517
  121OSM    C4S12712   6.508   0.882   6.229
  121OSM    H4S12713   6.614   0.856   6.239
  121OSM    C5S12714   6.439   0.832   6.119
  121OSM    H5S12715   6.333   0.859   6.113
  121OSM    C6S12716   6.489   0.731   6.020
  121OSM    H6S12717   6.427   0.639   6.022
  121OSM    H6T12718   6.595   0.712   6.045
  121OSM    C7S12719   6.499   0.776   5.869
  121OSM    H7S12720   6.562   0.868   5.870
  121OSM    H7T12721   6.398   0.788   5.824
  121OSM    C8S12722   6.577   0.678   5.781
  121OSM    H8S12723   6.539   0.574   5.780
  121OSM    H8T12724   6.676   0.663   5.829
  121OSM    C9S12725   6.574   0.730   5.641
  121OSM    H9S12726   6.661   0.799   5.631
  121OSM    H9T12727   6.476   0.779   5.628
  121OSM   C10S12728   6.582   0.611   5.539
  121OSM   H10S12729   6.507   0.534   5.567
  121OSM   H10T12730   6.679   0.556   5.536
  121OSM   C11S12731   6.546   0.654   5.390
  121OSM   H11S12732   6.468   0.734   5.387
  121OSM   H11T12733   6.523   0.561   5.334
  121OSM   C12S12734   6.666   0.724   5.318
  121OSM   H12S12735   6.747   0.650   5.333
  121OSM   H12T12736   6.699   0.809   5.382
  121OSM   C13S12737   6.648   0.761   5.171
  121OSM   H13S12738   6.589   0.855   5.167
  121OSM   H13T12739   6.585   0.688   5.115
  121OSM   C14S12740   6.783   0.771   5.090
  121OSM   H14S12741   6.838   0.675   5.089
  121OSM   H14T12742   6.845   0.854   5.131
  121OSM   C15S12743   6.757   0.788   4.940
  121OSM   H15S12744   6.666   0.852   4.934
  121OSM   H15T12745   6.728   0.692   4.893
  121OSM   C16S12746   6.872   0.858   4.860
  121OSM   H16S12747   0.013   0.949   4.917
  121OSM   H16T12748   6.846   0.880   4.754
  121OSM   C17S12749   0.103   0.761   4.858
  121OSM   H17S12750   0.060   0.671   4.809
  121OSM   H17T12751   0.134   0.737   4.962
  121OSM   C18S12752   0.217   0.819   4.770
  121OSM   H18S12753   0.198   0.803   4.662
  121OSM   H18T12754   0.321   0.781   4.777
  121OSM   H18U12755   0.232   0.924   4.804
  121OSM    C1F12756   6.560   1.302   6.157
  121OSM     OF12757   6.625   1.372   6.234
  121OSM    C2F12758   6.518   1.345   6.022
  121OSM    H2F12759   6.599   1.399   5.968
  121OSM    H2G12760   6.433   1.416   6.029
  121OSM    C3F12761   6.496   1.222   5.924
  121OSM    H3F12762   6.405   1.171   5.963
  121OSM    H3G12763   6.577   1.146   5.932
  121OSM    C4F12764   6.481   1.265   5.780
  121OSM    H4F12765   6.576   1.307   5.740
  121OSM    H4G12766   6.410   1.350   5.771
  121OSM    C5F12767   6.424   1.158   5.692
  121OSM    H5F12768   6.328   1.126   5.739
  121OSM    H5G12769   6.493   1.071   5.685
  121OSM    C6F12770   6.392   1.196   5.547
  121OSM    H6F12771   6.479   1.241   5.495
  121OSM    H6G12772   6.314   1.276   5.547
  121OSM    C7F12773   6.324   1.076   5.469
  121OSM    H7F12774   6.233   1.052   5.528
  121OSM    H7G12775   6.404   0.999   5.476
  121OSM    C8F12776   6.289   1.098   5.322
  121OSM    H8F12777   6.210   1.175   5.313
  121OSM    H8G12778   6.240   1.009   5.278
  121OSM    C9F12779   6.414   1.127   5.241
  121OSM    H9F12780   6.499   1.168   5.298
  121OSM   C10F12781   6.426   1.106   5.107
  121OSM   H10F12782   6.520   1.141   5.061
  121OSM   C11F12783   6.325   1.043   5.019
  121OSM   H11F12784   6.276   0.958   5.071
  121OSM   H11G12785   6.382   1.007   4.931
  121OSM   C12F12786   6.225   1.134   4.945
  121OSM   H12F12787   6.274   1.212   4.883
  121OSM   H12G12788   6.155   1.194   5.007
  121OSM   C13F12789   6.138   1.036   4.859
  121OSM   H13F12790   6.087   0.962   4.925
  121OSM   H13G12791   6.205   0.973   4.797
  121OSM   C14F12792   6.037   1.101   4.765
  121OSM   H14F12793   5.986   1.033   4.695
  121OSM   H14G12794   6.102   1.173   4.710
  121OSM   C15F12795   5.929   1.182   4.834
  121OSM   H15F12796   5.974   1.255   4.904
  121OSM   H15G12797   5.869   1.118   4.903
  121OSM   C16F12798   5.840   1.251   4.727
  121OSM   H16F12799   5.815   1.181   4.644
  121OSM   H16G12800   5.913   1.316   4.674
  121OSM   C17F12801   5.727   1.338   4.781
  121OSM   H17F12802   5.781   1.425   4.823
  121OSM   H17G12803   5.673   1.268   4.849
  121OSM   C18F12804   5.635   1.395   4.670
  121OSM   H18F12805   5.702   1.466   4.618
  121OSM   H18G12806   5.543   1.441   4.714
  121OSM   H18H12807   5.610   1.311   4.603
  122OSM      N12808   6.396   4.617   6.650
  122OSM    C1512809   6.466   4.662   6.524
  122OSM   H15A12810   6.408   4.743   6.484
  122OSM   H15B12811   6.470   4.583   6.451
  122OSM   H15C12812   6.564   4.708   6.527
  122OSM    C1412813   6.471   4.503   6.719
  122OSM   H14A12814   6.476   4.425   6.645
  122OSM   H14B12815   6.411   4.480   6.806
  122OSM   H14C12816   6.575   4.518   6.744
  122OSM    C1312817   6.394   4.730   6.755
  122OSM   H13A12818   6.343   4.699   6.845
  122OSM   H13B12819   6.346   4.818   6.716
  122OSM   H13C12820   6.493   4.755   6.793
  122OSM    C1212821   6.256   4.575   6.613
  122OSM   H12A12822   6.212   4.659   6.562
  122OSM   H12B12823   6.198   4.547   6.700
  122OSM    C1112824   6.246   4.457   6.515
  122OSM   H11A12825   6.308   4.466   6.423
  122OSM   H11B12826   6.141   4.456   6.477
  122OSM      P12827   6.170   4.249   6.648
  122OSM    O1312828   6.235   4.119   6.703
  122OSM    O1412829   6.095   4.332   6.740
  122OSM    O1112830   6.078   4.200   6.533
  122OSM    O1212831   6.283   4.329   6.577
  122OSM    C1S12832   6.142   4.143   6.412
  122OSM    H1S12833   6.166   4.036   6.428
  122OSM    H1T12834   6.228   4.206   6.381
  122OSM     NF12835   6.109   4.088   6.176
  122OSM    HNF12836   6.134   4.154   6.107
  122OSM    C2S12837   6.038   4.144   6.291
  122OSM    H2S12838   5.951   4.075   6.306
  122OSM    C3S12839   5.973   4.283   6.279
  122OSM    H3S12840   6.053   4.358   6.261
  122OSM     O312841   5.907   4.324   6.397
  122OSM    HO312842   5.935   4.259   6.462
  122OSM    C4S12843   5.886   4.290   6.156
  122OSM    H4S12844   5.797   4.226   6.145
  122OSM    C5S12845   5.911   4.380   6.062
  122OSM    H5S12846   5.995   4.449   6.079
  122OSM    C6S12847   5.824   4.419   5.946
  122OSM    H6S12848   5.853   4.385   5.844
  122OSM    H6T12849   5.828   4.530   5.940
  122OSM    C7S12850   5.673   4.380   5.959
  122OSM    H7S12851   5.634   4.400   6.062
  122OSM    H7T12852   5.659   4.271   5.941
  122OSM    C8S12853   5.585   4.456   5.857
  122OSM    H8S12854   5.619   4.562   5.867
  122OSM    H8T12855   5.477   4.457   5.885
  122OSM    C9S12856   5.610   4.409   5.713
  122OSM    H9S12857   5.720   4.394   5.702
  122OSM    H9T12858   5.581   4.489   5.642
  122OSM   C10S12859   5.528   4.276   5.681
  122OSM   H10S12860   5.423   4.311   5.667
  122OSM   H10T12861   5.533   4.205   5.766
  122OSM   C11S12862   5.587   4.200   5.560
  122OSM   H11S12863   5.551   4.096   5.568
  122OSM   H11T12864   5.696   4.199   5.579
  122OSM   C12S12865   5.549   4.265   5.430
  122OSM   H12S12866   5.603   4.361   5.412
  122OSM   H12T12867   5.440   4.284   5.420
  122OSM   C13S12868   5.590   4.184   5.305
  122OSM   H13S12869   5.550   4.080   5.304
  122OSM   H13T12870   5.699   4.167   5.309
  122OSM   C14S12871   5.557   4.249   5.172
  122OSM   H14S12872   5.639   4.316   5.137
  122OSM   H14T12873   5.460   4.303   5.182
  122OSM   C15S12874   5.555   4.141   5.060
  122OSM   H15S12875   5.515   4.043   5.096
  122OSM   H15T12876   5.662   4.120   5.038
  122OSM   C16S12877   5.491   4.200   4.932
  122OSM   H16S12878   5.543   4.152   4.847
  122OSM   H16T12879   5.517   4.308   4.925
  122OSM   C17S12880   5.336   4.179   4.912
  122OSM   H17S12881   5.286   4.251   4.981
  122OSM   H17T12882   5.324   4.073   4.944
  122OSM   C18S12883   5.283   4.187   4.768
  122OSM   H18S12884   5.175   4.161   4.764
  122OSM   H18T12885   5.348   4.118   4.711
  122OSM   H18U12886   5.297   4.294   4.740
  122OSM    C1F12887   6.153   3.961   6.173
  122OSM     OF12888   6.123   3.877   6.256
  122OSM    C2F12889   6.246   3.928   6.067
  122OSM    H2F12890   6.327   3.864   6.108
  122OSM    H2G12891   6.302   4.018   6.033
  122OSM    C3F12892   6.170   3.866   5.954
  122OSM    H3F12893   6.089   3.933   5.920
  122OSM    H3G12894   6.115   3.778   5.996
  122OSM    C4F12895   6.258   3.809   5.842
  122OSM    H4F12896   6.321   3.720   5.866
  122OSM    H4G12897   6.323   3.894   5.811
  122OSM    C5F12898   6.158   3.778   5.731
  122OSM    H5F12899   6.098   3.870   5.715
  122OSM    H5G12900   6.098   3.689   5.760
  122OSM    C6F12901   6.228   3.741   5.598
  122OSM    H6F12902   6.288   3.649   5.613
  122OSM    H6G12903   6.308   3.818   5.585
  122OSM    C7F12904   6.142   3.730   5.476
  122OSM    H7F12905   6.116   3.831   5.439
  122OSM    H7G12906   6.047   3.680   5.502
  122OSM    C8F12907   6.204   3.654   5.359
  122OSM    H8F12908   6.125   3.607   5.297
  122OSM    H8G12909   6.258   3.569   5.406
  122OSM    C9F12910   6.284   3.738   5.256
  122OSM    H9F12911   6.337   3.825   5.298
  122OSM   C10F12912   6.282   3.735   5.124
  122OSM   H10F12913   6.347   3.802   5.065
  122OSM   C11F12914   6.199   3.644   5.037
  122OSM   H11F12915   6.132   3.577   5.095
  122OSM   H11G12916   6.260   3.572   4.978
  122OSM   C12F12917   6.105   3.735   4.947
  122OSM   H12F12918   6.151   3.823   4.897
  122OSM   H12G12919   6.026   3.784   5.008
  122OSM   C13F12920   6.050   3.659   4.827
  122OSM   H13F12921   5.954   3.616   4.863
  122OSM   H13G12922   6.115   3.571   4.815
  122OSM   C14F12923   6.016   3.734   4.698
  122OSM   H14F12924   5.967   3.672   4.619
  122OSM   H14G12925   6.115   3.765   4.658
  122OSM   C15F12926   5.925   3.860   4.722
  122OSM   H15F12927   5.996   3.945   4.727
  122OSM   H15G12928   5.862   3.852   4.814
  122OSM   C16F12929   5.823   3.880   4.608
  122OSM   H16F12930   5.781   3.781   4.582
  122OSM   H16G12931   5.872   3.920   4.516
  122OSM   C17F12932   5.716   3.984   4.635
  122OSM   H17F12933   5.745   4.090   4.653
  122OSM   H17G12934   5.669   3.952   4.730
  122OSM   C18F12935   5.597   3.965   4.532
  122OSM   H18F12936   5.600   4.025   4.439
  122OSM   H18G12937   5.502   3.995   4.581
  122OSM   H18H12938   5.581   3.861   4.497
  123OSM      N12939   2.386   3.203   1.946
  123OSM    C1512940   2.359   3.080   1.868
  123OSM   H15A12941   2.314   3.004   1.931
  123OSM   H15B12942   2.450   3.034   1.834
  123OSM   H15C12943   2.299   3.098   1.780
  123OSM    C1412944   2.473   3.294   1.857
  123OSM   H14A12945   2.427   3.329   1.766
  123OSM   H14B12946   2.567   3.244   1.841
  123OSM   H14C12947   2.498   3.381   1.916
  123OSM    C1312948   2.253   3.267   1.963
  123OSM   H13A12949   2.191   3.207   2.029
  123OSM   H13B12950   2.196   3.264   1.871
  123OSM   H13C12951   2.274   3.367   1.997
  123OSM    C1212952   2.452   3.175   2.084
  123OSM   H12A12953   2.467   3.266   2.140
  123OSM   H12B12954   2.551   3.137   2.061
  123OSM    C1112955   2.371   3.078   2.171
  123OSM   H11A12956   2.266   3.110   2.189
  123OSM   H11B12957   2.411   3.090   2.274
  123OSM      P12958   2.416   2.824   2.215
  123OSM    O1312959   2.381   2.706   2.132
  123OSM    O1412960   2.554   2.850   2.253
  123OSM    O1112961   2.318   2.835   2.341
  123OSM    O1212962   2.362   2.939   2.126
  123OSM    C1S12963   2.176   2.822   2.323
  123OSM    H1S12964   2.155   2.717   2.292
  123OSM    H1T12965   2.138   2.901   2.255
  123OSM     NF12966   1.964   2.788   2.465
  123OSM    HNF12967   1.891   2.853   2.447
  123OSM    C2S12968   2.102   2.841   2.464
  123OSM    H2S12969   2.171   2.781   2.527
  123OSM    C3S12970   2.119   2.993   2.506
  123OSM    H3S12971   2.052   3.059   2.447
  123OSM     O312972   2.250   3.055   2.485
  123OSM    HO312973   2.286   3.000   2.415
  123OSM    C4S12974   2.071   3.000   2.649
  123OSM    H4S12975   1.961   3.003   2.649
  123OSM    C5S12976   2.155   2.990   2.757
  123OSM    H5S12977   2.257   2.960   2.728
  123OSM    C6S12978   2.126   2.993   2.901
  123OSM    H6S12979   2.109   3.092   2.950
  123OSM    H6T12980   2.211   2.963   2.966
  123OSM    C7S12981   2.012   2.907   2.946
  123OSM    H7S12982   2.029   2.801   2.917
  123OSM    H7T12983   1.921   2.944   2.894
  123OSM    C8S12984   1.989   2.917   3.102
  123OSM    H8S12985   1.892   2.865   3.120
  123OSM    H8T12986   1.970   3.026   3.115
  123OSM    C9S12987   2.101   2.858   3.190
  123OSM    H9S12988   2.195   2.917   3.189
  123OSM    H9T12989   2.141   2.768   3.138
  123OSM   C10S12990   2.047   2.847   3.333
  123OSM   H10S12991   2.026   2.740   3.355
  123OSM   H10T12992   1.959   2.913   3.350
  123OSM   C11S12993   2.159   2.895   3.430
  123OSM   H11S12994   2.169   3.005   3.415
  123OSM   H11T12995   2.258   2.852   3.404
  123OSM   C12S12996   2.126   2.871   3.582
  123OSM   H12S12997   2.096   2.768   3.612
  123OSM   H12T12998   2.030   2.921   3.605
  123OSM   C13S12999   2.239   2.922   3.675
  123OSM   H13S13000   2.225   3.032   3.679
  123OSM   H13T13001   2.334   2.886   3.632
  123OSM   C14S13002   2.226   2.855   3.815
  123OSM   H14S13003   2.241   2.745   3.807
  123OSM   H14T13004   2.126   2.874   3.858
  123OSM   C15S13005   2.327   2.907   3.920
  123OSM   H15S13006   2.297   2.879   4.023
  123OSM   H15T13007   2.321   3.018   3.930
  123OSM   C16S13008   2.469   2.862   3.892
  123OSM   H16S13009   2.507   2.894   3.793
  123OSM   H16T13010   2.472   2.751   3.889
  123OSM   C17S13011   2.578   2.900   4.006
  123OSM   H17S13012   2.579   3.012   4.009
  123OSM   H17T13013   2.677   2.874   3.963
  123OSM   C18S13014   2.551   2.844   4.145
  123OSM   H18S13015   2.534   2.734   4.142
  123OSM   H18T13016   2.460   2.887   4.191
  123OSM   H18U13017   2.630   2.866   4.219
  123OSM    C1F13018   1.951   2.660   2.480
  123OSM     OF13019   2.035   2.584   2.512
  123OSM    C2F13020   1.821   2.598   2.451
  123OSM    H2F13021   1.814   2.560   2.347
  123OSM    H2G13022   1.752   2.685   2.450
  123OSM    C3F13023   1.779   2.495   2.561
  123OSM    H3F13024   1.846   2.409   2.543
  123OSM    H3G13025   1.677   2.457   2.539
  123OSM    C4F13026   1.785   2.550   2.709
  123OSM    H4F13027   1.719   2.638   2.722
  123OSM    H4G13028   1.890   2.581   2.729
  123OSM    C5F13029   1.738   2.444   2.802
  123OSM    H5F13030   1.807   2.358   2.811
  123OSM    H5G13031   1.648   2.404   2.749
  123OSM    C6F13032   1.688   2.494   2.935
  123OSM    H6F13033   1.631   2.408   2.975
  123OSM    H6G13034   1.615   2.576   2.920
  123OSM    C7F13035   1.803   2.525   3.034
  123OSM    H7F13036   1.828   2.633   3.022
  123OSM    H7G13037   1.899   2.475   3.010
  123OSM    C8F13038   1.755   2.522   3.182
  123OSM    H8F13039   1.670   2.593   3.181
  123OSM    H8G13040   1.835   2.572   3.241
  123OSM    C9F13041   1.739   2.386   3.247
  123OSM    H9F13042   1.697   2.307   3.183
  123OSM   C10F13043   1.774   2.348   3.370
  123OSM   H10F13044   1.748   2.247   3.404
  123OSM   C11F13045   1.837   2.432   3.474
  123OSM   H11F13046   1.897   2.518   3.438
  123OSM   H11G13047   1.901   2.369   3.539
  123OSM   C12F13048   1.721   2.485   3.569
  123OSM   H12F13049   1.666   2.404   3.622
  123OSM   H12G13050   1.643   2.536   3.508
  123OSM   C13F13051   1.782   2.581   3.678
  123OSM   H13F13052   1.690   2.629   3.718
  123OSM   H13G13053   1.847   2.660   3.635
  123OSM   C14F13054   1.880   2.517   3.781
  123OSM   H14F13055   1.962   2.479   3.716
  123OSM   H14G13056   1.827   2.432   3.829
  123OSM   C15F13057   1.920   2.606   3.892
  123OSM   H15F13058   1.832   2.655   3.940
  123OSM   H15G13059   1.984   2.686   3.848
  123OSM   C16F13060   2.000   2.535   4.003
  123OSM   H16F13061   2.078   2.464   3.966
  123OSM   H16G13062   1.938   2.465   4.064
  123OSM   C17F13063   2.073   2.630   4.098
  123OSM   H17F13064   2.014   2.722   4.113
  123OSM   H17G13065   2.167   2.671   4.056
  123OSM   C18F13066   2.098   2.550   4.227
  123OSM   H18F13067   2.020   2.555   4.306
  123OSM   H18G13068   2.182   2.602   4.278
  123OSM   H18H13069   2.119   2.445   4.198
  124OSM      N13070   3.191   3.708   1.725
  124OSM    C1513071   3.122   3.842   1.692
  124OSM   H15A13072   3.181   3.920   1.739
  124OSM   H15B13073   3.019   3.834   1.723
  124OSM   H15C13074   3.124   3.859   1.586
  124OSM    C1413075   3.105   3.612   1.654
  124OSM   H14A13076   3.000   3.618   1.678
  124OSM   H14B13077   3.140   3.512   1.676
  124OSM   H14C13078   3.131   3.624   1.550
  124OSM    C1313079   3.333   3.702   1.669
  124OSM   H13A13080   3.389   3.613   1.695
  124OSM   H13B13081   3.387   3.789   1.701
  124OSM   H13C13082   3.313   3.712   1.563
  124OSM    C1213083   3.191   3.672   1.871
  124OSM   H12A13084   3.260   3.742   1.917
  124OSM   H12B13085   3.222   3.570   1.889
  124OSM    C1113086   3.059   3.683   1.949
  124OSM   H11A13087   3.028   3.789   1.932
  124OSM   H11B13088   3.085   3.661   2.055
  124OSM      P13089   2.821   3.614   1.844
  124OSM    O1313090   2.830   3.724   1.747
  124OSM    O1413091   2.763   3.483   1.801
  124OSM    O1113092   2.739   3.668   1.966
  124OSM    O1213093   2.962   3.591   1.906
  124OSM    C1S13094   2.775   3.634   2.102
  124OSM    H1S13095   2.859   3.699   2.133
  124OSM    H1T13096   2.799   3.525   2.109
  124OSM     NF13097   2.688   3.659   2.338
  124OSM    HNF13098   2.654   3.583   2.392
  124OSM    C2S13099   2.657   3.665   2.198
  124OSM    H2S13100   2.641   3.771   2.169
  124OSM    C3S13101   2.522   3.594   2.163
  124OSM    H3S13102   2.526   3.496   2.216
  124OSM     O313103   2.505   3.556   2.026
  124OSM    HO313104   2.593   3.566   1.989
  124OSM    C4S13105   2.400   3.665   2.210
  124OSM    H4S13106   2.383   3.660   2.319
  124OSM    C5S13107   2.340   3.764   2.143
  124OSM    H5S13108   2.387   3.795   2.049
  124OSM    C6S13109   2.229   3.851   2.193
  124OSM    H6S13110   2.140   3.845   2.127
  124OSM    H6T13111   2.253   3.959   2.187
  124OSM    C7S13112   2.185   3.823   2.334
  124OSM    H7S13113   2.269   3.837   2.405
  124OSM    H7T13114   2.150   3.719   2.352
  124OSM    C8S13115   2.068   3.911   2.374
  124OSM    H8S13116   1.992   3.915   2.294
  124OSM    H8T13117   2.105   4.015   2.385
  124OSM    C9S13118   2.005   3.869   2.508
  124OSM    H9S13119   1.973   3.762   2.510
  124OSM    H9T13120   1.914   3.931   2.520
  124OSM   C10S13121   2.091   3.873   2.637
  124OSM   H10S13122   2.136   3.974   2.647
  124OSM   H10T13123   2.181   3.808   2.629
  124OSM   C11S13124   2.026   3.847   2.764
  124OSM   H11S13125   1.979   3.746   2.763
  124OSM   H11T13126   1.941   3.919   2.769
  124OSM   C12S13127   2.116   3.873   2.882
  124OSM   H12S13128   2.161   3.974   2.877
  124OSM   H12T13129   2.197   3.796   2.884
  124OSM   C13S13130   2.042   3.863   3.014
  124OSM   H13S13131   2.013   3.758   3.033
  124OSM   H13T13132   1.952   3.928   3.009
  124OSM   C14S13133   2.136   3.902   3.131
  124OSM   H14S13134   2.189   3.997   3.110
  124OSM   H14T13135   2.213   3.824   3.145
  124OSM   C15S13136   2.051   3.917   3.249
  124OSM   H15S13137   1.980   3.833   3.266
  124OSM   H15T13138   1.977   4.000   3.242
  124OSM   C16S13139   2.133   3.908   3.384
  124OSM   H16S13140   2.208   3.990   3.387
  124OSM   H16T13141   2.191   3.813   3.385
  124OSM   C17S13142   2.029   3.935   3.491
  124OSM   H17S13143   1.960   3.848   3.497
  124OSM   H17T13144   1.968   4.025   3.470
  124OSM   C18S13145   2.100   3.945   3.622
  124OSM   H18S13146   2.179   3.868   3.632
  124OSM   H18T13147   2.031   3.925   3.707
  124OSM   H18U13148   2.151   4.043   3.629
  124OSM    C1F13149   2.779   3.738   2.393
  124OSM     OF13150   2.804   3.848   2.340
  124OSM    C2F13151   2.845   3.688   2.517
  124OSM    H2F13152   2.943   3.640   2.495
  124OSM    H2G13153   2.784   3.611   2.569
  124OSM    C3F13154   2.859   3.793   2.633
  124OSM    H3F13155   2.761   3.817   2.681
  124OSM    H3G13156   2.907   3.885   2.594
  124OSM    C4F13157   2.937   3.747   2.756
  124OSM    H4F13158   2.946   3.837   2.820
  124OSM    H4G13159   3.042   3.713   2.739
  124OSM    C5F13160   2.865   3.644   2.836
  124OSM    H5F13161   2.875   3.543   2.789
  124OSM    H5G13162   2.754   3.649   2.830
  124OSM    C6F13163   2.911   3.639   2.982
  124OSM    H6F13164   2.843   3.571   3.038
  124OSM    H6G13165   2.903   3.738   3.031
  124OSM    C7F13166   3.060   3.592   2.999
  124OSM    H7F13167   3.124   3.667   2.948
  124OSM    H7G13168   3.065   3.488   2.960
  124OSM    C8F13169   3.098   3.564   3.149
  124OSM    H8F13170   3.191   3.504   3.148
  124OSM    H8G13171   3.024   3.510   3.212
  124OSM    C9F13172   3.122   3.699   3.211
  124OSM    H9F13173   3.176   3.778   3.157
  124OSM   C10F13174   3.069   3.740   3.329
  124OSM   H10F13175   3.078   3.845   3.360
  124OSM   C11F13176   2.997   3.668   3.437
  124OSM   H11F13177   3.069   3.625   3.510
  124OSM   H11G13178   2.945   3.577   3.402
  124OSM   C12F13179   2.898   3.768   3.499
  124OSM   H12F13180   2.851   3.727   3.590
  124OSM   H12G13181   2.825   3.793   3.418
  124OSM   C13F13182   2.950   3.898   3.561
  124OSM   H13F13183   2.863   3.947   3.610
  124OSM   H13G13184   2.988   3.963   3.479
  124OSM   C14F13185   3.062   3.884   3.667
  124OSM   H14F13186   3.147   3.826   3.626
  124OSM   H14G13187   3.026   3.832   3.759
  124OSM   C15F13188   3.117   4.015   3.707
  124OSM   H15F13189   3.038   4.093   3.711
  124OSM   H15G13190   3.185   4.049   3.626
  124OSM   C16F13191   3.195   4.020   3.841
  124OSM   H16F13192   3.295   3.973   3.827
  124OSM   H16G13193   3.146   3.959   3.920
  124OSM   C17F13194   3.224   4.163   3.898
  124OSM   H17F13195   3.135   4.228   3.908
  124OSM   H17G13196   3.281   4.214   3.817
  124OSM   C18F13197   3.298   4.156   4.033
  124OSM   H18F13198   3.402   4.120   4.018
  124OSM   H18G13199   3.245   4.092   4.107
  124OSM   H18H13200   3.309   4.255   4.082
  125OSM      N13201   4.076   0.334   1.971
  125OSM    C1513202   4.132   0.472   1.964
  125OSM   H15A13203   4.165   0.484   1.862
  125OSM   H15B13204   4.225   0.481   2.018
  125OSM   H15C13205   4.065   0.548   2.001
  125OSM    C1413206   3.947   0.340   1.888
  125OSM   H14A13207   3.889   0.249   1.883
  125OSM   H14B13208   3.969   0.364   1.785
  125OSM   H14C13209   3.883   0.416   1.930
  125OSM    C1313210   4.162   0.234   1.902
  125OSM   H13A13211   4.116   0.137   1.893
  125OSM   H13B13212   4.263   0.220   1.938
  125OSM   H13C13213   4.187   0.273   1.804
  125OSM    C1213214   4.045   0.312   2.117
  125OSM   H12A13215   3.981   0.387   2.160
  125OSM   H12B13216   4.133   0.318   2.178
  125OSM    C1113217   3.978   0.178   2.150
  125OSM   H11A13218   3.889   0.167   2.084
  125OSM   H11B13219   3.941   0.194   2.253
  125OSM      P13220   4.172   0.041   2.250
  125OSM    O1313221   4.244   6.800   2.228
  125OSM    O1413222   4.250   0.165   2.254
  125OSM    O1113223   4.084   0.031   2.376
  125OSM    O1213224   4.060   0.058   2.139
  125OSM    C1S13225   3.978   6.820   2.379
  125OSM    H1S13226   4.012   6.717   2.354
  125OSM    H1T13227   3.897   6.836   2.305
  125OSM     NF13228   3.777   6.744   2.522
  125OSM    HNF13229   3.689   6.791   2.525
  125OSM    C2S13230   3.900   6.829   2.513
  125OSM    H2S13231   3.978   6.788   2.581
  125OSM    C3S13232   3.867   0.089   2.544
  125OSM    H3S13233   3.797   0.128   2.466
  125OSM     O313234   3.970   0.188   2.542
  125OSM    HO313235   4.047   0.132   2.526
  125OSM    C4S13236   3.811   0.095   2.683
  125OSM    H4S13237   3.848   0.012   2.745
  125OSM    C5S13238   3.727   0.181   2.740
  125OSM    H5S13239   3.670   0.252   2.679
  125OSM    C6S13240   3.697   0.183   2.884
  125OSM    H6S13241   3.589   0.197   2.905
  125OSM    H6T13242   3.735   0.278   2.927
  125OSM    C7S13243   3.735   0.066   2.974
  125OSM    H7S13244   3.846   0.065   2.969
  125OSM    H7T13245   3.698   6.849   2.954
  125OSM    C8S13246   3.695   0.088   3.121
  125OSM    H8S13247   3.733   0.191   3.137
  125OSM    H8T13248   3.746   0.012   3.184
  125OSM    C9S13249   3.543   0.092   3.155
  125OSM    H9S13250   3.499   6.878   3.133
  125OSM    H9T13251   3.494   0.173   3.097
  125OSM   C10S13252   3.504   0.141   3.301
  125OSM   H10S13253   3.548   0.241   3.321
  125OSM   H10T13254   3.547   0.062   3.366
  125OSM   C11S13255   3.351   0.149   3.337
  125OSM   H11S13256   3.298   0.054   3.313
  125OSM   H11T13257   3.303   0.223   3.269
  125OSM   C12S13258   3.326   0.180   3.489
  125OSM   H12S13259   3.346   0.287   3.514
  125OSM   H12T13260   3.379   0.104   3.550
  125OSM   C13S13261   3.178   0.156   3.530
  125OSM   H13S13262   3.154   0.047   3.533
  125OSM   H13T13263   3.122   0.191   3.441
  125OSM   C14S13264   3.147   0.220   3.665
  125OSM   H14S13265   3.037   0.217   3.678
  125OSM   H14T13266   3.185   0.324   3.655
  125OSM   C15S13267   3.215   0.157   3.779
  125OSM   H15S13268   3.324   0.150   3.756
  125OSM   H15T13269   3.185   0.060   3.823
  125OSM   C16S13270   3.215   0.249   3.900
  125OSM   H16S13271   3.114   0.258   3.945
  125OSM   H16T13272   3.252   0.352   3.879
  125OSM   C17S13273   3.293   0.194   4.023
  125OSM   H17S13274   3.398   0.167   4.002
  125OSM   H17T13275   3.243   0.100   4.056
  125OSM   C18S13276   3.301   0.290   4.141
  125OSM   H18S13277   3.357   0.261   4.232
  125OSM   H18T13278   3.198   0.318   4.170
  125OSM   H18U13279   3.362   0.375   4.101
  125OSM    C1F13280   3.781   6.608   2.509
  125OSM     OF13281   3.890   6.553   2.522
  125OSM    C2F13282   3.665   6.536   2.464
  125OSM    H2F13283   3.698   6.461   2.389
  125OSM    H2G13284   3.593   6.612   2.424
  125OSM    C3F13285   3.588   6.462   2.569
  125OSM    H3F13286   3.643   6.375   2.612
  125OSM    H3G13287   3.494   6.418   2.530
  125OSM    C4F13288   3.550   6.556   2.687
  125OSM    H4F13289   3.507   6.648   2.642
  125OSM    H4G13290   3.644   6.585   2.739
  125OSM    C5F13291   3.449   6.492   2.787
  125OSM    H5F13292   3.475   6.384   2.787
  125OSM    H5G13293   3.345   6.511   2.755
  125OSM    C6F13294   3.487   6.524   2.933
  125OSM    H6F13295   3.465   6.632   2.943
  125OSM    H6G13296   3.594   6.506   2.955
  125OSM    C7F13297   3.398   6.439   3.021
  125OSM    H7F13298   3.423   6.332   3.004
  125OSM    H7G13299   3.291   6.463   2.999
  125OSM    C8F13300   3.414   6.455   3.169
  125OSM    H8F13301   3.513   6.413   3.195
  125OSM    H8G13302   3.336   6.405   3.230
  125OSM    C9F13303   3.427   6.592   3.235
  125OSM    H9F13304   3.402   6.678   3.171
  125OSM   C10F13305   3.486   6.622   3.353
  125OSM   H10F13306   3.507   6.729   3.368
  125OSM   C11F13307   3.539   6.522   3.456
  125OSM   H11F13308   3.648   6.518   3.439
  125OSM   H11G13309   3.496   6.420   3.452
  125OSM   C12F13310   3.503   6.565   3.605
  125OSM   H12F13311   3.565   6.488   3.655
  125OSM   H12G13312   3.394   6.557   3.629
  125OSM   C13F13313   3.550   6.702   3.652
  125OSM   H13F13314   3.487   6.776   3.598
  125OSM   H13G13315   3.656   6.708   3.621
  125OSM   C14F13316   3.553   6.722   3.813
  125OSM   H14F13317   3.602   6.821   3.831
  125OSM   H14G13318   3.625   6.643   3.845
  125OSM   C15F13319   3.414   6.707   3.872
  125OSM   H15F13320   3.359   6.620   3.830
  125OSM   H15G13321   3.366   6.804   3.848
  125OSM   C16F13322   3.417   6.698   4.025
  125OSM   H16F13323   3.496   6.771   4.052
  125OSM   H16G13324   3.445   6.597   4.060
  125OSM   C17F13325   3.285   6.724   4.095
  125OSM   H17F13326   3.218   6.779   4.025
  125OSM   H17G13327   3.304   6.796   4.178
  125OSM   C18F13328   3.213   6.603   4.144
  125OSM   H18F13329   3.163   6.555   4.057
  125OSM   H18G13330   3.131   6.622   4.217
  125OSM   H18H13331   3.267   6.517   4.189
  126OSM      N13332   2.402   1.325   1.910
  126OSM    C1513333   2.305   1.426   1.867
  126OSM   H15A13334   2.257   1.393   1.776
  126OSM   H15B13335   2.357   1.513   1.830
  126OSM   H15C13336   2.229   1.457   1.937
  126OSM    C1413337   2.504   1.316   1.797
  126OSM   H14A13338   2.587   1.254   1.828
  126OSM   H14B13339   2.544   1.411   1.766
  126OSM   H14C13340   2.466   1.274   1.705
  126OSM    C1313341   2.480   1.374   2.026
  126OSM   H13A13342   2.426   1.379   2.119
  126OSM   H13B13343   2.515   1.475   2.009
  126OSM   H13C13344   2.569   1.317   2.049
  126OSM    C1213345   2.338   1.189   1.932
  126OSM   H12A13346   2.414   1.122   1.969
  126OSM   H12B13347   2.299   1.153   1.838
  126OSM    C1113348   2.216   1.181   2.033
  126OSM   H11A13349   2.203   1.070   2.039
  126OSM   H11B13350   2.124   1.230   1.996
  126OSM      P13351   2.267   1.142   2.289
  126OSM    O1313352   2.315   1.222   2.406
  126OSM    O1413353   2.140   1.067   2.312
  126OSM    O1113354   2.376   1.038   2.249
  126OSM    O1213355   2.250   1.232   2.158
  126OSM    C1S13356   2.518   1.051   2.239
  126OSM    H1S13357   2.546   1.149   2.196
  126OSM    H1T13358   2.555   0.976   2.166
  126OSM     NF13359   2.729   1.035   2.353
  126OSM    HNF13360   2.782   0.951   2.346
  126OSM    C2S13361   2.588   1.025   2.374
  126OSM    H2S13362   2.553   1.102   2.446
  126OSM    C3S13363   2.543   0.890   2.443
  126OSM    H3S13364   2.560   0.801   2.378
  126OSM     O313365   2.409   0.883   2.463
  126OSM    HO313366   2.379   0.967   2.427
  126OSM    C4S13367   2.610   0.872   2.575
  126OSM    H4S13368   2.558   0.930   2.653
  126OSM    C5S13369   2.713   0.803   2.611
  126OSM    H5S13370   2.757   0.730   2.541
  126OSM    C6S13371   2.766   0.793   2.749
  126OSM    H6S13372   2.811   0.694   2.772
  126OSM    H6T13373   2.690   0.820   2.826
  126OSM    C7S13374   2.877   0.893   2.774
  126OSM    H7S13375   2.838   0.997   2.761
  126OSM    H7T13376   2.953   0.881   2.694
  126OSM    C8S13377   2.933   0.871   2.920
  126OSM    H8S13378   2.940   0.763   2.945
  126OSM    H8T13379   2.864   0.923   2.989
  126OSM    C9S13380   3.072   0.932   2.931
  126OSM    H9S13381   3.074   1.037   2.896
  126OSM    H9T13382   3.145   0.871   2.873
  126OSM   C10S13383   3.129   0.942   3.076
  126OSM   H10S13384   3.218   1.005   3.060
  126OSM   H10T13385   3.162   0.848   3.124
  126OSM   C11S13386   3.036   1.016   3.175
  126OSM   H11S13387   3.089   0.993   3.271
  126OSM   H11T13388   2.937   0.967   3.179
  126OSM   C12S13389   3.020   1.164   3.155
  126OSM   H12S13390   2.986   1.179   3.051
  126OSM   H12T13391   3.114   1.222   3.164
  126OSM   C13S13392   2.912   1.217   3.254
  126OSM   H13S13393   2.821   1.161   3.225
  126OSM   H13T13394   2.904   1.327   3.237
  126OSM   C14S13395   2.948   1.200   3.399
  126OSM   H14S13396   3.050   1.240   3.412
  126OSM   H14T13397   2.950   1.092   3.424
  126OSM   C15S13398   2.856   1.261   3.505
  126OSM   H15S13399   2.803   1.177   3.554
  126OSM   H15T13400   2.787   1.322   3.444
  126OSM   C16S13401   2.927   1.331   3.624
  126OSM   H16S13402   2.988   1.419   3.596
  126OSM   H16T13403   2.997   1.258   3.670
  126OSM   C17S13404   2.824   1.384   3.722
  126OSM   H17S13405   2.773   1.304   3.779
  126OSM   H17T13406   2.740   1.428   3.664
  126OSM   C18S13407   2.867   1.497   3.822
  126OSM   H18S13408   2.781   1.536   3.880
  126OSM   H18T13409   2.933   1.571   3.771
  126OSM   H18U13410   2.935   1.445   3.893
  126OSM    C1F13411   2.789   1.144   2.321
  126OSM     OF13412   2.726   1.249   2.323
  126OSM    C2F13413   2.931   1.135   2.300
  126OSM    H2F13414   2.962   1.169   2.199
  126OSM    H2G13415   2.969   1.032   2.315
  126OSM    C3F13416   3.005   1.229   2.402
  126OSM    H3F13417   2.950   1.326   2.411
  126OSM    H3G13418   3.105   1.255   2.363
  126OSM    C4F13419   3.043   1.180   2.540
  126OSM    H4F13420   3.127   1.107   2.537
  126OSM    H4G13421   2.957   1.128   2.586
  126OSM    C5F13422   3.101   1.295   2.632
  126OSM    H5F13423   3.143   1.368   2.559
  126OSM    H5G13424   3.188   1.268   2.695
  126OSM    C6F13425   2.997   1.372   2.717
  126OSM    H6F13426   2.943   1.312   2.793
  126OSM    H6G13427   2.915   1.400   2.648
  126OSM    C7F13428   3.057   1.496   2.777
  126OSM    H7F13429   3.106   1.565   2.705
  126OSM    H7G13430   3.138   1.468   2.846
  126OSM    C8F13431   2.946   1.571   2.855
  126OSM    H8F13432   2.851   1.553   2.800
  126OSM    H8G13433   2.955   1.682   2.853
  126OSM    C9F13434   2.932   1.516   2.997
  126OSM    H9F13435   2.962   1.412   3.017
  126OSM   C10F13436   2.886   1.581   3.104
  126OSM   H10F13437   2.900   1.528   3.200
  126OSM   C11F13438   2.845   1.724   3.119
  126OSM   H11F13439   2.742   1.734   3.160
  126OSM   H11G13440   2.843   1.776   3.020
  126OSM   C12F13441   2.934   1.804   3.211
  126OSM   H12F13442   2.894   1.908   3.201
  126OSM   H12G13443   3.040   1.811   3.179
  126OSM   C13F13444   2.928   1.758   3.354
  126OSM   H13F13445   2.984   1.662   3.356
  126OSM   H13G13446   2.824   1.736   3.388
  126OSM   C14F13447   2.975   1.859   3.464
  126OSM   H14F13448   3.081   1.891   3.457
  126OSM   H14G13449   2.963   1.820   3.567
  126OSM   C15F13450   2.892   1.986   3.454
  126OSM   H15F13451   2.782   1.970   3.443
  126OSM   H15G13452   2.918   2.035   3.358
  126OSM   C16F13453   2.908   2.080   3.569
  126OSM   H16F13454   2.913   2.019   3.662
  126OSM   H16G13455   2.810   2.129   3.583
  126OSM   C17F13456   3.021   2.177   3.563
  126OSM   H17F13457   3.121   2.131   3.546
  126OSM   H17G13458   3.032   2.239   3.655
  126OSM   C18F13459   3.008   2.293   3.456
  126OSM   H18F13460   2.909   2.341   3.476
  126OSM   H18G13461   3.006   2.256   3.351
  126OSM   H18H13462   3.077   2.378   3.471
  127OSM      N13463   1.194   3.318   2.073
  127OSM    C1513464   1.118   3.448   2.063
  127OSM   H15A13465   1.031   3.434   2.001
  127OSM   H15B13466   1.171   3.528   2.013
  127OSM   H15C13467   1.081   3.479   2.160
  127OSM    C1413468   1.318   3.338   2.161
  127OSM   H14A13469   1.388   3.258   2.138
  127OSM   H14B13470   1.304   3.337   2.268
  127OSM   H14C13471   1.370   3.432   2.146
  127OSM    C1313472   1.108   3.217   2.126
  127OSM   H13A13473   1.016   3.218   2.069
  127OSM   H13B13474   1.078   3.232   2.229
  127OSM   H13C13475   1.150   3.118   2.123
  127OSM    C1213476   1.243   3.275   1.928
  127OSM   H12A13477   1.287   3.358   1.876
  127OSM   H12B13478   1.161   3.243   1.865
  127OSM    C1113479   1.345   3.153   1.919
  127OSM   H11A13480   1.358   3.144   1.809
  127OSM   H11B13481   1.288   3.067   1.959
  127OSM      P13482   1.611   3.139   1.938
  127OSM    O1313483   1.630   2.995   1.956
  127OSM    O1413484   1.632   3.208   1.809
  127OSM    O1113485   1.703   3.199   2.049
  127OSM    O1213486   1.471   3.183   1.985
  127OSM    C1S13487   1.672   3.189   2.185
  127OSM    H1S13488   1.603   3.105   2.212
  127OSM    H1T13489   1.608   3.276   2.211
  127OSM     NF13490   1.747   3.184   2.409
  127OSM    HNF13491   1.731   3.264   2.466
  127OSM    C2S13492   1.792   3.208   2.272
  127OSM    H2S13493   1.858   3.123   2.243
  127OSM    C3S13494   1.880   3.342   2.243
  127OSM    H3S13495   1.815   3.432   2.245
  127OSM     O313496   1.949   3.340   2.120
  127OSM    HO313497   1.933   3.255   2.078
  127OSM    C4S13498   1.990   3.361   2.351
  127OSM    H4S13499   2.033   3.271   2.397
  127OSM    C5S13500   2.012   3.479   2.413
  127OSM    H5S13501   1.953   3.566   2.380
  127OSM    C6S13502   2.097   3.496   2.535
  127OSM    H6S13503   2.142   3.598   2.531
  127OSM    H6T13504   2.190   3.437   2.533
  127OSM    C7S13505   2.025   3.480   2.672
  127OSM    H7S13506   1.943   3.554   2.664
  127OSM    H7T13507   2.097   3.524   2.743
  127OSM    C8S13508   1.978   3.345   2.704
  127OSM    H8S13509   2.060   3.274   2.730
  127OSM    H8T13510   1.905   3.318   2.625
  127OSM    C9S13511   1.884   3.349   2.831
  127OSM    H9S13512   1.819   3.259   2.832
  127OSM    H9T13513   1.813   3.432   2.813
  127OSM   C10S13514   1.951   3.369   2.967
  127OSM   H10S13515   1.985   3.475   2.975
  127OSM   H10T13516   2.039   3.302   2.975
  127OSM   C11S13517   1.854   3.335   3.084
  127OSM   H11S13518   1.809   3.235   3.066
  127OSM   H11T13519   1.777   3.414   3.086
  127OSM   C12S13520   1.934   3.327   3.220
  127OSM   H12S13521   2.008   3.408   3.235
  127OSM   H12T13522   1.994   3.234   3.210
  127OSM   C13S13523   1.834   3.320   3.335
  127OSM   H13S13524   1.768   3.237   3.301
  127OSM   H13T13525   1.793   3.423   3.340
  127OSM   C14S13526   1.890   3.281   3.470
  127OSM   H14S13527   1.939   3.182   3.454
  127OSM   H14T13528   1.803   3.260   3.536
  127OSM   C15S13529   1.994   3.375   3.536
  127OSM   H15S13530   2.050   3.445   3.470
  127OSM   H15T13531   2.071   3.314   3.587
  127OSM   C16S13532   1.932   3.467   3.645
  127OSM   H16S13533   1.872   3.405   3.715
  127OSM   H16T13534   1.850   3.523   3.595
  127OSM   C17S13535   2.041   3.562   3.704
  127OSM   H17S13536   2.081   3.631   3.627
  127OSM   H17T13537   2.127   3.507   3.748
  127OSM   C18S13538   1.985   3.657   3.811
  127OSM   H18S13539   1.891   3.704   3.775
  127OSM   H18T13540   2.058   3.739   3.828
  127OSM   H18U13541   1.972   3.600   3.905
  127OSM    C1F13542   1.710   3.062   2.457
  127OSM     OF13543   1.753   2.961   2.404
  127OSM    C2F13544   1.635   3.060   2.589
  127OSM    H2F13545   1.529   3.087   2.568
  127OSM    H2G13546   1.676   3.140   2.654
  127OSM    C3F13547   1.648   2.917   2.650
  127OSM    H3F13548   1.756   2.892   2.650
  127OSM    H3G13549   1.601   2.851   2.573
  127OSM    C4F13550   1.562   2.902   2.777
  127OSM    H4F13551   1.580   2.801   2.819
  127OSM    H4G13552   1.453   2.915   2.758
  127OSM    C5F13553   1.609   2.982   2.902
  127OSM    H5F13554   1.606   3.092   2.886
  127OSM    H5G13555   1.717   2.966   2.920
  127OSM    C6F13556   1.531   2.946   3.036
  127OSM    H6F13557   1.538   2.836   3.050
  127OSM    H6G13558   1.431   2.994   3.026
  127OSM    C7F13559   1.589   3.012   3.165
  127OSM    H7F13560   1.612   3.116   3.134
  127OSM    H7G13561   1.691   2.970   3.182
  127OSM    C8F13562   1.496   3.010   3.286
  127OSM    H8F13563   1.398   3.053   3.257
  127OSM    H8G13564   1.534   3.084   3.361
  127OSM    C9F13565   1.478   2.867   3.324
  127OSM    H9F13566   1.402   2.805   3.275
  127OSM   C10F13567   1.541   2.823   3.434
  127OSM   H10F13568   1.535   2.716   3.462
  127OSM   C11F13569   1.633   2.909   3.521
  127OSM   H11F13570   1.678   3.001   3.477
  127OSM   H11G13571   1.722   2.849   3.550
  127OSM   C12F13572   1.563   2.942   3.651
  127OSM   H12F13573   1.549   2.850   3.712
  127OSM   H12G13574   1.461   2.982   3.636
  127OSM   C13F13575   1.651   3.033   3.738
  127OSM   H13F13576   1.615   3.037   3.843
  127OSM   H13G13577   1.637   3.138   3.702
  127OSM   C14F13578   1.802   3.004   3.758
  127OSM   H14F13579   1.854   3.010   3.661
  127OSM   H14G13580   1.823   2.903   3.798
  127OSM   C15F13581   1.871   3.100   3.854
  127OSM   H15F13582   1.831   3.203   3.839
  127OSM   H15G13583   1.980   3.094   3.835
  127OSM   C16F13584   1.850   3.053   4.000
  127OSM   H16F13585   1.899   2.953   4.007
  127OSM   H16G13586   1.741   3.046   4.020
  127OSM   C17F13587   1.921   3.150   4.101
  127OSM   H17F13588   1.903   3.115   4.205
  127OSM   H17G13589   1.868   3.248   4.096
  127OSM   C18F13590   2.068   3.177   4.090
  127OSM   H18F13591   2.107   3.102   4.163
  127OSM   H18G13592   2.093   3.278   4.128
  127OSM   H18H13593   2.107   3.162   3.987
  128OSM      N13594   1.546   0.620   1.855
  128OSM    C1513595   1.680   0.589   1.897
  128OSM   H15A13596   1.737   0.535   1.824
  128OSM   H15B13597   1.673   0.528   1.986
  128OSM   H15C13598   1.739   0.677   1.917
  128OSM    C1413599   1.545   0.698   1.726
  128OSM   H14A13600   1.599   0.791   1.733
  128OSM   H14B13601   1.443   0.724   1.704
  128OSM   H14C13602   1.590   0.644   1.643
  128OSM    C1313603   1.462   0.493   1.829
  128OSM   H13A13604   1.454   0.445   1.926
  128OSM   H13B13605   1.511   0.435   1.753
  128OSM   H13C13606   1.360   0.522   1.809
  128OSM    C1213607   1.478   0.695   1.970
  128OSM   H12A13608   1.371   0.703   1.955
  128OSM   H12B13609   1.503   0.800   1.968
  128OSM    C1113610   1.492   0.640   2.119
  128OSM   H11A13611   1.477   0.530   2.113
  128OSM   H11B13612   1.402   0.681   2.171
  128OSM      P13613   1.638   0.828   2.218
  128OSM    O1313614   1.774   0.830   2.278
  128OSM    O1413615   1.610   0.917   2.107
  128OSM    O1113616   1.533   0.848   2.338
  128OSM    O1213617   1.614   0.677   2.176
  128OSM    C1S13618   1.567   0.788   2.463
  128OSM    H1S13619   1.640   0.705   2.457
  128OSM    H1T13620   1.471   0.750   2.504
  128OSM     NF13621   1.644   0.820   2.695
  128OSM    HNF13622   1.568   0.794   2.755
  128OSM    C2S13623   1.607   0.890   2.579
  128OSM    H2S13624   1.691   0.952   2.541
  128OSM    C3S13625   1.479   0.986   2.595
  128OSM    H3S13626   1.396   0.915   2.614
  128OSM     O313627   1.443   1.060   2.475
  128OSM    HO313628   1.500   1.009   2.416
  128OSM    C4S13629   1.498   1.090   2.697
  128OSM    H4S13630   1.572   1.168   2.678
  128OSM    C5S13631   1.430   1.096   2.811
  128OSM    H5S13632   1.356   1.019   2.836
  128OSM    C6S13633   1.446   1.205   2.918
  128OSM    H6S13634   1.355   1.268   2.921
  128OSM    H6T13635   1.529   1.273   2.892
  128OSM    C7S13636   1.481   1.143   3.055
  128OSM    H7S13637   1.565   1.071   3.041
  128OSM    H7T13638   1.395   1.086   3.096
  128OSM    C8S13639   1.513   1.248   3.163
  128OSM    H8S13640   1.449   1.339   3.153
  128OSM    H8T13641   1.613   1.292   3.147
  128OSM    C9S13642   1.502   1.199   3.307
  128OSM    H9S13643   1.600   1.163   3.344
  128OSM    H9T13644   1.425   1.119   3.302
  128OSM   C10S13645   1.450   1.301   3.415
  128OSM   H10S13646   1.467   1.252   3.513
  128OSM   H10T13647   1.342   1.318   3.396
  128OSM   C11S13648   1.529   1.432   3.412
  128OSM   H11S13649   1.520   1.482   3.313
  128OSM   H11T13650   1.637   1.411   3.419
  128OSM   C12S13651   1.488   1.534   3.524
  128OSM   H12S13652   1.466   1.476   3.616
  128OSM   H12T13653   1.389   1.572   3.491
  128OSM   C13S13654   1.597   1.643   3.559
  128OSM   H13S13655   1.551   1.721   3.624
  128OSM   H13T13656   1.636   1.689   3.466
  128OSM   C14S13657   1.718   1.584   3.630
  128OSM   H14S13658   1.805   1.653   3.632
  128OSM   H14T13659   1.760   1.494   3.580
  128OSM   C15S13660   1.685   1.551   3.777
  128OSM   H15S13661   1.597   1.483   3.781
  128OSM   H15T13662   1.654   1.642   3.833
  128OSM   C16S13663   1.802   1.473   3.840
  128OSM   H16S13664   1.895   1.533   3.837
  128OSM   H16T13665   1.824   1.378   3.786
  128OSM   C17S13666   1.777   1.419   3.982
  128OSM   H17S13667   1.860   1.353   4.014
  128OSM   H17T13668   1.689   1.352   3.968
  128OSM   C18S13669   1.739   1.541   4.074
  128OSM   H18S13670   1.770   1.516   4.177
  128OSM   H18T13671   1.628   1.545   4.072
  128OSM   H18U13672   1.781   1.637   4.039
  128OSM    C1F13673   1.765   0.773   2.711
  128OSM     OF13674   1.859   0.813   2.651
  128OSM    C2F13675   1.777   0.663   2.813
  128OSM    H2F13676   1.846   0.583   2.780
  128OSM    H2G13677   1.674   0.622   2.823
  128OSM    C3F13678   1.834   0.724   2.951
  128OSM    H3F13679   1.775   0.816   2.968
  128OSM    H3G13680   1.934   0.772   2.940
  128OSM    C4F13681   1.829   0.624   3.061
  128OSM    H4F13682   1.908   0.548   3.040
  128OSM    H4G13683   1.733   0.568   3.054
  128OSM    C5F13684   1.845   0.683   3.198
  128OSM    H5F13685   1.774   0.769   3.199
  128OSM    H5G13686   1.945   0.730   3.208
  128OSM    C6F13687   1.818   0.582   3.310
  128OSM    H6F13688   1.880   0.491   3.292
  128OSM    H6G13689   1.709   0.560   3.306
  128OSM    C7F13690   1.870   0.642   3.438
  128OSM    H7F13691   1.831   0.745   3.452
  128OSM    H7G13692   1.978   0.651   3.417
  128OSM    C8F13693   1.832   0.554   3.554
  128OSM    H8F13694   1.820   0.448   3.523
  128OSM    H8G13695   1.738   0.583   3.604
  128OSM    C9F13696   1.942   0.539   3.659
  128OSM    H9F13697   2.042   0.563   3.620
  128OSM   C10F13698   1.933   0.542   3.791
  128OSM   H10F13699   2.029   0.532   3.845
  128OSM   C11F13700   1.812   0.520   3.873
  128OSM   H11F13701   1.732   0.464   3.821
  128OSM   H11G13702   1.760   0.611   3.908
  128OSM   C12F13703   1.851   0.421   3.990
  128OSM   H12F13704   1.959   0.396   3.999
  128OSM   H12G13705   1.807   0.324   3.960
  128OSM   C13F13706   1.792   0.476   4.126
  128OSM   H13F13707   1.829   0.575   4.160
  128OSM   H13G13708   1.824   0.399   4.200
  128OSM   C14F13709   1.636   0.467   4.141
  128OSM   H14F13710   1.596   0.364   4.140
  128OSM   H14G13711   1.581   0.529   4.066
  128OSM   C15F13712   1.592   0.534   4.274
  128OSM   H15F13713   1.520   0.615   4.250
  128OSM   H15G13714   1.680   0.580   4.323
  128OSM   C16F13715   1.514   0.442   4.376
  128OSM   H16F13716   1.583   0.357   4.392
  128OSM   H16G13717   1.427   0.401   4.320
  128OSM   C17F13718   1.476   0.517   4.499
  128OSM   H17F13719   1.375   0.475   4.517
  128OSM   H17G13720   1.449   0.625   4.490
  128OSM   C18F13721   1.567   0.484   4.624
  128OSM   H18F13722   1.664   0.535   4.607
  128OSM   H18G13723   1.586   0.375   4.624
  128OSM   H18H13724   1.537   0.527   4.722
  129OSM      N13725   3.324   6.828   1.680
  129OSM    C1513726   3.174   6.829   1.688
  129OSM   H15A13727   3.133   6.828   1.588
  129OSM   H15B13728   3.136   0.031   1.737
  129OSM   H15C13729   3.148   6.739   1.742
  129OSM    C1413730   3.379   6.724   1.586
  129OSM   H14A13731   3.327   6.631   1.607
  129OSM   H14B13732   3.487   6.715   1.593
  129OSM   H14C13733   3.349   6.754   1.487
  129OSM    C1313734   3.372   0.072   1.634
  129OSM   H13A13735   3.465   0.059   1.580
  129OSM   H13B13736   3.402   0.130   1.721
  129OSM   H13C13737   3.307   0.126   1.568
  129OSM    C1213738   3.383   6.787   1.825
  129OSM   H12A13739   3.486   6.756   1.815
  129OSM   H12B13740   3.331   6.697   1.856
  129OSM    C1113741   3.369   0.004   1.945
  129OSM   H11A13742   3.402   6.853   2.044
  129OSM   H11B13743   3.262   0.025   1.964
  129OSM      P13744   3.591   0.131   1.928
  129OSM    O1313745   3.640   6.876   1.902
  129OSM    O1413746   3.640   0.247   1.842
  129OSM    O1113747   3.621   0.171   2.073
  129OSM    O1213748   3.430   0.127   1.928
  129OSM    C1S13749   3.529   0.199   2.178
  129OSM    H1S13750   3.458   0.116   2.199
  129OSM    H1T13751   3.471   0.290   2.149
  129OSM     NF13752   3.503   0.255   2.414
  129OSM    HNF13753   3.451   0.340   2.423
  129OSM    C2S13754   3.595   0.251   2.307
  129OSM    H2S13755   3.677   0.181   2.335
  129OSM    C3S13756   3.664   0.390   2.273
  129OSM    H3S13757   3.582   0.457   2.240
  129OSM     O313758   3.753   0.392   2.168
  129OSM    HO313759   3.741   0.303   2.132
  129OSM    C4S13760   3.726   0.435   2.397
  129OSM    H4S13761   3.802   0.363   2.429
  129OSM    C5S13762   3.701   0.545   2.479
  129OSM    H5S13763   3.634   0.630   2.459
  129OSM    C6S13764   3.772   0.559   2.613
  129OSM    H6S13765   3.836   0.649   2.601
  129OSM    H6T13766   3.841   0.475   2.637
  129OSM    C7S13767   3.663   0.564   2.713
  129OSM    H7S13768   3.622   0.461   2.712
  129OSM    H7T13769   3.583   0.638   2.693
  129OSM    C8S13770   3.725   0.585   2.852
  129OSM    H8S13771   3.745   0.694   2.853
  129OSM    H8T13772   3.821   0.530   2.860
  129OSM    C9S13773   3.613   0.542   2.951
  129OSM    H9S13774   3.579   0.440   2.927
  129OSM    H9T13775   3.522   0.600   2.921
  129OSM   C10S13776   3.660   0.558   3.093
  129OSM   H10S13777   3.704   0.658   3.115
  129OSM   H10T13778   3.734   0.479   3.118
  129OSM   C11S13779   3.531   0.557   3.183
  129OSM   H11S13780   3.480   0.459   3.180
  129OSM   H11T13781   3.463   0.640   3.153
  129OSM   C12S13782   3.570   0.577   3.334
  129OSM   H12S13783   3.642   0.661   3.344
  129OSM   H12T13784   3.621   0.482   3.364
  129OSM   C13S13785   3.438   0.609   3.414
  129OSM   H13S13786   3.361   0.529   3.402
  129OSM   H13T13787   3.405   0.710   3.382
  129OSM   C14S13788   3.457   0.623   3.571
  129OSM   H14S13789   3.517   0.715   3.591
  129OSM   H14T13790   3.509   0.533   3.609
  129OSM   C15S13791   3.319   0.634   3.645
  129OSM   H15S13792   3.253   0.545   3.642
  129OSM   H15T13793   3.261   0.721   3.606
  129OSM   C16S13794   3.344   0.661   3.792
  129OSM   H16S13795   3.417   0.745   3.801
  129OSM   H16T13796   3.370   0.575   3.857
  129OSM   C17S13797   3.210   0.707   3.861
  129OSM   H17S13798   3.117   0.647   3.848
  129OSM   H17T13799   3.183   0.804   3.814
  129OSM   C18S13800   3.225   0.725   4.017
  129OSM   H18S13801   3.138   0.765   4.075
  129OSM   H18T13802   3.310   0.797   4.020
  129OSM   H18U13803   3.246   0.628   4.067
  129OSM    C1F13804   3.448   0.151   2.477
  129OSM     OF13805   3.510   0.045   2.458
  129OSM    C2F13806   3.330   0.179   2.570
  129OSM    H2F13807   3.244   0.128   2.521
  129OSM    H2G13808   3.315   0.288   2.579
  129OSM    C3F13809   3.339   0.109   2.705
  129OSM    H3F13810   3.408   0.165   2.772
  129OSM    H3G13811   3.388   0.010   2.697
  129OSM    C4F13812   3.208   0.085   2.791
  129OSM    H4F13813   3.126   0.048   2.725
  129OSM    H4G13814   3.176   0.185   2.825
  129OSM    C5F13815   3.224   6.876   2.911
  129OSM    H5F13816   3.331   0.006   2.937
  129OSM    H5G13817   3.215   6.772   2.873
  129OSM    C6F13818   3.134   0.022   3.036
  129OSM    H6F13819   3.049   0.083   3.000
  129OSM    H6G13820   3.192   0.084   3.108
  129OSM    C7F13821   3.078   6.779   3.093
  129OSM    H7F13822   3.162   6.706   3.091
  129OSM    H7G13823   3.009   6.732   3.021
  129OSM    C8F13824   3.005   6.807   3.218
  129OSM    H8F13825   2.930   0.001   3.199
  129OSM    H8G13826   3.077   6.850   3.291
  129OSM    C9F13827   2.917   6.697   3.269
  129OSM    H9F13828   2.830   6.684   3.203
  129OSM   C10F13829   2.926   6.615   3.377
  129OSM   H10F13830   2.849   6.538   3.393
  129OSM   C11F13831   3.045   6.606   3.470
  129OSM   H11F13832   3.110   6.696   3.467
  129OSM   H11G13833   3.108   6.524   3.428
  129OSM   C12F13834   2.995   6.599   3.612
  129OSM   H12F13835   3.074   6.581   3.687
  129OSM   H12G13836   2.930   6.508   3.609
  129OSM   C13F13837   2.928   6.730   3.663
  129OSM   H13F13838   2.820   6.731   3.638
  129OSM   H13G13839   2.970   6.823   3.619
  129OSM   C14F13840   2.950   6.750   3.820
  129OSM   H14F13841   3.056   6.780   3.832
  129OSM   H14G13842   2.926   6.656   3.874
  129OSM   C15F13843   2.871   6.867   3.879
  129OSM   H15F13844   2.763   6.850   3.858
  129OSM   H15G13845   2.898   0.080   3.838
  129OSM   C16F13846   2.897   0.000   4.038
  129OSM   H16F13847   2.992   0.057   4.042
  129OSM   H16G13848   2.928   6.790   4.084
  129OSM   C17F13849   2.787   0.084   4.106
  129OSM   H17F13850   2.698   0.017   4.103
  129OSM   H17G13851   2.772   0.175   4.045
  129OSM   C18F13852   2.828   0.135   4.249
  129OSM   H18F13853   2.875   0.059   4.315
  129OSM   H18G13854   2.748   0.193   4.299
  129OSM   H18H13855   2.910   0.209   4.244
  130OSM      N13856   3.857   4.144   1.807
  130OSM    C1513857   3.987   4.085   1.746
  130OSM   H15A13858   3.966   4.081   1.640
  130OSM   H15B13859   4.007   3.985   1.781
  130OSM   H15C13860   4.079   4.140   1.758
  130OSM    C1413861   3.855   4.297   1.777
  130OSM   H14A13862   3.762   4.340   1.811
  130OSM   H14B13863   3.857   4.305   1.669
  130OSM   H14C13864   3.935   4.351   1.826
  130OSM    C1313865   3.739   4.082   1.744
  130OSM   H13A13866   3.731   3.975   1.757
  130OSM   H13B13867   3.739   4.098   1.637
  130OSM   H13C13868   3.646   4.127   1.777
  130OSM    C1213869   3.861   4.113   1.959
  130OSM   H12A13870   3.949   4.161   2.000
  130OSM   H12B13871   3.887   4.009   1.977
  130OSM    C1113872   3.735   4.141   2.040
  130OSM   H11A13873   3.759   4.121   2.146
  130OSM   H11B13874   3.669   4.061   2.001
  130OSM      P13875   3.525   4.301   1.998
  130OSM    O1313876   3.516   4.444   1.957
  130OSM    O1413877   3.470   4.214   1.899
  130OSM    O1113878   3.464   4.288   2.143
  130OSM    O1213879   3.678   4.266   2.019
  130OSM    C1S13880   3.529   4.321   2.266
  130OSM    H1S13881   3.536   4.431   2.282
  130OSM    H1T13882   3.634   4.290   2.280
  130OSM     NF13883   3.506   4.322   2.509
  130OSM    HNF13884   3.555   4.257   2.567
  130OSM    C2S13885   3.453   4.259   2.384
  130OSM    H2S13886   3.349   4.297   2.377
  130OSM    C3S13887   3.445   4.106   2.376
  130OSM    H3S13888   3.551   4.073   2.378
  130OSM     O313889   3.395   4.053   2.253
  130OSM    HO313890   3.427   4.116   2.189
  130OSM    C4S13891   3.378   4.047   2.495
  130OSM    H4S13892   3.275   4.083   2.508
  130OSM    C5S13893   3.420   3.948   2.578
  130OSM    H5S13894   3.523   3.911   2.566
  130OSM    C6S13895   3.327   3.884   2.680
  130OSM    H6S13896   3.353   3.777   2.695
  130OSM    H6T13897   3.225   3.876   2.637
  130OSM    C7S13898   3.317   3.971   2.820
  130OSM    H7S13899   3.240   3.928   2.888
  130OSM    H7T13900   3.272   4.066   2.785
  130OSM    C8S13901   3.450   3.996   2.895
  130OSM    H8S13902   3.503   4.062   2.823
  130OSM    H8T13903   3.514   3.905   2.889
  130OSM    C9S13904   3.453   4.060   3.034
  130OSM    H9S13905   3.381   4.144   3.045
  130OSM    H9T13906   3.551   4.110   3.049
  130OSM   C10S13907   3.424   3.950   3.134
  130OSM   H10S13908   3.495   3.869   3.107
  130OSM   H10T13909   3.327   3.900   3.114
  130OSM   C11S13910   3.455   3.989   3.281
  130OSM   H11S13911   3.560   4.023   3.294
  130OSM   H11T13912   3.446   3.898   3.344
  130OSM   C12S13913   3.363   4.103   3.328
  130OSM   H12S13914   3.259   4.070   3.307
  130OSM   H12T13915   3.370   4.189   3.259
  130OSM   C13S13916   3.395   4.143   3.482
  130OSM   H13S13917   3.380   4.051   3.542
  130OSM   H13T13918   3.317   4.215   3.516
  130OSM   C14S13919   3.537   4.214   3.506
  130OSM   H14S13920   3.612   4.140   3.470
  130OSM   H14T13921   3.569   4.221   3.612
  130OSM   C15S13922   3.566   4.345   3.442
  130OSM   H15S13923   3.563   4.340   3.331
  130OSM   H15T13924   3.668   4.376   3.475
  130OSM   C16S13925   3.467   4.454   3.487
  130OSM   H16S13926   3.369   4.425   3.444
  130OSM   H16T13927   3.494   4.551   3.439
  130OSM   C17S13928   3.458   4.479   3.634
  130OSM   H17S13929   3.564   4.488   3.666
  130OSM   H17T13930   3.418   4.402   3.704
  130OSM   C18S13931   3.407   4.622   3.658
  130OSM   H18S13932   3.431   4.691   3.574
  130OSM   H18T13933   3.434   4.672   3.753
  130OSM   H18U13934   3.296   4.619   3.658
  130OSM    C1F13935   3.479   4.445   2.548
  130OSM     OF13936   3.411   4.525   2.478
  130OSM    C2F13937   3.530   4.492   2.687
  130OSM    H2F13938   3.451   4.560   2.726
  130OSM    H2G13939   3.624   4.544   2.661
  130OSM    C3F13940   3.562   4.375   2.789
  130OSM    H3F13941   3.641   4.315   2.740
  130OSM    H3G13942   3.470   4.321   2.821
  130OSM    C4F13943   3.623   4.425   2.923
  130OSM    H4F13944   3.629   4.350   3.004
  130OSM    H4G13945   3.547   4.493   2.967
  130OSM    C5F13946   3.752   4.518   2.924
  130OSM    H5F13947   3.738   4.589   2.840
  130OSM    H5G13948   3.840   4.459   2.891
  130OSM    C6F13949   3.758   4.582   3.060
  130OSM    H6F13950   3.769   4.504   3.138
  130OSM    H6G13951   3.662   4.631   3.089
  130OSM    C7F13952   3.864   4.690   3.081
  130OSM    H7F13953   3.846   4.777   3.015
  130OSM    H7G13954   3.957   4.650   3.036
  130OSM    C8F13955   3.876   4.746   3.229
  130OSM    H8F13956   3.788   4.803   3.266
  130OSM    H8G13957   3.951   4.828   3.228
  130OSM    C9F13958   3.926   4.650   3.329
  130OSM    H9F13959   3.976   4.562   3.286
  130OSM   C10F13960   3.900   4.668   3.456
  130OSM   H10F13961   3.944   4.593   3.524
  130OSM   C11F13962   3.824   4.783   3.522
  130OSM   H11F13963   3.717   4.756   3.506
  130OSM   H11G13964   3.847   4.877   3.469
  130OSM   C12F13965   3.848   4.781   3.675
  130OSM   H12F13966   3.791   4.694   3.713
  130OSM   H12G13967   3.790   4.865   3.719
  130OSM   C13F13968   3.996   4.797   3.724
  130OSM   H13F13969   4.025   4.897   3.684
  130OSM   H13G13970   4.051   4.713   3.677
  130OSM   C14F13971   4.001   4.806   3.880
  130OSM   H14F13972   3.951   4.903   3.901
  130OSM   H14G13973   4.104   4.811   3.921
  130OSM   C15F13974   3.918   4.706   3.959
  130OSM   H15F13975   3.946   4.601   3.938
  130OSM   H15G13976   3.814   4.724   3.924
  130OSM   C16F13977   3.918   4.728   4.112
  130OSM   H16F13978   3.841   4.659   4.153
  130OSM   H16G13979   3.901   4.836   4.136
  130OSM   C17F13980   4.053   4.689   4.178
  130OSM   H17F13981   4.135   4.752   4.138
  130OSM   H17G13982   4.070   4.581   4.161
  130OSM   C18F13983   4.055   4.712   4.329
  130OSM   H18F13984   4.154   4.700   4.378
  130OSM   H18G13985   3.987   4.638   4.376
  130OSM   H18H13986   4.020   4.813   4.359
  131OSM      N13987   0.606   0.735   2.108
  131OSM    C1513988   0.698   0.625   2.069
  131OSM   H15A13989   0.796   0.668   2.052
  131OSM   H15B13990   0.667   0.565   1.985
  131OSM   H15C13991   0.699   0.559   2.154
  131OSM    C1413992   0.631   0.856   2.020
  131OSM   H14A13993   0.584   0.947   2.053
  131OSM   H14B13994   0.603   0.837   1.917
  131OSM   H14C13995   0.737   0.872   2.012
  131OSM    C1313996   0.458   0.698   2.094
  131OSM   H13A13997   0.393   0.780   2.121
  131OSM   H13B13998   0.437   0.613   2.156
  131OSM   H13C13999   0.430   0.671   1.994
  131OSM    C1214000   0.654   0.778   2.251
  131OSM   H12A14001   0.604   0.713   2.320
  131OSM   H12B14002   0.620   0.877   2.277
  131OSM    C1114003   0.804   0.766   2.285
  131OSM   H11A14004   0.849   0.666   2.268
  131OSM   H11B14005   0.808   0.780   2.395
  131OSM      P14006   1.002   0.840   2.133
  131OSM    O1314007   0.971   0.749   2.021
  131OSM    O1414008   1.061   0.972   2.094
  131OSM    O1114009   1.092   0.766   2.234
  131OSM    O1214010   0.868   0.867   2.214
  131OSM    C1S14011   1.136   0.814   2.365
  131OSM    H1S14012   1.094   0.915   2.382
  131OSM    H1T14013   1.246   0.822   2.366
  131OSM     NF14014   1.076   0.787   2.614
  131OSM    HNF14015   1.135   0.753   2.687
  131OSM    C2S14016   1.083   0.718   2.479
  131OSM    H2S14017   0.979   0.692   2.448
  131OSM    C3S14018   1.170   0.584   2.469
  131OSM    H3S14019   1.276   0.596   2.501
  131OSM     O314020   1.180   0.539   2.337
  131OSM    HO314021   1.160   0.608   2.273
  131OSM    C4S14022   1.104   0.483   2.557
  131OSM    H4S14023   0.996   0.482   2.537
  131OSM    C5S14024   1.153   0.399   2.651
  131OSM    H5S14025   1.261   0.386   2.669
  131OSM    C6S14026   1.057   0.307   2.717
  131OSM    H6S14027   1.051   0.211   2.663
  131OSM    H6T14028   0.954   0.348   2.701
  131OSM    C7S14029   1.087   0.301   2.871
  131OSM    H7S14030   1.066   0.398   2.921
  131OSM    H7T14031   1.196   0.283   2.885
  131OSM    C8S14032   1.009   0.190   2.934
  131OSM    H8S14033   1.044   0.093   2.892
  131OSM    H8T14034   0.902   0.190   2.904
  131OSM    C9S14035   1.033   0.180   3.084
  131OSM    H9S14036   0.961   0.123   3.147
  131OSM    H9T14037   1.019   0.283   3.121
  131OSM   C10S14038   1.175   0.135   3.130
  131OSM   H10S14039   1.240   0.219   3.099
  131OSM   H10T14040   1.202   0.041   3.077
  131OSM   C11S14041   1.190   0.101   3.279
  131OSM   H11S14042   1.137   0.004   3.289
  131OSM   H11T14043   1.132   0.177   3.336
  131OSM   C12S14044   1.327   0.070   3.323
  131OSM   H12S14045   1.382   0.159   3.284
  131OSM   H12T14046   1.375   6.867   3.277
  131OSM   C13S14047   1.341   0.062   3.476
  131OSM   H13S14048   1.295   6.851   3.504
  131OSM   H13T14049   1.298   0.151   3.526
  131OSM   C14S14050   1.490   0.062   3.515
  131OSM   H14S14051   1.540   0.149   3.466
  131OSM   H14T14052   1.536   6.861   3.463
  131OSM   C15S14053   1.506   0.055   3.662
  131OSM   H15S14054   1.446   6.852   3.689
  131OSM   H15T14055   1.462   0.143   3.713
  131OSM   C16S14056   1.651   0.052   3.694
  131OSM   H16S14057   1.701   0.143   3.653
  131OSM   H16T14058   1.702   6.858   3.635
  131OSM   C17S14059   1.694   0.050   3.840
  131OSM   H17S14060   1.659   6.846   3.895
  131OSM   H17T14061   1.647   0.140   3.884
  131OSM   C18S14062   1.846   0.066   3.846
  131OSM   H18S14063   1.873   0.091   3.951
  131OSM   H18T14064   1.885   0.131   3.764
  131OSM   H18U14065   1.896   6.854   3.832
  131OSM    C1F14066   1.006   0.898   2.629
  131OSM     OF14067   0.912   0.916   2.553
  131OSM    C2F14068   1.037   0.982   2.747
  131OSM    H2F14069   1.112   1.062   2.729
  131OSM    H2G14070   1.086   0.914   2.820
  131OSM    C3F14071   0.919   1.065   2.800
  131OSM    H3F14072   0.821   1.013   2.807
  131OSM    H3G14073   0.908   1.138   2.717
  131OSM    C4F14074   0.944   1.140   2.931
  131OSM    H4F14075   0.856   1.205   2.951
  131OSM    H4G14076   1.037   1.199   2.913
  131OSM    C5F14077   0.965   1.045   3.042
  131OSM    H5F14078   1.044   0.971   3.016
  131OSM    H5G14079   0.871   0.986   3.049
  131OSM    C6F14080   1.014   1.107   3.178
  131OSM    H6F14081   0.932   1.170   3.219
  131OSM    H6G14082   1.106   1.165   3.156
  131OSM    C7F14083   1.049   1.002   3.275
  131OSM    H7F14084   1.129   0.930   3.249
  131OSM    H7G14085   0.959   0.943   3.303
  131OSM    C8F14086   1.099   1.085   3.396
  131OSM    H8F14087   1.031   1.169   3.420
  131OSM    H8G14088   1.200   1.129   3.383
  131OSM    C9F14089   1.113   0.998   3.515
  131OSM    H9F14090   1.135   0.892   3.494
  131OSM   C10F14091   1.119   1.029   3.646
  131OSM   H10F14092   1.125   0.944   3.715
  131OSM   C11F14093   1.108   1.166   3.712
  131OSM   H11F14094   1.004   1.183   3.746
  131OSM   H11G14095   1.134   1.246   3.640
  131OSM   C12F14096   1.195   1.193   3.837
  131OSM   H12F14097   1.179   1.293   3.883
  131OSM   H12G14098   1.299   1.206   3.798
  131OSM   C13F14099   1.173   1.103   3.956
  131OSM   H13F14100   1.228   1.133   4.048
  131OSM   H13G14101   1.203   0.998   3.934
  131OSM   C14F14102   1.025   1.083   3.999
  131OSM   H14F14103   1.008   1.005   4.076
  131OSM   H14G14104   0.960   1.072   3.910
  131OSM   C15F14105   0.989   1.210   4.069
  131OSM   H15F14106   0.998   1.302   4.008
  131OSM   H15G14107   1.056   1.226   4.157
  131OSM   C16F14108   0.841   1.206   4.109
  131OSM   H16F14109   0.781   1.162   4.026
  131OSM   H16G14110   0.813   1.312   4.124
  131OSM   C17F14111   0.821   1.131   4.242
  131OSM   H17F14112   0.872   1.174   4.331
  131OSM   H17G14113   0.862   1.028   4.228
  131OSM   C18F14114   0.670   1.133   4.284
  131OSM   H18F14115   0.602   1.084   4.210
  131OSM   H18G14116   0.637   1.238   4.302
  131OSM   H18H14117   0.659   1.073   4.376
  132OSM      N14118   5.611   6.608   1.913
  132OSM    C1514119   5.645   6.744   1.860
  132OSM   H15A14120   5.682   6.738   1.759
  132OSM   H15B14121   5.710   6.789   1.933
  132OSM   H15C14122   5.561   6.810   1.845
  132OSM    C1414123   5.495   6.554   1.834
  132OSM   H14A14124   5.410   6.619   1.833
  132OSM   H14B14125   5.466   6.462   1.883
  132OSM   H14C14126   5.511   6.536   1.729
  132OSM    C1314127   5.738   6.519   1.904
  132OSM   H13A14128   5.712   6.418   1.932
  132OSM   H13B14129   5.814   6.556   1.972
  132OSM   H13C14130   5.780   6.515   1.805
  132OSM    C1214131   5.563   6.621   2.063
  132OSM   H12A14132   5.514   6.529   2.091
  132OSM   H12B14133   5.482   6.690   2.075
  132OSM    C1114134   5.677   6.655   2.168
  132OSM   H11A14135   5.740   6.566   2.190
  132OSM   H11B14136   5.620   6.673   2.262
  132OSM      P14137   5.902   6.772   2.130
  132OSM    O1314138   5.942   6.641   2.082
  132OSM    O1414139   5.934   6.882   2.039
  132OSM    O1114140   5.941   6.795   2.281
  132OSM    O1214141   5.744   6.775   2.144
  132OSM    C1S14142   6.007   6.694   2.355
  132OSM    H1S14143   6.100   6.658   2.305
  132OSM    H1T14144   5.937   6.612   2.379
  132OSM     NF14145   6.127   6.657   2.566
  132OSM    HNF14146   6.068   6.621   2.639
  132OSM    C2S14147   6.065   6.761   2.481
  132OSM    H2S14148   6.134   6.842   2.449
  132OSM    C3S14149   5.955   6.847   2.559
  132OSM    H3S14150   5.874   6.780   2.591
  132OSM     O314151   5.888   0.064   2.483
  132OSM    HO314152   5.907   0.048   2.390
  132OSM    C4S14153   6.002   0.001   2.701
  132OSM    H4S14154   5.992   6.808   2.776
  132OSM    C5S14155   6.040   0.123   2.745
  132OSM    H5S14156   6.047   0.198   2.665
  132OSM    C6S14157   6.087   0.161   2.883
  132OSM    H6S14158   6.021   0.239   2.927
  132OSM    H6T14159   6.187   0.204   2.860
  132OSM    C7S14160   6.097   0.039   2.976
  132OSM    H7S14161   6.171   6.849   2.946
  132OSM    H7T14162   6.003   6.867   2.990
  132OSM    C8S14163   6.140   0.081   3.125
  132OSM    H8S14164   6.055   0.138   3.169
  132OSM    H8T14165   6.225   0.151   3.117
  132OSM    C9S14166   6.186   6.854   3.210
  132OSM    H9S14167   6.238   0.014   3.297
  132OSM    H9T14168   6.256   6.801   3.143
  132OSM   C10S14169   6.074   6.772   3.276
  132OSM   H10S14170   6.023   6.700   3.209
  132OSM   H10T14171   5.994   6.847   3.296
  132OSM   C11S14172   6.112   6.715   3.415
  132OSM   H11S14173   6.189   6.636   3.405
  132OSM   H11T14174   6.025   6.660   3.458
  132OSM   C12S14175   6.154   6.815   3.521
  132OSM   H12S14176   6.242   6.873   3.487
  132OSM   H12T14177   6.190   6.761   3.611
  132OSM   C13S14178   6.041   0.033   3.556
  132OSM   H13S14179   5.944   6.864   3.558
  132OSM   H13T14180   6.033   0.089   3.461
  132OSM   C14S14181   6.061   0.114   3.680
  132OSM   H14S14182   6.013   0.213   3.662
  132OSM   H14T14183   6.166   0.131   3.713
  132OSM   C15S14184   5.990   0.049   3.803
  132OSM   H15S14185   6.050   6.852   3.848
  132OSM   H15T14186   5.895   0.014   3.758
  132OSM   C16S14187   5.962   0.144   3.923
  132OSM   H16S14188   5.942   0.251   3.902
  132OSM   H16T14189   6.046   0.126   3.994
  132OSM   C17S14190   5.830   0.093   3.991
  132OSM   H17S14191   5.839   6.869   4.001
  132OSM   H17T14192   5.744   0.099   3.921
  132OSM   C18S14193   5.803   0.132   4.137
  132OSM   H18S14194   5.900   0.131   4.191
  132OSM   H18T14195   5.728   0.072   4.193
  132OSM   H18U14196   5.780   0.241   4.138
  132OSM    C1F14197   6.238   6.590   2.528
  132OSM     OF14198   6.311   6.642   2.449
  132OSM    C2F14199   6.257   6.444   2.581
  132OSM    H2F14200   6.367   6.428   2.578
  132OSM    H2G14201   6.203   6.372   2.516
  132OSM    C3F14202   6.214   6.427   2.726
  132OSM    H3F14203   6.235   6.321   2.753
  132OSM    H3G14204   6.106   6.443   2.750
  132OSM    C4F14205   6.304   6.500   2.825
  132OSM    H4F14206   6.305   6.606   2.792
  132OSM    H4G14207   6.409   6.465   2.819
  132OSM    C5F14208   6.265   6.495   2.981
  132OSM    H5F14209   6.243   6.390   3.010
  132OSM    H5G14210   6.182   6.568   2.995
  132OSM    C6F14211   6.386   6.537   3.068
  132OSM    H6F14212   6.418   6.642   3.049
  132OSM    H6G14213   6.470   6.468   3.045
  132OSM    C7F14214   6.360   6.518   3.220
  132OSM    H7F14215   6.250   6.525   3.234
  132OSM    H7G14216   6.417   6.600   3.270
  132OSM    C8F14217   6.417   6.391   3.283
  132OSM    H8F14218   6.522   6.378   3.250
  132OSM    H8G14219   6.363   6.302   3.246
  132OSM    C9F14220   6.411   6.396   3.428
  132OSM    H9F14221   6.321   6.452   3.460
  132OSM   C10F14222   6.481   6.356   3.533
  132OSM   H10F14223   6.456   6.385   3.636
  132OSM   C11F14224   6.610   6.280   3.521
  132OSM   H11F14225   6.628   6.252   3.414
  132OSM   H11G14226   6.584   6.190   3.580
  132OSM   C12F14227   6.748   6.341   3.553
  132OSM   H12F14228   6.824   6.261   3.547
  132OSM   H12G14229   6.740   6.380   3.656
  132OSM   C13F14230   6.794   6.466   3.475
  132OSM   H13F14231   6.720   6.545   3.502
  132OSM   H13G14232   6.785   6.439   3.368
  132OSM   C14F14233   0.052   6.529   3.505
  132OSM   H14F14234   0.069   6.614   3.434
  132OSM   H14G14235   0.131   6.452   3.498
  132OSM   C15F14236   0.049   6.598   3.649
  132OSM   H15F14237   0.038   6.510   3.717
  132OSM   H15G14238   6.842   6.659   3.648
  132OSM   C16F14239   0.182   6.665   3.684
  132OSM   H16F14240   0.206   6.652   3.792
  132OSM   H16G14241   0.164   6.775   3.680
  132OSM   C17F14242   0.310   6.637   3.603
  132OSM   H17F14243   0.302   6.654   3.493
  132OSM   H17G14244   0.320   6.527   3.613
  132OSM   C18F14245   0.430   6.714   3.658
  132OSM   H18F14246   0.412   6.822   3.638
  132OSM   H18G14247   0.524   6.685   3.608
  132OSM   H18H14248   0.438   6.706   3.768
  133OSM      N14249   4.478   3.153   2.150
  133OSM    C1514250   4.485   3.139   2.005
  133OSM   H15A14251   4.469   3.038   1.970
  133OSM   H15B14252   4.584   3.152   1.964
  133OSM   H15C14253   4.426   3.205   1.944
  133OSM    C1414254   4.511   3.294   2.184
  133OSM   H14A14255   4.497   3.311   2.290
  133OSM   H14B14256   4.427   3.354   2.153
  133OSM   H14C14257   4.606   3.320   2.140
  133OSM    C1314258   4.342   3.108   2.191
  133OSM   H13A14259   4.318   3.112   2.296
  133OSM   H13B14260   4.331   3.003   2.168
  133OSM   H13C14261   4.266   3.158   2.133
  133OSM    C1214262   4.578   3.061   2.219
  133OSM   H12A14263   4.676   3.076   2.177
  133OSM   H12B14264   4.554   2.959   2.191
  133OSM    C1114265   4.593   3.070   2.372
  133OSM   H11A14266   4.497   3.055   2.427
  133OSM   H11B14267   4.626   3.173   2.397
  133OSM      P14268   4.837   3.010   2.443
  133OSM    O1314269   4.913   2.892   2.421
  133OSM    O1414270   4.878   3.116   2.351
  133OSM    O1114271   4.846   3.064   2.590
  133OSM    O1214272   4.687   2.968   2.422
  133OSM    C1S14273   4.780   2.996   2.699
  133OSM    H1S14274   4.833   2.898   2.704
  133OSM    H1T14275   4.673   2.972   2.682
  133OSM     NF14276   4.780   2.994   2.947
  133OSM    HNF14277   4.701   3.011   3.006
  133OSM    C2S14278   4.795   3.080   2.829
  133OSM    H2S14279   4.902   3.109   2.839
  133OSM    C3S14280   4.702   3.210   2.822
  133OSM    H3S14281   4.600   3.168   2.810
  133OSM     O314282   4.729   3.294   2.708
  133OSM    HO314283   4.782   3.235   2.653
  133OSM    C4S14284   4.710   3.308   2.939
  133OSM    H4S14285   4.808   3.357   2.949
  133OSM    C5S14286   4.604   3.334   3.022
  133OSM    H5S14287   4.512   3.279   3.002
  133OSM    C6S14288   4.620   3.408   3.156
  133OSM    H6S14289   4.558   3.499   3.167
  133OSM    H6T14290   4.726   3.434   3.174
  133OSM    C7S14291   4.585   3.313   3.271
  133OSM    H7S14292   4.481   3.274   3.279
  133OSM    H7T14293   4.581   3.377   3.361
  133OSM    C8S14294   4.690   3.204   3.296
  133OSM    H8S14295   4.792   3.246   3.313
  133OSM    H8T14296   4.709   3.142   3.206
  133OSM    C9S14297   4.654   3.096   3.401
  133OSM    H9S14298   4.575   3.030   3.360
  133OSM    H9T14299   4.605   3.152   3.483
  133OSM   C10S14300   4.774   3.009   3.444
  133OSM   H10S14301   4.857   3.079   3.468
  133OSM   H10T14302   4.812   2.949   3.358
  133OSM   C11S14303   4.744   2.916   3.562
  133OSM   H11S14304   4.654   2.857   3.537
  133OSM   H11T14305   4.721   2.993   3.638
  133OSM   C12S14306   4.848   2.820   3.607
  133OSM   H12S14307   4.939   2.879   3.632
  133OSM   H12T14308   4.877   2.750   3.526
  133OSM   C13S14309   4.791   2.759   3.735
  133OSM   H13S14310   4.687   2.723   3.723
  133OSM   H13T14311   4.779   2.845   3.804
  133OSM   C14S14312   4.892   2.664   3.793
  133OSM   H14S14313   4.979   2.718   3.836
  133OSM   H14T14314   4.924   2.598   3.710
  133OSM   C15S14315   4.826   2.591   3.908
  133OSM   H15S14316   4.743   2.537   3.857
  133OSM   H15T14317   4.785   2.662   3.984
  133OSM   C16S14318   4.916   2.496   3.987
  133OSM   H16S14319   4.987   2.548   4.055
  133OSM   H16T14320   4.969   2.434   3.912
  133OSM   C17S14321   4.840   2.398   4.080
  133OSM   H17S14322   4.776   2.335   4.015
  133OSM   H17T14323   4.772   2.453   4.150
  133OSM   C18S14324   4.915   2.297   4.172
  133OSM   H18S14325   4.969   2.349   4.254
  133OSM   H18T14326   4.988   2.244   4.108
  133OSM   H18U14327   4.850   2.212   4.202
  133OSM    C1F14328   4.869   2.904   2.987
  133OSM     OF14329   4.973   2.889   2.926
  133OSM    C2F14330   4.833   2.828   3.109
  133OSM    H2F14331   4.738   2.863   3.154
  133OSM    H2G14332   4.915   2.841   3.182
  133OSM    C3F14333   4.821   2.683   3.061
  133OSM    H3F14334   4.918   2.648   3.020
  133OSM    H3G14335   4.752   2.671   2.975
  133OSM    C4F14336   4.801   2.578   3.172
  133OSM    H4F14337   4.887   2.550   3.237
  133OSM    H4G14338   4.764   2.489   3.116
  133OSM    C5F14339   4.691   2.625   3.274
  133OSM    H5F14340   4.599   2.664   3.226
  133OSM    H5G14341   4.728   2.714   3.330
  133OSM    C6F14342   4.652   2.513   3.366
  133OSM    H6F14343   4.624   2.431   3.296
  133OSM    H6G14344   4.554   2.530   3.416
  133OSM    C7F14345   4.751   2.468   3.472
  133OSM    H7F14346   4.745   2.542   3.555
  133OSM    H7G14347   4.857   2.456   3.441
  133OSM    C8F14348   4.708   2.336   3.534
  133OSM    H8F14349   4.683   2.263   3.455
  133OSM    H8G14350   4.620   2.367   3.596
  133OSM    C9F14351   4.801   2.276   3.637
  133OSM    H9F14352   4.846   2.364   3.685
  133OSM   C10F14353   4.822   2.153   3.692
  133OSM   H10F14354   4.867   2.152   3.792
  133OSM   C11F14355   4.772   2.018   3.644
  133OSM   H11F14356   4.712   2.037   3.553
  133OSM   H11G14357   4.701   1.964   3.710
  133OSM   C12F14358   4.890   1.918   3.613
  133OSM   H12F14359   4.962   1.924   3.697
  133OSM   H12G14360   4.950   1.969   3.534
  133OSM   C13F14361   4.845   1.775   3.570
  133OSM   H13F14362   4.922   1.723   3.510
  133OSM   H13G14363   4.752   1.779   3.510
  133OSM   C14F14364   4.824   1.700   3.702
  133OSM   H14F14365   4.750   1.746   3.771
  133OSM   H14G14366   4.921   1.691   3.756
  133OSM   C15F14367   4.779   1.556   3.671
  133OSM   H15F14368   4.858   1.506   3.610
  133OSM   H15G14369   4.691   1.553   3.603
  133OSM   C16F14370   4.736   1.488   3.807
  133OSM   H16F14371   4.654   1.548   3.851
  133OSM   H16G14372   4.823   1.496   3.875
  133OSM   C17F14373   4.694   1.341   3.779
  133OSM   H17F14374   4.778   1.278   3.743
  133OSM   H17G14375   4.620   1.349   3.696
  133OSM   C18F14376   4.607   1.279   3.894
  133OSM   H18F14377   4.661   1.280   3.991
  133OSM   H18G14378   4.590   1.174   3.863
  133OSM   H18H14379   4.513   1.337   3.902
  134OSM      N14380   5.489   5.493   1.815
  134OSM    C1514381   5.629   5.474   1.769
  134OSM   H15A14382   5.644   5.367   1.765
  134OSM   H15B14383   5.700   5.518   1.837
  134OSM   H15C14384   5.634   5.514   1.668
  134OSM    C1414385   5.488   5.456   1.965
  134OSM   H14A14386   5.518   5.356   1.993
  134OSM   H14B14387   5.388   5.464   2.004
  134OSM   H14C14388   5.546   5.523   2.027
  134OSM    C1314389   5.458   5.638   1.808
  134OSM   H13A14390   5.430   5.665   1.707
  134OSM   H13B14391   5.528   5.706   1.854
  134OSM   H13C14392   5.359   5.653   1.847
  134OSM    C1214393   5.392   5.411   1.736
  134OSM   H12A14394   5.439   5.324   1.695
  134OSM   H12B14395   5.376   5.475   1.650
  134OSM    C1114396   5.251   5.383   1.799
  134OSM   H11A14397   5.256   5.322   1.892
  134OSM   H11B14398   5.189   5.329   1.724
  134OSM      P14399   5.074   5.507   1.947
  134OSM    O1314400   5.059   5.647   1.988
  134OSM    O1414401   4.951   5.431   1.915
  134OSM    O1114402   5.142   5.428   2.068
  134OSM    O1214403   5.184   5.498   1.831
  134OSM    C1S14404   5.085   5.457   2.198
  134OSM    H1S14405   4.975   5.471   2.199
  134OSM    H1T14406   5.127   5.555   2.231
  134OSM     NF14407   5.068   5.398   2.439
  134OSM    HNF14408   5.140   5.414   2.505
  134OSM    C2S14409   5.129   5.362   2.311
  134OSM    H2S14410   5.088   5.260   2.293
  134OSM    C3S14411   5.284   5.334   2.320
  134OSM    H3S14412   5.334   5.426   2.356
  134OSM     O314413   5.344   5.316   2.192
  134OSM    HO314414   5.286   5.355   2.126
  134OSM    C4S14415   5.326   5.208   2.396
  134OSM    H4S14416   5.291   5.117   2.344
  134OSM    C5S14417   5.399   5.213   2.512
  134OSM    H5S14418   5.446   5.310   2.535
  134OSM    C6S14419   5.453   5.091   2.582
  134OSM    H6S14420   5.558   5.073   2.551
  134OSM    H6T14421   5.393   5.001   2.556
  134OSM    C7S14422   5.457   5.119   2.732
  134OSM    H7S14423   5.353   5.134   2.767
  134OSM    H7T14424   5.525   5.202   2.760
  134OSM    C8S14425   5.520   5.005   2.807
  134OSM    H8S14426   5.628   5.000   2.779
  134OSM    H8T14427   5.469   4.912   2.775
  134OSM    C9S14428   5.518   5.015   2.967
  134OSM    H9S14429   5.562   4.918   2.996
  134OSM    H9T14430   5.423   5.016   3.025
  134OSM   C10S14431   5.612   5.135   3.019
  134OSM   H10S14432   5.574   5.231   2.979
  134OSM   H10T14433   5.715   5.121   2.981
  134OSM   C11S14434   5.615   5.124   3.169
  134OSM   H11S14435   5.670   5.030   3.191
  134OSM   H11T14436   5.512   5.111   3.207
  134OSM   C12S14437   5.680   5.244   3.239
  134OSM   H12S14438   5.637   5.340   3.205
  134OSM   H12T14439   5.789   5.253   3.217
  134OSM   C13S14440   5.649   5.243   3.393
  134OSM   H13S14441   5.702   5.154   3.434
  134OSM   H13T14442   5.542   5.230   3.419
  134OSM   C14S14443   5.693   5.376   3.464
  134OSM   H14S14444   5.619   5.458   3.462
  134OSM   H14T14445   5.792   5.408   3.425
  134OSM   C15S14446   5.715   5.340   3.615
  134OSM   H15S14447   5.811   5.284   3.625
  134OSM   H15T14448   5.632   5.272   3.643
  134OSM   C16S14449   5.713   5.458   3.711
  134OSM   H16S14450   5.615   5.509   3.698
  134OSM   H16T14451   5.799   5.529   3.705
  134OSM   C17S14452   5.699   5.416   3.861
  134OSM   H17S14453   5.775   5.344   3.897
  134OSM   H17T14454   5.605   5.356   3.862
  134OSM   C18S14455   5.677   5.535   3.957
  134OSM   H18S14456   5.761   5.603   3.933
  134OSM   H18T14457   5.692   5.500   4.062
  134OSM   H18U14458   5.579   5.586   3.947
  134OSM    C1F14459   4.935   5.408   2.466
  134OSM     OF14460   4.856   5.374   2.379
  134OSM    C2F14461   4.897   5.475   2.590
  134OSM    H2F14462   4.971   5.554   2.614
  134OSM    H2G14463   4.904   5.399   2.670
  134OSM    C3F14464   4.754   5.536   2.591
  134OSM    H3F14465   4.670   5.465   2.578
  134OSM    H3G14466   4.742   5.598   2.500
  134OSM    C4F14467   4.740   5.616   2.725
  134OSM    H4F14468   4.700   5.714   2.690
  134OSM    H4G14469   4.837   5.625   2.777
  134OSM    C5F14470   4.644   5.542   2.816
  134OSM    H5F14471   4.672   5.436   2.833
  134OSM    H5G14472   4.544   5.561   2.772
  134OSM    C6F14473   4.621   5.618   2.949
  134OSM    H6F14474   4.572   5.716   2.928
  134OSM    H6G14475   4.710   5.639   3.012
  134OSM    C7F14476   4.530   5.540   3.045
  134OSM    H7F14477   4.587   5.448   3.071
  134OSM    H7G14478   4.443   5.504   2.987
  134OSM    C8F14479   4.487   5.612   3.176
  134OSM    H8F14480   4.386   5.578   3.209
  134OSM    H8G14481   4.478   5.719   3.147
  134OSM    C9F14482   4.591   5.604   3.283
  134OSM    H9F14483   4.693   5.635   3.256
  134OSM   C10F14484   4.574   5.572   3.419
  134OSM   H10F14485   4.668   5.565   3.476
  134OSM   C11F14486   4.438   5.525   3.486
  134OSM   H11F14487   4.454   5.415   3.486
  134OSM   H11G14488   4.343   5.549   3.434
  134OSM   C12F14489   4.437   5.580   3.628
  134OSM   H12F14490   4.407   5.687   3.627
  134OSM   H12G14491   4.532   5.556   3.681
  134OSM   C13F14492   4.332   5.503   3.703
  134OSM   H13F14493   4.376   5.401   3.711
  134OSM   H13G14494   4.238   5.498   3.645
  134OSM   C14F14495   4.309   5.553   3.843
  134OSM   H14F14496   4.271   5.657   3.839
  134OSM   H14G14497   4.404   5.547   3.900
  134OSM   C15F14498   4.206   5.469   3.925
  134OSM   H15F14499   4.249   5.373   3.961
  134OSM   H15G14500   4.121   5.456   3.855
  134OSM   C16F14501   4.153   5.541   4.051
  134OSM   H16F14502   4.079   5.473   4.098
  134OSM   H16G14503   4.107   5.642   4.041
  134OSM   C17F14504   4.268   5.564   4.146
  134OSM   H17F14505   4.332   5.642   4.101
  134OSM   H17G14506   4.318   5.467   4.168
  134OSM   C18F14507   4.217   5.617   4.287
  134OSM   H18F14508   4.144   5.541   4.325
  134OSM   H18G14509   4.160   5.712   4.278
  134OSM   H18H14510   4.296   5.633   4.363
  135OSM      N14511   0.162   1.380   2.020
  135OSM    C1514512   0.228   1.285   1.920
  135OSM   H15A14513   0.307   1.221   1.955
  135OSM   H15B14514   0.272   1.348   1.844
  135OSM   H15C14515   0.162   1.225   1.859
  135OSM    C1414516   0.250   1.496   2.036
  135OSM   H14A14517   0.244   1.564   1.951
  135OSM   H14B14518   0.353   1.468   2.051
  135OSM   H14C14519   0.215   1.557   2.118
  135OSM    C1314520   0.034   1.433   1.963
  135OSM   H13A14521   0.054   1.476   1.866
  135OSM   H13B14522   6.881   1.510   2.028
  135OSM   H13C14523   6.851   1.357   1.932
  135OSM    C1214524   0.124   1.314   2.152
  135OSM   H12A14525   0.076   1.395   2.205
  135OSM   H12B14526   0.217   1.286   2.198
  135OSM    C1114527   0.045   1.183   2.156
  135OSM   H11A14528   0.063   1.135   2.254
  135OSM   H11B14529   0.088   1.112   2.082
  135OSM      P14530   6.678   1.161   2.221
  135OSM    O1314531   6.560   1.247   2.190
  135OSM    O1414532   6.655   1.015   2.208
  135OSM    O1114533   6.739   1.193   2.366
  135OSM    O1214534   6.795   1.201   2.127
  135OSM    C1S14535   6.669   1.162   2.486
  135OSM    H1S14536   6.644   1.054   2.493
  135OSM    H1T14537   6.574   1.219   2.487
  135OSM     NF14538   6.663   1.205   2.733
  135OSM    HNF14539   6.663   1.285   2.792
  135OSM    C2S14540   6.741   1.219   2.612
  135OSM    H2S14541   6.825   1.148   2.625
  135OSM    C3S14542   6.797   1.366   2.582
  135OSM    H3S14543   6.721   1.447   2.584
  135OSM     O314544   6.874   1.381   2.461
  135OSM    HO314545   6.835   1.309   2.409
  135OSM    C4S14546   0.014   1.391   2.683
  135OSM    H4S14547   0.073   1.302   2.710
  135OSM    C5S14548   0.024   1.507   2.754
  135OSM    H5S14549   6.851   1.597   2.731
  135OSM    C6S14550   0.111   1.532   2.872
  135OSM    H6S14551   0.066   1.603   2.945
  135OSM    H6T14552   0.211   1.567   2.838
  135OSM    C7S14553   0.153   1.404   2.954
  135OSM    H7S14554   0.228   1.428   3.033
  135OSM    H7T14555   0.223   1.344   2.892
  135OSM    C8S14556   0.047   1.308   3.004
  135OSM    H8S14557   6.883   1.256   2.920
  135OSM    H8T14558   6.854   1.373   3.049
  135OSM    C9S14559   0.088   1.207   3.111
  135OSM    H9S14560   0.165   1.152   3.053
  135OSM    H9T14561   6.886   1.141   3.127
  135OSM   C10S14562   0.130   1.270   3.242
  135OSM   H10S14563   0.064   1.355   3.270
  135OSM   H10T14564   0.235   1.305   3.232
  135OSM   C11S14565   0.119   1.176   3.363
  135OSM   H11S14566   0.208   1.109   3.354
  135OSM   H11T14567   0.036   1.103   3.365
  135OSM   C12S14568   0.122   1.242   3.501
  135OSM   H12S14569   0.046   1.321   3.522
  135OSM   H12T14570   0.211   1.309   3.497
  135OSM   C13S14571   0.133   1.141   3.613
  135OSM   H13S14572   0.177   1.049   3.568
  135OSM   H13T14573   0.031   1.121   3.649
  135OSM   C14S14574   0.220   1.192   3.726
  135OSM   H14S14575   0.172   1.285   3.763
  135OSM   H14T14576   0.323   1.215   3.691
  135OSM   C15S14577   0.225   1.098   3.843
  135OSM   H15S14578   0.252   0.998   3.802
  135OSM   H15T14579   0.125   1.076   3.886
  135OSM   C16S14580   0.316   1.143   3.961
  135OSM   H16S14581   0.420   1.159   3.925
  135OSM   H16T14582   0.314   1.073   4.047
  135OSM   C17S14583   0.272   1.277   4.023
  135OSM   H17S14584   0.165   1.262   4.046
  135OSM   H17T14585   0.270   1.352   3.941
  135OSM   C18S14586   0.350   1.329   4.139
  135OSM   H18S14587   0.370   1.255   4.219
  135OSM   H18T14588   0.309   1.423   4.182
  135OSM   H18U14589   0.452   1.352   4.102
  135OSM    C1F14590   6.618   1.086   2.787
  135OSM     OF14591   6.599   0.986   2.720
  135OSM    C2F14592   6.566   1.100   2.929
  135OSM    H2F14593   6.456   1.106   2.917
  135OSM    H2G14594   6.606   1.198   2.962
  135OSM    C3F14595   6.598   0.980   3.014
  135OSM    H3F14596   6.707   0.977   3.035
  135OSM    H3G14597   6.567   0.888   2.961
  135OSM    C4F14598   6.541   0.979   3.165
  135OSM    H4F14599   6.583   0.891   3.217
  135OSM    H4G14600   6.430   0.976   3.172
  135OSM    C5F14601   6.596   1.105   3.230
  135OSM    H5F14602   6.512   1.177   3.230
  135OSM    H5G14603   6.685   1.134   3.170
  135OSM    C6F14604   6.648   1.082   3.376
  135OSM    H6F14605   6.707   1.171   3.406
  135OSM    H6G14606   6.710   0.991   3.360
  135OSM    C7F14607   6.536   1.050   3.475
  135OSM    H7F14608   6.472   0.967   3.439
  135OSM    H7G14609   6.467   1.137   3.481
  135OSM    C8F14610   6.602   1.014   3.615
  135OSM    H8F14611   6.700   1.065   3.626
  135OSM    H8G14612   6.626   0.907   3.627
  135OSM    C9F14613   6.499   1.048   3.727
  135OSM    H9F14614   6.393   1.051   3.701
  135OSM   C10F14615   6.540   1.097   3.849
  135OSM   H10F14616   6.476   1.118   3.936
  135OSM   C11F14617   6.690   1.103   3.883
  135OSM   H11F14618   6.707   1.164   3.975
  135OSM   H11G14619   6.749   1.152   3.802
  135OSM   C12F14620   6.742   0.963   3.920
  135OSM   H12F14621   6.850   0.973   3.944
  135OSM   H12G14622   6.727   0.888   3.839
  135OSM   C13F14623   6.683   0.903   4.052
  135OSM   H13F14624   6.727   0.801   4.060
  135OSM   H13G14625   6.577   0.872   4.044
  135OSM   C14F14626   6.699   0.976   4.177
  135OSM   H14F14627   6.670   0.912   4.264
  135OSM   H14G14628   6.634   1.066   4.171
  135OSM   C15F14629   6.840   1.025   4.201
  135OSM   H15F14630   6.869   1.093   4.118
  135OSM   H15G14631   0.016   0.934   4.188
  135OSM   C16F14632   6.863   1.090   4.337
  135OSM   H16F14633   6.850   1.000   4.401
  135OSM   H16G14634   6.791   1.168   4.370
  135OSM   C17F14635   0.113   1.147   4.346
  135OSM   H17F14636   0.125   1.232   4.275
  135OSM   H17G14637   0.196   1.079   4.317
  135OSM   C18F14638   0.126   1.211   4.483
  135OSM   H18F14639   0.125   1.130   4.559
  135OSM   H18G14640   0.036   1.270   4.511
  135OSM   H18H14641   0.213   1.278   4.501
  136OSM      N14642   2.722   4.572   1.582
  136OSM    C1514643   2.583   4.576   1.525
  136OSM   H15A14644   2.575   4.641   1.439
  136OSM   H15B14645   2.514   4.616   1.597
  136OSM   H15C14646   2.550   4.475   1.505
  136OSM    C1414647   2.798   4.508   1.470
  136OSM   H14A14648   2.905   4.504   1.488
  136OSM   H14B14649   2.786   4.550   1.372
  136OSM   H14C14650   2.776   4.403   1.461
  136OSM    C1314651   2.779   4.711   1.606
  136OSM   H13A14652   2.784   4.766   1.513
  136OSM   H13B14653   2.881   4.705   1.640
  136OSM   H13C14654   2.712   4.764   1.671
  136OSM    C1214655   2.727   4.493   1.706
  136OSM   H12A14656   2.826   4.494   1.748
  136OSM   H12B14657   2.702   4.391   1.681
  136OSM    C1114658   2.632   4.521   1.821
  136OSM   H11A14659   2.641   4.436   1.893
  136OSM   H11B14660   2.525   4.503   1.796
  136OSM      P14661   2.773   4.689   1.968
  136OSM    O1314662   2.892   4.602   1.938
  136OSM    O1414663   2.791   4.835   1.950
  136OSM    O1114664   2.713   4.660   2.113
  136OSM    O1214665   2.653   4.653   1.878
  136OSM    C1S14666   2.633   4.754   2.172
  136OSM    H1S14667   2.537   4.777   2.122
  136OSM    H1T14668   2.687   4.850   2.192
  136OSM     NF14669   2.483   4.796   2.361
  136OSM    HNF14670   2.528   4.867   2.414
  136OSM    C2S14671   2.577   4.697   2.307
  136OSM    H2S14672   2.519   4.610   2.270
  136OSM    C3S14673   2.686   4.640   2.404
  136OSM    H3S14674   2.751   4.726   2.432
  136OSM     O314675   2.759   4.539   2.339
  136OSM    HO314676   2.738   4.556   2.247
  136OSM    C4S14677   2.629   4.578   2.525
  136OSM    H4S14678   2.588   4.476   2.516
  136OSM    C5S14679   2.633   4.633   2.653
  136OSM    H5S14680   2.679   4.732   2.669
  136OSM    C6S14681   2.580   4.562   2.773
  136OSM    H6S14682   2.638   4.559   2.868
  136OSM    H6T14683   2.578   4.452   2.756
  136OSM    C7S14684   2.435   4.628   2.796
  136OSM    H7S14685   2.382   4.625   2.698
  136OSM    H7T14686   2.437   4.733   2.831
  136OSM    C8S14687   2.354   4.554   2.905
  136OSM    H8S14688   2.317   4.452   2.881
  136OSM    H8T14689   2.267   4.623   2.912
  136OSM    C9S14690   2.418   4.551   3.046
  136OSM    H9S14691   2.515   4.496   3.048
  136OSM    H9T14692   2.352   4.490   3.111
  136OSM   C10S14693   2.450   4.693   3.112
  136OSM   H10S14694   2.373   4.765   3.078
  136OSM   H10T14695   2.542   4.731   3.062
  136OSM   C11S14696   2.471   4.690   3.263
  136OSM   H11S14697   2.534   4.777   3.294
  136OSM   H11T14698   2.528   4.595   3.268
  136OSM   C12S14699   2.338   4.696   3.347
  136OSM   H12S14700   2.268   4.624   3.299
  136OSM   H12T14701   2.296   4.797   3.327
  136OSM   C13S14702   2.358   4.666   3.495
  136OSM   H13S14703   2.412   4.569   3.505
  136OSM   H13T14704   2.270   4.651   3.561
  136OSM   C14S14705   2.443   4.776   3.564
  136OSM   H14S14706   2.373   4.858   3.589
  136OSM   H14T14707   2.529   4.807   3.500
  136OSM   C15S14708   2.497   4.730   3.704
  136OSM   H15S14709   2.562   4.641   3.696
  136OSM   H15T14710   2.414   4.692   3.768
  136OSM   C16S14711   2.565   4.848   3.768
  136OSM   H16S14712   2.486   4.920   3.798
  136OSM   H16T14713   2.640   4.894   3.700
  136OSM   C17S14714   2.631   4.820   3.911
  136OSM   H17S14715   2.714   4.751   3.885
  136OSM   H17T14716   2.561   4.770   3.982
  136OSM   C18S14717   2.695   4.942   3.989
  136OSM   H18S14718   2.754   5.000   3.914
  136OSM   H18T14719   2.767   4.909   4.067
  136OSM   H18U14720   2.610   5.002   4.028
  136OSM    C1F14721   2.368   4.824   2.303
  136OSM     OF14722   2.315   4.743   2.229
  136OSM    C2F14723   2.297   4.950   2.327
  136OSM    H2F14724   2.272   4.988   2.225
  136OSM    H2G14725   2.350   5.031   2.382
  136OSM    C3F14726   2.156   4.919   2.394
  136OSM    H3F14727   2.084   4.854   2.339
  136OSM    H3G14728   2.114   5.014   2.434
  136OSM    C4F14729   2.184   4.843   2.525
  136OSM    H4F14730   2.265   4.888   2.587
  136OSM    H4G14731   2.201   4.735   2.508
  136OSM    C5F14732   2.059   4.836   2.619
  136OSM    H5F14733   1.980   4.788   2.557
  136OSM    H5G14734   2.034   4.943   2.633
  136OSM    C6F14735   2.074   4.759   2.755
  136OSM    H6F14736   2.158   4.802   2.813
  136OSM    H6G14737   2.110   4.656   2.728
  136OSM    C7F14738   1.939   4.739   2.828
  136OSM    H7F14739   1.956   4.676   2.918
  136OSM    H7G14740   1.878   4.684   2.754
  136OSM    C8F14741   1.856   4.865   2.883
  136OSM    H8F14742   1.763   4.822   2.925
  136OSM    H8G14743   1.822   4.924   2.796
  136OSM    C9F14744   1.927   4.947   2.990
  136OSM    H9F14745   1.990   5.030   2.955
  136OSM   C10F14746   1.925   4.916   3.120
  136OSM   H10F14747   1.979   4.988   3.183
  136OSM   C11F14748   1.852   4.815   3.194
  136OSM   H11F14749   1.805   4.743   3.124
  136OSM   H11G14750   1.766   4.861   3.248
  136OSM   C12F14751   1.933   4.726   3.289
  136OSM   H12F14752   2.025   4.697   3.234
  136OSM   H12G14753   1.874   4.632   3.301
  136OSM   C13F14754   1.978   4.778   3.424
  136OSM   H13F14755   2.026   4.877   3.407
  136OSM   H13G14756   2.052   4.705   3.463
  136OSM   C14F14757   1.864   4.790   3.522
  136OSM   H14F14758   1.770   4.771   3.467
  136OSM   H14G14759   1.859   4.896   3.555
  136OSM   C15F14760   1.875   4.695   3.649
  136OSM   H15F14761   1.974   4.710   3.695
  136OSM   H15G14762   1.866   4.591   3.611
  136OSM   C16F14763   1.769   4.714   3.763
  136OSM   H16F14764   1.667   4.709   3.719
  136OSM   H16G14765   1.782   4.812   3.813
  136OSM   C17F14766   1.783   4.612   3.880
  136OSM   H17F14767   1.806   4.515   3.831
  136OSM   H17G14768   1.687   4.615   3.936
  136OSM   C18F14769   1.898   4.641   3.968
  136OSM   H18F14770   1.993   4.605   3.923
  136OSM   H18G14771   1.890   4.586   4.064
  136OSM   H18H14772   1.908   4.750   3.989
  137OSM      N14773   0.947   2.252   1.867
  137OSM    C1514774   0.873   2.382   1.843
  137OSM   H15A14775   0.768   2.355   1.835
  137OSM   H15B14776   0.903   2.427   1.750
  137OSM   H15C14777   0.895   2.449   1.925
  137OSM    C1414778   0.895   2.147   1.772
  137OSM   H14A14779   0.879   2.177   1.670
  137OSM   H14B14780   0.801   2.109   1.810
  137OSM   H14C14781   0.955   2.058   1.756
  137OSM    C1314782   1.088   2.281   1.838
  137OSM   H13A14783   1.102   2.316   1.737
  137OSM   H13B14784   1.151   2.195   1.855
  137OSM   H13C14785   1.116   2.360   1.906
  137OSM    C1214786   0.946   2.210   2.017
  137OSM   H12A14787   0.966   2.295   2.080
  137OSM   H12B14788   1.027   2.140   2.030
  137OSM    C1114789   0.815   2.146   2.057
  137OSM   H11A14790   0.801   2.053   1.997
  137OSM   H11B14791   0.731   2.211   2.024
  137OSM      P14792   0.857   2.004   2.280
  137OSM    O1314793   0.782   1.883   2.244
  137OSM    O1414794   1.003   2.005   2.260
  137OSM    O1114795   0.818   2.039   2.432
  137OSM    O1214796   0.793   2.122   2.193
  137OSM    C1S14797   0.703   2.123   2.468
  137OSM    H1S14798   0.619   2.053   2.486
  137OSM    H1T14799   0.660   2.189   2.389
  137OSM     NF14800   0.621   2.250   2.669
  137OSM    HNF14801   0.587   2.343   2.661
  137OSM    C2S14802   0.743   2.206   2.597
  137OSM    H2S14803   0.790   2.132   2.665
  137OSM    C3S14804   0.844   2.312   2.546
  137OSM    H3S14805   0.798   2.374   2.466
  137OSM     O314806   0.960   2.249   2.493
  137OSM    HO314807   0.930   2.158   2.499
  137OSM    C4S14808   0.875   2.387   2.669
  137OSM    H4S14809   0.927   2.325   2.743
  137OSM    C5S14810   0.842   2.522   2.695
  137OSM    H5S14811   0.770   2.564   2.624
  137OSM    C6S14812   0.871   2.608   2.816
  137OSM    H6S14813   0.783   2.675   2.817
  137OSM    H6T14814   0.961   2.671   2.798
  137OSM    C7S14815   0.902   2.524   2.942
  137OSM    H7S14816   0.969   2.586   3.005
  137OSM    H7T14817   0.949   2.426   2.917
  137OSM    C8S14818   0.780   2.508   3.020
  137OSM    H8S14819   0.702   2.462   2.956
  137OSM    H8T14820   0.734   2.606   3.045
  137OSM    C9S14821   0.795   2.432   3.149
  137OSM    H9S14822   0.830   2.327   3.135
  137OSM    H9T14823   0.689   2.422   3.182
  137OSM   C10S14824   0.874   2.509   3.248
  137OSM   H10S14825   0.814   2.591   3.293
  137OSM   H10T14826   0.970   2.544   3.205
  137OSM   C11S14827   0.918   2.432   3.372
  137OSM   H11S14828   0.988   2.353   3.338
  137OSM   H11T14829   0.835   2.381   3.425
  137OSM   C12S14830   0.996   2.522   3.469
  137OSM   H12S14831   0.926   2.598   3.510
  137OSM   H12T14832   1.069   2.578   3.407
  137OSM   C13S14833   1.066   2.437   3.581
  137OSM   H13S14834   1.113   2.355   3.523
  137OSM   H13T14835   0.990   2.392   3.649
  137OSM   C14S14836   1.167   2.512   3.666
  137OSM   H14S14837   1.114   2.604   3.698
  137OSM   H14T14838   1.246   2.550   3.598
  137OSM   C15S14839   1.250   2.422   3.761
  137OSM   H15S14840   1.306   2.357   3.691
  137OSM   H15T14841   1.184   2.345   3.806
  137OSM   C16S14842   1.350   2.496   3.855
  137OSM   H16S14843   1.301   2.550   3.939
  137OSM   H16T14844   1.402   2.574   3.795
  137OSM   C17S14845   1.458   2.405   3.909
  137OSM   H17S14846   1.494   2.331   3.834
  137OSM   H17T14847   1.404   2.335   3.976
  137OSM   C18S14848   1.558   2.484   3.987
  137OSM   H18S14849   1.640   2.424   4.031
  137OSM   H18T14850   1.518   2.534   4.078
  137OSM   H18U14851   1.599   2.574   3.935
  137OSM    C1F14852   0.554   2.167   2.760
  137OSM     OF14853   0.583   2.047   2.760
  137OSM    C2F14854   0.459   2.234   2.852
  137OSM    H2F14855   0.362   2.249   2.799
  137OSM    H2G14856   0.503   2.332   2.878
  137OSM    C3F14857   0.437   2.152   2.978
  137OSM    H3F14858   0.529   2.146   3.040
  137OSM    H3G14859   0.416   2.048   2.944
  137OSM    C4F14860   0.322   2.202   3.075
  137OSM    H4F14861   0.324   2.144   3.170
  137OSM    H4G14862   0.225   2.194   3.022
  137OSM    C5F14863   0.316   2.350   3.110
  137OSM    H5F14864   0.304   2.416   3.021
  137OSM    H5G14865   0.410   2.369   3.166
  137OSM    C6F14866   0.199   2.386   3.212
  137OSM    H6F14867   0.105   2.405   3.155
  137OSM    H6G14868   0.220   2.485   3.258
  137OSM    C7F14869   0.176   2.304   3.340
  137OSM    H7F14870   0.160   2.200   3.305
  137OSM    H7G14871   0.083   2.324   3.397
  137OSM    C8F14872   0.295   2.306   3.438
  137OSM    H8F14873   0.319   2.407   3.479
  137OSM    H8G14874   0.389   2.290   3.381
  137OSM    C9F14875   0.277   2.205   3.544
  137OSM    H9F14876   0.299   2.106   3.503
  137OSM   C10F14877   0.231   2.229   3.665
  137OSM   H10F14878   0.219   2.148   3.739
  137OSM   C11F14879   0.194   2.356   3.731
  137OSM   H11F14880   0.100   2.346   3.789
  137OSM   H11G14881   0.180   2.440   3.660
  137OSM   C12F14882   0.306   2.410   3.818
  137OSM   H12F14883   0.402   2.427   3.764
  137OSM   H12G14884   0.328   2.328   3.890
  137OSM   C13F14885   0.272   2.530   3.908
  137OSM   H13F14886   0.187   2.505   3.975
  137OSM   H13G14887   0.239   2.607   3.834
  137OSM   C14F14888   0.392   2.581   3.993
  137OSM   H14F14889   0.365   2.686   4.016
  137OSM   H14G14890   0.492   2.595   3.946
  137OSM   C15F14891   0.420   2.494   4.115
  137OSM   H15F14892   0.442   2.390   4.081
  137OSM   H15G14893   0.319   2.482   4.160
  137OSM   C16F14894   0.541   2.555   4.194
  137OSM   H16F14895   0.527   2.661   4.223
  137OSM   H16G14896   0.628   2.536   4.127
  137OSM   C17F14897   0.572   2.476   4.326
  137OSM   H17F14898   0.671   2.516   4.358
  137OSM   H17G14899   0.598   2.368   4.323
  137OSM   C18F14900   0.475   2.509   4.433
  137OSM   H18F14901   0.477   2.619   4.446
  137OSM   H18G14902   0.506   2.459   4.528
  137OSM   H18H14903   0.374   2.474   4.401
  138OSM      N14904   6.168   6.215   2.090
  138OSM    C1514905   6.118   6.076   2.111
  138OSM   H15A14906   6.157   6.004   2.041
  138OSM   H15B14907   6.012   6.059   2.107
  138OSM   H15C14908   6.152   6.041   2.208
  138OSM    C1414909   6.320   6.225   2.067
  138OSM   H14A14910   6.344   6.181   1.972
  138OSM   H14B14911   6.372   6.165   2.141
  138OSM   H14C14912   6.358   6.325   2.077
  138OSM    C1314913   6.103   6.279   1.978
  138OSM   H13A14914   5.997   6.259   1.986
  138OSM   H13B14915   6.148   6.240   1.887
  138OSM   H13C14916   6.118   6.384   1.959
  138OSM    C1214917   6.145   6.297   2.219
  138OSM   H12A14918   6.202   6.388   2.219
  138OSM   H12B14919   6.182   6.230   2.295
  138OSM    C1114920   5.997   6.329   2.254
  138OSM   H11A14921   5.945   6.390   2.177
  138OSM   H11B14922   6.009   6.394   2.343
  138OSM      P14923   5.939   6.133   2.418
  138OSM    O1314924   5.873   5.998   2.417
  138OSM    O1414925   6.076   6.132   2.464
  138OSM    O1114926   5.861   6.229   2.515
  138OSM    O1214927   5.928   6.209   2.284
  138OSM    C1S14928   5.738   6.287   2.472
  138OSM    H1S14929   5.664   6.219   2.425
  138OSM    H1T14930   5.751   6.367   2.396
  138OSM     NF14931   5.535   6.389   2.588
  138OSM    HNF14932   5.501   6.477   2.556
  138OSM    C2S14933   5.678   6.358   2.594
  138OSM    H2S14934   5.688   6.295   2.685
  138OSM    C3S14935   5.765   6.477   2.639
  138OSM    H3S14936   5.746   6.555   2.562
  138OSM     O314937   5.905   6.463   2.628
  138OSM    HO314938   5.923   6.390   2.569
  138OSM    C4S14939   5.733   6.541   2.768
  138OSM    H4S14940   5.657   6.620   2.764
  138OSM    C5S14941   5.792   6.505   2.883
  138OSM    H5S14942   5.861   6.420   2.879
  138OSM    C6S14943   5.774   6.572   3.018
  138OSM    H6S14944   5.864   6.589   3.080
  138OSM    H6T14945   5.721   6.506   3.090
  138OSM    C7S14946   5.688   6.697   3.016
  138OSM    H7S14947   5.583   6.680   2.986
  138OSM    H7T14948   5.740   6.755   2.937
  138OSM    C8S14949   5.673   6.771   3.151
  138OSM    H8S14950   5.644   6.876   3.131
  138OSM    H8T14951   5.774   6.767   3.198
  138OSM    C9S14952   5.583   6.717   3.261
  138OSM    H9S14953   5.611   6.610   3.269
  138OSM    H9T14954   5.477   6.721   3.231
  138OSM   C10S14955   5.618   6.778   3.397
  138OSM   H10S14956   5.554   6.868   3.397
  138OSM   H10T14957   5.720   6.820   3.407
  138OSM   C11S14958   5.583   6.689   3.519
  138OSM   H11S14959   5.642   6.594   3.519
  138OSM   H11T14960   5.474   6.666   3.515
  138OSM   C12S14961   5.596   6.766   3.654
  138OSM   H12S14962   5.528   6.853   3.657
  138OSM   H12T14963   5.701   6.801   3.664
  138OSM   C13S14964   5.556   6.669   3.772
  138OSM   H13S14965   5.446   6.657   3.780
  138OSM   H13T14966   5.587   6.737   3.855
  138OSM   C14S14967   5.650   6.546   3.786
  138OSM   H14S14968   5.749   6.584   3.752
  138OSM   H14T14969   5.622   6.477   3.704
  138OSM   C15S14970   5.646   6.498   3.929
  138OSM   H15S14971   5.660   6.388   3.926
  138OSM   H15T14972   5.540   6.514   3.959
  138OSM   C16S14973   5.738   6.561   4.030
  138OSM   H16S14974   5.717   6.670   4.036
  138OSM   H16T14975   5.846   6.559   4.007
  138OSM   C17S14976   5.716   6.504   4.171
  138OSM   H17S14977   5.709   6.394   4.158
  138OSM   H17T14978   5.623   6.551   4.209
  138OSM   C18S14979   5.830   6.527   4.266
  138OSM   H18S14980   5.814   6.537   4.376
  138OSM   H18T14981   5.879   6.620   4.232
  138OSM   H18U14982   5.910   6.451   4.253
  138OSM    C1F14983   5.441   6.294   2.590
  138OSM     OF14984   5.477   6.181   2.611
  138OSM    C2F14985   5.295   6.325   2.567
  138OSM    H2F14986   5.272   6.337   2.459
  138OSM    H2G14987   5.275   6.424   2.614
  138OSM    C3F14988   5.207   6.205   2.616
  138OSM    H3F14989   5.231   6.113   2.558
  138OSM    H3G14990   5.099   6.224   2.597
  138OSM    C4F14991   5.216   6.183   2.777
  138OSM    H4F14992   5.311   6.133   2.800
  138OSM    H4G14993   5.141   6.110   2.813
  138OSM    C5F14994   5.196   6.311   2.864
  138OSM    H5F14995   5.098   6.361   2.845
  138OSM    H5G14996   5.277   6.386   2.852
  138OSM    C6F14997   5.206   6.275   3.014
  138OSM    H6F14998   5.289   6.203   3.034
  138OSM    H6G14999   5.110   6.228   3.044
  138OSM    C7F15000   5.229   6.395   3.099
  138OSM    H7F15001   5.179   6.488   3.064
  138OSM    H7G15002   5.337   6.415   3.081
  138OSM    C8F15003   5.205   6.371   3.253
  138OSM    H8F15004   5.095   6.358   3.258
  138OSM    H8G15005   5.230   6.468   3.301
  138OSM    C9F15006   5.273   6.257   3.323
  138OSM    H9F15007   5.258   6.158   3.279
  138OSM   C10F15008   5.350   6.270   3.431
  138OSM   H10F15009   5.396   6.183   3.479
  138OSM   C11F15010   5.387   6.385   3.514
  138OSM   H11F15011   5.391   6.482   3.461
  138OSM   H11G15012   5.493   6.378   3.546
  138OSM   C12F15013   5.296   6.403   3.640
  138OSM   H12F15014   5.190   6.427   3.617
  138OSM   H12G15015   5.338   6.477   3.712
  138OSM   C13F15016   5.300   6.281   3.732
  138OSM   H13F15017   5.401   6.244   3.761
  138OSM   H13G15018   5.258   6.201   3.668
  138OSM   C14F15019   5.213   6.274   3.861
  138OSM   H14F15020   5.210   6.176   3.914
  138OSM   H14G15021   5.114   6.305   3.821
  138OSM   C15F15022   5.253   6.375   3.968
  138OSM   H15F15023   5.168   6.418   4.025
  138OSM   H15G15024   5.299   6.463   3.918
  138OSM   C16F15025   5.347   6.306   4.073
  138OSM   H16F15026   5.441   6.292   4.017
  138OSM   H16G15027   5.294   6.212   4.101
  138OSM   C17F15028   5.357   6.400   4.196
  138OSM   H17F15029   5.258   6.435   4.231
  138OSM   H17G15030   5.426   6.486   4.183
  138OSM   C18F15031   5.423   6.323   4.314
  138OSM   H18F15032   5.410   6.357   4.419
  138OSM   H18G15033   5.532   6.315   4.298
  138OSM   H18H15034   5.383   6.220   4.319
  139OSM      N15035   1.329   1.690   2.253
  139OSM    C1515036   1.338   1.541   2.264
  139OSM   H15A15037   1.259   1.482   2.221
  139OSM   H15B15038   1.342   1.504   2.366
  139OSM   H15C15039   1.431   1.508   2.220
  139OSM    C1415040   1.424   1.745   2.362
  139OSM   H14A15041   1.519   1.699   2.340
  139OSM   H14B15042   1.383   1.713   2.457
  139OSM   H14C15043   1.436   1.852   2.352
  139OSM    C1315044   1.372   1.745   2.119
  139OSM   H13A15045   1.300   1.718   2.043
  139OSM   H13B15046   1.474   1.714   2.101
  139OSM   H13C15047   1.383   1.852   2.122
  139OSM    C1215048   1.184   1.731   2.294
  139OSM   H12A15049   1.167   1.837   2.300
  139OSM   H12B15050   1.159   1.692   2.392
  139OSM    C1115051   1.070   1.698   2.193
  139OSM   H11A15052   1.089   1.745   2.095
  139OSM   H11B15053   0.977   1.746   2.230
  139OSM      P15054   0.943   1.466   2.238
  139OSM    O1315055   0.818   1.509   2.177
  139OSM    O1415056   0.972   1.327   2.222
  139OSM    O1115057   0.959   1.505   2.388
  139OSM    O1215058   1.051   1.557   2.162
  139OSM    C1S15059   0.863   1.582   2.459
  139OSM    H1S15060   0.758   1.558   2.432
  139OSM    H1T15061   0.889   1.687   2.438
  139OSM     NF15062   0.773   1.588   2.690
  139OSM    HNF15063   0.757   1.685   2.703
  139OSM    C2S15064   0.888   1.550   2.610
  139OSM    H2S15065   0.903   1.440   2.621
  139OSM    C3S15066   1.022   1.617   2.654
  139OSM    H3S15067   1.006   1.725   2.635
  139OSM     O315068   1.136   1.569   2.579
  139OSM    HO315069   1.097   1.517   2.509
  139OSM    C4S15070   1.054   1.595   2.802
  139OSM    H4S15071   0.966   1.623   2.862
  139OSM    C5S15072   1.145   1.525   2.869
  139OSM    H5S15073   1.226   1.482   2.808
  139OSM    C6S15074   1.151   1.516   3.014
  139OSM    H6S15075   1.249   1.544   3.057
  139OSM    H6T15076   1.125   1.416   3.055
  139OSM    C7S15077   1.051   1.598   3.100
  139OSM    H7S15078   0.944   1.572   3.083
  139OSM    H7T15079   1.076   1.702   3.068
  139OSM    C8S15080   1.081   1.614   3.249
  139OSM    H8S15081   1.060   1.717   3.284
  139OSM    H8T15082   1.191   1.621   3.263
  139OSM    C9S15083   1.015   1.510   3.339
  139OSM    H9S15084   1.055   1.412   3.306
  139OSM    H9T15085   0.905   1.511   3.323
  139OSM   C10S15086   1.052   1.517   3.490
  139OSM   H10S15087   1.159   1.489   3.498
  139OSM   H10T15088   0.978   1.450   3.539
  139OSM   C11S15089   1.043   1.657   3.558
  139OSM   H11S15090   0.950   1.710   3.528
  139OSM   H11T15091   1.126   1.715   3.513
  139OSM   C12S15092   1.043   1.651   3.711
  139OSM   H12S15093   0.973   1.570   3.742
  139OSM   H12T15094   1.009   1.748   3.753
  139OSM   C13S15095   1.185   1.620   3.746
  139OSM   H13S15096   1.252   1.708   3.738
  139OSM   H13T15097   1.227   1.530   3.698
  139OSM   C14S15098   1.181   1.575   3.896
  139OSM   H14S15099   1.108   1.494   3.915
  139OSM   H14T15100   1.144   1.664   3.952
  139OSM   C15S15101   1.321   1.532   3.944
  139OSM   H15S15102   1.390   1.616   3.968
  139OSM   H15T15103   1.366   1.455   3.877
  139OSM   C16S15104   1.314   1.447   4.078
  139OSM   H16S15105   1.412   1.394   4.087
  139OSM   H16T15106   1.244   1.361   4.076
  139OSM   C17S15107   1.258   1.523   4.196
  139OSM   H17S15108   1.152   1.552   4.178
  139OSM   H17T15109   1.314   1.618   4.213
  139OSM   C18S15110   1.260   1.450   4.330
  139OSM   H18S15111   1.366   1.440   4.363
  139OSM   H18T15112   1.215   1.349   4.319
  139OSM   H18U15113   1.199   1.497   4.410
  139OSM    C1F15114   0.679   1.495   2.706
  139OSM     OF15115   0.704   1.377   2.683
  139OSM    C2F15116   0.549   1.541   2.756
  139OSM    H2F15117   0.495   1.449   2.788
  139OSM    H2G15118   0.497   1.580   2.665
  139OSM    C3F15119   0.563   1.649   2.861
  139OSM    H3F15120   0.461   1.681   2.891
  139OSM    H3G15121   0.605   1.744   2.823
  139OSM    C4F15122   0.634   1.614   2.997
  139OSM    H4F15123   0.659   1.693   3.071
  139OSM    H4G15124   0.734   1.580   2.961
  139OSM    C5F15125   0.552   1.517   3.084
  139OSM    H5F15126   0.550   1.415   3.038
  139OSM    H5G15127   0.445   1.544   3.086
  139OSM    C6F15128   0.623   1.499   3.223
  139OSM    H6F15129   0.639   1.603   3.259
  139OSM    H6G15130   0.722   1.451   3.206
  139OSM    C7F15131   0.542   1.407   3.317
  139OSM    H7F15132   0.538   1.316   3.252
  139OSM    H7G15133   0.442   1.451   3.336
  139OSM    C8F15134   0.619   1.369   3.444
  139OSM    H8F15135   0.690   1.452   3.466
  139OSM    H8G15136   0.683   1.281   3.422
  139OSM    C9F15137   0.525   1.343   3.557
  139OSM    H9F15138   0.436   1.283   3.535
  139OSM   C10F15139   0.536   1.409   3.673
  139OSM   H10F15140   0.468   1.392   3.758
  139OSM   C11F15141   0.647   1.510   3.709
  139OSM   H11F15142   0.632   1.601   3.647
  139OSM   H11G15143   0.752   1.476   3.694
  139OSM   C12F15144   0.626   1.537   3.861
  139OSM   H12F15145   0.640   1.442   3.916
  139OSM   H12G15146   0.527   1.583   3.881
  139OSM   C13F15147   0.733   1.629   3.919
  139OSM   H13F15148   0.727   1.724   3.860
  139OSM   H13G15149   0.836   1.588   3.912
  139OSM   C14F15150   0.709   1.664   4.070
  139OSM   H14F15151   0.678   1.570   4.121
  139OSM   H14G15152   0.617   1.726   4.078
  139OSM   C15F15153   0.824   1.732   4.147
  139OSM   H15F15154   0.902   1.658   4.170
  139OSM   H15G15155   0.800   1.778   4.245
  139OSM   C16F15156   0.877   1.857   4.073
  139OSM   H16F15157   0.785   1.917   4.055
  139OSM   H16G15158   0.919   1.825   3.975
  139OSM   C17F15159   0.965   1.945   4.159
  139OSM   H17F15160   0.908   1.978   4.248
  139OSM   H17G15161   1.021   2.024   4.104
  139OSM   C18F15162   1.081   1.854   4.225
  139OSM   H18F15163   1.151   1.924   4.278
  139OSM   H18G15164   1.132   1.799   4.143
  139OSM   H18H15165   1.042   1.779   4.297
  140OSM      N15166   4.659   0.021   1.643
  140OSM    C1515167   4.691   0.071   1.510
  140OSM   H15A15168   4.670   0.175   1.489
  140OSM   H15B15169   4.622   0.022   1.442
  140OSM   H15C15170   4.792   0.052   1.479
  140OSM    C1415171   4.516   0.054   1.679
  140OSM   H14A15172   4.500   0.055   1.786
  140OSM   H14B15173   4.457   6.869   1.623
  140OSM   H14C15174   4.495   0.151   1.637
  140OSM    C1315175   4.660   6.759   1.639
  140OSM   H13A15176   4.626   6.717   1.733
  140OSM   H13B15177   4.760   6.720   1.630
  140OSM   H13C15178   4.593   6.728   1.560
  140OSM    C1215179   4.751   0.071   1.760
  140OSM   H12A15180   4.730   0.015   1.850
  140OSM   H12B15181   4.734   0.176   1.780
  140OSM    C1115182   4.902   0.059   1.738
  140OSM   H11A15183   4.958   0.136   1.794
  140OSM   H11B15184   4.936   0.098   1.640
  140OSM      P15185   4.957   6.739   1.910
  140OSM    O1315186   4.956   6.594   1.902
  140OSM    O1415187   5.070   6.798   1.979
  140OSM    O1115188   4.815   6.775   1.970
  140OSM    O1215189   4.946   6.808   1.767
  140OSM    C1S15190   4.751   6.703   2.072
  140OSM    H1S15191   4.792   6.599   2.072
  140OSM    H1T15192   4.643   6.689   2.050
  140OSM     NF15193   4.711   6.683   2.304
  140OSM    HNF15194   4.625   6.710   2.347
  140OSM    C2S15195   4.760   6.771   2.211
  140OSM    H2S15196   4.866   6.785   2.242
  140OSM    C3S15197   4.686   0.020   2.207
  140OSM    H3S15198   4.579   6.876   2.205
  140OSM     O315199   4.707   0.097   2.088
  140OSM    HO315200   4.754   0.038   2.029
  140OSM    C4S15201   4.710   0.108   2.325
  140OSM    H4S15202   4.804   0.164   2.318
  140OSM    C5S15203   4.618   0.139   2.415
  140OSM    H5S15204   4.514   0.109   2.395
  140OSM    C6S15205   4.637   0.225   2.542
  140OSM    H6S15206   4.556   0.300   2.541
  140OSM    H6T15207   4.738   0.271   2.545
  140OSM    C7S15208   4.627   0.126   2.667
  140OSM    H7S15209   4.688   0.038   2.636
  140OSM    H7T15210   4.520   0.093   2.665
  140OSM    C8S15211   4.676   0.182   2.802
  140OSM    H8S15212   4.631   0.282   2.820
  140OSM    H8T15213   4.786   0.188   2.787
  140OSM    C9S15214   4.646   0.086   2.920
  140OSM    H9S15215   4.708   6.880   2.920
  140OSM    H9T15216   4.542   0.046   2.921
  140OSM   C10S15217   4.679   0.157   3.051
  140OSM   H10S15218   4.599   0.231   3.069
  140OSM   H10T15219   4.770   0.221   3.050
  140OSM   C11S15220   4.713   0.057   3.163
  140OSM   H11S15221   4.807   0.002   3.142
  140OSM   H11T15222   4.635   6.864   3.167
  140OSM   C12S15223   4.729   0.123   3.297
  140OSM   H12S15224   4.625   0.153   3.321
  140OSM   H12T15225   4.804   0.203   3.282
  140OSM   C13S15226   4.766   0.025   3.406
  140OSM   H13S15227   4.872   6.877   3.403
  140OSM   H13T15228   4.696   6.827   3.386
  140OSM   C14S15229   4.728   0.071   3.551
  140OSM   H14S15230   4.785   0.163   3.576
  140OSM   H14T15231   4.771   6.878   3.617
  140OSM   C15S15232   4.578   0.081   3.579
  140OSM   H15S15233   4.530   6.870   3.554
  140OSM   H15T15234   4.523   0.147   3.509
  140OSM   C16S15235   4.536   0.121   3.721
  140OSM   H16S15236   4.428   0.146   3.723
  140OSM   H16T15237   4.595   0.212   3.742
  140OSM   C17S15238   4.558   0.012   3.826
  140OSM   H17S15239   4.663   0.001   3.859
  140OSM   H17T15240   4.525   6.802   3.782
  140OSM   C18S15241   4.475   0.045   3.951
  140OSM   H18S15242   4.370   0.062   3.921
  140OSM   H18T15243   4.520   0.134   4.001
  140OSM   H18U15244   4.474   6.842   4.017
  140OSM    C1F15245   4.771   6.571   2.349
  140OSM     OF15246   4.864   6.522   2.295
  140OSM    C2F15247   4.718   6.513   2.475
  140OSM    H2F15248   4.702   6.404   2.467
  140OSM    H2G15249   4.614   6.547   2.497
  140OSM    C3F15250   4.808   6.563   2.595
  140OSM    H3F15251   4.824   6.672   2.579
  140OSM    H3G15252   4.912   6.524   2.587
  140OSM    C4F15253   4.749   6.526   2.731
  140OSM    H4F15254   4.685   6.436   2.724
  140OSM    H4G15255   4.675   6.605   2.757
  140OSM    C5F15256   4.853   6.518   2.847
  140OSM    H5F15257   4.944   6.579   2.834
  140OSM    H5G15258   4.888   6.413   2.860
  140OSM    C6F15259   4.789   6.565   2.977
  140OSM    H6F15260   4.729   6.476   3.006
  140OSM    H6G15261   4.728   6.655   2.958
  140OSM    C7F15262   4.895   6.581   3.081
  140OSM    H7F15263   4.959   6.666   3.047
  140OSM    H7G15264   4.966   6.497   3.093
  140OSM    C8F15265   4.843   6.600   3.222
  140OSM    H8F15266   4.770   6.683   3.212
  140OSM    H8G15267   4.914   6.639   3.298
  140OSM    C9F15268   4.777   6.478   3.281
  140OSM    H9F15269   4.691   6.443   3.223
  140OSM   C10F15270   4.817   6.410   3.392
  140OSM   H10F15271   4.756   6.323   3.421
  140OSM   C11F15272   4.925   6.433   3.492
  140OSM   H11F15273   4.977   6.523   3.453
  140OSM   H11G15274   4.988   6.341   3.487
  140OSM   C12F15275   4.868   6.457   3.636
  140OSM   H12F15276   4.832   6.561   3.621
  140OSM   H12G15277   4.964   6.463   3.693
  140OSM   C13F15278   4.765   6.364   3.695
  140OSM   H13F15279   4.813   6.264   3.698
  140OSM   H13G15280   4.683   6.357   3.620
  140OSM   C14F15281   4.724   6.409   3.838
  140OSM   H14F15282   4.658   6.495   3.814
  140OSM   H14G15283   4.818   6.445   3.885
  140OSM   C15F15284   4.641   6.312   3.921
  140OSM   H15F15285   4.691   6.215   3.901
  140OSM   H15G15286   4.539   6.305   3.878
  140OSM   C16F15287   4.635   6.345   4.075
  140OSM   H16F15288   4.738   6.361   4.114
  140OSM   H16G15289   4.590   6.258   4.127
  140OSM   C17F15290   4.549   6.477   4.096
  140OSM   H17F15291   4.459   6.463   4.033
  140OSM   H17G15292   4.605   6.563   4.053
  140OSM   C18F15293   4.512   6.507   4.237
  140OSM   H18F15294   4.452   6.600   4.239
  140OSM   H18G15295   4.600   6.536   4.298
  140OSM   H18H15296   4.462   6.428   4.297
  141OSM      N15297   0.247   4.366   1.389
  141OSM    C1515298   0.131   4.267   1.399
  141OSM   H15A15299   0.153   4.198   1.479
  141OSM   H15B15300   0.130   4.221   1.301
  141OSM   H15C15301   0.041   4.323   1.422
  141OSM    C1415302   0.370   4.294   1.361
  141OSM   H14A15303   0.449   4.367   1.353
  141OSM   H14B15304   0.362   4.226   1.277
  141OSM   H14C15305   0.389   4.226   1.442
  141OSM    C1315306   0.227   4.461   1.281
  141OSM   H13A15307   0.145   4.530   1.294
  141OSM   H13B15308   0.225   4.426   1.179
  141OSM   H13C15309   0.309   4.531   1.270
  141OSM    C1215310   0.267   4.444   1.519
  141OSM   H12A15311   0.166   4.481   1.533
  141OSM   H12B15312   0.327   4.532   1.502
  141OSM    C1115313   0.307   4.368   1.651
  141OSM   H11A15314   0.316   4.442   1.733
  141OSM   H11B15315   0.412   4.334   1.638
  141OSM      P15316   0.250   4.124   1.739
  141OSM    O1315317   0.130   4.037   1.746
  141OSM    O1415318   0.368   4.064   1.670
  141OSM    O1115319   0.296   4.156   1.885
  141OSM    O1215320   0.214   4.257   1.677
  141OSM    C1S15321   0.265   4.071   1.994
  141OSM    H1S15322   0.296   3.968   1.967
  141OSM    H1T15323   0.157   4.052   2.009
  141OSM     NF15324   0.350   3.990   2.209
  141OSM    HNF15325   0.288   3.968   2.283
  141OSM    C2S15326   0.334   4.111   2.126
  141OSM    H2S15327   0.433   4.149   2.093
  141OSM    C3S15328   0.249   4.228   2.187
  141OSM    H3S15329   0.150   4.194   2.225
  141OSM     O315330   0.227   4.329   2.092
  141OSM    HO315331   0.230   4.289   2.005
  141OSM    C4S15332   0.329   4.275   2.307
  141OSM    H4S15333   0.276   4.256   2.402
  141OSM    C5S15334   0.448   4.342   2.303
  141OSM    H5S15335   0.501   4.353   2.207
  141OSM    C6S15336   0.530   4.399   2.418
  141OSM    H6S15337   0.546   4.507   2.397
  141OSM    H6T15338   0.632   4.353   2.423
  141OSM    C7S15339   0.465   4.398   2.557
  141OSM    H7S15340   0.450   4.289   2.572
  141OSM    H7T15341   0.365   4.445   2.563
  141OSM    C8S15342   0.549   4.475   2.663
  141OSM    H8S15343   0.561   4.582   2.634
  141OSM    H8T15344   0.652   4.436   2.646
  141OSM    C9S15345   0.498   4.470   2.805
  141OSM    H9S15346   0.561   4.518   2.883
  141OSM    H9T15347   0.480   4.367   2.842
  141OSM   C10S15348   0.362   4.548   2.817
  141OSM   H10S15349   0.282   4.497   2.760
  141OSM   H10T15350   0.390   4.650   2.781
  141OSM   C11S15351   0.311   4.562   2.966
  141OSM   H11S15352   0.237   4.644   2.970
  141OSM   H11T15353   0.392   4.599   3.032
  141OSM   C12S15354   0.243   4.442   3.020
  141OSM   H12S15355   0.314   4.358   3.032
  141OSM   H12T15356   0.156   4.417   2.956
  141OSM   C13S15357   0.194   4.478   3.166
  141OSM   H13S15358   0.111   4.551   3.162
  141OSM   H13T15359   0.276   4.521   3.227
  141OSM   C14S15360   0.130   4.357   3.223
  141OSM   H14S15361   0.208   4.278   3.234
  141OSM   H14T15362   0.050   4.315   3.159
  141OSM   C15S15363   0.061   4.382   3.356
  141OSM   H15S15364   6.855   4.444   3.351
  141OSM   H15T15365   0.129   4.440   3.422
  141OSM   C16S15366   0.042   4.246   3.435
  141OSM   H16S15367   0.144   4.201   3.429
  141OSM   H16T15368   6.861   4.176   3.380
  141OSM   C17S15369   6.879   4.256   3.579
  141OSM   H17S15370   6.783   4.311   3.589
  141OSM   H17T15371   0.071   4.321   3.623
  141OSM   C18S15372   6.864   4.120   3.657
  141OSM   H18S15373   6.780   4.054   3.625
  141OSM   H18T15374   6.850   4.155   3.761
  141OSM   H18U15375   0.070   4.058   3.653
  141OSM    C1F15376   0.444   3.897   2.190
  141OSM     OF15377   0.501   3.888   2.084
  141OSM    C2F15378   0.459   3.788   2.298
  141OSM    H2F15379   0.475   3.696   2.238
  141OSM    H2G15380   0.355   3.786   2.337
  141OSM    C3F15381   0.575   3.815   2.397
  141OSM    H3F15382   0.667   3.850   2.347
  141OSM    H3G15383   0.593   3.721   2.454
  141OSM    C4F15384   0.535   3.914   2.507
  141OSM    H4F15385   0.445   3.867   2.551
  141OSM    H4G15386   0.503   4.007   2.454
  141OSM    C5F15387   0.637   3.947   2.619
  141OSM    H5F15388   0.713   4.021   2.585
  141OSM    H5G15389   0.681   3.850   2.649
  141OSM    C6F15390   0.580   3.995   2.754
  141OSM    H6F15391   0.506   3.924   2.797
  141OSM    H6G15392   0.532   4.093   2.734
  141OSM    C7F15393   0.693   4.018   2.845
  141OSM    H7F15394   0.762   4.085   2.789
  141OSM    H7G15395   0.750   3.925   2.867
  141OSM    C8F15396   0.663   4.104   2.969
  141OSM    H8F15397   0.590   4.183   2.941
  141OSM    H8G15398   0.750   4.159   3.011
  141OSM    C9F15399   0.611   4.017   3.077
  141OSM    H9F15400   0.607   3.910   3.055
  141OSM   C10F15401   0.556   4.069   3.193
  141OSM   H10F15402   0.520   3.998   3.268
  141OSM   C11F15403   0.551   4.219   3.231
  141OSM   H11F15404   0.450   4.253   3.200
  141OSM   H11G15405   0.620   4.287   3.177
  141OSM   C12F15406   0.565   4.248   3.371
  141OSM   H12F15407   0.542   4.354   3.393
  141OSM   H12G15408   0.667   4.229   3.410
  141OSM   C13F15409   0.455   4.200   3.465
  141OSM   H13F15410   0.441   4.090   3.466
  141OSM   H13G15411   0.359   4.247   3.437
  141OSM   C14F15412   0.485   4.231   3.617
  141OSM   H14F15413   0.528   4.333   3.620
  141OSM   H14G15414   0.557   4.156   3.656
  141OSM   C15F15415   0.364   4.218   3.712
  141OSM   H15F15416   0.326   4.114   3.717
  141OSM   H15G15417   0.277   4.275   3.671
  141OSM   C16F15418   0.403   4.273   3.849
  141OSM   H16F15419   0.501   4.242   3.890
  141OSM   H16G15420   0.326   4.262   3.929
  141OSM   C17F15421   0.414   4.433   3.847
  141OSM   H17F15422   0.344   4.469   3.769
  141OSM   H17G15423   0.516   4.448   3.806
  141OSM   C18F15424   0.378   4.502   3.980
  141OSM   H18F15425   0.399   4.611   3.971
  141OSM   H18G15426   0.446   4.466   4.061
  141OSM   H18H15427   0.269   4.488   3.995
  142OSM      N15428   1.464   5.363   1.902
  142OSM    C1515429   1.418   5.479   1.820
  142OSM   H15A15430   1.493   5.556   1.822
  142OSM   H15B15431   1.336   5.527   1.871
  142OSM   H15C15432   1.392   5.444   1.721
  142OSM    C1415433   1.369   5.253   1.906
  142OSM   H14A15434   1.273   5.287   1.942
  142OSM   H14B15435   1.402   5.165   1.960
  142OSM   H14C15436   1.351   5.207   1.810
  142OSM    C1315437   1.583   5.307   1.824
  142OSM   H13A15438   1.660   5.382   1.819
  142OSM   H13B15439   1.546   5.280   1.726
  142OSM   H13C15440   1.636   5.231   1.878
  142OSM    C1215441   1.498   5.414   2.041
  142OSM   H12A15442   1.561   5.502   2.034
  142OSM   H12B15443   1.565   5.345   2.091
  142OSM    C1115444   1.378   5.447   2.144
  142OSM   H11A15445   1.416   5.452   2.248
  142OSM   H11B15446   1.303   5.366   2.144
  142OSM      P15447   1.393   5.702   2.129
  142OSM    O1315448   1.536   5.676   2.104
  142OSM    O1415449   1.340   5.801   2.028
  142OSM    O1115450   1.367   5.738   2.280
  142OSM    O1215451   1.309   5.564   2.106
  142OSM    C1S15452   1.461   5.704   2.383
  142OSM    H1S15453   1.554   5.759   2.359
  142OSM    H1T15454   1.479   5.594   2.384
  142OSM     NF15455   1.529   5.730   2.621
  142OSM    HNF15456   1.536   5.647   2.676
  142OSM    C2S15457   1.411   5.733   2.534
  142OSM    H2S15458   1.362   5.832   2.529
  142OSM    C3S15459   1.301   5.640   2.578
  142OSM    H3S15460   1.344   5.537   2.583
  142OSM     O315461   1.202   5.621   2.478
  142OSM    HO315462   1.240   5.678   2.410
  142OSM    C4S15463   1.245   5.671   2.717
  142OSM    H4S15464   1.310   5.640   2.800
  142OSM    C5S15465   1.137   5.739   2.747
  142OSM    H5S15466   1.076   5.781   2.667
  142OSM    C6S15467   1.099   5.765   2.888
  142OSM    H6S15468   1.037   5.684   2.932
  142OSM    H6T15469   1.030   5.851   2.900
  142OSM    C7S15470   1.213   5.794   2.977
  142OSM    H7S15471   1.268   5.880   2.932
  142OSM    H7T15472   1.281   5.706   2.975
  142OSM    C8S15473   1.184   5.818   3.128
  142OSM    H8S15474   1.102   5.746   3.152
  142OSM    H8T15475   1.139   5.920   3.135
  142OSM    C9S15476   1.294   5.801   3.230
  142OSM    H9S15477   1.382   5.863   3.203
  142OSM    H9T15478   1.325   5.694   3.227
  142OSM   C10S15479   1.242   5.836   3.374
  142OSM   H10S15480   1.153   5.775   3.402
  142OSM   H10T15481   1.213   5.944   3.375
  142OSM   C11S15482   1.341   5.805   3.487
  142OSM   H11S15483   1.441   5.842   3.457
  142OSM   H11T15484   1.362   5.695   3.490
  142OSM   C12S15485   1.304   5.852   3.630
  142OSM   H12S15486   1.206   5.803   3.650
  142OSM   H12T15487   1.309   5.963   3.629
  142OSM   C13S15488   1.398   5.792   3.735
  142OSM   H13S15489   1.497   5.802   3.687
  142OSM   H13T15490   1.394   5.681   3.740
  142OSM   C14S15491   1.392   5.838   3.876
  142OSM   H14S15492   1.301   5.795   3.922
  142OSM   H14T15493   1.374   5.947   3.865
  142OSM   C15S15494   1.517   5.800   3.952
  142OSM   H15S15495   1.609   5.859   3.936
  142OSM   H15T15496   1.539   5.696   3.919
  142OSM   C16S15497   1.474   5.818   4.103
  142OSM   H16S15498   1.378   5.763   4.112
  142OSM   H16T15499   1.446   5.925   4.115
  142OSM   C17S15500   1.582   5.773   4.189
  142OSM   H17S15501   1.679   5.826   4.178
  142OSM   H17T15502   1.593   5.665   4.162
  142OSM   C18S15503   1.535   5.781   4.335
  142OSM   H18S15504   1.618   5.766   4.407
  142OSM   H18T15505   1.465   5.697   4.354
  142OSM   H18U15506   1.486   5.878   4.356
  142OSM    C1F15507   1.637   5.811   2.621
  142OSM     OF15508   1.639   5.909   2.544
  142OSM    C2F15509   1.764   5.771   2.696
  142OSM    H2F15510   1.840   5.711   2.641
  142OSM    H2G15511   1.739   5.697   2.775
  142OSM    C3F15512   1.840   5.894   2.761
  142OSM    H3F15513   1.860   5.967   2.680
  142OSM    H3G15514   1.936   5.855   2.802
  142OSM    C4F15515   1.760   5.967   2.876
  142OSM    H4F15516   1.651   5.977   2.859
  142OSM    H4G15517   1.801   6.070   2.878
  142OSM    C5F15518   1.782   5.902   3.013
  142OSM    H5F15519   1.888   5.915   3.045
  142OSM    H5G15520   1.770   5.793   3.000
  142OSM    C6F15521   1.693   5.966   3.119
  142OSM    H6F15522   1.590   5.925   3.112
  142OSM    H6G15523   1.693   6.076   3.100
  142OSM    C7F15524   1.748   5.949   3.265
  142OSM    H7F15525   1.845   6.000   3.285
  142OSM    H7G15526   1.759   5.840   3.279
  142OSM    C8F15527   1.659   6.011   3.370
  142OSM    H8F15528   1.555   5.999   3.332
  142OSM    H8G15529   1.692   6.118   3.367
  142OSM    C9F15530   1.704   5.954   3.506
  142OSM    H9F15531   1.668   5.852   3.525
  142OSM   C10F15532   1.774   6.015   3.602
  142OSM   H10F15533   1.812   5.946   3.680
  142OSM   C11F15534   1.834   6.151   3.595
  142OSM   H11F15535   1.799   6.219   3.676
  142OSM   H11G15536   1.809   6.201   3.499
  142OSM   C12F15537   1.987   6.142   3.591
  142OSM   H12F15538   2.018   6.248   3.579
  142OSM   H12G15539   2.027   6.090   3.501
  142OSM   C13F15540   2.062   6.091   3.720
  142OSM   H13F15541   2.058   5.980   3.720
  142OSM   H13G15542   1.994   6.119   3.803
  142OSM   C14F15543   2.209   6.120   3.743
  142OSM   H14F15544   2.225   6.227   3.717
  142OSM   H14G15545   2.264   6.057   3.670
  142OSM   C15F15546   2.241   6.097   3.883
  142OSM   H15F15547   2.224   5.992   3.914
  142OSM   H15G15548   2.176   6.155   3.952
  142OSM   C16F15549   2.388   6.122   3.905
  142OSM   H16F15550   2.395   6.227   3.868
  142OSM   H16G15551   2.459   6.058   3.848
  142OSM   C17F15552   2.426   6.137   4.049
  142OSM   H17F15553   2.348   6.202   4.094
  142OSM   H17G15554   2.526   6.186   4.061
  142OSM   C18F15555   2.432   5.989   4.108
  142OSM   H18F15556   2.330   5.951   4.125
  142OSM   H18G15557   2.487   5.993   4.205
  142OSM   H18H15558   2.484   5.924   4.034
  143OSM      N15559   1.075   4.546   2.031
  143OSM    C1515560   0.944   4.474   2.004
  143OSM   H15A15561   0.863   4.546   2.010
  143OSM   H15B15562   0.923   4.403   2.081
  143OSM   H15C15563   0.947   4.422   1.909
  143OSM    C1415564   1.063   4.616   2.161
  143OSM   H14A15565   1.149   4.679   2.178
  143OSM   H14B15566   1.045   4.543   2.238
  143OSM   H14C15567   0.981   4.686   2.160
  143OSM    C1315568   1.183   4.442   2.045
  143OSM   H13A15569   1.154   4.370   2.120
  143OSM   H13B15570   1.277   4.484   2.079
  143OSM   H13C15571   1.198   4.395   1.949
  143OSM    C1215572   1.110   4.647   1.927
  143OSM   H12A15573   1.137   4.602   1.833
  143OSM   H12B15574   1.203   4.691   1.962
  143OSM    C1115575   1.019   4.772   1.901
  143OSM   H11A15576   0.912   4.745   1.885
  143OSM   H11B15577   1.059   4.813   1.806
  143OSM      P15578   1.148   4.983   1.991
  143OSM    O1315579   1.268   4.912   1.937
  143OSM    O1415580   1.100   5.089   1.903
  143OSM    O1115581   1.185   5.039   2.138
  143OSM    O1215582   1.023   4.875   2.002
  143OSM    C1S15583   1.082   5.047   2.232
  143OSM    H1S15584   1.001   4.972   2.218
  143OSM    H1T15585   1.033   5.146   2.229
  143OSM     NF15586   1.056   5.018   2.493
  143OSM    HNF15587   1.060   5.088   2.564
  143OSM    C2S15588   1.148   5.015   2.377
  143OSM    H2S15589   1.191   4.914   2.362
  143OSM    C3S15590   1.268   5.109   2.402
  143OSM    H3S15591   1.239   5.216   2.389
  143OSM     O315592   1.376   5.090   2.308
  143OSM    HO315593   1.336   5.070   2.223
  143OSM    C4S15594   1.338   5.104   2.540
  143OSM    H4S15595   1.302   5.169   2.621
  143OSM    C5S15596   1.427   5.006   2.579
  143OSM    H5S15597   1.463   4.937   2.501
  143OSM    C6S15598   1.487   4.978   2.715
  143OSM    H6S15599   1.574   5.044   2.738
  143OSM    H6T15600   1.522   4.873   2.726
  143OSM    C7S15601   1.393   5.013   2.830
  143OSM    H7S15602   1.292   4.967   2.830
  143OSM    H7T15603   1.367   5.121   2.839
  143OSM    C8S15604   1.473   4.982   2.962
  143OSM    H8S15605   1.558   5.054   2.952
  143OSM    H8T15606   1.505   4.876   2.968
  143OSM    C9S15607   1.401   5.012   3.095
  143OSM    H9S15608   1.318   4.939   3.099
  143OSM    H9T15609   1.350   5.109   3.079
  143OSM   C10S15610   1.476   5.008   3.231
  143OSM   H10S15611   1.560   5.078   3.212
  143OSM   H10T15612   1.518   4.906   3.245
  143OSM   C11S15613   1.384   5.039   3.347
  143OSM   H11S15614   1.288   4.987   3.329
  143OSM   H11T15615   1.359   5.148   3.347
  143OSM   C12S15616   1.455   5.017   3.483
  143OSM   H12S15617   1.559   5.056   3.492
  143OSM   H12T15618   1.469   4.908   3.496
  143OSM   C13S15619   1.374   5.058   3.614
  143OSM   H13S15620   1.274   5.011   3.607
  143OSM   H13T15621   1.372   5.169   3.621
  143OSM   C14S15622   1.434   4.991   3.735
  143OSM   H14S15623   1.495   5.071   3.783
  143OSM   H14T15624   1.494   4.902   3.710
  143OSM   C15S15625   1.321   4.943   3.825
  143OSM   H15S15626   1.270   4.858   3.775
  143OSM   H15T15627   1.245   5.022   3.844
  143OSM   C16S15628   1.375   4.899   3.955
  143OSM   H16S15629   1.429   4.984   4.003
  143OSM   H16T15630   1.452   4.820   3.938
  143OSM   C17S15631   1.276   4.837   4.054
  143OSM   H17S15632   1.319   4.742   4.092
  143OSM   H17T15633   1.183   4.811   3.999
  143OSM   C18S15634   1.244   4.927   4.172
  143OSM   H18S15635   1.341   4.954   4.219
  143OSM   H18T15636   1.172   4.879   4.242
  143OSM   H18U15637   1.196   5.024   4.145
  143OSM    C1F15638   0.973   4.914   2.509
  143OSM     OF15639   0.977   4.821   2.431
  143OSM    C2F15640   0.876   4.916   2.621
  143OSM    H2F15641   0.894   5.009   2.680
  143OSM    H2G15642   0.906   4.825   2.678
  143OSM    C3F15643   0.731   4.885   2.586
  143OSM    H3F15644   0.711   4.789   2.533
  143OSM    H3G15645   0.706   4.956   2.504
  143OSM    C4F15646   0.618   4.893   2.689
  143OSM    H4F15647   0.524   4.857   2.642
  143OSM    H4G15648   0.612   5.003   2.699
  143OSM    C5F15649   0.664   4.823   2.817
  143OSM    H5F15650   0.766   4.865   2.832
  143OSM    H5G15651   0.679   4.714   2.802
  143OSM    C6F15652   0.583   4.861   2.947
  143OSM    H6F15653   0.475   4.835   2.946
  143OSM    H6G15654   0.592   4.970   2.966
  143OSM    C7F15655   0.634   4.795   3.073
  143OSM    H7F15656   0.745   4.799   3.083
  143OSM    H7G15657   0.601   4.690   3.057
  143OSM    C8F15658   0.559   4.838   3.207
  143OSM    H8F15659   0.456   4.806   3.184
  143OSM    H8G15660   0.554   4.948   3.226
  143OSM    C9F15661   0.617   4.764   3.329
  143OSM    H9F15662   0.726   4.777   3.344
  143OSM   C10F15663   0.543   4.693   3.420
  143OSM   H10F15664   0.597   4.634   3.495
  143OSM   C11F15665   0.393   4.664   3.427
  143OSM   H11F15666   0.381   4.554   3.419
  143OSM   H11G15667   0.330   4.724   3.358
  143OSM   C12F15668   0.343   4.705   3.564
  143OSM   H12F15669   0.364   4.813   3.579
  143OSM   H12G15670   0.399   4.653   3.646
  143OSM   C13F15671   0.196   4.679   3.590
  143OSM   H13F15672   0.163   4.578   3.556
  143OSM   H13G15673   0.145   4.739   3.512
  143OSM   C14F15674   0.154   4.709   3.733
  143OSM   H14F15675   0.145   4.819   3.748
  143OSM   H14G15676   0.237   4.673   3.797
  143OSM   C15F15677   0.026   4.632   3.771
  143OSM   H15F15678   0.055   4.528   3.745
  143OSM   H15G15679   6.831   4.666   3.703
  143OSM   C16F15680   6.885   4.659   3.923
  143OSM   H16F15681   6.876   4.768   3.945
  143OSM   H16G15682   0.087   4.624   3.981
  143OSM   C17F15683   6.756   4.591   3.979
  143OSM   H17F15684   6.759   4.481   3.963
  143OSM   H17G15685   6.675   4.628   3.912
  143OSM   C18F15686   6.722   4.624   4.128
  143OSM   H18F15687   6.700   4.732   4.144
  143OSM   H18G15688   6.812   4.598   4.187
  143OSM   H18H15689   6.632   4.567   4.160
  144OSM      N15690   0.783   5.783   1.742
  144OSM    C1515691   0.803   5.814   1.599
  144OSM   H15A15692   0.822   5.729   1.535
  144OSM   H15B15693   0.879   5.889   1.584
  144OSM   H15C15694   0.709   5.847   1.557
  144OSM    C1415695   0.908   5.749   1.807
  144OSM   H14A15696   0.895   5.711   1.908
  144OSM   H14B15697   0.982   5.828   1.804
  144OSM   H14C15698   0.952   5.667   1.753
  144OSM    C1315699   0.729   5.899   1.807
  144OSM   H13A15700   0.794   5.985   1.806
  144OSM   H13B15701   0.714   5.882   1.913
  144OSM   H13C15702   0.640   5.937   1.759
  144OSM    C1215703   0.684   5.668   1.752
  144OSM   H12A15704   0.728   5.577   1.713
  144OSM   H12B15705   0.596   5.679   1.690
  144OSM    C1115706   0.635   5.629   1.892
  144OSM   H11A15707   0.550   5.558   1.882
  144OSM   H11B15708   0.592   5.716   1.946
  144OSM      P15709   0.708   5.487   2.100
  144OSM    O1315710   0.592   5.401   2.064
  144OSM    O1415711   0.832   5.422   2.161
  144OSM    O1115712   0.651   5.578   2.225
  144OSM    O1215713   0.739   5.568   1.967
  144OSM    C1S15714   0.684   5.719   2.235
  144OSM    H1S15715   0.633   5.782   2.159
  144OSM    H1T15716   0.794   5.730   2.232
  144OSM     NF15717   0.644   5.914   2.373
  144OSM    HNF15718   0.727   5.958   2.408
  144OSM    C2S15719   0.639   5.766   2.376
  144OSM    H2S15720   0.530   5.754   2.391
  144OSM    C3S15721   0.717   5.703   2.498
  144OSM    H3S15722   0.825   5.727   2.493
  144OSM     O315723   0.721   5.560   2.498
  144OSM    HO315724   0.716   5.543   2.404
  144OSM    C4S15725   0.673   5.745   2.638
  144OSM    H4S15726   0.586   5.689   2.675
  144OSM    C5S15727   0.738   5.809   2.732
  144OSM    H5S15728   0.833   5.860   2.710
  144OSM    C6S15729   0.684   5.847   2.869
  144OSM    H6S15730   0.593   5.786   2.888
  144OSM    H6T15731   0.657   5.955   2.870
  144OSM    C7S15732   0.784   5.827   2.981
  144OSM    H7S15733   0.859   5.908   2.967
  144OSM    H7T15734   0.832   5.727   2.982
  144OSM    C8S15735   0.708   5.826   3.121
  144OSM    H8S15736   0.654   5.729   3.129
  144OSM    H8T15737   0.639   5.912   3.133
  144OSM    C9S15738   0.811   5.825   3.236
  144OSM    H9S15739   0.884   5.908   3.227
  144OSM    H9T15740   0.889   5.746   3.238
  144OSM   C10S15741   0.746   5.858   3.374
  144OSM   H10S15742   0.654   5.796   3.380
  144OSM   H10T15743   0.714   5.964   3.378
  144OSM   C11S15744   0.837   5.828   3.486
  144OSM   H11S15745   0.924   5.893   3.465
  144OSM   H11T15746   0.872   5.723   3.483
  144OSM   C12S15747   0.772   5.855   3.620
  144OSM   H12S15748   0.667   5.821   3.627
  144OSM   H12T15749   0.771   5.966   3.630
  144OSM   C13S15750   0.850   5.800   3.745
  144OSM   H13S15751   0.961   5.800   3.734
  144OSM   H13T15752   0.819   5.694   3.754
  144OSM   C14S15753   0.819   5.876   3.876
  144OSM   H14S15754   0.847   5.982   3.857
  144OSM   H14T15755   0.879   5.828   3.955
  144OSM   C15S15756   0.675   5.857   3.925
  144OSM   H15S15757   0.662   5.747   3.941
  144OSM   H15T15758   0.608   5.901   3.848
  144OSM   C16S15759   0.645   5.930   4.060
  144OSM   H16S15760   0.742   5.921   4.114
  144OSM   H16T15761   0.560   5.876   4.106
  144OSM   C17S15762   0.624   6.080   4.037
  144OSM   H17S15763   0.530   6.108   3.985
  144OSM   H17T15764   0.714   6.108   3.978
  144OSM   C18S15765   0.617   6.150   4.168
  144OSM   H18S15766   0.533   6.132   4.239
  144OSM   H18T15767   0.621   6.258   4.142
  144OSM   H18U15768   0.708   6.130   4.229
  144OSM    C1F15769   0.561   5.981   2.296
  144OSM     OF15770   0.454   5.934   2.260
  144OSM    C2F15771   0.597   6.122   2.255
  144OSM    H2F15772   0.587   6.113   2.145
  144OSM    H2G15773   0.696   6.149   2.297
  144OSM    C3F15774   0.487   6.213   2.314
  144OSM    H3F15775   0.388   6.189   2.269
  144OSM    H3G15776   0.508   6.313   2.270
  144OSM    C4F15777   0.504   6.227   2.463
  144OSM    H4F15778   0.611   6.249   2.480
  144OSM    H4G15779   0.490   6.134   2.522
  144OSM    C5F15780   0.422   6.346   2.525
  144OSM    H5F15781   0.404   6.434   2.460
  144OSM    H5G15782   0.479   6.384   2.613
  144OSM    C6F15783   0.284   6.297   2.579
  144OSM    H6F15784   0.287   6.221   2.659
  144OSM    H6G15785   0.229   6.238   2.503
  144OSM    C7F15786   0.206   6.415   2.638
  144OSM    H7F15787   0.199   6.487   2.554
  144OSM    H7G15788   0.269   6.459   2.718
  144OSM    C8F15789   0.064   6.382   2.678
  144OSM    H8F15790   0.010   6.356   2.584
  144OSM    H8G15791   0.020   6.474   2.723
  144OSM    C9F15792   0.041   6.271   2.785
  144OSM    H9F15793   0.050   6.170   2.742
  144OSM   C10F15794   0.024   6.280   2.916
  144OSM   H10F15795   0.021   6.187   2.975
  144OSM   C11F15796   0.002   6.410   2.988
  144OSM   H11F15797   6.800   6.398   3.055
  144OSM   H11G15798   6.870   6.493   2.916
  144OSM   C12F15799   0.122   6.453   3.073
  144OSM   H12F15800   0.209   6.429   3.008
  144OSM   H12G15801   0.128   6.392   3.166
  144OSM   C13F15802   0.120   6.596   3.119
  144OSM   H13F15803   0.042   6.614   3.196
  144OSM   H13G15804   0.077   6.651   3.032
  144OSM   C14F15805   0.269   6.642   3.157
  144OSM   H14F15806   0.343   6.617   3.078
  144OSM   H14G15807   0.295   6.574   3.242
  144OSM   C15F15808   0.286   6.789   3.194
  144OSM   H15F15809   0.214   6.812   3.275
  144OSM   H15G15810   0.258   6.849   3.105
  144OSM   C16F15811   0.426   6.828   3.234
  144OSM   H16F15812   0.454   6.774   3.327
  144OSM   H16G15813   0.418   0.052   3.240
  144OSM   C17F15814   0.533   6.800   3.128
  144OSM   H17F15815   0.546   6.691   3.115
  144OSM   H17G15816   0.635   6.830   3.159
  144OSM   C18F15817   0.507   6.886   2.998
  144OSM   H18F15818   0.406   6.856   2.962
  144OSM   H18G15819   0.588   6.856   2.927
  144OSM   H18H15820   0.513   0.109   3.017
  145SAPE     N15821   1.262   1.084   6.699
  145SAPE   HN115822   1.266   1.060   6.800
  145SAPE   HN215823   1.346   1.140   6.672
  145SAPE   HN315824   1.179   1.144   6.685
  145SAPE   C1215825   1.264   0.957   6.627
  145SAPE  H12A15826   1.371   0.930   6.611
  145SAPE  H12B15827   1.223   0.991   6.530
  145SAPE   C1115828   1.189   0.840   6.696
  145SAPE  H11A15829   1.239   0.819   6.793
  145SAPE  H11B15830   1.201   0.745   6.639
  145SAPE     P15831   0.933   0.791   6.678
  145SAPE   O1315832   0.916   0.661   6.747
  145SAPE   O1415833   0.813   0.879   6.675
  145SAPE   O1215834   1.054   0.871   6.730
  145SAPE   O1115835   0.983   0.755   6.526
  145SAPE    C115836   0.999   0.855   6.419
  145SAPE    HA15837   1.007   0.961   6.450
  145SAPE    HB15838   1.092   0.837   6.362
  145SAPE    C215839   0.881   0.842   6.318
  145SAPE    HS15840   0.784   0.845   6.372
  145SAPE   O2115841   0.911   0.722   6.247
  145SAPE   C2115842   0.810   0.647   6.199
  145SAPE   O2215843   0.690   0.665   6.219
  145SAPE   C2215844   0.868   0.534   6.114
  145SAPE   H2R15845   0.969   0.549   6.069
  145SAPE   H2S15846   0.875   0.443   6.179
  145SAPE    C315847   0.874   0.964   6.226
  145SAPE    HX15848   0.978   0.967   6.186
  145SAPE    HY15849   0.861   1.056   6.287
  145SAPE   O3115850   0.779   0.942   6.118
  145SAPE   C3115851   0.693   1.040   6.094
  145SAPE   O3215852   0.697   1.152   6.147
  145SAPE   C3215853   0.596   1.004   5.978
  145SAPE   H2X15854   0.524   1.088   5.986
  145SAPE   H2Y15855   0.546   0.908   6.004
  145SAPE   C2315856   0.772   0.515   5.990
  145SAPE   H3R15857   0.667   0.517   6.025
  145SAPE   H3S15858   0.787   0.412   5.950
  145SAPE   C2415859   0.783   0.606   5.868
  145SAPE   H4R15860   0.888   0.593   5.833
  145SAPE   H4S15861   0.797   0.710   5.903
  145SAPE   C2515862   0.690   0.586   5.750
  145SAPE   H5R15863   0.595   0.641   5.755
  145SAPE   C2615864   0.693   0.488   5.658
  145SAPE   H6R15865   0.608   0.489   5.587
  145SAPE   C2715866   0.803   0.389   5.633
  145SAPE   H7R15867   0.748   0.292   5.639
  145SAPE   H7S15868   0.881   0.381   5.711
  145SAPE   C2815869   0.877   0.402   5.497
  145SAPE   H8R15870   0.971   0.460   5.499
  145SAPE   C2915871   0.832   0.365   5.382
  145SAPE   H9R15872   0.896   0.370   5.293
  145SAPE  C21015873   0.700   0.294   5.364
  145SAPE  H10R15874   0.627   0.330   5.439
  145SAPE  H10S15875   0.720   0.186   5.379
  145SAPE  C21115876   0.652   0.339   5.231
  145SAPE  H11R15877   0.602   0.437   5.230
  145SAPE  C21215878   0.664   0.270   5.114
  145SAPE  H12R15879   0.622   0.324   5.028
  145SAPE  C21315880   0.717   0.131   5.095
  145SAPE  H13R15881   0.703   0.080   5.193
  145SAPE  H13S15882   0.827   0.143   5.091
  145SAPE  C21415883   0.656   0.038   4.988
  145SAPE  H14R15884   0.574   6.861   5.024
  145SAPE  C21515885   0.693   0.029   4.856
  145SAPE  H15R15886   0.662   6.827   4.798
  145SAPE  C21615887   0.800   0.101   4.783
  145SAPE  H16R15888   0.882   0.148   4.841
  145SAPE  H16S15889   0.745   0.185   4.736
  145SAPE  C21715890   0.864   0.027   4.662
  145SAPE  H17R15891   0.937   0.102   4.625
  145SAPE  H17S15892   0.786   0.002   4.587
  145SAPE  C21815893   0.962   6.792   4.699
  145SAPE  H18R15894   0.901   6.703   4.725
  145SAPE  H18S15895   1.013   6.825   4.792
  145SAPE  C21915896   1.064   6.755   4.592
  145SAPE  H19R15897   1.132   6.681   4.639
  145SAPE  H19S15898   1.124   6.843   4.558
  145SAPE  C22015899   0.992   6.694   4.462
  145SAPE  H20R15900   0.922   6.621   4.507
  145SAPE  H20S15901   1.076   6.653   4.402
  145SAPE  H20T15902   0.931   6.763   4.401
  145SAPE   C3315903   0.662   0.995   5.841
  145SAPE   H3X15904   0.740   0.915   5.837
  145SAPE   H3Y15905   0.713   1.090   5.814
  145SAPE   C3415906   0.557   0.965   5.728
  145SAPE   H4X15907   0.490   0.880   5.754
  145SAPE   H4Y15908   0.622   0.936   5.642
  145SAPE   C3515909   0.480   1.091   5.681
  145SAPE   H5X15910   0.552   1.160   5.632
  145SAPE   H5Y15911   0.437   1.148   5.765
  145SAPE   C3615912   0.365   1.060   5.581
  145SAPE   H6X15913   0.316   1.158   5.559
  145SAPE   H6Y15914   0.292   1.003   5.642
  145SAPE   C3715915   0.405   0.977   5.456
  145SAPE   H7X15916   0.311   0.974   5.398
  145SAPE   H7Y15917   0.426   0.868   5.466
  145SAPE   C3815918   0.515   1.045   5.375
  145SAPE   H8X15919   0.606   1.045   5.438
  145SAPE   H8Y15920   0.487   1.151   5.355
  145SAPE   C3915921   0.536   0.969   5.245
  145SAPE   H9X15922   0.441   0.957   5.188
  145SAPE   H9Y15923   0.582   0.872   5.273
  145SAPE  C31015924   0.638   1.033   5.150
  145SAPE  H10X15925   0.734   1.041   5.206
  145SAPE  H10Y15926   0.608   1.137   5.126
  145SAPE  C31115927   0.650   0.979   5.012
  145SAPE  H11X15928   0.551   0.956   4.966
  145SAPE  H11Y15929   0.693   0.877   5.010
  145SAPE  C31215930   0.727   1.077   4.929
  145SAPE  H12X15931   0.819   1.108   4.983
  145SAPE  H12Y15932   0.657   1.162   4.914
  145SAPE  C31315933   0.766   1.009   4.797
  145SAPE  H13X15934   0.668   0.986   4.749
  145SAPE  H13Y15935   0.824   0.916   4.815
  145SAPE  C31415936   0.854   1.086   4.704
  145SAPE  H14X15937   0.857   1.035   4.605
  145SAPE  H14Y15938   0.958   1.084   4.741
  145SAPE  C31515939   0.808   1.232   4.692
  145SAPE  H15X15940   0.838   1.281   4.787
  145SAPE  H15Y15941   0.700   1.239   4.670
  145SAPE  C31615942   0.873   1.314   4.578
  145SAPE  H16X15943   0.822   1.282   4.485
  145SAPE  H16Y15944   0.982   1.293   4.565
  145SAPE  C31715945   0.845   1.467   4.577
  145SAPE  H17X15946   0.884   1.516   4.669
  145SAPE  H17Y15947   0.734   1.462   4.576
  145SAPE  C31815948   0.889   1.541   4.450
  145SAPE  H18X15949   0.887   1.652   4.453
  145SAPE  H18Y15950   0.807   1.526   4.377
  145SAPE  H18Z15951   0.989   1.505   4.421
  146SAPE     N15952   4.256   6.727   6.394
  146SAPE   HN115953   4.248   6.624   6.382
  146SAPE   HN215954   4.168   6.755   6.441
  146SAPE   HN315955   4.257   6.762   6.295
  146SAPE   C1215956   4.391   6.750   6.463
  146SAPE  H12A15957   4.470   6.722   6.391
  146SAPE  H12B15958   4.396   6.688   6.556
  146SAPE   C1115959   4.406   0.010   6.498
  146SAPE  H11A15960   4.507   0.015   6.544
  146SAPE  H11B15961   4.333   0.038   6.577
  146SAPE     P15962   4.413   0.250   6.389
  146SAPE   O1315963   4.438   0.281   6.532
  146SAPE   O1415964   4.527   0.276   6.302
  146SAPE   O1215965   4.387   0.092   6.384
  146SAPE   O1115966   4.288   0.337   6.329
  146SAPE    C115967   4.184   0.279   6.253
  146SAPE    HA15968   4.143   0.189   6.305
  146SAPE    HB15969   4.110   0.359   6.233
  146SAPE    C215970   4.226   0.218   6.121
  146SAPE    HS15971   4.308   0.148   6.146
  146SAPE   O2115972   4.277   0.323   6.037
  146SAPE   C2115973   4.350   0.280   5.936
  146SAPE   O2215974   4.388   0.166   5.923
  146SAPE   C2215975   4.391   0.402   5.847
  146SAPE   H2R15976   4.357   0.495   5.899
  146SAPE   H2S15977   4.502   0.401   5.843
  146SAPE    C315978   4.113   0.133   6.063
  146SAPE    HX15979   4.038   0.205   6.023
  146SAPE    HY15980   4.064   0.079   6.147
  146SAPE   O3115981   4.150   0.035   5.959
  146SAPE   C3115982   4.208   6.816   5.998
  146SAPE   O3215983   4.228   6.791   6.118
  146SAPE   C3215984   4.236   6.712   5.885
  146SAPE   H2X15985   4.136   6.663   5.877
  146SAPE   H2Y15986   4.310   6.644   5.932
  146SAPE   C2315987   4.327   0.404   5.700
  146SAPE   H3R15988   4.324   0.300   5.660
  146SAPE   H3S15989   4.400   0.460   5.638
  146SAPE   C2415990   4.194   0.476   5.684
  146SAPE   H4R15991   4.131   0.410   5.747
  146SAPE   H4S15992   4.144   0.470   5.585
  146SAPE   C2515993   4.199   0.615   5.734
  146SAPE   H5R15994   4.296   0.660   5.711
  146SAPE   C2615995   4.116   0.680   5.817
  146SAPE   H6R15996   4.137   0.784   5.847
  146SAPE   C2715997   3.982   0.631   5.866
  146SAPE   H7R15998   4.005   0.595   5.969
  146SAPE   H7S15999   3.948   0.543   5.807
  146SAPE   C2816000   3.887   0.748   5.864
  146SAPE   H8R16001   3.892   0.809   5.955
  146SAPE   C2916002   3.788   0.773   5.776
  146SAPE   H9R16003   3.723   0.861   5.780
  146SAPE  C21016004   3.762   0.687   5.663
  146SAPE  H10R16005   3.706   0.597   5.696
  146SAPE  H10S16006   3.856   0.651   5.614
  146SAPE  C21116007   3.680   0.742   5.553
  146SAPE  H11R16008   3.580   0.777   5.584
  146SAPE  C21216009   3.712   0.754   5.421
  146SAPE  H12R16010   3.640   0.791   5.347
  146SAPE  C21316011   3.834   0.704   5.351
  146SAPE  H13R16012   3.798   0.642   5.266
  146SAPE  H13S16013   3.902   0.637   5.408
  146SAPE  C21416014   3.926   0.820   5.330
  146SAPE  H14R16015   3.972   0.876   5.412
  146SAPE  C21516016   3.981   0.857   5.208
  146SAPE  H15R16017   4.053   0.940   5.213
  146SAPE  C21616018   3.966   0.801   5.072
  146SAPE  H16R16019   3.964   0.690   5.074
  146SAPE  H16S16020   4.050   0.839   5.010
  146SAPE  C21716021   3.838   0.859   5.006
  146SAPE  H17R16022   3.843   0.970   5.012
  146SAPE  H17S16023   3.748   0.807   5.045
  146SAPE  C21816024   3.842   0.817   4.862
  146SAPE  H18R16025   3.747   0.839   4.807
  146SAPE  H18S16026   3.858   0.708   4.850
  146SAPE  C21916027   3.949   0.888   4.774
  146SAPE  H19R16028   4.053   0.867   4.807
  146SAPE  H19S16029   3.935   0.996   4.797
  146SAPE  C22016030   3.929   0.856   4.623
  146SAPE  H20R16031   3.925   0.746   4.607
  146SAPE  H20S16032   4.002   0.915   4.564
  146SAPE  H20T16033   3.832   0.887   4.579
  146SAPE   C3316034   4.283   6.761   5.752
  146SAPE   H3X16035   4.385   6.804   5.760
  146SAPE   H3Y16036   4.213   6.842   5.722
  146SAPE   C3416037   4.279   6.649   5.646
  146SAPE   H4X16038   4.345   6.568   5.685
  146SAPE   H4Y16039   4.330   6.684   5.554
  146SAPE   C3516040   4.142   6.595   5.593
  146SAPE   H5X16041   4.093   6.668   5.525
  146SAPE   H5Y16042   4.078   6.580   5.683
  146SAPE   C3616043   4.151   6.451   5.525
  146SAPE   H6X16044   4.058   6.402   5.560
  146SAPE   H6Y16045   4.230   6.396   5.579
  146SAPE   C3716046   4.171   6.439   5.376
  146SAPE   H7X16047   4.091   6.502   5.331
  146SAPE   H7Y16048   4.146   6.337   5.340
  146SAPE   C3816049   4.306   6.491   5.337
  146SAPE   H8X16050   4.383   6.441   5.400
  146SAPE   H8Y16051   4.321   6.602   5.340
  146SAPE   C3916052   4.342   6.466   5.192
  146SAPE   H9X16053   4.422   6.538   5.164
  146SAPE   H9Y16054   4.250   6.482   5.132
  146SAPE  C31016055   4.392   6.321   5.161
  146SAPE  H10X16056   4.325   6.239   5.195
  146SAPE  H10Y16057   4.492   6.325   5.208
  146SAPE  C31116058   4.421   6.308   5.008
  146SAPE  H11X16059   4.478   6.400   4.980
  146SAPE  H11Y16060   4.326   6.302   4.951
  146SAPE  C31216061   4.502   6.178   4.969
  146SAPE  H12X16062   4.449   6.096   5.022
  146SAPE  H12Y16063   4.605   6.182   5.010
  146SAPE  C31316064   4.510   6.161   4.816
  146SAPE  H13X16065   4.410   6.151   4.768
  146SAPE  H13Y16066   4.576   6.072   4.815
  146SAPE  C31416067   4.580   6.279   4.745
  146SAPE  H14X16068   4.659   6.310   4.816
  146SAPE  H14Y16069   4.509   6.364   4.740
  146SAPE  C31516070   4.646   6.241   4.612
  146SAPE  H15X16071   4.559   6.224   4.545
  146SAPE  H15Y16072   4.688   6.139   4.619
  146SAPE  C31616073   4.759   6.332   4.555
  146SAPE  H16X16074   4.841   6.329   4.630
  146SAPE  H16Y16075   4.707   6.430   4.547
  146SAPE  C31716076   4.825   6.277   4.432
  146SAPE  H17X16077   4.758   6.298   4.346
  146SAPE  H17Y16078   4.845   6.167   4.427
  146SAPE  C31816079   4.962   6.334   4.408
  146SAPE  H18X16080   5.039   6.292   4.475
  146SAPE  H18Y16081   4.963   6.445   4.399
  146SAPE  H18Z16082   4.996   6.301   4.307
  147SAPE     N16083   3.846   5.422   6.822
  147SAPE   HN116084   3.890   5.459   6.909
  147SAPE   HN216085   3.788   5.496   6.776
  147SAPE   HN316086   3.783   5.345   6.854
  147SAPE   C1216087   3.955   5.371   6.739
  147SAPE  H12A16088   3.923   5.400   6.636
  147SAPE  H12B16089   3.970   5.262   6.733
  147SAPE   C1116090   4.083   5.425   6.786
  147SAPE  H11A16091   4.156   5.382   6.715
  147SAPE  H11B16092   4.114   5.387   6.885
  147SAPE     P16093   4.071   5.658   6.659
  147SAPE   O1316094   3.954   5.615   6.587
  147SAPE   O1416095   4.076   5.794   6.712
  147SAPE   O1216096   4.093   5.565   6.788
  147SAPE   O1116097   4.197   5.630   6.569
  147SAPE    C116098   4.193   5.650   6.432
  147SAPE    HA16099   4.095   5.606   6.403
  147SAPE    HB16100   4.197   5.757   6.405
  147SAPE    C216101   4.304   5.576   6.352
  147SAPE    HS16102   4.407   5.602   6.384
  147SAPE   O2116103   4.283   5.586   6.210
  147SAPE   C2116104   4.334   5.692   6.153
  147SAPE   O2216105   4.395   5.778   6.212
  147SAPE   C2216106   4.299   5.691   6.007
  147SAPE   H2R16107   4.190   5.679   5.991
  147SAPE   H2S16108   4.334   5.787   5.964
  147SAPE    C316109   4.285   5.432   6.389
  147SAPE    HX16110   4.180   5.395   6.380
  147SAPE    HY16111   4.298   5.427   6.499
  147SAPE   O3116112   4.369   5.339   6.309
  147SAPE   C3116113   4.495   5.317   6.337
  147SAPE   O3216114   4.550   5.373   6.428
  147SAPE   C3216115   4.557   5.212   6.241
  147SAPE   H2X16116   4.507   5.114   6.253
  147SAPE   H2Y16117   4.663   5.209   6.273
  147SAPE   C2316118   4.364   5.562   5.937
  147SAPE   H3R16119   4.324   5.568   5.833
  147SAPE   H3S16120   4.323   5.473   5.988
  147SAPE   C2416121   4.517   5.568   5.936
  147SAPE   H4R16122   4.552   5.473   5.889
  147SAPE   H4S16123   4.554   5.574   6.040
  147SAPE   C2516124   4.563   5.674   5.840
  147SAPE   H5R16125   4.537   5.777   5.868
  147SAPE   C2616126   4.636   5.654   5.728
  147SAPE   H6R16127   4.666   5.748   5.680
  147SAPE   C2716128   4.694   5.531   5.663
  147SAPE   H7R16129   4.628   5.519   5.574
  147SAPE   H7S16130   4.684   5.439   5.725
  147SAPE   C2816131   4.838   5.558   5.622
  147SAPE   H8R16132   4.897   5.600   5.705
  147SAPE   C2916133   4.898   5.523   5.509
  147SAPE   H9R16134   5.006   5.542   5.510
  147SAPE  C21016135   4.825   5.470   5.385
  147SAPE  H10R16136   4.814   5.556   5.315
  147SAPE  H10S16137   4.721   5.439   5.409
  147SAPE  C21116138   4.894   5.351   5.320
  147SAPE  H11R16139   4.876   5.253   5.365
  147SAPE  C21216140   4.965   5.362   5.204
  147SAPE  H12R16141   5.027   5.279   5.167
  147SAPE  C21316142   4.985   5.492   5.122
  147SAPE  H13R16143   5.076   5.469   5.061
  147SAPE  H13S16144   5.007   5.581   5.184
  147SAPE  C21416145   4.873   5.532   5.031
  147SAPE  H14R16146   4.801   5.603   5.074
  147SAPE  C21516147   4.843   5.481   4.912
  147SAPE  H15R16148   4.761   5.528   4.855
  147SAPE  C21616149   4.918   5.370   4.854
  147SAPE  H16R16150   4.892   5.277   4.907
  147SAPE  H16S16151   5.023   5.404   4.868
  147SAPE  C21716152   4.919   5.356   4.696
  147SAPE  H17R16153   4.918   5.456   4.647
  147SAPE  H17S16154   4.826   5.305   4.663
  147SAPE  C21816155   5.032   5.275   4.633
  147SAPE  H18R16156   5.035   5.172   4.675
  147SAPE  H18S16157   5.134   5.318   4.649
  147SAPE  C21916158   5.012   5.258   4.484
  147SAPE  H19R16159   5.008   5.354   4.427
  147SAPE  H19S16160   4.913   5.207   4.475
  147SAPE  C22016161   5.114   5.160   4.430
  147SAPE  H20R16162   5.114   5.066   4.488
  147SAPE  H20S16163   5.212   5.212   4.423
  147SAPE  H20T16164   5.081   5.130   4.329
  147SAPE   C3316165   4.562   5.250   6.092
  147SAPE   H3X16166   4.624   5.342   6.082
  147SAPE   H3Y16167   4.461   5.273   6.053
  147SAPE   C3416168   4.627   5.137   6.017
  147SAPE   H4X16169   4.564   5.045   6.015
  147SAPE   H4Y16170   4.718   5.103   6.072
  147SAPE   C3516171   4.664   5.168   5.870
  147SAPE   H5X16172   4.716   5.077   5.832
  147SAPE   H5Y16173   4.726   5.260   5.853
  147SAPE   C3616174   4.539   5.193   5.789
  147SAPE   H6X16175   4.483   5.287   5.807
  147SAPE   H6Y16176   4.466   5.112   5.810
  147SAPE   C3716177   4.580   5.182   5.640
  147SAPE   H7X16178   4.600   5.073   5.627
  147SAPE   H7Y16179   4.671   5.245   5.633
  147SAPE   C3816180   4.476   5.225   5.543
  147SAPE   H8X16181   4.449   5.332   5.558
  147SAPE   H8Y16182   4.384   5.164   5.557
  147SAPE   C3916183   4.518   5.205   5.391
  147SAPE   H9X16184   4.540   5.099   5.369
  147SAPE   H9Y16185   4.608   5.263   5.360
  147SAPE  C31016186   4.407   5.253   5.296
  147SAPE  H10X16187   4.344   5.327   5.350
  147SAPE  H10Y16188   4.340   5.171   5.262
  147SAPE  C31116189   4.444   5.326   5.166
  147SAPE  H11X16190   4.532   5.280   5.117
  147SAPE  H11Y16191   4.460   5.431   5.197
  147SAPE  C31216192   4.331   5.336   5.056
  147SAPE  H12X16193   4.242   5.374   5.111
  147SAPE  H12Y16194   4.306   5.233   5.023
  147SAPE  C31316195   4.376   5.430   4.942
  147SAPE  H13X16196   4.463   5.386   4.888
  147SAPE  H13Y16197   4.403   5.531   4.980
  147SAPE  C31416198   4.264   5.458   4.838
  147SAPE  H14X16199   4.167   5.469   4.893
  147SAPE  H14Y16200   4.254   5.371   4.770
  147SAPE  C31516201   4.290   5.595   4.780
  147SAPE  H15X16202   4.392   5.607   4.736
  147SAPE  H15Y16203   4.288   5.668   4.864
  147SAPE  C31616204   4.186   5.635   4.675
  147SAPE  H16X16205   4.080   5.620   4.707
  147SAPE  H16Y16206   4.197   5.569   4.586
  147SAPE  C31716207   4.207   5.783   4.641
  147SAPE  H17X16208   4.165   5.799   4.539
  147SAPE  H17Y16209   4.316   5.802   4.643
  147SAPE  C31816210   4.134   5.882   4.725
  147SAPE  H18X16211   4.024   5.876   4.722
  147SAPE  H18Y16212   4.176   5.980   4.693
  147SAPE  H18Z16213   4.168   5.866   4.830
  148SAPE     N16214   2.002   0.603   6.695
  148SAPE   HN116215   2.011   0.504   6.723
  148SAPE   HN216216   2.067   0.664   6.749
  148SAPE   HN316217   1.903   0.632   6.698
  148SAPE   C1216218   2.033   0.593   6.541
  148SAPE  H12A16219   2.143   0.584   6.539
  148SAPE  H12B16220   2.000   0.691   6.498
  148SAPE   C1116221   1.950   0.478   6.480
  148SAPE  H11A16222   1.949   0.480   6.369
  148SAPE  H11B16223   1.842   0.494   6.498
  148SAPE     P16224   1.900   0.224   6.495
  148SAPE   O1316225   1.983   0.104   6.460
  148SAPE   O1416226   1.807   0.219   6.610
  148SAPE   O1216227   1.987   0.348   6.530
  148SAPE   O1116228   1.828   0.278   6.360
  148SAPE    C116229   1.724   0.197   6.298
  148SAPE    HA16230   1.664   0.127   6.361
  148SAPE    HB16231   1.652   0.271   6.259
  148SAPE    C216232   1.772   0.101   6.185
  148SAPE    HS16233   1.864   0.054   6.225
  148SAPE   O2116234   1.809   0.183   6.068
  148SAPE   C2116235   1.928   0.149   6.014
  148SAPE   O2216236   2.000   0.061   6.060
  148SAPE   C2216237   1.950   0.231   5.882
  148SAPE   H2R16238   1.920   0.337   5.897
  148SAPE   H2S16239   2.058   0.221   5.858
  148SAPE    C316240   1.663   6.878   6.150
  148SAPE    HX16241   1.566   0.045   6.150
  148SAPE    HY16242   1.653   6.811   6.238
  148SAPE   O3116243   1.695   6.805   6.026
  148SAPE   C3116244   1.612   6.797   5.929
  148SAPE   O3216245   1.506   6.855   5.916
  148SAPE   C3216246   1.660   6.698   5.819
  148SAPE   H2X16247   1.679   6.610   5.884
  148SAPE   H2Y16248   1.758   6.727   5.776
  148SAPE   C2316249   1.867   0.162   5.769
  148SAPE   H3R16250   1.757   0.157   5.783
  148SAPE   H3S16251   1.913   0.061   5.757
  148SAPE   C2416252   1.882   0.211   5.625
  148SAPE   H4R16253   1.839   0.130   5.561
  148SAPE   H4S16254   1.993   0.209   5.617
  148SAPE   C2516255   1.844   0.344   5.573
  148SAPE   H5R16256   1.742   0.369   5.607
  148SAPE   C2616257   1.918   0.423   5.497
  148SAPE   H6R16258   1.867   0.508   5.451
  148SAPE   C2716259   2.056   0.391   5.452
  148SAPE   H7R16260   2.107   0.375   5.549
  148SAPE   H7S16261   2.087   0.490   5.412
  148SAPE   C2816262   2.068   0.270   5.364
  148SAPE   H8R16263   1.987   0.197   5.379
  148SAPE   C2916264   2.166   0.243   5.277
  148SAPE   H9R16265   2.160   0.142   5.233
  148SAPE  C21016266   2.283   0.331   5.237
  148SAPE  H10R16267   2.294   0.422   5.299
  148SAPE  H10S16268   2.269   0.374   5.136
  148SAPE  C21116269   2.405   0.242   5.243
  148SAPE  H11R16270   2.423   0.188   5.337
  148SAPE  C21216271   2.489   0.218   5.142
  148SAPE  H12R16272   2.570   0.145   5.158
  148SAPE  C21316273   2.487   0.277   5.004
  148SAPE  H13R16274   2.442   0.379   5.011
  148SAPE  H13S16275   2.421   0.227   4.930
  148SAPE  C21416276   2.620   0.308   4.951
  148SAPE  H14R16277   2.688   0.371   5.010
  148SAPE  C21516278   2.663   0.264   4.833
  148SAPE  H15R16279   2.763   0.301   4.805
  148SAPE  C21616280   2.603   0.178   4.721
  148SAPE  H16R16281   2.503   0.135   4.743
  148SAPE  H16S16282   2.673   0.092   4.716
  148SAPE  C21716283   2.598   0.235   4.580
  148SAPE  H17R16284   2.700   0.269   4.550
  148SAPE  H17S16285   2.542   0.331   4.590
  148SAPE  C21816286   2.532   0.148   4.471
  148SAPE  H18R16287   2.595   0.056   4.463
  148SAPE  H18S16288   2.519   0.215   4.384
  148SAPE  C21916289   2.398   0.077   4.506
  148SAPE  H19R16290   2.415   0.018   4.599
  148SAPE  H19S16291   2.369   0.003   4.429
  148SAPE  C22016292   2.290   0.183   4.529
  148SAPE  H20R16293   2.290   0.226   4.631
  148SAPE  H20S16294   2.189   0.141   4.506
  148SAPE  H20T16295   2.303   0.253   4.444
  148SAPE   C3316296   1.559   6.657   5.707
  148SAPE   H3X16297   1.511   6.750   5.667
  148SAPE   H3Y16298   1.487   6.583   5.748
  148SAPE   C3416299   1.616   6.588   5.582
  148SAPE   H4X16300   1.601   6.479   5.595
  148SAPE   H4Y16301   1.722   6.615   5.565
  148SAPE   C3516302   1.531   6.632   5.465
  148SAPE   H5X16303   1.557   6.736   5.437
  148SAPE   H5Y16304   1.424   6.637   5.497
  148SAPE   C3616305   1.546   6.526   5.353
  148SAPE   H6X16306   1.470   6.548   5.275
  148SAPE   H6Y16307   1.507   6.428   5.390
  148SAPE   C3716308   1.681   6.509   5.298
  148SAPE   H7X16309   1.734   6.433   5.360
  148SAPE   H7Y16310   1.740   6.600   5.319
  148SAPE   C3816311   1.691   6.483   5.152
  148SAPE   H8X16312   1.629   6.397   5.121
  148SAPE   H8Y16313   1.793   6.470   5.110
  148SAPE   C3916314   1.649   6.607   5.071
  148SAPE   H9X16315   1.680   6.692   5.135
  148SAPE   H9Y16316   1.539   6.605   5.055
  148SAPE  C31016317   1.726   6.622   4.940
  148SAPE  H10X16318   1.646   6.643   4.865
  148SAPE  H10Y16319   1.769   6.523   4.913
  148SAPE  C31116320   1.839   6.728   4.942
  148SAPE  H11X16321   1.811   6.833   4.966
  148SAPE  H11Y16322   1.859   6.724   4.833
  148SAPE  C31216323   1.959   6.674   5.022
  148SAPE  H12X16324   1.982   6.567   4.998
  148SAPE  H12Y16325   1.941   6.677   5.132
  148SAPE  C31316326   2.088   6.749   4.997
  148SAPE  H13X16327   2.075   6.855   5.029
  148SAPE  H13Y16328   2.101   6.758   4.887
  148SAPE  C31416329   2.210   6.698   5.080
  148SAPE  H14X16330   2.217   6.587   5.072
  148SAPE  H14Y16331   2.185   6.709   5.188
  148SAPE  C31516332   2.349   6.757   5.049
  148SAPE  H15X16333   2.420   6.698   5.111
  148SAPE  H15Y16334   2.355   6.864   5.081
  148SAPE  C31616335   2.397   6.737   4.906
  148SAPE  H16X16336   2.480   6.810   4.893
  148SAPE  H16Y16337   2.317   6.770   4.837
  148SAPE  C31716338   2.449   6.595   4.882
  148SAPE  H17X16339   2.365   6.526   4.859
  148SAPE  H17Y16340   2.502   6.555   4.970
  148SAPE  C31816341   2.545   6.601   4.759
  148SAPE  H18X16342   2.574   6.500   4.725
  148SAPE  H18Y16343   2.640   6.647   4.792
  148SAPE  H18Z16344   2.512   6.656   4.668
  149SAPE     N16345   1.868   1.863   6.164
  149SAPE   HN116346   1.937   1.939   6.182
  149SAPE   HN216347   1.892   1.788   6.232
  149SAPE   HN316348   1.889   1.823   6.071
  149SAPE   C1216349   1.731   1.911   6.189
  149SAPE  H12A16350   1.658   1.827   6.190
  149SAPE  H12B16351   1.712   1.986   6.109
  149SAPE   C1116352   1.726   1.988   6.327
  149SAPE  H11A16353   1.639   2.055   6.314
  149SAPE  H11B16354   1.810   2.060   6.338
  149SAPE     P16355   1.577   1.854   6.492
  149SAPE   O1316356   1.592   1.716   6.542
  149SAPE   O1416357   1.538   1.946   6.602
  149SAPE   O1216358   1.717   1.904   6.440
  149SAPE   O1116359   1.483   1.870   6.362
  149SAPE    C116360   1.377   1.780   6.345
  149SAPE    HA16361   1.376   1.690   6.411
  149SAPE    HB16362   1.280   1.827   6.369
  149SAPE    C216363   1.374   1.718   6.198
  149SAPE    HS16364   1.300   1.635   6.206
  149SAPE   O2116365   1.493   1.674   6.141
  149SAPE   C2116366   1.541   1.564   6.197
  149SAPE   O2216367   1.485   1.503   6.289
  149SAPE   C2216368   1.675   1.532   6.141
  149SAPE   H2R16369   1.752   1.598   6.186
  149SAPE   H2S16370   1.703   1.429   6.172
  149SAPE    C316371   1.308   1.823   6.093
  149SAPE    HX16372   1.374   1.911   6.077
  149SAPE    HY16373   1.213   1.859   6.137
  149SAPE   O3116374   1.280   1.759   5.968
  149SAPE   C3116375   1.369   1.748   5.869
  149SAPE   O3216376   1.466   1.823   5.858
  149SAPE   C3216377   1.315   1.657   5.760
  149SAPE   H2X16378   1.211   1.687   5.735
  149SAPE   H2Y16379   1.310   1.556   5.806
  149SAPE   C2316380   1.684   1.542   5.984
  149SAPE   H3R16381   1.776   1.518   5.926
  149SAPE   H3S16382   1.651   1.639   5.943
  149SAPE   C2416383   1.586   1.439   5.920
  149SAPE   H4R16384   1.585   1.460   5.811
  149SAPE   H4S16385   1.479   1.446   5.948
  149SAPE   C2516386   1.638   1.300   5.956
  149SAPE   H5R16387   1.606   1.267   6.056
  149SAPE   C2616388   1.729   1.236   5.889
  149SAPE   H6R16389   1.761   1.137   5.923
  149SAPE   C2716390   1.782   1.268   5.751
  149SAPE   H7R16391   1.873   1.207   5.736
  149SAPE   H7S16392   1.821   1.372   5.753
  149SAPE   C2816393   1.688   1.243   5.626
  149SAPE   H8R16394   1.581   1.263   5.643
  149SAPE   C2916395   1.737   1.197   5.512
  149SAPE   H9R16396   1.671   1.200   5.424
  149SAPE  C21016397   1.884   1.174   5.473
  149SAPE  H10R16398   1.897   1.066   5.452
  149SAPE  H10S16399   1.954   1.201   5.555
  149SAPE  C21116400   1.920   1.274   5.367
  149SAPE  H11R16401   1.891   1.377   5.392
  149SAPE  C21216402   1.974   1.254   5.243
  149SAPE  H12R16403   1.984   1.342   5.179
  149SAPE  C21316404   2.004   1.117   5.186
  149SAPE  H13R16405   1.920   1.045   5.198
  149SAPE  H13S16406   2.088   1.088   5.253
  149SAPE  C21416407   2.058   1.119   5.042
  149SAPE  H14R16408   2.153   1.170   5.022
  149SAPE  C21516409   1.999   1.070   4.936
  149SAPE  H15R16410   2.068   1.055   4.851
  149SAPE  C21616411   1.867   1.001   4.920
  149SAPE  H16R16412   1.795   1.062   4.863
  149SAPE  H16S16413   1.809   0.993   5.014
  149SAPE  C21716414   1.883   0.854   4.868
  149SAPE  H17R16415   1.783   0.807   4.875
  149SAPE  H17S16416   1.955   0.797   4.931
  149SAPE  C21816417   1.936   0.846   4.721
  149SAPE  H18R16418   2.037   0.891   4.719
  149SAPE  H18S16419   1.870   0.915   4.664
  149SAPE  C21916420   1.932   0.707   4.656
  149SAPE  H19R16421   1.823   0.691   4.657
  149SAPE  H19S16422   1.983   0.633   4.722
  149SAPE  C22016423   1.990   0.702   4.509
  149SAPE  H20R16424   1.984   0.604   4.456
  149SAPE  H20S16425   2.099   0.716   4.525
  149SAPE  H20T16426   1.942   0.781   4.448
  149SAPE   C3316427   1.406   1.660   5.627
  149SAPE   H3X16428   1.508   1.646   5.668
  149SAPE   H3Y16429   1.393   1.766   5.598
  149SAPE   C3416430   1.359   1.564   5.522
  149SAPE   H4X16431   1.263   1.605   5.484
  149SAPE   H4Y16432   1.330   1.476   5.584
  149SAPE   C3516433   1.456   1.529   5.411
  149SAPE   H5X16434   1.534   1.457   5.442
  149SAPE   H5Y16435   1.506   1.623   5.380
  149SAPE   C3616436   1.380   1.493   5.278
  149SAPE   H6X16437   1.301   1.570   5.269
  149SAPE   H6Y16438   1.330   1.395   5.291
  149SAPE   C3716439   1.465   1.506   5.150
  149SAPE   H7X16440   1.499   1.612   5.149
  149SAPE   H7Y16441   1.408   1.495   5.056
  149SAPE   C3816442   1.592   1.423   5.151
  149SAPE   H8X16443   1.572   1.314   5.165
  149SAPE   H8Y16444   1.649   1.459   5.240
  149SAPE   C3916445   1.685   1.443   5.029
  149SAPE   H9X16446   1.787   1.409   5.056
  149SAPE   H9Y16447   1.699   1.553   5.023
  149SAPE  C31016448   1.632   1.389   4.895
  149SAPE  H10X16449   1.536   1.434   4.863
  149SAPE  H10Y16450   1.631   1.279   4.905
  149SAPE  C31116451   1.726   1.430   4.782
  149SAPE  H11X16452   1.821   1.380   4.810
  149SAPE  H11Y16453   1.742   1.540   4.779
  149SAPE  C31216454   1.695   1.389   4.636
  149SAPE  H12X16455   1.778   1.403   4.563
  149SAPE  H12Y16456   1.610   1.438   4.584
  149SAPE  C31316457   1.654   1.240   4.622
  149SAPE  H13X16458   1.557   1.243   4.675
  149SAPE  H13Y16459   1.727   1.184   4.685
  149SAPE  C31416460   1.652   1.194   4.475
  149SAPE  H14X16461   1.745   1.215   4.418
  149SAPE  H14Y16462   1.565   1.256   4.442
  149SAPE  C31516463   1.634   1.049   4.447
  149SAPE  H15X16464   1.527   1.027   4.469
  149SAPE  H15Y16465   1.690   0.989   4.521
  149SAPE  C31616466   1.668   1.009   4.301
  149SAPE  H16X16467   1.638   0.907   4.270
  149SAPE  H16Y16468   1.779   1.014   4.295
  149SAPE  C31716469   1.622   1.114   4.193
  149SAPE  H17X16470   1.656   1.219   4.210
  149SAPE  H17Y16471   1.511   1.110   4.189
  149SAPE  C31816472   1.663   1.074   4.057
  149SAPE  H18X16473   1.659   0.964   4.042
  149SAPE  H18Y16474   1.758   1.128   4.037
  149SAPE  H18Z16475   1.609   1.126   3.975
  150SAPE     N16476   4.252   2.949   6.476
  150SAPE   HN116477   4.173   3.006   6.440
  150SAPE   HN216478   4.251   2.952   6.580
  150SAPE   HN316479   4.342   2.980   6.432
  150SAPE   C1216480   4.223   2.804   6.443
  150SAPE  H12A16481   4.236   2.781   6.335
  150SAPE  H12B16482   4.121   2.784   6.484
  150SAPE   C1116483   4.321   2.717   6.520
  150SAPE  H11A16484   4.298   2.609   6.509
  150SAPE  H11B16485   4.299   2.755   6.622
  150SAPE     P16486   4.573   2.662   6.537
  150SAPE   O1316487   4.621   2.730   6.657
  150SAPE   O1416488   4.519   2.521   6.556
  150SAPE   O1216489   4.456   2.754   6.477
  150SAPE   O1116490   4.687   2.665   6.429
  150SAPE    C116491   4.684   2.759   6.330
  150SAPE    HA16492   4.625   2.850   6.352
  150SAPE    HB16493   4.788   2.779   6.296
  150SAPE    C216494   4.610   2.700   6.201
  150SAPE    HS16495   4.512   2.656   6.228
  150SAPE   O2116496   4.694   2.591   6.145
  150SAPE   C2116497   4.634   2.487   6.099
  150SAPE   O2216498   4.516   2.462   6.107
  150SAPE   C2216499   4.738   2.411   6.019
  150SAPE   H2R16500   4.839   2.456   6.032
  150SAPE   H2S16501   4.734   2.311   6.067
  150SAPE    C316502   4.596   2.815   6.095
  150SAPE    HX16503   4.699   2.849   6.073
  150SAPE    HY16504   4.542   2.903   6.137
  150SAPE   O3116505   4.532   2.767   5.971
  150SAPE   C3116506   4.403   2.770   5.980
  150SAPE   O3216507   4.334   2.787   6.080
  150SAPE   C3216508   4.340   2.736   5.843
  150SAPE   H2X16509   4.414   2.714   5.763
  150SAPE   H2Y16510   4.275   2.823   5.818
  150SAPE   C2316511   4.689   2.372   5.880
  150SAPE   H3R16512   4.578   2.362   5.878
  150SAPE   H3S16513   4.721   2.266   5.869
  150SAPE   C2416514   4.749   2.455   5.766
  150SAPE   H4R16515   4.714   2.416   5.668
  150SAPE   H4S16516   4.859   2.441   5.771
  150SAPE   C2516517   4.712   2.603   5.768
  150SAPE   H5R16518   4.714   2.637   5.872
  150SAPE   C2616519   4.660   2.677   5.667
  150SAPE   H6R16520   4.637   2.781   5.692
  150SAPE   C2716521   4.651   2.638   5.517
  150SAPE   H7R16522   4.640   2.528   5.507
  150SAPE   H7S16523   4.754   2.664   5.484
  150SAPE   C2816524   4.555   2.714   5.435
  150SAPE   H8R16525   4.503   2.795   5.489
  150SAPE   C2916526   4.530   2.684   5.305
  150SAPE   H9R16527   4.463   2.746   5.243
  150SAPE  C21016528   4.592   2.563   5.237
  150SAPE  H10R16529   4.517   2.493   5.194
  150SAPE  H10S16530   4.659   2.504   5.303
  150SAPE  C21116531   4.677   2.611   5.123
  150SAPE  H11R16532   4.783   2.602   5.152
  150SAPE  C21216533   4.628   2.644   5.000
  150SAPE  H12R16534   4.703   2.665   4.922
  150SAPE  C21316535   4.479   2.650   4.965
  150SAPE  H13R16536   4.416   2.668   5.055
  150SAPE  H13S16537   4.447   2.549   4.932
  150SAPE  C21416538   4.463   2.758   4.863
  150SAPE  H14R16539   4.471   2.862   4.897
  150SAPE  C21516540   4.467   2.752   4.728
  150SAPE  H15R16541   4.464   2.848   4.674
  150SAPE  C21616542   4.467   2.627   4.641
  150SAPE  H16R16543   4.404   2.552   4.693
  150SAPE  H16S16544   4.569   2.586   4.627
  150SAPE  C21716545   4.414   2.629   4.493
  150SAPE  H17R16546   4.305   2.649   4.492
  150SAPE  H17S16547   4.433   2.523   4.464
  150SAPE  C21816548   4.494   2.710   4.389
  150SAPE  H18R16549   4.596   2.671   4.406
  150SAPE  H18S16550   4.498   2.814   4.428
  150SAPE  C21916551   4.439   2.701   4.244
  150SAPE  H19R16552   4.345   2.760   4.234
  150SAPE  H19S16553   4.419   2.593   4.226
  150SAPE  C22016554   4.535   2.761   4.138
  150SAPE  H20R16555   4.614   2.686   4.116
  150SAPE  H20S16556   4.599   2.842   4.181
  150SAPE  H20T16557   4.485   2.809   4.052
  150SAPE   C3316558   4.267   2.602   5.855
  150SAPE   H3X16559   4.181   2.606   5.924
  150SAPE   H3Y16560   4.340   2.524   5.886
  150SAPE   C3416561   4.203   2.564   5.717
  150SAPE   H4X16562   4.175   2.665   5.679
  150SAPE   H4Y16563   4.115   2.495   5.714
  150SAPE   C3516564   4.302   2.485   5.633
  150SAPE   H5X16565   4.296   2.383   5.676
  150SAPE   H5Y16566   4.400   2.534   5.647
  150SAPE   C3616567   4.273   2.488   5.482
  150SAPE   H6X16568   4.324   2.405   5.429
  150SAPE   H6Y16569   4.315   2.582   5.441
  150SAPE   C3716570   4.133   2.471   5.431
  150SAPE   H7X16571   4.068   2.552   5.470
  150SAPE   H7Y16572   4.075   2.380   5.459
  150SAPE   C3816573   4.136   2.485   5.272
  150SAPE   H8X16574   4.041   2.446   5.229
  150SAPE   H8Y16575   4.224   2.433   5.229
  150SAPE   C3916576   4.135   2.631   5.229
  150SAPE   H9X16577   4.217   2.695   5.269
  150SAPE   H9Y16578   4.039   2.671   5.269
  150SAPE  C31016579   4.140   2.637   5.081
  150SAPE  H10X16580   4.067   2.562   5.042
  150SAPE  H10Y16581   4.228   2.582   5.043
  150SAPE  C31116582   4.114   2.774   5.006
  150SAPE  H11X16583   4.207   2.833   5.019
  150SAPE  H11Y16584   4.032   2.823   5.062
  150SAPE  C31216585   4.079   2.757   4.861
  150SAPE  H12X16586   3.998   2.681   4.852
  150SAPE  H12Y16587   4.169   2.738   4.798
  150SAPE  C31316588   4.012   2.879   4.791
  150SAPE  H13X16589   4.100   2.944   4.767
  150SAPE  H13Y16590   3.953   2.942   4.862
  150SAPE  C31416591   3.938   2.851   4.654
  150SAPE  H14X16592   3.888   2.946   4.627
  150SAPE  H14Y16593   3.843   2.798   4.675
  150SAPE  C31516594   4.022   2.792   4.543
  150SAPE  H15X16595   4.035   2.683   4.552
  150SAPE  H15Y16596   4.128   2.824   4.537
  150SAPE  C31616597   3.970   2.811   4.399
  150SAPE  H16X16598   3.977   2.921   4.384
  150SAPE  H16Y16599   3.867   2.774   4.377
  150SAPE  C31716600   4.064   2.737   4.309
  150SAPE  H17X16601   4.068   2.627   4.327
  150SAPE  H17Y16602   4.165   2.780   4.326
  150SAPE  C31816603   4.032   2.749   4.164
  150SAPE  H18X16604   3.938   2.695   4.140
  150SAPE  H18Y16605   4.110   2.692   4.109
  150SAPE  H18Z16606   4.036   2.854   4.127
  151SAPE     N16607   4.991   6.442   6.299
  151SAPE   HN116608   4.953   6.345   6.303
  151SAPE   HN216609   4.958   6.485   6.210
  151SAPE   HN316610   5.092   6.424   6.283
  151SAPE   C1216611   4.973   6.528   6.423
  151SAPE  H12A16612   5.054   6.481   6.483
  151SAPE  H12B16613   4.870   6.513   6.462
  151SAPE   C1116614   5.012   6.669   6.383
  151SAPE  H11A16615   4.982   6.698   6.280
  151SAPE  H11B16616   5.123   6.676   6.388
  151SAPE     P16617   4.838   6.855   6.461
  151SAPE   O1316618   4.711   6.790   6.511
  151SAPE   O1416619   4.871   0.093   6.534
  151SAPE   O1216620   4.966   6.763   6.476
  151SAPE   O1116621   4.834   0.007   6.307
  151SAPE    C116622   4.723   0.013   6.222
  151SAPE    HA16623   4.639   6.838   6.262
  151SAPE    HB16624   4.684   0.117   6.216
  151SAPE    C216625   4.765   6.857   6.082
  151SAPE    HS16626   4.791   6.750   6.098
  151SAPE   O2116627   4.874   0.053   6.037
  151SAPE   C2116628   4.984   0.002   5.984
  151SAPE   O2216629   4.996   6.774   5.950
  151SAPE   C2216630   5.093   0.108   5.990
  151SAPE   H2R16631   5.038   0.201   5.965
  151SAPE   H2S16632   5.124   0.111   6.097
  151SAPE    C316633   4.654   6.880   5.976
  151SAPE    HX16634   4.642   0.104   5.970
  151SAPE    HY16635   4.563   6.844   6.027
  151SAPE   O3116636   4.684   6.824   5.847
  151SAPE   C3116637   4.682   6.687   5.853
  151SAPE   O3216638   4.627   6.625   5.943
  151SAPE   C3216639   4.740   6.610   5.735
  151SAPE   H2X16640   4.647   6.568   5.692
  151SAPE   H2Y16641   4.806   6.524   5.757
  151SAPE   C2316642   5.212   0.069   5.903
  151SAPE   H3R16643   5.256   6.856   5.930
  151SAPE   H3S16644   5.291   0.145   5.922
  151SAPE   C2416645   5.184   0.067   5.750
  151SAPE   H4R16646   5.110   6.874   5.728
  151SAPE   H4S16647   5.274   0.043   5.690
  151SAPE   C2516648   5.144   0.208   5.708
  151SAPE   H5R16649   5.215   0.288   5.731
  151SAPE   C2616650   5.034   0.249   5.637
  151SAPE   H6R16651   5.035   0.350   5.594
  151SAPE   C2716652   4.922   0.165   5.599
  151SAPE   H7R16653   4.941   0.056   5.609
  151SAPE   H7S16654   4.913   0.178   5.489
  151SAPE   C2816655   4.796   0.225   5.665
  151SAPE   H8R16656   4.811   0.281   5.758
  151SAPE   C2916657   4.670   0.227   5.617
  151SAPE   H9R16658   4.587   0.272   5.674
  151SAPE  C21016659   4.635   0.150   5.494
  151SAPE  H10R16660   4.716   0.084   5.455
  151SAPE  H10S16661   4.613   0.229   5.419
  151SAPE  C21116662   4.511   0.061   5.508
  151SAPE  H11R16663   4.522   6.863   5.578
  151SAPE  C21216664   4.386   0.082   5.460
  151SAPE  H12R16665   4.302   0.013   5.480
  151SAPE  C21316666   4.356   0.211   5.373
  151SAPE  H13R16667   4.428   0.224   5.289
  151SAPE  H13S16668   4.364   0.298   5.442
  151SAPE  C21416669   4.214   0.199   5.327
  151SAPE  H14R16670   4.136   0.219   5.402
  151SAPE  C21516671   4.176   0.155   5.205
  151SAPE  H15R16672   4.067   0.142   5.196
  151SAPE  C21616673   4.264   0.124   5.085
  151SAPE  H16R16674   4.369   0.101   5.113
  151SAPE  H16S16675   4.280   0.216   5.025
  151SAPE  C21716676   4.205   0.011   5.007
  151SAPE  H17R16677   4.100   0.042   4.988
  151SAPE  H17S16678   4.202   6.807   5.072
  151SAPE  C21816679   4.270   6.863   4.872
  151SAPE  H18R16680   4.368   6.818   4.899
  151SAPE  H18S16681   4.298   0.069   4.817
  151SAPE  C21916682   4.188   6.757   4.788
  151SAPE  H19R16683   4.228   6.752   4.685
  151SAPE  H19S16684   4.080   6.783   4.787
  151SAPE  C22016685   4.189   6.619   4.856
  151SAPE  H20R16686   4.289   6.571   4.856
  151SAPE  H20S16687   4.126   6.543   4.804
  151SAPE  H20T16688   4.144   6.630   4.958
  151SAPE   C3316689   4.817   6.705   5.638
  151SAPE   H3X16690   4.909   6.740   5.690
  151SAPE   H3Y16691   4.747   6.789   5.617
  151SAPE   C3416692   4.830   6.637   5.501
  151SAPE   H4X16693   4.867   6.533   5.517
  151SAPE   H4Y16694   4.908   6.700   5.454
  151SAPE   C3516695   4.701   6.639   5.417
  151SAPE   H5X16696   4.672   6.746   5.415
  151SAPE   H5Y16697   4.632   6.567   5.467
  151SAPE   C3616698   4.730   6.591   5.269
  151SAPE   H6X16699   4.778   6.681   5.224
  151SAPE   H6Y16700   4.635   6.561   5.219
  151SAPE   C3716701   4.817   6.464   5.252
  151SAPE   H7X16702   4.775   6.386   5.320
  151SAPE   H7Y16703   4.911   6.513   5.286
  151SAPE   C3816704   4.841   6.412   5.109
  151SAPE   H8X16705   4.889   6.492   5.048
  151SAPE   H8Y16706   4.741   6.378   5.075
  151SAPE   C3916707   4.932   6.289   5.115
  151SAPE   H9X16708   4.894   6.217   5.190
  151SAPE   H9Y16709   5.028   6.324   5.156
  151SAPE  C31016710   4.961   6.219   4.986
  151SAPE  H10X16711   4.866   6.174   4.950
  151SAPE  H10Y16712   5.032   6.134   5.001
  151SAPE  C31116713   5.000   6.300   4.865
  151SAPE  H11X16714   4.925   6.378   4.840
  151SAPE  H11Y16715   5.019   6.234   4.778
  151SAPE  C31216716   5.130   6.379   4.882
  151SAPE  H12X16717   5.207   6.311   4.926
  151SAPE  H12Y16718   5.123   6.457   4.960
  151SAPE  C31316719   5.191   6.423   4.744
  151SAPE  H13X16720   5.208   6.338   4.675
  151SAPE  H13Y16721   5.288   6.463   4.782
  151SAPE  C31416722   5.108   6.543   4.675
  151SAPE  H14X16723   5.095   6.618   4.757
  151SAPE  H14Y16724   5.008   6.503   4.648
  151SAPE  C31516725   5.177   6.609   4.551
  151SAPE  H15X16726   5.172   6.530   4.473
  151SAPE  H15Y16727   5.282   6.634   4.579
  151SAPE  C31616728   5.103   6.733   4.514
  151SAPE  H16X16729   4.995   6.713   4.525
  151SAPE  H16Y16730   5.125   6.763   4.409
  151SAPE  C31716731   5.149   6.855   4.601
  151SAPE  H17X16732   5.203   0.036   4.531
  151SAPE  H17Y16733   5.215   6.814   4.680
  151SAPE  C31816734   5.030   0.044   4.661
  151SAPE  H18X16735   4.968   0.096   4.584
  151SAPE  H18Y16736   5.068   0.121   4.733
  151SAPE  H18Z16737   4.949   6.871   4.708
  152SAPE     N16738   6.377   2.402   6.632
  152SAPE   HN116739   6.435   2.330   6.679
  152SAPE   HN216740   6.393   2.498   6.669
  152SAPE   HN316741   6.274   2.390   6.646
  152SAPE   C1216742   6.419   2.421   6.486
  152SAPE  H12A16743   6.380   2.518   6.448
  152SAPE  H12B16744   6.374   2.337   6.429
  152SAPE   C1116745   6.571   2.438   6.481
  152SAPE  H11A16746   6.603   2.515   6.554
  152SAPE  H11B16747   6.606   2.491   6.389
  152SAPE     P16748   6.701   2.243   6.379
  152SAPE   O1316749   6.815   2.333   6.350
  152SAPE   O1416750   6.735   2.102   6.410
  152SAPE   O1216751   6.632   2.306   6.498
  152SAPE   O1116752   6.602   2.262   6.259
  152SAPE    C116753   6.501   2.153   6.234
  152SAPE    HA16754   6.487   2.082   6.318
  152SAPE    HB16755   6.403   2.204   6.219
  152SAPE    C216756   6.526   2.063   6.108
  152SAPE    HS16757   6.436   1.999   6.094
  152SAPE   O2116758   6.637   1.971   6.128
  152SAPE   C2116759   6.614   1.873   6.222
  152SAPE   O2216760   6.511   1.858   6.288
  152SAPE   C2216761   6.728   1.788   6.212
  152SAPE   H2R16762   6.823   1.842   6.189
  152SAPE   H2S16763   6.741   1.733   6.307
  152SAPE    C316764   6.536   2.142   5.978
  152SAPE    HX16765   6.634   2.194   5.983
  152SAPE    HY16766   6.451   2.213   5.978
  152SAPE   O3116767   6.526   2.045   5.864
  152SAPE   C3116768   6.532   2.103   5.748
  152SAPE   O3216769   6.555   2.226   5.732
  152SAPE   C3216770   6.494   2.006   5.633
  152SAPE   H2X16771   6.437   1.921   5.677
  152SAPE   H2Y16772   6.592   1.969   5.596
  152SAPE   C2316773   6.709   1.673   6.118
  152SAPE   H3R16774   6.647   1.697   6.028
  152SAPE   H3S16775   6.653   1.598   6.178
  152SAPE   C2416776   6.845   1.624   6.071
  152SAPE   H4R16777   6.819   1.523   6.032
  152SAPE   H4S16778   0.016   1.615   6.166
  152SAPE   C2516779   0.039   1.700   5.969
  152SAPE   H5R16780   0.119   1.770   5.997
  152SAPE   C2616781   0.018   1.690   5.837
  152SAPE   H6R16782   0.097   1.736   5.775
  152SAPE   C2716783   6.816   1.596   5.760
  152SAPE   H7R16784   6.802   1.505   5.822
  152SAPE   H7S16785   6.865   1.557   5.668
  152SAPE   C2816786   6.688   1.665   5.724
  152SAPE   H8R16787   6.632   1.717   5.803
  152SAPE   C2916788   6.649   1.693   5.595
  152SAPE   H9R16789   6.554   1.748   5.580
  152SAPE  C21016790   6.724   1.661   5.466
  152SAPE  H10R16791   6.775   1.565   5.488
  152SAPE  H10S16792   6.802   1.736   5.441
  152SAPE  C21116793   6.634   1.632   5.347
  152SAPE  H11R16794   6.533   1.613   5.384
  152SAPE  C21216795   6.671   1.614   5.219
  152SAPE  H12R16796   6.596   1.585   5.144
  152SAPE  C21316797   6.815   1.631   5.171
  152SAPE  H13R16798   6.881   1.545   5.196
  152SAPE  H13S16799   6.868   1.711   5.227
  152SAPE  C21416800   6.839   1.663   5.026
  152SAPE  H14R16801   0.010   1.756   5.014
  152SAPE  C21516802   6.787   1.607   4.913
  152SAPE  H15R16803   6.811   1.657   4.818
  152SAPE  C21616804   6.703   1.485   4.914
  152SAPE  H16R16805   6.596   1.514   4.930
  152SAPE  H16S16806   6.722   1.424   5.005
  152SAPE  C21716807   6.721   1.397   4.787
  152SAPE  H17R16808   6.829   1.370   4.780
  152SAPE  H17S16809   6.710   1.470   4.704
  152SAPE  C21816810   6.637   1.277   4.790
  152SAPE  H18R16811   6.526   1.289   4.794
  152SAPE  H18S16812   6.656   1.219   4.883
  152SAPE  C21916813   6.678   1.185   4.672
  152SAPE  H19R16814   6.788   1.167   4.663
  152SAPE  H19S16815   6.656   1.244   4.581
  152SAPE  C22016816   6.610   1.051   4.656
  152SAPE  H20R16817   6.504   1.064   4.688
  152SAPE  H20S16818   6.661   0.978   4.722
  152SAPE  H20T16819   6.620   1.021   4.549
  152SAPE   C3316820   6.420   2.069   5.512
  152SAPE   H3X16821   6.482   2.158   5.487
  152SAPE   H3Y16822   6.322   2.114   5.539
  152SAPE   C3416823   6.398   1.978   5.387
  152SAPE   H4X16824   6.292   1.988   5.356
  152SAPE   H4Y16825   6.430   1.876   5.419
  152SAPE   C3516826   6.482   2.003   5.254
  152SAPE   H5X16827   6.592   1.993   5.262
  152SAPE   H5Y16828   6.475   2.113   5.239
  152SAPE   C3616829   6.443   1.925   5.124
  152SAPE   H6X16830   6.349   1.972   5.086
  152SAPE   H6Y16831   6.414   1.819   5.140
  152SAPE   C3716832   6.557   1.941   5.019
  152SAPE   H7X16833   6.649   1.898   5.064
  152SAPE   H7Y16834   6.581   2.048   5.002
  152SAPE   C3816835   6.517   1.868   4.890
  152SAPE   H8X16836   6.416   1.900   4.857
  152SAPE   H8Y16837   6.504   1.762   4.921
  152SAPE   C3916838   6.613   1.883   4.767
  152SAPE   H9X16839   6.580   1.818   4.682
  152SAPE   H9Y16840   6.716   1.856   4.798
  152SAPE  C31016841   6.630   2.024   4.717
  152SAPE  H10X16842   6.707   2.011   4.638
  152SAPE  H10Y16843   6.675   2.070   4.808
  152SAPE  C31116844   6.502   2.090   4.665
  152SAPE  H11X16845   6.515   2.200   4.649
  152SAPE  H11Y16846   6.423   2.066   4.738
  152SAPE  C31216847   6.454   2.037   4.528
  152SAPE  H12X16848   6.353   2.078   4.505
  152SAPE  H12Y16849   6.443   1.927   4.543
  152SAPE  C31316850   6.542   2.060   4.409
  152SAPE  H13X16851   6.641   2.012   4.425
  152SAPE  H13Y16852   6.558   2.170   4.403
  152SAPE  C31416853   6.496   1.987   4.279
  152SAPE  H14X16854   6.522   1.880   4.299
  152SAPE  H14Y16855   6.563   2.017   4.196
  152SAPE  C31516856   6.355   2.014   4.232
  152SAPE  H15X16857   6.281   2.024   4.314
  152SAPE  H15Y16858   6.325   1.926   4.171
  152SAPE  C31616859   6.356   2.150   4.156
  152SAPE  H16X16860   6.451   2.176   4.105
  152SAPE  H16Y16861   6.331   2.231   4.228
  152SAPE  C31716862   6.242   2.150   4.053
  152SAPE  H17X16863   6.233   2.250   4.005
  152SAPE  H17Y16864   6.154   2.112   4.109
  152SAPE  C31816865   6.275   2.058   3.933
  152SAPE  H18X16866   6.349   2.110   3.868
  152SAPE  H18Y16867   6.184   2.044   3.871
  152SAPE  H18Z16868   6.310   1.954   3.952
  153SAPE     N16869   6.568   1.547   6.620
  153SAPE   HN116870   6.537   1.461   6.670
  153SAPE   HN216871   6.635   1.523   6.543
  153SAPE   HN316872   6.612   1.611   6.689
  153SAPE   C1216873   6.455   1.624   6.571
  153SAPE  H12A16874   6.484   1.722   6.528
  153SAPE  H12B16875   6.385   1.661   6.650
  153SAPE   C1116876   6.365   1.537   6.478
  153SAPE  H11A16877   6.421   1.489   6.394
  153SAPE  H11B16878   6.291   1.603   6.428
  153SAPE     P16879   6.161   1.404   6.577
  153SAPE   O1316880   6.131   1.265   6.604
  153SAPE   O1416881   6.128   1.496   6.687
  153SAPE   O1216882   6.312   1.423   6.545
  153SAPE   O1116883   6.087   1.448   6.448
  153SAPE    C116884   6.128   1.395   6.323
  153SAPE    HA16885   6.120   1.476   6.248
  153SAPE    HB16886   6.232   1.358   6.311
  153SAPE    C216887   6.027   1.288   6.262
  153SAPE    HS16888   6.066   1.281   6.158
  153SAPE   O2116889   5.892   1.330   6.281
  153SAPE   C2116890   5.829   1.364   6.163
  153SAPE   O2216891   5.870   1.326   6.051
  153SAPE   C2216892   5.697   1.440   6.177
  153SAPE   H2R16893   5.633   1.356   6.213
  153SAPE   H2S16894   5.703   1.520   6.254
  153SAPE    C316895   6.055   1.157   6.329
  153SAPE    HX16896   6.002   1.154   6.426
  153SAPE    HY16897   6.164   1.142   6.344
  153SAPE   O3116898   6.002   1.050   6.249
  153SAPE   C3116899   6.077   1.014   6.147
  153SAPE   O3216900   6.193   1.036   6.130
  153SAPE   C3216901   5.982   0.951   6.042
  153SAPE   H2X16902   5.909   1.033   6.023
  153SAPE   H2Y16903   5.949   0.858   6.092
  153SAPE   C2316904   5.644   1.480   6.039
  153SAPE   H3R16905   5.539   1.508   6.059
  153SAPE   H3S16906   5.647   1.401   5.961
  153SAPE   C2416907   5.730   1.603   5.990
  153SAPE   H4R16908   5.683   1.616   5.890
  153SAPE   H4S16909   5.834   1.565   5.980
  153SAPE   C2516910   5.728   1.731   6.073
  153SAPE   H5R16911   5.803   1.743   6.152
  153SAPE   C2616912   5.658   1.845   6.051
  153SAPE   H6R16913   5.654   1.920   6.131
  153SAPE   C2716914   5.560   1.878   5.940
  153SAPE   H7R16915   5.461   1.875   5.990
  153SAPE   H7S16916   5.552   1.800   5.861
  153SAPE   C2816917   5.600   2.012   5.873
  153SAPE   H8R16918   5.594   2.102   5.936
  153SAPE   C2916919   5.633   2.027   5.739
  153SAPE   H9R16920   5.651   2.130   5.703
  153SAPE  C21016921   5.630   1.927   5.628
  153SAPE  H10R16922   5.633   1.822   5.664
  153SAPE  H10S16923   5.728   1.925   5.578
  153SAPE  C21116924   5.517   1.958   5.534
  153SAPE  H11R16925   5.421   1.974   5.585
  153SAPE  C21216926   5.510   1.938   5.399
  153SAPE  H12R16927   5.413   1.962   5.353
  153SAPE  C21316928   5.608   1.898   5.299
  153SAPE  H13R16929   5.700   1.868   5.353
  153SAPE  H13S16930   5.632   1.994   5.248
  153SAPE  C21416931   5.563   1.797   5.198
  153SAPE  H14R16932   5.477   1.740   5.237
  153SAPE  C21516933   5.610   1.787   5.068
  153SAPE  H15R16934   5.565   1.712   5.001
  153SAPE  C21616935   5.714   1.869   5.000
  153SAPE  H16R16936   5.781   1.802   4.942
  153SAPE  H16S16937   5.780   1.919   5.075
  153SAPE  C21716938   5.646   1.976   4.902
  153SAPE  H17R16939   5.579   2.049   4.953
  153SAPE  H17S16940   5.586   1.925   4.824
  153SAPE  C21816941   5.746   2.070   4.826
  153SAPE  H18R16942   5.827   2.016   4.773
  153SAPE  H18S16943   5.800   2.120   4.909
  153SAPE  C21916944   5.690   2.175   4.731
  153SAPE  H19R16945   5.603   2.221   4.783
  153SAPE  H19S16946   5.649   2.131   4.638
  153SAPE  C22016947   5.794   2.290   4.708
  153SAPE  H20R16948   5.890   2.254   4.668
  153SAPE  H20S16949   5.802   2.347   4.803
  153SAPE  H20T16950   5.774   2.369   4.633
  153SAPE   C3316951   6.059   0.921   5.905
  153SAPE   H3X16952   6.154   0.864   5.911
  153SAPE   H3Y16953   6.093   1.018   5.865
  153SAPE   C3416954   5.990   0.853   5.793
  153SAPE   H4X16955   5.896   0.899   5.756
  153SAPE   H4Y16956   5.956   0.752   5.825
  153SAPE   C3516957   6.088   0.842   5.679
  153SAPE   H5X16958   6.174   0.777   5.706
  153SAPE   H5Y16959   6.128   0.945   5.662
  153SAPE   C3616960   6.027   0.789   5.545
  153SAPE   H6X16961   5.963   0.872   5.507
  153SAPE   H6Y16962   5.976   0.692   5.562
  153SAPE   C3716963   6.137   0.757   5.445
  153SAPE   H7X16964   6.204   0.677   5.483
  153SAPE   H7Y16965   6.204   0.844   5.433
  153SAPE   C3816966   6.098   0.714   5.302
  153SAPE   H8X16967   6.019   0.776   5.254
  153SAPE   H8Y16968   6.044   0.617   5.302
  153SAPE   C3916969   6.219   0.701   5.206
  153SAPE   H9X16970   6.286   0.627   5.253
  153SAPE   H9Y16971   6.284   0.791   5.195
  153SAPE  C31016972   6.182   0.657   5.058
  153SAPE  H10X16973   6.098   0.719   5.021
  153SAPE  H10Y16974   6.141   0.554   5.065
  153SAPE  C31116975   6.304   0.654   4.965
  153SAPE  H11X16976   6.384   0.596   5.016
  153SAPE  H11Y16977   6.348   0.755   4.946
  153SAPE  C31216978   6.267   0.597   4.824
  153SAPE  H12X16979   6.180   0.655   4.787
  153SAPE  H12Y16980   6.226   0.494   4.827
  153SAPE  C31316981   6.397   0.609   4.735
  153SAPE  H13X16982   6.418   0.519   4.674
  153SAPE  H13Y16983   6.474   0.610   4.816
  153SAPE  C31416984   6.401   0.739   4.653
  153SAPE  H14X16985   6.497   0.733   4.598
  153SAPE  H14Y16986   6.395   0.829   4.718
  153SAPE  C31516987   6.288   0.757   4.554
  153SAPE  H15X16988   6.199   0.800   4.604
  153SAPE  H15Y16989   6.262   0.656   4.516
  153SAPE  C31616990   6.331   0.847   4.441
  153SAPE  H16X16991   6.427   0.819   4.393
  153SAPE  H16Y16992   6.356   0.948   4.481
  153SAPE  C31716993   6.228   0.850   4.326
  153SAPE  H17X16994   6.177   0.755   4.301
  153SAPE  H17Y16995   6.282   0.886   4.235
  153SAPE  C31816996   6.118   0.955   4.345
  153SAPE  H18X16997   6.162   1.056   4.347
  153SAPE  H18Y16998   6.064   0.942   4.441
  153SAPE  H18Z16999   6.047   0.950   4.259
  154SAPE     N17000   3.973   0.824   6.559
  154SAPE   HN117001   4.069   0.822   6.519
  154SAPE   HN217002   3.985   0.870   6.651
  154SAPE   HN317003   3.939   0.728   6.581
  154SAPE   C1217004   3.885   0.907   6.476
  154SAPE  H12A17005   3.939   0.995   6.436
  154SAPE  H12B17006   3.795   0.935   6.534
  154SAPE   C1117007   3.841   0.834   6.353
  154SAPE  H11A17008   3.932   0.788   6.309
  154SAPE  H11B17009   3.795   0.905   6.280
  154SAPE     P17010   3.599   0.738   6.393
  154SAPE   O1317011   3.543   0.606   6.423
  154SAPE   O1417012   3.550   0.846   6.475
  154SAPE   O1217013   3.751   0.732   6.396
  154SAPE   O1117014   3.557   0.771   6.248
  154SAPE    C117015   3.567   0.684   6.137
  154SAPE    HA17016   3.601   0.738   6.045
  154SAPE    HB17017   3.620   0.589   6.158
  154SAPE    C217018   3.426   0.642   6.092
  154SAPE    HS17019   3.373   0.597   6.178
  154SAPE   O2117020   3.450   0.547   5.984
  154SAPE   C2117021   3.483   0.419   6.020
  154SAPE   O2217022   3.484   0.373   6.132
  154SAPE   C2217023   3.541   0.350   5.905
  154SAPE   H2R17024   3.492   0.390   5.815
  154SAPE   H2S17025   3.647   0.384   5.900
  154SAPE    C317026   3.325   0.749   6.047
  154SAPE    HX17027   3.290   0.810   6.133
  154SAPE    HY17028   3.236   0.698   6.004
  154SAPE   O3117029   3.378   0.834   5.949
  154SAPE   C3117030   3.295   0.935   5.909
  154SAPE   O3217031   3.182   0.957   5.947
  154SAPE   C3217032   3.373   1.021   5.806
  154SAPE   H2X17033   3.387   0.949   5.722
  154SAPE   H2Y17034   3.473   1.051   5.845
  154SAPE   C2317035   3.553   0.194   5.926
  154SAPE   H3R17036   3.449   0.156   5.935
  154SAPE   H3S17037   3.602   0.177   6.024
  154SAPE   C2417038   3.625   0.117   5.813
  154SAPE   H4R17039   3.614   0.188   5.728
  154SAPE   H4S17040   3.579   0.023   5.778
  154SAPE   C2517041   3.775   0.088   5.840
  154SAPE   H5R17042   3.798   0.057   5.943
  154SAPE   C2617043   3.873   0.079   5.752
  154SAPE   H6R17044   3.976   0.076   5.790
  154SAPE   C2717045   3.869   0.096   5.600
  154SAPE   H7R17046   3.788   0.028   5.565
  154SAPE   H7S17047   3.956   0.048   5.552
  154SAPE   C2817048   3.850   0.241   5.553
  154SAPE   H8R17049   3.909   0.316   5.608
  154SAPE   C2917050   3.773   0.285   5.450
  154SAPE   H9R17051   3.770   0.394   5.436
  154SAPE  C21017052   3.688   0.196   5.353
  154SAPE  H10R17053   3.670   0.093   5.391
  154SAPE  H10S17054   3.744   0.171   5.261
  154SAPE  C21117055   3.554   0.254   5.306
  154SAPE  H11R17056   3.474   0.236   5.379
  154SAPE  C21217057   3.535   0.310   5.192
  154SAPE  H12R17058   3.432   0.341   5.165
  154SAPE  C21317059   3.630   0.349   5.085
  154SAPE  H13R17060   3.736   0.338   5.117
  154SAPE  H13S17061   3.609   0.457   5.066
  154SAPE  C21417062   3.612   0.255   4.965
  154SAPE  H14R17063   3.530   0.181   4.975
  154SAPE  C21517064   3.682   0.262   4.846
  154SAPE  H15R17065   3.651   0.189   4.770
  154SAPE  C21617066   3.788   0.358   4.805
  154SAPE  H16R17067   3.821   0.428   4.885
  154SAPE  H16S17068   3.749   0.426   4.726
  154SAPE  C21717069   3.927   0.308   4.765
  154SAPE  H17R17070   3.902   0.235   4.686
  154SAPE  H17S17071   3.968   0.259   4.857
  154SAPE  C21817072   4.026   0.417   4.717
  154SAPE  H18R17073   4.021   0.485   4.804
  154SAPE  H18S17074   3.992   0.473   4.627
  154SAPE  C21917075   4.172   0.376   4.679
  154SAPE  H19R17076   4.237   0.353   4.766
  154SAPE  H19S17077   4.219   0.465   4.630
  154SAPE  C22017078   4.181   0.255   4.585
  154SAPE  H20R17079   4.151   0.166   4.644
  154SAPE  H20S17080   4.287   0.257   4.552
  154SAPE  H20T17081   4.122   0.256   4.491
  154SAPE   C3317082   3.292   1.148   5.778
  154SAPE   H3X17083   3.277   1.212   5.868
  154SAPE   H3Y17084   3.198   1.111   5.733
  154SAPE   C3417085   3.361   1.236   5.677
  154SAPE   H4X17086   3.461   1.254   5.722
  154SAPE   H4Y17087   3.309   1.334   5.664
  154SAPE   C3517088   3.375   1.173   5.537
  154SAPE   H5X17089   3.285   1.123   5.497
  154SAPE   H5Y17090   3.462   1.104   5.533
  154SAPE   C3617091   3.420   1.285   5.439
  154SAPE   H6X17092   3.522   1.314   5.471
  154SAPE   H6Y17093   3.351   1.373   5.436
  154SAPE   C3717094   3.423   1.222   5.294
  154SAPE   H7X17095   3.461   1.118   5.291
  154SAPE   H7Y17096   3.506   1.281   5.249
  154SAPE   C3817097   3.290   1.246   5.221
  154SAPE   H8X17098   3.260   1.349   5.252
  154SAPE   H8Y17099   3.209   1.175   5.247
  154SAPE   C3917100   3.303   1.244   5.061
  154SAPE   H9X17101   3.202   1.255   5.017
  154SAPE   H9Y17102   3.347   1.147   5.029
  154SAPE  C31017103   3.382   1.363   5.006
  154SAPE  H10X17104   3.478   1.370   5.062
  154SAPE  H10Y17105   3.345   1.461   5.044
  154SAPE  C31117106   3.416   1.355   4.850
  154SAPE  H11X17107   3.439   1.249   4.826
  154SAPE  H11Y17108   3.500   1.424   4.830
  154SAPE  C31217109   3.296   1.398   4.761
  154SAPE  H12X17110   3.205   1.358   4.809
  154SAPE  H12Y17111   3.295   1.357   4.658
  154SAPE  C31317112   3.282   1.556   4.758
  154SAPE  H13X17113   3.376   1.600   4.718
  154SAPE  H13Y17114   3.273   1.595   4.861
  154SAPE  C31417115   3.175   1.606   4.658
  154SAPE  H14X17116   3.078   1.560   4.687
  154SAPE  H14Y17117   3.195   1.582   4.551
  154SAPE  C31517118   3.151   1.756   4.663
  154SAPE  H15X17119   3.132   1.799   4.764
  154SAPE  H15Y17120   3.065   1.784   4.598
  154SAPE  C31617121   3.263   1.838   4.608
  154SAPE  H16X17122   3.314   1.788   4.523
  154SAPE  H16Y17123   3.344   1.856   4.683
  154SAPE  C31717124   3.220   1.973   4.553
  154SAPE  H17X17125   3.173   2.040   4.629
  154SAPE  H17Y17126   3.145   1.962   4.472
  154SAPE  C31817127   3.336   2.043   4.489
  154SAPE  H18X17128   3.400   2.074   4.574
  154SAPE  H18Y17129   3.301   2.139   4.445
  154SAPE  H18Z17130   3.379   1.987   4.403
  155SAPE     N17131   5.032   6.008   6.285
  155SAPE   HN117132   4.979   6.083   6.333
  155SAPE   HN217133   5.037   6.032   6.184
  155SAPE   HN317134   4.980   5.917   6.289
  155SAPE   C1217135   5.166   5.988   6.350
  155SAPE  H12A17136   5.162   5.982   6.461
  155SAPE  H12B17137   5.227   6.077   6.322
  155SAPE   C1117138   5.225   5.855   6.307
  155SAPE  H11A17139   5.323   5.853   6.358
  155SAPE  H11B17140   5.231   5.846   6.197
  155SAPE     P17141   5.177   5.607   6.361
  155SAPE   O1317142   5.287   5.590   6.462
  155SAPE   O1417143   5.055   5.522   6.379
  155SAPE   O1217144   5.138   5.756   6.346
  155SAPE   O1117145   5.234   5.585   6.216
  155SAPE    C117146   5.159   5.574   6.099
  155SAPE    HA17147   5.077   5.499   6.110
  155SAPE    HB17148   5.109   5.670   6.073
  155SAPE    C217149   5.245   5.548   5.974
  155SAPE    HS17150   5.319   5.469   5.999
  155SAPE   O2117151   5.295   5.669   5.925
  155SAPE   C2117152   5.415   5.665   5.864
  155SAPE   O2217153   5.486   5.565   5.853
  155SAPE   C2217154   5.458   5.799   5.807
  155SAPE   H2R17155   5.432   5.873   5.886
  155SAPE   H2S17156   5.567   5.793   5.787
  155SAPE    C317157   5.157   5.481   5.862
  155SAPE    HX17158   5.083   5.559   5.832
  155SAPE    HY17159   5.090   5.400   5.898
  155SAPE   O3117160   5.233   5.441   5.745
  155SAPE   C3117161   5.296   5.326   5.759
  155SAPE   O3217162   5.284   5.255   5.858
  155SAPE   C3217163   5.345   5.271   5.627
  155SAPE   H2X17164   5.281   5.187   5.592
  155SAPE   H2Y17165   5.446   5.247   5.666
  155SAPE   C2317166   5.390   5.830   5.665
  155SAPE   H3R17167   5.282   5.804   5.664
  155SAPE   H3S17168   5.440   5.768   5.588
  155SAPE   C2417169   5.378   5.979   5.613
  155SAPE   H4R17170   5.345   5.994   5.508
  155SAPE   H4S17171   5.481   6.020   5.605
  155SAPE   C2517172   5.296   6.067   5.712
  155SAPE   H5R17173   5.350   6.096   5.804
  155SAPE   C2617174   5.168   6.110   5.696
  155SAPE   H6R17175   5.124   6.177   5.771
  155SAPE   C2717176   5.081   6.084   5.582
  155SAPE   H7R17177   5.150   6.125   5.505
  155SAPE   H7S17178   4.995   6.154   5.577
  155SAPE   C2817179   5.015   5.955   5.552
  155SAPE   H8R17180   4.956   5.919   5.637
  155SAPE   C2917181   5.009   5.882   5.440
  155SAPE   H9R17182   4.944   5.794   5.430
  155SAPE  C21017183   5.076   5.901   5.308
  155SAPE  H10R17184   5.110   6.005   5.288
  155SAPE  H10S17185   5.011   5.888   5.219
  155SAPE  C21117186   5.200   5.805   5.297
  155SAPE  H11R17187   5.227   5.757   5.392
  155SAPE  C21217188   5.255   5.758   5.184
  155SAPE  H12R17189   5.339   5.690   5.201
  155SAPE  C21317190   5.220   5.799   5.043
  155SAPE  H13R17191   5.254   5.902   5.020
  155SAPE  H13S17192   5.111   5.804   5.023
  155SAPE  C21417193   5.294   5.699   4.951
  155SAPE  H14R17194   5.350   5.617   4.998
  155SAPE  C21517195   5.296   5.712   4.820
  155SAPE  H15R17196   5.353   5.640   4.759
  155SAPE  C21617197   5.225   5.820   4.741
  155SAPE  H16R17198   5.117   5.814   4.765
  155SAPE  H16S17199   5.234   5.791   4.634
  155SAPE  C21717200   5.279   5.962   4.746
  155SAPE  H17R17201   5.307   5.989   4.850
  155SAPE  H17S17202   5.200   6.034   4.717
  155SAPE  C21817203   5.410   5.990   4.671
  155SAPE  H18R17204   5.382   5.976   4.565
  155SAPE  H18S17205   5.497   5.928   4.702
  155SAPE  C21917206   5.459   6.132   4.699
  155SAPE  H19R17207   5.442   6.170   4.802
  155SAPE  H19S17208   5.380   6.189   4.645
  155SAPE  C22017209   5.587   6.169   4.645
  155SAPE  H20R17210   5.665   6.121   4.708
  155SAPE  H20S17211   5.614   6.277   4.649
  155SAPE  H20T17212   5.599   6.141   4.538
  155SAPE   C3317213   5.351   5.373   5.512
  155SAPE   H3X17214   5.419   5.454   5.545
  155SAPE   H3Y17215   5.247   5.411   5.502
  155SAPE   C3417216   5.400   5.316   5.379
  155SAPE   H4X17217   5.335   5.235   5.339
  155SAPE   H4Y17218   5.502   5.274   5.391
  155SAPE   C3517219   5.417   5.420   5.275
  155SAPE   H5X17220   5.496   5.489   5.312
  155SAPE   H5Y17221   5.322   5.476   5.263
  155SAPE   C3617222   5.478   5.375   5.134
  155SAPE   H6X17223   5.572   5.323   5.162
  155SAPE   H6Y17224   5.512   5.470   5.087
  155SAPE   C3717225   5.392   5.280   5.054
  155SAPE   H7X17226   5.289   5.319   5.045
  155SAPE   H7Y17227   5.392   5.184   5.109
  155SAPE   C3817228   5.451   5.250   4.915
  155SAPE   H8X17229   5.560   5.227   4.923
  155SAPE   H8Y17230   5.444   5.338   4.847
  155SAPE   C3917231   5.388   5.132   4.833
  155SAPE   H9X17232   5.418   5.153   4.728
  155SAPE   H9Y17233   5.277   5.137   4.828
  155SAPE  C31017234   5.440   4.996   4.872
  155SAPE  H10X17235   5.356   4.923   4.878
  155SAPE  H10Y17236   5.487   4.986   4.972
  155SAPE  C31117237   5.548   4.937   4.785
  155SAPE  H11X17238   5.644   4.989   4.809
  155SAPE  H11Y17239   5.525   4.969   4.680
  155SAPE  C31217240   5.565   4.782   4.799
  155SAPE  H12X17241   5.473   4.729   4.766
  155SAPE  H12Y17242   5.589   4.755   4.905
  155SAPE  C31317243   5.677   4.732   4.711
  155SAPE  H13X17244   5.779   4.757   4.747
  155SAPE  H13Y17245   5.666   4.790   4.616
  155SAPE  C31417246   5.681   4.582   4.677
  155SAPE  H14X17247   5.642   4.537   4.772
  155SAPE  H14Y17248   5.789   4.557   4.665
  155SAPE  C31517249   5.588   4.531   4.567
  155SAPE  H15X17250   5.615   4.592   4.478
  155SAPE  H15Y17251   5.486   4.571   4.585
  155SAPE  C31617252   5.601   4.384   4.540
  155SAPE  H16X17253   5.537   4.362   4.451
  155SAPE  H16Y17254   5.572   4.343   4.638
  155SAPE  C31717255   5.744   4.335   4.503
  155SAPE  H17X17256   5.744   4.225   4.488
  155SAPE  H17Y17257   5.816   4.360   4.584
  155SAPE  C31817258   5.813   4.402   4.376
  155SAPE  H18X17259   5.849   4.506   4.390
  155SAPE  H18Y17260   5.739   4.417   4.294
  155SAPE  H18Z17261   5.894   4.343   4.328
  156SAPE     N17262   0.014   0.788   6.685
  156SAPE   HN117263   6.864   0.830   6.773
  156SAPE   HN217264   0.019   0.866   6.616
  156SAPE   HN317265   6.826   0.723   6.652
  156SAPE   C1217266   0.142   0.713   6.691
  156SAPE  H12A17267   0.133   0.665   6.791
  156SAPE  H12B17268   0.219   0.793   6.698
  156SAPE   C1117269   0.157   0.618   6.571
  156SAPE  H11A17270   0.255   0.568   6.586
  156SAPE  H11B17271   0.160   0.673   6.475
  156SAPE     P17272   0.045   0.374   6.601
  156SAPE   O1317273   0.160   0.345   6.688
  156SAPE   O1417274   6.792   0.348   6.653
  156SAPE   O1217275   0.045   0.525   6.555
  156SAPE   O1117276   0.056   0.297   6.461
  156SAPE    C117277   0.169   0.324   6.377
  156SAPE    HA17278   0.183   0.434   6.366
  156SAPE    HB17279   0.259   0.275   6.418
  156SAPE    C217280   0.162   0.242   6.241
  156SAPE    HS17281   0.265   0.235   6.201
  156SAPE   O2117282   0.070   0.304   6.151
  156SAPE   C2117283   0.110   0.427   6.111
  156SAPE   O2217284   0.217   0.477   6.136
  156SAPE   C2217285   0.003   0.488   6.019
  156SAPE   H2R17286   6.788   0.472   6.060
  156SAPE   H2S17287   0.028   0.596   6.013
  156SAPE    C317288   0.116   0.093   6.263
  156SAPE    HX17289   0.020   0.074   6.314
  156SAPE    HY17290   0.189   0.057   6.338
  156SAPE   O3117291   0.144   0.003   6.147
  156SAPE   C3117292   0.032   6.858   6.084
  156SAPE   O3217293   6.801   6.885   6.119
  156SAPE   C3217294   0.070   6.800   5.948
  156SAPE   H2X17295   0.063   6.690   5.937
  156SAPE   H2Y17296   0.177   6.824   5.930
  156SAPE   C2317297   0.011   0.439   5.873
  156SAPE   H3R17298   6.805   0.475   5.823
  156SAPE   H3S17299   0.011   0.328   5.875
  156SAPE   C2417300   0.136   0.485   5.795
  156SAPE   H4R17301   0.236   0.469   5.840
  156SAPE   H4S17302   0.114   0.593   5.812
  156SAPE   C2517303   0.139   0.435   5.655
  156SAPE   H5R17304   0.136   0.325   5.648
  156SAPE   C2617305   0.131   0.511   5.547
  156SAPE   H6R17306   0.111   0.466   5.448
  156SAPE   C2717307   0.127   0.661   5.541
  156SAPE   H7R17308   0.211   0.692   5.607
  156SAPE   H7S17309   0.035   0.696   5.591
  156SAPE   C2817310   0.135   0.718   5.408
  156SAPE   H8R17311   0.079   0.811   5.388
  156SAPE   C2917312   0.223   0.686   5.309
  156SAPE   H9R17313   0.215   0.745   5.216
  156SAPE  C21017314   0.324   0.576   5.294
  156SAPE  H10R17315   0.348   0.536   5.395
  156SAPE  H10S17316   0.416   0.626   5.256
  156SAPE  C21117317   0.279   0.469   5.199
  156SAPE  H11R17318   0.197   0.406   5.236
  156SAPE  C21217319   0.308   0.458   5.065
  156SAPE  H12R17320   0.287   0.360   5.020
  156SAPE  C21317321   0.392   0.547   4.976
  156SAPE  H13R17322   0.472   0.598   5.033
  156SAPE  H13S17323   0.334   0.635   4.943
  156SAPE  C21417324   0.441   0.479   4.849
  156SAPE  H14R17325   0.395   0.381   4.827
  156SAPE  C21517326   0.551   0.519   4.778
  156SAPE  H15R17327   0.564   0.482   4.675
  156SAPE  C21617328   0.639   0.637   4.808
  156SAPE  H16R17329   0.599   0.693   4.895
  156SAPE  H16S17330   0.647   0.708   4.723
  156SAPE  C21717331   0.771   0.585   4.860
  156SAPE  H17R17332   0.770   0.518   4.948
  156SAPE  H17S17333   0.837   0.672   4.881
  156SAPE  C21817334   0.840   0.506   4.743
  156SAPE  H18R17335   0.819   0.561   4.650
  156SAPE  H18S17336   0.812   0.403   4.715
  156SAPE  C21917337   0.984   0.477   4.773
  156SAPE  H19R17338   0.995   0.421   4.869
  156SAPE  H19S17339   1.023   0.581   4.786
  156SAPE  C22017340   1.065   0.412   4.666
  156SAPE  H20R17341   1.077   0.306   4.698
  156SAPE  H20S17342   1.170   0.446   4.657
  156SAPE  H20T17343   1.018   0.419   4.566
  156SAPE   C3317344   6.871   6.863   5.842
  156SAPE   H3X17345   0.001   0.086   5.829
  156SAPE   H3Y17346   6.767   6.835   5.870
  156SAPE   C3417347   0.035   6.806   5.697
  156SAPE   H4X17348   0.009   6.698   5.689
  156SAPE   H4Y17349   0.144   6.824   5.679
  156SAPE   C3517350   6.842   6.879   5.592
  156SAPE   H5X17351   6.860   0.101   5.612
  156SAPE   H5Y17352   6.733   6.864   5.606
  156SAPE   C3617353   6.884   6.847   5.450
  156SAPE   H6X17354   6.827   6.757   5.420
  156SAPE   H6Y17355   0.108   6.837   5.437
  156SAPE   C3717356   6.830   0.065   5.351
  156SAPE   H7X17357   6.728   0.088   5.388
  156SAPE   H7Y17358   6.836   0.011   5.254
  156SAPE   C3817359   0.024   0.195   5.348
  156SAPE   H8X17360   0.130   0.185   5.314
  156SAPE   H8Y17361   0.029   0.242   5.449
  156SAPE   C3917362   6.833   0.297   5.257
  156SAPE   H9X17363   0.006   0.391   5.256
  156SAPE   H9Y17364   6.729   0.320   5.287
  156SAPE  C31017365   6.840   0.262   5.109
  156SAPE  H10X17366   6.755   0.197   5.079
  156SAPE  H10Y17367   0.043   0.195   5.101
  156SAPE  C31117368   6.864   0.375   5.009
  156SAPE  H11X17369   0.044   0.452   5.055
  156SAPE  H11Y17370   6.770   0.431   4.992
  156SAPE  C31217371   0.031   0.307   4.881
  156SAPE  H12X17372   0.122   0.244   4.894
  156SAPE  H12Y17373   0.055   0.393   4.814
  156SAPE  C31317374   6.809   0.227   4.811
  156SAPE  H13X17375   6.713   0.282   4.808
  156SAPE  H13Y17376   6.792   0.126   4.854
  156SAPE  C31417377   6.855   0.192   4.665
  156SAPE  H14X17378   0.053   0.119   4.668
  156SAPE  H14Y17379   0.020   0.286   4.636
  156SAPE  C31517380   6.748   0.145   4.567
  156SAPE  H15X17381   6.665   0.216   4.549
  156SAPE  H15Y17382   6.700   0.059   4.619
  156SAPE  C31617383   6.805   0.105   4.433
  156SAPE  H16X17384   6.874   0.019   4.451
  156SAPE  H16Y17385   6.868   0.185   4.389
  156SAPE  C31717386   6.704   0.061   4.326
  156SAPE  H17X17387   6.623   0.007   4.379
  156SAPE  H17Y17388   6.748   6.870   4.259
  156SAPE  C31817389   6.646   0.176   4.244
  156SAPE  H18X17390   6.735   0.218   4.191
  156SAPE  H18Y17391   6.588   0.252   4.300
  156SAPE  H18Z17392   6.582   0.125   4.169
  157SAPE     N17393   0.858   5.984   6.544
  157SAPE   HN117394   0.794   6.052   6.591
  157SAPE   HN217395   0.887   5.915   6.616
  157SAPE   HN317396   0.940   6.031   6.502
  157SAPE   C1217397   0.777   5.906   6.444
  157SAPE  H12A17398   0.697   5.854   6.500
  157SAPE  H12B17399   0.842   5.824   6.403
  157SAPE   C1117400   0.727   5.994   6.329
  157SAPE  H11A17401   0.675   5.930   6.255
  157SAPE  H11B17402   0.818   6.040   6.285
  157SAPE     P17403   0.670   6.250   6.395
  157SAPE   O1317404   0.560   6.314   6.472
  157SAPE   O1417405   0.808   6.264   6.452
  157SAPE   O1217406   0.644   6.099   6.373
  157SAPE   O1117407   0.678   6.299   6.241
  157SAPE    C117408   0.599   6.260   6.132
  157SAPE    HA17409   0.637   6.293   6.033
  157SAPE    HB17410   0.588   6.149   6.128
  157SAPE    C217411   0.464   6.317   6.143
  157SAPE    HS17412   0.440   6.324   6.251
  157SAPE   O2117413   0.367   6.238   6.074
  157SAPE   C2117414   0.243   6.250   6.127
  157SAPE   O2217415   0.208   6.321   6.220
  157SAPE   C2217416   0.151   6.164   6.041
  157SAPE   H2R17417   0.194   6.168   5.938
  157SAPE   H2S17418   0.157   6.066   6.092
  157SAPE    C317419   0.465   6.463   6.089
  157SAPE    HX17420   0.548   6.521   6.135
  157SAPE    HY17421   0.380   6.524   6.126
  157SAPE   O3117422   0.475   6.464   5.943
  157SAPE   C3117423   0.357   6.477   5.881
  157SAPE   O3217424   0.252   6.507   5.936
  157SAPE   C3217425   0.388   6.458   5.734
  157SAPE   H2X17426   0.436   6.358   5.732
  157SAPE   H2Y17427   0.466   6.522   5.689
  157SAPE   C2317428   0.008   6.202   6.041
  157SAPE   H3R17429   0.001   6.303   5.994
  157SAPE   H3S17430   6.858   6.210   6.146
  157SAPE   C2417431   6.816   6.102   5.953
  157SAPE   H4R17432   6.794   6.021   6.026
  157SAPE   H4S17433   6.880   6.076   5.866
  157SAPE   C2517434   6.679   6.150   5.909
  157SAPE   H5R17435   6.610   6.164   5.993
  157SAPE   C2617436   6.631   6.160   5.781
  157SAPE   H6R17437   6.529   6.203   5.779
  157SAPE   C2717438   6.712   6.124   5.661
  157SAPE   H7R17439   6.775   6.034   5.675
  157SAPE   H7S17440   6.780   6.209   5.639
  157SAPE   C2817441   6.623   6.094   5.541
  157SAPE   H8R17442   6.538   6.038   5.583
  157SAPE   C2917443   6.646   6.120   5.414
  157SAPE   H9R17444   6.563   6.089   5.350
  157SAPE  C21017445   6.768   6.181   5.349
  157SAPE  H10R17446   6.815   6.110   5.279
  157SAPE  H10S17447   6.847   6.198   5.425
  157SAPE  C21117448   6.732   6.309   5.281
  157SAPE  H11R17449   6.717   6.385   5.360
  157SAPE  C21217450   6.733   6.347   5.156
  157SAPE  H12R17451   6.713   6.453   5.137
  157SAPE  C21317452   6.756   6.256   5.034
  157SAPE  H13R17453   6.790   6.154   5.062
  157SAPE  H13S17454   6.851   6.288   4.985
  157SAPE  C21417455   6.643   6.241   4.933
  157SAPE  H14R17456   6.593   6.143   4.928
  157SAPE  C21517457   6.597   6.345   4.854
  157SAPE  H15R17458   6.525   6.324   4.774
  157SAPE  C21617459   6.652   6.484   4.845
  157SAPE  H16R17460   6.752   6.487   4.894
  157SAPE  H16S17461   6.593   6.559   4.902
  157SAPE  C21717462   6.673   6.536   4.699
  157SAPE  H17R17463   6.735   6.627   4.715
  157SAPE  H17S17464   6.582   6.560   4.640
  157SAPE  C21817465   6.758   6.451   4.607
  157SAPE  H18R17466   6.700   6.365   4.566
  157SAPE  H18S17467   6.843   6.403   4.661
  157SAPE  C21917468   6.822   6.523   4.490
  157SAPE  H19R17469   6.884   6.447   4.438
  157SAPE  H19S17470   6.881   6.605   4.537
  157SAPE  C22017471   6.727   6.601   4.403
  157SAPE  H20R17472   6.768   6.646   4.310
  157SAPE  H20S17473   6.694   6.683   4.470
  157SAPE  H20T17474   6.648   6.527   4.377
  157SAPE   C3317475   0.278   6.470   5.627
  157SAPE   H3X17476   0.264   6.577   5.602
  157SAPE   H3Y17477   0.176   6.445   5.664
  157SAPE   C3417478   0.316   6.400   5.504
  157SAPE   H4X17479   0.352   6.296   5.518
  157SAPE   H4Y17480   0.405   6.449   5.459
  157SAPE   C3517481   0.201   6.381   5.403
  157SAPE   H5X17482   0.151   6.475   5.372
  157SAPE   H5Y17483   0.130   6.323   5.466
  157SAPE   C3617484   0.248   6.300   5.279
  157SAPE   H6X17485   0.153   6.283   5.224
  157SAPE   H6Y17486   0.294   6.208   5.321
  157SAPE   C3717487   0.336   6.390   5.196
  157SAPE   H7X17488   0.436   6.415   5.237
  157SAPE   H7Y17489   0.280   6.485   5.181
  157SAPE   C3817490   0.360   6.335   5.048
  157SAPE   H8X17491   0.394   6.229   5.050
  157SAPE   H8Y17492   0.438   6.397   4.999
  157SAPE   C3917493   0.235   6.352   4.959
  157SAPE   H9X17494   0.181   6.444   4.992
  157SAPE   H9Y17495   0.177   6.261   4.983
  157SAPE  C31017496   0.269   6.370   4.814
  157SAPE  H10X17497   0.352   6.442   4.797
  157SAPE  H10Y17498   0.174   6.391   4.761
  157SAPE  C31117499   0.320   6.243   4.749
  157SAPE  H11X17500   0.246   6.164   4.773
  157SAPE  H11Y17501   0.413   6.225   4.806
  157SAPE  C31217502   0.349   6.242   4.605
  157SAPE  H12X17503   0.424   6.164   4.577
  157SAPE  H12Y17504   0.385   6.341   4.570
  157SAPE  C31317505   0.219   6.196   4.535
  157SAPE  H13X17506   0.149   6.279   4.556
  157SAPE  H13Y17507   0.183   6.098   4.573
  157SAPE  C31417508   0.230   6.184   4.381
  157SAPE  H14X17509   0.305   6.105   4.359
  157SAPE  H14Y17510   0.259   6.282   4.338
  157SAPE  C31517511   0.103   6.131   4.307
  157SAPE  H15X17512   0.017   6.198   4.329
  157SAPE  H15Y17513   0.079   6.028   4.340
  157SAPE  C31617514   0.115   6.128   4.154
  157SAPE  H16X17515   0.162   6.225   4.125
  157SAPE  H16Y17516   0.020   6.132   4.096
  157SAPE  C31717517   0.191   6.001   4.108
  157SAPE  H17X17518   0.133   5.912   4.142
  157SAPE  H17Y17519   0.288   6.001   4.161
  157SAPE  C31817520   0.216   5.996   3.962
  157SAPE  H18X17521   0.123   5.994   3.902
  157SAPE  H18Y17522   0.261   5.897   3.940
  157SAPE  H18Z17523   0.288   6.075   3.931
  158SAPE     N17524   2.170   4.915   6.552
  158SAPE   HN117525   2.112   4.998   6.575
  158SAPE   HN217526   2.164   4.839   6.623
  158SAPE   HN317527   2.272   4.936   6.550
  158SAPE   C1217528   2.122   4.882   6.415
  158SAPE  H12A17529   2.014   4.908   6.411
  158SAPE  H12B17530   2.141   4.773   6.408
  158SAPE   C1117531   2.204   4.960   6.311
  158SAPE  H11A17532   2.210   5.070   6.327
  158SAPE  H11B17533   2.142   4.956   6.219
  158SAPE     P17534   2.464   4.931   6.349
  158SAPE   O1317535   2.431   4.978   6.488
  158SAPE   O1417536   2.560   4.823   6.325
  158SAPE   O1217537   2.322   4.890   6.286
  158SAPE   O1117538   2.489   5.060   6.265
  158SAPE    C117539   2.482   5.070   6.122
  158SAPE    HA17540   2.527   4.980   6.074
  158SAPE    HB17541   2.378   5.087   6.087
  158SAPE    C217542   2.580   5.182   6.079
  158SAPE    HS17543   2.667   5.163   6.146
  158SAPE   O2117544   2.524   5.315   6.076
  158SAPE   C2117545   2.601   5.411   6.110
  158SAPE   O2217546   2.720   5.404   6.136
  158SAPE   C2217547   2.527   5.545   6.106
  158SAPE   H2R17548   2.595   5.612   6.049
  158SAPE   H2S17549   2.432   5.522   6.053
  158SAPE    C317550   2.630   5.160   5.929
  158SAPE    HX17551   2.538   5.161   5.868
  158SAPE    HY17552   2.680   5.060   5.928
  158SAPE   O3117553   2.727   5.261   5.883
  158SAPE   C3117554   2.851   5.241   5.897
  158SAPE   O3217555   2.904   5.152   5.960
  158SAPE   C3217556   2.921   5.347   5.814
  158SAPE   H2X17557   3.022   5.375   5.853
  158SAPE   H2Y17558   2.855   5.435   5.815
  158SAPE   C2317559   2.505   5.619   6.245
  158SAPE   H3R17560   2.570   5.569   6.321
  158SAPE   H3S17561   2.406   5.583   6.280
  158SAPE   C2417562   2.512   5.775   6.233
  158SAPE   H4R17563   2.617   5.804   6.211
  158SAPE   H4S17564   2.484   5.810   6.334
  158SAPE   C2517565   2.415   5.835   6.133
  158SAPE   H5R17566   2.313   5.794   6.123
  158SAPE   C2617567   2.440   5.933   6.040
  158SAPE   H6R17568   2.349   5.982   6.002
  158SAPE   C2717569   2.565   6.011   6.013
  158SAPE   H7R17570   2.654   5.994   6.077
  158SAPE   H7S17571   2.530   6.114   6.033
  158SAPE   C2817572   2.603   5.984   5.869
  158SAPE   H8R17573   2.674   5.901   5.858
  158SAPE   C2917574   2.563   6.061   5.764
  158SAPE   H9R17575   2.609   6.029   5.670
  158SAPE  C21017576   2.479   6.184   5.772
  158SAPE  H10R17577   2.523   6.256   5.843
  158SAPE  H10S17578   2.376   6.158   5.804
  158SAPE  C21117579   2.450   6.261   5.645
  158SAPE  H11R17580   2.344   6.268   5.617
  158SAPE  C21217581   2.535   6.303   5.547
  158SAPE  H12R17582   2.500   6.367   5.465
  158SAPE  C21317583   2.688   6.287   5.552
  158SAPE  H13R17584   2.723   6.208   5.483
  158SAPE  H13S17585   2.710   6.229   5.644
  158SAPE  C21417586   2.755   6.420   5.565
  158SAPE  H14R17587   2.721   6.462   5.661
  158SAPE  C21517588   2.850   6.478   5.491
  158SAPE  H15R17589   2.873   6.584   5.504
  158SAPE  C21617590   2.898   6.415   5.360
  158SAPE  H16R17591   2.865   6.311   5.343
  158SAPE  H16S17592   3.009   6.419   5.356
  158SAPE  C21717593   2.849   6.480   5.230
  158SAPE  H17R17594   2.740   6.463   5.221
  158SAPE  H17S17595   2.894   6.427   5.143
  158SAPE  C21817596   2.868   6.628   5.220
  158SAPE  H18R17597   2.971   6.662   5.243
  158SAPE  H18S17598   2.798   6.681   5.288
  158SAPE  C21917599   2.823   6.675   5.081
  158SAPE  H19R17600   2.713   6.659   5.071
  158SAPE  H19S17601   2.872   6.620   4.998
  158SAPE  C22017602   2.843   6.828   5.067
  158SAPE  H20R17603   2.795   0.000   5.149
  158SAPE  H20S17604   2.802   6.864   4.970
  158SAPE  H20T17605   2.950   6.855   5.066
  158SAPE   C3317606   2.942   5.296   5.669
  158SAPE   H3X17607   2.843   5.260   5.633
  158SAPE   H3Y17608   3.013   5.210   5.670
  158SAPE   C3417609   3.005   5.403   5.575
  158SAPE   H4X17610   3.088   5.431   5.643
  158SAPE   H4Y17611   2.929   5.484   5.582
  158SAPE   C3517612   3.046   5.344   5.443
  158SAPE   H5X17613   2.974   5.280   5.387
  158SAPE   H5Y17614   3.128   5.272   5.463
  158SAPE   C3617615   3.109   5.453   5.354
  158SAPE   H6X17616   3.183   5.508   5.416
  158SAPE   H6Y17617   3.028   5.527   5.335
  158SAPE   C3717618   3.176   5.390   5.230
  158SAPE   H7X17619   3.106   5.312   5.193
  158SAPE   H7Y17620   3.272   5.347   5.264
  158SAPE   C3817621   3.206   5.491   5.129
  158SAPE   H8X17622   3.274   5.572   5.165
  158SAPE   H8Y17623   3.112   5.542   5.103
  158SAPE   C3917624   3.260   5.419   5.011
  158SAPE   H9X17625   3.300   5.321   5.045
  158SAPE   H9Y17626   3.341   5.484   4.970
  158SAPE  C31017627   3.178   5.405   4.879
  158SAPE  H10X17628   3.165   5.505   4.833
  158SAPE  H10Y17629   3.076   5.368   4.903
  158SAPE  C31117630   3.248   5.323   4.767
  158SAPE  H11X17631   3.272   5.225   4.814
  158SAPE  H11Y17632   3.345   5.370   4.741
  158SAPE  C31217633   3.170   5.308   4.641
  158SAPE  H12X17634   3.102   5.221   4.653
  158SAPE  H12Y17635   3.251   5.282   4.570
  158SAPE  C31317636   3.064   5.415   4.597
  158SAPE  H13X17637   3.128   5.503   4.576
  158SAPE  H13Y17638   2.999   5.435   4.685
  158SAPE  C31417639   2.989   5.389   4.467
  158SAPE  H14X17640   3.040   5.306   4.414
  158SAPE  H14Y17641   3.005   5.482   4.409
  158SAPE  C31517642   2.840   5.352   4.479
  158SAPE  H15X17643   2.782   5.440   4.513
  158SAPE  H15Y17644   2.831   5.269   4.552
  158SAPE  C31617645   2.786   5.310   4.342
  158SAPE  H16X17646   2.814   5.205   4.319
  158SAPE  H16Y17647   2.839   5.371   4.265
  158SAPE  C31717648   2.633   5.350   4.333
  158SAPE  H17X17649   2.624   5.445   4.389
  158SAPE  H17Y17650   2.571   5.268   4.375
  158SAPE  C31817651   2.584   5.386   4.199
  158SAPE  H18X17652   2.619   5.490   4.181
  158SAPE  H18Y17653   2.473   5.384   4.206
  158SAPE  H18Z17654   2.613   5.309   4.125
  159SAPE     N17655   5.185   2.799   2.775
  159SAPE   HN117656   5.180   2.703   2.734
  159SAPE   HN217657   5.282   2.793   2.810
  159SAPE   HN317658   5.107   2.818   2.842
  159SAPE   C1217659   5.198   2.897   2.659
  159SAPE  H12A17660   5.100   2.927   2.616
  159SAPE  H12B17661   5.258   2.852   2.577
  159SAPE   C1117662   5.273   3.026   2.710
  159SAPE  H11A17663   5.243   3.050   2.814
  159SAPE  H11B17664   5.258   3.107   2.636
  159SAPE     P17665   5.534   3.056   2.655
  159SAPE   O1317666   5.652   2.967   2.633
  159SAPE   O1417667   5.487   3.124   2.531
  159SAPE   O1217668   5.408   2.982   2.724
  159SAPE   O1117669   5.581   3.164   2.761
  159SAPE    C117670   5.526   3.180   2.892
  159SAPE    HA17671   5.545   3.287   2.916
  159SAPE    HB17672   5.417   3.157   2.893
  159SAPE    C217673   5.596   3.091   3.005
  159SAPE    HS17674   5.582   2.981   2.991
  159SAPE   O2117675   5.555   3.132   3.139
  159SAPE   C2117676   5.428   3.095   3.170
  159SAPE   O2217677   5.359   3.026   3.097
  159SAPE   C2217678   5.409   3.132   3.321
  159SAPE   H2R17679   5.503   3.173   3.363
  159SAPE   H2S17680   5.335   3.215   3.320
  159SAPE    C317681   5.748   3.115   3.009
  159SAPE    HX17682   5.789   3.051   2.928
  159SAPE    HY17683   5.787   3.061   3.098
  159SAPE   O3117684   5.784   3.258   2.997
  159SAPE   C3117685   5.905   3.274   2.948
  159SAPE   O3217686   5.991   3.187   2.925
  159SAPE   C3217687   5.931   3.420   2.916
  159SAPE   H2X17688   5.863   3.490   2.969
  159SAPE   H2Y17689   5.911   3.418   2.807
  159SAPE   C2317690   5.349   3.007   3.390
  159SAPE   H3R17691   5.412   2.916   3.385
  159SAPE   H3S17692   5.251   2.991   3.340
  159SAPE   C2417693   5.318   3.031   3.538
  159SAPE   H4R17694   5.260   3.125   3.555
  159SAPE   H4S17695   5.416   3.057   3.584
  159SAPE   C2517696   5.249   2.927   3.616
  159SAPE   H5R17697   5.178   2.860   3.566
  159SAPE   C2617698   5.264   2.929   3.750
  159SAPE   H6R17699   5.213   2.850   3.806
  159SAPE   C2717700   5.357   3.023   3.821
  159SAPE   H7R17701   5.330   3.039   3.927
  159SAPE   H7S17702   5.343   3.125   3.779
  159SAPE   C2817703   5.506   2.988   3.809
  159SAPE   H8R17704   5.529   2.921   3.724
  159SAPE   C2917705   5.609   3.024   3.887
  159SAPE   H9R17706   5.709   2.982   3.868
  159SAPE  C21017707   5.612   3.121   4.005
  159SAPE  H10R17708   5.510   3.153   4.036
  159SAPE  H10S17709   5.662   3.215   3.975
  159SAPE  C21117710   5.687   3.070   4.127
  159SAPE  H11R17711   5.656   2.969   4.159
  159SAPE  C21217712   5.797   3.128   4.183
  159SAPE  H12R17713   5.839   3.085   4.275
  159SAPE  C21317714   5.863   3.256   4.148
  159SAPE  H13R17715   5.831   3.282   4.045
  159SAPE  H13S17716   5.973   3.244   4.141
  159SAPE  C21417717   5.823   3.357   4.253
  159SAPE  H14R17718   5.718   3.349   4.283
  159SAPE  C21517719   5.890   3.462   4.307
  159SAPE  H15R17720   5.838   3.513   4.389
  159SAPE  C21617721   6.037   3.499   4.276
  159SAPE  H16R17722   6.055   3.474   4.169
  159SAPE  H16S17723   6.100   3.432   4.339
  159SAPE  C21717724   6.075   3.643   4.306
  159SAPE  H17R17725   6.048   3.652   4.413
  159SAPE  H17S17726   6.024   3.722   4.248
  159SAPE  C21817727   6.227   3.661   4.280
  159SAPE  H18R17728   6.252   3.765   4.310
  159SAPE  H18S17729   6.245   3.664   4.170
  159SAPE  C21917730   6.315   3.576   4.370
  159SAPE  H19R17731   6.418   3.610   4.348
  159SAPE  H19S17732   6.300   3.466   4.360
  159SAPE  C22017733   6.291   3.587   4.526
  159SAPE  H20R17734   6.383   3.543   4.570
  159SAPE  H20S17735   6.204   3.527   4.559
  159SAPE  H20T17736   6.284   3.690   4.568
  159SAPE   C3317737   6.081   3.451   2.937
  159SAPE   H3X17738   6.136   3.465   2.842
  159SAPE   H3Y17739   6.131   3.370   2.995
  159SAPE   C3417740   6.087   3.585   3.005
  159SAPE   H4X17741   6.015   3.598   3.089
  159SAPE   H4Y17742   6.051   3.662   2.932
  159SAPE   C3517743   6.226   3.626   3.057
  159SAPE   H5X17744   6.237   3.730   3.022
  159SAPE   H5Y17745   6.300   3.568   2.998
  159SAPE   C3617746   6.257   3.600   3.209
  159SAPE   H6X17747   6.255   3.489   3.206
  159SAPE   H6Y17748   6.184   3.633   3.286
  159SAPE   C3717749   6.395   3.655   3.248
  159SAPE   H7X17750   6.404   3.764   3.231
  159SAPE   H7Y17751   6.471   3.602   3.187
  159SAPE   C3817752   6.433   3.640   3.399
  159SAPE   H8X17753   6.415   3.533   3.419
  159SAPE   H8Y17754   6.347   3.692   3.447
  159SAPE   C3917755   6.578   3.666   3.441
  159SAPE   H9X17756   6.608   3.754   3.380
  159SAPE   H9Y17757   6.645   3.580   3.422
  159SAPE  C31017758   6.598   3.693   3.591
  159SAPE  H10X17759   6.526   3.766   3.633
  159SAPE  H10Y17760   6.700   3.727   3.618
  159SAPE  C31117761   6.578   3.570   3.685
  159SAPE  H11X17762   6.637   3.485   3.644
  159SAPE  H11Y17763   6.471   3.540   3.695
  159SAPE  C31217764   6.619   3.599   3.833
  159SAPE  H12X17765   6.574   3.694   3.869
  159SAPE  H12Y17766   6.729   3.611   3.838
  159SAPE  C31317767   6.581   3.480   3.919
  159SAPE  H13X17768   6.642   3.392   3.889
  159SAPE  H13Y17769   6.480   3.441   3.893
  159SAPE  C31417770   6.609   3.511   4.064
  159SAPE  H14X17771   6.547   3.598   4.097
  159SAPE  H14Y17772   6.708   3.557   4.081
  159SAPE  C31517773   6.596   3.391   4.160
  159SAPE  H15X17774   6.616   3.307   4.090
  159SAPE  H15Y17775   6.489   3.396   4.186
  159SAPE  C31617776   6.694   3.403   4.273
  159SAPE  H16X17777   6.664   3.490   4.335
  159SAPE  H16Y17778   6.801   3.415   4.248
  159SAPE  C31717779   6.680   3.283   4.376
  159SAPE  H17X17780   6.571   3.282   4.400
  159SAPE  H17Y17781   6.734   3.302   4.471
  159SAPE  C31817782   6.723   3.141   4.318
  159SAPE  H18X17783   6.700   3.142   4.209
  159SAPE  H18Y17784   6.670   3.051   4.355
  159SAPE  H18Z17785   6.832   3.129   4.338
  160SAPE     N17786   4.918   2.159   2.340
  160SAPE   HN117787   4.832   2.144   2.284
  160SAPE   HN217788   4.999   2.097   2.318
  160SAPE   HN317789   4.889   2.143   2.439
  160SAPE   C1217790   4.976   2.302   2.324
  160SAPE  H12A17791   5.024   2.310   2.224
  160SAPE  H12B17792   5.053   2.309   2.404
  160SAPE   C1117793   4.869   2.404   2.347
  160SAPE  H11A17794   4.917   2.503   2.330
  160SAPE  H11B17795   4.843   2.405   2.455
  160SAPE     P17796   4.616   2.410   2.306
  160SAPE   O1317797   4.617   2.529   2.392
  160SAPE   O1417798   4.525   2.401   2.193
  160SAPE   O1217799   4.760   2.380   2.259
  160SAPE   O1117800   4.586   2.279   2.395
  160SAPE    C117801   4.500   2.290   2.512
  160SAPE    HA17802   4.524   2.386   2.564
  160SAPE    HB17803   4.398   2.306   2.471
  160SAPE    C217804   4.526   2.180   2.622
  160SAPE    HS17805   4.457   2.207   2.704
  160SAPE   O2117806   4.662   2.188   2.675
  160SAPE   C2117807   4.688   2.288   2.745
  160SAPE   O2217808   4.619   2.379   2.778
  160SAPE   C2217809   4.833   2.283   2.786
  160SAPE   H2R17810   4.896   2.246   2.703
  160SAPE   H2S17811   4.863   2.385   2.816
  160SAPE    C317812   4.482   2.042   2.571
  160SAPE    HX17813   4.540   2.012   2.482
  160SAPE    HY17814   4.377   2.063   2.540
  160SAPE   O3117815   4.484   1.941   2.679
  160SAPE   C3117816   4.601   1.880   2.694
  160SAPE   O3217817   4.704   1.918   2.642
  160SAPE   C3217818   4.578   1.753   2.772
  160SAPE   H2X17819   4.682   1.724   2.801
  160SAPE   H2Y17820   4.542   1.681   2.695
  160SAPE   C2317821   4.861   2.178   2.902
  160SAPE   H3R17822   4.971   2.161   2.908
  160SAPE   H3S17823   4.810   2.082   2.875
  160SAPE   C2417824   4.814   2.234   3.041
  160SAPE   H4R17825   4.710   2.272   3.035
  160SAPE   H4S17826   4.872   2.329   3.052
  160SAPE   C2517827   4.818   2.153   3.173
  160SAPE   H5R17828   4.853   2.215   3.257
  160SAPE   C2617829   4.785   2.027   3.196
  160SAPE   H6R17830   4.784   1.989   3.300
  160SAPE   C2717831   4.715   1.933   3.097
  160SAPE   H7R17832   4.679   1.992   3.011
  160SAPE   H7S17833   4.629   1.884   3.146
  160SAPE   C2817834   4.814   1.824   3.055
  160SAPE   H8R17835   4.881   1.848   2.972
  160SAPE   C2917836   4.835   1.701   3.109
  160SAPE   H9R17837   4.911   1.634   3.066
  160SAPE  C21017838   4.747   1.642   3.224
  160SAPE  H10R17839   4.647   1.688   3.236
  160SAPE  H10S17840   4.799   1.656   3.321
  160SAPE  C21117841   4.743   1.487   3.218
  160SAPE  H11R17842   4.648   1.457   3.172
  160SAPE  C21217843   4.832   1.395   3.252
  160SAPE  H12R17844   4.798   1.291   3.241
  160SAPE  C21317845   4.969   1.422   3.310
  160SAPE  H13R17846   4.970   1.406   3.420
  160SAPE  H13S17847   4.993   1.529   3.291
  160SAPE  C21417848   5.082   1.348   3.234
  160SAPE  H14R17849   5.050   1.304   3.138
  160SAPE  C21517850   5.204   1.332   3.297
  160SAPE  H15R17851   5.281   1.269   3.248
  160SAPE  C21617852   5.245   1.379   3.433
  160SAPE  H16R17853   5.191   1.473   3.456
  160SAPE  H16S17854   5.352   1.408   3.427
  160SAPE  C21717855   5.228   1.269   3.549
  160SAPE  H17R17856   5.300   1.186   3.532
  160SAPE  H17S17857   5.123   1.232   3.546
  160SAPE  C21817858   5.264   1.316   3.685
  160SAPE  H18R17859   5.194   1.397   3.715
  160SAPE  H18S17860   5.367   1.357   3.692
  160SAPE  C21917861   5.236   1.206   3.792
  160SAPE  H19R17862   5.299   1.120   3.762
  160SAPE  H19S17863   5.128   1.180   3.790
  160SAPE  C22017864   5.275   1.251   3.937
  160SAPE  H20R17865   5.216   1.183   4.003
  160SAPE  H20S17866   5.237   1.354   3.955
  160SAPE  H20T17867   5.383   1.233   3.956
  160SAPE   C3317868   4.476   1.770   2.883
  160SAPE   H3X17869   4.371   1.784   2.848
  160SAPE   H3Y17870   4.499   1.852   2.954
  160SAPE   C3417871   4.474   1.645   2.971
  160SAPE   H4X17872   4.424   1.682   3.063
  160SAPE   H4Y17873   4.576   1.613   2.999
  160SAPE   C3517874   4.403   1.525   2.918
  160SAPE   H5X17875   4.427   1.512   2.810
  160SAPE   H5Y17876   4.292   1.534   2.910
  160SAPE   C3617877   4.429   1.403   3.002
  160SAPE   H6X17878   4.534   1.399   3.037
  160SAPE   H6Y17879   4.398   1.311   2.948
  160SAPE   C3717880   4.336   1.411   3.129
  160SAPE   H7X17881   4.230   1.420   3.095
  160SAPE   H7Y17882   4.357   1.507   3.181
  160SAPE   C3817883   4.357   1.299   3.229
  160SAPE   H8X17884   4.467   1.288   3.244
  160SAPE   H8Y17885   4.313   1.201   3.203
  160SAPE   C3917886   4.298   1.328   3.368
  160SAPE   H9X17887   4.188   1.335   3.361
  160SAPE   H9Y17888   4.349   1.418   3.408
  160SAPE  C31017889   4.333   1.209   3.466
  160SAPE  H10X17890   4.444   1.209   3.476
  160SAPE  H10Y17891   4.298   1.112   3.426
  160SAPE  C31117892   4.281   1.227   3.609
  160SAPE  H11X17893   4.171   1.246   3.605
  160SAPE  H11Y17894   4.322   1.310   3.672
  160SAPE  C31217895   4.285   1.084   3.681
  160SAPE  H12X17896   4.390   1.050   3.695
  160SAPE  H12Y17897   4.235   1.010   3.614
  160SAPE  C31317898   4.211   1.090   3.811
  160SAPE  H13X17899   4.106   1.126   3.799
  160SAPE  H13Y17900   4.265   1.162   3.876
  160SAPE  C31417901   4.209   0.951   3.886
  160SAPE  H14X17902   4.317   0.926   3.886
  160SAPE  H14Y17903   4.147   0.881   3.827
  160SAPE  C31517904   4.149   0.954   4.025
  160SAPE  H15X17905   4.112   0.859   4.071
  160SAPE  H15Y17906   4.062   1.023   4.028
  160SAPE  C31617907   4.240   1.027   4.132
  160SAPE  H16X17908   4.185   1.046   4.226
  160SAPE  H16Y17909   4.275   1.130   4.110
  160SAPE  C31717910   4.363   0.947   4.184
  160SAPE  H17X17911   4.422   0.929   4.092
  160SAPE  H17Y17912   4.325   0.851   4.225
  160SAPE  C31817913   4.432   1.020   4.294
  160SAPE  H18X17914   4.357   1.056   4.368
  160SAPE  H18Y17915   4.482   1.110   4.251
  160SAPE  H18Z17916   4.508   0.952   4.336
  161SAPE     N17917   2.634   3.902   1.690
  161SAPE   HN117918   2.632   3.994   1.739
  161SAPE   HN217919   2.717   3.845   1.715
  161SAPE   HN317920   2.639   3.927   1.589
  161SAPE   C1217921   2.508   3.837   1.733
  161SAPE  H12A17922   2.506   3.832   1.844
  161SAPE  H12B17923   2.506   3.733   1.694
  161SAPE   C1117924   2.387   3.916   1.685
  161SAPE  H11A17925   2.295   3.855   1.700
  161SAPE  H11B17926   2.391   3.933   1.575
  161SAPE     P17927   2.403   4.162   1.754
  161SAPE   O1317928   2.551   4.155   1.746
  161SAPE   O1417929   2.329   4.212   1.636
  161SAPE   O1217930   2.345   4.023   1.778
  161SAPE   O1117931   2.347   4.242   1.875
  161SAPE    C117932   2.342   4.182   2.002
  161SAPE    HA17933   2.234   4.177   2.030
  161SAPE    HB17934   2.367   4.074   2.009
  161SAPE    C217935   2.434   4.250   2.107
  161SAPE    HS17936   2.533   4.220   2.068
  161SAPE   O2117937   2.397   4.204   2.235
  161SAPE   C2117938   2.507   4.172   2.312
  161SAPE   O2217939   2.625   4.195   2.287
  161SAPE   C2217940   2.451   4.137   2.452
  161SAPE   H2R17941   2.450   4.235   2.505
  161SAPE   H2S17942   2.344   4.112   2.435
  161SAPE    C317943   2.419   4.400   2.103
  161SAPE    HX17944   2.439   4.428   1.997
  161SAPE    HY17945   2.506   4.435   2.162
  161SAPE   O3117946   2.295   4.445   2.152
  161SAPE   C3117947   2.271   4.454   2.282
  161SAPE   O3217948   2.352   4.441   2.373
  161SAPE   C3217949   2.122   4.480   2.303
  161SAPE   H2X17950   2.074   4.420   2.222
  161SAPE   H2Y17951   2.104   4.588   2.290
  161SAPE   C2317952   2.541   4.044   2.539
  161SAPE   H3R17953   2.624   4.095   2.592
  161SAPE   H3S17954   2.580   3.966   2.470
  161SAPE   C2417955   2.444   3.979   2.648
  161SAPE   H4R17956   2.498   3.893   2.693
  161SAPE   H4S17957   2.364   3.924   2.595
  161SAPE   C2517958   2.398   4.073   2.751
  161SAPE   H5R17959   2.322   4.150   2.731
  161SAPE   C2617960   2.451   4.072   2.875
  161SAPE   H6R17961   2.406   4.138   2.951
  161SAPE   C2717962   2.556   3.973   2.930
  161SAPE   H7R17963   2.638   4.017   2.992
  161SAPE   H7S17964   2.613   3.934   2.843
  161SAPE   C2817965   2.495   3.856   3.001
  161SAPE   H8R17966   2.423   3.797   2.942
  161SAPE   C2917967   2.512   3.831   3.134
  161SAPE   H9R17968   2.463   3.746   3.183
  161SAPE  C21017969   2.580   3.916   3.232
  161SAPE  H10R17970   2.638   3.997   3.184
  161SAPE  H10S17971   2.642   3.859   3.305
  161SAPE  C21117972   2.475   3.986   3.309
  161SAPE  H11R17973   2.382   4.020   3.262
  161SAPE  C21217974   2.490   4.014   3.437
  161SAPE  H12R17975   2.404   4.058   3.491
  161SAPE  C21317976   2.609   3.986   3.527
  161SAPE  H13R17977   2.704   4.016   3.478
  161SAPE  H13S17978   2.623   3.878   3.546
  161SAPE  C21417979   2.601   4.067   3.655
  161SAPE  H14R17980   2.578   4.174   3.642
  161SAPE  C21517981   2.585   4.019   3.781
  161SAPE  H15R17982   2.570   4.092   3.862
  161SAPE  C21617983   2.584   3.874   3.824
  161SAPE  H16R17984   2.688   3.872   3.863
  161SAPE  H16S17985   2.582   3.805   3.738
  161SAPE  C21717986   2.476   3.826   3.925
  161SAPE  H17R17987   2.503   3.720   3.944
  161SAPE  H17S17988   2.379   3.821   3.871
  161SAPE  C21817989   2.473   3.887   4.066
  161SAPE  H18R17990   2.376   3.861   4.113
  161SAPE  H18S17991   2.485   3.998   4.066
  161SAPE  C21917992   2.588   3.828   4.151
  161SAPE  H19R17993   2.686   3.841   4.100
  161SAPE  H19S17994   2.588   3.717   4.147
  161SAPE  C22017995   2.599   3.872   4.294
  161SAPE  H20R17996   2.657   3.807   4.363
  161SAPE  H20S17997   2.495   3.876   4.335
  161SAPE  H20T17998   2.640   3.973   4.316
  161SAPE   C3317999   2.068   4.445   2.446
  161SAPE   H3X18000   1.975   4.503   2.465
  161SAPE   H3Y18001   2.147   4.481   2.515
  161SAPE   C3418002   2.047   4.298   2.466
  161SAPE   H4X18003   2.147   4.248   2.465
  161SAPE   H4Y18004   1.992   4.253   2.380
  161SAPE   C3518005   1.970   4.268   2.596
  161SAPE   H5X18006   1.945   4.160   2.605
  161SAPE   H5Y18007   1.871   4.318   2.610
  161SAPE   C3618008   2.045   4.310   2.719
  161SAPE   H6X18009   2.075   4.416   2.724
  161SAPE   H6Y18010   2.131   4.240   2.723
  161SAPE   C3718011   1.973   4.287   2.851
  161SAPE   H7X18012   1.950   4.179   2.858
  161SAPE   H7Y18013   1.874   4.338   2.844
  161SAPE   C3818014   2.057   4.329   2.961
  161SAPE   H8X18015   2.062   4.439   2.947
  161SAPE   H8Y18016   2.156   4.280   2.952
  161SAPE   C3918017   1.996   4.306   3.098
  161SAPE   H9X18018   1.950   4.205   3.099
  161SAPE   H9Y18019   1.911   4.372   3.124
  161SAPE  C31018020   2.109   4.313   3.202
  161SAPE  H10X18021   2.159   4.412   3.188
  161SAPE  H10Y18022   2.184   4.232   3.190
  161SAPE  C31118023   2.058   4.309   3.347
  161SAPE  H11X18024   2.021   4.206   3.365
  161SAPE  H11Y18025   1.971   4.374   3.372
  161SAPE  C31218026   2.165   4.346   3.457
  161SAPE  H12X18027   2.195   4.448   3.426
  161SAPE  H12Y18028   2.248   4.274   3.443
  161SAPE  C31318029   2.114   4.360   3.602
  161SAPE  H13X18030   2.045   4.277   3.630
  161SAPE  H13Y18031   2.053   4.453   3.603
  161SAPE  C31418032   2.225   4.359   3.704
  161SAPE  H14X18033   2.294   4.441   3.676
  161SAPE  H14Y18034   2.286   4.267   3.712
  161SAPE  C31518035   2.178   4.392   3.847
  161SAPE  H15X18036   2.089   4.332   3.878
  161SAPE  H15Y18037   2.125   4.487   3.826
  161SAPE  C31618038   2.282   4.400   3.950
  161SAPE  H16X18039   2.359   4.474   3.918
  161SAPE  H16Y18040   2.328   4.300   3.969
  161SAPE  C31718041   2.240   4.466   4.085
  161SAPE  H17X18042   2.162   4.405   4.135
  161SAPE  H17Y18043   2.186   4.558   4.056
  161SAPE  C31818044   2.355   4.499   4.187
  161SAPE  H18X18045   2.440   4.537   4.127
  161SAPE  H18Y18046   2.384   4.396   4.217
  161SAPE  H18Z18047   2.344   4.568   4.273
  162SAPE     N18048   2.365   6.407   1.772
  162SAPE   HN118049   2.367   6.391   1.875
  162SAPE   HN218050   2.266   6.389   1.744
  162SAPE   HN318051   2.423   6.336   1.724
  162SAPE   C1218052   2.421   6.543   1.744
  162SAPE  H12A18053   2.429   6.542   1.633
  162SAPE  H12B18054   2.523   6.555   1.785
  162SAPE   C1118055   2.333   6.661   1.781
  162SAPE  H11A18056   2.339   6.738   1.701
  162SAPE  H11B18057   2.371   6.709   1.874
  162SAPE     P18058   2.087   6.730   1.833
  162SAPE   O1318059   2.118   6.851   1.751
  162SAPE   O1418060   1.948   6.678   1.844
  162SAPE   O1218061   2.193   6.621   1.796
  162SAPE   O1118062   2.131   6.765   1.982
  162SAPE    C118063   2.172   6.656   2.073
  162SAPE    HA18064   2.123   6.557   2.063
  162SAPE    HB18065   2.279   6.633   2.053
  162SAPE    C218066   2.164   6.691   2.224
  162SAPE    HS18067   2.186   6.597   2.279
  162SAPE   O2118068   2.040   6.745   2.257
  162SAPE   C2118069   1.954   6.661   2.314
  162SAPE   O2218070   1.972   6.541   2.339
  162SAPE   C2218071   1.814   6.730   2.334
  162SAPE   H2R18072   1.816   6.826   2.278
  162SAPE   H2S18073   1.740   6.663   2.284
  162SAPE    C318074   2.278   6.791   2.275
  162SAPE    HX18075   2.275   0.002   2.221
  162SAPE    HY18076   2.373   6.737   2.259
  162SAPE   O3118077   2.256   6.816   2.412
  162SAPE   C3118078   2.360   6.830   2.486
  162SAPE   O3218079   2.474   6.847   2.448
  162SAPE   C3218080   2.315   6.838   2.634
  162SAPE   H2X18081   2.256   6.746   2.655
  162SAPE   H2Y18082   2.265   0.051   2.641
  162SAPE   C2318083   1.777   6.749   2.480
  162SAPE   H3R18084   1.809   6.661   2.541
  162SAPE   H3S18085   1.671   6.780   2.490
  162SAPE   C2418086   1.844   6.877   2.541
  162SAPE   H4R18087   1.807   0.073   2.476
  162SAPE   H4S18088   1.954   6.869   2.528
  162SAPE   C2518089   1.796   0.013   2.686
  162SAPE   H5R18090   1.691   0.040   2.698
  162SAPE   C2618091   1.872   6.880   2.790
  162SAPE   H6R18092   1.831   0.010   2.891
  162SAPE   C2718093   2.019   6.846   2.783
  162SAPE   H7R18094   2.069   0.051   2.745
  162SAPE   H7S18095   2.049   6.765   2.713
  162SAPE   C2818096   2.056   6.818   2.929
  162SAPE   H8R18097   2.105   0.013   2.984
  162SAPE   C2918098   2.062   6.698   2.992
  162SAPE   H9R18099   2.104   6.687   3.093
  162SAPE  C21018100   2.013   6.560   2.945
  162SAPE  H10R18101   1.923   6.563   2.880
  162SAPE  H10S18102   1.977   6.503   3.034
  162SAPE  C21118103   2.124   6.478   2.875
  162SAPE  H11R18104   2.188   6.533   2.806
  162SAPE  C21218105   2.150   6.348   2.888
  162SAPE  H12R18106   2.235   6.307   2.832
  162SAPE  C21318107   2.068   6.248   2.965
  162SAPE  H13R18108   2.055   6.155   2.906
  162SAPE  H13S18109   1.969   6.296   2.983
  162SAPE  C21418110   2.138   6.214   3.090
  162SAPE  H14R18111   2.228   6.153   3.075
  162SAPE  C21518112   2.102   6.247   3.217
  162SAPE  H15R18113   2.169   6.224   3.302
  162SAPE  C21618114   1.980   6.328   3.253
  162SAPE  H16R18115   1.929   6.287   3.343
  162SAPE  H16S18116   1.900   6.335   3.177
  162SAPE  C21718117   2.028   6.469   3.303
  162SAPE  H17R18118   2.070   6.530   3.220
  162SAPE  H17S18119   2.102   6.467   3.385
  162SAPE  C21818120   1.899   6.541   3.361
  162SAPE  H18R18121   1.869   6.475   3.444
  162SAPE  H18S18122   1.813   6.530   3.291
  162SAPE  C21918123   1.922   6.684   3.408
  162SAPE  H19R18124   1.830   6.742   3.383
  162SAPE  H19S18125   1.991   6.738   3.340
  162SAPE  C22018126   1.964   6.711   3.557
  162SAPE  H20R18127   2.051   6.646   3.579
  162SAPE  H20S18128   1.881   6.673   3.620
  162SAPE  H20T18129   1.987   6.816   3.585
  162SAPE   C3318130   2.429   6.830   2.742
  162SAPE   H3X18131   2.393   6.861   2.843
  162SAPE   H3Y18132   2.508   0.016   2.712
  162SAPE   C3418133   2.478   6.687   2.762
  162SAPE   H4X18134   2.525   6.662   2.664
  162SAPE   H4Y18135   2.398   6.615   2.787
  162SAPE   C3518136   2.585   6.654   2.861
  162SAPE   H5X18137   2.674   6.714   2.832
  162SAPE   H5Y18138   2.605   6.545   2.866
  162SAPE   C3618139   2.537   6.685   3.006
  162SAPE   H6X18140   2.511   6.793   3.014
  162SAPE   H6Y18141   2.628   6.675   3.069
  162SAPE   C3718142   2.426   6.594   3.062
  162SAPE   H7X18143   2.447   6.492   3.022
  162SAPE   H7Y18144   2.335   6.631   3.009
  162SAPE   C3818145   2.405   6.594   3.212
  162SAPE   H8X18146   2.504   6.558   3.246
  162SAPE   H8Y18147   2.331   6.513   3.234
  162SAPE   C3918148   2.361   6.720   3.284
  162SAPE   H9X18149   2.275   6.764   3.229
  162SAPE   H9Y18150   2.440   6.797   3.270
  162SAPE  C31018151   2.327   6.696   3.430
  162SAPE  H10X18152   2.239   6.628   3.437
  162SAPE  H10Y18153   2.301   6.794   3.475
  162SAPE  C31118154   2.456   6.642   3.502
  162SAPE  H11X18155   2.545   6.704   3.478
  162SAPE  H11Y18156   2.478   6.538   3.468
  162SAPE  C31218157   2.441   6.644   3.655
  162SAPE  H12X18158   2.365   6.571   3.690
  162SAPE  H12Y18159   2.392   6.740   3.681
  162SAPE  C31318160   2.571   6.609   3.735
  162SAPE  H13X18161   2.627   6.705   3.731
  162SAPE  H13Y18162   2.628   6.521   3.698
  162SAPE  C31418163   2.543   6.579   3.884
  162SAPE  H14X18164   2.471   6.495   3.884
  162SAPE  H14Y18165   2.492   6.659   3.940
  162SAPE  C31518166   2.665   6.543   3.962
  162SAPE  H15X18167   2.708   6.639   3.997
  162SAPE  H15Y18168   2.742   6.491   3.901
  162SAPE  C31618169   2.651   6.465   4.097
  162SAPE  H16X18170   2.751   6.445   4.142
  162SAPE  H16Y18171   2.611   6.366   4.068
  162SAPE  C31718172   2.546   6.514   4.199
  162SAPE  H17X18173   2.444   6.489   4.162
  162SAPE  H17Y18174   2.552   6.625   4.205
  162SAPE  C31818175   2.567   6.456   4.336
  162SAPE  H18X18176   2.675   6.474   4.358
  162SAPE  H18Y18177   2.543   6.348   4.341
  162SAPE  H18Z18178   2.507   6.517   4.407
  163SAPE     N18179   1.731   3.400   1.662
  163SAPE   HN118180   1.730   3.355   1.568
  163SAPE   HN218181   1.826   3.423   1.696
  163SAPE   HN318182   1.702   3.330   1.733
  163SAPE   C1218183   1.631   3.514   1.682
  163SAPE  H12A18184   1.532   3.483   1.642
  163SAPE  H12B18185   1.673   3.597   1.622
  163SAPE   C1118186   1.632   3.564   1.827
  163SAPE  H11A18187   1.737   3.583   1.857
  163SAPE  H11B18188   1.607   3.477   1.892
  163SAPE     P18189   1.411   3.679   1.918
  163SAPE   O1318190   1.369   3.815   1.953
  163SAPE   O1418191   1.316   3.599   1.840
  163SAPE   O1218192   1.556   3.687   1.850
  163SAPE   O1118193   1.438   3.599   2.047
  163SAPE    C118194   1.555   3.620   2.127
  163SAPE    HA18195   1.616   3.531   2.101
  163SAPE    HB18196   1.611   3.711   2.095
  163SAPE    C218197   1.518   3.623   2.279
  163SAPE    HS18198   1.499   3.519   2.314
  163SAPE   O2118199   1.405   3.703   2.302
  163SAPE   C2118200   1.308   3.652   2.367
  163SAPE   O2218201   1.296   3.534   2.399
  163SAPE   C2218202   1.200   3.754   2.400
  163SAPE   H2R18203   1.232   3.825   2.478
  163SAPE   H2S18204   1.190   3.805   2.302
  163SAPE    C318205   1.631   3.680   2.362
  163SAPE    HX18206   1.651   3.787   2.335
  163SAPE    HY18207   1.725   3.623   2.352
  163SAPE   O3118208   1.587   3.673   2.492
  163SAPE   C3118209   1.608   3.557   2.558
  163SAPE   O3218210   1.648   3.456   2.507
  163SAPE   C3218211   1.577   3.577   2.703
  163SAPE   H2X18212   1.511   3.666   2.709
  163SAPE   H2Y18213   1.667   3.590   2.767
  163SAPE   C2318214   1.070   3.676   2.446
  163SAPE   H3R18215   1.095   3.632   2.545
  163SAPE   H3S18216   1.046   3.601   2.368
  163SAPE   C2418217   0.945   3.764   2.464
  163SAPE   H4R18218   0.868   3.694   2.502
  163SAPE   H4S18219   0.913   3.782   2.359
  163SAPE   C2518220   0.966   3.895   2.533
  163SAPE   H5R18221   0.954   3.977   2.460
  163SAPE   C2618222   1.002   3.923   2.660
  163SAPE   H6R18223   1.008   4.026   2.696
  163SAPE   C2718224   1.039   3.823   2.765
  163SAPE   H7R18225   1.050   3.720   2.724
  163SAPE   H7S18226   0.956   3.810   2.838
  163SAPE   C2818227   1.171   3.866   2.825
  163SAPE   H8R18228   1.263   3.842   2.772
  163SAPE   C2918229   1.192   3.909   2.957
  163SAPE   H9R18230   1.296   3.936   2.981
  163SAPE  C21018231   1.085   3.960   3.050
  163SAPE  H10R18232   1.024   3.871   3.077
  163SAPE  H10S18233   1.022   4.032   2.994
  163SAPE  C21118234   1.144   4.025   3.168
  163SAPE  H11R18235   1.193   4.121   3.145
  163SAPE  C21218236   1.142   3.998   3.297
  163SAPE  H12R18237   1.176   4.073   3.369
  163SAPE  C21318238   1.077   3.880   3.366
  163SAPE  H13R18239   1.083   3.789   3.302
  163SAPE  H13S18240   0.973   3.919   3.362
  163SAPE  C21418241   1.138   3.856   3.503
  163SAPE  H14R18242   1.220   3.782   3.496
  163SAPE  C21518243   1.091   3.919   3.616
  163SAPE  H15R18244   1.141   3.917   3.714
  163SAPE  C21618245   0.972   4.008   3.623
  163SAPE  H16R18246   0.881   3.956   3.584
  163SAPE  H16S18247   0.988   4.093   3.553
  163SAPE  C21718248   0.953   4.059   3.772
  163SAPE  H17R18249   1.044   4.114   3.803
  163SAPE  H17S18250   0.954   3.967   3.835
  163SAPE  C21818251   0.830   4.158   3.791
  163SAPE  H18R18252   0.740   4.092   3.795
  163SAPE  H18S18253   0.820   4.210   3.693
  163SAPE  C21918254   0.854   4.245   3.913
  163SAPE  H19R18255   0.926   4.325   3.886
  163SAPE  H19S18256   0.909   4.187   3.990
  163SAPE  C22018257   0.738   4.313   3.982
  163SAPE  H20R18258   0.792   4.369   4.061
  163SAPE  H20S18259   0.669   4.237   4.026
  163SAPE  H20T18260   0.674   4.384   3.925
  163SAPE   C3318261   1.506   3.456   2.761
  163SAPE   H3X18262   1.583   3.377   2.772
  163SAPE   H3Y18263   1.429   3.418   2.691
  163SAPE   C3418264   1.446   3.479   2.903
  163SAPE   H4X18265   1.356   3.542   2.887
  163SAPE   H4Y18266   1.521   3.531   2.966
  163SAPE   C3518267   1.408   3.349   2.963
  163SAPE   H5X18268   1.503   3.295   2.979
  163SAPE   H5Y18269   1.352   3.294   2.883
  163SAPE   C3618270   1.339   3.356   3.096
  163SAPE   H6X18271   1.311   3.261   3.146
  163SAPE   H6Y18272   1.240   3.407   3.094
  163SAPE   C3718273   1.432   3.430   3.197
  163SAPE   H7X18274   1.431   3.539   3.175
  163SAPE   H7Y18275   1.539   3.404   3.182
  163SAPE   C3818276   1.394   3.415   3.344
  163SAPE   H8X18277   1.469   3.465   3.408
  163SAPE   H8Y18278   1.395   3.308   3.375
  163SAPE   C3918279   1.263   3.472   3.397
  163SAPE   H9X18280   1.188   3.395   3.368
  163SAPE   H9Y18281   1.240   3.574   3.359
  163SAPE  C31018282   1.261   3.488   3.560
  163SAPE  H10X18283   1.174   3.553   3.583
  163SAPE  H10Y18284   1.343   3.553   3.597
  163SAPE  C31118285   1.259   3.357   3.638
  163SAPE  H11X18286   1.339   3.303   3.585
  163SAPE  H11Y18287   1.166   3.297   3.633
  163SAPE  C31218288   1.282   3.377   3.793
  163SAPE  H12X18289   1.269   3.287   3.858
  163SAPE  H12Y18290   1.208   3.451   3.829
  163SAPE  C31318291   1.423   3.422   3.836
  163SAPE  H13X18292   1.430   3.532   3.822
  163SAPE  H13Y18293   1.492   3.374   3.764
  163SAPE  C31418294   1.456   3.375   3.981
  163SAPE  H14X18295   1.565   3.384   3.996
  163SAPE  H14Y18296   1.423   3.269   3.985
  163SAPE  C31518297   1.388   3.461   4.095
  163SAPE  H15X18298   1.385   3.402   4.189
  163SAPE  H15Y18299   1.279   3.468   4.073
  163SAPE  C31618300   1.457   3.599   4.108
  163SAPE  H16X18301   1.430   3.667   4.025
  163SAPE  H16Y18302   1.565   3.576   4.097
  163SAPE  C31718303   1.426   3.667   4.244
  163SAPE  H17X18304   1.316   3.676   4.259
  163SAPE  H17Y18305   1.476   3.766   4.251
  163SAPE  C31818306   1.477   3.589   4.366
  163SAPE  H18X18307   1.449   3.643   4.459
  163SAPE  H18Y18308   1.585   3.568   4.352
  163SAPE  H18Z18309   1.427   3.490   4.369
  164SAPE     N18310   6.158   3.732   1.984
  164SAPE   HN118311   6.080   3.670   1.954
  164SAPE   HN218312   6.154   3.796   1.902
  164SAPE   HN318313   6.251   3.685   1.987
  164SAPE   C1218314   6.131   3.781   2.124
  164SAPE  H12A18315   6.187   3.714   2.193
  164SAPE  H12B18316   6.020   3.776   2.132
  164SAPE   C1118317   6.187   3.923   2.162
  164SAPE  H11A18318   6.284   3.913   2.215
  164SAPE  H11B18319   6.126   3.982   2.233
  164SAPE     P18320   6.308   4.123   2.038
  164SAPE   O1318321   6.428   4.059   1.981
  164SAPE   O1418322   6.242   4.232   1.967
  164SAPE   O1218323   6.204   4.006   2.050
  164SAPE   O1118324   6.330   4.155   2.193
  164SAPE    C118325   6.231   4.243   2.250
  164SAPE    HA18326   6.131   4.256   2.204
  164SAPE    HB18327   6.209   4.186   2.343
  164SAPE    C218328   6.275   4.386   2.295
  164SAPE    HS18329   6.307   4.450   2.210
  164SAPE   O2118330   6.379   4.373   2.390
  164SAPE   C2118331   6.509   4.359   2.330
  164SAPE   O2218332   6.538   4.355   2.218
  164SAPE   C2218333   6.607   4.336   2.446
  164SAPE   H2R18334   6.609   4.428   2.508
  164SAPE   H2S18335   6.565   4.261   2.517
  164SAPE    C318336   6.163   4.463   2.366
  164SAPE    HX18337   6.080   4.467   2.293
  164SAPE    HY18338   6.185   4.572   2.378
  164SAPE   O3118339   6.110   4.410   2.489
  164SAPE   C3118340   6.181   4.450   2.591
  164SAPE   O3218341   6.276   4.534   2.579
  164SAPE   C3218342   6.137   4.382   2.721
  164SAPE   H2X18343   6.162   4.274   2.716
  164SAPE   H2Y18344   6.026   4.396   2.716
  164SAPE   C2318345   6.754   4.314   2.399
  164SAPE   H3R18346   6.791   4.390   2.327
  164SAPE   H3S18347   6.753   4.218   2.343
  164SAPE   C2418348   6.854   4.275   2.505
  164SAPE   H4R18349   0.056   4.232   2.452
  164SAPE   H4S18350   6.816   4.195   2.571
  164SAPE   C2518351   0.015   4.406   2.579
  164SAPE   H5R18352   0.071   4.472   2.511
  164SAPE   C2618353   6.868   4.448   2.707
  164SAPE   H6R18354   0.026   4.541   2.746
  164SAPE   C2718355   6.780   4.382   2.807
  164SAPE   H7R18356   6.819   4.385   2.911
  164SAPE   H7S18357   6.756   4.277   2.778
  164SAPE   C2818358   6.653   4.456   2.811
  164SAPE   H8R18359   6.599   4.454   2.715
  164SAPE   C2918360   6.596   4.521   2.912
  164SAPE   H9R18361   6.502   4.573   2.885
  164SAPE  C21018362   6.635   4.564   3.049
  164SAPE  H10R18363   6.740   4.533   3.071
  164SAPE  H10S18364   6.565   4.514   3.119
  164SAPE  C21118365   6.632   4.711   3.067
  164SAPE  H11R18366   6.655   4.763   2.973
  164SAPE  C21218367   6.620   4.778   3.186
  164SAPE  H12R18368   6.628   4.888   3.182
  164SAPE  C21318369   6.601   4.723   3.333
  164SAPE  H13R18370   6.601   4.612   3.332
  164SAPE  H13S18371   6.498   4.759   3.356
  164SAPE  C21418372   6.692   4.776   3.437
  164SAPE  H14R18373   6.797   4.747   3.420
  164SAPE  C21518374   6.661   4.815   3.568
  164SAPE  H15R18375   6.749   4.842   3.629
  164SAPE  C21618376   6.524   4.837   3.624
  164SAPE  H16R18377   6.469   4.743   3.648
  164SAPE  H16S18378   6.463   4.895   3.552
  164SAPE  C21718379   6.553   4.920   3.750
  164SAPE  H17R18380   6.620   5.005   3.726
  164SAPE  H17S18381   6.622   4.859   3.813
  164SAPE  C21818382   6.426   4.971   3.821
  164SAPE  H18R18383   6.355   4.891   3.850
  164SAPE  H18S18384   6.381   5.045   3.752
  164SAPE  C21918385   6.455   5.061   3.946
  164SAPE  H19R18386   6.354   5.093   3.979
  164SAPE  H19S18387   6.522   5.146   3.923
  164SAPE  C22018388   6.521   4.978   4.059
  164SAPE  H20R18389   6.463   4.884   4.066
  164SAPE  H20S18390   6.533   5.026   4.158
  164SAPE  H20T18391   6.628   4.969   4.029
  164SAPE   C3318392   6.213   4.446   2.841
  164SAPE   H3X18393   6.163   4.545   2.852
  164SAPE   H3Y18394   6.320   4.453   2.813
  164SAPE   C3418395   6.183   4.386   2.979
  164SAPE   H4X18396   6.200   4.278   2.959
  164SAPE   H4Y18397   6.077   4.406   3.005
  164SAPE   C3518398   6.285   4.430   3.091
  164SAPE   H5X18399   6.312   4.537   3.079
  164SAPE   H5Y18400   6.380   4.385   3.053
  164SAPE   C3618401   6.246   4.368   3.225
  164SAPE   H6X18402   6.335   4.392   3.287
  164SAPE   H6Y18403   6.239   4.257   3.222
  164SAPE   C3718404   6.128   4.435   3.295
  164SAPE   H7X18405   6.038   4.393   3.245
  164SAPE   H7Y18406   6.134   4.545   3.281
  164SAPE   C3818407   6.121   4.418   3.450
  164SAPE   H8X18408   6.153   4.313   3.466
  164SAPE   H8Y18409   6.019   4.425   3.492
  164SAPE   C3918410   6.215   4.511   3.527
  164SAPE   H9X18411   6.173   4.614   3.526
  164SAPE   H9Y18412   6.319   4.511   3.489
  164SAPE  C31018413   6.225   4.474   3.676
  164SAPE  H10X18414   6.313   4.519   3.727
  164SAPE  H10Y18415   6.241   4.365   3.684
  164SAPE  C31118416   6.110   4.518   3.769
  164SAPE  H11X18417   6.010   4.494   3.729
  164SAPE  H11Y18418   6.117   4.629   3.761
  164SAPE  C31218419   6.136   4.466   3.918
  164SAPE  H12X18420   6.238   4.495   3.953
  164SAPE  H12Y18421   6.127   4.355   3.916
  164SAPE  C31318422   6.031   4.510   4.019
  164SAPE  H13X18423   6.028   4.438   4.104
  164SAPE  H13Y18424   5.930   4.515   3.974
  164SAPE  C31418425   6.067   4.651   4.073
  164SAPE  H14X18426   6.114   4.706   3.989
  164SAPE  H14Y18427   6.144   4.628   4.149
  164SAPE  C31518428   5.950   4.732   4.129
  164SAPE  H15X18429   5.888   4.667   4.195
  164SAPE  H15Y18430   5.888   4.767   4.044
  164SAPE  C31618431   6.003   4.843   4.216
  164SAPE  H16X18432   6.039   4.929   4.154
  164SAPE  H16Y18433   6.096   4.820   4.270
  164SAPE  C31718434   5.896   4.894   4.324
  164SAPE  H17X18435   5.939   4.963   4.400
  164SAPE  H17Y18436   5.855   4.802   4.371
  164SAPE  C31818437   5.779   4.968   4.254
  164SAPE  H18X18438   5.706   5.013   4.325
  164SAPE  H18Y18439   5.720   4.906   4.183
  164SAPE  H18Z18440   5.827   5.054   4.203
  165SAPE     N18441   5.520   0.060   2.221
  165SAPE   HN118442   5.434   0.004   2.204
  165SAPE   HN218443   5.491   0.151   2.178
  165SAPE   HN318444   5.598   0.020   2.165
  165SAPE   C1218445   5.567   0.061   2.365
  165SAPE  H12A18446   5.625   0.156   2.369
  165SAPE  H12B18447   5.631   6.857   2.378
  165SAPE   C1118448   5.449   0.071   2.461
  165SAPE  H11A18449   5.401   0.170   2.449
  165SAPE  H11B18450   5.497   0.075   2.562
  165SAPE     P18451   5.346   6.734   2.531
  165SAPE   O1318452   5.208   6.672   2.523
  165SAPE   O1418453   5.463   6.650   2.493
  165SAPE   O1218454   5.351   6.855   2.439
  165SAPE   O1118455   5.367   6.788   2.678
  165SAPE    C118456   5.254   6.818   2.753
  165SAPE    HA18457   5.174   6.742   2.745
  165SAPE    HB18458   5.294   6.822   2.856
  165SAPE    C218459   5.189   0.070   2.722
  165SAPE    HS18460   5.163   0.087   2.615
  165SAPE   O2118461   5.287   0.164   2.777
  165SAPE   C2118462   5.274   0.284   2.728
  165SAPE   O2218463   5.206   0.315   2.631
  165SAPE   C2218464   5.354   0.381   2.802
  165SAPE   H2R18465   5.309   0.410   2.899
  165SAPE   H2S18466   5.446   0.327   2.830
  165SAPE    C318467   5.057   0.085   2.808
  165SAPE    HX18468   4.982   0.017   2.761
  165SAPE    HY18469   5.006   0.183   2.794
  165SAPE   O3118470   5.073   0.044   2.950
  165SAPE   C3118471   5.082   0.142   3.031
  165SAPE   O3218472   5.082   0.260   3.001
  165SAPE   C3218473   5.118   0.083   3.170
  165SAPE   H2X18474   5.025   0.071   3.230
  165SAPE   H2Y18475   5.186   0.161   3.208
  165SAPE   C2318476   5.393   0.502   2.712
  165SAPE   H3R18477   5.304   0.567   2.698
  165SAPE   H3S18478   5.424   0.476   2.608
  165SAPE   C2418479   5.497   0.591   2.774
  165SAPE   H4R18480   5.482   0.605   2.884
  165SAPE   H4S18481   5.476   0.695   2.740
  165SAPE   C2518482   5.639   0.543   2.738
  165SAPE   H5R18483   5.675   0.575   2.638
  165SAPE   C2618484   5.722   0.477   2.821
  165SAPE   H6R18485   5.827   0.464   2.790
  165SAPE   C2718486   5.699   0.442   2.973
  165SAPE   H7R18487   5.591   0.450   2.997
  165SAPE   H7S18488   5.762   0.513   3.029
  165SAPE   C2818489   5.739   0.303   3.004
  165SAPE   H8R18490   5.759   0.238   2.917
  165SAPE   C2918491   5.735   0.249   3.121
  165SAPE   H9R18492   5.775   0.148   3.135
  165SAPE  C21018493   5.697   0.332   3.244
  165SAPE  H10R18494   5.586   0.338   3.239
  165SAPE  H10S18495   5.733   0.437   3.240
  165SAPE  C21118496   5.749   0.275   3.379
  165SAPE  H11R18497   5.853   0.241   3.368
  165SAPE  C21218498   5.692   0.276   3.500
  165SAPE  H12R18499   5.744   0.221   3.581
  165SAPE  C21318500   5.558   0.339   3.530
  165SAPE  H13R18501   5.523   0.390   3.438
  165SAPE  H13S18502   5.583   0.417   3.605
  165SAPE  C21418503   5.471   0.232   3.574
  165SAPE  H14R18504   5.460   0.155   3.496
  165SAPE  C21518505   5.417   0.208   3.695
  165SAPE  H15R18506   5.353   0.121   3.712
  165SAPE  C21618507   5.426   0.303   3.815
  165SAPE  H16R18508   5.383   0.404   3.797
  165SAPE  H16S18509   5.534   0.317   3.835
  165SAPE  C21718510   5.362   0.255   3.950
  165SAPE  H17R18511   5.253   0.251   3.933
  165SAPE  H17S18512   5.395   0.330   4.026
  165SAPE  C21818513   5.419   0.118   4.002
  165SAPE  H18R18514   5.528   0.130   4.018
  165SAPE  H18S18515   5.401   0.047   3.918
  165SAPE  C21918516   5.357   0.065   4.129
  165SAPE  H19R18517   5.247   0.048   4.125
  165SAPE  H19S18518   5.391   0.122   4.219
  165SAPE  C22018519   5.408   6.811   4.151
  165SAPE  H20R18520   5.359   6.755   4.233
  165SAPE  H20S18521   5.516   6.794   4.172
  165SAPE  H20T18522   5.376   6.759   4.058
  165SAPE   C3318523   5.199   6.839   3.176
  165SAPE   H3X18524   5.283   6.851   3.105
  165SAPE   H3Y18525   5.145   6.749   3.141
  165SAPE   C3418526   5.242   6.799   3.322
  165SAPE   H4X18527   5.323   6.871   3.345
  165SAPE   H4Y18528   5.285   6.696   3.326
  165SAPE   C3518529   5.140   6.813   3.439
  165SAPE   H5X18530   5.054   6.751   3.406
  165SAPE   H5Y18531   5.103   0.030   3.456
  165SAPE   C3618532   5.175   6.752   3.576
  165SAPE   H6X18533   5.275   6.789   3.606
  165SAPE   H6Y18534   5.182   6.641   3.565
  165SAPE   C3718535   5.073   6.765   3.695
  165SAPE   H7X18536   4.991   6.694   3.671
  165SAPE   H7Y18537   5.032   6.868   3.693
  165SAPE   C3818538   5.146   6.727   3.822
  165SAPE   H8X18539   5.225   6.801   3.849
  165SAPE   H8Y18540   5.200   6.633   3.798
  165SAPE   C3918541   5.042   6.692   3.924
  165SAPE   H9X18542   5.100   6.650   4.009
  165SAPE   H9Y18543   4.978   6.610   3.885
  165SAPE  C31018544   4.958   6.813   3.972
  165SAPE  H10X18545   4.895   6.843   3.885
  165SAPE  H10Y18546   5.027   0.011   3.994
  165SAPE  C31118547   4.863   6.779   4.087
  165SAPE  H11X18548   4.907   6.707   4.160
  165SAPE  H11Y18549   4.779   6.726   4.037
  165SAPE  C31218550   4.818   0.015   4.163
  165SAPE  H12X18551   4.787   0.088   4.085
  165SAPE  H12Y18552   4.904   0.059   4.217
  165SAPE  C31318553   4.688   6.872   4.243
  165SAPE  H13X18554   4.623   6.809   4.180
  165SAPE  H13Y18555   4.632   0.080   4.256
  165SAPE  C31418556   4.705   6.802   4.376
  165SAPE  H14X18557   4.782   6.855   4.435
  165SAPE  H14Y18558   4.737   6.697   4.355
  165SAPE  C31518559   4.574   6.801   4.451
  165SAPE  H15X18560   4.494   6.761   4.386
  165SAPE  H15Y18561   4.534   0.014   4.482
  165SAPE  C31618562   4.573   6.705   4.582
  165SAPE  H16X18563   4.614   6.611   4.540
  165SAPE  H16Y18564   4.466   6.687   4.608
  165SAPE  C31718565   4.650   6.750   4.708
  165SAPE  H17X18566   4.618   6.855   4.724
  165SAPE  H17Y18567   4.760   6.760   4.700
  165SAPE  C31818568   4.628   6.662   4.838
  165SAPE  H18X18569   4.518   6.645   4.850
  165SAPE  H18Y18570   4.660   6.713   4.932
  165SAPE  H18Z18571   4.676   6.564   4.818
  166SAPE     N18572   0.330   5.448   2.126
  166SAPE   HN118573   0.279   5.430   2.037
  166SAPE   HN218574   0.424   5.403   2.127
  166SAPE   HN318575   0.275   5.418   2.209
  166SAPE   C1218576   0.358   5.592   2.165
  166SAPE  H12A18577   0.431   5.634   2.091
  166SAPE  H12B18578   0.410   5.588   2.263
  166SAPE   C1118579   0.236   5.681   2.178
  166SAPE  H11A18580   0.257   5.784   2.214
  166SAPE  H11B18581   0.176   5.630   2.256
  166SAPE     P18582   0.083   5.792   1.990
  166SAPE   O1318583   0.187   5.860   1.915
  166SAPE   O1418584   6.855   5.731   1.914
  166SAPE   O1218585   0.150   5.673   2.066
  166SAPE   O1118586   0.026   5.892   2.103
  166SAPE    C118587   6.782   5.866   2.154
  166SAPE    HA18588   6.708   5.918   2.089
  166SAPE    HB18589   6.755   5.758   2.150
  166SAPE    C218590   6.755   5.906   2.300
  166SAPE    HS18591   6.773   6.015   2.310
  166SAPE   O2118592   6.854   5.836   2.369
  166SAPE   C2118593   6.872   5.882   2.492
  166SAPE   O2218594   6.808   5.973   2.537
  166SAPE   C2218595   0.126   5.836   2.538
  166SAPE   H2R18596   0.111   5.759   2.617
  166SAPE   H2S18597   0.174   5.792   2.448
  166SAPE    C318598   6.607   5.882   2.342
  166SAPE    HX18599   6.554   5.934   2.259
  166SAPE    HY18600   6.588   5.929   2.440
  166SAPE   O3118601   6.578   5.746   2.353
  166SAPE   C3118602   6.450   5.724   2.375
  166SAPE   O3218603   6.360   5.807   2.371
  166SAPE   C3218604   6.423   5.576   2.402
  166SAPE   H2X18605   6.520   5.524   2.416
  166SAPE   H2Y18606   6.399   5.539   2.300
  166SAPE   C2318607   0.215   5.951   2.602
  166SAPE   H3R18608   0.161   5.993   2.689
  166SAPE   H3S18609   0.238   6.029   2.526
  166SAPE   C2418610   0.350   5.888   2.651
  166SAPE   H4R18611   0.413   5.976   2.677
  166SAPE   H4S18612   0.398   5.835   2.566
  166SAPE   C2518613   0.315   5.791   2.760
  166SAPE   H5R18614   0.289   5.690   2.725
  166SAPE   C2618615   0.275   5.807   2.890
  166SAPE   H6R18616   0.260   5.715   2.949
  166SAPE   C2718617   0.262   5.944   2.950
  166SAPE   H7R18618   0.155   5.970   2.963
  166SAPE   H7S18619   0.292   6.034   2.891
  166SAPE   C2818620   0.339   5.940   3.080
  166SAPE   H8R18621   0.440   5.984   3.079
  166SAPE   C2918622   0.280   5.907   3.195
  166SAPE   H9R18623   0.350   5.890   3.278
  166SAPE  C21018624   0.129   5.863   3.212
  166SAPE  H10R18625   0.130   5.756   3.241
  166SAPE  H10S18626   0.078   5.867   3.114
  166SAPE  C21118627   0.061   5.951   3.313
  166SAPE  H11R18628   0.123   5.958   3.404
  166SAPE  C21218629   6.831   6.023   3.311
  166SAPE  H12R18630   6.799   6.081   3.399
  166SAPE  C21318631   6.735   6.039   3.189
  166SAPE  H13R18632   6.760   5.966   3.109
  166SAPE  H13S18633   6.757   6.144   3.160
  166SAPE  C21418634   6.587   6.032   3.226
  166SAPE  H14R18635   6.553   6.052   3.328
  166SAPE  C21518636   6.483   6.005   3.143
  166SAPE  H15R18637   6.381   6.003   3.182
  166SAPE  C21618638   6.498   5.979   2.995
  166SAPE  H16R18639   6.416   5.923   2.947
  166SAPE  H16S18640   6.594   5.931   2.965
  166SAPE  C21718641   6.490   6.113   2.916
  166SAPE  H17R18642   6.563   6.185   2.960
  166SAPE  H17S18643   6.390   6.156   2.936
  166SAPE  C21818644   6.526   6.098   2.765
  166SAPE  H18R18645   6.633   6.066   2.762
  166SAPE  H18S18646   6.518   6.190   2.704
  166SAPE  C21918647   6.451   5.984   2.695
  166SAPE  H19R18648   6.479   5.886   2.738
  166SAPE  H19S18649   6.488   5.970   2.591
  166SAPE  C22018650   6.302   6.005   2.681
  166SAPE  H20R18651   6.240   6.003   2.773
  166SAPE  H20S18652   6.254   5.928   2.617
  166SAPE  H20T18653   6.286   6.098   2.622
  166SAPE   C3318654   6.323   5.549   2.510
  166SAPE   H3X18655   6.314   5.438   2.512
  166SAPE   H3Y18656   6.223   5.595   2.491
  166SAPE   C3418657   6.373   5.596   2.649
  166SAPE   H4X18658   6.379   5.707   2.641
  166SAPE   H4Y18659   6.478   5.566   2.667
  166SAPE   C3518660   6.276   5.565   2.772
  166SAPE   H5X18661   6.292   5.463   2.813
  166SAPE   H5Y18662   6.168   5.582   2.752
  166SAPE   C3618663   6.315   5.656   2.881
  166SAPE   H6X18664   6.266   5.755   2.868
  166SAPE   H6Y18665   6.426   5.659   2.885
  166SAPE   C3718666   6.257   5.605   3.018
  166SAPE   H7X18667   6.313   5.515   3.051
  166SAPE   H7Y18668   6.157   5.564   2.992
  166SAPE   C3818669   6.254   5.708   3.122
  166SAPE   H8X18670   6.228   5.813   3.098
  166SAPE   H8Y18671   6.360   5.727   3.148
  166SAPE   C3918672   6.186   5.669   3.252
  166SAPE   H9X18673   6.234   5.577   3.291
  166SAPE   H9Y18674   6.076   5.661   3.259
  166SAPE  C31018675   6.220   5.780   3.360
  166SAPE  H10X18676   6.147   5.860   3.340
  166SAPE  H10Y18677   6.327   5.805   3.345
  166SAPE  C31118678   6.213   5.726   3.506
  166SAPE  H11X18679   6.291   5.650   3.530
  166SAPE  H11Y18680   6.117   5.680   3.536
  166SAPE  C31218681   6.244   5.833   3.611
  166SAPE  H12X18682   6.202   5.934   3.594
  166SAPE  H12Y18683   6.353   5.852   3.619
  166SAPE  C31318684   6.206   5.806   3.761
  166SAPE  H13X18685   6.250   5.708   3.788
  166SAPE  H13Y18686   6.097   5.787   3.751
  166SAPE  C31418687   6.243   5.919   3.858
  166SAPE  H14X18688   6.205   5.913   3.962
  166SAPE  H14Y18689   6.183   6.006   3.824
  166SAPE  C31518690   6.388   5.943   3.863
  166SAPE  H15X18691   6.418   5.974   3.760
  166SAPE  H15Y18692   6.445   5.848   3.878
  166SAPE  C31618693   6.430   6.036   3.975
  166SAPE  H16X18694   6.378   6.011   4.069
  166SAPE  H16Y18695   6.408   6.143   3.954
  166SAPE  C31718696   6.579   6.032   4.002
  166SAPE  H17X18697   6.605   5.926   4.020
  166SAPE  H17Y18698   6.595   6.085   4.099
  166SAPE  C31818699   6.667   6.089   3.897
  166SAPE  H18X18700   6.768   6.047   3.913
  166SAPE  H18Y18701   6.663   6.200   3.896
  166SAPE  H18Z18702   6.642   6.049   3.797
  167SAPE     N18703   6.092   3.230   2.157
  167SAPE   HN118704   6.074   3.320   2.108
  167SAPE   HN218705   6.068   3.142   2.106
  167SAPE   HN318706   6.035   3.232   2.244
  167SAPE   C1218707   6.231   3.204   2.215
  167SAPE  H12A18708   6.288   3.145   2.140
  167SAPE  H12B18709   6.223   3.163   2.317
  167SAPE   C1118710   6.311   3.335   2.233
  167SAPE  H11A18711   6.403   3.302   2.285
  167SAPE  H11B18712   6.248   3.402   2.296
  167SAPE     P18713   6.448   3.500   2.104
  167SAPE   O1318714   6.566   3.434   2.042
  167SAPE   O1418715   6.400   3.623   2.043
  167SAPE   O1218716   6.330   3.396   2.106
  167SAPE   O1118717   6.478   3.531   2.253
  167SAPE    C118718   6.480   3.664   2.313
  167SAPE    HA18719   6.571   3.719   2.282
  167SAPE    HB18720   6.394   3.729   2.282
  167SAPE    C218721   6.485   3.643   2.469
  167SAPE    HS18722   6.391   3.593   2.501
  167SAPE   O2118723   6.512   3.771   2.531
  167SAPE   C2118724   6.406   3.850   2.532
  167SAPE   O2218725   6.291   3.817   2.502
  167SAPE   C2218726   6.425   3.996   2.572
  167SAPE   H2R18727   6.532   4.014   2.595
  167SAPE   H2S18728   6.377   4.055   2.490
  167SAPE    C318729   6.603   3.551   2.501
  167SAPE    HX18730   6.698   3.594   2.464
  167SAPE    HY18731   6.603   3.458   2.440
  167SAPE   O3118732   6.624   3.529   2.642
  167SAPE   C3118733   6.575   3.417   2.691
  167SAPE   O3218734   6.511   3.331   2.628
  167SAPE   C3218735   6.623   3.402   2.829
  167SAPE   H2X18736   6.623   3.494   2.892
  167SAPE   H2Y18737   6.732   3.378   2.821
  167SAPE   C2318738   6.340   4.034   2.698
  167SAPE   H3R18739   6.231   4.025   2.678
  167SAPE   H3S18740   6.363   4.142   2.712
  167SAPE   C2418741   6.371   3.940   2.818
  167SAPE   H4R18742   6.335   3.835   2.808
  167SAPE   H4S18743   6.305   3.968   2.902
  167SAPE   C2518744   6.517   3.941   2.853
  167SAPE   H5R18745   6.573   3.869   2.791
  167SAPE   C2618746   6.571   4.031   2.941
  167SAPE   H6R18747   6.676   4.016   2.969
  167SAPE   C2718748   6.497   4.127   3.028
  167SAPE   H7R18749   6.415   4.081   3.087
  167SAPE   H7S18750   6.450   4.207   2.966
  167SAPE   C2818751   6.603   4.188   3.116
  167SAPE   H8R18752   6.678   4.226   3.044
  167SAPE   C2918753   6.606   4.216   3.250
  167SAPE   H9R18754   6.696   4.264   3.293
  167SAPE  C21018755   6.515   4.164   3.354
  167SAPE  H10R18756   6.565   4.070   3.384
  167SAPE  H10S18757   6.415   4.135   3.315
  167SAPE  C21118758   6.497   4.243   3.476
  167SAPE  H11R18759   6.497   4.353   3.468
  167SAPE  C21218760   6.463   4.195   3.598
  167SAPE  H12R18761   6.452   4.268   3.678
  167SAPE  C21318762   6.432   4.051   3.632
  167SAPE  H13R18763   6.520   4.018   3.691
  167SAPE  H13S18764   6.425   3.990   3.539
  167SAPE  C21418765   6.321   4.026   3.729
  167SAPE  H14R18766   6.223   4.004   3.684
  167SAPE  C21518767   6.327   4.044   3.862
  167SAPE  H15R18768   6.250   3.992   3.920
  167SAPE  C21618769   6.450   4.085   3.940
  167SAPE  H16R18770   6.421   4.180   3.990
  167SAPE  H16S18771   6.536   4.110   3.875
  167SAPE  C21718772   6.493   3.972   4.043
  167SAPE  H17R18773   6.521   3.878   3.992
  167SAPE  H17S18774   6.409   3.949   4.112
  167SAPE  C21818775   6.617   4.004   4.127
  167SAPE  H18R18776   6.628   3.921   4.200
  167SAPE  H18S18777   6.595   4.092   4.191
  167SAPE  C21918778   6.739   4.021   4.043
  167SAPE  H19R18779   6.751   4.119   3.992
  167SAPE  H19S18780   6.732   3.946   3.961
  167SAPE  C22018781   6.864   4.002   4.130
  167SAPE  H20R18782   6.848   4.033   4.235
  167SAPE  H20S18783   0.049   4.070   4.079
  167SAPE  H20T18784   0.026   3.901   4.133
  167SAPE   C3318785   6.541   3.289   2.900
  167SAPE   H3X18786   6.537   3.197   2.838
  167SAPE   H3Y18787   6.436   3.321   2.917
  167SAPE   C3418788   6.605   3.259   3.038
  167SAPE   H4X18789   6.582   3.341   3.110
  167SAPE   H4Y18790   6.716   3.253   3.037
  167SAPE   C3518791   6.572   3.121   3.097
  167SAPE   H5X18792   6.637   3.108   3.186
  167SAPE   H5Y18793   6.587   3.036   3.028
  167SAPE   C3618794   6.426   3.123   3.146
  167SAPE   H6X18795   6.360   3.125   3.056
  167SAPE   H6Y18796   6.397   3.221   3.189
  167SAPE   C3718797   6.375   3.005   3.232
  167SAPE   H7X18798   6.381   2.908   3.179
  167SAPE   H7Y18799   6.268   3.020   3.257
  167SAPE   C3818800   6.452   2.997   3.360
  167SAPE   H8X18801   6.440   3.094   3.414
  167SAPE   H8Y18802   6.559   2.975   3.336
  167SAPE   C3918803   6.404   2.885   3.455
  167SAPE   H9X18804   6.423   2.790   3.400
  167SAPE   H9Y18805   6.296   2.895   3.479
  167SAPE  C31018806   6.484   2.862   3.583
  167SAPE  H10X18807   6.591   2.884   3.565
  167SAPE  H10Y18808   6.480   2.756   3.615
  167SAPE  C31118809   6.429   2.957   3.703
  167SAPE  H11X18810   6.319   2.941   3.707
  167SAPE  H11Y18811   6.442   3.063   3.675
  167SAPE  C31218812   6.491   2.936   3.842
  167SAPE  H12X18813   6.602   2.937   3.831
  167SAPE  H12Y18814   6.465   2.840   3.891
  167SAPE  C31318815   6.465   3.050   3.940
  167SAPE  H13X18816   6.480   3.142   3.879
  167SAPE  H13Y18817   6.539   3.049   4.024
  167SAPE  C31418818   6.328   3.047   4.001
  167SAPE  H14X18819   6.313   2.950   4.052
  167SAPE  H14Y18820   6.253   3.060   3.920
  167SAPE  C31518821   6.296   3.149   4.105
  167SAPE  H15X18822   6.243   3.236   4.063
  167SAPE  H15Y18823   6.385   3.181   4.163
  167SAPE  C31618824   6.200   3.099   4.209
  167SAPE  H16X18825   6.123   3.039   4.157
  167SAPE  H16Y18826   6.162   3.187   4.265
  167SAPE  C31718827   6.255   3.012   4.318
  167SAPE  H17X18828   6.315   3.076   4.385
  167SAPE  H17Y18829   6.319   2.930   4.277
  167SAPE  C31818830   6.141   2.948   4.398
  167SAPE  H18X18831   6.164   2.906   4.498
  167SAPE  H18Y18832   6.100   2.863   4.340
  167SAPE  H18Z18833   6.064   3.026   4.418
  168SAPE     N18834   2.729   5.089   1.998
  168SAPE   HN118835   2.743   5.143   1.910
  168SAPE   HN218836   2.782   5.134   2.076
  168SAPE   HN318837   2.765   4.992   1.991
  168SAPE   C1218838   2.588   5.104   2.037
  168SAPE  H12A18839   2.532   5.012   2.011
  168SAPE  H12B18840   2.558   5.188   1.971
  168SAPE   C1118841   2.577   5.140   2.182
  168SAPE  H11A18842   2.623   5.073   2.259
  168SAPE  H11B18843   2.467   5.141   2.200
  168SAPE     P18844   2.621   5.344   2.339
  168SAPE   O1318845   2.644   5.242   2.444
  168SAPE   O1418846   2.714   5.460   2.333
  168SAPE   O1218847   2.623   5.274   2.199
  168SAPE   O1118848   2.472   5.391   2.334
  168SAPE    C118849   2.431   5.519   2.382
  168SAPE    HA18850   2.501   5.601   2.355
  168SAPE    HB18851   2.331   5.542   2.338
  168SAPE    C218852   2.407   5.516   2.539
  168SAPE    HS18853   2.379   5.621   2.563
  168SAPE   O2118854   2.521   5.468   2.608
  168SAPE   C2118855   2.610   5.561   2.628
  168SAPE   O2218856   2.605   5.682   2.614
  168SAPE   C2218857   2.742   5.495   2.680
  168SAPE   H2R18858   2.722   5.387   2.692
  168SAPE   H2S18859   2.824   5.515   2.607
  168SAPE    C318860   2.289   5.433   2.582
  168SAPE    HX18861   2.305   5.326   2.555
  168SAPE    HY18862   2.203   5.481   2.531
  168SAPE   O3118863   2.263   5.448   2.722
  168SAPE   C3118864   2.163   5.383   2.765
  168SAPE   O3218865   2.090   5.316   2.697
  168SAPE   C3218866   2.152   5.387   2.918
  168SAPE   H2X18867   2.254   5.360   2.952
  168SAPE   H2Y18868   2.086   5.303   2.948
  168SAPE   C2318869   2.770   5.540   2.824
  168SAPE   H3R18870   2.839   5.462   2.863
  168SAPE   H3S18871   2.675   5.529   2.881
  168SAPE   C2418872   2.833   5.682   2.842
  168SAPE   H4R18873   2.746   5.750   2.847
  168SAPE   H4S18874   2.896   5.715   2.756
  168SAPE   C2518875   2.898   5.695   2.981
  168SAPE   H5R18876   2.841   5.661   3.068
  168SAPE   C2618877   3.021   5.741   3.000
  168SAPE   H6R18878   3.060   5.747   3.103
  168SAPE   C2718879   3.114   5.809   2.900
  168SAPE   H7R18880   3.113   5.918   2.919
  168SAPE   H7S18881   3.085   5.794   2.793
  168SAPE   C2818882   3.258   5.775   2.906
  168SAPE   H8R18883   3.280   5.717   2.997
  168SAPE   C2918884   3.360   5.821   2.835
  168SAPE   H9R18885   3.464   5.788   2.850
  168SAPE  C21018886   3.343   5.906   2.709
  168SAPE  H10R18887   3.250   5.871   2.660
  168SAPE  H10S18888   3.411   5.870   2.629
  168SAPE  C21118889   3.334   6.059   2.718
  168SAPE  H11R18890   3.356   6.099   2.818
  168SAPE  C21218891   3.317   6.155   2.625
  168SAPE  H12R18892   3.319   6.263   2.645
  168SAPE  C21318893   3.282   6.136   2.476
  168SAPE  H13R18894   3.174   6.159   2.460
  168SAPE  H13S18895   3.304   6.033   2.440
  168SAPE  C21418896   3.370   6.223   2.392
  168SAPE  H14R18897   3.474   6.189   2.382
  168SAPE  C21518898   3.331   6.326   2.313
  168SAPE  H15R18899   3.413   6.390   2.276
  168SAPE  C21618900   3.192   6.376   2.305
  168SAPE  H16R18901   3.119   6.308   2.354
  168SAPE  H16S18902   3.165   6.380   2.198
  168SAPE  C21718903   3.172   6.516   2.372
  168SAPE  H17R18904   3.076   6.559   2.336
  168SAPE  H17S18905   3.257   6.580   2.341
  168SAPE  C21818906   3.184   6.522   2.520
  168SAPE  H18R18907   3.190   6.629   2.551
  168SAPE  H18S18908   3.283   6.489   2.558
  168SAPE  C21918909   3.079   6.449   2.604
  168SAPE  H19R18910   3.097   6.482   2.709
  168SAPE  H19S18911   3.094   6.342   2.580
  168SAPE  C22018912   2.938   6.485   2.553
  168SAPE  H20R18913   2.932   6.593   2.528
  168SAPE  H20S18914   2.859   6.465   2.628
  168SAPE  H20T18915   2.914   6.421   2.465
  168SAPE   C3318916   2.096   5.530   2.961
  168SAPE   H3X18917   1.996   5.543   2.915
  168SAPE   H3Y18918   2.157   5.615   2.926
  168SAPE   C3418919   2.084   5.538   3.113
  168SAPE   H4X18920   2.181   5.516   3.162
  168SAPE   H4Y18921   2.020   5.455   3.153
  168SAPE   C3518922   2.029   5.668   3.154
  168SAPE   H5X18923   1.922   5.670   3.121
  168SAPE   H5Y18924   2.070   5.759   3.105
  168SAPE   C3618925   2.040   5.682   3.308
  168SAPE   H6X18926   2.013   5.588   3.362
  168SAPE   H6Y18927   1.971   5.761   3.346
  168SAPE   C3718928   2.178   5.728   3.346
  168SAPE   H7X18929   2.214   5.804   3.274
  168SAPE   H7Y18930   2.247   5.642   3.340
  168SAPE   C3818931   2.189   5.787   3.491
  168SAPE   H8X18932   2.089   5.833   3.500
  168SAPE   H8Y18933   2.281   5.848   3.476
  168SAPE   C3918934   2.213   5.673   3.588
  168SAPE   H9X18935   2.318   5.639   3.592
  168SAPE   H9Y18936   2.141   5.592   3.563
  168SAPE  C31018937   2.191   5.717   3.734
  168SAPE  H10X18938   2.088   5.754   3.756
  168SAPE  H10Y18939   2.255   5.807   3.749
  168SAPE  C31118940   2.223   5.619   3.845
  168SAPE  H11X18941   2.318   5.564   3.826
  168SAPE  H11Y18942   2.141   5.544   3.846
  168SAPE  C31218943   2.224   5.692   3.986
  168SAPE  H12X18944   2.133   5.751   4.007
  168SAPE  H12Y18945   2.308   5.765   3.975
  168SAPE  C31318946   2.239   5.603   4.115
  168SAPE  H13X18947   2.293   5.511   4.085
  168SAPE  H13Y18948   2.139   5.561   4.137
  168SAPE  C31418949   2.313   5.684   4.223
  168SAPE  H14X18950   2.263   5.780   4.247
  168SAPE  H14Y18951   2.416   5.704   4.187
  168SAPE  C31518952   2.315   5.603   4.351
  168SAPE  H15X18953   2.351   5.504   4.317
  168SAPE  H15Y18954   2.208   5.579   4.372
  168SAPE  C31618955   2.406   5.658   4.461
  168SAPE  H16X18956   2.396   5.765   4.488
  168SAPE  H16Y18957   2.506   5.652   4.414
  168SAPE  C31718958   2.401   5.570   4.583
  168SAPE  H17X18959   2.494   5.592   4.640
  168SAPE  H17Y18960   2.414   5.464   4.553
  168SAPE  C31818961   2.277   5.589   4.670
  168SAPE  H18X18962   2.305   5.550   4.770
  168SAPE  H18Y18963   2.193   5.527   4.631
  168SAPE  H18Z18964   2.255   5.697   4.667
  169SAPE     N18965   6.435   2.704   2.262
  169SAPE   HN118966   6.413   2.624   2.325
  169SAPE   HN218967   6.485   2.667   2.179
  169SAPE   HN318968   6.492   2.778   2.307
  169SAPE   C1218969   6.311   2.767   2.203
  169SAPE  H12A18970   6.262   2.683   2.149
  169SAPE  H12B18971   6.336   2.851   2.135
  169SAPE   C1118972   6.233   2.831   2.320
  169SAPE  H11A18973   6.135   2.863   2.277
  169SAPE  H11B18974   6.286   2.922   2.356
  169SAPE     P18975   6.135   2.759   2.554
  169SAPE   O1318976   6.004   2.823   2.525
  169SAPE   O1418977   6.129   2.634   2.629
  169SAPE   O1218978   6.210   2.735   2.419
  169SAPE   O1118979   6.227   2.867   2.618
  169SAPE    C118980   6.362   2.856   2.661
  169SAPE    HA18981   6.444   2.814   2.600
  169SAPE    HB18982   6.404   2.957   2.681
  169SAPE    C218983   6.361   2.788   2.799
  169SAPE    HS18984   6.335   2.682   2.777
  169SAPE   O2118985   6.255   2.839   2.883
  169SAPE   C2118986   6.204   2.772   2.989
  169SAPE   O2218987   6.227   2.656   3.017
  169SAPE   C2218988   6.101   2.865   3.054
  169SAPE   H2R18989   6.149   2.960   3.087
  169SAPE   H2S18990   6.019   2.884   2.981
  169SAPE    C318991   6.501   2.792   2.872
  169SAPE    HX18992   6.531   2.898   2.888
  169SAPE    HY18993   6.581   2.744   2.811
  169SAPE   O3118994   6.494   2.726   3.001
  169SAPE   C3118995   6.520   2.594   3.018
  169SAPE   O3218996   6.555   2.519   2.924
  169SAPE   C3218997   6.509   2.553   3.168
  169SAPE   H2X18998   6.404   2.519   3.177
  169SAPE   H2Y18999   6.529   2.645   3.226
  169SAPE   C2319000   6.016   2.795   3.165
  169SAPE   H3R19001   5.991   2.691   3.135
  169SAPE   H3S19002   5.924   2.854   3.190
  169SAPE   C2419003   6.101   2.788   3.284
  169SAPE   H4R19004   6.109   2.892   3.322
  169SAPE   H4S19005   6.206   2.763   3.258
  169SAPE   C2519006   6.045   2.706   3.398
  169SAPE   H5R19007   5.971   2.761   3.458
  169SAPE   C2619008   6.091   2.593   3.443
  169SAPE   H6R19009   6.026   2.552   3.522
  169SAPE   C2719010   6.205   2.509   3.388
  169SAPE   H7R19011   6.304   2.553   3.414
  169SAPE   H7S19012   6.199   2.512   3.277
  169SAPE   C2819013   6.194   2.367   3.437
  169SAPE   H8R19014   6.163   2.296   3.358
  169SAPE   C2919015   6.231   2.315   3.558
  169SAPE   H9R19016   6.212   2.208   3.571
  169SAPE  C21019017   6.281   2.398   3.677
  169SAPE  H10R19018   6.310   2.501   3.649
  169SAPE  H10S19019   6.377   2.359   3.718
  169SAPE  C21119020   6.170   2.396   3.783
  169SAPE  H11R19021   6.126   2.297   3.799
  169SAPE  C21219022   6.105   2.498   3.833
  169SAPE  H12R19023   6.016   2.488   3.897
  169SAPE  C21319024   6.154   2.637   3.811
  169SAPE  H13R19025   6.158   2.658   3.702
  169SAPE  H13S19026   6.261   2.640   3.842
  169SAPE  C21419027   6.067   2.736   3.894
  169SAPE  H14R19028   6.062   2.719   4.002
  169SAPE  C21519029   6.006   2.846   3.856
  169SAPE  H15R19030   5.974   2.907   3.942
  169SAPE  C21619031   5.981   2.902   3.716
  169SAPE  H16R19032   5.873   2.892   3.689
  169SAPE  H16S19033   6.030   2.840   3.638
  169SAPE  C21719034   6.046   3.039   3.705
  169SAPE  H17R19035   6.150   3.036   3.746
  169SAPE  H17S19036   5.981   3.113   3.758
  169SAPE  C21819037   6.073   3.094   3.560
  169SAPE  H18R19038   6.120   3.014   3.499
  169SAPE  H18S19039   6.142   3.180   3.565
  169SAPE  C21919040   5.935   3.131   3.504
  169SAPE  H19R19041   5.888   3.211   3.564
  169SAPE  H19S19042   5.870   3.041   3.511
  169SAPE  C22019043   5.933   3.165   3.354
  169SAPE  H20R19044   5.835   3.181   3.303
  169SAPE  H20S19045   5.990   3.095   3.289
  169SAPE  H20T19046   5.989   3.260   3.341
  169SAPE   C3319047   6.593   2.420   3.184
  169SAPE   H3X19048   6.701   2.433   3.163
  169SAPE   H3Y19049   6.559   2.340   3.114
  169SAPE   C3419050   6.581   2.365   3.325
  169SAPE   H4X19051   6.478   2.341   3.360
  169SAPE   H4Y19052   6.627   2.440   3.392
  169SAPE   C3519053   6.670   2.241   3.350
  169SAPE   H5X19054   6.778   2.252   3.330
  169SAPE   H5Y19055   6.630   2.151   3.300
  169SAPE   C3619056   6.676   2.215   3.501
  169SAPE   H6X19057   6.575   2.216   3.547
  169SAPE   H6Y19058   6.740   2.301   3.529
  169SAPE   C3719059   6.735   2.076   3.528
  169SAPE   H7X19060   6.844   2.070   3.548
  169SAPE   H7Y19061   6.704   2.006   3.447
  169SAPE   C3819062   6.689   2.016   3.661
  169SAPE   H8X19063   6.736   1.916   3.667
  169SAPE   H8Y19064   6.579   1.999   3.656
  169SAPE   C3919065   6.740   2.105   3.783
  169SAPE   H9X19066   6.675   2.194   3.792
  169SAPE   H9Y19067   6.840   2.148   3.762
  169SAPE  C31019068   6.757   2.021   3.915
  169SAPE  H10X19069   6.830   1.940   3.892
  169SAPE  H10Y19070   6.660   1.968   3.926
  169SAPE  C31119071   6.784   2.100   4.034
  169SAPE  H11X19072   6.754   2.032   4.117
  169SAPE  H11Y19073   6.718   2.188   4.051
  169SAPE  C31219074   0.038   2.149   4.053
  169SAPE  H12X19075   0.049   2.236   3.985
  169SAPE  H12Y19076   0.106   2.071   4.011
  169SAPE  C31319077   0.078   2.199   4.190
  169SAPE  H13X19078   0.041   2.124   4.264
  169SAPE  H13Y19079   0.036   2.301   4.182
  169SAPE  C31419080   0.230   2.206   4.215
  169SAPE  H14X19081   0.265   2.288   4.282
  169SAPE  H14Y19082   0.272   2.234   4.116
  169SAPE  C31519083   0.295   2.070   4.257
  169SAPE  H15X19084   0.285   1.998   4.173
  169SAPE  H15Y19085   0.246   2.027   4.347
  169SAPE  C31619086   0.437   2.090   4.277
  169SAPE  H16X19087   0.459   2.166   4.354
  169SAPE  H16Y19088   0.479   2.142   4.188
  169SAPE  C31719089   0.524   1.968   4.304
  169SAPE  H17X19090   0.628   2.007   4.297
  169SAPE  H17Y19091   0.509   1.902   4.216
  169SAPE  C31819092   0.502   1.910   4.444
  169SAPE  H18X19093   0.477   1.977   4.529
  169SAPE  H18Y19094   0.593   1.854   4.474
  169SAPE  H18Z19095   0.428   1.827   4.434
  170SAPE     N19096   6.766   3.424   1.855
  170SAPE   HN119097   6.702   3.442   1.935
  170SAPE   HN219098   6.722   3.367   1.780
  170SAPE   HN319099   6.851   3.378   1.895
  170SAPE   C1219100   6.808   3.552   1.802
  170SAPE  H12A19101   6.725   3.596   1.744
  170SAPE  H12B19102   0.004   3.520   1.734
  170SAPE   C1119103   6.856   3.641   1.912
  170SAPE  H11A19104   6.795   3.633   2.005
  170SAPE  H11B19105   6.855   3.747   1.880
  170SAPE     P19106   0.146   3.550   2.092
  170SAPE   O1319107   0.058   3.442   2.137
  170SAPE   O1419108   0.287   3.500   2.077
  170SAPE   O1219109   0.109   3.612   1.943
  170SAPE   O1119110   0.141   3.673   2.192
  170SAPE    C119111   0.031   3.741   2.256
  170SAPE    HA19112   0.013   3.837   2.203
  170SAPE    HB19113   6.824   3.682   2.246
  170SAPE    C219114   0.062   3.772   2.401
  170SAPE    HS19115   0.169   3.800   2.390
  170SAPE   O2119116   0.043   3.654   2.485
  170SAPE   C2119117   0.128   3.622   2.573
  170SAPE   O2219118   0.237   3.676   2.592
  170SAPE   C2219119   0.072   3.506   2.653
  170SAPE   H2R19120   6.865   3.540   2.703
  170SAPE   H2S19121   0.052   3.429   2.575
  170SAPE    C319122   6.875   3.888   2.470
  170SAPE    HX19123   6.771   3.851   2.481
  170SAPE    HY19124   6.876   3.969   2.394
  170SAPE   O3119125   0.037   3.926   2.603
  170SAPE   C3119126   0.146   4.001   2.593
  170SAPE   O3219127   0.199   4.043   2.488
  170SAPE   C3219128   0.190   4.045   2.730
  170SAPE   H2X19129   0.119   4.109   2.786
  170SAPE   H2Y19130   0.281   4.106   2.713
  170SAPE   C2319131   0.170   3.440   2.757
  170SAPE   H3R19132   0.273   3.427   2.717
  170SAPE   H3S19133   0.133   3.338   2.782
  170SAPE   C2419134   0.189   3.526   2.886
  170SAPE   H4R19135   0.238   3.614   2.839
  170SAPE   H4S19136   0.275   3.493   2.949
  170SAPE   C2519137   0.069   3.562   2.963
  170SAPE   H5R19138   0.004   3.634   2.912
  170SAPE   C2619139   0.023   3.504   3.078
  170SAPE   H6R19140   6.818   3.543   3.125
  170SAPE   C2719141   0.104   3.396   3.150
  170SAPE   H7R19142   0.202   3.371   3.105
  170SAPE   H7S19143   0.039   3.307   3.133
  170SAPE   C2819144   0.109   3.420   3.301
  170SAPE   H8R19145   0.172   3.505   3.331
  170SAPE   C2919146   0.051   3.345   3.397
  170SAPE   H9R19147   0.060   3.395   3.495
  170SAPE  C21019148   6.864   3.210   3.395
  170SAPE  H10R19149   0.047   3.128   3.426
  170SAPE  H10S19150   6.838   3.168   3.295
  170SAPE  C21119151   6.736   3.202   3.473
  170SAPE  H11R19152   6.639   3.209   3.422
  170SAPE  C21219153   6.738   3.180   3.602
  170SAPE  H12R19154   6.648   3.163   3.664
  170SAPE  C21319155   6.870   3.153   3.670
  170SAPE  H13R19156   0.071   3.201   3.621
  170SAPE  H13S19157   0.005   3.045   3.682
  170SAPE  C21419158   6.865   3.213   3.811
  170SAPE  H14R19159   6.842   3.321   3.815
  170SAPE  C21519160   6.862   3.146   3.926
  170SAPE  H15R19161   6.853   3.207   4.018
  170SAPE  C21619162   6.874   2.999   3.958
  170SAPE  H16R19163   0.019   2.933   3.874
  170SAPE  H16S19164   6.770   2.972   3.984
  170SAPE  C21719165   0.079   2.989   4.083
  170SAPE  H17R19166   0.019   3.026   4.169
  170SAPE  H17S19167   0.173   3.047   4.074
  170SAPE  C21819168   0.119   2.846   4.113
  170SAPE  H18R19169   0.226   2.845   4.143
  170SAPE  H18S19170   0.128   2.780   4.025
  170SAPE  C21919171   0.048   2.782   4.230
  170SAPE  H19R19172   6.826   2.775   4.207
  170SAPE  H19S19173   0.065   2.856   4.311
  170SAPE  C22019174   0.110   2.657   4.281
  170SAPE  H20R19175   0.221   2.666   4.279
  170SAPE  H20S19176   0.085   2.573   4.212
  170SAPE  H20T19177   0.065   2.635   4.380
  170SAPE   C3319178   0.214   3.923   2.821
  170SAPE   H3X19179   0.288   3.857   2.771
  170SAPE   H3Y19180   0.119   3.865   2.831
  170SAPE   C3419181   0.281   3.954   2.952
  170SAPE   H4X19182   0.369   4.017   2.926
  170SAPE   H4Y19183   0.333   3.865   2.994
  170SAPE   C3519184   0.204   4.032   3.060
  170SAPE   H5X19185   0.160   4.126   3.019
  170SAPE   H5Y19186   0.280   4.069   3.133
  170SAPE   C3619187   0.103   3.944   3.134
  170SAPE   H6X19188   0.099   3.847   3.079
  170SAPE   H6Y19189   0.002   3.985   3.155
  170SAPE   C3719190   0.159   3.889   3.262
  170SAPE   H7X19191   0.195   3.974   3.323
  170SAPE   H7Y19192   0.250   3.829   3.243
  170SAPE   C3819193   0.066   3.802   3.342
  170SAPE   H8X19194   0.077   3.698   3.306
  170SAPE   H8Y19195   6.844   3.823   3.326
  170SAPE   C3919196   0.086   3.789   3.499
  170SAPE   H9X19197   0.023   3.700   3.522
  170SAPE   H9Y19198   0.048   3.878   3.553
  170SAPE  C31019199   0.228   3.763   3.540
  170SAPE  H10X19200   0.282   3.860   3.541
  170SAPE  H10Y19201   0.283   3.691   3.476
  170SAPE  C31119202   0.249   3.705   3.684
  170SAPE  H11X19203   0.343   3.737   3.732
  170SAPE  H11Y19204   0.242   3.594   3.675
  170SAPE  C31219205   0.130   3.739   3.782
  170SAPE  H12X19206   0.035   3.701   3.739
  170SAPE  H12Y19207   0.136   3.850   3.789
  170SAPE  C31319208   0.158   3.693   3.923
  170SAPE  H13X19209   0.068   3.708   3.986
  170SAPE  H13Y19210   0.239   3.758   3.964
  170SAPE  C31419211   0.195   3.538   3.946
  170SAPE  H14X19212   0.291   3.509   3.896
  170SAPE  H14Y19213   0.115   3.471   3.907
  170SAPE  C31519214   0.201   3.495   4.100
  170SAPE  H15X19215   0.102   3.513   4.148
  170SAPE  H15Y19216   0.282   3.548   4.153
  170SAPE  C31619217   0.234   3.343   4.125
  170SAPE  H16X19218   0.333   3.325   4.077
  170SAPE  H16Y19219   0.152   3.282   4.082
  170SAPE  C31719220   0.229   3.322   4.279
  170SAPE  H17X19221   0.127   3.342   4.318
  170SAPE  H17Y19222   0.301   3.396   4.321
  170SAPE  C31819223   0.259   3.180   4.319
  170SAPE  H18X19224   0.269   3.181   4.430
  170SAPE  H18Y19225   0.353   3.146   4.269
  170SAPE  H18Z19226   0.174   3.112   4.298
  171SAPE     N19227   0.330   2.203   2.220
  171SAPE   HN119228   0.406   2.270   2.244
  171SAPE   HN219229   0.272   2.205   2.306
  171SAPE   HN319230   0.368   2.107   2.209
  171SAPE   C1219231   0.243   2.229   2.098
  171SAPE  H12A19232   0.183   2.137   2.078
  171SAPE  H12B19233   0.295   2.238   2.000
  171SAPE   C1119234   0.150   2.346   2.121
  171SAPE  H11A19235   0.103   2.364   2.022
  171SAPE  H11B19236   0.214   2.430   2.156
  171SAPE     P19237   6.818   2.432   2.225
  171SAPE   O1319238   6.821   2.528   2.111
  171SAPE   O1419239   6.696   2.360   2.248
  171SAPE   O1219240   0.040   2.326   2.208
  171SAPE   O1119241   6.843   2.536   2.347
  171SAPE    C119242   0.086   2.589   2.365
  171SAPE    HA19243   0.156   2.504   2.373
  171SAPE    HB19244   0.124   2.646   2.277
  171SAPE    C219245   0.088   2.682   2.496
  171SAPE    HS19246   0.195   2.709   2.511
  171SAPE   O2119247   0.034   2.618   2.616
  171SAPE   C2119248   0.110   2.518   2.662
  171SAPE   O2219249   0.217   2.485   2.619
  171SAPE   C2219250   0.026   2.451   2.766
  171SAPE   H2R19251   0.035   2.509   2.860
  171SAPE   H2S19252   6.806   2.447   2.734
  171SAPE    C319253   0.010   2.813   2.471
  171SAPE    HX19254   6.792   2.782   2.447
  171SAPE    HY19255   0.033   2.867   2.377
  171SAPE   O3119256   0.021   2.903   2.591
  171SAPE   C3119257   6.790   2.962   2.629
  171SAPE   O3219258   6.682   2.942   2.575
  171SAPE   C3219259   6.813   3.042   2.758
  171SAPE   H2X19260   6.711   3.052   2.800
  171SAPE   H2Y19261   6.855   3.138   2.723
  171SAPE   C2319262   0.068   2.305   2.796
  171SAPE   H3R19263   0.173   2.316   2.830
  171SAPE   H3S19264   0.081   2.244   2.704
  171SAPE   C2419265   6.868   2.247   2.911
  171SAPE   H4R19266   6.865   2.320   2.994
  171SAPE   H4S19267   0.033   2.155   2.946
  171SAPE   C2519268   6.726   2.227   2.870
  171SAPE   H5R19269   6.663   2.315   2.850
  171SAPE   C2619270   6.671   2.104   2.866
  171SAPE   H6R19271   6.569   2.089   2.826
  171SAPE   C2719272   6.731   1.970   2.898
  171SAPE   H7R19273   6.836   1.975   2.936
  171SAPE   H7S19274   6.721   1.896   2.816
  171SAPE   C2819275   6.659   1.919   3.018
  171SAPE   H8R19276   6.550   1.931   3.020
  171SAPE   C2919277   6.706   1.851   3.125
  171SAPE   H9R19278   6.634   1.814   3.199
  171SAPE  C21019279   6.852   1.814   3.151
  171SAPE  H10R19280   0.030   1.838   3.063
  171SAPE  H10S19281   6.860   1.703   3.146
  171SAPE  C21119282   0.020   1.879   3.276
  171SAPE  H11R19283   6.855   1.968   3.313
  171SAPE  C21219284   0.149   1.854   3.320
  171SAPE  H12R19285   0.173   1.906   3.414
  171SAPE  C21319286   0.233   1.735   3.278
  171SAPE  H13R19287   0.295   1.784   3.200
  171SAPE  H13S19288   0.172   1.659   3.225
  171SAPE  C21419289   0.315   1.666   3.379
  171SAPE  H14R19290   0.422   1.660   3.356
  171SAPE  C21519291   0.280   1.627   3.502
  171SAPE  H15R19292   0.361   1.577   3.557
  171SAPE  C21619293   0.139   1.630   3.562
  171SAPE  H16R19294   0.114   1.528   3.595
  171SAPE  H16S19295   0.068   1.662   3.482
  171SAPE  C21719296   0.138   1.732   3.686
  171SAPE  H17R19297   0.033   1.752   3.716
  171SAPE  H17S19298   0.183   1.829   3.655
  171SAPE  C21819299   0.214   1.670   3.805
  171SAPE  H18R19300   0.312   1.628   3.776
  171SAPE  H18S19301   0.150   1.586   3.838
  171SAPE  C21919302   0.234   1.780   3.922
  171SAPE  H19R19303   0.128   1.808   3.941
  171SAPE  H19S19304   0.285   1.869   3.879
  171SAPE  C22019305   0.300   1.728   4.048
  171SAPE  H20R19306   0.240   1.644   4.088
  171SAPE  H20S19307   0.301   1.806   4.128
  171SAPE  H20T19308   0.404   1.703   4.017
  171SAPE   C3319309   0.018   2.986   2.864
  171SAPE   H3X19310   0.032   3.061   2.945
  171SAPE   H3Y19311   0.121   2.951   2.843
  171SAPE   C3419312   6.836   2.871   2.945
  171SAPE   H4X19313   6.839   2.780   2.881
  171SAPE   H4Y19314   6.731   2.896   2.971
  171SAPE   C3519315   0.028   2.849   3.069
  171SAPE   H5X19316   0.032   2.943   3.128
  171SAPE   H5Y19317   0.128   2.822   3.028
  171SAPE   C3619318   6.843   2.747   3.162
  171SAPE   H6X19319   6.871   2.645   3.128
  171SAPE   H6Y19320   6.732   2.759   3.160
  171SAPE   C3719321   6.879   2.769   3.309
  171SAPE   H7X19322   6.872   2.876   3.337
  171SAPE   H7Y19323   0.100   2.751   3.330
  171SAPE   C3819324   6.808   2.670   3.407
  171SAPE   H8X19325   6.835   2.570   3.369
  171SAPE   H8Y19326   6.698   2.682   3.400
  171SAPE   C3919327   6.848   2.706   3.554
  171SAPE   H9X19328   6.819   2.812   3.570
  171SAPE   H9Y19329   0.071   2.703   3.574
  171SAPE  C31019330   6.771   2.619   3.652
  171SAPE  H10X19331   6.802   2.513   3.637
  171SAPE  H10Y19332   6.660   2.626   3.641
  171SAPE  C31119333   6.807   2.636   3.799
  171SAPE  H11X19334   6.779   2.733   3.845
  171SAPE  H11Y19335   0.032   2.633   3.797
  171SAPE  C31219336   6.758   2.522   3.887
  171SAPE  H12X19337   6.822   2.517   3.978
  171SAPE  H12Y19338   6.771   2.423   3.838
  171SAPE  C31319339   6.617   2.533   3.924
  171SAPE  H13X19340   6.594   2.426   3.941
  171SAPE  H13Y19341   6.548   2.580   3.849
  171SAPE  C31419342   6.592   2.609   4.058
  171SAPE  H14X19343   6.619   2.717   4.057
  171SAPE  H14Y19344   6.644   2.563   4.145
  171SAPE  C31519345   6.438   2.604   4.086
  171SAPE  H15X19346   6.390   2.515   4.040
  171SAPE  H15Y19347   6.389   2.676   4.017
  171SAPE  C31619348   6.382   2.645   4.230
  171SAPE  H16X19349   6.426   2.740   4.266
  171SAPE  H16Y19350   6.421   2.566   4.298
  171SAPE  C31719351   6.227   2.661   4.241
  171SAPE  H17X19352   6.205   2.743   4.170
  171SAPE  H17Y19353   6.198   2.673   4.348
  171SAPE  C31819354   6.154   2.541   4.184
  171SAPE  H18X19355   6.189   2.521   4.081
  171SAPE  H18Y19356   6.044   2.551   4.169
  171SAPE  H18Z19357   6.185   2.446   4.234
  172SAPE     N19358   0.630   4.782   2.182
  172SAPE   HN119359   0.684   4.736   2.259
  172SAPE   HN219360   0.675   4.745   2.095
  172SAPE   HN319361   0.642   4.885   2.185
  172SAPE   C1219362   0.490   4.740   2.195
  172SAPE  H12A19363   0.488   4.634   2.162
  172SAPE  H12B19364   0.445   4.794   2.109
  172SAPE   C1119365   0.424   4.786   2.327
  172SAPE  H11A19366   0.484   4.739   2.408
  172SAPE  H11B19367   0.326   4.735   2.340
  172SAPE     P19368   0.313   5.013   2.266
  172SAPE   O1319369   0.319   4.978   2.123
  172SAPE   O1419370   0.182   4.997   2.330
  172SAPE   O1219371   0.417   4.923   2.346
  172SAPE   O1119372   0.360   5.158   2.283
  172SAPE    C119373   0.464   5.195   2.374
  172SAPE    HA19374   0.559   5.140   2.358
  172SAPE    HB19375   0.486   5.299   2.343
  172SAPE    C219376   0.427   5.196   2.523
  172SAPE    HS19377   0.421   5.088   2.546
  172SAPE   O2119378   0.304   5.258   2.565
  172SAPE   C2119379   0.241   5.344   2.486
  172SAPE   O2219380   0.295   5.416   2.404
  172SAPE   C2219381   0.092   5.341   2.510
  172SAPE   H2R19382   0.046   5.284   2.426
  172SAPE   H2S19383   0.077   5.288   2.607
  172SAPE    C319384   0.542   5.256   2.600
  172SAPE    HX19385   0.557   5.360   2.563
  172SAPE    HY19386   0.637   5.207   2.572
  172SAPE   O3119387   0.521   5.245   2.746
  172SAPE   C3119388   0.453   5.345   2.800
  172SAPE   O3219389   0.398   5.432   2.737
  172SAPE   C3219390   0.455   5.338   2.954
  172SAPE   H2X19391   0.516   5.253   2.991
  172SAPE   H2Y19392   0.351   5.330   2.993
  172SAPE   C2319393   0.039   5.482   2.532
  172SAPE   H3R19394   0.065   5.547   2.446
  172SAPE   H3S19395   0.075   5.537   2.622
  172SAPE   C2419396   6.771   5.484   2.538
  172SAPE   H4R19397   6.727   5.456   2.440
  172SAPE   H4S19398   6.740   5.589   2.553
  172SAPE   C2519399   6.719   5.386   2.642
  172SAPE   H5R19400   6.703   5.279   2.619
  172SAPE   C2619401   6.698   5.424   2.769
  172SAPE   H6R19402   6.654   5.353   2.840
  172SAPE   C2719403   6.720   5.561   2.837
  172SAPE   H7R19404   6.622   5.614   2.846
  172SAPE   H7S19405   6.781   5.628   2.773
  172SAPE   C2819406   6.800   5.549   2.967
  172SAPE   H8R19407   0.012   5.505   2.943
  172SAPE   C2919408   6.774   5.590   3.099
  172SAPE   H9R19409   6.856   5.586   3.172
  172SAPE  C21019410   6.637   5.627   3.150
  172SAPE  H10R19411   6.573   5.649   3.062
  172SAPE  H10S19412   6.642   5.726   3.201
  172SAPE  C21119413   6.563   5.530   3.243
  172SAPE  H11R19414   6.470   5.495   3.196
  172SAPE  C21219415   6.604   5.501   3.367
  172SAPE  H12R19416   6.543   5.437   3.433
  172SAPE  C21319417   6.726   5.552   3.442
  172SAPE  H13R19418   6.811   5.554   3.371
  172SAPE  H13S19419   6.757   5.474   3.515
  172SAPE  C21419420   6.709   5.696   3.495
  172SAPE  H14R19421   6.687   5.769   3.416
  172SAPE  C21519422   6.715   5.731   3.628
  172SAPE  H15R19423   6.693   5.838   3.642
  172SAPE  C21619424   6.759   5.645   3.739
  172SAPE  H16R19425   6.854   5.676   3.788
  172SAPE  H16S19426   6.785   5.544   3.700
  172SAPE  C21719427   6.652   5.620   3.850
  172SAPE  H17R19428   6.611   5.714   3.893
  172SAPE  H17S19429   6.715   5.573   3.928
  172SAPE  C21819430   6.529   5.530   3.811
  172SAPE  H18R19431   6.544   5.441   3.747
  172SAPE  H18S19432   6.463   5.594   3.748
  172SAPE  C21919433   6.446   5.472   3.926
  172SAPE  H19R19434   6.492   5.372   3.939
  172SAPE  H19S19435   6.344   5.457   3.886
  172SAPE  C22019436   6.447   5.558   4.053
  172SAPE  H20R19437   6.545   5.544   4.104
  172SAPE  H20S19438   6.363   5.528   4.119
  172SAPE  H20T19439   6.431   5.667   4.036
  172SAPE   C3319440   0.527   5.464   3.015
  172SAPE   H3X19441   0.475   5.561   3.000
  172SAPE   H3Y19442   0.622   5.481   2.960
  172SAPE   C3419443   0.577   5.446   3.163
  172SAPE   H4X19444   0.663   5.514   3.183
  172SAPE   H4Y19445   0.626   5.348   3.183
  172SAPE   C3519446   0.473   5.463   3.272
  172SAPE   H5X19447   0.390   5.390   3.259
  172SAPE   H5Y19448   0.424   5.559   3.246
  172SAPE   C3619449   0.514   5.483   3.421
  172SAPE   H6X19450   0.568   5.579   3.432
  172SAPE   H6Y19451   0.575   5.399   3.460
  172SAPE   C3719452   0.380   5.494   3.497
  172SAPE   H7X19453   0.318   5.403   3.483
  172SAPE   H7Y19454   0.328   5.577   3.445
  172SAPE   C3819455   0.394   5.516   3.656
  172SAPE   H8X19456   0.299   5.478   3.699
  172SAPE   H8Y19457   0.392   5.626   3.663
  172SAPE   C3919458   0.515   5.452   3.722
  172SAPE   H9X19459   0.605   5.505   3.684
  172SAPE   H9Y19460   0.518   5.350   3.677
  172SAPE  C31019461   0.508   5.436   3.872
  172SAPE  H10X19462   0.424   5.368   3.897
  172SAPE  H10Y19463   0.489   5.524   3.936
  172SAPE  C31119464   0.630   5.369   3.935
  172SAPE  H11X19465   0.720   5.431   3.919
  172SAPE  H11Y19466   0.636   5.268   3.890
  172SAPE  C31219467   0.620   5.344   4.091
  172SAPE  H12X19468   0.533   5.279   4.115
  172SAPE  H12Y19469   0.608   5.448   4.128
  172SAPE  C31319470   0.748   5.308   4.166
  172SAPE  H13X19471   0.834   5.374   4.144
  172SAPE  H13Y19472   0.770   5.205   4.131
  172SAPE  C31419473   0.743   5.305   4.322
  172SAPE  H14X19474   0.660   5.238   4.353
  172SAPE  H14Y19475   0.713   5.407   4.354
  172SAPE  C31519476   0.871   5.263   4.386
  172SAPE  H15X19477   0.948   5.257   4.307
  172SAPE  H15Y19478   0.858   5.162   4.430
  172SAPE  C31619479   0.923   5.347   4.498
  172SAPE  H16X19480   0.940   5.455   4.474
  172SAPE  H16Y19481   1.027   5.309   4.512
  172SAPE  C31719482   0.831   5.350   4.614
  172SAPE  H17X19483   0.850   5.267   4.686
  172SAPE  H17Y19484   0.725   5.340   4.580
  172SAPE  C31819485   0.854   5.476   4.704
  172SAPE  H18X19486   0.961   5.480   4.734
  172SAPE  H18Y19487   0.793   5.465   4.796
  172SAPE  H18Z19488   0.831   5.567   4.644
  173SLPC     N19489   6.369   6.661   6.797
  173SLPC   C1319490   6.231   6.674   6.842
  173SLPC  H13A19491   6.188   6.576   6.856
  173SLPC  H13B19492   6.228   6.720   6.940
  173SLPC  H13C19493   6.163   6.719   6.772
  173SLPC   C1419494   6.433   6.537   6.843
  173SLPC  H14A19495   6.529   6.519   6.796
  173SLPC  H14B19496   6.452   6.533   6.949
  173SLPC  H14C19497   6.369   6.450   6.837
  173SLPC   C1519498   6.444   6.780   6.851
  173SLPC  H15A19499   6.427   6.795   6.957
  173SLPC  H15B19500   6.546   6.782   6.816
  173SLPC  H15C19501   6.406   6.870   6.806
  173SLPC   C1219502   6.380   6.666   6.646
  173SLPC  H12A19503   6.486   6.653   6.630
  173SLPC  H12B19504   6.353   6.769   6.624
  173SLPC   C1119505   6.297   6.560   6.563
  173SLPC  H11A19506   6.317   6.456   6.599
  173SLPC  H11B19507   6.336   6.567   6.460
  173SLPC     P19508   6.088   6.706   6.479
  173SLPC   O1319509   6.044   6.660   6.344
  173SLPC   O1419510   5.984   6.767   6.571
  173SLPC   O1219511   6.157   6.582   6.559
  173SLPC   O1119512   6.205   6.806   6.475
  173SLPC    C119513   6.215   0.045   6.557
  173SLPC    HA19514   6.161   0.020   6.651
  173SLPC    HB19515   6.320   0.059   6.588
  173SLPC    C219516   6.154   0.168   6.488
  173SLPC    HS19517   6.043   0.166   6.496
  173SLPC   O2119518   6.199   0.169   6.352
  173SLPC   C2119519   6.123   0.110   6.261
  173SLPC   O2219520   6.016   0.064   6.278
  173SLPC   C2219521   6.206   0.092   6.134
  173SLPC   H2R19522   6.252   0.193   6.120
  173SLPC   H2S19523   6.276   0.008   6.150
  173SLPC    C319524   6.205   0.294   6.554
  173SLPC    HX19525   6.315   0.291   6.544
  173SLPC    HY19526   6.188   0.294   6.664
  173SLPC   O3119527   6.151   0.413   6.498
  173SLPC   C3119528   6.222   0.481   6.408
  173SLPC   O3219529   6.340   0.465   6.384
  173SLPC   C3219530   6.136   0.592   6.350
  173SLPC   H2X19531   6.164   0.684   6.405
  173SLPC   H2Y19532   6.028   0.574   6.370
  173SLPC   C2319533   6.130   0.037   6.014
  173SLPC   H3R19534   6.071   0.118   5.966
  173SLPC   H3S19535   6.064   6.837   6.039
  173SLPC   C2419536   6.217   6.873   5.901
  173SLPC   H4R19537   6.287   6.801   5.950
  173SLPC   H4S19538   6.282   0.072   5.872
  173SLPC   C2519539   6.149   6.809   5.774
  173SLPC   H5R19540   6.221   6.807   5.689
  173SLPC   H5S19541   6.067   6.881   5.754
  173SLPC   C2619542   6.087   6.668   5.776
  173SLPC   H6R19543   6.043   6.644   5.875
  173SLPC   H6S19544   6.166   6.591   5.763
  173SLPC   C2719545   5.987   6.643   5.661
  173SLPC   H7R19546   6.033   6.682   5.568
  173SLPC   H7S19547   5.889   6.697   5.667
  173SLPC   C2819548   5.972   6.496   5.627
  173SLPC   H8R19549   6.068   6.461   5.584
  173SLPC   H8S19550   5.896   6.484   5.548
  173SLPC   C2919551   5.935   6.414   5.751
  173SLPC   H9R19552   6.022   6.412   5.818
  173SLPC  C21019553   5.819   6.347   5.774
  173SLPC  H10R19554   5.810   6.290   5.868
  173SLPC  C21119555   5.703   6.335   5.673
  173SLPC  H11R19556   5.683   6.439   5.639
  173SLPC  H11S19557   5.606   6.316   5.725
  173SLPC  C21219558   5.733   6.230   5.568
  173SLPC  H12R19559   5.772   6.141   5.620
  173SLPC  C21319560   5.735   6.236   5.433
  173SLPC  H13R19561   5.784   6.160   5.371
  173SLPC  C21419562   5.693   6.358   5.359
  173SLPC  H14R19563   5.782   6.399   5.308
  173SLPC  H14S19564   5.643   6.431   5.427
  173SLPC  C21519565   5.583   6.310   5.267
  173SLPC  H15R19566   5.619   6.236   5.192
  173SLPC  H15S19567   5.549   6.399   5.210
  173SLPC  C21619568   5.459   6.255   5.328
  173SLPC  H16R19569   5.435   6.320   5.415
  173SLPC  H16S19570   5.464   6.152   5.367
  173SLPC  C21719571   5.339   6.248   5.231
  173SLPC  H17R19572   5.335   6.351   5.188
  173SLPC  H17S19573   5.247   6.226   5.290
  173SLPC  C21819574   5.350   6.155   5.113
  173SLPC  H18R19575   5.427   6.196   5.044
  173SLPC  H18S19576   5.256   6.133   5.057
  173SLPC  H18T19577   5.386   6.053   5.140
  173SLPC   C3319578   6.164   0.595   6.199
  173SLPC   H3X19579   6.270   0.621   6.178
  173SLPC   H3Y19580   6.106   0.682   6.162
  173SLPC   C3419581   6.125   0.479   6.114
  173SLPC   H4X19582   6.033   0.430   6.153
  173SLPC   H4Y19583   6.207   0.405   6.116
  173SLPC   C3519584   6.109   0.523   5.968
  173SLPC   H5X19585   6.192   0.589   5.935
  173SLPC   H5Y19586   6.009   0.572   5.978
  173SLPC   C3619587   6.077   0.410   5.874
  173SLPC   H6X19588   5.978   0.361   5.887
  173SLPC   H6Y19589   6.150   0.326   5.880
  173SLPC   C3719590   6.065   0.464   5.730
  173SLPC   H7X19591   6.168   0.491   5.700
  173SLPC   H7Y19592   6.008   0.559   5.727
  173SLPC   C3819593   6.004   0.363   5.631
  173SLPC   H8X19594   5.896   0.359   5.658
  173SLPC   H8Y19595   6.053   0.266   5.651
  173SLPC   C3919596   6.017   0.402   5.484
  173SLPC   H9X19597   6.120   0.438   5.464
  173SLPC   H9Y19598   5.948   0.489   5.475
  173SLPC  C31019599   5.991   0.288   5.385
  173SLPC  H10X19600   5.886   0.251   5.395
  173SLPC  H10Y19601   6.061   0.202   5.396
  173SLPC  C31119602   5.999   0.339   5.237
  173SLPC  H11X19603   6.091   0.399   5.222
  173SLPC  H11Y19604   5.917   0.414   5.231
  173SLPC  C31219605   5.966   0.236   5.120
  173SLPC  H12X19606   5.860   0.211   5.143
  173SLPC  H12Y19607   6.028   0.144   5.120
  173SLPC  C31319608   5.995   0.303   4.985
  173SLPC  H13X19609   6.086   0.366   4.994
  173SLPC  H13Y19610   5.910   0.368   4.957
  173SLPC  C31419611   6.026   0.203   4.875
  173SLPC  H14X19612   6.100   0.131   4.914
  173SLPC  H14Y19613   6.059   0.256   4.783
  173SLPC  C31519614   5.903   0.129   4.830
  173SLPC  H15X19615   5.821   0.205   4.828
  173SLPC  H15Y19616   5.878   0.047   4.899
  173SLPC  C31619617   5.922   0.066   4.686
  173SLPC  H16X19618   5.981   6.858   4.694
  173SLPC  H16Y19619   5.983   0.130   4.618
  173SLPC  C31719620   5.787   0.042   4.614
  173SLPC  H17X19621   5.752   0.148   4.607
  173SLPC  H17Y19622   5.715   6.878   4.682
  173SLPC  C31819623   5.795   6.855   4.488
  173SLPC  H18X19624   5.876   0.007   4.421
  173SLPC  H18Y19625   5.701   6.857   4.430
  173SLPC  H18Z19626   5.833   6.752   4.502
  174SLPC     N19627   2.330   1.841   6.766
  174SLPC   C1319628   2.290   1.853   6.914
  174SLPC  H13A19629   2.380   1.873   6.970
  174SLPC  H13B19630   2.233   1.939   6.947
  174SLPC  H13C19631   2.247   1.758   6.942
  174SLPC   C1419632   2.207   1.827   6.676
  174SLPC  H14A19633   2.226   1.803   6.573
  174SLPC  H14B19634   2.140   1.749   6.708
  174SLPC  H14C19635   2.144   1.915   6.674
  174SLPC   C1519636   2.400   1.714   6.764
  174SLPC  H15A19637   2.480   1.699   6.835
  174SLPC  H15B19638   2.335   1.629   6.779
  174SLPC  H15C19639   2.450   1.712   6.668
  174SLPC   C1219640   2.416   1.956   6.716
  174SLPC  H12A19641   2.482   1.983   6.798
  174SLPC  H12B19642   2.359   2.046   6.696
  174SLPC   C1119643   2.502   1.936   6.595
  174SLPC  H11A19644   2.542   2.035   6.565
  174SLPC  H11B19645   2.425   1.910   6.519
  174SLPC     P19646   2.734   1.864   6.688
  174SLPC   O1319647   2.706   1.944   6.809
  174SLPC   O1419648   2.802   1.732   6.704
  174SLPC   O1219649   2.602   1.832   6.612
  174SLPC   O1119650   2.810   1.948   6.582
  174SLPC    C119651   2.861   1.880   6.471
  174SLPC    HA19652   2.910   1.783   6.495
  174SLPC    HB19653   2.786   1.850   6.396
  174SLPC    C219654   2.974   1.970   6.409
  174SLPC    HS19655   2.935   2.074   6.416
  174SLPC   O2119656   3.013   1.933   6.272
  174SLPC   C2119657   2.932   1.959   6.175
  174SLPC   O2219658   2.824   2.019   6.178
  174SLPC   C2219659   2.987   1.895   6.047
  174SLPC   H2R19660   3.088   1.935   6.021
  174SLPC   H2S19661   2.998   1.788   6.074
  174SLPC    C319662   3.102   1.971   6.493
  174SLPC    HX19663   3.140   1.868   6.471
  174SLPC    HY19664   3.073   1.971   6.600
  174SLPC   O3119665   3.194   2.074   6.450
  174SLPC   C3119666   3.308   2.071   6.513
  174SLPC   O3219667   3.341   1.994   6.603
  174SLPC   C3219668   3.397   2.184   6.450
  174SLPC   H2X19669   3.477   2.199   6.525
  174SLPC   H2Y19670   3.339   2.277   6.435
  174SLPC   C2319671   2.898   1.912   5.920
  174SLPC   H3R19672   2.909   2.021   5.903
  174SLPC   H3S19673   2.796   1.885   5.956
  174SLPC   C2419674   2.950   1.833   5.802
  174SLPC   H4R19675   2.952   1.726   5.830
  174SLPC   H4S19676   3.054   1.859   5.773
  174SLPC   C2519677   2.858   1.842   5.675
  174SLPC   H5R19678   2.756   1.822   5.714
  174SLPC   H5S19679   2.888   1.763   5.603
  174SLPC   C2619680   2.857   1.982   5.610
  174SLPC   H6R19681   2.964   1.998   5.585
  174SLPC   H6S19682   2.828   2.067   5.676
  174SLPC   C2719683   2.784   1.985   5.480
  174SLPC   H7R19684   2.794   2.085   5.433
  174SLPC   H7S19685   2.679   1.970   5.512
  174SLPC   C2819686   2.826   1.882   5.371
  174SLPC   H8R19687   2.837   1.776   5.404
  174SLPC   H8S19688   2.930   1.915   5.352
  174SLPC   C2919689   2.727   1.887   5.256
  174SLPC   H9R19690   2.621   1.886   5.286
  174SLPC  C21019691   2.755   1.917   5.125
  174SLPC  H10R19692   2.679   1.921   5.046
  174SLPC  C21119693   2.899   1.925   5.070
  174SLPC  H11R19694   2.929   1.826   5.027
  174SLPC  H11S19695   2.983   1.927   5.144
  174SLPC  C21219696   2.924   2.024   4.961
  174SLPC  H12R19697   2.972   2.113   5.004
  174SLPC  C21319698   2.880   2.029   4.837
  174SLPC  H13R19699   2.910   2.113   4.772
  174SLPC  C21419700   2.792   1.920   4.770
  174SLPC  H14R19701   2.766   1.842   4.845
  174SLPC  H14S19702   2.839   1.865   4.686
  174SLPC  C21519703   2.657   1.981   4.716
  174SLPC  H15R19704   2.598   2.022   4.801
  174SLPC  H15S19705   2.594   1.899   4.674
  174SLPC  C21619706   2.668   2.085   4.596
  174SLPC  H16R19707   2.731   2.045   4.514
  174SLPC  H16S19708   2.721   2.176   4.634
  174SLPC  C21719709   2.538   2.127   4.524
  174SLPC  H17R19710   2.454   2.157   4.591
  174SLPC  H17S19711   2.488   2.035   4.490
  174SLPC  C21819712   2.553   2.231   4.420
  174SLPC  H18R19713   2.454   2.260   4.379
  174SLPC  H18S19714   2.619   2.199   4.336
  174SLPC  H18T19715   2.605   2.320   4.462
  174SLPC   C3319716   3.464   2.156   6.320
  174SLPC   H3X19717   3.526   2.065   6.301
  174SLPC   H3Y19718   3.542   2.234   6.302
  174SLPC   C3419719   3.364   2.171   6.204
  174SLPC   H4X19720   3.290   2.252   6.223
  174SLPC   H4Y19721   3.307   2.075   6.210
  174SLPC   C3519722   3.412   2.192   6.064
  174SLPC   H5X19723   3.486   2.116   6.032
  174SLPC   H5Y19724   3.462   2.290   6.046
  174SLPC   C3619725   3.303   2.162   5.960
  174SLPC   H6X19726   3.211   2.219   5.983
  174SLPC   H6Y19727   3.286   2.052   5.967
  174SLPC   C3719728   3.364   2.181   5.813
  174SLPC   H7X19729   3.450   2.112   5.805
  174SLPC   H7Y19730   3.412   2.281   5.805
  174SLPC   C3819731   3.255   2.152   5.710
  174SLPC   H8X19732   3.176   2.228   5.727
  174SLPC   H8Y19733   3.200   2.057   5.722
  174SLPC   C3919734   3.302   2.179   5.563
  174SLPC   H9X19735   3.394   2.121   5.540
  174SLPC   H9Y19736   3.332   2.286   5.559
  174SLPC  C31019737   3.194   2.156   5.452
  174SLPC  H10X19738   3.103   2.209   5.487
  174SLPC  H10Y19739   3.168   2.049   5.442
  174SLPC  C31119740   3.221   2.227   5.319
  174SLPC  H11X19741   3.224   2.337   5.332
  174SLPC  H11Y19742   3.133   2.217   5.251
  174SLPC  C31219743   3.345   2.172   5.250
  174SLPC  H12X19744   3.329   2.063   5.232
  174SLPC  H12Y19745   3.432   2.178   5.320
  174SLPC  C31319746   3.372   2.236   5.111
  174SLPC  H13X19747   3.470   2.207   5.068
  174SLPC  H13Y19748   3.388   2.345   5.118
  174SLPC  C31419749   3.265   2.211   5.003
  174SLPC  H14X19750   3.163   2.208   5.046
  174SLPC  H14Y19751   3.297   2.117   4.954
  174SLPC  C31519752   3.266   2.321   4.899
  174SLPC  H15X19753   3.369   2.320   4.858
  174SLPC  H15Y19754   3.260   2.408   4.969
  174SLPC  C31619755   3.150   2.326   4.799
  174SLPC  H16X19756   3.048   2.309   4.840
  174SLPC  H16Y19757   3.167   2.244   4.726
  174SLPC  C31719758   3.147   2.456   4.718
  174SLPC  H17X19759   3.110   2.549   4.767
  174SLPC  H17Y19760   3.063   2.434   4.649
  174SLPC  C31819761   3.272   2.473   4.633
  174SLPC  H18X19762   3.359   2.501   4.696
  174SLPC  H18Y19763   3.242   2.540   4.550
  174SLPC  H18Z19764   3.293   2.381   4.575
  175SLPC     N19765   6.309   3.072   6.956
  175SLPC   C1319766   6.212   3.172   7.007
  175SLPC  H13A19767   6.142   3.209   6.933
  175SLPC  H13B19768   6.142   3.133   7.079
  175SLPC  H13C19769   6.265   3.261   7.038
  175SLPC   C1419770   6.387   3.000   7.062
  175SLPC  H14A19771   6.446   2.930   7.004
  175SLPC  H14B19772   6.454   3.067   7.115
  175SLPC  H14C19773   6.333   2.939   7.131
  175SLPC   C1519774   6.406   3.137   6.867
  175SLPC  H15A19775   6.480   3.075   6.818
  175SLPC  H15B19776   6.360   3.195   6.788
  175SLPC  H15C19777   6.462   3.209   6.924
  175SLPC   C1219778   6.234   2.971   6.874
  175SLPC  H12A19779   6.155   2.941   6.942
  175SLPC  H12B19780   6.294   2.883   6.862
  175SLPC   C1119781   6.170   3.021   6.737
  175SLPC  H11A19782   6.107   2.940   6.696
  175SLPC  H11B19783   6.258   3.037   6.671
  175SLPC     P19784   5.928   3.137   6.764
  175SLPC   O1319785   5.890   3.040   6.866
  175SLPC   O1419786   5.878   3.277   6.786
  175SLPC   O1219787   6.087   3.139   6.746
  175SLPC   O1119788   5.896   3.080   6.619
  175SLPC    C119789   5.842   2.945   6.592
  175SLPC    HA19790   5.922   2.871   6.616
  175SLPC    HB19791   5.746   2.922   6.643
  175SLPC    C219792   5.819   2.918   6.442
  175SLPC    HS19793   5.802   2.809   6.427
  175SLPC   O2119794   5.926   2.950   6.351
  175SLPC   C2119795   6.047   2.909   6.382
  175SLPC   O2219796   6.076   2.806   6.443
  175SLPC   C2219797   6.154   2.991   6.320
  175SLPC   H2R19798   6.154   3.081   6.384
  175SLPC   H2S19799   6.254   2.948   6.342
  175SLPC    C319800   5.690   2.989   6.390
  175SLPC    HX19801   5.730   3.088   6.357
  175SLPC    HY19802   5.611   3.004   6.466
  175SLPC   O3119803   5.627   2.923   6.278
  175SLPC   C3119804   5.553   3.006   6.203
  175SLPC   O3219805   5.516   3.116   6.234
  175SLPC   C3219806   5.532   2.944   6.062
  175SLPC   H2X19807   5.449   2.870   6.068
  175SLPC   H2Y19808   5.615   2.874   6.041
  175SLPC   C2319809   6.126   3.027   6.172
  175SLPC   H3R19810   6.210   3.083   6.125
  175SLPC   H3S19811   6.048   3.105   6.188
  175SLPC   C2419812   6.074   2.915   6.086
  175SLPC   H4R19813   5.975   2.887   6.128
  175SLPC   H4S19814   6.154   2.839   6.100
  175SLPC   C2519815   6.079   2.950   5.931
  175SLPC   H5R19816   6.183   2.972   5.900
  175SLPC   H5S19817   6.021   3.044   5.923
  175SLPC   C2619818   6.033   2.828   5.841
  175SLPC   H6R19819   5.965   2.761   5.898
  175SLPC   H6S19820   6.125   2.768   5.825
  175SLPC   C2719821   5.953   2.864   5.716
  175SLPC   H7R19822   6.007   2.943   5.659
  175SLPC   H7S19823   5.860   2.919   5.743
  175SLPC   C2819824   5.917   2.748   5.626
  175SLPC   H8R19825   5.822   2.769   5.573
  175SLPC   H8S19826   5.893   2.662   5.693
  175SLPC   C2919827   6.026   2.716   5.524
  175SLPC   H9R19828   6.116   2.664   5.560
  175SLPC  C21019829   6.031   2.757   5.396
  175SLPC  H10R19830   6.108   2.730   5.321
  175SLPC  C21119831   5.927   2.853   5.345
  175SLPC  H11R19832   5.974   2.911   5.262
  175SLPC  H11S19833   5.905   2.922   5.428
  175SLPC  C21219834   5.808   2.775   5.294
  175SLPC  H12R19835   5.719   2.759   5.356
  175SLPC  C21319836   5.805   2.716   5.173
  175SLPC  H13R19837   5.724   2.654   5.132
  175SLPC  C21419838   5.915   2.715   5.068
  175SLPC  H14R19839   5.965   2.616   5.058
  175SLPC  H14S19840   5.988   2.796   5.085
  175SLPC  C21519841   5.846   2.754   4.928
  175SLPC  H15R19842   5.766   2.831   4.932
  175SLPC  H15S19843   5.799   2.658   4.896
  175SLPC  C21619844   5.952   2.790   4.825
  175SLPC  H16R19845   6.028   2.709   4.830
  175SLPC  H16S19846   5.991   2.891   4.848
  175SLPC  C21719847   5.904   2.790   4.679
  175SLPC  H17R19848   5.928   2.687   4.644
  175SLPC  H17S19849   5.968   2.859   4.620
  175SLPC  C21819850   5.759   2.830   4.653
  175SLPC  H18R19851   5.730   2.835   4.546
  175SLPC  H18S19852   5.742   2.928   4.703
  175SLPC  H18T19853   5.692   2.768   4.716
  175SLPC   C3319854   5.523   3.054   5.944
  175SLPC   H3X19855   5.626   3.088   5.921
  175SLPC   H3Y19856   5.469   3.141   5.987
  175SLPC   C3419857   5.455   2.997   5.822
  175SLPC   H4X19858   5.352   3.036   5.805
  175SLPC   H4Y19859   5.450   2.887   5.840
  175SLPC   C3519860   5.517   3.034   5.687
  175SLPC   H5X19861   5.622   3.000   5.687
  175SLPC   H5Y19862   5.501   3.144   5.680
  175SLPC   C3619863   5.442   2.959   5.579
  175SLPC   H6X19864   5.338   2.996   5.566
  175SLPC   H6Y19865   5.432   2.852   5.606
  175SLPC   C3719866   5.508   2.973   5.440
  175SLPC   H7X19867   5.613   2.943   5.459
  175SLPC   H7Y19868   5.507   3.082   5.420
  175SLPC   C3819869   5.423   2.907   5.331
  175SLPC   H8X19870   5.316   2.920   5.357
  175SLPC   H8Y19871   5.434   2.798   5.351
  175SLPC   C3919872   5.478   2.940   5.190
  175SLPC   H9X19873   5.581   2.905   5.166
  175SLPC   H9Y19874   5.478   3.051   5.192
  175SLPC  C31019875   5.381   2.873   5.088
  175SLPC  H10X19876   5.275   2.904   5.101
  175SLPC  H10Y19877   5.382   2.763   5.102
  175SLPC  C31119878   5.420   2.905   4.940
  175SLPC  H11X19879   5.526   2.876   4.920
  175SLPC  H11Y19880   5.403   3.013   4.918
  175SLPC  C31219881   5.335   2.819   4.849
  175SLPC  H12X19882   5.223   2.822   4.848
  175SLPC  H12Y19883   5.353   2.712   4.872
  175SLPC  C31319884   5.375   2.835   4.702
  175SLPC  H13X19885   5.336   2.750   4.641
  175SLPC  H13Y19886   5.486   2.828   4.713
  175SLPC  C31419887   5.319   2.967   4.646
  175SLPC  H14X19888   5.369   3.045   4.707
  175SLPC  H14Y19889   5.210   2.977   4.662
  175SLPC  C31519890   5.354   2.986   4.501
  175SLPC  H15X19891   5.461   2.973   4.472
  175SLPC  H15Y19892   5.338   3.091   4.467
  175SLPC  C31619893   5.283   2.897   4.401
  175SLPC  H16X19894   5.174   2.914   4.407
  175SLPC  H16Y19895   5.296   2.793   4.437
  175SLPC  C31719896   5.333   2.916   4.261
  175SLPC  H17X19897   5.443   2.935   4.263
  175SLPC  H17Y19898   5.290   3.006   4.213
  175SLPC  C31819899   5.304   2.806   4.158
  175SLPC  H18X19900   5.365   2.819   4.066
  175SLPC  H18Y19901   5.196   2.809   4.132
  175SLPC  H18Z19902   5.333   2.706   4.197
  176SLPC     N19903   5.327   0.604   7.095
  176SLPC   C1319904   5.323   0.518   6.972
  176SLPC  H13A19905   5.342   0.414   6.990
  176SLPC  H13B19906   5.230   0.509   6.918
  176SLPC  H13C19907   5.396   0.549   6.899
  176SLPC   C1419908   5.235   0.551   7.202
  176SLPC  H14A19909   5.270   0.451   7.222
  176SLPC  H14B19910   5.246   0.612   7.291
  176SLPC  H14C19911   5.137   0.548   7.158
  176SLPC   C1519912   5.280   0.744   7.067
  176SLPC  H15A19913   5.336   0.796   6.991
  176SLPC  H15B19914   5.180   0.745   7.026
  176SLPC  H15C19915   5.275   0.803   7.157
  176SLPC   C1219916   5.470   0.609   7.144
  176SLPC  H12A19917   5.510   0.516   7.182
  176SLPC  H12B19918   5.469   0.672   7.232
  176SLPC   C1119919   5.573   0.673   7.046
  176SLPC  H11A19920   5.637   0.751   7.094
  176SLPC  H11B19921   5.509   0.734   6.978
  176SLPC     P19922   5.757   0.481   7.036
  176SLPC   O1319923   5.870   0.567   7.082
  176SLPC   O1419924   5.697   0.384   7.139
  176SLPC   O1219925   5.635   0.572   6.972
  176SLPC   O1119926   5.812   0.390   6.920
  176SLPC    C119927   5.918   0.426   6.836
  176SLPC    HA19928   5.990   0.500   6.878
  176SLPC    HB19929   5.977   0.337   6.805
  176SLPC    C219930   5.867   0.475   6.698
  176SLPC    HS19931   5.952   0.532   6.654
  176SLPC   O2119932   5.745   0.549   6.712
  176SLPC   C2119933   5.761   0.680   6.680
  176SLPC   O2219934   5.861   0.737   6.638
  176SLPC   C2219935   5.630   0.756   6.706
  176SLPC   H2R19936   5.543   0.688   6.715
  176SLPC   H2S19937   5.641   0.804   6.805
  176SLPC    C319938   5.827   0.349   6.617
  176SLPC    HX19939   5.734   0.300   6.652
  176SLPC    HY19940   5.916   0.286   6.638
  176SLPC   O3119941   5.827   0.366   6.472
  176SLPC   C3119942   5.705   0.398   6.412
  176SLPC   O3219943   5.598   0.378   6.465
  176SLPC   C3219944   5.722   0.453   6.272
  176SLPC   H2X19945   5.820   0.439   6.221
  176SLPC   H2Y19946   5.711   0.562   6.292
  176SLPC   C2319947   5.611   0.859   6.597
  176SLPC   H3R19948   5.709   0.906   6.570
  176SLPC   H3S19949   5.554   0.944   6.640
  176SLPC   C2419950   5.547   0.783   6.474
  176SLPC   H4R19951   5.454   0.736   6.513
  176SLPC   H4S19952   5.619   0.719   6.419
  176SLPC   C2519953   5.512   0.888   6.365
  176SLPC   H5R19954   5.444   0.971   6.393
  176SLPC   H5S19955   5.466   0.830   6.282
  176SLPC   C2619956   5.639   0.956   6.307
  176SLPC   H6R19957   5.699   0.870   6.272
  176SLPC   H6S19958   5.689   1.000   6.396
  176SLPC   C2719959   5.599   1.067   6.211
  176SLPC   H7R19960   5.692   1.103   6.162
  176SLPC   H7S19961   5.554   1.157   6.259
  176SLPC   C2819962   5.500   1.023   6.096
  176SLPC   H8R19963   5.453   1.113   6.050
  176SLPC   H8S19964   5.404   0.981   6.134
  176SLPC   C2919965   5.559   0.926   5.994
  176SLPC   H9R19966   5.595   0.833   6.039
  176SLPC  C21019967   5.610   0.965   5.878
  176SLPC  H10R19968   5.673   0.888   5.832
  176SLPC  C21119969   5.585   1.087   5.801
  176SLPC  H11R19970   5.492   1.141   5.829
  176SLPC  H11S19971   5.557   1.047   5.701
  176SLPC  C21219972   5.703   1.172   5.805
  176SLPC  H12R19973   5.756   1.182   5.901
  176SLPC  C21319974   5.742   1.252   5.708
  176SLPC  H13R19975   5.835   1.311   5.720
  176SLPC  C21419976   5.686   1.266   5.567
  176SLPC  H14R19977   5.677   1.372   5.535
  176SLPC  H14S19978   5.584   1.223   5.560
  176SLPC  C21519979   5.777   1.195   5.464
  176SLPC  H15R19980   5.774   1.086   5.482
  176SLPC  H15S19981   5.875   1.247   5.472
  176SLPC  C21619982   5.731   1.221   5.322
  176SLPC  H16R19983   5.712   1.328   5.302
  176SLPC  H16S19984   5.633   1.179   5.290
  176SLPC  C21719985   5.854   1.186   5.222
  176SLPC  H17R19986   5.948   1.237   5.253
  176SLPC  H17S19987   5.825   1.228   5.123
  176SLPC  C21819988   5.877   1.035   5.199
  176SLPC  H18R19989   5.786   0.982   5.164
  176SLPC  H18S19990   5.900   0.978   5.291
  176SLPC  H18T19991   5.956   1.026   5.122
  176SLPC   C3319992   5.610   0.388   6.186
  176SLPC   H3X19993   5.516   0.439   6.214
  176SLPC   H3Y19994   5.605   0.278   6.203
  176SLPC   C3419995   5.623   0.410   6.033
  176SLPC   H4X19996   5.538   0.356   5.986
  176SLPC   H4Y19997   5.714   0.356   5.998
  176SLPC   C3519998   5.627   0.556   5.983
  176SLPC   H5X19999   5.705   0.606   6.045
  176SLPC   H5Y20000   5.535   0.612   6.010
  176SLPC   C3620001   5.648   0.578   5.836
  176SLPC   H6X20002   5.756   0.577   5.813
  176SLPC   H6Y20003   5.622   0.683   5.810
  176SLPC   C3720004   5.566   0.492   5.743
  176SLPC   H7X20005   5.478   0.471   5.807
  176SLPC   H7Y20006   5.633   0.405   5.728
  176SLPC   C3820007   5.528   0.550   5.611
  176SLPC   H8X20008   5.482   0.650   5.619
  176SLPC   H8Y20009   5.451   0.483   5.566
  176SLPC   C3920010   5.654   0.567   5.516
  176SLPC   H9X20011   5.706   0.469   5.511
  176SLPC   H9Y20012   5.725   0.624   5.580
  176SLPC  C31020013   5.621   0.629   5.385
  176SLPC  H10X20014   5.602   0.735   5.415
  176SLPC  H10Y20015   5.533   0.587   5.332
  176SLPC  C31120016   5.733   0.617   5.285
  176SLPC  H11X20017   5.755   0.510   5.264
  176SLPC  H11Y20018   5.832   0.661   5.309
  176SLPC  C31220019   5.694   0.681   5.156
  176SLPC  H12X20020   5.657   0.785   5.166
  176SLPC  H12Y20021   5.604   0.628   5.117
  176SLPC  C31320022   5.797   0.675   5.045
  176SLPC  H13X20023   5.824   0.567   5.039
  176SLPC  H13Y20024   5.893   0.724   5.072
  176SLPC  C31420025   5.758   0.724   4.903
  176SLPC  H14X20026   5.717   0.827   4.913
  176SLPC  H14Y20027   5.678   0.655   4.870
  176SLPC  C31520028   5.861   0.727   4.789
  176SLPC  H15X20029   5.954   0.782   4.816
  176SLPC  H15Y20030   5.808   0.773   4.704
  176SLPC  C31620031   5.894   0.586   4.748
  176SLPC  H16X20032   5.804   0.522   4.757
  176SLPC  H16Y20033   5.962   0.547   4.827
  176SLPC  C31720034   5.937   0.580   4.605
  176SLPC  H17X20035   6.044   0.609   4.591
  176SLPC  H17Y20036   5.884   0.661   4.550
  176SLPC  C31820037   5.911   0.444   4.544
  176SLPC  H18X20038   5.939   0.451   4.436
  176SLPC  H18Y20039   5.800   0.434   4.542
  176SLPC  H18Z20040   5.964   0.360   4.594
  177SLPC     N20041   5.520   2.084   7.057
  177SLPC   C1320042   5.622   2.128   6.953
  177SLPC  H13A20043   5.640   2.052   6.878
  177SLPC  H13B20044   5.576   2.205   6.893
  177SLPC  H13C20045   5.713   2.166   6.996
  177SLPC   C1420046   5.493   2.186   7.170
  177SLPC  H14A20047   5.418   2.142   7.234
  177SLPC  H14B20048   5.580   2.221   7.223
  177SLPC  H14C20049   5.453   2.281   7.140
  177SLPC   C1520050   5.579   1.965   7.140
  177SLPC  H15A20051   5.580   1.886   7.066
  177SLPC  H15B20052   5.680   1.982   7.175
  177SLPC  H15C20053   5.508   1.952   7.220
  177SLPC   C1220054   5.395   2.033   6.985
  177SLPC  H12A20055   5.348   2.117   6.935
  177SLPC  H12B20056   5.327   2.018   7.068
  177SLPC   C1120057   5.385   1.916   6.887
  177SLPC  H11A20058   5.397   1.826   6.951
  177SLPC  H11B20059   5.463   1.901   6.810
  177SLPC     P20060   5.199   1.955   6.691
  177SLPC   O1320061   5.102   1.842   6.668
  177SLPC   O1420062   5.145   2.093   6.662
  177SLPC   O1220063   5.256   1.928   6.832
  177SLPC   O1120064   5.326   1.918   6.599
  177SLPC    C120065   5.423   2.016   6.564
  177SLPC    HA20066   5.428   2.100   6.637
  177SLPC    HB20067   5.526   1.974   6.554
  177SLPC    C220068   5.391   2.091   6.425
  177SLPC    HS20069   5.288   2.130   6.436
  177SLPC   O2120070   5.396   1.991   6.322
  177SLPC   C2120071   5.276   1.933   6.295
  177SLPC   O2220072   5.166   1.968   6.338
  177SLPC   C2220073   5.297   1.819   6.205
  177SLPC   H2R20074   5.403   1.818   6.173
  177SLPC   H2S20075   5.274   1.733   6.271
  177SLPC    C320076   5.486   2.209   6.406
  177SLPC    HX20077   5.469   2.274   6.495
  177SLPC    HY20078   5.441   2.257   6.316
  177SLPC   O3120079   5.631   2.174   6.394
  177SLPC   C3120080   5.676   2.159   6.268
  177SLPC   O3220081   5.611   2.175   6.171
  177SLPC   C3220082   5.832   2.150   6.272
  177SLPC   H2X20083   5.855   2.049   6.313
  177SLPC   H2Y20084   5.868   2.222   6.349
  177SLPC   C2320085   5.193   1.811   6.089
  177SLPC   H3R20086   5.225   1.867   5.998
  177SLPC   H3S20087   5.097   1.854   6.124
  177SLPC   C2420088   5.172   1.667   6.039
  177SLPC   H4R20089   5.108   1.603   6.103
  177SLPC   H4S20090   5.275   1.627   6.046
  177SLPC   C2520091   5.116   1.643   5.902
  177SLPC   H5R20092   5.049   1.725   5.868
  177SLPC   H5S20093   5.048   1.555   5.897
  177SLPC   C2620094   5.225   1.623   5.794
  177SLPC   H6R20095   5.298   1.707   5.787
  177SLPC   H6S20096   5.178   1.627   5.693
  177SLPC   C2720097   5.294   1.492   5.817
  177SLPC   H7R20098   5.211   1.425   5.846
  177SLPC   H7S20099   5.363   1.506   5.903
  177SLPC   C2820100   5.355   1.437   5.695
  177SLPC   H8R20101   5.277   1.402   5.624
  177SLPC   H8S20102   5.414   1.348   5.727
  177SLPC   C2920103   5.438   1.546   5.620
  177SLPC   H9R20104   5.528   1.578   5.674
  177SLPC  C21020105   5.427   1.593   5.492
  177SLPC  H10R20106   5.489   1.677   5.457
  177SLPC  C21120107   5.330   1.547   5.385
  177SLPC  H11R20108   5.288   1.641   5.344
  177SLPC  H11S20109   5.250   1.481   5.424
  177SLPC  C21220110   5.404   1.471   5.279
  177SLPC  H12R20111   5.484   1.402   5.310
  177SLPC  C21320112   5.392   1.493   5.146
  177SLPC  H13R20113   5.450   1.424   5.083
  177SLPC  C21420114   5.302   1.582   5.063
  177SLPC  H14R20115   5.371   1.635   4.993
  177SLPC  H14S20116   5.251   1.660   5.122
  177SLPC  C21520117   5.194   1.509   4.984
  177SLPC  H15R20118   5.136   1.582   4.924
  177SLPC  H15S20119   5.122   1.465   5.057
  177SLPC  C21620120   5.256   1.409   4.876
  177SLPC  H16R20121   5.298   1.325   4.935
  177SLPC  H16S20122   5.349   1.453   4.833
  177SLPC  C21720123   5.158   1.368   4.766
  177SLPC  H17R20124   5.132   1.465   4.718
  177SLPC  H17S20125   5.067   1.316   4.804
  177SLPC  C21820126   5.230   1.281   4.662
  177SLPC  H18R20127   5.319   1.325   4.610
  177SLPC  H18S20128   5.144   1.275   4.592
  177SLPC  H18T20129   5.255   1.183   4.707
  177SLPC   C3320130   5.907   2.161   6.133
  177SLPC   H3X20131   5.852   2.234   6.069
  177SLPC   H3Y20132   5.908   2.064   6.080
  177SLPC   C3420133   6.051   2.201   6.155
  177SLPC   H4X20134   6.105   2.137   6.228
  177SLPC   H4Y20135   6.045   2.306   6.192
  177SLPC   C3520136   6.142   2.183   6.022
  177SLPC   H5X20137   6.133   2.076   5.994
  177SLPC   H5Y20138   6.246   2.212   6.050
  177SLPC   C3620139   6.094   2.274   5.910
  177SLPC   H6X20140   6.086   2.377   5.950
  177SLPC   H6Y20141   5.992   2.248   5.872
  177SLPC   C3720142   6.180   2.260   5.783
  177SLPC   H7X20143   6.196   2.152   5.760
  177SLPC   H7Y20144   6.279   2.306   5.804
  177SLPC   C3820145   6.119   2.347   5.669
  177SLPC   H8X20146   6.192   2.337   5.586
  177SLPC   H8Y20147   6.099   2.448   5.711
  177SLPC   C3920148   5.983   2.311   5.617
  177SLPC   H9X20149   5.931   2.394   5.564
  177SLPC   H9Y20150   5.922   2.283   5.706
  177SLPC  C31020151   5.996   2.197   5.520
  177SLPC  H10X20152   5.910   2.128   5.538
  177SLPC  H10Y20153   6.083   2.128   5.523
  177SLPC  C31120154   6.010   2.246   5.372
  177SLPC  H11X20155   6.111   2.292   5.361
  177SLPC  H11Y20156   5.932   2.321   5.346
  177SLPC  C31220157   6.011   2.133   5.265
  177SLPC  H12X20158   5.916   2.076   5.272
  177SLPC  H12Y20159   6.104   2.072   5.274
  177SLPC  C31320160   6.003   2.189   5.123
  177SLPC  H13X20161   5.922   2.264   5.107
  177SLPC  H13Y20162   5.986   2.110   5.047
  177SLPC  C31420163   6.122   2.271   5.074
  177SLPC  H14X20164   6.212   2.210   5.096
  177SLPC  H14Y20165   6.137   2.366   5.129
  177SLPC  C31520166   6.107   2.296   4.922
  177SLPC  H15X20167   6.006   2.337   4.900
  177SLPC  H15Y20168   6.117   2.199   4.868
  177SLPC  C31620169   6.217   2.389   4.870
  177SLPC  H16X20170   6.316   2.342   4.890
  177SLPC  H16Y20171   6.206   2.483   4.929
  177SLPC  C31720172   6.207   2.423   4.720
  177SLPC  H17X20173   6.110   2.475   4.703
  177SLPC  H17Y20174   6.218   2.335   4.653
  177SLPC  C31820175   6.318   2.519   4.682
  177SLPC  H18X20176   6.298   2.564   4.583
  177SLPC  H18Y20177   6.414   2.463   4.689
  177SLPC  H18Z20178   6.325   2.608   4.749
  178SLPC     N20179   2.014   6.617   6.494
  178SLPC   C1320180   1.881   6.615   6.560
  178SLPC  H13A20181   1.810   6.561   6.499
  178SLPC  H13B20182   1.878   6.571   6.659
  178SLPC  H13C20183   1.848   6.717   6.571
  178SLPC   C1420184   2.100   6.717   6.555
  178SLPC  H14A20185   2.057   6.815   6.538
  178SLPC  H14B20186   2.108   6.701   6.662
  178SLPC  H14C20187   2.200   6.717   6.515
  178SLPC   C1520188   2.008   6.662   6.349
  178SLPC  H15A20189   2.109   6.660   6.311
  178SLPC  H15B20190   1.942   6.597   6.294
  178SLPC  H15C20191   1.982   6.767   6.357
  178SLPC   C1220192   2.066   6.474   6.489
  178SLPC  H12A20193   2.158   6.464   6.434
  178SLPC  H12B20194   1.995   6.409   6.439
  178SLPC   C1120195   2.109   6.418   6.631
  178SLPC  H11A20196   2.016   6.401   6.689
  178SLPC  H11B20197   2.172   6.492   6.685
  178SLPC     P20198   2.154   6.162   6.663
  178SLPC   O1320199   2.228   6.151   6.796
  178SLPC   O1420200   2.006   6.145   6.669
  178SLPC   O1220201   2.184   6.301   6.608
  178SLPC   O1120202   2.222   6.067   6.548
  178SLPC    C120203   2.333   6.110   6.469
  178SLPC    HA20204   2.407   6.159   6.535
  178SLPC    HB20205   2.379   6.016   6.431
  178SLPC    C220206   2.290   6.193   6.344
  178SLPC    HS20207   2.247   6.289   6.380
  178SLPC   O2120208   2.195   6.124   6.262
  178SLPC   C2120209   2.097   6.193   6.212
  178SLPC   O2220210   2.060   6.299   6.257
  178SLPC   C2220211   2.041   6.124   6.080
  178SLPC   H2R20212   2.128   6.075   6.031
  178SLPC   H2S20213   1.966   6.049   6.113
  178SLPC    C320214   2.408   6.221   6.255
  178SLPC    HX20215   2.435   6.126   6.204
  178SLPC    HY20216   2.497   6.251   6.315
  178SLPC   O3120217   2.378   6.316   6.152
  178SLPC   C3120218   2.390   6.447   6.186
  178SLPC   O3220219   2.407   6.484   6.304
  178SLPC   C3220220   2.357   6.533   6.069
  178SLPC   H2X20221   2.302   6.623   6.103
  178SLPC   H2Y20222   2.286   6.481   6.001
  178SLPC   C2320223   1.983   6.218   5.967
  178SLPC   H3R20224   1.900   6.285   6.000
  178SLPC   H3S20225   1.951   6.150   5.885
  178SLPC   C2420226   2.088   6.307   5.899
  178SLPC   H4R20227   2.187   6.258   5.909
  178SLPC   H4S20228   2.092   6.402   5.957
  178SLPC   C2520229   2.061   6.336   5.753
  178SLPC   H5R20230   1.952   6.346   5.734
  178SLPC   H5S20231   2.089   6.246   5.694
  178SLPC   C2620232   2.135   6.460   5.698
  178SLPC   H6R20233   2.243   6.435   5.708
  178SLPC   H6S20234   2.116   6.552   5.758
  178SLPC   C2720235   2.088   6.491   5.554
  178SLPC   H7R20236   1.979   6.511   5.560
  178SLPC   H7S20237   2.101   6.397   5.497
  178SLPC   C2820238   2.149   6.610   5.481
  178SLPC   H8R20239   2.121   6.696   5.545
  178SLPC   H8S20240   2.106   6.619   5.379
  178SLPC   C2920241   2.300   6.595   5.460
  178SLPC   H9R20242   2.331   6.495   5.427
  178SLPC  C21020243   2.393   6.680   5.504
  178SLPC  H10R20244   2.498   6.666   5.474
  178SLPC  C21120245   2.369   6.821   5.556
  178SLPC  H11R20246   2.310   6.869   5.475
  178SLPC  H11S20247   2.469   6.869   5.559
  178SLPC  C21220248   2.317   6.831   5.704
  178SLPC  H12R20249   2.281   6.740   5.755
  178SLPC  C21320250   2.290   0.060   5.769
  178SLPC  H13R20251   2.247   0.048   5.870
  178SLPC  C21420252   2.317   0.199   5.732
  178SLPC  H14R20253   2.229   0.259   5.763
  178SLPC  H14S20254   2.329   0.219   5.624
  178SLPC  C21520255   2.452   0.236   5.792
  178SLPC  H15R20256   2.531   0.169   5.753
  178SLPC  H15S20257   2.448   0.225   5.903
  178SLPC  C21620258   2.511   0.377   5.753
  178SLPC  H16R20259   2.608   0.389   5.804
  178SLPC  H16S20260   2.447   0.459   5.792
  178SLPC  C21720261   2.529   0.390   5.594
  178SLPC  H17R20262   2.426   0.385   5.551
  178SLPC  H17S20263   2.578   0.301   5.549
  178SLPC  C21820264   2.600   0.519   5.552
  178SLPC  H18R20265   2.591   0.534   5.442
  178SLPC  H18S20266   2.709   0.527   5.572
  178SLPC  H18T20267   2.556   0.611   5.596
  178SLPC   C3320268   2.479   6.564   5.978
  178SLPC   H3X20269   2.439   6.635   5.903
  178SLPC   H3Y20270   2.515   6.473   5.925
  178SLPC   C3420271   2.597   6.649   6.032
  178SLPC   H4X20272   2.641   6.604   6.124
  178SLPC   H4Y20273   2.557   6.750   6.055
  178SLPC   C3520274   2.712   6.661   5.932
  178SLPC   H5X20275   2.746   6.560   5.901
  178SLPC   H5Y20276   2.788   6.716   5.991
  178SLPC   C3620277   2.669   6.754   5.815
  178SLPC   H6X20278   2.629   6.850   5.854
  178SLPC   H6Y20279   2.588   6.706   5.756
  178SLPC   C3720280   2.786   6.778   5.711
  178SLPC   H7X20281   2.827   6.684   5.668
  178SLPC   H7Y20282   2.879   6.810   5.764
  178SLPC   C3820283   2.756   6.879   5.602
  178SLPC   H8X20284   2.732   0.092   5.646
  178SLPC   H8Y20285   2.675   6.840   5.536
  178SLPC   C3920286   2.882   0.025   5.522
  178SLPC   H9X20287   2.923   6.824   5.468
  178SLPC   H9Y20288   2.963   0.048   5.594
  178SLPC  C31020289   2.851   0.142   5.434
  178SLPC  H10X20290   2.810   0.226   5.494
  178SLPC  H10Y20291   2.771   0.120   5.359
  178SLPC  C31120292   2.979   0.198   5.360
  178SLPC  H11X20293   3.023   0.104   5.320
  178SLPC  H11Y20294   3.056   0.240   5.428
  178SLPC  C31220295   2.941   0.300   5.263
  178SLPC  H12X20296   2.896   0.381   5.324
  178SLPC  H12Y20297   2.867   0.278   5.184
  178SLPC  C31320298   3.056   0.363   5.191
  178SLPC  H13X20299   3.144   0.378   5.257
  178SLPC  H13Y20300   3.029   0.466   5.161
  178SLPC  C31420301   3.093   0.288   5.068
  178SLPC  H14X20302   3.006   0.245   5.014
  178SLPC  H14Y20303   3.146   0.199   5.109
  178SLPC  C31520304   3.179   0.375   4.972
  178SLPC  H15X20305   3.257   0.429   5.029
  178SLPC  H15Y20306   3.118   0.460   4.933
  178SLPC  C31620307   3.245   0.296   4.862
  178SLPC  H16X20308   3.177   0.223   4.813
  178SLPC  H16Y20309   3.328   0.239   4.908
  178SLPC  C31720310   3.315   0.381   4.756
  178SLPC  H17X20311   3.409   0.430   4.788
  178SLPC  H17Y20312   3.259   0.466   4.713
  178SLPC  C31820313   3.345   0.298   4.630
  178SLPC  H18X20314   3.246   0.257   4.599
  178SLPC  H18Y20315   3.416   0.213   4.637
  178SLPC  H18Z20316   3.386   0.363   4.550
  179SLPC     N20317   4.324   1.944   1.995
  179SLPC   C1320318   4.379   1.975   1.860
  179SLPC  H13A20319   4.487   1.967   1.863
  179SLPC  H13B20320   4.361   1.890   1.796
  179SLPC  H13C20321   4.350   2.069   1.817
  179SLPC   C1420322   4.357   2.055   2.094
  179SLPC  H14A20323   4.309   2.042   2.189
  179SLPC  H14B20324   4.464   2.061   2.109
  179SLPC  H14C20325   4.322   2.147   2.048
  179SLPC   C1520326   4.388   1.815   2.040
  179SLPC  H15A20327   4.381   1.738   1.965
  179SLPC  H15B20328   4.494   1.831   2.054
  179SLPC  H15C20329   4.340   1.778   2.129
  179SLPC   C1220330   4.176   1.940   1.981
  179SLPC  H12A20331   4.154   1.860   1.912
  179SLPC  H12B20332   4.151   2.032   1.930
  179SLPC   C1120333   4.084   1.908   2.101
  179SLPC  H11A20334   3.979   1.932   2.074
  179SLPC  H11B20335   4.114   1.974   2.186
  179SLPC     P20336   3.999   1.649   2.103
  179SLPC   O1320337   3.984   1.653   1.959
  179SLPC   O1420338   4.055   1.524   2.162
  179SLPC   O1220339   4.099   1.769   2.141
  179SLPC   O1120340   3.867   1.703   2.170
  179SLPC    C120341   3.874   1.705   2.314
  179SLPC    HA20342   3.971   1.735   2.359
  179SLPC    HB20343   3.801   1.776   2.358
  179SLPC    C220344   3.840   1.565   2.377
  179SLPC    HS20345   3.931   1.509   2.347
  179SLPC   O2120346   3.717   1.505   2.317
  179SLPC   C2120347   3.709   1.376   2.350
  179SLPC   O2220348   3.800   1.305   2.392
  179SLPC   C2220349   3.562   1.332   2.326
  179SLPC   H2R20350   3.499   1.415   2.365
  179SLPC   H2S20351   3.545   1.337   2.216
  179SLPC    C320352   3.827   1.587   2.535
  179SLPC    HX20353   3.732   1.646   2.534
  179SLPC    HY20354   3.909   1.651   2.575
  179SLPC   O3120355   3.813   1.463   2.606
  179SLPC   C3120356   3.937   1.414   2.629
  179SLPC   O3220357   4.044   1.465   2.599
  179SLPC   C3220358   3.927   1.294   2.719
  179SLPC   H2X20359   3.846   1.227   2.685
  179SLPC   H2Y20360   3.899   1.327   2.822
  179SLPC   C2320361   3.522   1.191   2.392
  179SLPC   H3R20362   3.595   1.113   2.360
  179SLPC   H3S20363   3.429   1.164   2.338
  179SLPC   C2420364   3.529   1.204   2.548
  179SLPC   H4R20365   3.500   1.308   2.575
  179SLPC   H4S20366   3.634   1.179   2.575
  179SLPC   C2520367   3.436   1.107   2.625
  179SLPC   H5R20368   3.429   0.999   2.600
  179SLPC   H5S20369   3.336   1.154   2.613
  179SLPC   C2620370   3.464   1.115   2.778
  179SLPC   H6R20371   3.375   1.069   2.827
  179SLPC   H6S20372   3.466   1.221   2.811
  179SLPC   C2720373   3.600   1.059   2.820
  179SLPC   H7R20374   3.673   1.134   2.781
  179SLPC   H7S20375   3.621   0.962   2.771
  179SLPC   C2820376   3.621   1.046   2.968
  179SLPC   H8R20377   3.700   0.969   2.981
  179SLPC   H8S20378   3.523   1.012   3.008
  179SLPC   C2920379   3.659   1.175   3.036
  179SLPC   H9R20380   3.738   1.237   2.988
  179SLPC  C21020381   3.599   1.225   3.150
  179SLPC  H10R20382   3.627   1.324   3.187
  179SLPC  C21120383   3.491   1.153   3.228
  179SLPC  H11R20384   3.419   1.109   3.156
  179SLPC  H11S20385   3.441   1.225   3.296
  179SLPC  C21220386   3.560   1.044   3.308
  179SLPC  H12R20387   3.664   1.022   3.282
  179SLPC  C21320388   3.501   0.985   3.411
  179SLPC  H13R20389   3.570   0.912   3.455
  179SLPC  C21420390   3.356   0.992   3.449
  179SLPC  H14R20391   3.321   0.901   3.503
  179SLPC  H14S20392   3.294   1.017   3.361
  179SLPC  C21520393   3.337   1.082   3.576
  179SLPC  H15R20394   3.230   1.086   3.604
  179SLPC  H15S20395   3.367   1.186   3.550
  179SLPC  C21620396   3.425   1.030   3.693
  179SLPC  H16R20397   3.530   1.039   3.656
  179SLPC  H16S20398   3.400   0.923   3.710
  179SLPC  C21720399   3.406   1.112   3.822
  179SLPC  H17R20400   3.454   1.209   3.799
  179SLPC  H17S20401   3.469   1.067   3.902
  179SLPC  C21820402   3.256   1.121   3.863
  179SLPC  H18R20403   3.213   1.022   3.887
  179SLPC  H18S20404   3.189   1.177   3.794
  179SLPC  H18T20405   3.238   1.188   3.950
  179SLPC   C3320406   4.064   1.214   2.726
  179SLPC   H3X20407   4.139   1.292   2.750
  179SLPC   H3Y20408   4.082   1.185   2.621
  179SLPC   C3420409   4.071   1.093   2.811
  179SLPC   H4X20410   4.163   1.033   2.797
  179SLPC   H4Y20411   3.981   1.034   2.783
  179SLPC   C3520412   4.069   1.110   2.968
  179SLPC   H5X20413   4.146   1.186   2.991
  179SLPC   H5Y20414   3.976   1.139   3.022
  179SLPC   C3620415   4.121   0.984   3.044
  179SLPC   H6X20416   4.227   0.952   3.030
  179SLPC   H6Y20417   4.059   0.897   3.013
  179SLPC   C3720418   4.099   0.980   3.200
  179SLPC   H7X20419   4.112   1.082   3.243
  179SLPC   H7Y20420   4.189   0.927   3.237
  179SLPC   C3820421   3.975   0.918   3.253
  179SLPC   H8X20422   3.959   0.823   3.197
  179SLPC   H8Y20423   3.894   0.993   3.245
  179SLPC   C3920424   3.990   0.874   3.400
  179SLPC   H9X20425   4.004   0.959   3.471
  179SLPC   H9Y20426   4.060   0.789   3.413
  179SLPC  C31020427   3.858   0.805   3.449
  179SLPC  H10X20428   3.852   0.706   3.401
  179SLPC  H10Y20429   3.772   0.865   3.410
  179SLPC  C31120430   3.853   0.788   3.597
  179SLPC  H11X20431   3.950   0.748   3.634
  179SLPC  H11Y20432   3.762   0.726   3.614
  179SLPC  C31220433   3.819   0.912   3.679
  179SLPC  H12X20434   3.709   0.925   3.666
  179SLPC  H12Y20435   3.885   0.994   3.645
  179SLPC  C31320436   3.820   0.893   3.830
  179SLPC  H13X20437   3.806   0.995   3.873
  179SLPC  H13Y20438   3.918   0.851   3.861
  179SLPC  C31420439   3.707   0.808   3.882
  179SLPC  H14X20440   3.730   0.704   3.851
  179SLPC  H14Y20441   3.621   0.858   3.833
  179SLPC  C31520442   3.696   0.810   4.032
  179SLPC  H15X20443   3.686   0.915   4.067
  179SLPC  H15Y20444   3.794   0.776   4.073
  179SLPC  C31620445   3.581   0.733   4.090
  179SLPC  H16X20446   3.628   0.636   4.114
  179SLPC  H16Y20447   3.507   0.721   4.009
  179SLPC  C31720448   3.520   0.794   4.219
  179SLPC  H17X20449   3.425   0.743   4.248
  179SLPC  H17Y20450   3.489   0.891   4.175
  179SLPC  C31820451   3.609   0.807   4.338
  179SLPC  H18X20452   3.663   0.904   4.348
  179SLPC  H18Y20453   3.690   0.732   4.338
  179SLPC  H18Z20454   3.550   0.804   4.432
  180SLPC     N20455   2.027   1.495   2.273
  180SLPC   C1320456   2.171   1.502   2.226
  180SLPC  H13A20457   2.174   1.481   2.120
  180SLPC  H13B20458   2.204   1.602   2.252
  180SLPC  H13C20459   2.225   1.419   2.269
  180SLPC   C1420460   1.962   1.380   2.225
  180SLPC  H14A20461   1.948   1.387   2.118
  180SLPC  H14B20462   2.026   1.294   2.236
  180SLPC  H14C20463   1.869   1.362   2.277
  180SLPC   C1520464   1.958   1.620   2.211
  180SLPC  H15A20465   1.980   1.629   2.106
  180SLPC  H15B20466   1.852   1.604   2.206
  180SLPC  H15C20467   1.987   1.711   2.262
  180SLPC   C1220468   2.024   1.498   2.419
  180SLPC  H12A20469   2.075   1.409   2.454
  180SLPC  H12B20470   1.925   1.488   2.459
  180SLPC   C1120471   2.101   1.611   2.496
  180SLPC  H11A20472   2.208   1.617   2.468
  180SLPC  H11B20473   2.112   1.572   2.600
  180SLPC     P20474   2.104   1.865   2.433
  180SLPC   O1320475   2.242   1.842   2.385
  180SLPC   O1420476   2.001   1.902   2.333
  180SLPC   O1220477   2.036   1.737   2.497
  180SLPC   O1120478   2.109   1.966   2.550
  180SLPC    C120479   2.165   1.925   2.682
  180SLPC    HA20480   2.149   2.002   2.761
  180SLPC    HB20481   2.102   1.839   2.713
  180SLPC    C220482   2.314   1.881   2.677
  180SLPC    HS20483   2.355   1.913   2.579
  180SLPC   O2120484   2.319   1.739   2.687
  180SLPC   C2120485   2.435   1.684   2.642
  180SLPC   O2220486   2.520   1.753   2.590
  180SLPC   C2220487   2.447   1.533   2.671
  180SLPC   H2R20488   2.388   1.528   2.765
  180SLPC   H2S20489   2.393   1.479   2.590
  180SLPC    C320490   2.408   1.956   2.787
  180SLPC    HX20491   2.389   2.065   2.781
  180SLPC    HY20492   2.507   1.921   2.750
  180SLPC   O3120493   2.379   1.906   2.919
  180SLPC   C3120494   2.481   1.832   2.973
  180SLPC   O3220495   2.586   1.807   2.911
  180SLPC   C3220496   2.442   1.779   3.102
  180SLPC   H2X20497   2.339   1.803   3.136
  180SLPC   H2Y20498   2.516   1.807   3.180
  180SLPC   C2320499   2.589   1.498   2.691
  180SLPC   H3R20500   2.633   1.560   2.773
  180SLPC   H3S20501   2.661   1.519   2.609
  180SLPC   C2420502   2.614   1.348   2.716
  180SLPC   H4R20503   2.722   1.327   2.730
  180SLPC   H4S20504   2.577   1.291   2.628
  180SLPC   C2520505   2.542   1.276   2.834
  180SLPC   H5R20506   2.437   1.252   2.809
  180SLPC   H5S20507   2.551   1.348   2.918
  180SLPC   C2620508   2.609   1.147   2.890
  180SLPC   H6R20509   2.719   1.155   2.901
  180SLPC   H6S20510   2.602   1.059   2.822
  180SLPC   C2720511   2.558   1.097   3.027
  180SLPC   H7R20512   2.551   1.193   3.083
  180SLPC   H7S20513   2.636   1.029   3.068
  180SLPC   C2820514   2.432   1.010   3.009
  180SLPC   H8R20515   2.411   0.970   3.110
  180SLPC   H8S20516   2.452   0.924   2.941
  180SLPC   C2920517   2.306   1.071   2.954
  180SLPC   H9R20518   2.317   1.096   2.848
  180SLPC  C21020519   2.187   1.097   3.011
  180SLPC  H10R20520   2.118   1.155   2.949
  180SLPC  C21120521   2.143   1.076   3.155
  180SLPC  H11R20522   2.148   1.174   3.209
  180SLPC  H11S20523   2.208   0.997   3.198
  180SLPC  C21220524   1.998   1.046   3.155
  180SLPC  H12R20525   1.975   0.968   3.081
  180SLPC  C21320526   1.896   1.108   3.227
  180SLPC  H13R20527   1.799   1.056   3.222
  180SLPC  C21420528   1.908   1.194   3.343
  180SLPC  H14R20529   1.847   1.286   3.325
  180SLPC  H14S20530   2.010   1.232   3.367
  180SLPC  C21520531   1.848   1.135   3.468
  180SLPC  H15R20532   1.753   1.080   3.452
  180SLPC  H15S20533   1.826   1.225   3.529
  180SLPC  C21620534   1.950   1.051   3.548
  180SLPC  H16R20535   2.022   1.127   3.585
  180SLPC  H16S20536   2.011   0.982   3.486
  180SLPC  C21720537   1.882   0.967   3.656
  180SLPC  H17R20538   1.817   0.891   3.608
  180SLPC  H17S20539   1.813   1.037   3.709
  180SLPC  C21820540   1.964   0.887   3.758
  180SLPC  H18R20541   2.033   0.826   3.696
  180SLPC  H18S20542   1.902   0.817   3.818
  180SLPC  H18T20543   2.020   0.956   3.825
  180SLPC   C3320544   2.442   1.624   3.102
  180SLPC   H3X20545   2.540   1.589   3.063
  180SLPC   H3Y20546   2.368   1.573   3.037
  180SLPC   C3420547   2.432   1.565   3.248
  180SLPC   H4X20548   2.338   1.582   3.303
  180SLPC   H4Y20549   2.506   1.620   3.310
  180SLPC   C3520550   2.477   1.421   3.255
  180SLPC   H5X20551   2.569   1.415   3.193
  180SLPC   H5Y20552   2.406   1.354   3.203
  180SLPC   C3620553   2.494   1.372   3.402
  180SLPC   H6X20554   2.545   1.459   3.447
  180SLPC   H6Y20555   2.556   1.280   3.407
  180SLPC   C3720556   2.360   1.351   3.476
  180SLPC   H7X20557   2.302   1.262   3.441
  180SLPC   H7Y20558   2.290   1.434   3.454
  180SLPC   C3820559   2.383   1.346   3.625
  180SLPC   H8X20560   2.446   1.433   3.654
  180SLPC   H8Y20561   2.443   1.256   3.647
  180SLPC   C3920562   2.259   1.364   3.715
  180SLPC   H9X20563   2.186   1.295   3.668
  180SLPC   H9Y20564   2.202   1.458   3.727
  180SLPC  C31020565   2.292   1.333   3.864
  180SLPC  H10X20566   2.386   1.390   3.881
  180SLPC  H10Y20567   2.322   1.226   3.874
  180SLPC  C31120568   2.200   1.390   3.968
  180SLPC  H11X20569   2.104   1.335   3.968
  180SLPC  H11Y20570   2.174   1.492   3.934
  180SLPC  C31220571   2.265   1.394   4.107
  180SLPC  H12X20572   2.310   1.293   4.120
  180SLPC  H12Y20573   2.185   1.396   4.185
  180SLPC  C31320574   2.370   1.513   4.133
  180SLPC  H13X20575   2.322   1.612   4.121
  180SLPC  H13Y20576   2.441   1.493   4.050
  180SLPC  C31420577   2.434   1.510   4.269
  180SLPC  H14X20578   2.410   1.414   4.320
  180SLPC  H14Y20579   2.388   1.594   4.326
  180SLPC  C31520580   2.590   1.524   4.275
  180SLPC  H15X20581   2.616   1.609   4.208
  180SLPC  H15Y20582   2.637   1.438   4.222
  180SLPC  C31620583   2.666   1.551   4.409
  180SLPC  H16X20584   2.602   1.598   4.487
  180SLPC  H16Y20585   2.734   1.629   4.371
  180SLPC  C31720586   2.736   1.428   4.471
  180SLPC  H17X20587   2.794   1.374   4.392
  180SLPC  H17Y20588   2.651   1.358   4.488
  180SLPC  C31820589   2.813   1.462   4.603
  180SLPC  H18X20590   2.743   1.520   4.667
  180SLPC  H18Y20591   2.896   1.531   4.579
  180SLPC  H18Z20592   2.849   1.376   4.664
  181SLPC     N20593   0.826   6.542   2.259
  181SLPC   C1320594   0.892   6.539   2.391
  181SLPC  H13A20595   0.816   6.524   2.466
  181SLPC  H13B20596   0.970   6.465   2.398
  181SLPC  H13C20597   0.943   6.633   2.402
  181SLPC   C1420598   0.718   6.645   2.276
  181SLPC  H14A20599   0.668   6.675   2.185
  181SLPC  H14B20600   0.638   6.603   2.335
  181SLPC  H14C20601   0.760   6.733   2.321
  181SLPC   C1520602   0.771   6.406   2.223
  181SLPC  H15A20603   0.701   6.405   2.142
  181SLPC  H15B20604   0.853   6.342   2.195
  181SLPC  H15C20605   0.718   6.364   2.308
  181SLPC   C1220606   0.917   6.592   2.147
  181SLPC  H12A20607   0.871   6.574   2.051
  181SLPC  H12B20608   1.010   6.539   2.132
  181SLPC   C1120609   0.967   6.740   2.145
  181SLPC  H11A20610   0.879   6.800   2.114
  181SLPC  H11B20611   1.031   6.755   2.055
  181SLPC     P20612   0.996   0.020   2.347
  181SLPC   O1320613   1.068   0.125   2.273
  181SLPC   O1420614   0.849   0.031   2.366
  181SLPC   O1220615   1.035   6.774   2.270
  181SLPC   O1120616   1.077   0.009   2.486
  181SLPC    C120617   1.205   6.826   2.506
  181SLPC    HA20618   1.192   6.723   2.466
  181SLPC    HB20619   1.289   6.856   2.439
  181SLPC    C220620   1.260   6.815   2.655
  181SLPC    HS20621   1.339   6.736   2.655
  181SLPC   O2120622   1.164   6.766   2.747
  181SLPC   C2120623   1.088   6.660   2.717
  181SLPC   O2220624   1.102   6.583   2.622
  181SLPC   C2220625   0.964   6.661   2.810
  181SLPC   H2R20626   0.926   6.765   2.809
  181SLPC   H2S20627   0.894   6.591   2.758
  181SLPC    C320628   1.328   0.054   2.706
  181SLPC    HX20629   1.240   0.116   2.735
  181SLPC    HY20630   1.386   0.106   2.627
  181SLPC   O3120631   1.411   0.011   2.819
  181SLPC   C3120632   1.480   0.109   2.872
  181SLPC   O3220633   1.496   0.218   2.819
  181SLPC   C3220634   1.546   0.066   2.998
  181SLPC   H2X20635   1.619   6.874   2.967
  181SLPC   H2Y20636   1.478   0.023   3.074
  181SLPC   C2320637   0.989   6.615   2.960
  181SLPC   H3R20638   1.075   6.671   3.001
  181SLPC   H3S20639   1.018   6.508   2.962
  181SLPC   C2420640   0.861   6.639   3.038
  181SLPC   H4R20641   0.775   6.595   2.984
  181SLPC   H4S20642   0.839   6.747   3.049
  181SLPC   C2520643   0.867   6.589   3.173
  181SLPC   H5R20644   0.929   6.497   3.170
  181SLPC   H5S20645   0.765   6.580   3.215
  181SLPC   C2620646   0.960   6.678   3.264
  181SLPC   H6R20647   0.943   6.786   3.245
  181SLPC   H6S20648   1.064   6.653   3.233
  181SLPC   C2720649   0.946   6.656   3.418
  181SLPC   H7R20650   1.037   6.692   3.470
  181SLPC   H7S20651   0.941   6.547   3.439
  181SLPC   C2820652   0.827   6.734   3.488
  181SLPC   H8R20653   0.809   6.689   3.587
  181SLPC   H8S20654   0.731   6.729   3.432
  181SLPC   C2920655   0.867   6.877   3.498
  181SLPC   H9R20656   0.881   0.036   3.399
  181SLPC  C21020657   0.904   0.057   3.602
  181SLPC  H10R20658   0.939   0.160   3.581
  181SLPC  C21120659   0.905   0.008   3.747
  181SLPC  H11R20660   0.811   6.842   3.774
  181SLPC  H11S20661   0.907   0.093   3.819
  181SLPC  C21220662   1.021   6.803   3.765
  181SLPC  H12R20663   1.030   6.733   3.680
  181SLPC  C21320664   1.116   6.803   3.858
  181SLPC  H13R20665   1.182   6.715   3.867
  181SLPC  C21420666   1.119   0.016   3.971
  181SLPC  H14R20667   1.078   6.859   4.065
  181SLPC  H14S20668   1.058   0.108   3.959
  181SLPC  C21520669   1.258   0.074   4.006
  181SLPC  H15R20670   1.295   0.145   3.929
  181SLPC  H15S20671   1.325   6.874   4.026
  181SLPC  C21620672   1.262   0.155   4.138
  181SLPC  H16R20673   1.207   0.250   4.122
  181SLPC  H16S20674   1.368   0.181   4.159
  181SLPC  C21720675   1.195   0.097   4.272
  181SLPC  H17R20676   1.240   0.003   4.310
  181SLPC  H17S20677   1.088   0.071   4.257
  181SLPC  C21820678   1.200   0.192   4.390
  181SLPC  H18R20679   1.148   0.289   4.376
  181SLPC  H18S20680   1.301   0.225   4.423
  181SLPC  H18T20681   1.155   0.142   4.478
  181SLPC   C3320682   1.617   0.188   3.065
  181SLPC   H3X20683   1.537   0.259   3.099
  181SLPC   H3Y20684   1.674   0.250   2.992
  181SLPC   C3420685   1.700   0.161   3.196
  181SLPC   H4X20686   1.634   0.093   3.253
  181SLPC   H4Y20687   1.688   0.261   3.241
  181SLPC   C3520688   1.841   0.106   3.178
  181SLPC   H5X20689   1.880   0.162   3.091
  181SLPC   H5Y20690   1.845   0.002   3.140
  181SLPC   C3620691   1.921   0.146   3.303
  181SLPC   H6X20692   1.903   0.063   3.374
  181SLPC   H6Y20693   1.877   0.241   3.340
  181SLPC   C3720694   2.073   0.162   3.283
  181SLPC   H7X20695   2.089   0.206   3.183
  181SLPC   H7Y20696   2.120   0.062   3.271
  181SLPC   C3820697   2.139   0.238   3.396
  181SLPC   H8X20698   2.095   0.340   3.398
  181SLPC   H8Y20699   2.249   0.240   3.376
  181SLPC   C3920700   2.118   0.181   3.534
  181SLPC   H9X20701   2.151   0.076   3.518
  181SLPC   H9Y20702   2.014   0.170   3.571
  181SLPC  C31020703   2.215   0.238   3.635
  181SLPC  H10X20704   2.190   0.342   3.664
  181SLPC  H10Y20705   2.317   0.246   3.591
  181SLPC  C31120706   2.224   0.147   3.770
  181SLPC  H11X20707   2.315   0.087   3.748
  181SLPC  H11Y20708   2.138   0.077   3.774
  181SLPC  C31220709   2.240   0.231   3.897
  181SLPC  H12X20710   2.146   0.288   3.912
  181SLPC  H12Y20711   2.324   0.296   3.866
  181SLPC  C31320712   2.301   0.153   4.016
  181SLPC  H13X20713   2.317   0.217   4.105
  181SLPC  H13Y20714   2.404   0.116   3.994
  181SLPC  C31420715   2.212   0.030   4.062
  181SLPC  H14X20716   2.118   0.038   4.003
  181SLPC  H14Y20717   2.182   0.031   4.169
  181SLPC  C31520718   2.265   6.785   4.023
  181SLPC  H15X20719   2.339   6.746   4.097
  181SLPC  H15Y20720   2.323   6.792   3.929
  181SLPC  C31620721   2.146   6.693   3.992
  181SLPC  H16X20722   2.090   6.738   3.908
  181SLPC  H16Y20723   2.079   6.697   4.080
  181SLPC  C31720724   2.178   6.548   3.950
  181SLPC  H17X20725   2.253   6.513   4.025
  181SLPC  H17Y20726   2.226   6.564   3.852
  181SLPC  C31820727   2.048   6.465   3.939
  181SLPC  H18X20728   2.071   6.363   3.902
  181SLPC  H18Y20729   1.985   6.519   3.865
  181SLPC  H18Z20730   1.992   6.468   4.035
  182SLPC     N20731   2.506   5.906   2.064
  182SLPC   C1320732   2.644   5.892   2.006
  182SLPC  H13A20733   2.642   5.831   1.916
  182SLPC  H13B20734   2.681   5.989   1.974
  182SLPC  H13C20735   2.702   5.852   2.087
  182SLPC   C1420736   2.447   5.771   2.079
  182SLPC  H14A20737   2.412   5.735   1.984
  182SLPC  H14B20738   2.522   5.694   2.096
  182SLPC  H14C20739   2.377   5.750   2.158
  182SLPC   C1520740   2.419   5.984   1.967
  182SLPC  H15A20741   2.420   5.933   1.872
  182SLPC  H15B20742   2.316   5.995   1.996
  182SLPC  H15C20743   2.449   6.088   1.963
  182SLPC   C1220744   2.526   5.988   2.192
  182SLPC  H12A20745   2.567   5.925   2.269
  182SLPC  H12B20746   2.437   6.034   2.231
  182SLPC   C1120747   2.615   6.117   2.189
  182SLPC  H11A20748   2.720   6.092   2.160
  182SLPC  H11B20749   2.628   6.148   2.295
  182SLPC     P20750   2.452   6.311   2.157
  182SLPC   O1320751   2.515   6.426   2.218
  182SLPC   O1420752   2.360   6.340   2.042
  182SLPC   O1220753   2.563   6.219   2.103
  182SLPC   O1120754   2.383   6.222   2.274
  182SLPC    C120755   2.279   6.289   2.352
  182SLPC    HA20756   2.323   6.375   2.407
  182SLPC    HB20757   2.199   6.313   2.279
  182SLPC    C220758   2.236   6.182   2.452
  182SLPC    HS20759   2.192   6.102   2.389
  182SLPC   O2120760   2.143   6.233   2.549
  182SLPC   C2120761   2.025   6.234   2.498
  182SLPC   O2220762   1.993   6.193   2.388
  182SLPC   C2220763   1.922   6.303   2.588
  182SLPC   H2R20764   1.944   6.271   2.692
  182SLPC   H2S20765   1.948   6.411   2.584
  182SLPC    C320766   2.364   6.127   2.526
  182SLPC    HX20767   2.420   6.214   2.566
  182SLPC    HY20768   2.429   6.071   2.456
  182SLPC   O3120769   2.349   6.057   2.653
  182SLPC   C3120770   2.291   5.943   2.641
  182SLPC   O3220771   2.242   5.897   2.536
  182SLPC   C3220772   2.300   5.850   2.769
  182SLPC   H2X20773   2.282   5.742   2.747
  182SLPC   H2Y20774   2.205   5.876   2.820
  182SLPC   C2320775   1.772   6.279   2.546
  182SLPC   H3R20776   1.748   6.172   2.564
  182SLPC   H3S20777   1.764   6.296   2.436
  182SLPC   C2420778   1.658   6.365   2.614
  182SLPC   H4R20779   1.574   6.299   2.645
  182SLPC   H4S20780   1.619   6.433   2.536
  182SLPC   C2520781   1.704   6.450   2.729
  182SLPC   H5R20782   1.761   6.540   2.696
  182SLPC   H5S20783   1.776   6.391   2.790
  182SLPC   C2620784   1.584   6.472   2.816
  182SLPC   H6R20785   1.535   6.372   2.815
  182SLPC   H6S20786   1.508   6.533   2.762
  182SLPC   C2720787   1.621   6.517   2.953
  182SLPC   H7R20788   1.692   6.601   2.937
  182SLPC   H7S20789   1.671   6.438   3.013
  182SLPC   C2820790   1.499   6.564   3.037
  182SLPC   H8R20791   1.438   6.474   3.057
  182SLPC   H8S20792   1.442   6.638   2.977
  182SLPC   C2920793   1.538   6.631   3.164
  182SLPC   H9R20794   1.610   6.714   3.154
  182SLPC  C21020795   1.486   6.610   3.286
  182SLPC  H10R20796   1.537   6.674   3.359
  182SLPC  C21120797   1.384   6.511   3.330
  182SLPC  H11R20798   1.440   6.417   3.351
  182SLPC  H11S20799   1.318   6.505   3.241
  182SLPC  C21220800   1.296   6.551   3.443
  182SLPC  H12R20801   1.208   6.608   3.407
  182SLPC  C21320802   1.307   6.542   3.575
  182SLPC  H13R20803   1.231   6.589   3.638
  182SLPC  C21420804   1.425   6.467   3.640
  182SLPC  H14R20805   1.501   6.444   3.561
  182SLPC  H14S20806   1.384   6.382   3.698
  182SLPC  C21520807   1.490   6.550   3.759
  182SLPC  H15R20808   1.412   6.618   3.800
  182SLPC  H15S20809   1.557   6.618   3.703
  182SLPC  C21620810   1.568   6.463   3.861
  182SLPC  H16R20811   1.624   6.543   3.914
  182SLPC  H16S20812   1.645   6.405   3.805
  182SLPC  C21720813   1.474   6.383   3.961
  182SLPC  H17R20814   1.411   6.315   3.900
  182SLPC  H17S20815   1.399   6.456   4.000
  182SLPC  C21820816   1.541   6.310   4.069
  182SLPC  H18R20817   1.499   6.207   4.073
  182SLPC  H18S20818   1.524   6.362   4.166
  182SLPC  H18T20819   1.650   6.298   4.056
  182SLPC   C3320820   2.427   5.862   2.856
  182SLPC   H3X20821   2.443   5.966   2.891
  182SLPC   H3Y20822   2.504   5.830   2.783
  182SLPC   C3420823   2.429   5.772   2.981
  182SLPC   H4X20824   2.441   5.669   2.941
  182SLPC   H4Y20825   2.335   5.786   3.038
  182SLPC   C3520826   2.545   5.801   3.079
  182SLPC   H5X20827   2.567   5.910   3.075
  182SLPC   H5Y20828   2.629   5.738   3.043
  182SLPC   C3620829   2.520   5.746   3.221
  182SLPC   H6X20830   2.484   5.641   3.210
  182SLPC   H6Y20831   2.428   5.801   3.252
  182SLPC   C3720832   2.642   5.757   3.310
  182SLPC   H7X20833   2.697   5.854   3.304
  182SLPC   H7Y20834   2.705   5.674   3.273
  182SLPC   C3820835   2.610   5.742   3.464
  182SLPC   H8X20836   2.598   5.634   3.487
  182SLPC   H8Y20837   2.522   5.805   3.488
  182SLPC   C3920838   2.721   5.780   3.561
  182SLPC   H9X20839   2.759   5.880   3.529
  182SLPC   H9Y20840   2.807   5.711   3.546
  182SLPC  C31020841   2.671   5.772   3.706
  182SLPC  H10X20842   2.638   5.667   3.717
  182SLPC  H10Y20843   2.578   5.831   3.720
  182SLPC  C31120844   2.784   5.793   3.811
  182SLPC  H11X20845   2.842   5.885   3.788
  182SLPC  H11Y20846   2.852   5.706   3.808
  182SLPC  C31220847   2.731   5.806   3.949
  182SLPC  H12X20848   2.667   5.720   3.979
  182SLPC  H12Y20849   2.669   5.897   3.963
  182SLPC  C31320850   2.846   5.817   4.049
  182SLPC  H13X20851   2.922   5.897   4.037
  182SLPC  H13Y20852   2.901   5.722   4.032
  182SLPC  C31420853   2.788   5.836   4.191
  182SLPC  H14X20854   2.848   5.769   4.256
  182SLPC  H14Y20855   2.680   5.815   4.201
  182SLPC  C31520856   2.825   5.977   4.240
  182SLPC  H15X20857   2.792   6.055   4.168
  182SLPC  H15Y20858   2.932   6.004   4.242
  182SLPC  C31620859   2.789   6.004   4.386
  182SLPC  H16X20860   2.871   5.964   4.449
  182SLPC  H16Y20861   2.697   5.944   4.398
  182SLPC  C31720862   2.776   6.160   4.418
  182SLPC  H17X20863   2.754   6.162   4.527
  182SLPC  H17Y20864   2.681   6.192   4.371
  182SLPC  C31820865   2.892   6.246   4.383
  182SLPC  H18X20866   2.993   6.201   4.396
  182SLPC  H18Y20867   2.899   6.340   4.442
  182SLPC  H18Z20868   2.887   6.260   4.273
  183SLPC     N20869   5.684   2.550   2.423
  183SLPC   C1320870   5.802   2.464   2.442
  183SLPC  H13A20871   5.833   2.486   2.543
  183SLPC  H13B20872   5.779   2.359   2.436
  183SLPC  H13C20873   5.885   2.481   2.374
  183SLPC   C1420874   5.596   2.510   2.303
  183SLPC  H14A20875   5.517   2.584   2.299
  183SLPC  H14B20876   5.646   2.497   2.209
  183SLPC  H14C20877   5.573   2.406   2.320
  183SLPC   C1520878   5.722   2.692   2.406
  183SLPC  H15A20879   5.778   2.712   2.315
  183SLPC  H15B20880   5.629   2.744   2.389
  183SLPC  H15C20881   5.778   2.716   2.495
  183SLPC   C1220882   5.603   2.532   2.549
  183SLPC  H12A20883   5.663   2.543   2.638
  183SLPC  H12B20884   5.548   2.439   2.549
  183SLPC   C1120885   5.494   2.637   2.569
  183SLPC  H11A20886   5.531   2.741   2.580
  183SLPC  H11B20887   5.455   2.619   2.671
  183SLPC     P20888   5.268   2.542   2.488
  183SLPC   O1320889   5.176   2.592   2.593
  183SLPC   O1420890   5.209   2.520   2.354
  183SLPC   O1220891   5.384   2.641   2.469
  183SLPC   O1120892   5.342   2.412   2.536
  183SLPC    C120893   5.303   2.344   2.657
  183SLPC    HA20894   5.264   2.417   2.731
  183SLPC    HB20895   5.221   2.272   2.634
  183SLPC    C220896   5.412   2.265   2.731
  183SLPC    HS20897   5.366   2.193   2.801
  183SLPC   O2120898   5.504   2.356   2.799
  183SLPC   C2120899   5.472   2.388   2.927
  183SLPC   O2220900   5.369   2.361   2.985
  183SLPC   C2220901   5.586   2.478   2.984
  183SLPC   H2R20902   5.685   2.428   2.980
  183SLPC   H2S20903   5.591   2.559   2.909
  183SLPC    C320904   5.499   2.178   2.625
  183SLPC    HX20905   5.540   2.250   2.552
  183SLPC    HY20906   5.426   2.106   2.582
  183SLPC   O3120907   5.601   2.099   2.689
  183SLPC   C3120908   5.717   2.154   2.710
  183SLPC   O3220909   5.750   2.270   2.692
  183SLPC   C3220910   5.803   2.049   2.786
  183SLPC   H2X20911   5.905   2.057   2.743
  183SLPC   H2Y20912   5.758   1.949   2.768
  183SLPC   C2320913   5.563   2.525   3.128
  183SLPC   H3R20914   5.572   2.432   3.187
  183SLPC   H3S20915   5.459   2.563   3.142
  183SLPC   C2420916   5.654   2.644   3.177
  183SLPC   H4R20917   5.633   2.715   3.093
  183SLPC   H4S20918   5.761   2.615   3.173
  183SLPC   C2520919   5.620   2.699   3.316
  183SLPC   H5R20920   5.513   2.731   3.318
  183SLPC   H5S20921   5.682   2.787   3.341
  183SLPC   C2620922   5.610   2.594   3.429
  183SLPC   H6R20923   5.717   2.564   3.426
  183SLPC   H6S20924   5.549   2.507   3.397
  183SLPC   C2720925   5.548   2.659   3.555
  183SLPC   H7R20926   5.438   2.675   3.551
  183SLPC   H7S20927   5.592   2.759   3.580
  183SLPC   C2820928   5.574   2.567   3.679
  183SLPC   H8R20929   5.683   2.562   3.700
  183SLPC   H8S20930   5.546   2.462   3.653
  183SLPC   C2920931   5.503   2.618   3.801
  183SLPC   H9R20932   5.399   2.652   3.788
  183SLPC  C21020933   5.558   2.629   3.924
  183SLPC  H10R20934   5.491   2.668   4.002
  183SLPC  C21120935   5.693   2.585   3.977
  183SLPC  H11R20936   5.766   2.576   3.894
  183SLPC  H11S20937   5.695   2.480   4.014
  183SLPC  C21220938   5.754   2.685   4.080
  183SLPC  H12R20939   5.746   2.791   4.051
  183SLPC  C21320940   5.794   2.652   4.204
  183SLPC  H13R20941   5.842   2.719   4.277
  183SLPC  C21420942   5.789   2.505   4.255
  183SLPC  H14R20943   5.890   2.483   4.297
  183SLPC  H14S20944   5.787   2.438   4.167
  183SLPC  C21520945   5.697   2.459   4.365
  183SLPC  H15R20946   5.715   2.520   4.456
  183SLPC  H15S20947   5.728   2.358   4.397
  183SLPC  C21620948   5.552   2.445   4.316
  183SLPC  H16R20949   5.543   2.350   4.260
  183SLPC  H16S20950   5.541   2.525   4.240
  183SLPC  C21720951   5.438   2.481   4.418
  183SLPC  H17R20952   5.344   2.464   4.361
  183SLPC  H17S20953   5.437   2.584   4.460
  183SLPC  C21820954   5.433   2.391   4.537
  183SLPC  H18R20955   5.525   2.395   4.599
  183SLPC  H18S20956   5.419   2.284   4.512
  183SLPC  H18T20957   5.348   2.420   4.603
  183SLPC   C3320958   5.812   2.078   2.933
  183SLPC   H3X20959   5.849   1.982   2.974
  183SLPC   H3Y20960   5.706   2.073   2.966
  183SLPC   C3420961   5.893   2.197   2.977
  183SLPC   H4X20962   5.840   2.292   2.953
  183SLPC   H4Y20963   5.989   2.188   2.921
  183SLPC   C3520964   5.936   2.205   3.131
  183SLPC   H5X20965   5.985   2.304   3.148
  183SLPC   H5Y20966   6.006   2.122   3.154
  183SLPC   C3620967   5.820   2.178   3.228
  183SLPC   H6X20968   5.753   2.091   3.218
  183SLPC   H6Y20969   5.765   2.274   3.217
  183SLPC   C3720970   5.870   2.174   3.371
  183SLPC   H7X20971   5.947   2.253   3.379
  183SLPC   H7Y20972   5.936   2.087   3.386
  183SLPC   C3820973   5.765   2.188   3.487
  183SLPC   H8X20974   5.696   2.101   3.481
  183SLPC   H8Y20975   5.706   2.282   3.476
  183SLPC   C3920976   5.830   2.198   3.629
  183SLPC   H9X20977   5.750   2.237   3.696
  183SLPC   H9Y20978   5.901   2.283   3.619
  183SLPC  C31020979   5.899   2.068   3.683
  183SLPC  H10X20980   6.010   2.081   3.687
  183SLPC  H10Y20981   5.874   1.988   3.611
  183SLPC  C31120982   5.842   2.019   3.819
  183SLPC  H11X20983   5.901   1.930   3.851
  183SLPC  H11Y20984   5.733   1.997   3.814
  183SLPC  C31220985   5.850   2.127   3.921
  183SLPC  H12X20986   5.785   2.217   3.926
  183SLPC  H12Y20987   5.946   2.183   3.918
  183SLPC  C31320988   5.852   2.056   4.061
  183SLPC  H13X20989   5.940   1.989   4.051
  183SLPC  H13Y20990   5.758   1.997   4.065
  183SLPC  C31420991   5.852   2.158   4.176
  183SLPC  H14X20992   5.758   2.217   4.176
  183SLPC  H14Y20993   5.944   2.219   4.166
  183SLPC  C31520994   5.868   2.090   4.309
  183SLPC  H15X20995   5.919   2.160   4.378
  183SLPC  H15Y20996   5.932   2.001   4.294
  183SLPC  C31620997   5.727   2.050   4.350
  183SLPC  H16X20998   5.670   2.017   4.260
  183SLPC  H16Y20999   5.679   2.142   4.388
  183SLPC  C31721000   5.717   1.929   4.441
  183SLPC  H17X21001   5.624   1.942   4.499
  183SLPC  H17Y21002   5.808   1.934   4.504
  183SLPC  C31821003   5.706   1.795   4.375
  183SLPC  H18X21004   5.666   1.721   4.447
  183SLPC  H18Y21005   5.802   1.756   4.334
  183SLPC  H18Z21006   5.633   1.796   4.292
  184SLPC     N21007   6.779   1.960   2.094
  184SLPC   C1321008   6.858   2.024   2.207
  184SLPC  H13A21009   0.072   1.983   2.201
  184SLPC  H13B21010   6.861   2.131   2.196
  184SLPC  H13C21011   6.823   1.995   2.305
  184SLPC   C1421012   6.808   1.809   2.086
  184SLPC  H14A21013   0.010   1.784   2.029
  184SLPC  H14B21014   6.811   1.762   2.183
  184SLPC  H14C21015   6.720   1.772   2.036
  184SLPC   C1521016   6.831   2.015   1.965
  184SLPC  H15A21017   6.783   2.112   1.954
  184SLPC  H15B21018   0.048   2.044   1.969
  184SLPC  H15C21019   6.809   1.947   1.884
  184SLPC   C1221020   6.631   1.997   2.122
  184SLPC  H12A21021   6.610   2.103   2.116
  184SLPC  H12B21022   6.622   1.965   2.225
  184SLPC   C1121023   6.519   1.920   2.044
  184SLPC  H11A21024   6.558   1.918   1.940
  184SLPC  H11B21025   6.428   1.983   2.050
  184SLPC     P21026   6.394   1.768   2.215
  184SLPC   O1321027   6.260   1.799   2.156
  184SLPC   O1421028   6.405   1.635   2.277
  184SLPC   O1221029   6.500   1.792   2.093
  184SLPC   O1121030   6.432   1.888   2.310
  184SLPC    C121031   6.525   1.874   2.416
  184SLPC    HA21032   6.579   1.777   2.417
  184SLPC    HB21033   6.608   1.946   2.400
  184SLPC    C221034   6.466   1.885   2.562
  184SLPC    HS21035   6.545   1.924   2.630
  184SLPC   O2121036   6.421   1.754   2.606
  184SLPC   C2121037   6.512   1.685   2.671
  184SLPC   O2221038   6.627   1.722   2.690
  184SLPC   C2221039   6.446   1.552   2.701
  184SLPC   H2R21040   6.349   1.541   2.648
  184SLPC   H2S21041   6.518   1.472   2.673
  184SLPC    C321042   6.343   1.979   2.577
  184SLPC    HX21043   6.251   1.930   2.538
  184SLPC    HY21044   6.363   2.068   2.514
  184SLPC   O3121045   6.335   2.020   2.718
  184SLPC   C3121046   6.227   1.976   2.780
  184SLPC   O3221047   6.135   1.920   2.730
  184SLPC   C3221048   6.232   2.016   2.922
  184SLPC   H2X21049   6.178   2.112   2.938
  184SLPC   H2Y21050   6.336   2.023   2.958
  184SLPC   C2321051   6.403   1.541   2.856
  184SLPC   H3R21052   6.343   1.450   2.880
  184SLPC   H3S21053   6.334   1.628   2.858
  184SLPC   C2421054   6.514   1.554   2.956
  184SLPC   H4R21055   6.536   1.663   2.958
  184SLPC   H4S21056   6.598   1.489   2.923
  184SLPC   C2521057   6.459   1.511   3.093
  184SLPC   H5R21058   6.407   1.414   3.076
  184SLPC   H5S21059   6.378   1.581   3.124
  184SLPC   C2621060   6.569   1.498   3.185
  184SLPC   H6R21061   6.635   1.587   3.184
  184SLPC   H6S21062   6.637   1.413   3.160
  184SLPC   C2721063   6.511   1.466   3.326
  184SLPC   H7R21064   6.472   1.362   3.329
  184SLPC   H7S21065   6.433   1.533   3.368
  184SLPC   C2821066   6.620   1.457   3.434
  184SLPC   H8R21067   6.686   1.547   3.432
  184SLPC   H8S21068   6.689   1.374   3.407
  184SLPC   C2921069   6.567   1.406   3.564
  184SLPC   H9R21070   6.494   1.325   3.555
  184SLPC  C21021071   6.610   1.453   3.679
  184SLPC  H10R21072   6.567   1.404   3.768
  184SLPC  C21121073   6.717   1.559   3.699
  184SLPC  H11R21074   6.745   1.609   3.604
  184SLPC  H11S21075   6.806   1.515   3.748
  184SLPC  C21221076   6.667   1.662   3.793
  184SLPC  H12R21077   6.585   1.717   3.746
  184SLPC  C21321078   6.693   1.668   3.925
  184SLPC  H13R21079   6.633   1.740   3.982
  184SLPC  C21421080   6.779   1.579   4.003
  184SLPC  H14R21081   6.881   1.622   4.007
  184SLPC  H14S21082   6.781   1.475   3.965
  184SLPC  C21521083   6.739   1.562   4.150
  184SLPC  H15R21084   6.738   1.668   4.184
  184SLPC  H15S21085   6.816   1.503   4.204
  184SLPC  C21621086   6.607   1.484   4.164
  184SLPC  H16R21087   6.615   1.374   4.175
  184SLPC  H16S21088   6.536   1.488   4.079
  184SLPC  C21721089   6.544   1.530   4.296
  184SLPC  H17R21090   6.541   1.641   4.299
  184SLPC  H17S21091   6.601   1.502   4.387
  184SLPC  C21821092   6.404   1.471   4.307
  184SLPC  H18R21093   6.356   1.509   4.400
  184SLPC  H18S21094   6.400   1.360   4.316
  184SLPC  H18T21095   6.354   1.502   4.214
  184SLPC   C3321096   6.155   1.909   3.013
  184SLPC   H3X21097   6.117   1.818   2.963
  184SLPC   H3Y21098   6.063   1.945   3.062
  184SLPC   C3421099   6.245   1.864   3.128
  184SLPC   H4X21100   6.325   1.804   3.079
  184SLPC   H4Y21101   6.184   1.798   3.193
  184SLPC   C3521102   6.302   1.979   3.212
  184SLPC   H5X21103   6.218   2.046   3.240
  184SLPC   H5Y21104   6.379   2.036   3.155
  184SLPC   C3621105   6.379   1.925   3.334
  184SLPC   H6X21106   6.406   2.009   3.403
  184SLPC   H6Y21107   6.474   1.881   3.298
  184SLPC   C3721108   6.303   1.835   3.423
  184SLPC   H7X21109   6.295   1.735   3.375
  184SLPC   H7Y21110   6.203   1.878   3.444
  184SLPC   C3821111   6.386   1.812   3.548
  184SLPC   H8X21112   6.403   1.907   3.603
  184SLPC   H8Y21113   6.487   1.780   3.516
  184SLPC   C3921114   6.320   1.705   3.628
  184SLPC   H9X21115   6.383   1.668   3.712
  184SLPC   H9Y21116   6.296   1.618   3.563
  184SLPC  C31021117   6.188   1.756   3.698
  184SLPC  H10X21118   6.121   1.779   3.613
  184SLPC  H10Y21119   6.200   1.849   3.756
  184SLPC  C31121120   6.125   1.654   3.796
  184SLPC  H11X21121   6.134   1.559   3.740
  184SLPC  H11Y21122   6.022   1.693   3.807
  184SLPC  C31221123   6.198   1.659   3.928
  184SLPC  H12X21124   6.191   1.765   3.960
  184SLPC  H12Y21125   6.306   1.645   3.908
  184SLPC  C31321126   6.138   1.571   4.037
  184SLPC  H13X21127   6.030   1.597   4.033
  184SLPC  H13Y21128   6.188   1.577   4.136
  184SLPC  C31421129   6.155   1.422   3.989
  184SLPC  H14X21130   6.259   1.424   3.949
  184SLPC  H14Y21131   6.068   1.409   3.921
  184SLPC  C31521132   6.150   1.308   4.089
  184SLPC  H15X21133   6.052   1.320   4.139
  184SLPC  H15Y21134   6.231   1.330   4.162
  184SLPC  C31621135   6.145   1.167   4.026
  184SLPC  H16X21136   6.150   1.090   4.106
  184SLPC  H16Y21137   6.229   1.165   3.954
  184SLPC  C31721138   6.008   1.133   3.943
  184SLPC  H17X21139   6.017   1.199   3.854
  184SLPC  H17Y21140   5.925   1.184   3.996
  184SLPC  C31821141   5.997   0.990   3.895
  184SLPC  H18X21142   6.101   0.955   3.878
  184SLPC  H18Y21143   5.933   0.982   3.804
  184SLPC  H18Z21144   5.950   0.942   3.984
  185POPC     N21145   1.491   6.037   6.585
  185POPC   C1221146   1.588   5.977   6.494
  185POPC  H12A21147   1.570   5.871   6.497
  185POPC  H12B21148   1.680   5.988   6.550
  185POPC   C1321149   1.366   6.074   6.512
  185POPC  H13A21150   1.383   6.139   6.427
  185POPC  H13B21151   1.327   5.989   6.458
  185POPC  H13C21152   1.302   6.125   6.582
  185POPC   C1421153   1.472   5.945   6.697
  185POPC  H14A21154   1.455   5.846   6.657
  185POPC  H14B21155   1.555   5.939   6.767
  185POPC  H14C21156   1.383   5.973   6.752
  185POPC   C1521157   1.540   6.165   6.652
  185POPC  H15A21158   1.467   6.192   6.727
  185POPC  H15B21159   1.551   6.247   6.583
  185POPC  H15C21160   1.637   6.146   6.696
  185POPC   C1121161   1.610   6.035   6.359
  185POPC  H11A21162   1.699   5.986   6.312
  185POPC  H11B21163   1.640   6.141   6.368
  185POPC     P21164   1.496   5.866   6.207
  185POPC   O1321165   1.373   5.859   6.131
  185POPC   O1421166   1.514   5.765   6.311
  185POPC   O1221167   1.494   6.006   6.276
  185POPC   O1121168   1.617   5.859   6.114
  185POPC    C121169   1.671   5.973   6.037
  185POPC    HA21170   1.778   5.954   6.012
  185POPC    HB21171   1.670   6.068   6.094
  185POPC    C221172   1.594   6.003   5.904
  185POPC    HS21173   1.493   6.033   5.939
  185POPC   O2121174   1.597   5.883   5.826
  185POPC   C2121175   1.492   5.864   5.746
  185POPC   O2221176   1.389   5.928   5.749
  185POPC   C2221177   1.526   5.744   5.652
  185POPC   H2R21178   1.503   5.645   5.696
  185POPC   H2S21179   1.636   5.739   5.635
  185POPC    C321180   1.628   6.133   5.826
  185POPC    HX21181   1.730   6.126   5.785
  185POPC    HY21182   1.617   6.215   5.901
  185POPC   O3121183   1.547   6.148   5.708
  185POPC   C3121184   1.438   6.231   5.723
  185POPC   O3221185   1.411   6.279   5.831
  185POPC   C3221186   1.356   6.246   5.594
  185POPC   H2X21187   1.418   6.310   5.528
  185POPC   H2Y21188   1.261   6.302   5.604
  185POPC   C2321189   1.452   5.759   5.518
  185POPC   H3R21190   1.486   5.845   5.458
  185POPC   H3S21191   1.343   5.776   5.533
  185POPC   C2421192   1.467   5.629   5.433
  185POPC   H4R21193   1.394   5.548   5.452
  185POPC   H4S21194   1.562   5.586   5.470
  185POPC   C2521195   1.466   5.655   5.282
  185POPC   H5R21196   1.521   5.746   5.251
  185POPC   H5S21197   1.359   5.663   5.253
  185POPC   C2621198   1.539   5.544   5.209
  185POPC   H6R21199   1.494   5.449   5.246
  185POPC   H6S21200   1.649   5.550   5.224
  185POPC   C2721201   1.520   5.526   5.054
  185POPC   H7R21202   1.559   5.622   5.015
  185POPC   H7S21203   1.413   5.510   5.032
  185POPC   C2821204   1.588   5.406   4.992
  185POPC   H8R21205   1.557   5.394   4.886
  185POPC   H8S21206   1.557   5.324   5.059
  185POPC   C2921207   1.737   5.412   5.025
  185POPC   H9121208   1.770   5.383   5.126
  185POPC  C21021209   1.837   5.429   4.939
  185POPC  H10121210   1.937   5.440   4.982
  185POPC  C21121211   1.820   5.459   4.791
  185POPC  H11R21212   1.719   5.432   4.754
  185POPC  H11S21213   1.890   5.396   4.732
  185POPC  C21221214   1.850   5.616   4.757
  185POPC  H12R21215   1.960   5.626   4.772
  185POPC  H12S21216   1.799   5.685   4.828
  185POPC  C21321217   1.832   5.663   4.610
  185POPC  H13R21218   1.727   5.676   4.576
  185POPC  H13S21219   1.875   5.581   4.548
  185POPC  C21421220   1.916   5.794   4.590
  185POPC  H14R21221   2.022   5.787   4.626
  185POPC  H14S21222   1.879   5.873   4.659
  185POPC  C21521223   1.908   5.843   4.443
  185POPC  H15R21224   1.804   5.843   4.404
  185POPC  H15S21225   1.958   5.760   4.388
  185POPC  C21621226   1.983   5.972   4.402
  185POPC  H16R21227   2.090   5.961   4.430
  185POPC  H16S21228   1.936   6.047   4.469
  185POPC  C21721229   1.978   6.024   4.261
  185POPC  H17R21230   1.870   6.014   4.239
  185POPC  H17S21231   2.042   5.966   4.191
  185POPC  C21821232   2.009   6.171   4.242
  185POPC  H18R21233   1.994   6.201   4.136
  185POPC  H18S21234   2.112   6.187   4.280
  185POPC  H18T21235   1.942   6.243   4.295
  185POPC   C3321236   1.311   6.119   5.514
  185POPC   H3X21237   1.260   6.043   5.577
  185POPC   H3Y21238   1.399   6.066   5.473
  185POPC   C3421239   1.222   6.156   5.399
  185POPC   H4X21240   1.165   6.245   5.434
  185POPC   H4Y21241   1.150   6.074   5.380
  185POPC   C3521242   1.286   6.197   5.270
  185POPC   H5X21243   1.368   6.272   5.273
  185POPC   H5Y21244   1.206   6.253   5.216
  185POPC   C3621245   1.326   6.079   5.180
  185POPC   H6X21246   1.341   5.984   5.236
  185POPC   H6Y21247   1.427   6.101   5.139
  185POPC   C3721248   1.223   6.054   5.072
  185POPC   H7X21249   1.208   6.153   5.025
  185POPC   H7Y21250   1.126   6.028   5.120
  185POPC   C3821251   1.270   5.949   4.980
  185POPC   H8X21252   1.294   5.859   5.041
  185POPC   H8Y21253   1.367   5.984   4.938
  185POPC   C3921254   1.165   5.900   4.880
  185POPC   H9X21255   1.172   5.969   4.793
  185POPC   H9Y21256   1.062   5.927   4.912
  185POPC  C31021257   1.176   5.751   4.840
  185POPC  H10X21258   1.092   5.719   4.775
  185POPC  H10Y21259   1.171   5.683   4.928
  185POPC  C31121260   1.311   5.716   4.769
  185POPC  H11X21261   1.403   5.743   4.824
  185POPC  H11Y21262   1.316   5.784   4.680
  185POPC  C31221263   1.316   5.569   4.719
  185POPC  H12X21264   1.216   5.543   4.677
  185POPC  H12Y21265   1.344   5.510   4.808
  185POPC  C31321266   1.423   5.559   4.618
  185POPC  H13X21267   1.518   5.602   4.656
  185POPC  H13Y21268   1.397   5.609   4.522
  185POPC  C31421269   1.462   5.408   4.587
  185POPC  H14X21270   1.478   5.363   4.687
  185POPC  H14Y21271   1.559   5.400   4.534
  185POPC  C31521272   1.361   5.325   4.505
  185POPC  H15X21273   1.264   5.320   4.560
  185POPC  H15Y21274   1.394   5.219   4.500
  185POPC  C31621275   1.327   5.382   4.373
  185POPC  H16X21276   1.424   5.398   4.322
  185POPC  H16Y21277   1.279   5.482   4.376
  185POPC  H16Z21278   1.264   5.312   4.314
  186POPC     N21279   3.303   4.933   7.106
  186POPC   C1221280   3.203   4.874   7.004
  186POPC  H12A21281   3.106   4.920   7.016
  186POPC  H12B21282   3.190   4.771   7.035
  186POPC   C1321283   3.432   4.874   7.092
  186POPC  H13A21284   3.509   4.927   7.147
  186POPC  H13B21285   3.426   4.773   7.130
  186POPC  H13C21286   3.461   4.865   6.988
  186POPC   C1421287   3.322   5.080   7.084
  186POPC  H14A21288   3.233   5.140   7.096
  186POPC  H14B21289   3.409   5.114   7.138
  186POPC  H14C21290   3.349   5.095   6.981
  186POPC   C1521291   3.250   4.905   7.241
  186POPC  H15A21292   3.234   4.802   7.268
  186POPC  H15B21293   3.156   4.955   7.254
  186POPC  H15C21294   3.319   4.950   7.311
  186POPC   C1121295   3.238   4.876   6.852
  186POPC  H11A21296   3.170   4.801   6.808
  186POPC  H11B21297   3.330   4.816   6.840
  186POPC     P21298   3.108   5.074   6.749
  186POPC   O1321299   3.049   5.155   6.859
  186POPC   O1421300   3.038   4.954   6.700
  186POPC   O1221301   3.243   5.010   6.792
  186POPC   O1121302   3.145   5.172   6.629
  186POPC    C121303   3.183   5.122   6.502
  186POPC    HA21304   3.106   5.068   6.443
  186POPC    HB21305   3.269   5.052   6.514
  186POPC    C221306   3.244   5.235   6.416
  186POPC    HS21307   3.172   5.316   6.392
  186POPC   O2121308   3.306   5.170   6.302
  186POPC   C2121309   3.278   5.209   6.181
  186POPC   O2221310   3.213   5.307   6.148
  186POPC   C2221311   3.325   5.103   6.082
  186POPC   H2R21312   3.299   5.003   6.124
  186POPC   H2S21313   3.436   5.116   6.076
  186POPC    C321314   3.350   5.306   6.502
  186POPC    HX21315   3.415   5.236   6.560
  186POPC    HY21316   3.288   5.359   6.578
  186POPC   O3121317   3.428   5.390   6.418
  186POPC   C3121318   3.386   5.508   6.386
  186POPC   O3221319   3.289   5.568   6.426
  186POPC   C3221320   3.481   5.571   6.283
  186POPC   H2X21321   3.539   5.490   6.235
  186POPC   H2Y21322   3.559   5.627   6.339
  186POPC   C2321323   3.277   5.133   5.943
  186POPC   H3R21324   3.178   5.180   5.960
  186POPC   H3S21325   3.261   5.045   5.877
  186POPC   C2421326   3.366   5.232   5.867
  186POPC   H4R21327   3.449   5.170   5.827
  186POPC   H4S21328   3.407   5.307   5.937
  186POPC   C2521329   3.291   5.312   5.754
  186POPC   H5R21330   3.226   5.386   5.807
  186POPC   H5S21331   3.237   5.240   5.689
  186POPC   C2621332   3.393   5.390   5.671
  186POPC   H6R21333   3.481   5.440   5.716
  186POPC   H6S21334   3.336   5.477   5.632
  186POPC   C2721335   3.456   5.307   5.563
  186POPC   H7R21336   3.382   5.257   5.497
  186POPC   H7S21337   3.513   5.222   5.608
  186POPC   C2821338   3.557   5.378   5.474
  186POPC   H8R21339   3.646   5.419   5.526
  186POPC   H8S21340   3.498   5.454   5.419
  186POPC   C2921341   3.604   5.283   5.367
  186POPC   H9121342   3.641   5.193   5.418
  186POPC  C21021343   3.614   5.295   5.235
  186POPC  H10121344   3.659   5.221   5.167
  186POPC  C21121345   3.579   5.419   5.164
  186POPC  H11R21346   3.513   5.485   5.223
  186POPC  H11S21347   3.518   5.384   5.078
  186POPC  C21221348   3.705   5.495   5.119
  186POPC  H12R21349   3.766   5.512   5.211
  186POPC  H12S21350   3.674   5.592   5.075
  186POPC  C21321351   3.789   5.432   5.009
  186POPC  H13R21352   3.832   5.338   5.051
  186POPC  H13S21353   3.873   5.502   4.987
  186POPC  C21421354   3.710   5.405   4.878
  186POPC  H14R21355   3.669   5.499   4.835
  186POPC  H14S21356   3.633   5.326   4.892
  186POPC  C21521357   3.804   5.356   4.764
  186POPC  H15R21358   3.835   5.250   4.774
  186POPC  H15S21359   3.896   5.417   4.763
  186POPC  C21621360   3.749   5.393   4.629
  186POPC  H16R21361   3.725   5.500   4.618
  186POPC  H16S21362   3.651   5.341   4.628
  186POPC  C21721363   3.827   5.339   4.503
  186POPC  H17R21364   3.757   5.358   4.419
  186POPC  H17S21365   3.833   5.228   4.515
  186POPC  C21821366   3.962   5.408   4.467
  186POPC  H18R21367   4.033   5.375   4.545
  186POPC  H18S21368   3.944   5.518   4.460
  186POPC  H18T21369   4.000   5.375   4.368
  186POPC   C3321370   3.410   5.658   6.170
  186POPC   H3X21371   3.369   5.754   6.206
  186POPC   H3Y21372   3.325   5.601   6.128
  186POPC   C3421373   3.499   5.689   6.055
  186POPC   H4X21374   3.543   5.596   6.013
  186POPC   H4Y21375   3.593   5.745   6.074
  186POPC   C3521376   3.427   5.758   5.940
  186POPC   H5X21377   3.387   5.854   5.981
  186POPC   H5Y21378   3.343   5.704   5.891
  186POPC   C3621379   3.526   5.786   5.832
  186POPC   H6X21380   3.609   5.712   5.833
  186POPC   H6Y21381   3.566   5.887   5.856
  186POPC   C3721382   3.454   5.784   5.698
  186POPC   H7X21383   3.371   5.859   5.700
  186POPC   H7Y21384   3.402   5.687   5.680
  186POPC   C3821385   3.548   5.803   5.581
  186POPC   H8X21386   3.604   5.707   5.576
  186POPC   H8Y21387   3.618   5.889   5.593
  186POPC   C3921388   3.490   5.832   5.444
  186POPC   H9X21389   3.418   5.918   5.442
  186POPC   H9Y21390   3.422   5.748   5.419
  186POPC  C31021391   3.597   5.841   5.333
  186POPC  H10X21392   3.652   5.745   5.324
  186POPC  H10Y21393   3.672   5.921   5.346
  186POPC  C31121394   3.532   5.851   5.200
  186POPC  H11X21395   3.457   5.932   5.192
  186POPC  H11Y21396   3.468   5.763   5.180
  186POPC  C31221397   3.638   5.885   5.087
  186POPC  H12X21398   3.719   5.810   5.087
  186POPC  H12Y21399   3.693   5.978   5.115
  186POPC  C31321400   3.572   5.903   4.948
  186POPC  H13X21401   3.482   5.968   4.948
  186POPC  H13Y21402   3.534   5.802   4.924
  186POPC  C31421403   3.677   5.932   4.847
  186POPC  H14X21404   3.774   5.881   4.859
  186POPC  H14Y21405   3.709   6.038   4.859
  186POPC  C31521406   3.632   5.900   4.703
  186POPC  H15X21407   3.711   5.931   4.632
  186POPC  H15Y21408   3.538   5.957   4.685
  186POPC  C31621409   3.616   5.749   4.674
  186POPC  H16X21410   3.597   5.722   4.568
  186POPC  H16Y21411   3.533   5.714   4.738
  186POPC  H16Z21412   3.708   5.703   4.717
  187POPC     N21413   6.548   4.640   1.927
  187POPC   C1221414   6.402   4.673   1.929
  187POPC  H12A21415   6.347   4.580   1.932
  187POPC  H12B21416   6.371   4.720   1.837
  187POPC   C1321417   6.615   4.763   1.865
  187POPC  H13A21418   6.561   4.787   1.774
  187POPC  H13B21419   6.604   4.848   1.930
  187POPC  H13C21420   6.721   4.745   1.852
  187POPC   C1421421   6.605   4.601   2.056
  187POPC  H14A21422   6.553   4.514   2.092
  187POPC  H14B21423   6.709   4.573   2.062
  187POPC  H14C21424   6.588   4.680   2.128
  187POPC   C1521425   6.581   4.530   1.829
  187POPC  H15A21426   6.558   4.553   1.726
  187POPC  H15B21427   6.534   4.436   1.854
  187POPC  H15C21428   6.687   4.511   1.835
  187POPC   C1121429   6.347   4.762   2.044
  187POPC  H11A21430   6.424   4.834   2.077
  187POPC  H11B21431   6.328   4.713   2.142
  187POPC     P21432   6.229   4.974   1.930
  187POPC   O1321433   6.092   5.016   1.898
  187POPC   O1421434   6.327   4.976   1.820
  187POPC   O1221435   6.226   4.828   2.001
  187POPC   O1121436   6.290   5.068   2.038
  187POPC    C121437   6.247   5.199   2.061
  187POPC    HA21438   6.175   5.230   1.983
  187POPC    HB21439   6.338   5.262   2.054
  187POPC    C221440   6.175   5.215   2.202
  187POPC    HS21441   6.255   5.203   2.278
  187POPC   O2121442   6.081   5.116   2.216
  187POPC   C2121443   6.081   5.048   2.328
  187POPC   O2221444   6.154   5.067   2.422
  187POPC   C2221445   5.955   4.969   2.325
  187POPC   H2R21446   5.954   4.926   2.222
  187POPC   H2S21447   5.869   5.040   2.320
  187POPC    C321448   6.106   5.355   2.214
  187POPC    HX21449   6.018   5.358   2.147
  187POPC    HY21450   6.176   5.432   2.175
  187POPC   O3121451   6.086   5.376   2.353
  187POPC   C3121452   5.964   5.356   2.403
  187POPC   O3221453   5.864   5.325   2.336
  187POPC   C3221454   5.976   5.338   2.556
  187POPC   H2X21455   6.082   5.341   2.589
  187POPC   H2Y21456   5.927   5.242   2.582
  187POPC   C2321457   5.931   4.859   2.441
  187POPC   H3R21458   5.909   4.917   2.533
  187POPC   H3S21459   6.025   4.816   2.481
  187POPC   C2421460   5.818   4.756   2.407
  187POPC   H4R21461   5.848   4.722   2.306
  187POPC   H4S21462   5.723   4.812   2.410
  187POPC   C2521463   5.800   4.646   2.506
  187POPC   H5R21464   5.881   4.570   2.505
  187POPC   H5S21465   5.719   4.577   2.473
  187POPC   C2621466   5.776   4.687   2.648
  187POPC   H6R21467   5.707   4.774   2.653
  187POPC   H6S21468   5.873   4.724   2.689
  187POPC   C2721469   5.710   4.577   2.738
  187POPC   H7R21470   5.773   4.486   2.740
  187POPC   H7S21471   5.612   4.546   2.695
  187POPC   C2821472   5.714   4.635   2.879
  187POPC   H8R21473   5.637   4.584   2.941
  187POPC   H8S21474   5.677   4.739   2.866
  187POPC   C2921475   5.842   4.616   2.950
  187POPC   H9121476   5.925   4.603   2.879
  187POPC  C21021477   5.877   4.618   3.080
  187POPC  H10121478   5.984   4.613   3.105
  187POPC  C21121479   5.775   4.646   3.195
  187POPC  H11R21480   5.772   4.554   3.257
  187POPC  H11S21481   5.672   4.672   3.161
  187POPC  C21221482   5.821   4.770   3.275
  187POPC  H12R21483   5.855   4.849   3.206
  187POPC  H12S21484   5.916   4.744   3.328
  187POPC  C21321485   5.720   4.811   3.381
  187POPC  H13R21486   5.625   4.831   3.326
  187POPC  H13S21487   5.754   4.906   3.428
  187POPC  C21421488   5.700   4.710   3.497
  187POPC  H14R21489   5.696   4.615   3.439
  187POPC  H14S21490   5.605   4.727   3.552
  187POPC  C21521491   5.809   4.706   3.598
  187POPC  H15R21492   5.908   4.742   3.563
  187POPC  H15S21493   5.816   4.598   3.623
  187POPC  C21621494   5.767   4.786   3.723
  187POPC  H16R21495   5.829   4.757   3.810
  187POPC  H16S21496   5.670   4.741   3.753
  187POPC  C21721497   5.752   4.933   3.718
  187POPC  H17R21498   5.676   4.963   3.643
  187POPC  H17S21499   5.851   4.970   3.684
  187POPC  C21821500   5.712   5.001   3.856
  187POPC  H18R21501   5.795   5.001   3.930
  187POPC  H18S21502   5.629   4.938   3.894
  187POPC  H18T21503   5.680   5.105   3.835
  187POPC   C3321504   5.908   5.447   2.632
  187POPC   H3X21505   5.816   5.479   2.579
  187POPC   H3Y21506   5.975   5.534   2.644
  187POPC   C3421507   5.862   5.397   2.779
  187POPC   H4X21508   5.955   5.375   2.836
  187POPC   H4Y21509   5.805   5.302   2.776
  187POPC   C3521510   5.779   5.507   2.850
  187POPC   H5X21511   5.685   5.528   2.795
  187POPC   H5Y21512   5.842   5.597   2.837
  187POPC   C3621513   5.748   5.488   3.000
  187POPC   H6X21514   5.837   5.445   3.050
  187POPC   H6Y21515   5.673   5.407   3.014
  187POPC   C3721516   5.710   5.623   3.073
  187POPC   H7X21517   5.618   5.662   3.024
  187POPC   H7Y21518   5.789   5.699   3.056
  187POPC   C3821519   5.697   5.613   3.220
  187POPC   H8X21520   5.781   5.561   3.270
  187POPC   H8Y21521   5.609   5.550   3.247
  187POPC   C3921522   5.679   5.749   3.288
  187POPC   H9X21523   5.595   5.808   3.246
  187POPC   H9Y21524   5.775   5.801   3.266
  187POPC  C31021525   5.678   5.733   3.441
  187POPC  H10X21526   5.762   5.671   3.477
  187POPC  H10Y21527   5.578   5.688   3.461
  187POPC  C31121528   5.689   5.866   3.516
  187POPC  H11X21529   5.606   5.930   3.478
  187POPC  H11Y21530   5.788   5.906   3.485
  187POPC  C31221531   5.676   5.875   3.669
  187POPC  H12X21532   5.773   5.834   3.705
  187POPC  H12Y21533   5.592   5.815   3.710
  187POPC  C31321534   5.652   6.016   3.713
  187POPC  H13X21535   5.564   6.051   3.656
  187POPC  H13Y21536   5.738   6.074   3.671
  187POPC  C31421537   5.658   6.056   3.866
  187POPC  H14X21538   5.666   6.166   3.871
  187POPC  H14Y21539   5.760   6.038   3.905
  187POPC  C31521540   5.529   6.006   3.942
  187POPC  H15X21541   5.521   5.899   3.915
  187POPC  H15Y21542   5.443   6.060   3.895
  187POPC  C31621543   5.538   6.034   4.093
  187POPC  H16X21544   5.446   6.005   4.147
  187POPC  H16Y21545   5.549   6.143   4.111
  187POPC  H16Z21546   5.623   5.978   4.138
  188POPC     N21547   5.159   4.347   1.949
  188POPC   C1221548   5.226   4.380   1.814
  188POPC  H12A21549   5.161   4.348   1.734
  188POPC  H12B21550   5.316   4.322   1.813
  188POPC   C1321551   5.177   4.201   1.968
  188POPC  H13A21552   5.280   4.178   1.947
  188POPC  H13B21553   5.146   4.171   2.066
  188POPC  H13C21554   5.117   4.155   1.891
  188POPC   C1421555   5.230   4.409   2.055
  188POPC  H14A21556   5.202   4.377   2.155
  188POPC  H14B21557   5.334   4.383   2.055
  188POPC  H14C21558   5.221   4.516   2.044
  188POPC   C1521559   5.009   4.371   1.935
  188POPC  H15A21560   4.973   4.302   1.860
  188POPC  H15B21561   4.985   4.467   1.893
  188POPC  H15C21562   4.953   4.360   2.027
  188POPC   C1121563   5.245   4.530   1.779
  188POPC  H11A21564   5.298   4.550   1.684
  188POPC  H11B21565   5.312   4.565   1.861
  188POPC     P21566   5.109   4.758   1.812
  188POPC   O1321567   4.977   4.804   1.765
  188POPC   O1421568   5.229   4.824   1.760
  188POPC   O1221569   5.120   4.603   1.767
  188POPC   O1121570   5.119   4.767   1.968
  188POPC    C121571   5.010   4.726   2.059
  188POPC    HA21572   4.980   4.619   2.047
  188POPC    HB21573   4.914   4.778   2.040
  188POPC    C221574   5.039   4.776   2.206
  188POPC    HS21575   5.067   4.883   2.220
  188POPC   O2121576   5.150   4.690   2.246
  188POPC   C2121577   5.220   4.746   2.347
  188POPC   O2221578   5.206   4.859   2.384
  188POPC   C2221579   5.315   4.639   2.410
  188POPC   H2R21580   5.372   4.590   2.328
  188POPC   H2S21581   5.249   4.559   2.451
  188POPC    C321582   4.918   4.745   2.301
  188POPC    HX21583   4.902   4.636   2.285
  188POPC    HY21584   4.829   4.795   2.256
  188POPC   O3121585   4.935   4.779   2.445
  188POPC   C3121586   4.930   4.911   2.464
  188POPC   O3221587   4.904   4.993   2.377
  188POPC   C3221588   4.955   4.951   2.614
  188POPC   H2X21589   5.063   4.938   2.637
  188POPC   H2Y21590   4.898   4.878   2.674
  188POPC   C2321591   5.399   4.688   2.532
  188POPC   H3R21592   5.468   4.767   2.497
  188POPC   H3S21593   5.462   4.600   2.556
  188POPC   C2421594   5.314   4.709   2.661
  188POPC   H4R21595   5.258   4.805   2.657
  188POPC   H4S21596   5.389   4.714   2.743
  188POPC   C2521597   5.218   4.595   2.706
  188POPC   H5R21598   5.271   4.497   2.709
  188POPC   H5S21599   5.142   4.582   2.626
  188POPC   C2621600   5.161   4.619   2.846
  188POPC   H6R21601   5.093   4.537   2.878
  188POPC   H6S21602   5.115   4.720   2.853
  188POPC   C2721603   5.268   4.619   2.955
  188POPC   H7R21604   5.355   4.686   2.938
  188POPC   H7S21605   5.308   4.516   2.967
  188POPC   C2821606   5.214   4.659   3.095
  188POPC   H8R21607   5.287   4.620   3.169
  188POPC   H8S21608   5.127   4.597   3.124
  188POPC   C2921609   5.173   4.805   3.117
  188POPC   H9121610   5.136   4.853   3.026
  188POPC  C21021611   5.209   4.883   3.222
  188POPC  H10121612   5.177   4.988   3.211
  188POPC  C21121613   5.290   4.826   3.338
  188POPC  H11R21614   5.399   4.838   3.320
  188POPC  H11S21615   5.285   4.715   3.335
  188POPC  C21221616   5.257   4.894   3.480
  188POPC  H12R21617   5.148   4.882   3.499
  188POPC  H12S21618   5.246   5.003   3.466
  188POPC  C21321619   5.360   4.870   3.590
  188POPC  H13R21620   5.449   4.912   3.539
  188POPC  H13S21621   5.376   4.760   3.593
  188POPC  C21421622   5.337   4.935   3.730
  188POPC  H14R21623   5.414   4.908   3.806
  188POPC  H14S21624   5.243   4.886   3.762
  188POPC  C21521625   5.302   5.079   3.717
  188POPC  H15R21626   5.197   5.099   3.686
  188POPC  H15S21627   5.375   5.128   3.648
  188POPC  C21621628   5.328   5.157   3.855
  188POPC  H16R21629   5.286   5.260   3.847
  188POPC  H16S21630   5.438   5.151   3.870
  188POPC  C21721631   5.263   5.107   3.980
  188POPC  H17R21632   5.291   5.002   4.002
  188POPC  H17S21633   5.152   5.109   3.969
  188POPC  C21821634   5.298   5.181   4.107
  188POPC  H18R21635   5.248   5.279   4.114
  188POPC  H18S21636   5.407   5.202   4.098
  188POPC  H18T21637   5.272   5.116   4.193
  188POPC   C3321638   4.909   5.095   2.652
  188POPC   H3X21639   4.817   5.118   2.593
  188POPC   H3Y21640   4.992   5.160   2.617
  188POPC   C3421641   4.881   5.128   2.802
  188POPC   H4X21642   4.784   5.081   2.830
  188POPC   H4Y21643   4.850   5.233   2.822
  188POPC   C3521644   4.988   5.072   2.907
  188POPC   H5X21645   5.082   5.062   2.848
  188POPC   H5Y21646   4.959   4.972   2.947
  188POPC   C3621647   5.000   5.178   3.020
  188POPC   H6X21648   5.002   5.277   2.971
  188POPC   H6Y21649   5.094   5.165   3.077
  188POPC   C3721650   4.885   5.151   3.126
  188POPC   H7X21651   4.869   5.046   3.158
  188POPC   H7Y21652   4.789   5.196   3.091
  188POPC   C3821653   4.925   5.224   3.258
  188POPC   H8X21654   4.963   5.323   3.223
  188POPC   H8Y21655   5.005   5.167   3.310
  188POPC   C3921656   4.805   5.230   3.351
  188POPC   H9X21657   4.769   5.125   3.348
  188POPC   H9Y21658   4.720   5.289   3.310
  188POPC  C31021659   4.851   5.263   3.497
  188POPC  H10X21660   4.878   5.371   3.496
  188POPC  H10Y21661   4.941   5.207   3.530
  188POPC  C31121662   4.735   5.243   3.594
  188POPC  H11X21663   4.701   5.138   3.593
  188POPC  H11Y21664   4.652   5.307   3.559
  188POPC  C31221665   4.770   5.271   3.737
  188POPC  H12X21666   4.861   5.214   3.768
  188POPC  H12Y21667   4.682   5.248   3.801
  188POPC  C31321668   4.801   5.413   3.755
  188POPC  H13X21669   4.730   5.473   3.695
  188POPC  H13Y21670   4.895   5.446   3.706
  188POPC  C31421671   4.822   5.465   3.900
  188POPC  H14X21672   4.737   5.432   3.965
  188POPC  H14Y21673   4.822   5.576   3.896
  188POPC  C31521674   4.957   5.405   3.944
  188POPC  H15X21675   5.036   5.466   3.896
  188POPC  H15Y21676   4.966   5.297   3.919
  188POPC  C31621677   4.981   5.419   4.096
  188POPC  H16X21678   4.950   5.328   4.151
  188POPC  H16Y21679   4.946   5.511   4.149
  188POPC  H16Z21680   5.092   5.420   4.111
  189SAPI   C1221681   1.599   5.232   6.613
  189SAPI    H221682   1.636   5.129   6.597
  189SAPI    O221683   1.458   5.227   6.647
  189SAPI   HO221684   1.408   5.186   6.577
  189SAPI   C1321685   1.685   5.293   6.723
  189SAPI    H321686   1.787   5.294   6.679
  189SAPI    O321687   1.690   5.205   6.837
  189SAPI   HO321688   1.675   5.264   6.912
  189SAPI   C1421689   1.656   5.436   6.754
  189SAPI    H421690   1.566   5.429   6.819
  189SAPI    O421691   1.756   5.497   6.845
  189SAPI   HO421692   1.724   5.477   6.933
  189SAPI   C1521693   1.618   5.522   6.636
  189SAPI    H521694   1.699   5.595   6.612
  189SAPI    O521695   1.509   5.611   6.668
  189SAPI   HO521696   1.428   5.561   6.685
  189SAPI   C1621697   1.586   5.458   6.503
  189SAPI    H621698   1.476   5.458   6.494
  189SAPI    O621699   1.639   5.529   6.394
  189SAPI   HO621700   1.580   5.601   6.369
  189SAPI   C1121701   1.617   5.310   6.492
  189SAPI    H121702   1.722   5.298   6.458
  189SAPI     P21703   1.583   5.125   6.290
  189SAPI   O1321704   1.475   5.062   6.209
  189SAPI   O1421705   1.662   5.030   6.370
  189SAPI   O1221706   1.540   5.254   6.384
  189SAPI   O1121707   1.686   5.181   6.185
  189SAPI    C121708   1.728   5.125   6.066
  189SAPI    HA21709   1.837   5.105   6.061
  189SAPI    HB21710   1.661   5.038   6.048
  189SAPI    C221711   1.691   5.222   5.944
  189SAPI    HS21712   1.755   5.310   5.970
  189SAPI   O2121713   1.549   5.239   5.943
  189SAPI   C2121714   1.505   5.364   5.964
  189SAPI   O2221715   1.577   5.461   5.948
  189SAPI   C2221716   1.365   5.360   6.017
  189SAPI   H2R21717   1.364   5.287   6.101
  189SAPI   H2S21718   1.328   5.460   6.047
  189SAPI    C321719   1.724   5.172   5.803
  189SAPI    HX21720   1.703   5.249   5.726
  189SAPI    HY21721   1.657   5.088   5.778
  189SAPI   O3121722   1.865   5.123   5.792
  189SAPI   C3121723   1.953   5.224   5.780
  189SAPI   O3221724   1.922   5.340   5.764
  189SAPI   C3221725   2.089   5.172   5.787
  189SAPI   H2X21726   2.113   5.130   5.687
  189SAPI   H2Y21727   2.094   5.095   5.867
  189SAPI   C2321728   1.269   5.325   5.908
  189SAPI   H3R21729   1.168   5.298   5.945
  189SAPI   H3S21730   1.317   5.238   5.857
  189SAPI   C2421731   1.262   5.431   5.796
  189SAPI   H4R21732   1.367   5.445   5.760
  189SAPI   H4S21733   1.217   5.519   5.846
  189SAPI   C2521734   1.171   5.378   5.690
  189SAPI   H5R21735   1.064   5.374   5.718
  189SAPI   C2621736   1.207   5.303   5.581
  189SAPI   H6R21737   1.122   5.281   5.515
  189SAPI   C2721738   1.343   5.286   5.519
  189SAPI   H7R21739   1.407   5.368   5.558
  189SAPI   H7S21740   1.338   5.296   5.409
  189SAPI   C2821741   1.416   5.161   5.564
  189SAPI   H8R21742   1.375   5.095   5.642
  189SAPI   C2921743   1.534   5.129   5.516
  189SAPI   H9R21744   1.580   5.041   5.563
  189SAPI  C21021745   1.611   5.208   5.412
  189SAPI  H10R21746   1.541   5.262   5.344
  189SAPI  H10S21747   1.669   5.144   5.342
  189SAPI  C21121748   1.706   5.319   5.460
  189SAPI  H11R21749   1.661   5.392   5.529
  189SAPI  C21221750   1.838   5.333   5.438
  189SAPI  H12R21751   1.888   5.429   5.461
  189SAPI  C21321752   1.930   5.249   5.344
  189SAPI  H13R21753   1.935   5.292   5.242
  189SAPI  H13S21754   1.892   5.145   5.338
  189SAPI  C21421755   2.077   5.236   5.387
  189SAPI  H14R21756   2.096   5.149   5.452
  189SAPI  C21521757   2.168   5.338   5.376
  189SAPI  H15R21758   2.268   5.321   5.419
  189SAPI  C21621759   2.153   5.473   5.304
  189SAPI  H16R21760   2.206   5.550   5.366
  189SAPI  H16S21761   2.047   5.506   5.302
  189SAPI  C21721762   2.211   5.470   5.161
  189SAPI  H17R21763   2.153   5.391   5.109
  189SAPI  H17S21764   2.315   5.434   5.149
  189SAPI  C21821765   2.180   5.589   5.075
  189SAPI  H18R21766   2.074   5.619   5.084
  189SAPI  H18S21767   2.197   5.572   4.966
  189SAPI  C21921768   2.265   5.705   5.115
  189SAPI  H19R21769   2.370   5.678   5.139
  189SAPI  H19S21770   2.221   5.750   5.206
  189SAPI  C22021771   2.267   5.808   4.999
  189SAPI  H20R21772   2.322   5.899   5.033
  189SAPI  H20S21773   2.164   5.835   4.970
  189SAPI  H20T21774   2.316   5.783   4.903
  189SAPI   C3321775   2.213   5.266   5.825
  189SAPI   H3X21776   2.274   5.210   5.899
  189SAPI   H3Y21777   2.166   5.352   5.877
  189SAPI   C3421778   2.283   5.310   5.704
  189SAPI   H4X21779   2.192   5.345   5.650
  189SAPI   H4Y21780   2.329   5.224   5.651
  189SAPI   C3521781   2.395   5.417   5.723
  189SAPI   H5X21782   2.479   5.365   5.775
  189SAPI   H5Y21783   2.359   5.506   5.780
  189SAPI   C3621784   2.443   5.469   5.591
  189SAPI   H6X21785   2.362   5.474   5.515
  189SAPI   H6Y21786   2.524   5.408   5.545
  189SAPI   C3721787   2.493   5.613   5.601
  189SAPI   H7X21788   2.580   5.610   5.670
  189SAPI   H7Y21789   2.423   5.679   5.657
  189SAPI   C3821790   2.534   5.665   5.459
  189SAPI   H8X21791   2.447   5.665   5.390
  189SAPI   H8Y21792   2.602   5.590   5.412
  189SAPI   C3921793   2.592   5.808   5.451
  189SAPI   H9X21794   2.688   5.809   5.506
  189SAPI   H9Y21795   2.523   5.882   5.498
  189SAPI  C31021796   2.618   5.850   5.307
  189SAPI  H10X21797   2.527   5.837   5.244
  189SAPI  H10Y21798   2.686   5.776   5.261
  189SAPI  C31121799   2.677   5.993   5.288
  189SAPI  H11X21800   2.760   5.995   5.362
  189SAPI  H11Y21801   2.598   6.065   5.319
  189SAPI  C31221802   2.716   6.036   5.142
  189SAPI  H12X21803   2.787   5.959   5.104
  189SAPI  H12Y21804   2.778   6.128   5.140
  189SAPI  C31321805   2.595   6.053   5.041
  189SAPI  H13X21806   2.517   6.120   5.085
  189SAPI  H13Y21807   2.558   5.951   5.022
  189SAPI  C31421808   2.628   6.124   4.913
  189SAPI  H14X21809   2.672   6.062   4.832
  189SAPI  H14Y21810   2.710   6.199   4.925
  189SAPI  C31521811   2.510   6.197   4.851
  189SAPI  H15X21812   2.502   6.300   4.894
  189SAPI  H15Y21813   2.424   6.130   4.873
  189SAPI  C31621814   2.513   6.217   4.701
  189SAPI  H16X21815   2.604   6.271   4.668
  189SAPI  H16Y21816   2.431   6.288   4.678
  189SAPI  C31721817   2.489   6.098   4.613
  189SAPI  H17X21818   2.562   6.020   4.643
  189SAPI  H17Y21819   2.514   6.118   4.506
  189SAPI  C31821820   2.345   6.035   4.628
  189SAPI  H18X21821   2.329   5.953   4.554
  189SAPI  H18Y21822   2.259   6.103   4.611
  189SAPI  H18Z21823   2.327   5.998   4.731
  190SAPI   C1221824   0.904   2.876   6.534
  190SAPI    H221825   0.825   2.871   6.456
  190SAPI    O221826   0.899   2.747   6.598
  190SAPI   HO221827   0.969   2.732   6.661
  190SAPI   C1321828   1.035   2.897   6.464
  190SAPI    H321829   1.023   2.997   6.415
  190SAPI    O321830   1.056   2.798   6.360
  190SAPI   HO321831   1.030   2.710   6.391
  190SAPI   C1421832   1.150   2.889   6.555
  190SAPI    H421833   1.173   2.782   6.575
  190SAPI    O421834   1.263   2.941   6.482
  190SAPI   HO421835   1.308   2.884   6.420
  190SAPI   C1521836   1.137   2.969   6.688
  190SAPI    H521837   1.170   3.075   6.683
  190SAPI    O521838   1.221   2.904   6.783
  190SAPI   HO521839   1.178   2.826   6.818
  190SAPI   C1621840   0.988   2.983   6.742
  190SAPI    H621841   0.965   2.893   6.802
  190SAPI    O621842   0.965   3.093   6.836
  190SAPI   HO621843   0.916   3.077   6.917
  190SAPI   C1121844   0.887   2.992   6.632
  190SAPI    H121845   0.899   3.091   6.582
  190SAPI     P21846   0.624   3.052   6.623
  190SAPI   O1321847   0.645   3.189   6.588
  190SAPI   O1421848   0.517   3.039   6.719
  190SAPI   O1221849   0.757   2.978   6.684
  190SAPI   O1121850   0.602   2.969   6.495
  190SAPI    C121851   0.486   2.937   6.429
  190SAPI    HA21852   0.397   2.934   6.496
  190SAPI    HB21853   0.459   3.001   6.342
  190SAPI    C221854   0.502   2.801   6.364
  190SAPI    HS21855   0.537   2.720   6.433
  190SAPI   O2121856   0.599   2.823   6.260
  190SAPI   C2121857   0.708   2.747   6.266
  190SAPI   O2221858   0.739   2.666   6.348
  190SAPI   C2221859   0.796   2.796   6.148
  190SAPI   H2R21860   0.756   2.891   6.106
  190SAPI   H2S21861   0.890   2.842   6.187
  190SAPI    C321862   0.376   2.747   6.296
  190SAPI    HX21863   0.352   2.819   6.215
  190SAPI    HY21864   0.294   2.723   6.367
  190SAPI   O3121865   0.416   2.630   6.222
  190SAPI   C3121866   0.436   2.518   6.288
  190SAPI   O3221867   0.444   2.510   6.406
  190SAPI   C3221868   0.458   2.406   6.190
  190SAPI   H2X21869   0.507   2.454   6.103
  190SAPI   H2Y21870   0.362   2.363   6.154
  190SAPI   C2321871   0.830   2.691   6.036
  190SAPI   H3R21872   0.731   2.652   6.003
  190SAPI   H3S21873   0.875   2.600   6.081
  190SAPI   C2421874   0.915   2.730   5.923
  190SAPI   H4R21875   0.978   2.649   5.880
  190SAPI   H4S21876   0.986   2.805   5.964
  190SAPI   C2521877   0.849   2.801   5.811
  190SAPI   H5R21878   0.855   2.910   5.815
  190SAPI   C2621879   0.788   2.743   5.704
  190SAPI   H6R21880   0.735   2.802   5.628
  190SAPI   C2721881   0.775   2.599   5.665
  190SAPI   H7R21882   0.679   2.575   5.614
  190SAPI   H7S21883   0.767   2.544   5.762
  190SAPI   C2821884   0.900   2.550   5.598
  190SAPI   H8R21885   0.961   2.498   5.673
  190SAPI   C2921886   0.922   2.522   5.469
  190SAPI   H9R21887   1.022   2.493   5.435
  190SAPI  C21021888   0.826   2.565   5.354
  190SAPI  H10R21889   0.724   2.544   5.393
  190SAPI  H10S21890   0.827   2.499   5.265
  190SAPI  C21121891   0.860   2.712   5.313
  190SAPI  H11R21892   0.879   2.771   5.404
  190SAPI  C21221893   0.881   2.758   5.185
  190SAPI  H12R21894   0.937   2.852   5.181
  190SAPI  C21321895   0.877   2.680   5.053
  190SAPI  H13R21896   0.866   2.758   4.974
  190SAPI  H13S21897   0.784   2.619   5.053
  190SAPI  C21421898   0.996   2.603   5.009
  190SAPI  H14R21899   1.080   2.618   5.078
  190SAPI  C21521900   1.010   2.555   4.886
  190SAPI  H15R21901   1.108   2.523   4.847
  190SAPI  C21621902   0.888   2.547   4.790
  190SAPI  H16R21903   0.796   2.543   4.851
  190SAPI  H16S21904   0.898   2.451   4.734
  190SAPI  C21721905   0.888   2.656   4.690
  190SAPI  H17R21906   0.900   2.760   4.725
  190SAPI  H17S21907   0.785   2.658   4.649
  190SAPI  C21821908   0.980   2.631   4.571
  190SAPI  H18R21909   0.952   2.532   4.529
  190SAPI  H18S21910   1.085   2.600   4.590
  190SAPI  C21921911   0.960   2.747   4.472
  190SAPI  H19R21912   0.850   2.762   4.463
  190SAPI  H19S21913   1.012   2.709   4.381
  190SAPI  C22021914   1.026   2.884   4.508
  190SAPI  H20R21915   1.022   2.905   4.617
  190SAPI  H20S21916   0.983   2.964   4.444
  190SAPI  H20T21917   1.137   2.880   4.499
  190SAPI   C3321918   0.534   2.286   6.249
  190SAPI   H3X21919   0.484   2.233   6.334
  190SAPI   H3Y21920   0.625   2.328   6.297
  190SAPI   C3421921   0.587   2.171   6.151
  190SAPI   H4X21922   0.495   2.126   6.107
  190SAPI   H4Y21923   0.637   2.102   6.223
  190SAPI   C3521924   0.680   2.216   6.040
  190SAPI   H5X21925   0.758   2.137   6.036
  190SAPI   H5Y21926   0.734   2.308   6.071
  190SAPI   C3621927   0.615   2.230   5.899
  190SAPI   H6X21928   0.554   2.322   5.886
  190SAPI   H6Y21929   0.541   2.147   5.891
  190SAPI   C3721930   0.704   2.214   5.776
  190SAPI   H7X21931   0.755   2.115   5.779
  190SAPI   H7Y21932   0.782   2.292   5.783
  190SAPI   C3821933   0.624   2.231   5.644
  190SAPI   H8X21934   0.568   2.327   5.645
  190SAPI   H8Y21935   0.538   2.162   5.636
  190SAPI   C3921936   0.717   2.202   5.525
  190SAPI   H9X21937   0.748   2.096   5.509
  190SAPI   H9Y21938   0.808   2.262   5.545
  190SAPI  C31021939   0.662   2.251   5.396
  190SAPI  H10X21940   0.639   2.359   5.395
  190SAPI  H10Y21941   0.568   2.195   5.381
  190SAPI  C31121942   0.759   2.224   5.284
  190SAPI  H11X21943   0.808   2.124   5.284
  190SAPI  H11Y21944   0.843   2.296   5.287
  190SAPI  C31221945   0.696   2.244   5.143
  190SAPI  H12X21946   0.687   2.349   5.110
  190SAPI  H12Y21947   0.591   2.207   5.148
  190SAPI  C31321948   0.785   2.195   5.033
  190SAPI  H13X21949   0.784   2.085   5.046
  190SAPI  H13Y21950   0.886   2.239   5.049
  190SAPI  C31421951   0.740   2.227   4.887
  190SAPI  H14X21952   0.726   2.335   4.866
  190SAPI  H14Y21953   0.638   2.186   4.868
  190SAPI  C31521954   0.832   2.170   4.781
  190SAPI  H15X21955   0.939   2.189   4.805
  190SAPI  H15Y21956   0.820   2.216   4.681
  190SAPI  C31621957   0.809   2.022   4.767
  190SAPI  H16X21958   0.731   2.005   4.690
  190SAPI  H16Y21959   0.771   1.972   4.859
  190SAPI  C31721960   0.941   1.954   4.727
  190SAPI  H17X21961   1.021   1.986   4.797
  190SAPI  H17Y21962   0.972   1.993   4.627
  190SAPI  C31821963   0.916   1.799   4.731
  190SAPI  H18X21964   0.866   1.777   4.827
  190SAPI  H18Y21965   1.016   1.754   4.748
  190SAPI  H18Z21966   0.865   1.759   4.640
  191SAPI   C1221967   4.488   4.392   2.141
  191SAPI    H221968   4.505   4.383   2.251
  191SAPI    O221969   4.453   4.529   2.121
  191SAPI   HO221970   4.517   4.575   2.175
  191SAPI   C1321971   4.622   4.355   2.064
  191SAPI    H321972   4.657   4.252   2.086
  191SAPI    O321973   4.735   4.435   2.102
  191SAPI   HO321974   4.721   4.523   2.065
  191SAPI   C1421975   4.588   4.352   1.911
  191SAPI    H421976   4.577   4.462   1.895
  191SAPI    O421977   4.692   4.320   1.824
  191SAPI   HO421978   4.703   4.225   1.826
  191SAPI   C1521979   4.461   4.281   1.871
  191SAPI    H521980   4.484   4.173   1.883
  191SAPI    O521981   4.433   4.311   1.735
  191SAPI   HO521982   4.392   4.236   1.691
  191SAPI   C1621983   4.338   4.300   1.969
  191SAPI    H621984   4.304   4.403   1.944
  191SAPI    O621985   4.236   4.213   1.928
  191SAPI   HO621986   4.197   4.172   2.005
  191SAPI   C1121987   4.377   4.288   2.115
  191SAPI    H121988   4.421   4.188   2.135
  191SAPI     P21989   4.156   4.226   2.255
  191SAPI   O1321990   4.129   4.129   2.149
  191SAPI   O1421991   4.045   4.314   2.296
  191SAPI   O1221992   4.270   4.330   2.201
  191SAPI   O1121993   4.220   4.154   2.381
  191SAPI    C121994   4.347   4.088   2.397
  191SAPI    HA21995   4.431   4.147   2.355
  191SAPI    HB21996   4.371   4.093   2.506
  191SAPI    C221997   4.354   3.944   2.351
  191SAPI    HS21998   4.300   3.939   2.254
  191SAPI   O2121999   4.277   3.864   2.443
  191SAPI   C2122000   4.247   3.739   2.402
  191SAPI   O2222001   4.284   3.706   2.294
  191SAPI   C2222002   4.162   3.658   2.504
  191SAPI   H2R22003   4.107   3.730   2.568
  191SAPI   H2S22004   4.083   3.601   2.451
  191SAPI    C322005   4.502   3.906   2.334
  191SAPI    HX22006   4.558   3.976   2.269
  191SAPI    HY22007   4.509   3.806   2.285
  191SAPI   O3122008   4.563   3.910   2.463
  191SAPI   C3122009   4.617   3.794   2.515
  191SAPI   O3222010   4.611   3.684   2.467
  191SAPI   C3222011   4.672   3.818   2.653
  191SAPI   H2X22012   4.588   3.847   2.720
  191SAPI   H2Y22013   4.745   3.901   2.645
  191SAPI   C2322014   4.241   3.559   2.587
  191SAPI   H3R22015   4.300   3.493   2.520
  191SAPI   H3S22016   4.169   3.501   2.647
  191SAPI   C2422017   4.332   3.645   2.671
  191SAPI   H4R22018   4.281   3.739   2.702
  191SAPI   H4S22019   4.411   3.680   2.601
  191SAPI   C2522020   4.391   3.554   2.775
  191SAPI   H5R22021   4.462   3.478   2.737
  191SAPI   C2622022   4.353   3.559   2.901
  191SAPI   H6R22023   4.409   3.500   2.975
  191SAPI   C2722024   4.257   3.655   2.960
  191SAPI   H7R22025   4.184   3.691   2.885
  191SAPI   H7S22026   4.315   3.744   2.992
  191SAPI   C2822027   4.191   3.588   3.082
  191SAPI   H8R22028   4.130   3.500   3.060
  191SAPI   C2922029   4.196   3.616   3.215
  191SAPI   H9R22030   4.136   3.562   3.290
  191SAPI  C21022031   4.276   3.726   3.279
  191SAPI  H10R22032   4.209   3.814   3.289
  191SAPI  H10S22033   4.361   3.748   3.211
  191SAPI  C21122034   4.336   3.680   3.408
  191SAPI  H11R22035   4.402   3.592   3.408
  191SAPI  C21222036   4.332   3.749   3.526
  191SAPI  H12R22037   4.385   3.716   3.617
  191SAPI  C21322038   4.256   3.876   3.552
  191SAPI  H13R22039   4.269   3.945   3.465
  191SAPI  H13S22040   4.304   3.928   3.638
  191SAPI  C21422041   4.112   3.846   3.571
  191SAPI  H14R22042   4.057   3.866   3.478
  191SAPI  C21522043   4.046   3.802   3.674
  191SAPI  H15R22044   3.941   3.771   3.662
  191SAPI  C21622045   4.097   3.784   3.820
  191SAPI  H16R22046   4.051   3.868   3.875
  191SAPI  H16S22047   4.205   3.801   3.838
  191SAPI  C21722048   4.032   3.655   3.873
  191SAPI  H17R22049   4.083   3.569   3.824
  191SAPI  H17S22050   3.923   3.659   3.854
  191SAPI  C21822051   4.061   3.645   4.028
  191SAPI  H18R22052   3.994   3.566   4.067
  191SAPI  H18S22053   4.057   3.742   4.082
  191SAPI  C21922054   4.208   3.582   4.050
  191SAPI  H19R22055   4.278   3.658   4.009
  191SAPI  H19S22056   4.229   3.486   3.997
  191SAPI  C22022057   4.235   3.551   4.197
  191SAPI  H20R22058   4.344   3.529   4.210
  191SAPI  H20S22059   4.180   3.459   4.226
  191SAPI  H20T22060   4.196   3.628   4.267
  191SAPI   C3322061   4.725   3.691   2.708
  191SAPI   H3X22062   4.804   3.659   2.637
  191SAPI   H3Y22063   4.648   3.612   2.702
  191SAPI   C3422064   4.778   3.700   2.851
  191SAPI   H4X22065   4.876   3.751   2.835
  191SAPI   H4Y22066   4.814   3.598   2.873
  191SAPI   C3522067   4.682   3.744   2.965
  191SAPI   H5X22068   4.614   3.658   2.985
  191SAPI   H5Y22069   4.627   3.835   2.935
  191SAPI   C3622070   4.766   3.792   3.086
  191SAPI   H6X22071   4.840   3.870   3.059
  191SAPI   H6Y22072   4.830   3.704   3.110
  191SAPI   C3722073   4.677   3.811   3.209
  191SAPI   H7X22074   4.623   3.717   3.234
  191SAPI   H7Y22075   4.596   3.885   3.194
  191SAPI   C3822076   4.743   3.851   3.336
  191SAPI   H8X22077   4.799   3.947   3.331
  191SAPI   H8Y22078   4.827   3.783   3.362
  191SAPI   C3922079   4.651   3.856   3.463
  191SAPI   H9X22080   4.595   3.760   3.470
  191SAPI   H9Y22081   4.580   3.939   3.443
  191SAPI  C31022082   4.729   3.893   3.595
  191SAPI  H10X22083   4.783   3.987   3.569
  191SAPI  H10Y22084   4.809   3.824   3.628
  191SAPI  C31122085   4.638   3.914   3.713
  191SAPI  H11X22086   4.587   3.819   3.742
  191SAPI  H11Y22087   4.564   3.992   3.687
  191SAPI  C31222088   4.709   3.967   3.834
  191SAPI  H12X22089   4.769   4.060   3.822
  191SAPI  H12Y22090   4.784   3.892   3.867
  191SAPI  C31322091   4.617   3.989   3.955
  191SAPI  H13X22092   4.545   3.906   3.974
  191SAPI  H13Y22093   4.562   4.086   3.951
  191SAPI  C31422094   4.703   3.994   4.087
  191SAPI  H14X22095   4.767   4.085   4.089
  191SAPI  H14Y22096   4.778   3.912   4.084
  191SAPI  C31522097   4.616   3.983   4.218
  191SAPI  H15X22098   4.517   4.029   4.201
  191SAPI  H15Y22099   4.676   4.042   4.290
  191SAPI  C31622100   4.622   3.834   4.265
  191SAPI  H16X22101   4.727   3.808   4.292
  191SAPI  H16Y22102   4.589   3.778   4.176
  191SAPI  C31722103   4.526   3.811   4.376
  191SAPI  H17X22104   4.421   3.811   4.338
  191SAPI  H17Y22105   4.532   3.888   4.456
  191SAPI  C31822106   4.538   3.681   4.450
  191SAPI  H18X22107   4.456   3.677   4.525
  191SAPI  H18Y22108   4.638   3.671   4.496
  191SAPI  H18Z22109   4.544   3.596   4.378
  192SAPI   C1222110   6.860   6.570   1.995
  192SAPI    H222111   6.874   6.649   1.918
  192SAPI    O222112   6.728   6.582   2.052
  192SAPI   HO222113   6.691   6.670   2.042
  192SAPI   C1322114   6.880   6.425   1.938
  192SAPI    H322115   0.094   6.430   1.891
  192SAPI    O322116   6.792   6.389   1.835
  192SAPI   HO322117   6.701   6.397   1.862
  192SAPI   C1422118   6.886   6.320   2.042
  192SAPI    H422119   6.782   6.306   2.081
  192SAPI    O422120   0.047   6.192   1.991
  192SAPI   HO422121   0.050   6.126   2.061
  192SAPI   C1522122   0.082   6.344   2.171
  192SAPI    H522123   0.183   6.309   2.143
  192SAPI    O522124   0.039   6.258   2.279
  192SAPI   HO522125   0.094   6.180   2.276
  192SAPI   C1622126   0.103   6.497   2.202
  192SAPI    H622127   0.026   6.515   2.281
  192SAPI    O622128   0.231   6.515   2.264
  192SAPI   HO622129   0.217   6.586   2.326
  192SAPI   C1122130   0.078   6.599   2.103
  192SAPI    H122131   0.173   6.597   2.045
  192SAPI     P22132   0.085   6.868   2.095
  192SAPI   O1322133   6.830   0.042   2.085
  192SAPI   O1422134   0.169   6.856   1.972
  192SAPI   O1222135   0.072   6.721   2.169
  192SAPI   O1122136   0.155   0.061   2.198
  192SAPI    C122137   0.265   0.044   2.280
  192SAPI    HA22138   0.314   6.832   2.262
  192SAPI    HB22139   0.349   0.113   2.256
  192SAPI    C222140   0.238   0.082   2.427
  192SAPI    HS22141   0.314   0.055   2.504
  192SAPI   O2122142   0.106   0.029   2.462
  192SAPI   C2122143   0.111   6.782   2.478
  192SAPI   O2222144   0.213   6.716   2.476
  192SAPI   C2222145   6.856   6.724   2.504
  192SAPI   H2R22146   6.804   6.685   2.414
  192SAPI   H2S22147   6.873   6.635   2.567
  192SAPI    C322148   0.220   0.236   2.439
  192SAPI    HX22149   0.158   0.275   2.356
  192SAPI    HY22150   0.318   0.288   2.426
  192SAPI   O3122151   0.160   0.272   2.563
  192SAPI   C3122152   0.239   0.273   2.675
  192SAPI   O3222153   0.359   0.244   2.679
  192SAPI   C3222154   0.147   0.311   2.791
  192SAPI   H2X22155   0.039   0.306   2.765
  192SAPI   H2Y22156   0.169   0.420   2.802
  192SAPI   C2322157   6.758   6.818   2.582
  192SAPI   H3R22158   6.719   0.008   2.511
  192SAPI   H3S22159   6.821   6.864   2.661
  192SAPI   C2422160   6.638   6.747   2.646
  192SAPI   H4R22161   6.574   6.694   2.572
  192SAPI   H4S22162   6.578   6.830   2.689
  192SAPI   C2522163   6.667   6.652   2.761
  192SAPI   H5R22164   6.691   6.550   2.728
  192SAPI   C2622165   6.669   6.678   2.893
  192SAPI   H6R22166   6.686   6.600   2.968
  192SAPI   C2722167   6.650   6.819   2.942
  192SAPI   H7R22168   6.543   6.840   2.964
  192SAPI   H7S22169   6.675   0.008   2.864
  192SAPI   C2822170   6.733   6.854   3.065
  192SAPI   H8R22171   6.837   6.870   3.036
  192SAPI   C2922172   6.687   0.023   3.176
  192SAPI   H9R22173   6.752   0.022   3.265
  192SAPI  C21022174   6.536   0.034   3.217
  192SAPI  H10R22175   6.502   6.825   3.264
  192SAPI  H10S22176   6.471   0.032   3.127
  192SAPI  C21122177   6.507   0.155   3.307
  192SAPI  H11R22178   6.493   0.242   3.241
  192SAPI  C21222179   6.498   0.157   3.442
  192SAPI  H12R22180   6.487   0.253   3.495
  192SAPI  C21322181   6.519   0.042   3.538
  192SAPI  H13R22182   6.625   0.013   3.555
  192SAPI  H13S22183   6.476   6.833   3.500
  192SAPI  C21422184   6.457   0.082   3.674
  192SAPI  H14R22185   6.376   0.156   3.663
  192SAPI  C21522186   6.491   0.034   3.794
  192SAPI  H15R22187   6.438   0.070   3.884
  192SAPI  C21622188   6.604   6.821   3.809
  192SAPI  H16R22189   6.698   6.880   3.808
  192SAPI  H16S22190   6.610   6.732   3.742
  192SAPI  C21722191   6.589   6.768   3.946
  192SAPI  H17R22192   6.489   6.721   3.958
  192SAPI  H17S22193   6.616   6.836   4.030
  192SAPI  C21822194   6.680   6.642   3.977
  192SAPI  H18R22195   6.677   6.567   3.895
  192SAPI  H18S22196   6.633   6.599   4.068
  192SAPI  C21922197   6.822   6.683   3.999
  192SAPI  H19R22198   6.822   6.778   4.057
  192SAPI  H19S22199   6.863   6.702   3.897
  192SAPI  C22022200   0.033   6.586   4.075
  192SAPI  H20R22201   0.139   6.599   4.043
  192SAPI  H20S22202   0.004   6.481   4.055
  192SAPI  H20T22203   0.027   6.612   4.183
  192SAPI   C3322204   0.180   0.242   2.928
  192SAPI   H3X22205   0.285   0.261   2.959
  192SAPI   H3Y22206   0.182   0.131   2.924
  192SAPI   C3422207   0.087   0.284   3.031
  192SAPI   H4X22208   6.872   0.241   3.010
  192SAPI   H4Y22209   0.072   0.394   3.033
  192SAPI   C3522210   0.130   0.230   3.170
  192SAPI   H5X22211   0.235   0.257   3.193
  192SAPI   H5Y22212   0.119   0.119   3.170
  192SAPI   C3622213   0.041   0.285   3.288
  192SAPI   H6X22214   6.824   0.243   3.294
  192SAPI   H6Y22215   0.027   0.393   3.266
  192SAPI   C3722216   0.102   0.266   3.426
  192SAPI   H7X22217   0.205   0.308   3.425
  192SAPI   H7Y22218   0.099   0.156   3.437
  192SAPI   C3822219   0.015   0.343   3.526
  192SAPI   H8X22220   6.794   0.324   3.504
  192SAPI   H8Y22221   0.029   0.450   3.496
  192SAPI   C3922222   0.057   0.317   3.673
  192SAPI   H9X22223   0.012   0.403   3.727
  192SAPI   H9Y22224   0.168   0.324   3.674
  192SAPI  C31022225   0.001   0.180   3.725
  192SAPI  H10X22226   0.034   0.095   3.662
  192SAPI  H10Y22227   6.779   0.201   3.737
  192SAPI  C31122228   0.046   0.159   3.871
  192SAPI  H11X22229   6.881   0.065   3.900
  192SAPI  H11Y22230   0.019   0.245   3.937
  192SAPI  C31222231   0.193   0.135   3.886
  192SAPI  H12X22232   0.244   0.228   3.854
  192SAPI  H12Y22233   0.245   0.063   3.819
  192SAPI  C31322234   0.228   0.095   4.032
  192SAPI  H13X22235   0.337   0.072   4.026
  192SAPI  H13Y22236   0.170   0.003   4.054
  192SAPI  C31422237   0.216   0.207   4.137
  192SAPI  H14X22238   0.108   0.232   4.151
  192SAPI  H14Y22239   0.273   0.299   4.109
  192SAPI  C31522240   0.266   0.160   4.276
  192SAPI  H15X22241   0.367   0.119   4.255
  192SAPI  H15Y22242   0.199   0.084   4.321
  192SAPI  C31622243   0.286   0.278   4.390
  192SAPI  H16X22244   0.180   0.311   4.397
  192SAPI  H16Y22245   0.355   0.357   4.355
  192SAPI  C31722246   0.317   0.236   4.528
  192SAPI  H17X22247   0.252   0.150   4.554
  192SAPI  H17Y22248   0.283   0.308   4.606
  192SAPI  C31822249   0.468   0.211   4.550
  192SAPI  H18X22250   0.526   0.305   4.553
  192SAPI  H18Y22251   0.508   0.153   4.465
  192SAPI  H18Z22252   0.478   0.142   4.637
  193SOD    SOD22253   3.110   4.693   1.962
  194SOD    SOD22254   2.906   4.666   6.484
  195SOD    SOD22255   3.202   6.480   8.498
  196SOD    SOD22256   2.788   1.964   1.802
  197SOD    SOD22257   2.642   0.811   6.376
  198SOD    SOD22258   0.534   1.316   7.195
  199SOD    SOD22259   1.090   0.243   6.993
  200SOD    SOD22260   5.218   1.598   1.571
  201SOD    SOD22261   6.166   0.272   1.876
  202SOD    SOD22262   3.094   6.044   1.321
  203SOD    SOD22263   4.254   5.688   8.013
  204SOD    SOD22264   2.723   2.657   1.803
  205SOD    SOD22265   4.556   4.356   0.519
  206SOD    SOD22266   2.986   4.222   1.761
  207SOD    SOD22267   0.896   2.936   2.349
  208SOD    SOD22268   3.593   0.393   6.351
  209SOD    SOD22269   4.459   2.703   1.828
  210SOD    SOD22270   5.002   3.612   8.533
  211SOD    SOD22271   1.907   2.934   7.416
  212SOD    SOD22272   5.884   6.769   1.477
  213SOD    SOD22273   6.258   6.568   0.773
  214SOD    SOD22274   3.162   1.590   8.087
  215SOD    SOD22275   4.824   4.430   1.627
  216SOD    SOD22276   1.136   4.006   7.352
  217SOD    SOD22277   3.133   3.763   7.987
  218SOD    SOD22278   1.695   0.908   7.926
  219SOD    SOD22279   3.585   4.223   6.326
  220SOD    SOD22280   2.613   4.345   7.055
  221SOD    SOD22281   1.678   5.706   7.523
  222SOD    SOD22282   2.673   1.832   1.028
  223SOD    SOD22283   4.204   5.375   2.251
  224SOD    SOD22284   6.013   0.225   7.372
  225SOD    SOD22285   5.844   6.267   6.334
  226SOD    SOD22286   4.462   4.848   1.511
  227SOD    SOD22287   4.793   3.632   6.567
  228SOD    SOD22288   6.772   3.855   8.173
  229SOD    SOD22289   5.596   4.461   7.951
  230SOD    SOD22290   2.874   5.721   7.190
  231SOD    SOD22291   1.094   5.024   7.001
  232SOD    SOD22292   5.989   6.034   7.305
  233SOD    SOD22293   2.668   1.914   2.498
  234CLA    CLA22294   3.106   5.234   7.725
  235CLA    CLA22295   3.918   3.262   1.258
  236CLA    CLA22296   3.804   1.565   0.326
  237CLA    CLA22297   2.480   1.078   0.396
  238CLA    CLA22298   0.208   6.297   0.133
  239CLA    CLA22299   4.683   3.476   1.347
  240CLA    CLA22300   2.900   5.482   0.481
  241CLA    CLA22301   2.227   6.681   8.121
  242CLA    CLA22302   1.646   5.396   7.106
  243CLA    CLA22303   5.139   6.380   7.515
  244CLA    CLA22304   4.091   4.242   0.769
  245CLA    CLA22305   1.875   3.887   0.218
  246CLA    CLA22306   0.601   1.097   7.691
  247CLA    CLA22307   3.827   0.876   7.976
  248CLA    CLA22308   5.347   4.597   0.910
  249CLA    CLA22309   2.852   3.297   7.541
  250CLA    CLA22310   6.739   3.787   7.085
  251TIP3   OH222311   3.232   0.028   7.802
  251TIP3    H122312   3.164   6.865   7.847
  251TIP3    H222313   3.312   6.862   7.813
  252TIP3   OH222314   2.252   1.390   8.583
  252TIP3    H122315   2.186   1.414   8.518
  252TIP3    H222316   2.201   1.379   0.002
  253TIP3   OH222317   5.299   3.695   1.644
  253TIP3    H122318   5.294   3.785   1.674
  253TIP3    H222319   5.367   3.655   1.698
  254TIP3   OH222320   1.825   1.763   1.864
  254TIP3    H122321   1.767   1.713   1.922
  254TIP3    H222322   1.858   1.835   1.918
  255TIP3   OH222323   2.245   5.318   1.008
  255TIP3    H122324   2.276   5.400   1.045
  255TIP3    H222325   2.300   5.304   0.931
  256TIP3   OH222326   1.998   4.101   2.075
  256TIP3    H122327   2.007   4.109   1.980
  256TIP3    H222328   1.923   4.042   2.087
  257TIP3   OH222329   2.259   5.802   7.600
  257TIP3    H122330   2.306   5.777   7.520
  257TIP3    H222331   2.204   5.876   7.574
  258TIP3   OH222332   6.536   2.944   2.354
  258TIP3    H122333   6.571   3.008   2.291
  258TIP3    H222334   6.595   2.950   2.429
  259TIP3   OH222335   3.038   6.628   7.255
  259TIP3    H122336   3.084   6.605   7.174
  259TIP3    H222337   2.946   6.631   7.231
  260TIP3   OH222338   6.825   1.772   6.926
  260TIP3    H122339   6.884   1.719   6.872
  260TIP3    H222340   6.743   1.773   6.877
  261TIP3   OH222341   2.848   6.086   8.591
  261TIP3    H122342   2.903   6.040   8.655
  261TIP3    H222343   2.777   6.123   8.644
  262TIP3   OH222344   5.926   4.202   7.795
  262TIP3    H122345   5.987   4.198   7.721
  262TIP3    H222346   5.859   4.136   7.775
  263TIP3   OH222347   5.822   1.800   1.534
  263TIP3    H122348   5.777   1.884   1.534
  263TIP3    H222349   5.889   1.809   1.602
  264TIP3   OH222350   1.047   3.112   7.334
  264TIP3    H122351   1.038   3.039   7.273
  264TIP3    H222352   1.033   3.073   7.420
  265TIP3   OH222353   6.736   3.212   2.487
  265TIP3    H122354   6.708   3.246   2.402
  265TIP3    H222355   6.659   3.220   2.543
  266TIP3   OH222356   5.531   0.231   7.618
  266TIP3    H122357   5.439   0.232   7.644
  266TIP3    H222358   5.547   0.141   7.588
  267TIP3   OH222359   3.109   1.078   6.967
  267TIP3    H122360   3.021   1.108   6.942
  267TIP3    H222361   3.148   1.153   7.012
  268TIP3   OH222362   0.894   1.674   0.774
  268TIP3    H122363   0.980   1.671   0.816
  268TIP3    H222364   0.886   1.591   0.729
  269TIP3   OH222365   1.226   0.113   0.514
  269TIP3    H122366   1.283   0.162   0.573
  269TIP3    H222367   1.139   0.117   0.555
  270TIP3   OH222368   3.278   1.812   1.461
  270TIP3    H122369   3.296   1.842   1.550
  270TIP3    H222370   3.346   1.746   1.444
  271TIP3   OH222371   5.744   5.574   6.110
  271TIP3    H122372   5.789   5.550   6.191
  271TIP3    H222373   5.658   5.606   6.139
  272TIP3   OH222374   4.252   0.570   8.085
  272TIP3    H122375   4.209   0.654   8.099
  272TIP3    H222376   4.329   0.573   8.143
  273TIP3   OH222377   0.437   6.194   6.662
  273TIP3    H122378   0.349   6.206   6.627
  273TIP3    H222379   0.491   6.255   6.612
  274TIP3   OH222380   4.674   6.419   6.368
  274TIP3    H122381   4.674   6.327   6.396
  274TIP3    H222382   4.623   6.465   6.435
  275TIP3   OH222383   4.767   1.662   0.672
  275TIP3    H122384   4.716   1.707   0.739
  275TIP3    H222385   4.777   1.727   0.602
  276TIP3   OH222386   1.518   5.720   7.702
  276TIP3    H122387   1.440   5.669   7.680
  276TIP3    H222388   1.514   5.729   7.797
  277TIP3   OH222389   3.658   5.925   8.360
  277TIP3    H122390   3.604   5.869   8.303
  277TIP3    H222391   3.747   5.908   8.330
  278TIP3   OH222392   0.612   4.469   0.347
  278TIP3    H122393   0.691   4.468   0.293
  278TIP3    H222394   0.597   4.377   0.369
  279TIP3   OH222395   2.444   5.305   0.813
  279TIP3    H122396   2.536   5.324   0.830
  279TIP3    H222397   2.442   5.212   0.794
  280TIP3   OH222398   6.317   6.082   2.357
  280TIP3    H122399   6.242   6.105   2.413
  280TIP3    H222400   6.320   5.986   2.360
  281TIP3   OH222401   0.136   1.642   2.312
  281TIP3    H122402   0.084   1.715   2.346
  281TIP3    H222403   0.183   1.608   2.388
  282TIP3   OH222404   5.089   4.893   7.526
  282TIP3    H122405   5.130   4.815   7.561
  282TIP3    H222406   5.160   4.940   7.482
  283TIP3   OH222407   0.366   3.521   6.918
  283TIP3    H122408   0.410   3.449   6.872
  283TIP3    H222409   0.288   3.481   6.956
  284TIP3   OH222410   3.596   0.516   1.260
  284TIP3    H122411   3.548   0.504   1.343
  284TIP3    H222412   3.539   0.476   1.194
  285TIP3   OH222413   1.515   5.281   1.536
  285TIP3    H122414   1.579   5.266   1.466
  285TIP3    H222415   1.505   5.376   1.538
  286TIP3   OH222416   6.135   5.756   0.293
  286TIP3    H122417   6.175   5.669   0.293
  286TIP3    H222418   6.173   5.801   0.368
  287TIP3   OH222419   1.489   3.021   7.013
  287TIP3    H122420   1.514   3.011   6.921
  287TIP3    H222421   1.394   3.028   7.011
  288TIP3   OH222422   0.190   2.126   6.654
  288TIP3    H122423   0.280   2.094   6.661
  288TIP3    H222424   0.182   2.154   6.563
  289TIP3   OH222425   1.095   1.285   1.088
  289TIP3    H122426   1.003   1.304   1.102
  289TIP3    H222427   1.106   1.285   0.993
  290TIP3   OH222428   1.606   6.450   1.108
  290TIP3    H122429   1.624   6.539   1.075
  290TIP3    H222430   1.510   6.444   1.110
  291TIP3   OH222431   1.681   1.882   0.216
  291TIP3    H122432   1.629   1.895   0.137
  291TIP3    H222433   1.617   1.880   0.287
  292TIP3   OH222434   4.814   1.946   1.605
  292TIP3    H122435   4.862   1.937   1.688
  292TIP3    H222436   4.729   1.980   1.631
  293TIP3   OH222437   6.081   3.557   1.093
  293TIP3    H122438   6.037   3.540   1.176
  293TIP3    H222439   6.033   3.504   1.029
  294TIP3   OH222440   3.070   3.607   8.629
  294TIP3    H122441   3.015   3.664   0.022
  294TIP3    H222442   3.131   3.567   0.029
  295TIP3   OH222443   4.635   6.156   8.587
  295TIP3    H122444   4.589   6.228   8.630
  295TIP3    H222445   4.640   6.182   8.495
  296TIP3   OH222446   6.309   1.551   1.377
  296TIP3    H122447   6.317   1.509   1.463
  296TIP3    H222448   6.368   1.500   1.320
  297TIP3   OH222449   6.812   1.351   0.995
  297TIP3    H122450   6.748   1.417   1.022
  297TIP3    H222451   6.849   1.385   0.913
  298TIP3   OH222452   4.704   1.909   7.145
  298TIP3    H122453   4.720   1.914   7.239
  298TIP3    H222454   4.762   1.840   7.115
  299TIP3   OH222455   5.830   3.650   0.191
  299TIP3    H122456   5.797   3.655   0.101
  299TIP3    H222457   5.753   3.638   0.245
  300TIP3   OH222458   1.769   0.248   7.678
  300TIP3    H122459   1.862   0.229   7.667
  300TIP3    H222460   1.742   0.288   7.596
  301TIP3   OH222461   1.482   3.948   6.864
  301TIP3    H122462   1.417   3.904   6.810
  301TIP3    H222463   1.462   3.920   6.953
  302TIP3   OH222464   2.696   5.821   7.977
  302TIP3    H122465   2.699   5.778   8.062
  302TIP3    H222466   2.616   5.787   7.936
  303TIP3   OH222467   4.299   2.737   0.833
  303TIP3    H122468   4.252   2.666   0.878
  303TIP3    H222469   4.323   2.798   0.903
  304TIP3   OH222470   2.723   0.791   0.116
  304TIP3    H122471   2.631   0.779   0.139
  304TIP3    H222472   2.761   0.704   0.123
  305TIP3   OH222473   3.978   0.822   1.714
  305TIP3    H122474   3.948   0.821   1.805
  305TIP3    H222475   4.066   0.785   1.718
  306TIP3   OH222476   4.937   0.937   0.825
  306TIP3    H122477   4.986   0.878   0.769
  306TIP3    H222478   5.001   0.970   0.888
  307TIP3   OH222479   0.649   3.712   6.794
  307TIP3    H122480   0.565   3.750   6.821
  307TIP3    H222481   0.626   3.647   6.729
  308TIP3   OH222482   4.698   4.438   0.353
  308TIP3    H122483   4.714   4.532   0.339
  308TIP3    H222484   4.687   4.402   0.265
  309TIP3   OH222485   0.287   3.485   1.164
  309TIP3    H122486   0.201   3.522   1.145
  309TIP3    H222487   0.270   3.391   1.176
  310TIP3   OH222488   0.651   1.265   8.405
  310TIP3    H122489   0.642   1.255   8.310
  310TIP3    H222490   0.565   1.240   8.439
  311TIP3   OH222491   2.777   5.789   0.091
  311TIP3    H122492   2.818   5.716   0.045
  311TIP3    H222493   2.783   5.766   0.184
  312TIP3   OH222494   1.483   2.536   1.076
  312TIP3    H122495   1.441   2.555   0.993
  312TIP3    H222496   1.555   2.599   1.082
  313TIP3   OH222497   6.097   0.465   8.358
  313TIP3    H122498   6.126   0.514   8.435
  313TIP3    H222499   6.048   0.391   8.393
  314TIP3   OH222500   0.996   5.605   7.832
  314TIP3    H122501   1.016   5.599   7.925
  314TIP3    H222502   0.923   5.667   7.827
  315TIP3   OH222503   6.189   1.002   1.778
  315TIP3    H122504   6.265   0.983   1.832
  315TIP3    H222505   6.224   1.017   1.690
  316TIP3   OH222506   0.703   1.379   6.651
  316TIP3    H122507   0.626   1.335   6.685
  316TIP3    H222508   0.764   1.308   6.630
  317TIP3   OH222509   0.377   2.500   0.563
  317TIP3    H122510   0.412   2.555   0.633
  317TIP3    H222511   0.380   2.411   0.598
  318TIP3   OH222512   4.427   3.767   8.351
  318TIP3    H122513   4.474   3.769   8.268
  318TIP3    H222514   4.340   3.734   8.329
  319TIP3   OH222515   3.982   4.051   6.291
  319TIP3    H122516   4.029   4.088   6.365
  319TIP3    H222517   3.890   4.052   6.319
  320TIP3   OH222518   3.033   3.981   2.362
  320TIP3    H122519   2.951   3.945   2.328
  320TIP3    H222520   3.009   4.066   2.399
  321TIP3   OH222521   3.553   6.106   0.272
  321TIP3    H122522   3.470   6.151   0.286
  321TIP3    H222523   3.534   6.040   0.206
  322TIP3   OH222524   4.099   2.646   6.772
  322TIP3    H122525   4.040   2.720   6.763
  322TIP3    H222526   4.072   2.585   6.703
  323TIP3   OH222527   2.684   2.674   1.549
  323TIP3    H122528   2.592   2.688   1.528
  323TIP3    H222529   2.708   2.593   1.503
  324TIP3   OH222530   0.153   1.264   1.611
  324TIP3    H122531   0.067   1.260   1.570
  324TIP3    H222532   0.211   1.299   1.543
  325TIP3   OH222533   5.513   4.722   8.298
  325TIP3    H122534   5.423   4.742   8.271
  325TIP3    H222535   5.557   4.696   8.217
  326TIP3   OH222536   0.861   3.432   6.014
  326TIP3    H122537   0.815   3.479   6.084
  326TIP3    H222538   0.855   3.340   6.040
  327TIP3   OH222539   1.562   4.912   1.961
  327TIP3    H122540   1.466   4.909   1.966
  327TIP3    H222541   1.590   4.824   1.986
  328TIP3   OH222542   5.751   4.540   6.889
  328TIP3    H122543   5.719   4.630   6.880
  328TIP3    H222544   5.811   4.529   6.815
  329TIP3   OH222545   1.184   2.035   2.062
  329TIP3    H122546   1.143   2.015   2.146
  329TIP3    H222547   1.277   2.019   2.077
  330TIP3   OH222548   2.639   0.505   8.243
  330TIP3    H122549   2.624   0.501   8.338
  330TIP3    H222550   2.595   0.586   8.216
  331TIP3   OH222551   3.220   5.590   1.866
  331TIP3    H122552   3.310   5.622   1.860
  331TIP3    H222553   3.226   5.512   1.923
  332TIP3   OH222554   5.936   5.851   6.879
  332TIP3    H122555   5.936   5.769   6.830
  332TIP3    H222556   5.907   5.917   6.816
  333TIP3   OH222557   0.869   0.376   2.199
  333TIP3    H122558   0.964   0.385   2.186
  333TIP3    H222559   0.836   0.345   2.115
  334TIP3   OH222560   4.831   5.938   5.890
  334TIP3    H122561   4.850   5.845   5.882
  334TIP3    H222562   4.748   5.942   5.938
  335TIP3   OH222563   3.351   0.331   0.590
  335TIP3    H122564   3.311   0.417   0.594
  335TIP3    H222565   3.279   0.269   0.604
  336TIP3   OH222566   5.219   4.060   8.502
  336TIP3    H122567   5.269   3.979   8.516
  336TIP3    H222568   5.217   4.070   8.407
  337TIP3   OH222569   6.103   6.062   8.533
  337TIP3    H122570   6.121   5.997   8.601
  337TIP3    H222571   6.180   6.118   8.531
  338TIP3   OH222572   3.616   0.176   6.283
  338TIP3    H122573   3.670   0.134   6.350
  338TIP3    H222574   3.567   0.105   6.243
  339TIP3   OH222575   6.703   5.810   7.374
  339TIP3    H122576   6.704   5.779   7.284
  339TIP3    H222577   6.710   5.730   7.427
  340TIP3   OH222578   5.704   6.171   1.823
  340TIP3    H122579   5.613   6.145   1.813
  340TIP3    H222580   5.721   6.159   1.917
  341TIP3   OH222581   2.875   3.156   0.559
  341TIP3    H122582   2.916   3.081   0.517
  341TIP3    H222583   2.949   3.214   0.582
  342TIP3   OH222584   2.796   1.261   1.953
  342TIP3    H122585   2.829   1.195   1.891
  342TIP3    H222586   2.874   1.301   1.990
  343TIP3   OH222587   4.531   5.249   6.930
  343TIP3    H122588   4.537   5.344   6.928
  343TIP3    H222589   4.525   5.223   6.838
  344TIP3   OH222590   2.798   1.313   0.395
  344TIP3    H122591   2.773   1.403   0.374
  344TIP3    H222592   2.741   1.258   0.340
  345TIP3   OH222593   2.688   1.711   8.243
  345TIP3    H122594   2.677   1.617   8.254
  345TIP3    H222595   2.643   1.750   8.318
  346TIP3   OH222596   2.617   5.299   7.710
  346TIP3    H122597   2.694   5.261   7.667
  346TIP3    H222598   2.637   5.295   7.803
  347TIP3   OH222599   5.083   1.287   0.425
  347TIP3    H122600   5.036   1.242   0.495
  347TIP3    H222601   5.023   1.357   0.397
  348TIP3   OH222602   4.752   2.111   7.745
  348TIP3    H122603   4.729   2.151   7.829
  348TIP3    H222604   4.846   2.126   7.736
  349TIP3   OH222605   6.328   5.383   0.071
  349TIP3    H122606   6.309   5.451   0.135
  349TIP3    H222607   6.369   5.313   0.123
  350TIP3   OH222608   1.452   3.365   7.253
  350TIP3    H122609   1.388   3.437   7.245
  350TIP3    H222610   1.400   3.286   7.241
  351TIP3   OH222611   1.510   6.112   2.401
  351TIP3    H122612   1.419   6.085   2.416
  351TIP3    H222613   1.560   6.059   2.463
  352TIP3   OH222614   2.586   1.246   6.209
  352TIP3    H122615   2.512   1.307   6.199
  352TIP3    H222616   2.647   1.292   6.267
  353TIP3   OH222617   6.095   4.005   1.474
  353TIP3    H122618   6.042   3.994   1.395
  353TIP3    H222619   6.037   4.051   1.535
  354TIP3   OH222620   4.477   3.661   8.045
  354TIP3    H122621   4.485   3.636   7.953
  354TIP3    H222622   4.543   3.729   8.057
  355TIP3   OH222623   6.720   4.093   8.194
  355TIP3    H122624   6.690   4.149   8.266
  355TIP3    H222625   6.715   4.149   8.116
  356TIP3   OH222626   1.223   1.210   2.212
  356TIP3    H122627   1.184   1.129   2.179
  356TIP3    H222628   1.148   1.266   2.232
  357TIP3   OH222629   5.392   5.161   0.302
  357TIP3    H122630   5.395   5.129   0.211
  357TIP3    H222631   5.337   5.239   0.298
  358TIP3   OH222632   4.290   6.230   8.251
  358TIP3    H122633   4.222   6.163   8.256
  358TIP3    H222634   4.258   6.293   8.186
  359TIP3   OH222635   6.029   0.477   0.197
  359TIP3    H122636   6.016   0.529   0.118
  359TIP3    H222637   6.114   0.506   0.232
  360TIP3   OH222638   5.938   3.722   7.368
  360TIP3    H122639   5.991   3.665   7.423
  360TIP3    H222640   5.908   3.792   7.427
  361TIP3   OH222641   1.667   0.976   1.859
  361TIP3    H122642   1.657   0.928   1.941
  361TIP3    H222643   1.725   1.049   1.880
  362TIP3   OH222644   5.916   1.115   6.684
  362TIP3    H122645   5.841   1.168   6.656
  362TIP3    H222646   5.991   1.157   6.642
  363TIP3   OH222647   0.799   3.337   6.406
  363TIP3    H122648   0.753   3.305   6.483
  363TIP3    H222649   0.744   3.407   6.372
  364TIP3   OH222650   1.143   3.299   0.307
  364TIP3    H122651   1.171   3.268   0.221
  364TIP3    H222652   1.163   3.226   0.366
  365TIP3   OH222653   6.498   3.361   0.403
  365TIP3    H122654   6.493   3.339   0.310
  365TIP3    H222655   6.475   3.280   0.448
  366TIP3   OH222656   1.218   0.630   8.520
  366TIP3    H122657   1.245   0.592   8.436
  366TIP3    H222658   1.282   0.598   8.583
  367TIP3   OH222659   1.755   4.845   1.707
  367TIP3    H122660   1.697   4.871   1.779
  367TIP3    H222661   1.698   4.797   1.647
  368TIP3   OH222662   2.083   5.715   0.817
  368TIP3    H122663   2.062   5.788   0.759
  368TIP3    H222664   2.089   5.639   0.760
  369TIP3   OH222665   2.282   5.793   8.283
  369TIP3    H122666   2.224   5.781   8.358
  369TIP3    H222667   2.324   5.877   8.299
  370TIP3   OH222668   3.901   6.428   7.535
  370TIP3    H122669   3.923   6.521   7.537
  370TIP3    H222670   3.978   6.386   7.497
  371TIP3   OH222671   1.466   1.651   0.313
  371TIP3    H122672   1.552   1.640   0.353
  371TIP3    H222673   1.484   1.694   0.229
  372TIP3   OH222674   2.307   1.701   0.206
  372TIP3    H122675   2.274   1.788   0.185
  372TIP3    H222676   2.329   1.662   0.122
  373TIP3   OH222677   5.926   1.211   1.947
  373TIP3    H122678   5.947   1.266   2.022
  373TIP3    H222679   5.933   1.122   1.979
  374TIP3   OH222680   4.848   1.875   0.483
  374TIP3    H122681   4.787   1.947   0.501
  374TIP3    H222682   4.887   1.896   0.399
  375TIP3   OH222683   3.987   1.267   2.166
  375TIP3    H122684   3.929   1.267   2.242
  375TIP3    H222685   4.006   1.360   2.150
  376TIP3   OH222686   2.660   2.349   1.497
  376TIP3    H122687   2.739   2.385   1.538
  376TIP3    H222688   2.597   2.342   1.569
  377TIP3   OH222689   3.519   3.156   1.936
  377TIP3    H122690   3.457   3.157   1.864
  377TIP3    H222691   3.528   3.064   1.960
  378TIP3   OH222692   2.660   0.849   8.078
  378TIP3    H122693   2.628   0.791   8.147
  378TIP3    H222694   2.743   0.882   8.111
  379TIP3   OH222695   3.772   4.256   1.199
  379TIP3    H122696   3.807   4.225   1.282
  379TIP3    H222697   3.677   4.252   1.210
  380TIP3   OH222698   4.858   1.907   6.705
  380TIP3    H122699   4.811   1.869   6.631
  380TIP3    H222700   4.949   1.883   6.689
  381TIP3   OH222701   5.730   1.391   1.014
  381TIP3    H122702   5.669   1.441   1.068
  381TIP3    H222703   5.681   1.372   0.934
  382TIP3   OH222704   5.791   3.783   1.265
  382TIP3    H122705   5.836   3.862   1.236
  382TIP3    H222706   5.855   3.738   1.320
  383TIP3   OH222707   1.605   5.839   7.954
  383TIP3    H122708   1.680   5.886   7.990
  383TIP3    H222709   1.539   5.907   7.940
  384TIP3   OH222710   0.951   6.037   7.002
  384TIP3    H122711   0.859   6.016   6.983
  384TIP3    H222712   1.000   5.997   6.931
  385TIP3   OH222713   1.568   1.275   8.245
  385TIP3    H122714   1.509   1.314   8.180
  385TIP3    H222715   1.566   1.336   8.319
  386TIP3   OH222716   3.721   3.332   1.958
  386TIP3    H122717   3.791   3.274   1.928
  386TIP3    H222718   3.646   3.274   1.970
  387TIP3   OH222719   1.901   5.220   2.531
  387TIP3    H122720   1.953   5.243   2.608
  387TIP3    H222721   1.964   5.218   2.459
  388TIP3   OH222722   4.595   4.898   2.340
  388TIP3    H122723   4.617   4.809   2.368
  388TIP3    H222724   4.538   4.885   2.264
  389TIP3   OH222725   4.096   3.453   0.375
  389TIP3    H122726   4.004   3.442   0.399
  389TIP3    H222727   4.117   3.543   0.403
  390TIP3   OH222728   4.824   5.856   7.373
  390TIP3    H122729   4.833   5.890   7.284
  390TIP3    H222730   4.905   5.808   7.389
  391TIP3   OH222731   0.621   2.501   0.020
  391TIP3    H122732   0.539   2.548   0.039
  391TIP3    H222733   0.682   2.569   8.653
  392TIP3   OH222734   3.161   1.139   7.628
  392TIP3    H122735   3.177   1.055   7.671
  392TIP3    H222736   3.100   1.184   7.686
  393TIP3   OH222737   3.154   1.639   1.912
  393TIP3    H122738   3.173   1.549   1.885
  393TIP3    H222739   3.081   1.666   1.856
  394TIP3   OH222740   0.020   5.532   1.255
  394TIP3    H122741   6.822   5.490   1.273
  394TIP3    H222742   0.003   5.626   1.266
  395TIP3   OH222743   3.320   1.972   8.226
  395TIP3    H122744   3.313   1.972   8.131
  395TIP3    H222745   3.414   1.978   8.243
  396TIP3   OH222746   5.316   3.474   0.865
  396TIP3    H122747   5.362   3.555   0.885
  396TIP3    H222748   5.379   3.405   0.884
  397TIP3   OH222749   2.657   6.752   1.220
  397TIP3    H122750   2.603   6.796   1.154
  397TIP3    H222751   2.737   6.804   1.223
  398TIP3   OH222752   0.032   4.965   8.427
  398TIP3    H122753   0.031   5.060   8.415
  398TIP3    H222754   0.091   4.934   8.358
  399TIP3   OH222755   3.468   4.645   1.539
  399TIP3    H122756   3.481   4.680   1.627
  399TIP3    H222757   3.552   4.604   1.517
  400TIP3   OH222758   1.916   0.967   7.893
  400TIP3    H122759   1.962   0.902   7.840
  400TIP3    H222760   1.966   1.048   7.880
  401TIP3   OH222761   0.250   6.048   7.522
  401TIP3    H122762   0.169   6.061   7.473
  401TIP3    H222763   0.223   6.010   7.605
  402TIP3   OH222764   3.124   4.869   0.043
  402TIP3    H122765   3.149   4.961   0.056
  402TIP3    H222766   3.194   4.819   0.084
  403TIP3   OH222767   5.604   1.878   7.630
  403TIP3    H122768   5.524   1.837   7.664
  403TIP3    H222769   5.675   1.832   7.675
  404TIP3   OH222770   2.158   6.573   8.441
  404TIP3    H122771   2.065   6.578   8.418
  404TIP3    H222772   2.204   6.578   8.358
  405TIP3   OH222773   2.507   3.297   7.087
  405TIP3    H122774   2.529   3.390   7.075
  405TIP3    H222775   2.578   3.263   7.141
  406TIP3   OH222776   3.399   1.192   0.112
  406TIP3    H122777   3.461   1.231   0.174
  406TIP3    H222778   3.379   1.262   0.050
  407TIP3   OH222779   1.829   5.087   8.331
  407TIP3    H122780   1.748   5.035   8.335
  407TIP3    H222781   1.866   5.067   8.245
  408TIP3   OH222782   6.714   4.782   7.722
  408TIP3    H122783   6.660   4.846   7.770
  408TIP3    H222784   6.685   4.789   7.631
  409TIP3   OH222785   5.546   6.203   7.245
  409TIP3    H122786   5.599   6.276   7.274
  409TIP3    H222787   5.456   6.230   7.261
  410TIP3   OH222788   5.862   5.760   6.593
  410TIP3    H122789   5.944   5.807   6.578
  410TIP3    H222790   5.885   5.668   6.582
  411TIP3   OH222791   5.679   0.366   8.551
  411TIP3    H122792   5.674   0.451   8.595
  411TIP3    H222793   5.606   0.368   8.488
  412TIP3   OH222794   1.188   5.561   6.828
  412TIP3    H122795   1.132   5.608   6.766
  412TIP3    H222796   1.135   5.486   6.856
  413TIP3   OH222797   4.858   6.100   1.577
  413TIP3    H122798   4.831   6.160   1.647
  413TIP3    H222799   4.793   6.030   1.580
  414TIP3   OH222800   4.157   4.753   7.242
  414TIP3    H122801   4.156   4.825   7.179
  414TIP3    H222802   4.109   4.683   7.199
  415TIP3   OH222803   0.612   5.117   0.293
  415TIP3    H122804   0.615   5.081   0.204
  415TIP3    H222805   0.682   5.181   0.296
  416TIP3   OH222806   2.432   2.281   1.255
  416TIP3    H122807   2.398   2.192   1.244
  416TIP3    H222808   2.513   2.270   1.305
  417TIP3   OH222809   1.534   5.991   2.128
  417TIP3    H122810   1.457   5.946   2.093
  417TIP3    H222811   1.510   6.012   2.219
  418TIP3   OH222812   5.888   6.605   6.773
  418TIP3    H122813   5.811   6.585   6.720
  418TIP3    H222814   5.949   6.646   6.712
  419TIP3   OH222815   4.937   2.441   7.628
  419TIP3    H122816   4.851   2.478   7.608
  419TIP3    H222817   4.969   2.492   7.702
  420TIP3   OH222818   2.537   6.326   1.523
  420TIP3    H122819   2.618   6.357   1.564
  420TIP3    H222820   2.562   6.304   1.433
  421TIP3   OH222821   0.506   5.424   0.601
  421TIP3    H122822   0.428   5.479   0.594
  421TIP3    H222823   0.473   5.334   0.593
  422TIP3   OH222824   2.741   6.837   6.799
  422TIP3    H122825   2.772   0.036   6.766
  422TIP3    H222826   2.815   6.803   6.850
  423TIP3   OH222827   1.249   0.110   6.901
  423TIP3    H122828   1.282   0.046   6.838
  423TIP3    H222829   1.317   0.117   6.968
  424TIP3   OH222830   1.110   2.380   1.005
  424TIP3    H122831   1.090   2.311   0.942
  424TIP3    H222832   1.168   2.439   0.957
  425TIP3   OH222833   1.350   5.550   8.581
  425TIP3    H122834   1.348   5.508   8.495
  425TIP3    H222835   1.287   5.622   8.573
  426TIP3   OH222836   4.291   5.942   2.004
  426TIP3    H122837   4.343   5.949   1.923
  426TIP3    H222838   4.244   5.859   1.994
  427TIP3   OH222839   6.455   1.294   7.605
  427TIP3    H122840   6.496   1.371   7.566
  427TIP3    H222841   6.527   1.251   7.652
  428TIP3   OH222842   3.840   3.489   0.465
  428TIP3    H122843   3.758   3.467   0.508
  428TIP3    H222844   3.846   3.584   0.472
  429TIP3   OH222845   0.556   3.797   0.641
  429TIP3    H122846   0.635   3.774   0.690
  429TIP3    H222847   0.589   3.845   0.564
  430TIP3   OH222848   2.914   3.359   1.352
  430TIP3    H122849   2.999   3.333   1.388
  430TIP3    H222850   2.853   3.351   1.425
  431TIP3   OH222851   1.477   2.544   0.347
  431TIP3    H122852   1.398   2.562   0.398
  431TIP3    H222853   1.499   2.453   0.369
  432TIP3   OH222854   4.786   5.496   7.871
  432TIP3    H122855   4.850   5.536   7.931
  432TIP3    H222856   4.784   5.404   7.897
  433TIP3   OH222857   1.403   1.170   7.164
  433TIP3    H122858   1.457   1.195   7.239
  433TIP3    H222859   1.449   1.206   7.089
  434TIP3   OH222860   5.782   5.505   1.123
  434TIP3    H122861   5.711   5.520   1.184
  434TIP3    H222862   5.740   5.466   1.046
  435TIP3   OH222863   5.533   1.165   0.391
  435TIP3    H122864   5.495   1.238   0.440
  435TIP3    H222865   5.466   1.096   0.396
  436TIP3   OH222866   4.138   4.469   1.736
  436TIP3    H122867   4.187   4.388   1.746
  436TIP3    H222868   4.191   4.535   1.780
  437TIP3   OH222869   1.631   6.813   0.389
  437TIP3    H122870   1.595   0.016   0.392
  437TIP3    H222871   1.720   6.825   0.356
  438TIP3   OH222872   0.799   4.763   7.892
  438TIP3    H122873   0.889   4.755   7.926
  438TIP3    H222874   0.786   4.683   7.841
  439TIP3   OH222875   2.377   5.155   7.668
  439TIP3    H122876   2.400   5.085   7.607
  439TIP3    H222877   2.459   5.176   7.712
  440TIP3   OH222878   2.383   0.621   7.010
  440TIP3    H122879   2.378   0.545   7.069
  440TIP3    H222880   2.456   0.601   6.952
  441TIP3   OH222881   0.345   2.827   6.987
  441TIP3    H122882   0.324   2.856   6.898
  441TIP3    H222883   0.440   2.815   6.986
  442TIP3   OH222884   5.434   0.692   8.124
  442TIP3    H122885   5.370   0.656   8.186
  442TIP3    H222886   5.386   0.701   8.042
  443TIP3   OH222887   6.812   1.109   1.873
  443TIP3    H122888   6.834   1.157   1.953
  443TIP3    H222889   6.717   1.105   1.873
  444TIP3   OH222890   5.377   5.665   6.701
  444TIP3    H122891   5.324   5.639   6.626
  444TIP3    H222892   5.405   5.755   6.681
  445TIP3   OH222893   1.811   5.667   2.189
  445TIP3    H122894   1.832   5.733   2.255
  445TIP3    H222895   1.720   5.684   2.166
  446TIP3   OH222896   0.235   2.230   7.221
  446TIP3    H122897   0.286   2.149   7.227
  446TIP3    H222898   0.225   2.259   7.312
  447TIP3   OH222899   6.574   6.139   8.223
  447TIP3    H122900   6.587   6.188   8.304
  447TIP3    H222901   6.564   6.206   8.156
  448TIP3   OH222902   1.504   6.128   1.248
  448TIP3    H122903   1.413   6.144   1.272
  448TIP3    H222904   1.555   6.161   1.322
  449TIP3   OH222905   4.416   5.750   6.954
  449TIP3    H122906   4.472   5.791   7.019
  449TIP3    H222907   4.452   5.663   6.941
  450TIP3   OH222908   0.469   0.317   1.552
  450TIP3    H122909   0.546   0.372   1.536
  450TIP3    H222910   0.398   0.378   1.570
  451TIP3   OH222911   5.589   6.562   0.159
  451TIP3    H122912   5.616   6.536   0.071
  451TIP3    H222913   5.567   6.655   0.151
  452TIP3   OH222914   2.175   6.141   8.241
  452TIP3    H122915   2.157   6.234   8.224
  452TIP3    H222916   2.089   6.102   8.253
  453TIP3   OH222917   0.576   1.233   1.305
  453TIP3    H122918   0.655   1.180   1.290
  453TIP3    H222919   0.574   1.293   1.231
  454TIP3   OH222920   5.958   6.551   8.391
  454TIP3    H122921   5.895   6.585   8.326
  454TIP3    H222922   5.908   6.484   8.438
  455TIP3   OH222923   1.872   3.154   1.521
  455TIP3    H122924   1.928   3.198   1.586
  455TIP3    H222925   1.932   3.129   1.450
  456TIP3   OH222926   5.270   0.080   7.712
  456TIP3    H122927   5.291   6.885   7.666
  456TIP3    H222928   5.175   0.088   7.705
  457TIP3   OH222929   6.476   1.664   8.320
  457TIP3    H122930   6.474   1.706   8.234
  457TIP3    H222931   6.519   1.580   8.304
  458TIP3   OH222932   5.311   3.427   0.414
  458TIP3    H122933   5.286   3.484   0.487
  458TIP3    H222934   5.285   3.339   0.442
  459TIP3   OH222935   5.507   1.198   1.519
  459TIP3    H122936   5.572   1.245   1.573
  459TIP3    H222937   5.471   1.131   1.577
  460TIP3   OH222938   3.418   6.335   8.466
  460TIP3    H122939   3.475   6.285   8.524
  460TIP3    H222940   3.402   6.276   8.392
  461TIP3   OH222941   6.796   5.773   1.235
  461TIP3    H122942   6.787   5.858   1.276
  461TIP3    H222943   6.798   5.791   1.141
  462TIP3   OH222944   4.933   2.295   1.614
  462TIP3    H122945   4.904   2.336   1.695
  462TIP3    H222946   4.854   2.287   1.561
  463TIP3   OH222947   3.127   5.312   8.645
  463TIP3    H122948   3.141   5.405   0.002
  463TIP3    H222949   3.162   5.299   8.557
  464TIP3   OH222950   4.676   2.888   0.764
  464TIP3    H122951   4.678   2.936   0.847
  464TIP3    H222952   4.616   2.938   0.709
  465TIP3   OH222953   1.852   1.329   1.327
  465TIP3    H122954   1.807   1.389   1.386
  465TIP3    H222955   1.835   1.364   1.240
  466TIP3   OH222956   6.151   0.119   6.902
  466TIP3    H122957   6.074   0.071   6.870
  466TIP3    H222958   6.123   0.157   6.985
  467TIP3   OH222959   3.389   6.233   7.007
  467TIP3    H122960   3.401   6.296   6.936
  467TIP3    H222961   3.371   6.287   7.084
  468TIP3   OH222962   3.528   0.073   8.110
  468TIP3    H122963   3.623   0.086   8.108
  468TIP3    H222964   3.497   0.136   8.176
  469TIP3   OH222965   3.575   5.756   7.788
  469TIP3    H122966   3.544   5.683   7.842
  469TIP3    H222967   3.516   5.828   7.811
  470TIP3   OH222968   1.864   4.948   2.228
  470TIP3    H122969   1.903   5.035   2.218
  470TIP3    H222970   1.839   4.943   2.320
  471TIP3   OH222971   5.233   4.792   8.274
  471TIP3    H122972   5.213   4.885   8.264
  471TIP3    H222973   5.153   4.747   8.247
  472TIP3   OH222974   0.706   5.524   6.473
  472TIP3    H122975   0.730   5.463   6.543
  472TIP3    H222976   0.789   5.542   6.428
  473TIP3   OH222977   2.306   5.409   6.717
  473TIP3    H122978   2.219   5.383   6.686
  473TIP3    H222979   2.366   5.353   6.668
  474TIP3   OH222980   4.058   4.005   6.681
  474TIP3    H122981   4.091   4.079   6.630
  474TIP3    H222982   4.048   3.935   6.617
  475TIP3   OH222983   0.418   2.984   7.262
  475TIP3    H122984   0.420   2.992   7.167
  475TIP3    H222985   0.504   2.948   7.286
  476TIP3   OH222986   1.116   2.884   8.432
  476TIP3    H122987   1.096   2.978   8.426
  476TIP3    H222988   1.210   2.880   8.449
  477TIP3   OH222989   5.913   6.643   0.011
  477TIP3    H122990   5.863   6.719   8.642
  477TIP3    H222991   5.918   6.656   0.106
  478TIP3   OH222992   0.807   2.699   0.510
  478TIP3    H122993   0.778   2.630   0.451
  478TIP3    H222994   0.898   2.715   0.486
  479TIP3   OH222995   1.216   3.955   0.308
  479TIP3    H122996   1.212   3.912   0.223
  479TIP3    H222997   1.213   4.049   0.287
  480TIP3   OH222998   0.698   1.740   7.053
  480TIP3    H122999   0.778   1.731   7.001
  480TIP3    H223000   0.728   1.757   7.142
  481TIP3   OH223001   5.686   6.143   8.380
  481TIP3    H123002   5.723   6.069   8.333
  481TIP3    H223003   5.633   6.104   8.450
  482TIP3   OH223004   3.247   4.845   8.235
  482TIP3    H123005   3.317   4.780   8.244
  482TIP3    H223006   3.189   4.828   8.309
  483TIP3   OH223007   1.446   6.464   6.932
  483TIP3    H123008   1.439   6.382   6.981
  483TIP3    H223009   1.475   6.437   6.845
  484TIP3   OH223010   3.370   6.621   0.547
  484TIP3    H123011   3.417   6.633   0.465
  484TIP3    H223012   3.432   6.575   0.604
  485TIP3   OH223013   1.345   3.192   0.791
  485TIP3    H123014   1.431   3.184   0.750
  485TIP3    H223015   1.300   3.260   0.740
  486TIP3   OH223016   3.292   3.790   8.524
  486TIP3    H123017   3.304   3.742   8.606
  486TIP3    H223018   3.232   3.737   8.472
  487TIP3   OH223019   3.192   4.110   6.631
  487TIP3    H123020   3.104   4.136   6.607
  487TIP3    H223021   3.195   4.016   6.613
  488TIP3   OH223022   3.728   0.336   0.128
  488TIP3    H123023   3.792   0.310   0.195
  488TIP3    H223024   3.770   0.409   0.082
  489TIP3   OH223025   4.020   2.015   7.339
  489TIP3    H123026   4.077   2.088   7.316
  489TIP3    H223027   3.952   2.015   7.273
  490TIP3   OH223028   2.737   3.168   1.005
  490TIP3    H123029   2.671   3.129   1.062
  490TIP3    H223030   2.804   3.101   0.997
  491TIP3   OH223031   6.418   1.080   8.399
  491TIP3    H123032   6.434   1.114   8.311
  491TIP3    H223033   6.337   1.030   8.392
  492TIP3   OH223034   4.672   3.042   0.454
  492TIP3    H123035   4.610   3.044   0.527
  492TIP3    H223036   4.650   3.119   0.402
  493TIP3   OH223037   1.790   2.799   8.263
  493TIP3    H123038   1.736   2.876   8.280
  493TIP3    H223039   1.880   2.833   8.263
  494TIP3   OH223040   3.729   2.061   8.528
  494TIP3    H123041   3.806   2.004   8.532
  494TIP3    H223042   3.658   2.007   8.562
  495TIP3   OH223043   2.228   4.673   1.593
  495TIP3    H123044   2.290   4.714   1.653
  495TIP3    H223045   2.157   4.642   1.649
  496TIP3   OH223046   1.232   4.131   1.050
  496TIP3    H123047   1.246   4.218   1.086
  496TIP3    H223048   1.292   4.126   0.976
  497TIP3   OH223049   1.851   5.897   2.374
  497TIP3    H123050   1.838   5.968   2.312
  497TIP3    H223051   1.774   5.900   2.431
  498TIP3   OH223052   1.257   0.901   0.600
  498TIP3    H123053   1.185   0.841   0.582
  498TIP3    H223054   1.332   0.845   0.620
  499TIP3   OH223055   1.605   2.307   1.355
  499TIP3    H123056   1.673   2.278   1.293
  499TIP3    H223057   1.606   2.241   1.424
  500TIP3   OH223058   5.883   6.365   0.468
  500TIP3    H123059   5.817   6.355   0.399
  500TIP3    H223060   5.854   6.441   0.518
  501TIP3   OH223061   3.660   2.030   6.749
  501TIP3    H123062   3.646   1.938   6.728
  501TIP3    H223063   3.751   2.034   6.778
  502TIP3   OH223064   3.179   1.061   7.345
  502TIP3    H123065   3.163   1.091   7.434
  502TIP3    H223066   3.093   1.057   7.304
  503TIP3   OH223067   0.245   1.011   1.358
  503TIP3    H123068   0.259   1.102   1.384
  503TIP3    H223069   0.169   0.983   1.408
  504TIP3   OH223070   2.474   6.822   6.712
  504TIP3    H123071   2.565   6.846   6.726
  504TIP3    H223072   2.472   6.790   6.621
  505TIP3   OH223073   6.717   0.681   8.010
  505TIP3    H123074   6.672   0.602   8.040
  505TIP3    H223075   6.806   0.673   8.045
  506TIP3   OH223076   6.786   4.098   1.560
  506TIP3    H123077   6.756   4.137   1.477
  506TIP3    H223078   6.811   4.174   1.613
  507TIP3   OH223079   2.182   5.675   1.823
  507TIP3    H123080   2.144   5.640   1.904
  507TIP3    H223081   2.268   5.634   1.818
  508TIP3   OH223082   1.356   3.257   1.109
  508TIP3    H123083   1.413   3.304   1.048
  508TIP3    H223084   1.303   3.200   1.053
  509TIP3   OH223085   3.067   5.577   8.260
  509TIP3    H123086   3.059   5.599   8.353
  509TIP3    H223087   3.160   5.559   8.247
  510TIP3   OH223088   6.098   1.377   7.208
  510TIP3    H123089   6.052   1.338   7.134
  510TIP3    H223090   6.035   1.438   7.246
  511TIP3   OH223091   0.046   6.764   7.042
  511TIP3    H123092   6.857   6.753   6.984
  511TIP3    H223093   0.114   6.709   7.004
  512TIP3   OH223094   6.357   1.505   6.899
  512TIP3    H123095   6.310   1.461   6.829
  512TIP3    H223096   6.330   1.596   6.893
  513TIP3   OH223097   2.699   2.201   1.786
  513TIP3    H123098   2.684   2.249   1.867
  513TIP3    H223099   2.627   2.227   1.729
  514TIP3   OH223100   3.854   3.901   7.389
  514TIP3    H123101   3.781   3.857   7.432
  514TIP3    H223102   3.837   3.890   7.296
  515TIP3   OH223103   4.288   6.779   7.984
  515TIP3    H123104   4.261   6.851   7.927
  515TIP3    H223105   4.350   6.820   8.045
  516TIP3   OH223106   6.524   5.625   8.243
  516TIP3    H123107   6.506   5.655   8.332
  516TIP3    H223108   6.614   5.653   8.226
  517TIP3   OH223109   0.172   3.322   1.821
  517TIP3    H123110   0.169   3.263   1.746
  517TIP3    H223111   0.203   3.405   1.785
  518TIP3   OH223112   2.325   6.785   7.640
  518TIP3    H123113   2.404   6.839   7.642
  518TIP3    H223114   2.271   6.820   7.712
  519TIP3   OH223115   1.222   3.024   1.522
  519TIP3    H123116   1.236   2.971   1.443
  519TIP3    H223117   1.308   3.059   1.543
  520TIP3   OH223118   2.657   4.372   0.368
  520TIP3    H123119   2.692   4.377   0.457
  520TIP3    H223120   2.563   4.385   0.379
  521TIP3   OH223121   2.366   3.490   8.355
  521TIP3    H123122   2.434   3.425   8.339
  521TIP3    H223123   2.408   3.557   8.409
  522TIP3   OH223124   2.370   2.484   1.057
  522TIP3    H123125   2.405   2.570   1.035
  522TIP3    H223126   2.423   2.456   1.132
  523TIP3   OH223127   5.531   3.314   2.354
  523TIP3    H123128   5.501   3.265   2.430
  523TIP3    H223129   5.451   3.347   2.313
  524TIP3   OH223130   5.016   0.165   0.910
  524TIP3    H123131   5.000   0.107   0.985
  524TIP3    H223132   5.038   0.249   0.950
  525TIP3   OH223133   5.878   1.742   0.800
  525TIP3    H123134   5.815   1.797   0.754
  525TIP3    H223135   5.939   1.803   0.841
  526TIP3   OH223136   0.341   5.103   8.638
  526TIP3    H123137   0.264   5.155   8.616
  526TIP3    H223138   0.343   5.102   0.072
  527TIP3   OH223139   6.694   0.088   0.371
  527TIP3    H123140   6.674   0.089   0.464
  527TIP3    H223141   6.668   0.001   0.341
  528TIP3   OH223142   2.133   5.149   0.254
  528TIP3    H123143   2.158   5.209   0.183
  528TIP3    H223144   2.127   5.064   0.211
  529TIP3   OH223145   4.638   0.228   7.961
  529TIP3    H123146   4.719   0.198   8.004
  529TIP3    H223147   4.628   0.318   7.990
  530TIP3   OH223148   6.247   4.826   7.042
  530TIP3    H123149   6.234   4.775   7.122
  530TIP3    H223150   6.165   4.817   6.994
  531TIP3   OH223151   3.859   2.556   6.982
  531TIP3    H123152   3.889   2.493   6.917
  531TIP3    H223153   3.927   2.556   7.049
  532TIP3   OH223154   0.501   5.809   0.510
  532TIP3    H123155   0.446   5.818   0.588
  532TIP3    H223156   0.509   5.898   0.475
  533TIP3   OH223157   4.244   5.313   8.189
  533TIP3    H123158   4.248   5.382   8.255
  533TIP3    H223159   4.225   5.233   8.239
  534TIP3   OH223160   4.935   1.181   7.539
  534TIP3    H123161   4.887   1.143   7.613
  534TIP3    H223162   4.891   1.264   7.523
  535TIP3   OH223163   2.351   2.303   8.184
  535TIP3    H123164   2.385   2.338   8.101
  535TIP3    H223165   2.272   2.353   8.201
  536TIP3   OH223166   4.204   2.249   1.902
  536TIP3    H123167   4.229   2.298   1.981
  536TIP3    H223168   4.120   2.286   1.876
  537TIP3   OH223169   0.020   4.793   1.191
  537TIP3    H123170   0.085   4.747   1.138
  537TIP3    H223171   0.031   4.757   1.279
  538TIP3   OH223172   2.628   6.244   1.277
  538TIP3    H123173   2.723   6.244   1.279
  538TIP3    H223174   2.606   6.183   1.206
  539TIP3   OH223175   2.699   5.808   7.075
  539TIP3    H123176   2.687   5.808   6.980
  539TIP3    H223177   2.625   5.858   7.109
  540TIP3   OH223178   0.588   0.514   0.523
  540TIP3    H123179   0.538   0.574   0.468
  540TIP3    H223180   0.611   0.441   0.465
  541TIP3   OH223181   0.243   1.641   7.024
  541TIP3    H123182   0.286   1.673   6.945
  541TIP3    H223183   0.208   1.555   6.999
  542TIP3   OH223184   4.818   3.807   0.655
  542TIP3    H123185   4.850   3.739   0.715
  542TIP3    H223186   4.780   3.873   0.712
  543TIP3   OH223187   0.557   6.678   7.798
  543TIP3    H123188   0.561   6.761   7.845
  543TIP3    H223189   0.492   6.691   7.730
  544TIP3   OH223190   3.064   6.265   1.249
  544TIP3    H123191   3.088   6.356   1.230
  544TIP3    H223192   2.983   6.251   1.199
  545TIP3   OH223193   6.439   4.483   7.061
  545TIP3    H123194   6.358   4.481   7.009
  545TIP3    H223195   6.422   4.422   7.132
  546TIP3   OH223196   0.555   0.493   1.800
  546TIP3    H123197   0.596   0.476   1.715
  546TIP3    H223198   0.498   0.569   1.784
  547TIP3   OH223199   0.028   0.198   1.652
  547TIP3    H123200   0.072   0.246   1.723
  547TIP3    H223201   0.098   0.180   1.590
  548TIP3   OH223202   0.650   4.537   6.481
  548TIP3    H123203   0.619   4.447   6.476
  548TIP3    H223204   0.683   4.545   6.571
  549TIP3   OH223205   6.455   4.031   1.099
  549TIP3    H123206   6.526   3.999   1.154
  549TIP3    H223207   6.389   4.063   1.161
  550TIP3   OH223208   4.103   0.164   8.131
  550TIP3    H123209   4.067   0.241   8.176
  550TIP3    H223210   4.151   0.200   8.057
  551TIP3   OH223211   2.127   5.547   0.132
  551TIP3    H123212   2.217   5.513   0.138
  551TIP3    H223213   2.120   5.579   0.042
  552TIP3   OH223214   2.838   3.500   8.513
  552TIP3    H123215   2.790   3.562   8.457
  552TIP3    H223216   2.922   3.543   8.529
  553TIP3   OH223217   2.523   1.031   8.576
  553TIP3    H123218   2.465   1.097   8.539
  553TIP3    H223219   2.526   1.053   0.008
  554TIP3   OH223220   6.554   3.851   0.170
  554TIP3    H123221   6.537   3.896   0.087
  554TIP3    H223222   6.472   3.806   0.190
  555TIP3   OH223223   4.111   3.255   0.799
  555TIP3    H123224   4.071   3.192   0.740
  555TIP3    H223225   4.104   3.215   0.886
  556TIP3   OH223226   3.330   5.828   7.488
  556TIP3    H123227   3.297   5.851   7.401
  556TIP3    H223228   3.256   5.845   7.547
  557TIP3   OH223229   4.388   3.483   7.403
  557TIP3    H123230   4.354   3.456   7.318
  557TIP3    H223231   4.310   3.508   7.453
  558TIP3   OH223232   4.319   3.739   7.721
  558TIP3    H123233   4.344   3.789   7.643
  558TIP3    H223234   4.229   3.711   7.704
  559TIP3   OH223235   3.326   4.927   7.729
  559TIP3    H123236   3.294   4.860   7.669
  559TIP3    H223237   3.390   4.976   7.678
  560TIP3   OH223238   2.498   5.091   1.323
  560TIP3    H123239   2.419   5.111   1.272
  560TIP3    H223240   2.466   5.050   1.403
  561TIP3   OH223241   6.517   3.022   0.110
  561TIP3    H123242   6.597   3.011   0.058
  561TIP3    H223243   6.527   3.106   0.153
  562TIP3   OH223244   1.792   2.289   0.350
  562TIP3    H123245   1.820   2.380   0.361
  562TIP3    H223246   1.773   2.280   0.257
  563TIP3   OH223247   4.288   1.984   1.453
  563TIP3    H123248   4.277   2.041   1.377
  563TIP3    H223249   4.332   2.039   1.517
  564TIP3   OH223250   1.446   3.130   7.646
  564TIP3    H123251   1.502   3.055   7.628
  564TIP3    H223252   1.434   3.129   7.741
  565TIP3   OH223253   0.901   6.256   8.566
  565TIP3    H123254   0.886   6.181   8.624
  565TIP3    H223255   0.834   6.319   8.592
  566TIP3   OH223256   3.001   1.180   1.144
  566TIP3    H123257   3.023   1.273   1.134
  566TIP3    H223258   3.004   1.165   1.238
  567TIP3   OH223259   1.495   0.174   0.420
  567TIP3    H123260   1.431   0.203   0.354
  567TIP3    H223261   1.465   0.215   0.501
  568TIP3   OH223262   6.075   5.777   1.572
  568TIP3    H123263   6.006   5.808   1.630
  568TIP3    H223264   6.062   5.682   1.567
  569TIP3   OH223265   6.414   0.089   0.849
  569TIP3    H123266   6.463   0.171   0.856
  569TIP3    H223267   6.322   0.117   0.851
  570TIP3   OH223268   3.915   0.845   1.107
  570TIP3    H123269   3.862   0.782   1.058
  570TIP3    H223270   3.860   0.869   1.182
  571TIP3   OH223271   3.381   3.058   1.085
  571TIP3    H123272   3.471   3.031   1.100
  571TIP3    H223273   3.341   3.060   1.172
  572TIP3   OH223274   6.585   0.624   8.408
  572TIP3    H123275   6.550   0.639   8.319
  572TIP3    H223276   6.578   0.709   8.451
  573TIP3   OH223277   0.750   4.345   7.788
  573TIP3    H123278   0.817   4.320   7.723
  573TIP3    H223279   0.757   4.440   7.794
  574TIP3   OH223280   3.280   2.217   7.821
  574TIP3    H123281   3.354   2.246   7.875
  574TIP3    H223282   3.266   2.289   7.759
  575TIP3   OH223283   6.532   6.733   0.335
  575TIP3    H123284   6.536   6.655   0.390
  575TIP3    H223285   6.441   6.762   0.341
  576TIP3   OH223286   4.247   5.463   8.416
  576TIP3    H123287   4.251   5.534   8.480
  576TIP3    H223288   4.280   5.386   8.463
  577TIP3   OH223289   1.588   4.261   6.866
  577TIP3    H123290   1.586   4.234   6.774
  577TIP3    H223291   1.663   4.320   6.872
  578TIP3   OH223292   2.881   0.546   1.370
  578TIP3    H123293   2.787   0.529   1.376
  578TIP3    H223294   2.895   0.576   1.280
  579TIP3   OH223295   6.665   3.362   8.153
  579TIP3    H123296   6.609   3.321   8.087
  579TIP3    H223297   6.714   3.288   8.191
  580TIP3   OH223298   4.484   4.783   6.445
  580TIP3    H123299   4.511   4.764   6.355
  580TIP3    H223300   4.389   4.780   6.443
  581TIP3   OH223301   2.993   2.409   7.827
  581TIP3    H123302   2.925   2.358   7.783
  581TIP3    H223303   3.065   2.412   7.764
  582TIP3   OH223304   2.765   2.371   8.039
  582TIP3    H123305   2.853   2.385   8.006
  582TIP3    H223306   2.708   2.412   7.974
  583TIP3   OH223307   0.206   2.199   8.096
  583TIP3    H123308   0.285   2.182   8.047
  583TIP3    H223309   0.137   2.209   8.030
  584TIP3   OH223310   2.916   0.582   8.253
  584TIP3    H123311   2.961   0.507   8.293
  584TIP3    H223312   2.823   0.564   8.266
  585TIP3   OH223313   3.061   2.461   2.163
  585TIP3    H123314   3.061   2.446   2.068
  585TIP3    H223315   3.150   2.440   2.190
  586TIP3   OH223316   0.625   5.068   7.012
  586TIP3    H123317   0.650   5.083   6.920
  586TIP3    H223318   0.606   4.974   7.016
  587TIP3   OH223319   5.013   4.883   7.046
  587TIP3    H123320   4.988   4.845   7.130
  587TIP3    H223321   5.025   4.976   7.064
  588TIP3   OH223322   1.707   0.196   1.159
  588TIP3    H123323   1.711   0.283   1.199
  588TIP3    H223324   1.799   0.174   1.143
  589TIP3   OH223325   2.309   0.963   6.111
  589TIP3    H123326   2.315   0.875   6.074
  589TIP3    H223327   2.390   1.006   6.084
  590TIP3   OH223328   4.069   2.376   7.845
  590TIP3    H123329   4.021   2.455   7.869
  590TIP3    H223330   4.156   2.389   7.882
  591TIP3   OH223331   2.025   2.232   1.671
  591TIP3    H123332   2.103   2.285   1.689
  591TIP3    H223333   2.051   2.143   1.691
  592TIP3   OH223334   0.789   1.093   1.126
  592TIP3    H123335   0.714   1.035   1.143
  592TIP3    H223336   0.852   1.038   1.080
  593TIP3   OH223337   1.540   4.384   1.400
  593TIP3    H123338   1.497   4.467   1.420
  593TIP3    H223339   1.516   4.366   1.309
  594TIP3   OH223340   6.792   0.179   2.314
  594TIP3    H123341   6.873   0.135   2.340
  594TIP3    H223342   6.768   0.139   2.231
  595TIP3   OH223343   0.603   4.757   8.303
  595TIP3    H123344   0.560   4.717   8.227
  595TIP3    H223345   0.622   4.847   8.277
  596TIP3   OH223346   4.825   3.756   8.568
  596TIP3    H123347   4.758   3.802   8.516
  596TIP3    H223348   4.816   3.793   8.656
  597TIP3   OH223349   4.667   3.572   6.385
  597TIP3    H123350   4.597   3.621   6.343
  597TIP3    H223351   4.638   3.481   6.383
  598TIP3   OH223352   3.187   2.866   6.730
  598TIP3    H123353   3.232   2.790   6.694
  598TIP3    H223354   3.136   2.901   6.657
  599TIP3   OH223355   1.133   4.394   0.762
  599TIP3    H123356   1.195   4.399   0.835
  599TIP3    H223357   1.186   4.366   0.688
  600TIP3   OH223358   1.004   5.971   0.037
  600TIP3    H123359   1.033   5.936   0.121
  600TIP3    H223360   1.083   6.007   8.659
  601TIP3   OH223361   4.518   0.429   0.571
  601TIP3    H123362   4.477   0.380   0.500
  601TIP3    H223363   4.602   0.456   0.535
  602TIP3   OH223364   1.478   5.713   1.092
  602TIP3    H123365   1.418   5.643   1.066
  602TIP3    H223366   1.438   5.793   1.057
  603TIP3   OH223367   6.487   0.246   0.297
  603TIP3    H123368   6.476   0.213   0.208
  603TIP3    H223369   6.567   0.203   0.328
  604TIP3   OH223370   4.920   4.831   7.831
  604TIP3    H123371   4.851   4.862   7.774
  604TIP3    H223372   4.924   4.895   7.902
  605TIP3   OH223373   1.677   0.170   0.060
  605TIP3    H123374   1.640   0.095   0.014
  605TIP3    H223375   1.692   0.139   0.149
  606TIP3   OH223376   0.472   2.170   1.133
  606TIP3    H123377   0.416   2.105   1.090
  606TIP3    H223378   0.532   2.199   1.065
  607TIP3   OH223379   4.336   2.027   8.619
  607TIP3    H123380   4.364   2.098   0.014
  607TIP3    H223381   4.276   1.975   0.011
  608TIP3   OH223382   3.804   2.104   0.393
  608TIP3    H123383   3.726   2.051   0.375
  608TIP3    H223384   3.877   2.043   0.388
  609TIP3   OH223385   2.908   5.459   8.053
  609TIP3    H123386   2.954   5.520   8.110
  609TIP3    H223387   2.826   5.439   8.099
  610TIP3   OH223388   0.139   3.269   2.356
  610TIP3    H123389   0.057   3.257   2.402
  610TIP3    H223390   0.133   3.357   2.317
  611TIP3   OH223391   4.688   2.140   1.779
  611TIP3    H123392   4.627   2.143   1.705
  611TIP3    H223393   4.686   2.228   1.816
  612TIP3   OH223394   4.459   3.160   7.309
  612TIP3    H123395   4.430   3.099   7.241
  612TIP3    H223396   4.509   3.227   7.261
  613TIP3   OH223397   2.805   6.505   8.490
  613TIP3    H123398   2.842   6.576   8.438
  613TIP3    H223399   2.881   6.460   8.528
  614TIP3   OH223400   3.517   5.735   6.644
  614TIP3    H123401   3.514   5.728   6.740
  614TIP3    H223402   3.485   5.823   6.626
  615TIP3   OH223403   1.886   4.530   6.673
  615TIP3    H123404   1.972   4.486   6.677
  615TIP3    H223405   1.826   4.462   6.643
  616TIP3   OH223406   4.648   5.495   8.377
  616TIP3    H123407   4.727   5.544   8.352
  616TIP3    H223408   4.613   5.543   8.453
  617TIP3   OH223409   0.429   3.235   0.891
  617TIP3    H123410   0.495   3.198   0.949
  617TIP3    H223411   0.352   3.246   0.947
  618TIP3   OH223412   4.296   1.488   2.551
  618TIP3    H123413   4.205   1.500   2.579
  618TIP3    H223414   4.325   1.408   2.596
  619TIP3   OH223415   1.050   1.954   1.482
  619TIP3    H123416   1.009   1.894   1.545
  619TIP3    H223417   0.976   2.005   1.447
  620TIP3   OH223418   4.163   4.032   7.727
  620TIP3    H123419   4.079   3.989   7.743
  620TIP3    H223420   4.162   4.051   7.633
  621TIP3   OH223421   2.863   2.513   0.973
  621TIP3    H123422   2.821   2.460   0.906
  621TIP3    H223423   2.946   2.541   0.934
  622TIP3   OH223424   2.689   3.614   0.372
  622TIP3    H123425   2.755   3.645   0.434
  622TIP3    H223426   2.614   3.589   0.427
  623TIP3   OH223427   4.800   3.987   5.960
  623TIP3    H123428   4.863   3.915   5.957
  623TIP3    H223429   4.826   4.039   6.037
  624TIP3   OH223430   4.278   4.893   1.624
  624TIP3    H123431   4.297   4.953   1.696
  624TIP3    H223432   4.183   4.879   1.629
  625TIP3   OH223433   2.239   0.319   1.740
  625TIP3    H123434   2.193   0.276   1.812
  625TIP3    H223435   2.218   0.411   1.749
  626TIP3   OH223436   3.248   4.486   8.177
  626TIP3    H123437   3.280   4.500   8.088
  626TIP3    H223438   3.153   4.490   8.169
  627TIP3   OH223439   3.075   3.635   1.329
  627TIP3    H123440   3.058   3.729   1.323
  627TIP3    H223441   2.989   3.596   1.343
  628TIP3   OH223442   1.886   1.054   8.567
  628TIP3    H123443   1.861   1.056   8.659
  628TIP3    H223444   1.803   1.060   8.520
  629TIP3   OH223445   5.411   1.649   0.138
  629TIP3    H123446   5.502   1.621   0.139
  629TIP3    H223447   5.396   1.680   0.048
  630TIP3   OH223448   5.448   1.065   0.676
  630TIP3    H123449   5.448   1.153   0.639
  630TIP3    H223450   5.417   1.009   0.605
  631TIP3   OH223451   0.720   0.096   8.466
  631TIP3    H123452   0.671   0.128   8.390
  631TIP3    H223453   0.681   0.011   8.486
  632TIP3   OH223454   2.815   1.503   7.209
  632TIP3    H123455   2.811   1.409   7.195
  632TIP3    H223456   2.825   1.513   7.304
  633TIP3   OH223457   2.518   0.149   8.563
  633TIP3    H123458   2.534   0.222   8.504
  633TIP3    H223459   2.471   0.084   8.510
  634TIP3   OH223460   4.162   4.621   7.478
  634TIP3    H123461   4.169   4.678   7.401
  634TIP3    H223462   4.165   4.682   7.552
  635TIP3   OH223463   4.131   4.936   8.117
  635TIP3    H123464   4.140   4.996   8.190
  635TIP3    H223465   4.083   4.985   8.050
  636TIP3   OH223466   0.097   4.334   0.953
  636TIP3    H123467   0.056   4.249   0.966
  636TIP3    H223468   0.081   4.356   0.861
  637TIP3   OH223469   1.485   0.212   7.398
  637TIP3    H123470   1.557   0.151   7.380
  637TIP3    H223471   1.528   0.291   7.430
  638TIP3   OH223472   2.857   1.827   1.157
  638TIP3    H123473   2.891   1.824   1.246
  638TIP3    H223474   2.903   1.900   1.115
  639TIP3   OH223475   3.240   1.555   7.440
  639TIP3    H123476   3.199   1.474   7.410
  639TIP3    H223477   3.228   1.617   7.369
  640TIP3   OH223478   5.388   5.069   0.031
  640TIP3    H123479   5.413   5.155   8.659
  640TIP3    H223480   5.406   5.008   8.622
  641TIP3   OH223481   2.439   0.823   1.827
  641TIP3    H123482   2.497   0.890   1.791
  641TIP3    H223483   2.492   0.744   1.831
  642TIP3   OH223484   5.539   4.295   7.795
  642TIP3    H123485   5.450   4.276   7.766
  642TIP3    H223486   5.594   4.279   7.719
  643TIP3   OH223487   1.520   6.784   6.441
  643TIP3    H123488   1.436   6.825   6.423
  643TIP3    H223489   1.498   6.694   6.465
  644TIP3   OH223490   4.302   4.397   8.198
  644TIP3    H123491   4.380   4.341   8.193
  644TIP3    H223492   4.300   4.443   8.114
  645TIP3   OH223493   5.648   0.667   0.826
  645TIP3    H123494   5.601   0.709   0.898
  645TIP3    H223495   5.722   0.726   0.809
  646TIP3   OH223496   2.529   0.717   1.535
  646TIP3    H123497   2.572   0.634   1.515
  646TIP3    H223498   2.435   0.697   1.534
  647TIP3   OH223499   0.749   6.505   7.406
  647TIP3    H123500   0.802   6.581   7.431
  647TIP3    H223501   0.807   6.430   7.420
  648TIP3   OH223502   5.792   2.916   0.765
  648TIP3    H123503   5.755   2.877   0.686
  648TIP3    H223504   5.883   2.937   0.742
  649TIP3   OH223505   2.583   5.868   0.844
  649TIP3    H123506   2.558   5.916   0.765
  649TIP3    H223507   2.541   5.916   0.915
  650TIP3   OH223508   1.007   6.309   0.160
  650TIP3    H123509   0.978   6.313   0.069
  650TIP3    H223510   1.061   6.230   0.164
  651TIP3   OH223511   1.074   4.978   6.766
  651TIP3    H123512   1.001   4.923   6.737
  651TIP3    H223513   1.140   4.968   6.698
  652TIP3   OH223514   5.772   3.204   0.848
  652TIP3    H123515   5.794   3.151   0.771
  652TIP3    H223516   5.731   3.142   0.909
  653TIP3   OH223517   3.211   2.496   8.039
  653TIP3    H123518   3.249   2.528   7.957
  653TIP3    H223519   3.141   2.437   8.012
  654TIP3   OH223520   1.719   1.371   0.054
  654TIP3    H123521   1.753   1.305   0.115
  654TIP3    H223522   1.794   1.426   0.033
  655TIP3   OH223523   2.784   0.613   6.363
  655TIP3    H123524   2.768   0.520   6.348
  655TIP3    H223525   2.879   0.622   6.352
  656TIP3   OH223526   2.138   3.074   0.632
  656TIP3    H123527   2.101   3.107   0.714
  656TIP3    H223528   2.230   3.059   0.651
  657TIP3   OH223529   4.178   6.527   6.973
  657TIP3    H123530   4.250   6.565   6.924
  657TIP3    H223531   4.191   6.433   6.968
  658TIP3   OH223532   2.771   2.042   0.922
  658TIP3    H123533   2.861   2.058   0.952
  658TIP3    H223534   2.770   2.072   0.832
  659TIP3   OH223535   0.348   3.010   8.416
  659TIP3    H123536   0.391   3.091   8.391
  659TIP3    H223537   0.417   2.944   8.413
  660TIP3   OH223538   3.466   3.558   8.313
  660TIP3    H123539   3.370   3.556   8.309
  660TIP3    H223540   3.493   3.567   8.221
  661TIP3   OH223541   4.065   6.283   7.327
  661TIP3    H123542   4.031   6.335   7.254
  661TIP3    H223543   4.005   6.208   7.334
  662TIP3   OH223544   2.172   2.960   0.395
  662TIP3    H123545   2.163   3.000   0.482
  662TIP3    H223546   2.097   2.994   0.345
  663TIP3   OH223547   2.079   5.205   6.102
  663TIP3    H123548   2.010   5.193   6.167
  663TIP3    H223549   2.106   5.296   6.112
  664TIP3   OH223550   6.092   3.581   2.466
  664TIP3    H123551   6.126   3.505   2.511
  664TIP3    H223552   6.154   3.651   2.486
  665TIP3   OH223553   4.805   2.396   6.333
  665TIP3    H123554   4.864   2.452   6.284
  665TIP3    H223555   4.826   2.412   6.425
  666TIP3   OH223556   3.910   4.327   8.074
  666TIP3    H123557   3.819   4.340   8.100
  666TIP3    H223558   3.910   4.338   7.979
  667TIP3   OH223559   3.397   3.176   8.594
  667TIP3    H123560   3.403   3.216   8.507
  667TIP3    H223561   3.328   3.111   8.585
  668TIP3   OH223562   2.116   6.724   0.396
  668TIP3    H123563   2.137   6.631   0.397
  668TIP3    H223564   2.096   6.743   0.304
  669TIP3   OH223565   4.781   3.798   7.570
  669TIP3    H123566   4.718   3.791   7.642
  669TIP3    H223567   4.833   3.718   7.575
  670TIP3   OH223568   2.199   6.858   6.264
  670TIP3    H123569   2.154   0.010   6.339
  670TIP3    H223570   2.194   0.041   6.197
  671TIP3   OH223571   3.571   6.497   0.032
  671TIP3    H123572   3.507   6.506   8.623
  671TIP3    H223573   3.638   6.439   8.660
  672TIP3   OH223574   5.583   5.701   6.959
  672TIP3    H123575   5.562   5.785   7.000
  672TIP3    H223576   5.554   5.710   6.868
  673TIP3   OH223577   0.307   2.639   7.619
  673TIP3    H123578   0.223   2.641   7.573
  673TIP3    H223579   0.371   2.621   7.551
  674TIP3   OH223580   1.875   2.614   1.782
  674TIP3    H123581   1.841   2.542   1.834
  674TIP3    H223582   1.965   2.627   1.814
  675TIP3   OH223583   1.783   0.316   2.659
  675TIP3    H123584   1.822   0.364   2.586
  675TIP3    H223585   1.827   0.230   2.658
  676TIP3   OH223586   1.991   5.923   8.242
  676TIP3    H123587   2.067   5.927   8.183
  676TIP3    H223588   1.983   5.831   8.265
  677TIP3   OH223589   3.543   3.333   6.518
  677TIP3    H123590   3.622   3.370   6.479
  677TIP3    H223591   3.513   3.399   6.580
  678TIP3   OH223592   3.936   1.206   8.038
  678TIP3    H123593   3.883   1.160   8.102
  678TIP3    H223594   4.025   1.175   8.053
  679TIP3   OH223595   3.195   4.256   7.222
  679TIP3    H123596   3.117   4.243   7.168
  679TIP3    H223597   3.213   4.350   7.216
  680TIP3   OH223598   0.801   5.346   0.339
  680TIP3    H123599   0.778   5.431   0.301
  680TIP3    H223600   0.892   5.355   0.365
  681TIP3   OH223601   3.629   2.906   7.442
  681TIP3    H123602   3.687   2.896   7.366
  681TIP3    H223603   3.687   2.902   7.518
  682TIP3   OH223604   5.106   0.143   7.027
  682TIP3    H123605   5.074   0.202   6.958
  682TIP3    H223606   5.035   0.080   7.039
  683TIP3   OH223607   1.633   6.228   1.469
  683TIP3    H123608   1.722   6.200   1.491
  683TIP3    H223609   1.613   6.298   1.532
  684TIP3   OH223610   5.706   0.052   0.594
  684TIP3    H123611   5.669   0.011   0.516
  684TIP3    H223612   5.730   0.140   0.565
  685TIP3   OH223613   0.090   4.925   1.793
  685TIP3    H123614   0.142   4.873   1.854
  685TIP3    H223615   0.130   4.908   1.708
  686TIP3   OH223616   6.283   2.825   0.666
  686TIP3    H123617   6.226   2.882   0.614
  686TIP3    H223618   6.269   2.854   0.756
  687TIP3   OH223619   6.238   3.202   1.835
  687TIP3    H123620   6.167   3.139   1.839
  687TIP3    H223621   6.306   3.158   1.784
  688TIP3   OH223622   6.147   2.163   0.158
  688TIP3    H123623   6.080   2.220   0.119
  688TIP3    H223624   6.134   2.171   0.252
  689TIP3   OH223625   3.560   1.635   7.972
  689TIP3    H123626   3.655   1.642   7.963
  689TIP3    H223627   3.526   1.654   7.885
  690TIP3   OH223628   3.808   3.518   7.901
  690TIP3    H123629   3.802   3.465   7.981
  690TIP3    H223630   3.880   3.479   7.852
  691TIP3   OH223631   0.904   3.885   0.643
  691TIP3    H123632   0.913   3.980   0.634
  691TIP3    H223633   0.964   3.862   0.714
  692TIP3   OH223634   0.075   2.542   8.185
  692TIP3    H123635   0.111   2.525   8.273
  692TIP3    H223636   0.080   2.457   8.140
  693TIP3   OH223637   3.853   2.276   1.604
  693TIP3    H123638   3.763   2.307   1.618
  693TIP3    H223639   3.860   2.196   1.656
  694TIP3   OH223640   3.054   3.260   7.768
  694TIP3    H123641   3.009   3.264   7.684
  694TIP3    H223642   2.992   3.217   7.826
  695TIP3   OH223643   5.117   3.762   7.841
  695TIP3    H123644   5.149   3.691   7.896
  695TIP3    H223645   5.047   3.723   7.788
  696TIP3   OH223646   1.918   2.209   2.076
  696TIP3    H123647   1.870   2.283   2.039
  696TIP3    H223648   1.910   2.219   2.171
  697TIP3   OH223649   1.922   1.008   6.677
  697TIP3    H123650   1.847   1.067   6.672
  697TIP3    H223651   1.993   1.055   6.634
  698TIP3   OH223652   6.635   4.282   6.810
  698TIP3    H123653   6.713   4.284   6.755
  698TIP3    H223654   6.659   4.225   6.883
  699TIP3   OH223655   6.399   6.216   7.413
  699TIP3    H123656   6.388   6.296   7.465
  699TIP3    H223657   6.426   6.247   7.327
  700TIP3   OH223658   5.305   2.565   0.014
  700TIP3    H123659   5.277   2.555   0.105
  700TIP3    H223660   5.281   2.655   8.653
  701TIP3   OH223661   0.481   0.554   6.473
  701TIP3    H123662   0.482   0.645   6.447
  701TIP3    H223663   0.570   0.537   6.505
  702TIP3   OH223664   0.048   3.636   1.200
  702TIP3    H123665   6.840   3.655   1.209
  702TIP3    H223666   0.090   3.697   1.260
  703TIP3   OH223667   4.930   2.547   7.120
  703TIP3    H123668   4.883   2.579   7.197
  703TIP3    H223669   4.898   2.602   7.048
  704TIP3   OH223670   6.695   3.373   6.742
  704TIP3    H123671   6.780   3.388   6.702
  704TIP3    H223672   6.664   3.290   6.704
  705TIP3   OH223673   2.795   6.513   6.543
  705TIP3    H123674   2.742   6.434   6.559
  705TIP3    H223675   2.743   6.584   6.579
  706TIP3   OH223676   2.153   4.844   1.319
  706TIP3    H123677   2.102   4.773   1.358
  706TIP3    H223678   2.214   4.870   1.388
  707TIP3   OH223679   1.351   4.938   7.761
  707TIP3    H123680   1.383   5.027   7.774
  707TIP3    H223681   1.419   4.896   7.707
  708TIP3   OH223682   4.891   0.899   8.382
  708TIP3    H123683   4.981   0.907   8.350
  708TIP3    H223684   4.861   0.989   8.392
  709TIP3   OH223685   0.274   0.859   0.773
  709TIP3    H123686   0.340   0.792   0.791
  709TIP3    H223687   0.301   0.934   0.826
  710TIP3   OH223688   5.166   6.789   8.128
  710TIP3    H123689   5.101   6.719   8.128
  710TIP3    H223690   5.140   6.847   8.056
  711TIP3   OH223691   2.171   3.236   0.879
  711TIP3    H123692   2.238   3.267   0.819
  711TIP3    H223693   2.092   3.285   0.855
  712TIP3   OH223694   4.662   1.473   1.396
  712TIP3    H123695   4.727   1.468   1.466
  712TIP3    H223696   4.587   1.424   1.429
  713TIP3   OH223697   2.307   1.777   2.149
  713TIP3    H123698   2.278   1.811   2.233
  713TIP3    H223699   2.395   1.742   2.166
  714TIP3   OH223700   3.878   0.747   1.464
  714TIP3    H123701   3.965   0.787   1.455
  714TIP3    H223702   3.861   0.750   1.558
  715TIP3   OH223703   3.627   6.625   2.076
  715TIP3    H123704   3.653   6.715   2.054
  715TIP3    H223705   3.551   6.636   2.134
  716TIP3   OH223706   3.413   6.214   0.542
  716TIP3    H123707   3.465   6.263   0.606
  716TIP3    H223708   3.452   6.126   0.542
  717TIP3   OH223709   4.124   4.930   0.430
  717TIP3    H123710   4.120   4.868   0.503
  717TIP3    H223711   4.096   5.013   0.468
  718TIP3   OH223712   5.292   3.553   7.927
  718TIP3    H123713   5.305   3.459   7.939
  718TIP3    H223714   5.380   3.590   7.923
  719TIP3   OH223715   4.991   2.349   1.285
  719TIP3    H123716   4.978   2.373   1.376
  719TIP3    H223717   4.946   2.265   1.275
  720TIP3   OH223718   0.920   5.520   1.061
  720TIP3    H123719   0.896   5.475   1.142
  720TIP3    H223720   0.940   5.450   0.999
  721TIP3   OH223721   3.935   0.694   8.197
  721TIP3    H123722   3.848   0.653   8.195
  721TIP3    H223723   3.932   0.761   8.129
  722TIP3   OH223724   3.723   6.232   0.454
  722TIP3    H123725   3.676   6.204   0.532
  722TIP3    H223726   3.680   6.186   0.382
  723TIP3   OH223727   2.163   6.587   0.088
  723TIP3    H123728   2.193   6.496   0.093
  723TIP3    H223729   2.233   6.632   0.041
  724TIP3   OH223730   4.964   6.100   0.459
  724TIP3    H123731   4.914   6.030   0.501
  724TIP3    H223732   4.897   6.158   0.422
  725TIP3   OH223733   4.236   1.404   0.591
  725TIP3    H123734   4.176   1.450   0.531
  725TIP3    H223735   4.196   1.317   0.602
  726TIP3   OH223736   4.533   2.047   1.165
  726TIP3    H123737   4.496   1.991   1.096
  726TIP3    H223738   4.517   2.136   1.135
  727TIP3   OH223739   4.826   0.027   6.814
  727TIP3    H123740   4.867   0.011   6.729
  727TIP3    H223741   4.738   0.058   6.794
  728TIP3   OH223742   4.301   3.065   6.115
  728TIP3    H123743   4.303   2.970   6.128
  728TIP3    H223744   4.352   3.101   6.187
  729TIP3   OH223745   0.663   5.772   8.228
  729TIP3    H123746   0.736   5.805   8.176
  729TIP3    H223747   0.689   5.684   8.253
  730TIP3   OH223748   5.372   5.532   1.189
  730TIP3    H123749   5.389   5.623   1.166
  730TIP3    H223750   5.410   5.482   1.117
  731TIP3   OH223751   6.018   3.527   6.453
  731TIP3    H123752   5.927   3.535   6.482
  731TIP3    H223753   6.064   3.491   6.528
  732TIP3   OH223754   2.745   2.960   0.686
  732TIP3    H123755   2.753   3.054   0.674
  732TIP3    H223756   2.806   2.939   0.757
  733TIP3   OH223757   2.191   4.574   0.535
  733TIP3    H123758   2.236   4.633   0.475
  733TIP3    H223759   2.099   4.601   0.531
  734TIP3   OH223760   2.266   2.786   1.842
  734TIP3    H123761   2.293   2.772   1.932
  734TIP3    H223762   2.215   2.708   1.820
  735TIP3   OH223763   4.811   0.893   1.147
  735TIP3    H123764   4.901   0.904   1.177
  735TIP3    H223765   4.807   0.804   1.113
  736TIP3   OH223766   4.415   5.830   7.993
  736TIP3    H123767   4.507   5.814   7.972
  736TIP3    H223768   4.412   5.922   8.018
  737TIP3   OH223769   5.715   2.629   8.262
  737TIP3    H123770   5.660   2.706   8.248
  737TIP3    H223771   5.754   2.643   8.348
  738TIP3   OH223772   4.873   1.112   6.998
  738TIP3    H123773   4.954   1.081   6.959
  738TIP3    H223774   4.872   1.072   7.085
  739TIP3   OH223775   5.914   2.000   0.418
  739TIP3    H123776   5.824   1.982   0.390
  739TIP3    H223777   5.962   1.919   0.398
  740TIP3   OH223778   4.306   3.701   1.079
  740TIP3    H123779   4.379   3.657   1.037
  740TIP3    H223780   4.285   3.646   1.155
  741TIP3   OH223781   0.290   5.410   0.325
  741TIP3    H123782   0.292   5.366   0.410
  741TIP3    H223783   0.302   5.339   0.262
  742TIP3   OH223784   1.945   3.088   8.001
  742TIP3    H123785   1.932   3.105   8.094
  742TIP3    H223786   1.876   3.137   7.957
  743TIP3   OH223787   3.410   2.257   0.971
  743TIP3    H123788   3.420   2.172   1.015
  743TIP3    H223789   3.395   2.234   0.879
  744TIP3   OH223790   6.737   5.246   0.051
  744TIP3    H123791   6.751   5.216   0.141
  744TIP3    H223792   6.719   5.340   0.061
  745TIP3   OH223793   4.672   5.740   7.868
  745TIP3    H123794   4.745   5.798   7.890
  745TIP3    H223795   4.699   5.654   7.901
  746TIP3   OH223796   1.668   4.854   8.445
  746TIP3    H123797   1.637   4.848   8.536
  746TIP3    H223798   1.644   4.770   8.406
  747TIP3   OH223799   0.537   2.853   0.143
  747TIP3    H123800   0.560   2.934   0.098
  747TIP3    H223801   0.589   2.854   0.223
  748TIP3   OH223802   1.530   3.536   1.392
  748TIP3    H123803   1.522   3.570   1.302
  748TIP3    H223804   1.453   3.571   1.437
  749TIP3   OH223805   3.574   0.474   6.964
  749TIP3    H123806   3.596   0.541   7.029
  749TIP3    H223807   3.538   0.522   6.890
  750TIP3   OH223808   3.508   1.799   6.686
  750TIP3    H123809   3.463   1.715   6.677
  750TIP3    H223810   3.457   1.860   6.634
  751TIP3   OH223811   0.531   0.305   2.030
  751TIP3    H123812   0.490   0.233   1.982
  751TIP3    H223813   0.548   0.371   1.963
  752TIP3   OH223814   0.249   4.957   7.084
  752TIP3    H123815   0.278   4.909   7.007
  752TIP3    H223816   0.249   4.891   7.154
  753TIP3   OH223817   4.990   3.645   1.100
  753TIP3    H123818   5.008   3.555   1.074
  753TIP3    H223819   5.053   3.663   1.170
  754TIP3   OH223820   6.357   4.197   7.893
  754TIP3    H123821   6.361   4.269   7.956
  754TIP3    H223822   6.361   4.240   7.807
  755TIP3   OH223823   1.942   0.862   6.919
  755TIP3    H123824   1.910   0.903   6.838
  755TIP3    H223825   2.032   0.892   6.928
  756TIP3   OH223826   3.595   4.813   7.912
  756TIP3    H123827   3.650   4.735   7.921
  756TIP3    H223828   3.505   4.780   7.914
  757TIP3   OH223829   1.473   2.976   6.247
  757TIP3    H123830   1.557   2.938   6.222
  757TIP3    H223831   1.482   3.069   6.224
  758TIP3   OH223832   5.583   5.597   0.064
  758TIP3    H123833   5.601   5.660   8.656
  758TIP3    H223834   5.506   5.633   0.109
  759TIP3   OH223835   5.946   5.739   8.621
  759TIP3    H123836   5.861   5.767   8.589
  759TIP3    H223837   5.931   5.653   8.659
  760TIP3   OH223838   1.427   4.852   8.043
  760TIP3    H123839   1.359   4.893   7.990
  760TIP3    H223840   1.393   4.764   8.062
  761TIP3   OH223841   5.050   0.887   7.269
  761TIP3    H123842   4.957   0.909   7.266
  761TIP3    H223843   5.085   0.942   7.339
  762TIP3   OH223844   0.694   1.609   0.925
  762TIP3    H123845   0.764   1.645   0.870
  762TIP3    H223846   0.718   1.517   0.937
  763TIP3   OH223847   2.177   1.589   1.058
  763TIP3    H123848   2.097   1.570   1.010
  763TIP3    H223849   2.247   1.570   0.996
  764TIP3   OH223850   2.504   1.911   2.296
  764TIP3    H123851   2.415   1.902   2.331
  764TIP3    H223852   2.504   1.996   2.252
  765TIP3   OH223853   6.648   6.118   6.790
  765TIP3    H123854   6.693   6.071   6.720
  765TIP3    H223855   6.699   6.098   6.869
  766TIP3   OH223856   1.840   4.009   0.606
  766TIP3    H123857   1.880   3.934   0.650
  766TIP3    H223858   1.809   3.974   0.523
  767TIP3   OH223859   0.100   4.411   7.185
  767TIP3    H123860   0.049   4.416   7.104
  767TIP3    H223861   0.161   4.339   7.172
  768TIP3   OH223862   1.722   1.082   1.338
  768TIP3    H123863   1.762   1.169   1.328
  768TIP3    H223864   1.690   1.081   1.428
  769TIP3   OH223865   0.347   4.416   6.965
  769TIP3    H123866   0.365   4.329   6.931
  769TIP3    H223867   0.311   4.465   6.891
  770TIP3   OH223868   5.094   1.542   8.169
  770TIP3    H123869   5.036   1.500   8.106
  770TIP3    H223870   5.046   1.537   8.252
  771TIP3   OH223871   2.588   3.916   0.282
  771TIP3    H123872   2.596   3.923   0.377
  771TIP3    H223873   2.596   3.822   0.264
  772TIP3   OH223874   6.314   0.527   7.269
  772TIP3    H123875   6.302   0.547   7.362
  772TIP3    H223876   6.409   0.520   7.258
  773TIP3   OH223877   5.524   5.457   8.380
  773TIP3    H123878   5.445   5.419   8.342
  773TIP3    H223879   5.529   5.418   8.468
  774TIP3   OH223880   6.060   1.937   2.318
  774TIP3    H123881   6.134   1.886   2.287
  774TIP3    H223882   5.988   1.911   2.260
  775TIP3   OH223883   4.277   4.409   0.087
  775TIP3    H123884   4.246   4.319   0.078
  775TIP3    H223885   4.239   4.455   0.012
  776TIP3   OH223886   5.131   1.238   2.269
  776TIP3    H123887   5.197   1.278   2.326
  776TIP3    H223888   5.082   1.180   2.328
  777TIP3   OH223889   6.826   6.864   8.492
  777TIP3    H123890   6.856   6.839   8.579
  777TIP3    H223891   6.730   6.861   8.497
  778TIP3   OH223892   2.421   0.952   6.767
  778TIP3    H123893   2.397   0.997   6.686
  778TIP3    H223894   2.495   1.002   6.801
  779TIP3   OH223895   2.320   0.265   7.487
  779TIP3    H123896   2.274   0.320   7.423
  779TIP3    H223897   2.385   0.324   7.527
  780TIP3   OH223898   0.279   0.818   7.839
  780TIP3    H123899   0.342   0.847   7.905
  780TIP3    H223900   0.304   0.865   7.760
  781TIP3   OH223901   1.459   2.292   0.503
  781TIP3    H123902   1.401   2.295   0.579
  781TIP3    H223903   1.516   2.216   0.518
  782TIP3   OH223904   3.875   3.603   0.179
  782TIP3    H123905   3.842   3.587   0.268
  782TIP3    H223906   3.796   3.616   0.126
  783TIP3   OH223907   0.628   5.147   6.246
  783TIP3    H123908   0.618   5.232   6.203
  783TIP3    H223909   0.565   5.090   6.201
  784TIP3   OH223910   4.753   0.514   0.343
  784TIP3    H123911   4.673   0.508   0.291
  784TIP3    H223912   4.823   0.523   0.279
  785TIP3   OH223913   1.670   3.919   8.443
  785TIP3    H123914   1.688   3.914   8.349
  785TIP3    H223915   1.652   3.829   8.469
  786TIP3   OH223916   5.616   2.592   2.008
  786TIP3    H123917   5.583   2.680   1.989
  786TIP3    H223918   5.709   2.596   1.986
  787TIP3   OH223919   5.910   6.271   8.507
  787TIP3    H123920   5.991   6.222   8.520
  787TIP3    H223921   5.881   6.246   8.419
  788TIP3   OH223922   2.914   5.226   8.401
  788TIP3    H123923   2.979   5.174   8.353
  788TIP3    H223924   2.964   5.266   8.473
  789TIP3   OH223925   4.434   1.755   7.192
  789TIP3    H123926   4.429   1.819   7.121
  789TIP3    H223927   4.486   1.683   7.156
  790TIP3   OH223928   3.806   5.057   8.251
  790TIP3    H123929   3.714   5.037   8.267
  790TIP3    H223930   3.851   5.029   8.331
  791TIP3   OH223931   5.687   1.158   7.340
  791TIP3    H123932   5.593   1.176   7.326
  791TIP3    H223933   5.696   1.154   7.435
  792TIP3   OH223934   1.249   6.665   7.649
  792TIP3    H123935   1.337   6.674   7.687
  792TIP3    H223936   1.218   6.755   7.641
  793TIP3   OH223937   1.950   3.951   7.705
  793TIP3    H123938   1.976   3.873   7.656
  793TIP3    H223939   1.855   3.944   7.712
  794TIP3   OH223940   4.122   2.048   8.158
  794TIP3    H123941   4.167   2.000   8.227
  794TIP3    H223942   4.050   1.991   8.132
  795TIP3   OH223943   4.413   0.601   7.107
  795TIP3    H123944   4.386   0.552   7.030
  795TIP3    H223945   4.488   0.554   7.142
  796TIP3   OH223946   6.207   1.130   0.744
  796TIP3    H123947   6.181   1.218   0.717
  796TIP3    H223948   6.291   1.116   0.700
  797TIP3   OH223949   6.159   3.310   7.557
  797TIP3    H123950   6.236   3.259   7.534
  797TIP3    H223951   6.138   3.360   7.477
  798TIP3   OH223952   5.273   5.919   7.050
  798TIP3    H123953   5.338   5.877   7.106
  798TIP3    H223954   5.296   6.012   7.051
  799TIP3   OH223955   4.260   5.598   2.211
  799TIP3    H123956   4.221   5.682   2.187
  799TIP3    H223957   4.351   5.605   2.182
  800TIP3   OH223958   0.839   1.585   6.847
  800TIP3    H123959   0.831   1.645   6.773
  800TIP3    H223960   0.775   1.516   6.829
  801TIP3   OH223961   5.774   5.518   6.429
  801TIP3    H123962   5.794   5.433   6.391
  801TIP3    H223963   5.695   5.503   6.481
  802TIP3   OH223964   5.600   2.964   8.368
  802TIP3    H123965   5.579   2.982   8.276
  802TIP3    H223966   5.549   2.886   8.389
  803TIP3   OH223967   1.187   5.681   7.469
  803TIP3    H123968   1.101   5.723   7.470
  803TIP3    H223969   1.247   5.750   7.438
  804TIP3   OH223970   1.932   2.250   8.508
  804TIP3    H123971   2.022   2.282   8.512
  804TIP3    H223972   1.905   2.242   8.600
  805TIP3   OH223973   6.229   2.295   1.444
  805TIP3    H123974   6.203   2.368   1.501
  805TIP3    H223975   6.168   2.225   1.465
  806TIP3   OH223976   6.013   3.075   0.287
  806TIP3    H123977   5.947   3.006   0.295
  806TIP3    H223978   5.964   3.157   0.299
  807TIP3   OH223979   0.045   1.003   8.577
  807TIP3    H123980   0.013   0.986   8.488
  807TIP3    H223981   0.032   1.097   8.589
  808TIP3   OH223982   0.712   2.833   7.862
  808TIP3    H123983   0.804   2.859   7.857
  808TIP3    H223984   0.665   2.900   7.812
  809TIP3   OH223985   3.641   1.524   2.018
  809TIP3    H123986   3.696   1.560   2.088
  809TIP3    H223987   3.576   1.593   2.001
  810TIP3   OH223988   6.075   0.176   0.528
  810TIP3    H123989   6.152   0.232   0.524
  810TIP3    H223990   6.051   0.162   0.436
  811TIP3   OH223991   2.779   4.380   6.859
  811TIP3    H123992   2.862   4.334   6.874
  811TIP3    H223993   2.736   4.331   6.789
  812TIP3   OH223994   3.964   6.280   6.848
  812TIP3    H123995   3.963   6.185   6.856
  812TIP3    H223996   3.988   6.295   6.756
  813TIP3   OH223997   0.647   3.025   0.688
  813TIP3    H123998   0.568   2.991   0.646
  813TIP3    H223999   0.615   3.076   0.762
  814TIP3   OH224000   4.708   4.276   1.148
  814TIP3    H124001   4.671   4.265   1.060
  814TIP3    H224002   4.793   4.233   1.145
  815TIP3   OH224003   3.763   4.900   1.150
  815TIP3    H124004   3.758   4.808   1.124
  815TIP3    H224005   3.847   4.929   1.116
  816TIP3   OH224006   0.390   4.203   7.641
  816TIP3    H124007   0.440   4.226   7.563
  816TIP3    H224008   0.387   4.283   7.692
  817TIP3   OH224009   2.344   3.777   0.110
  817TIP3    H124010   2.264   3.812   0.071
  817TIP3    H224011   2.313   3.717   0.179
  818TIP3   OH224012   5.425   6.151   1.773
  818TIP3    H124013   5.371   6.104   1.836
  818TIP3    H224014   5.362   6.186   1.710
  819TIP3   OH224015   3.194   5.965   1.122
  819TIP3    H124016   3.281   5.997   1.099
  819TIP3    H224017   3.168   5.910   1.049
  820TIP3   OH224018   0.573   4.893   7.655
  820TIP3    H124019   0.663   4.861   7.667
  820TIP3    H224020   0.584   4.983   7.625
  821TIP3   OH224021   0.600   1.944   1.850
  821TIP3    H124022   0.577   1.861   1.809
  821TIP3    H224023   0.648   1.992   1.783
  822TIP3   OH224024   4.702   0.837   7.687
  822TIP3    H124025   4.679   0.802   7.601
  822TIP3    H224026   4.631   0.898   7.708
  823TIP3   OH224027   3.044   3.533   1.005
  823TIP3    H124028   3.026   3.593   1.077
  823TIP3    H224029   3.103   3.467   1.042
  824TIP3   OH224030   4.996   5.355   1.422
  824TIP3    H124031   4.965   5.427   1.367
  824TIP3    H224032   4.951   5.368   1.506
  825TIP3   OH224033   2.547   6.233   7.171
  825TIP3    H124034   2.512   6.221   7.083
  825TIP3    H224035   2.639   6.207   7.164
  826TIP3   OH224036   4.807   5.649   0.765
  826TIP3    H124037   4.789   5.593   0.840
  826TIP3    H224038   4.725   5.696   0.750
  827TIP3   OH224039   1.183   1.596   0.841
  827TIP3    H124040   1.231   1.613   0.760
  827TIP3    H224041   1.148   1.507   0.830
  828TIP3   OH224042   5.206   5.114   7.684
  828TIP3    H124043   5.288   5.161   7.694
  828TIP3    H224044   5.214   5.071   7.598
  829TIP3   OH224045   1.509   5.731   0.070
  829TIP3    H124046   1.475   5.664   0.009
  829TIP3    H224047   1.561   5.682   0.133
  830TIP3   OH224048   5.257   4.976   2.062
  830TIP3    H124049   5.215   4.891   2.050
  830TIP3    H224050   5.196   5.039   2.023
  831TIP3   OH224051   2.030   3.684   6.097
  831TIP3    H124052   1.965   3.619   6.071
  831TIP3    H224053   2.016   3.695   6.191
  832TIP3   OH224054   5.251   2.254   8.315
  832TIP3    H124055   5.272   2.172   8.359
  832TIP3    H224056   5.162   2.242   8.282
  833TIP3   OH224057   4.853   5.225   0.277
  833TIP3    H124058   4.805   5.266   0.349
  833TIP3    H224059   4.846   5.288   0.205
  834TIP3   OH224060   4.265   2.353   2.142
  834TIP3    H124061   4.354   2.383   2.163
  834TIP3    H224062   4.214   2.433   2.134
  835TIP3   OH224063   5.350   0.240   6.833
  835TIP3    H124064   5.256   0.256   6.826
  835TIP3    H224065   5.390   0.311   6.783
  836TIP3   OH224066   0.964   2.697   8.081
  836TIP3    H124067   1.040   2.730   8.033
  836TIP3    H224068   0.984   2.604   8.096
  837TIP3   OH224069   5.961   1.438   8.434
  837TIP3    H124070   6.003   1.523   8.449
  837TIP3    H224071   6.013   1.377   8.487
  838TIP3   OH224072   6.561   6.848   1.062
  838TIP3    H124073   6.638   6.798   1.035
  838TIP3    H224074   6.512   6.863   0.982
  839TIP3   OH224075   6.079   2.999   7.732
  839TIP3    H124076   6.041   2.924   7.686
  839TIP3    H224077   6.015   3.070   7.718
  840TIP3   OH224078   1.335   4.586   8.094
  840TIP3    H124079   1.374   4.539   8.020
  840TIP3    H224080   1.244   4.557   8.096
  841TIP3   OH224081   6.803   5.531   8.503
  841TIP3    H124082   6.783   5.615   8.545
  841TIP3    H224083   6.807   5.469   8.576
  842TIP3   OH224084   5.244   2.813   0.491
  842TIP3    H124085   5.210   2.891   0.534
  842TIP3    H224086   5.310   2.846   0.430
  843TIP3   OH224087   1.167   2.275   2.312
  843TIP3    H124088   1.109   2.299   2.384
  843TIP3    H224089   1.177   2.180   2.320
  844TIP3   OH224090   4.899   2.299   0.889
  844TIP3    H124091   4.959   2.307   0.815
  844TIP3    H224092   4.838   2.229   0.863
  845TIP3   OH224093   4.361   2.832   8.349
  845TIP3    H124094   4.383   2.900   8.413
  845TIP3    H224095   4.336   2.756   8.402
  846TIP3   OH224096   0.440   6.836   0.744
  846TIP3    H124097   0.449   6.746   0.777
  846TIP3    H224098   0.394   6.883   0.814
  847TIP3   OH224099   4.650   6.820   8.125
  847TIP3    H124100   4.567   6.866   8.109
  847TIP3    H224101   4.658   6.818   8.221
  848TIP3   OH224102   1.839   2.684   7.346
  848TIP3    H124103   1.760   2.634   7.326
  848TIP3    H224104   1.906   2.647   7.290
  849TIP3   OH224105   2.967   2.490   7.247
  849TIP3    H124106   2.887   2.442   7.270
  849TIP3    H224107   2.990   2.537   7.328
  850TIP3   OH224108   5.559   6.150   0.122
  850TIP3    H124109   5.505   6.166   0.044
  850TIP3    H224110   5.498   6.110   0.185
  851TIP3   OH224111   0.325   2.870   1.221
  851TIP3    H124112   0.260   2.847   1.155
  851TIP3    H224113   0.372   2.788   1.238
  852TIP3   OH224114   5.806   0.993   6.940
  852TIP3    H124115   5.830   0.988   6.847
  852TIP3    H224116   5.855   0.922   6.981
  853TIP3   OH224117   3.549   1.972   2.339
  853TIP3    H124118   3.516   2.061   2.325
  853TIP3    H224119   3.587   1.974   2.427
  854TIP3   OH224120   3.469   5.945   0.565
  854TIP3    H124121   3.510   5.862   0.541
  854TIP3    H224122   3.452   5.936   0.659
  855TIP3   OH224123   3.041   0.554   7.911
  855TIP3    H124124   3.061   0.462   7.929
  855TIP3    H224125   2.999   0.553   7.825
  856TIP3   OH224126   6.234   2.419   8.462
  856TIP3    H124127   6.277   2.504   8.455
  856TIP3    H224128   6.242   2.396   8.554
  857TIP3   OH224129   2.799   6.282   2.016
  857TIP3    H124130   2.846   6.204   2.046
  857TIP3    H224131   2.708   6.268   2.043
  858TIP3   OH224132   4.698   1.396   0.686
  858TIP3    H124133   4.644   1.373   0.761
  858TIP3    H224134   4.706   1.491   0.690
  859TIP3   OH224135   4.543   3.887   1.622
  859TIP3    H124136   4.512   3.821   1.560
  859TIP3    H224137   4.576   3.958   1.568
  860TIP3   OH224138   5.211   1.569   2.456
  860TIP3    H124139   5.219   1.536   2.367
  860TIP3    H224140   5.245   1.499   2.511
  861TIP3   OH224141   5.116   1.830   0.326
  861TIP3    H124142   5.116   1.899   0.392
  861TIP3    H224143   5.113   1.875   0.242
  862TIP3   OH224144   5.131   0.909   8.195
  862TIP3    H124145   5.207   0.931   8.249
  862TIP3    H224146   5.094   0.994   8.170
  863TIP3   OH224147   2.182   1.882   7.448
  863TIP3    H124148   2.150   1.967   7.478
  863TIP3    H224149   2.104   1.836   7.419
  864TIP3   OH224150   2.808   6.218   8.340
  864TIP3    H124151   2.817   6.156   8.412
  864TIP3    H224152   2.817   6.304   8.382
  865TIP3   OH224153   5.932   2.004   0.042
  865TIP3    H124154   5.930   2.098   0.022
  865TIP3    H224155   6.017   1.989   0.083
  866TIP3   OH224156   5.316   6.303   7.259
  866TIP3    H124157   5.265   6.340   7.331
  866TIP3    H224158   5.252   6.284   7.192
  867TIP3   OH224159   0.478   0.324   0.221
  867TIP3    H124160   0.418   0.250   0.213
  867TIP3    H224161   0.565   0.287   0.204
  868TIP3   OH224162   0.483   0.133   7.539
  868TIP3    H124163   0.499   0.040   7.552
  868TIP3    H224164   0.405   0.136   7.484
  869TIP3   OH224165   2.203   5.426   6.419
  869TIP3    H124166   2.130   5.479   6.451
  869TIP3    H224167   2.209   5.448   6.326
  870TIP3   OH224168   6.277   0.452   0.725
  870TIP3    H124169   6.314   0.369   0.753
  870TIP3    H224170   6.280   0.449   0.629
  871TIP3   OH224171   5.985   2.474   0.833
  871TIP3    H124172   6.075   2.504   0.845
  871TIP3    H224173   5.968   2.486   0.740
  872TIP3   OH224174   6.683   0.059   1.627
  872TIP3    H124175   6.762   0.109   1.649
  872TIP3    H224176   6.711   0.001   1.557
  873TIP3   OH224177   5.945   1.616   1.270
  873TIP3    H124178   5.941   1.679   1.342
  873TIP3    H224179   5.886   1.545   1.295
  874TIP3   OH224180   0.989   1.864   7.471
  874TIP3    H124181   1.032   1.779   7.485
  874TIP3    H224182   1.030   1.922   7.535
  875TIP3   OH224183   6.692   2.860   7.357
  875TIP3    H124184   6.699   2.782   7.303
  875TIP3    H224185   6.780   2.898   7.356
  876TIP3   OH224186   6.880   0.075   8.214
  876TIP3    H124187   6.828   0.153   8.198
  876TIP3    H224188   6.869   0.057   8.307
  877TIP3   OH224189   2.563   3.632   0.964
  877TIP3    H124190   2.538   3.665   0.878
  877TIP3    H224191   2.619   3.556   0.945
  878TIP3   OH224192   0.033   2.991   7.320
  878TIP3    H124193   0.036   2.976   7.225
  878TIP3    H224194   0.123   2.973   7.349
  879TIP3   OH224195   5.641   1.657   1.730
  879TIP3    H124196   5.672   1.690   1.645
  879TIP3    H224197   5.717   1.663   1.787
  880TIP3   OH224198   4.590   0.166   6.745
  880TIP3    H124199   4.578   0.248   6.792
  880TIP3    H224200   4.532   0.173   6.669
  881TIP3   OH224201   6.209   1.943   7.894
  881TIP3    H124202   6.129   1.997   7.892
  881TIP3    H224203   6.280   2.007   7.894
  882TIP3   OH224204   1.580   4.505   7.642
  882TIP3    H124205   1.582   4.593   7.679
  882TIP3    H224206   1.651   4.458   7.686
  883TIP3   OH224207   1.528   5.931   7.051
  883TIP3    H124208   1.504   5.840   7.066
  883TIP3    H224209   1.572   5.958   7.131
  884TIP3   OH224210   1.072   1.017   7.395
  884TIP3    H124211   1.039   0.944   7.343
  884TIP3    H224212   0.995   1.072   7.411
  885TIP3   OH224213   2.561   3.700   1.358
  885TIP3    H124214   2.634   3.654   1.317
  885TIP3    H224215   2.489   3.692   1.295
  886TIP3   OH224216   3.910   4.929   6.881
  886TIP3    H124217   3.995   4.973   6.869
  886TIP3    H224218   3.882   4.907   6.793
  887TIP3   OH224219   1.395   6.278   8.507
  887TIP3    H124220   1.394   6.243   8.418
  887TIP3    H224221   1.336   6.353   8.505
  888TIP3   OH224222   2.890   3.670   0.207
  888TIP3    H124223   2.844   3.738   0.157
  888TIP3    H224224   2.828   3.643   0.274
  889TIP3   OH224225   6.858   1.480   0.748
  889TIP3    H124226   6.774   1.503   0.708
  889TIP3    H224227   0.022   1.442   0.676
  890TIP3   OH224228   4.023   0.263   1.453
  890TIP3    H124229   3.965   0.322   1.406
  890TIP3    H224230   3.973   0.236   1.530
  891TIP3   OH224231   2.842   5.764   0.791
  891TIP3    H124232   2.767   5.814   0.824
  891TIP3    H224233   2.826   5.757   0.697
  892TIP3   OH224234   4.810   2.921   1.671
  892TIP3    H124235   4.849   2.837   1.646
  892TIP3    H224236   4.862   2.987   1.625
  893TIP3   OH224237   2.877   6.713   7.625
  893TIP3    H124238   2.872   6.624   7.592
  893TIP3    H224239   2.904   6.704   7.716
  894TIP3   OH224240   5.097   3.394   2.092
  894TIP3    H124241   5.116   3.300   2.096
  894TIP3    H224242   5.174   3.432   2.050
  895TIP3   OH224243   6.820   5.662   8.273
  895TIP3    H124244   6.855   5.603   8.339
  895TIP3    H224245   6.869   5.744   8.284
  896TIP3   OH224246   2.855   0.862   8.287
  896TIP3    H124247   2.878   0.770   8.270
  896TIP3    H224248   2.843   0.866   8.382
  897TIP3   OH224249   5.642   3.984   1.549
  897TIP3    H124250   5.695   3.910   1.520
  897TIP3    H224251   5.705   4.052   1.571
  898TIP3   OH224252   4.934   2.750   0.654
  898TIP3    H124253   4.975   2.837   0.656
  898TIP3    H224254   4.844   2.766   0.681
  899TIP3   OH224255   5.914   4.785   1.957
  899TIP3    H124256   5.858   4.818   2.027
  899TIP3    H224257   5.951   4.864   1.918
  900TIP3   OH224258   5.770   2.906   7.358
  900TIP3    H124259   5.842   2.915   7.420
  900TIP3    H224260   5.782   2.819   7.319
  901TIP3   OH224261   3.508   2.546   0.844
  901TIP3    H124262   3.503   2.453   0.822
  901TIP3    H224263   3.450   2.589   0.780
  902TIP3   OH224264   0.152   1.935   1.503
  902TIP3    H124265   0.174   1.872   1.434
  902TIP3    H224266   0.089   1.889   1.558
  903TIP3   OH224267   6.129   0.118   8.648
  903TIP3    H124268   6.117   0.043   8.590
  903TIP3    H224269   6.075   0.187   8.610
  904TIP3   OH224270   2.059   0.153   2.193
  904TIP3    H124271   2.061   0.057   2.203
  904TIP3    H224272   1.993   0.169   2.126
  905TIP3   OH224273   6.704   0.542   6.812
  905TIP3    H124274   6.673   0.590   6.735
  905TIP3    H224275   6.722   0.454   6.779
  906TIP3   OH224276   6.224   5.557   1.664
  906TIP3    H124277   6.157   5.489   1.672
  906TIP3    H224278   6.299   5.512   1.626
  907TIP3   OH224279   4.675   6.511   8.029
  907TIP3    H124280   4.640   6.592   8.066
  907TIP3    H224281   4.704   6.461   8.105
  908TIP3   OH224282   3.823   5.613   8.520
  908TIP3    H124283   3.859   5.534   8.559
  908TIP3    H224284   3.879   5.631   8.445
  909TIP3   OH224285   5.276   5.039   7.398
  909TIP3    H124286   5.313   5.124   7.418
  909TIP3    H224287   5.328   5.007   7.324
  910TIP3   OH224288   3.634   6.004   1.156
  910TIP3    H124289   3.580   5.976   1.231
  910TIP3    H224290   3.571   6.040   1.094
  911TIP3   OH224291   6.776   1.721   0.882
  911TIP3    H124292   6.724   1.657   0.833
  911TIP3    H224293   6.840   1.753   0.818
  912TIP3   OH224294   0.340   5.154   1.643
  912TIP3    H124295   0.307   5.244   1.646
  912TIP3    H224296   0.399   5.147   1.717
  913TIP3   OH224297   6.602   5.000   0.492
  913TIP3    H124298   6.526   4.982   0.547
  913TIP3    H224299   6.621   4.917   0.448
  914TIP3   OH224300   5.725   3.632   0.925
  914TIP3    H124301   5.679   3.571   0.867
  914TIP3    H224302   5.670   3.636   1.003
  915TIP3   OH224303   3.759   1.134   7.606
  915TIP3    H124304   3.804   1.064   7.559
  915TIP3    H224305   3.666   1.113   7.599
  916TIP3   OH224306   0.301   1.822   0.973
  916TIP3    H124307   0.277   1.734   0.943
  916TIP3    H224308   0.264   1.880   0.906
  917TIP3   OH224309   4.938   5.378   8.398
  917TIP3    H124310   4.900   5.365   8.311
  917TIP3    H224311   4.986   5.461   8.391
  918TIP3   OH224312   2.360   0.964   0.655
  918TIP3    H124313   2.399   0.993   0.573
  918TIP3    H224314   2.370   1.038   0.714
  919TIP3   OH224315   1.874   5.323   8.014
  919TIP3    H124316   1.950   5.369   7.980
  919TIP3    H224317   1.808   5.329   7.945
  920TIP3   OH224318   3.205   1.646   8.548
  920TIP3    H124319   3.142   1.575   8.554
  920TIP3    H224320   3.177   1.698   8.473
  921TIP3   OH224321   2.264   2.827   7.083
  921TIP3    H124322   2.346   2.820   7.132
  921TIP3    H224323   2.233   2.915   7.103
  922TIP3   OH224324   4.004   0.363   7.593
  922TIP3    H124325   4.034   0.403   7.511
  922TIP3    H224326   4.038   0.420   7.662
  923TIP3   OH224327   3.551   5.693   7.511
  923TIP3    H124328   3.575   5.698   7.604
  923TIP3    H224329   3.469   5.741   7.505
  924TIP3   OH224330   6.188   2.003   1.056
  924TIP3    H124331   6.244   1.993   1.133
  924TIP3    H224332   6.103   2.029   1.092
  925TIP3   OH224333   5.877   1.623   6.371
  925TIP3    H124334   5.814   1.596   6.438
  925TIP3    H224335   5.962   1.603   6.408
  926TIP3   OH224336   2.375   1.498   0.874
  926TIP3    H124337   2.443   1.431   0.865
  926TIP3    H224338   2.371   1.541   0.788
  927TIP3   OH224339   4.146   6.481   1.978
  927TIP3    H124340   4.058   6.472   1.941
  927TIP3    H224341   4.184   6.393   1.968
  928TIP3   OH224342   6.159   6.086   0.236
  928TIP3    H124343   6.151   6.018   0.168
  928TIP3    H224344   6.072   6.090   0.276
  929TIP3   OH224345   6.403   5.938   2.029
  929TIP3    H124346   6.481   5.945   1.975
  929TIP3    H224347   6.342   6.002   1.991
  930TIP3   OH224348   4.234   0.768   6.374
  930TIP3    H124349   4.267   0.701   6.314
  930TIP3    H224350   4.310   0.793   6.427
  931TIP3   OH224351   3.068   3.398   2.062
  931TIP3    H124352   3.160   3.420   2.076
  931TIP3    H224353   3.038   3.461   1.996
  932TIP3   OH224354   5.622   5.891   6.687
  932TIP3    H124355   5.707   5.848   6.682
  932TIP3    H224356   5.640   5.975   6.729
  933TIP3   OH224357   5.734   0.190   8.212
  933TIP3    H124358   5.670   0.140   8.160
  933TIP3    H224359   5.692   0.274   8.227
  934TIP3   OH224360   0.116   6.764   1.698
  934TIP3    H124361   0.206   6.737   1.679
  934TIP3    H224362   0.124   6.829   1.767
  935TIP3   OH224363   6.589   5.807   6.821
  935TIP3    H124364   6.666   5.785   6.768
  935TIP3    H224365   6.624   5.853   6.897
  936TIP3   OH224366   0.086   0.870   0.138
  936TIP3    H124367   0.029   0.917   0.199
  936TIP3    H224368   0.074   0.915   0.054
  937TIP3   OH224369   6.859   0.032   7.413
  937TIP3    H124370   6.870   0.054   7.321
  937TIP3    H224371   0.014   6.833   7.423
  938TIP3   OH224372   5.688   4.885   2.078
  938TIP3    H124373   5.612   4.830   2.058
  938TIP3    H224374   5.656   4.948   2.142
  939TIP3   OH224375   1.777   6.829   0.752
  939TIP3    H124376   1.710   6.882   0.794
  939TIP3    H224377   1.827   0.004   0.698
  940TIP3   OH224378   4.489   2.578   2.008
  940TIP3    H124379   4.478   2.495   2.054
  940TIP3    H224380   4.486   2.645   2.077
  941TIP3   OH224381   0.878   0.058   0.239
  941TIP3    H124382   0.847   0.027   0.323
  941TIP3    H224383   0.972   0.072   0.251
  942TIP3   OH224384   0.109   2.141   1.294
  942TIP3    H124385   0.120   2.059   1.246
  942TIP3    H224386   0.103   2.115   1.386
  943TIP3   OH224387   2.932   2.770   6.318
  943TIP3    H124388   3.021   2.798   6.297
  943TIP3    H224389   2.924   2.682   6.279
  944TIP3   OH224390   0.102   2.960   7.036
  944TIP3    H124391   0.194   2.949   7.058
  944TIP3    H224392   0.102   3.017   6.959
  945TIP3   OH224393   4.565   0.507   1.331
  945TIP3    H124394   4.657   0.530   1.348
  945TIP3    H224395   4.530   0.583   1.285
  946TIP3   OH224396   3.739   1.727   8.429
  946TIP3    H124397   3.657   1.728   8.380
  946TIP3    H224398   3.727   1.659   8.495
  947TIP3   OH224399   0.175   4.755   2.016
  947TIP3    H124400   0.223   4.834   2.040
  947TIP3    H224401   0.118   4.738   2.091
  948TIP3   OH224402   4.689   4.648   7.064
  948TIP3    H124403   4.618   4.597   7.026
  948TIP3    H224404   4.722   4.594   7.136
  949TIP3   OH224405   0.145   1.248   1.150
  949TIP3    H124406   0.073   1.278   1.095
  949TIP3    H224407   0.162   1.159   1.120
  950TIP3   OH224408   2.098   6.575   7.441
  950TIP3    H124409   2.005   6.575   7.419
  950TIP3    H224410   2.103   6.618   7.526
  951TIP3   OH224411   0.497   6.765   2.464
  951TIP3    H124412   0.402   6.752   2.469
  951TIP3    H224413   0.509   6.859   2.470
  952TIP3   OH224414   6.565   3.301   8.415
  952TIP3    H124415   6.574   3.365   8.344
  952TIP3    H224416   6.607   3.222   8.381
  953TIP3   OH224417   5.318   3.108   8.132
  953TIP3    H124418   5.326   3.013   8.122
  953TIP3    H224419   5.328   3.124   8.226
  954TIP3   OH224420   2.900   1.927   6.982
  954TIP3    H124421   2.867   1.893   7.065
  954TIP3    H224422   2.822   1.939   6.928
  955TIP3   OH224423   2.797   2.711   7.902
  955TIP3    H124424   2.839   2.744   7.822
  955TIP3    H224425   2.803   2.783   7.964
  956TIP3   OH224426   0.208   4.190   0.305
  956TIP3    H124427   0.134   4.129   0.299
  956TIP3    H224428   0.264   4.153   0.373
  957TIP3   OH224429   3.236   0.670   6.981
  957TIP3    H124430   3.192   0.708   7.058
  957TIP3    H224431   3.308   0.730   6.963
  958TIP3   OH224432   2.048   6.154   0.002
  958TIP3    H124433   2.012   6.065   8.659
  958TIP3    H224434   1.973   6.207   0.030
  959TIP3   OH224435   3.406   3.816   2.081
  959TIP3    H124436   3.406   3.857   2.167
  959TIP3    H224437   3.458   3.736   2.093
  960TIP3   OH224438   5.818   3.148   1.587
  960TIP3    H124439   5.864   3.089   1.646
  960TIP3    H224440   5.857   3.234   1.606
  961TIP3   OH224441   3.360   4.739   7.480
  961TIP3    H124442   3.425   4.674   7.452
  961TIP3    H224443   3.411   4.819   7.491
  962TIP3   OH224444   1.404   2.116   8.089
  962TIP3    H124445   1.370   2.075   8.169
  962TIP3    H224446   1.475   2.060   8.061
  963TIP3   OH224447   0.213   6.553   6.966
  963TIP3    H124448   0.288   6.520   7.015
  963TIP3    H224449   0.189   6.481   6.907
  964TIP3   OH224450   5.069   6.028   6.013
  964TIP3    H124451   5.138   6.046   5.949
  964TIP3    H224452   4.999   5.987   5.963
  965TIP3   OH224453   5.999   4.026   1.175
  965TIP3    H124454   5.918   4.076   1.163
  965TIP3    H224455   6.068   4.090   1.164
  966TIP3   OH224456   2.017   6.028   1.346
  966TIP3    H124457   2.059   6.091   1.288
  966TIP3    H224458   1.972   6.082   1.411
  967TIP3   OH224459   3.131   3.004   8.655
  967TIP3    H124460   3.089   3.076   0.039
  967TIP3    H224461   3.093   2.925   0.031
  968TIP3   OH224462   5.625   6.570   7.013
  968TIP3    H124463   5.684   6.537   6.945
  968TIP3    H224464   5.638   6.665   7.011
  969TIP3   OH224465   3.153   1.282   0.794
  969TIP3    H124466   3.171   1.231   0.716
  969TIP3    H224467   3.108   1.360   0.762
  970TIP3   OH224468   1.691   1.599   2.021
  970TIP3    H124469   1.664   1.598   2.113
  970TIP3    H224470   1.635   1.534   1.980
  971TIP3   OH224471   2.420   2.846   7.790
  971TIP3    H124472   2.485   2.884   7.732
  971TIP3    H224473   2.355   2.915   7.803
  972TIP3   OH224474   6.425   2.131   1.645
  972TIP3    H124475   6.345   2.084   1.670
  972TIP3    H224476   6.429   2.124   1.550
  973TIP3   OH224477   1.602   3.009   8.293
  973TIP3    H124478   1.650   3.066   8.232
  973TIP3    H224479   1.613   3.051   8.378
  974TIP3   OH224480   0.305   0.084   0.942
  974TIP3    H124481   0.226   0.133   0.919
  974TIP3    H224482   0.314   0.096   1.037
  975TIP3   OH224483   0.114   1.876   1.174
  975TIP3    H124484   0.190   1.875   1.117
  975TIP3    H224485   0.121   1.796   1.226
  976TIP3   OH224486   2.127   4.397   7.622
  976TIP3    H124487   2.182   4.369   7.696
  976TIP3    H224488   2.137   4.327   7.557
  977TIP3   OH224489   4.561   6.145   1.899
  977TIP3    H124490   4.543   6.156   1.993
  977TIP3    H224491   4.589   6.054   1.891
  978TIP3   OH224492   0.340   5.200   0.625
  978TIP3    H124493   0.321   5.107   0.612
  978TIP3    H224494   0.317   5.215   0.717
  979TIP3   OH224495   6.630   0.574   0.303
  979TIP3    H124496   6.545   0.532   0.297
  979TIP3    H224497   6.690   0.503   0.327
  980TIP3   OH224498   3.968   5.466   0.517
  980TIP3    H124499   3.973   5.387   0.571
  980TIP3    H224500   4.034   5.453   0.449
  981TIP3   OH224501   6.456   2.441   8.132
  981TIP3    H124502   6.391   2.509   8.149
  981TIP3    H224503   6.527   2.486   8.085
  982TIP3   OH224504   3.989   4.564   0.879
  982TIP3    H124505   3.987   4.479   0.835
  982TIP3    H224506   4.067   4.608   0.845
  983TIP3   OH224507   0.482   2.657   2.054
  983TIP3    H124508   0.461   2.749   2.045
  983TIP3    H224509   0.453   2.617   1.972
  984TIP3   OH224510   5.086   3.034   0.573
  984TIP3    H124511   5.093   3.027   0.668
  984TIP3    H224512   5.120   3.121   0.553
  985TIP3   OH224513   2.144   1.265   0.132
  985TIP3    H124514   2.058   1.222   0.131
  985TIP3    H224515   2.165   1.275   0.224
  986TIP3   OH224516   6.423   4.090   0.300
  986TIP3    H124517   6.441   4.026   0.231
  986TIP3    H224518   6.328   4.103   0.297
  987TIP3   OH224519   3.019   2.623   6.555
  987TIP3    H124520   3.087   2.680   6.521
  987TIP3    H224521   2.968   2.597   6.477
  988TIP3   OH224522   0.278   6.569   1.334
  988TIP3    H124523   0.201   6.607   1.292
  988TIP3    H224524   0.267   6.474   1.323
  989TIP3   OH224525   4.356   1.229   2.625
  989TIP3    H124526   4.328   1.157   2.569
  989TIP3    H224527   4.440   1.257   2.589
  990TIP3   OH224528   4.069   3.187   6.924
  990TIP3    H124529   4.134   3.176   6.994
  990TIP3    H224530   4.121   3.207   6.846
  991TIP3   OH224531   4.507   0.641   7.530
  991TIP3    H124532   4.541   0.602   7.450
  991TIP3    H224533   4.488   0.567   7.587
  992TIP3   OH224534   0.038   6.230   7.796
  992TIP3    H124535   0.006   6.230   7.886
  992TIP3    H224536   0.086   6.148   7.787
  993TIP3   OH224537   1.365   1.687   7.374
  993TIP3    H124538   1.459   1.687   7.355
  993TIP3    H224539   1.347   1.776   7.403
  994TIP3   OH224540   5.585   6.215   6.765
  994TIP3    H124541   5.669   6.259   6.770
  994TIP3    H224542   5.525   6.280   6.727
  995TIP3   OH224543   1.841   5.382   8.301
  995TIP3    H124544   1.833   5.357   8.209
  995TIP3    H224545   1.822   5.302   8.350
  996TIP3   OH224546   5.534   1.561   7.541
  996TIP3    H124547   5.548   1.549   7.447
  996TIP3    H224548   5.443   1.537   7.555
  997TIP3   OH224549   1.730   4.678   7.122
  997TIP3    H124550   1.733   4.774   7.112
  997TIP3    H224551   1.782   4.661   7.200
  998TIP3   OH224552   3.420   0.944   8.413
  998TIP3    H124553   3.387   1.016   8.466
  998TIP3    H224554   3.419   0.977   8.323
  999TIP3   OH224555   4.676   4.764   7.551
  999TIP3    H124556   4.669   4.683   7.603
  999TIP3    H224557   4.636   4.742   7.467
 1000TIP3   OH224558   1.463   1.369   1.320
 1000TIP3    H124559   1.473   1.322   1.237
 1000TIP3    H224560   1.373   1.403   1.318
 1001TIP3   OH224561   2.268   2.007   0.190
 1001TIP3    H124562   2.205   2.079   0.192
 1001TIP3    H224563   2.351   2.048   0.214
 1002TIP3   OH224564   1.796   6.780   1.630
 1002TIP3    H124565   1.793   6.712   1.563
 1002TIP3    H224566   1.844   6.740   1.703
 1003TIP3   OH224567   0.539   4.807   6.953
 1003TIP3    H124568   0.510   4.800   6.862
 1003TIP3    H224569   0.463   4.782   7.005
 1004TIP3   OH224570   1.057   6.590   0.180
 1004TIP3    H124571   0.993   6.622   0.244
 1004TIP3    H224572   1.028   6.502   0.159
 1005TIP3   OH224573   4.673   5.914   0.156
 1005TIP3    H124574   4.701   5.855   0.225
 1005TIP3    H224575   4.601   5.964   0.194
 1006TIP3   OH224576   3.345   2.271   8.653
 1006TIP3    H124577   3.252   2.289   0.002
 1006TIP3    H224578   3.352   2.233   8.566
 1007TIP3   OH224579   4.881   0.144   0.479
 1007TIP3    H124580   4.976   0.149   0.467
 1007TIP3    H224581   4.870   0.112   0.569
 1008TIP3   OH224582   0.746   5.050   2.207
 1008TIP3    H124583   0.804   5.098   2.266
 1008TIP3    H224584   0.712   5.117   2.147
 1009TIP3   OH224585   1.109   6.712   1.543
 1009TIP3    H124586   1.164   6.679   1.615
 1009TIP3    H224587   1.023   6.673   1.558
 1010TIP3   OH224588   3.345   0.955   8.129
 1010TIP3    H124589   3.251   0.942   8.116
 1010TIP3    H224590   3.387   0.887   8.076
 1011TIP3   OH224591   0.019   4.710   1.434
 1011TIP3    H124592   6.845   4.641   1.461
 1011TIP3    H224593   0.060   4.741   1.515
 1012TIP3   OH224594   1.630   3.305   0.385
 1012TIP3    H124595   1.581   3.363   0.327
 1012TIP3    H224596   1.633   3.221   0.338
 1013TIP3   OH224597   3.306   2.522   8.290
 1013TIP3    H124598   3.233   2.496   8.346
 1013TIP3    H224599   3.275   2.505   8.201
 1014TIP3   OH224600   0.604   2.427   8.185
 1014TIP3    H124601   0.619   2.439   8.091
 1014TIP3    H224602   0.534   2.489   8.206
 1015TIP3   OH224603   1.314   6.874   7.223
 1015TIP3    H124604   1.366   6.852   7.146
 1015TIP3    H224605   1.362   0.058   7.266
 1016TIP3   OH224606   3.412   6.661   7.617
 1016TIP3    H124607   3.342   6.632   7.676
 1016TIP3    H224608   3.403   6.606   7.540
 1017TIP3   OH224609   4.448   2.476   1.411
 1017TIP3    H124610   4.436   2.415   1.484
 1017TIP3    H224611   4.406   2.557   1.441
 1018TIP3   OH224612   2.723   3.349   1.588
 1018TIP3    H124613   2.775   3.274   1.617
 1018TIP3    H224614   2.733   3.413   1.658
 1019TIP3   OH224615   4.557   3.897   5.987
 1019TIP3    H124616   4.644   3.931   5.967
 1019TIP3    H224617   4.560   3.805   5.959
 1020TIP3   OH224618   4.490   6.342   0.256
 1020TIP3    H124619   4.526   6.422   0.293
 1020TIP3    H224620   4.464   6.366   0.168
 1021TIP3   OH224621   0.205   5.692   0.955
 1021TIP3    H124622   0.220   5.740   1.036
 1021TIP3    H224623   0.117   5.719   0.927
 1022TIP3   OH224624   6.633   1.105   1.396
 1022TIP3    H124625   6.662   1.195   1.413
 1022TIP3    H224626   6.578   1.112   1.319
 1023TIP3   OH224627   2.073   1.286   7.438
 1023TIP3    H124628   2.120   1.354   7.391
 1023TIP3    H224629   2.038   1.330   7.516
 1024TIP3   OH224630   4.405   6.433   0.681
 1024TIP3    H124631   4.334   6.390   0.727
 1024TIP3    H224632   4.469   6.364   0.665
 1025TIP3   OH224633   1.702   5.236   1.352
 1025TIP3    H124634   1.728   5.327   1.341
 1025TIP3    H224635   1.780   5.186   1.328
 1026TIP3   OH224636   6.311   5.054   8.516
 1026TIP3    H124637   6.319   5.027   8.424
 1026TIP3    H224638   6.222   5.088   8.523
 1027TIP3   OH224639   1.484   5.613   0.583
 1027TIP3    H124640   1.392   5.625   0.557
 1027TIP3    H224641   1.494   5.669   0.660
 1028TIP3   OH224642   0.576   4.578   7.377
 1028TIP3    H124643   0.492   4.535   7.363
 1028TIP3    H224644   0.578   4.599   7.470
 1029TIP3   OH224645   1.576   6.826   8.590
 1029TIP3    H124646   1.488   6.824   8.552
 1029TIP3    H224647   1.590   6.737   8.624
 1030TIP3   OH224648   0.120   2.687   0.764
 1030TIP3    H124649   0.074   2.732   0.835
 1030TIP3    H224650   0.212   2.689   0.789
 1031TIP3   OH224651   4.246   4.137   6.164
 1031TIP3    H124652   4.248   4.215   6.220
 1031TIP3    H224653   4.167   4.091   6.190
 1032TIP3   OH224654   6.781   2.501   0.462
 1032TIP3    H124655   6.695   2.460   0.467
 1032TIP3    H224656   6.834   2.454   0.526
 1033TIP3   OH224657   1.836   2.123   0.703
 1033TIP3    H124658   1.783   2.103   0.781
 1033TIP3    H224659   1.858   2.216   0.713
 1034TIP3   OH224660   3.401   2.188   0.473
 1034TIP3    H124661   3.430   2.185   0.382
 1034TIP3    H224662   3.397   2.097   0.501
 1035TIP3   OH224663   1.496   5.670   7.071
 1035TIP3    H124664   1.402   5.652   7.079
 1035TIP3    H224665   1.534   5.585   7.050
 1036TIP3   OH224666   4.612   5.033   6.478
 1036TIP3    H124667   4.699   5.014   6.441
 1036TIP3    H224668   4.560   4.956   6.455
 1037TIP3   OH224669   0.972   0.603   8.651
 1037TIP3    H124670   0.987   0.521   0.036
 1037TIP3    H224671   1.059   0.630   8.622
 1038TIP3   OH224672   1.624   4.012   8.140
 1038TIP3    H124673   1.717   4.032   8.156
 1038TIP3    H224674   1.579   4.096   8.152
 1039TIP3   OH224675   6.254   3.323   0.247
 1039TIP3    H124676   6.301   3.239   0.249
 1039TIP3    H224677   6.241   3.344   0.340
 1040TIP3   OH224678   4.772   1.391   6.951
 1040TIP3    H124679   4.708   1.373   6.883
 1040TIP3    H224680   4.796   1.305   6.985
 1041TIP3   OH224681   3.048   6.684   1.434
 1041TIP3    H124682   3.046   6.683   1.339
 1041TIP3    H224683   3.101   6.608   1.458
 1042TIP3   OH224684   2.414   5.023   0.115
 1042TIP3    H124685   2.445   5.114   0.107
 1042TIP3    H224686   2.345   5.017   0.049
 1043TIP3   OH224687   2.749   3.430   0.933
 1043TIP3    H124688   2.730   3.338   0.952
 1043TIP3    H224689   2.836   3.444   0.970
 1044TIP3   OH224690   6.725   5.982   8.043
 1044TIP3    H124691   6.694   6.055   8.097
 1044TIP3    H224692   6.702   6.008   7.954
 1045TIP3   OH224693   5.922   0.272   8.470
 1045TIP3    H124694   5.869   0.204   8.427
 1045TIP3    H224695   5.861   0.319   8.526
 1046TIP3   OH224696   2.647   3.883   0.982
 1046TIP3    H124697   2.654   3.788   0.997
 1046TIP3    H224698   2.559   3.905   1.014
 1047TIP3   OH224699   4.281   0.141   2.563
 1047TIP3    H124700   4.290   0.053   2.600
 1047TIP3    H224701   4.242   0.127   2.477
 1048TIP3   OH224702   4.345   6.667   7.191
 1048TIP3    H124703   4.344   6.579   7.229
 1048TIP3    H224704   4.257   6.678   7.154
 1049TIP3   OH224705   3.398   3.840   7.115
 1049TIP3    H124706   3.490   3.823   7.098
 1049TIP3    H224707   3.397   3.889   7.198
 1050TIP3   OH224708   2.755   1.959   2.717
 1050TIP3    H124709   2.742   1.927   2.807
 1050TIP3    H224710   2.849   1.977   2.711
 1051TIP3   OH224711   6.121   6.636   7.471
 1051TIP3    H124712   6.116   6.605   7.381
 1051TIP3    H224713   6.173   6.717   7.466
 1052TIP3   OH224714   1.511   2.283   8.637
 1052TIP3    H124715   1.468   2.205   0.009
 1052TIP3    H224716   1.467   2.356   0.019
 1053TIP3   OH224717   0.779   2.659   1.400
 1053TIP3    H124718   0.704   2.718   1.405
 1053TIP3    H224719   0.743   2.577   1.368
 1054TIP3   OH224720   3.943   5.341   0.778
 1054TIP3    H124721   3.933   5.254   0.817
 1054TIP3    H224722   3.854   5.376   0.773
 1055TIP3   OH224723   5.169   5.013   1.580
 1055TIP3    H124724   5.242   5.067   1.549
 1055TIP3    H224725   5.210   4.943   1.630
 1056TIP3   OH224726   1.996   3.657   7.762
 1056TIP3    H124727   1.995   3.604   7.842
 1056TIP3    H224728   1.934   3.614   7.704
 1057TIP3   OH224729   4.030   5.617   8.337
 1057TIP3    H124730   4.021   5.576   8.251
 1057TIP3    H224731   4.108   5.577   8.375
 1058TIP3   OH224732   6.690   2.886   0.357
 1058TIP3    H124733   6.643   2.803   0.363
 1058TIP3    H224734   6.626   2.949   0.323
 1059TIP3   OH224735   3.877   6.633   0.790
 1059TIP3    H124736   3.835   6.704   0.742
 1059TIP3    H224737   3.893   6.668   0.877
 1060TIP3   OH224738   0.253   0.106   7.372
 1060TIP3    H124739   0.229   0.137   7.285
 1060TIP3    H224740   0.170   0.088   7.415
 1061TIP3   OH224741   1.349   5.311   7.171
 1061TIP3    H124742   1.441   5.291   7.156
 1061TIP3    H224743   1.348   5.362   7.252
 1062TIP3   OH224744   1.298   6.775   8.469
 1062TIP3    H124745   1.227   6.742   8.524
 1062TIP3    H224746   1.261   6.849   8.422
 1063TIP3   OH224747   2.607   1.104   6.882
 1063TIP3    H124748   2.580   1.124   6.972
 1063TIP3    H224749   2.693   1.146   6.873
 1064TIP3   OH224750   4.725   1.646   1.737
 1064TIP3    H124751   4.716   1.572   1.797
 1064TIP3    H224752   4.791   1.702   1.777
 1065TIP3   OH224753   0.688   0.179   0.066
 1065TIP3    H124754   0.756   0.164   0.131
 1065TIP3    H224755   0.719   0.131   8.651
 1066TIP3   OH224756   1.383   5.916   0.236
 1066TIP3    H124757   1.416   5.839   0.189
 1066TIP3    H224758   1.461   5.964   0.261
 1067TIP3   OH224759   2.585   0.056   6.398
 1067TIP3    H124760   2.576   0.072   6.304
 1067TIP3    H224761   2.590   0.144   6.436
 1068TIP3   OH224762   2.059   1.533   7.812
 1068TIP3    H124763   2.119   1.518   7.739
 1068TIP3    H224764   1.987   1.585   7.774
 1069TIP3   OH224765   4.994   4.216   7.610
 1069TIP3    H124766   4.952   4.150   7.556
 1069TIP3    H224767   5.016   4.286   7.549
 1070TIP3   OH224768   0.586   2.848   8.389
 1070TIP3    H124769   0.631   2.891   8.317
 1070TIP3    H224770   0.551   2.768   8.351
 1071TIP3   OH224771   0.398   5.121   1.328
 1071TIP3    H124772   0.305   5.143   1.325
 1071TIP3    H224773   0.442   5.204   1.308
 1072TIP3   OH224774   1.963   3.770   1.049
 1072TIP3    H124775   1.894   3.782   1.115
 1072TIP3    H224776   2.016   3.698   1.084
 1073TIP3   OH224777   5.223   5.409   0.293
 1073TIP3    H124778   5.178   5.418   0.377
 1073TIP3    H224779   5.174   5.342   0.246
 1074TIP3   OH224780   0.678   4.274   0.561
 1074TIP3    H124781   0.626   4.232   0.629
 1074TIP3    H224782   0.717   4.350   0.604
 1075TIP3   OH224783   1.232   5.648   6.149
 1075TIP3    H124784   1.149   5.673   6.108
 1075TIP3    H224785   1.294   5.715   6.121
 1076TIP3   OH224786   5.113   4.731   6.741
 1076TIP3    H124787   5.102   4.785   6.819
 1076TIP3    H224788   5.055   4.656   6.755
 1077TIP3   OH224789   0.697   5.339   1.704
 1077TIP3    H124790   0.695   5.263   1.646
 1077TIP3    H224791   0.771   5.323   1.763
 1078TIP3   OH224792   2.150   1.853   6.323
 1078TIP3    H124793   2.085   1.784   6.340
 1078TIP3    H224794   2.227   1.807   6.290
 1079TIP3   OH224795   5.864   6.163   0.112
 1079TIP3    H124796   5.888   6.147   0.021
 1079TIP3    H224797   5.794   6.228   0.107
 1080TIP3   OH224798   6.279   3.767   6.425
 1080TIP3    H124799   6.250   3.829   6.357
 1080TIP3    H224800   6.201   3.715   6.444
 1081TIP3   OH224801   0.667   1.462   6.387
 1081TIP3    H124802   0.691   1.496   6.473
 1081TIP3    H224803   0.579   1.426   6.398
 1082TIP3   OH224804   6.662   3.268   1.666
 1082TIP3    H124805   6.718   3.281   1.590
 1082TIP3    H224806   6.615   3.186   1.648
 1083TIP3   OH224807   6.156   3.427   6.699
 1083TIP3    H124808   6.200   3.426   6.785
 1083TIP3    H224809   6.151   3.335   6.674
 1084TIP3   OH224810   2.201   1.032   1.191
 1084TIP3    H124811   2.120   0.982   1.201
 1084TIP3    H224812   2.255   1.005   1.265
 1085TIP3   OH224813   6.338   5.990   8.319
 1085TIP3    H124814   6.425   6.021   8.291
 1085TIP3    H224815   6.292   6.069   8.348
 1086TIP3   OH224816   4.081   5.912   7.218
 1086TIP3    H124817   4.029   5.853   7.164
 1086TIP3    H224818   4.021   5.983   7.240
 1087TIP3   OH224819   1.582   3.500   8.324
 1087TIP3    H124820   1.602   3.586   8.288
 1087TIP3    H224821   1.663   3.450   8.314
 1088TIP3   OH224822   6.642   6.446   8.162
 1088TIP3    H124823   6.709   6.445   8.093
 1088TIP3    H224824   6.678   6.503   8.230
 1089TIP3   OH224825   2.564   5.497   7.300
 1089TIP3    H124826   2.641   5.440   7.293
 1089TIP3    H224827   2.504   5.464   7.233
 1090TIP3   OH224828   1.202   3.389   8.635
 1090TIP3    H124829   1.234   3.405   8.547
 1090TIP3    H224830   1.107   3.390   8.626
 1091TIP3   OH224831   4.399   4.933   7.981
 1091TIP3    H124832   4.309   4.903   7.995
 1091TIP3    H224833   4.419   4.984   8.060
 1092TIP3   OH224834   6.868   5.915   8.417
 1092TIP3    H124835   6.879   5.962   8.500
 1092TIP3    H224836   6.866   5.984   8.350
 1093TIP3   OH224837   5.799   2.671   1.215
 1093TIP3    H124838   5.717   2.672   1.263
 1093TIP3    H224839   5.775   2.701   1.127
 1094TIP3   OH224840   0.387   0.124   1.914
 1094TIP3    H124841   0.330   0.055   1.947
 1094TIP3    H224842   0.329   0.180   1.861
 1095TIP3   OH224843   0.311   3.249   0.134
 1095TIP3    H124844   0.255   3.172   0.123
 1095TIP3    H224845   0.301   3.273   0.226
 1096TIP3   OH224846   4.547   4.028   0.032
 1096TIP3    H124847   4.476   3.965   0.046
 1096TIP3    H224848   4.591   3.998   8.615
 1097TIP3   OH224849   2.847   4.302   2.189
 1097TIP3    H124850   2.773   4.287   2.247
 1097TIP3    H224851   2.917   4.332   2.246
 1098TIP3   OH224852   2.147   4.409   6.680
 1098TIP3    H124853   2.195   4.386   6.600
 1098TIP3    H224854   2.094   4.331   6.698
 1099TIP3   OH224855   6.490   4.139   0.599
 1099TIP3    H124856   6.563   4.080   0.618
 1099TIP3    H224857   6.523   4.197   0.531
 1100TIP3   OH224858   0.539   1.858   0.534
 1100TIP3    H124859   0.499   1.805   0.602
 1100TIP3    H224860   0.608   1.802   0.497
 1101TIP3   OH224861   1.725   1.956   2.504
 1101TIP3    H124862   1.655   1.967   2.568
 1101TIP3    H224863   1.698   2.010   2.430
 1102TIP3   OH224864   1.379   6.624   5.969
 1102TIP3    H124865   1.284   6.616   5.970
 1102TIP3    H224866   1.395   6.718   5.979
 1103TIP3   OH224867   0.410   2.675   8.629
 1103TIP3    H124868   0.447   2.738   0.028
 1103TIP3    H224869   0.422   2.715   8.543
 1104TIP3   OH224870   0.055   2.785   6.371
 1104TIP3    H124871   0.091   2.841   6.303
 1104TIP3    H224872   0.000   2.723   6.325
 1105TIP3   OH224873   2.857   3.039   7.246
 1105TIP3    H124874   2.841   2.959   7.297
 1105TIP3    H224875   2.925   3.085   7.294
 1106TIP3   OH224876   3.657   1.040   2.116
 1106TIP3    H124877   3.572   1.076   2.089
 1106TIP3    H224878   3.721   1.087   2.063
 1107TIP3   OH224879   5.511   0.061   0.889
 1107TIP3    H124880   5.451   0.056   0.815
 1107TIP3    H224881   5.558   0.144   0.876
 1108TIP3   OH224882   0.534   3.139   2.205
 1108TIP3    H124883   0.535   3.217   2.260
 1108TIP3    H224884   0.456   3.147   2.151
 1109TIP3   OH224885   0.183   0.628   7.437
 1109TIP3    H124886   0.102   0.610   7.390
 1109TIP3    H224887   0.225   0.698   7.386
 1110TIP3   OH224888   5.889   6.274   0.805
 1110TIP3    H124889   5.875   6.190   0.763
 1110TIP3    H224890   5.886   6.255   0.899
 1111TIP3   OH224891   3.926   4.307   0.263
 1111TIP3    H124892   3.930   4.391   0.309
 1111TIP3    H224893   3.843   4.310   0.215
 1112TIP3   OH224894   2.124   0.989   8.461
 1112TIP3    H124895   2.154   1.058   8.402
 1112TIP3    H224896   2.056   1.030   8.514
 1113TIP3   OH224897   0.461   2.974   7.753
 1113TIP3    H124898   0.414   2.990   7.834
 1113TIP3    H224899   0.398   2.995   7.684
 1114TIP3   OH224900   0.240   0.384   0.596
 1114TIP3    H124901   0.297   0.431   0.657
 1114TIP3    H224902   0.280   0.297   0.588
 1115TIP3   OH224903   6.626   2.603   2.510
 1115TIP3    H124904   6.699   2.575   2.454
 1115TIP3    H224905   6.613   2.530   2.571
 1116TIP3   OH224906   3.576   5.290   7.181
 1116TIP3    H124907   3.665   5.271   7.212
 1116TIP3    H224908   3.589   5.357   7.114
 1117TIP3   OH224909   3.376   4.737   1.296
 1117TIP3    H124910   3.418   4.672   1.352
 1117TIP3    H224911   3.363   4.692   1.212
 1118TIP3   OH224912   5.095   5.664   1.650
 1118TIP3    H124913   5.160   5.730   1.627
 1118TIP3    H224914   5.141   5.600   1.704
 1119TIP3   OH224915   6.012   6.519   0.774
 1119TIP3    H124916   5.977   6.432   0.756
 1119TIP3    H224917   5.981   6.539   0.862
 1120TIP3   OH224918   6.375   3.440   1.091
 1120TIP3    H124919   6.403   3.413   1.179
 1120TIP3    H224920   6.290   3.481   1.104
 1121TIP3   OH224921   4.184   3.011   7.394
 1121TIP3    H124922   4.131   2.976   7.465
 1121TIP3    H224923   4.208   3.099   7.422
 1122TIP3   OH224924   1.952   1.519   0.122
 1122TIP3    H124925   1.991   1.460   0.186
 1122TIP3    H224926   1.925   1.596   0.172
 1123TIP3   OH224927   3.965   4.950   8.496
 1123TIP3    H124928   3.919   5.011   8.553
 1123TIP3    H224929   3.919   4.867   8.507
 1124TIP3   OH224930   3.812   3.156   6.489
 1124TIP3    H124931   3.726   3.120   6.509
 1124TIP3    H224932   3.793   3.238   6.442
 1125TIP3   OH224933   0.842   2.323   8.290
 1125TIP3    H124934   0.866   2.398   8.345
 1125TIP3    H224935   0.752   2.339   8.264
 1126TIP3   OH224936   3.654   1.887   7.727
 1126TIP3    H124937   3.611   1.972   7.716
 1126TIP3    H224938   3.582   1.827   7.751
 1127TIP3   OH224939   4.464   4.461   7.468
 1127TIP3    H124940   4.558   4.440   7.475
 1127TIP3    H224941   4.431   4.454   7.557
 1128TIP3   OH224942   0.446   3.700   1.921
 1128TIP3    H124943   0.457   3.781   1.970
 1128TIP3    H224944   0.364   3.663   1.954
 1129TIP3   OH224945   4.762   5.186   7.828
 1129TIP3    H124946   4.697   5.228   7.772
 1129TIP3    H224947   4.720   5.105   7.857
 1130TIP3   OH224948   2.028   0.211   0.590
 1130TIP3    H124949   2.119   0.184   0.602
 1130TIP3    H224950   2.001   0.167   0.509
 1131TIP3   OH224951   2.643   4.168   7.410
 1131TIP3    H124952   2.612   4.130   7.328
 1131TIP3    H224953   2.592   4.248   7.420
 1132TIP3   OH224954   2.362   5.974   1.009
 1132TIP3    H124955   2.409   6.057   1.018
 1132TIP3    H224956   2.275   5.998   0.977
 1133TIP3   OH224957   2.910   6.694   1.060
 1133TIP3    H124958   2.833   6.637   1.052
 1133TIP3    H224959   2.977   6.638   1.099
 1134TIP3   OH224960   3.945   3.171   1.571
 1134TIP3    H124961   3.965   3.256   1.610
 1134TIP3    H224962   3.946   3.187   1.477
 1135TIP3   OH224963   4.483   4.499   6.975
 1135TIP3    H124964   4.473   4.409   6.943
 1135TIP3    H224965   4.443   4.498   7.062
 1136TIP3   OH224966   1.069   4.513   8.280
 1136TIP3    H124967   1.065   4.419   8.263
 1136TIP3    H224968   0.979   4.538   8.300
 1137TIP3   OH224969   5.271   2.534   6.942
 1137TIP3    H124970   5.277   2.540   6.847
 1137TIP3    H224971   5.238   2.445   6.958
 1138TIP3   OH224972   5.553   0.516   1.578
 1138TIP3    H124973   5.477   0.552   1.623
 1138TIP3    H224974   5.629   0.556   1.621
 1139TIP3   OH224975   0.308   3.879   0.986
 1139TIP3    H124976   0.311   3.974   0.977
 1139TIP3    H224977   0.243   3.850   0.923
 1140TIP3   OH224978   5.791   4.464   1.540
 1140TIP3    H124979   5.727   4.484   1.608
 1140TIP3    H224980   5.860   4.530   1.553
 1141TIP3   OH224981   6.465   3.642   0.512
 1141TIP3    H124982   6.457   3.547   0.509
 1141TIP3    H224983   6.441   3.672   0.424
 1142TIP3   OH224984   2.730   5.056   0.220
 1142TIP3    H124985   2.806   5.114   0.220
 1142TIP3    H224986   2.697   5.059   0.309
 1143TIP3   OH224987   1.907   6.658   8.305
 1143TIP3    H124988   1.943   6.726   8.247
 1143TIP3    H224989   1.820   6.639   8.269
 1144TIP3   OH224990   5.734   3.922   8.060
 1144TIP3    H124991   5.801   3.975   8.104
 1144TIP3    H224992   5.718   3.849   8.120
 1145TIP3   OH224993   0.008   2.360   7.977
 1145TIP3    H124994   6.818   2.303   7.969
 1145TIP3    H224995   6.857   2.448   7.981
 1146TIP3   OH224996   2.598   1.387   8.068
 1146TIP3    H124997   2.567   1.415   8.155
 1146TIP3    H224998   2.596   1.291   8.072
 1147TIP3   OH224999   6.749   3.306   0.870
 1147TIP3    H125000   6.703   3.378   0.914
 1147TIP3    H225001   6.838   3.310   0.904
 1148TIP3   OH225002   1.789   2.124   7.493
 1148TIP3    H125003   1.731   2.199   7.478
 1148TIP3    H225004   1.808   2.091   7.405
 1149TIP3   OH225005   1.802   6.092   0.812
 1149TIP3    H125006   1.724   6.103   0.758
 1149TIP3    H225007   1.768   6.069   0.899
 1150TIP3   OH225008   1.138   5.769   8.042
 1150TIP3    H125009   1.064   5.803   8.092
 1150TIP3    H225010   1.215   5.787   8.097
 1151TIP3   OH225011   5.832   6.003   0.940
 1151TIP3    H125012   5.874   5.948   0.874
 1151TIP3    H225013   5.903   6.032   0.997
 1152TIP3   OH225014   4.604   1.312   0.023
 1152TIP3    H125015   4.662   1.347   0.090
 1152TIP3    H225016   4.659   1.251   8.635
 1153TIP3   OH225017   4.606   6.413   7.263
 1153TIP3    H125018   4.629   6.420   7.355
 1153TIP3    H225019   4.591   6.319   7.249
 1154TIP3   OH225020   1.069   2.481   2.181
 1154TIP3    H125021   1.133   2.424   2.224
 1154TIP3    H225022   1.120   2.530   2.117
 1155TIP3   OH225023   5.450   1.136   2.302
 1155TIP3    H125024   5.477   1.050   2.269
 1155TIP3    H225025   5.413   1.117   2.388
 1156TIP3   OH225026   4.531   5.371   1.261
 1156TIP3    H125027   4.450   5.339   1.300
 1156TIP3    H225028   4.575   5.293   1.228
 1157TIP3   OH225029   1.346   1.826   7.794
 1157TIP3    H125030   1.368   1.749   7.846
 1157TIP3    H225031   1.424   1.881   7.798
 1158TIP3   OH225032   3.145   0.959   2.092
 1158TIP3    H125033   3.216   0.895   2.089
 1158TIP3    H225034   3.106   0.955   2.005
 1159TIP3   OH225035   5.124   2.814   2.286
 1159TIP3    H125036   5.082   2.728   2.294
 1159TIP3    H225037   5.064   2.874   2.329
 1160TIP3   OH225038   3.666   0.044   7.187
 1160TIP3    H125039   3.759   0.053   7.165
 1160TIP3    H225040   3.620   0.074   7.108
 1161TIP3   OH225041   0.921   1.491   1.536
 1161TIP3    H125042   0.834   1.487   1.496
 1161TIP3    H225043   0.915   1.429   1.609
 1162TIP3   OH225044   2.034   3.702   1.906
 1162TIP3    H125045   2.045   3.793   1.880
 1162TIP3    H225046   2.122   3.664   1.900
 1163TIP3   OH225047   2.554   1.124   8.151
 1163TIP3    H125048   2.602   1.155   8.228
 1163TIP3    H225049   2.554   1.028   8.160
 1164TIP3   OH225050   6.425   2.619   1.384
 1164TIP3    H125051   6.395   2.547   1.327
 1164TIP3    H225052   6.439   2.578   1.469
 1165TIP3   OH225053   2.934   5.950   6.902
 1165TIP3    H125054   2.929   6.029   6.849
 1165TIP3    H225055   2.847   5.910   6.894
 1166TIP3   OH225056   3.339   5.573   1.154
 1166TIP3    H125057   3.375   5.638   1.094
 1166TIP3    H225058   3.294   5.511   1.098
 1167TIP3   OH225059   0.682   5.278   8.537
 1167TIP3    H125060   0.671   5.203   8.595
 1167TIP3    H225061   0.593   5.298   8.506
 1168TIP3   OH225062   6.581   2.253   0.259
 1168TIP3    H125063   6.525   2.259   0.336
 1168TIP3    H225064   6.592   2.159   0.245
 1169TIP3   OH225065   4.840   1.385   1.579
 1169TIP3    H125066   4.936   1.389   1.581
 1169TIP3    H225067   4.811   1.451   1.641
 1170TIP3   OH225068   0.415   6.583   8.510
 1170TIP3    H125069   0.498   6.615   8.473
 1170TIP3    H225070   0.361   6.661   8.520
 1171TIP3   OH225071   1.795   3.689   7.005
 1171TIP3    H125072   1.778   3.771   7.051
 1171TIP3    H225073   1.755   3.622   7.059
 1172TIP3   OH225074   2.394   6.059   8.364
 1172TIP3    H125075   2.319   6.089   8.311
 1172TIP3    H225076   2.460   6.128   8.352
 1173TIP3   OH225077   0.609   3.970   7.300
 1173TIP3    H125078   0.701   3.987   7.280
 1173TIP3    H225079   0.598   4.000   7.390
 1174TIP3   OH225080   3.382   0.339   6.423
 1174TIP3    H125081   3.349   0.272   6.482
 1174TIP3    H225082   3.304   0.387   6.395
 1175TIP3   OH225083   3.728   6.753   8.216
 1175TIP3    H125084   3.675   6.774   8.139
 1175TIP3    H225085   3.816   6.783   8.192
 1176TIP3   OH225086   6.631   1.385   7.267
 1176TIP3    H125087   6.542   1.366   7.238
 1176TIP3    H225088   6.657   1.462   7.216
 1177TIP3   OH225089   0.191   6.054   2.230
 1177TIP3    H125090   0.282   6.025   2.232
 1177TIP3    H225091   0.142   5.981   2.194
 1178TIP3   OH225092   0.788   5.345   6.672
 1178TIP3    H125093   0.878   5.314   6.667
 1178TIP3    H225094   0.735   5.265   6.674
 1179TIP3   OH225095   3.243   1.389   1.417
 1179TIP3    H125096   3.289   1.374   1.500
 1179TIP3    H225097   3.314   1.402   1.353
 1180TIP3   OH225098   2.036   0.541   8.077
 1180TIP3    H125099   2.099   0.537   8.148
 1180TIP3    H225100   1.955   0.507   8.115
 1181TIP3   OH225101   2.080   2.095   8.038
 1181TIP3    H125102   2.136   2.172   8.035
 1181TIP3    H225103   2.019   2.112   8.110
 1182TIP3   OH225104   1.583   6.166   7.620
 1182TIP3    H125105   1.651   6.149   7.685
 1182TIP3    H225106   1.615   6.241   7.570
 1183TIP3   OH225107   6.276   2.885   0.942
 1183TIP3    H125108   6.187   2.886   0.978
 1183TIP3    H225109   6.327   2.937   1.004
 1184TIP3   OH225110   4.982   1.898   7.666
 1184TIP3    H125111   5.000   1.886   7.573
 1184TIP3    H225112   5.011   1.988   7.685
 1185TIP3   OH225113   3.678   5.043   0.939
 1185TIP3    H125114   3.694   5.127   0.983
 1185TIP3    H225115   3.657   4.982   1.010
 1186TIP3   OH225116   0.831   2.232   6.641
 1186TIP3    H125117   0.890   2.278   6.700
 1186TIP3    H225118   0.790   2.301   6.589
 1187TIP3   OH225119   3.539   4.963   7.469
 1187TIP3    H125120   3.575   5.012   7.543
 1187TIP3    H225121   3.617   4.936   7.419
 1188TIP3   OH225122   5.709   4.215   0.247
 1188TIP3    H125123   5.678   4.126   0.229
 1188TIP3    H225124   5.631   4.264   0.271
 1189TIP3   OH225125   3.381   3.070   7.233
 1189TIP3    H125126   3.438   3.145   7.218
 1189TIP3    H225127   3.368   3.069   7.328
 1190TIP3   OH225128   4.089   6.374   7.779
 1190TIP3    H125129   4.077   6.394   7.686
 1190TIP3    H225130   4.039   6.441   7.824
 1191TIP3   OH225131   4.169   6.159   1.502
 1191TIP3    H125132   4.184   6.066   1.485
 1191TIP3    H225133   4.086   6.162   1.548
 1192TIP3   OH225134   4.680   2.786   8.052
 1192TIP3    H125135   4.585   2.772   8.060
 1192TIP3    H225136   4.689   2.872   8.012
 1193TIP3   OH225137   0.068   4.651   1.702
 1193TIP3    H125138   0.038   4.570   1.742
 1193TIP3    H225139   0.126   4.691   1.767
 1194TIP3   OH225140   0.260   1.669   7.881
 1194TIP3    H125141   0.179   1.697   7.838
 1194TIP3    H225142   0.237   1.587   7.925
 1195TIP3   OH225143   0.896   1.986   0.728
 1195TIP3    H125144   0.917   1.986   0.635
 1195TIP3    H225145   0.881   1.894   0.750
 1196TIP3   OH225146   3.933   0.206   7.342
 1196TIP3    H125147   3.933   0.298   7.367
 1196TIP3    H225148   3.987   0.163   7.409
 1197TIP3   OH225149   1.591   1.210   7.385
 1197TIP3    H125150   1.685   1.216   7.397
 1197TIP3    H225151   1.556   1.193   7.473
 1198TIP3   OH225152   4.458   5.208   0.419
 1198TIP3    H125153   4.420   5.260   0.348
 1198TIP3    H225154   4.492   5.130   0.376
 1199TIP3   OH225155   5.772   4.374   6.659
 1199TIP3    H125156   5.846   4.435   6.657
 1199TIP3    H225157   5.777   4.328   6.575
 1200TIP3   OH225158   6.033   2.247   8.362
 1200TIP3    H125159   6.089   2.323   8.375
 1200TIP3    H225160   6.007   2.221   8.450
 1201TIP3   OH225161   4.859   2.223   0.358
 1201TIP3    H125162   4.795   2.206   0.427
 1201TIP3    H225163   4.934   2.168   0.381
 1202TIP3   OH225164   0.446   3.841   6.495
 1202TIP3    H125165   0.375   3.838   6.431
 1202TIP3    H225166   0.508   3.775   6.465
 1203TIP3   OH225167   5.199   6.409   8.366
 1203TIP3    H125168   5.165   6.479   8.310
 1203TIP3    H225169   5.280   6.383   8.324
 1204TIP3   OH225170   3.355   2.667   6.647
 1204TIP3    H125171   3.406   2.683   6.568
 1204TIP3    H225172   3.413   2.614   6.702
 1205TIP3   OH225173   4.331   6.004   7.744
 1205TIP3    H125174   4.351   5.946   7.670
 1205TIP3    H225175   4.371   5.960   7.820
 1206TIP3   OH225176   0.528   3.396   0.440
 1206TIP3    H125177   0.505   3.337   0.512
 1206TIP3    H225178   0.557   3.338   0.370
 1207TIP3   OH225179   3.109   6.836   0.328
 1207TIP3    H125180   3.158   6.774   0.275
 1207TIP3    H225181   3.131   6.813   0.419
 1208TIP3   OH225182   3.919   0.629   2.107
 1208TIP3    H125183   3.838   0.579   2.111
 1208TIP3    H225184   3.891   0.720   2.093
 1209TIP3   OH225185   1.911   2.156   2.368
 1209TIP3    H125186   1.910   2.062   2.349
 1209TIP3    H225187   1.883   2.162   2.459
 1210TIP3   OH225188   2.622   1.572   1.631
 1210TIP3    H125189   2.584   1.602   1.714
 1210TIP3    H225190   2.548   1.541   1.580
 1211TIP3   OH225191   2.212   6.003   1.639
 1211TIP3    H125192   2.137   5.972   1.689
 1211TIP3    H225193   2.179   6.079   1.591
 1212TIP3   OH225194   1.323   1.575   8.069
 1212TIP3    H125195   1.349   1.536   8.153
 1212TIP3    H225196   1.261   1.643   8.092
 1213TIP3   OH225197   2.001   1.943   7.804
 1213TIP3    H125198   2.011   1.993   7.886
 1213TIP3    H225199   2.020   2.007   7.735
 1214TIP3   OH225200   3.152   2.625   6.973
 1214TIP3    H125201   3.179   2.605   7.063
 1214TIP3    H225202   3.208   2.697   6.946
 1215TIP3   OH225203   1.856   1.717   7.767
 1215TIP3    H125204   1.902   1.801   7.775
 1215TIP3    H225205   1.783   1.723   7.828
 1216TIP3   OH225206   3.042   4.224   7.590
 1216TIP3    H125207   3.060   4.221   7.684
 1216TIP3    H225208   2.971   4.160   7.577
 1217TIP3   OH225209   1.400   4.050   8.405
 1217TIP3    H125210   1.485   4.030   8.444
 1217TIP3    H225211   1.421   4.087   8.319
 1218TIP3   OH225212   0.969   6.280   6.848
 1218TIP3    H125213   0.915   6.236   6.914
 1218TIP3    H225214   1.045   6.224   6.839
 1219TIP3   OH225215   3.302   6.444   1.840
 1219TIP3    H125216   3.362   6.370   1.840
 1219TIP3    H225217   3.260   6.442   1.925
 1220TIP3   OH225218   5.683   1.618   0.241
 1220TIP3    H125219   5.723   1.578   0.163
 1220TIP3    H225220   5.685   1.549   0.307
 1221TIP3   OH225221   6.538   1.517   0.197
 1221TIP3    H125222   6.494   1.523   0.113
 1221TIP3    H225223   6.571   1.606   0.214
 1222TIP3   OH225224   6.382   2.989   7.707
 1222TIP3    H125225   6.354   3.010   7.618
 1222TIP3    H225226   6.306   3.011   7.761
 1223TIP3   OH225227   4.964   5.560   7.591
 1223TIP3    H125228   4.922   5.475   7.606
 1223TIP3    H225229   4.942   5.581   7.500
 1224TIP3   OH225230   4.762   0.251   7.039
 1224TIP3    H125231   4.798   0.172   6.999
 1224TIP3    H225232   4.763   0.316   6.969
 1225TIP3   OH225233   0.251   1.976   0.675
 1225TIP3    H125234   0.228   2.065   0.647
 1225TIP3    H225235   0.335   1.958   0.632
 1226TIP3   OH225236   5.746   2.460   0.123
 1226TIP3    H125237   5.668   2.442   0.175
 1226TIP3    H225238   5.713   2.493   0.040
 1227TIP3   OH225239   6.785   6.831   0.803
 1227TIP3    H125240   6.773   6.756   0.861
 1227TIP3    H225241   6.863   6.810   0.752
 1228TIP3   OH225242   1.770   1.980   8.522
 1228TIP3    H125243   1.744   1.913   8.459
 1228TIP3    H225244   1.688   2.021   8.549
 1229TIP3   OH225245   3.120   3.120   8.201
 1229TIP3    H125246   3.126   3.045   8.260
 1229TIP3    H225247   3.199   3.113   8.146
 1230TIP3   OH225248   4.612   3.312   7.111
 1230TIP3    H125249   4.684   3.340   7.167
 1230TIP3    H225250   4.573   3.393   7.079
 1231TIP3   OH225251   3.841   3.207   7.435
 1231TIP3    H125252   3.934   3.223   7.447
 1231TIP3    H225253   3.802   3.294   7.426
 1232TIP3   OH225254   2.552   2.043   1.134
 1232TIP3    H125255   2.543   2.030   1.229
 1232TIP3    H225256   2.637   2.086   1.124
 1233TIP3   OH225257   6.709   5.292   6.514
 1233TIP3    H125258   6.795   5.328   6.492
 1233TIP3    H225259   6.724   5.199   6.528
 1234TIP3   OH225260   0.589   3.151   1.487
 1234TIP3    H125261   0.622   3.118   1.404
 1234TIP3    H225262   0.657   3.130   1.550
 1235TIP3   OH225263   4.377   4.791   0.413
 1235TIP3    H125264   4.341   4.765   0.328
 1235TIP3    H225265   4.438   4.862   0.393
 1236TIP3   OH225266   3.002   4.942   1.512
 1236TIP3    H125267   3.010   4.938   1.607
 1236TIP3    H225268   3.058   5.014   1.486
 1237TIP3   OH225269   2.714   5.785   1.310
 1237TIP3    H125270   2.782   5.736   1.356
 1237TIP3    H225271   2.633   5.766   1.358
 1238TIP3   OH225272   5.244   1.277   2.526
 1238TIP3    H125273   5.302   1.216   2.571
 1238TIP3    H225274   5.157   1.236   2.530
 1239TIP3   OH225275   6.381   6.263   0.995
 1239TIP3    H125276   6.376   6.233   1.086
 1239TIP3    H225277   6.313   6.215   0.950
 1240TIP3   OH225278   0.492   3.708   7.366
 1240TIP3    H125279   0.438   3.733   7.440
 1240TIP3    H225280   0.528   3.791   7.333
 1241TIP3   OH225281   5.105   5.504   0.932
 1241TIP3    H125282   5.119   5.570   0.999
 1241TIP3    H225283   5.010   5.502   0.919
 1242TIP3   OH225284   4.272   5.070   1.865
 1242TIP3    H125285   4.361   5.036   1.853
 1242TIP3    H225286   4.227   5.002   1.914
 1243TIP3   OH225287   3.451   3.932   1.843
 1243TIP3    H125288   3.450   4.026   1.860
 1243TIP3    H225289   3.420   3.892   1.925
 1244TIP3   OH225290   5.865   1.266   7.019
 1244TIP3    H125291   5.858   1.341   6.959
 1244TIP3    H225292   5.818   1.196   6.973
 1245TIP3   OH225293   5.844   2.399   6.941
 1245TIP3    H125294   5.910   2.462   6.972
 1245TIP3    H225295   5.770   2.453   6.914
 1246TIP3   OH225296   2.183   2.083   8.490
 1246TIP3    H125297   2.267   2.068   8.535
 1246TIP3    H225298   2.195   2.167   8.445
 1247TIP3   OH225299   5.918   3.025   0.029
 1247TIP3    H125300   5.954   2.974   0.102
 1247TIP3    H225301   5.828   2.996   0.021
 1248TIP3   OH225302   0.036   1.680   7.712
 1248TIP3    H125303   0.065   1.592   7.688
 1248TIP3    H225304   0.011   1.721   7.629
 1249TIP3   OH225305   2.833   1.912   8.012
 1249TIP3    H125306   2.781   1.831   8.010
 1249TIP3    H225307   2.767   1.982   8.019
 1250TIP3   OH225308   5.983   2.933   7.089
 1250TIP3    H125309   5.940   2.978   7.016
 1250TIP3    H225310   5.973   2.993   7.163
 1251TIP3   OH225311   3.951   0.935   6.817
 1251TIP3    H125312   4.040   0.959   6.844
 1251TIP3    H225313   3.895   0.996   6.864
 1252TIP3   OH225314   5.138   2.589   1.277
 1252TIP3    H125315   5.067   2.648   1.304
 1252TIP3    H225316   5.096   2.503   1.270
 1253TIP3   OH225317   0.238   1.791   8.588
 1253TIP3    H125318   0.262   1.704   8.555
 1253TIP3    H225319   0.216   1.841   8.510
 1254TIP3   OH225320   3.427   2.275   7.079
 1254TIP3    H125321   3.457   2.323   7.002
 1254TIP3    H225322   3.437   2.183   7.054
 1255TIP3   OH225323   0.529   0.306   7.193
 1255TIP3    H125324   0.564   0.230   7.239
 1255TIP3    H225325   0.585   0.315   7.116
 1256TIP3   OH225326   4.995   4.171   1.180
 1256TIP3    H125327   5.074   4.174   1.125
 1256TIP3    H225328   5.023   4.126   1.259
 1257TIP3   OH225329   4.103   4.351   1.360
 1257TIP3    H125330   4.089   4.329   1.268
 1257TIP3    H225331   4.169   4.289   1.390
 1258TIP3   OH225332   3.254   4.511   6.723
 1258TIP3    H125333   3.347   4.488   6.729
 1258TIP3    H225334   3.223   4.511   6.814
 1259TIP3   OH225335   0.598   2.524   1.696
 1259TIP3    H125336   0.644   2.454   1.649
 1259TIP3    H225337   0.535   2.558   1.633
 1260TIP3   OH225338   2.792   0.089   0.841
 1260TIP3    H125339   2.812   0.012   0.789
 1260TIP3    H225340   2.833   0.162   0.794
 1261TIP3   OH225341   4.745   2.220   6.641
 1261TIP3    H125342   4.717   2.139   6.599
 1261TIP3    H225343   4.672   2.281   6.626
 1262TIP3   OH225344   3.879   3.884   0.836
 1262TIP3    H125345   3.807   3.827   0.810
 1262TIP3    H225346   3.947   3.824   0.869
 1263TIP3   OH225347   2.577   0.499   6.861
 1263TIP3    H125348   2.531   0.503   6.777
 1263TIP3    H225349   2.646   0.434   6.847
 1264TIP3   OH225350   0.560   0.883   8.336
 1264TIP3    H125351   0.542   0.800   8.293
 1264TIP3    H225352   0.642   0.913   8.296
 1265TIP3   OH225353   6.342   4.945   0.292
 1265TIP3    H125354   6.382   4.982   0.213
 1265TIP3    H225355   6.313   5.020   0.342
 1266TIP3   OH225356   3.864   6.451   1.816
 1266TIP3    H125357   3.809   6.429   1.741
 1266TIP3    H225358   3.815   6.517   1.864
 1267TIP3   OH225359   0.245   3.608   8.239
 1267TIP3    H125360   0.177   3.675   8.234
 1267TIP3    H225361   0.228   3.563   8.322
 1268TIP3   OH225362   4.903   2.675   7.917
 1268TIP3    H125363   4.818   2.658   7.960
 1268TIP3    H225364   4.884   2.743   7.853
 1269TIP3   OH225365   3.955   0.549   6.605
 1269TIP3    H125366   4.042   0.514   6.584
 1269TIP3    H225367   3.907   0.474   6.639
 1270TIP3   OH225368   1.201   2.355   8.293
 1270TIP3    H125369   1.221   2.449   8.291
 1270TIP3    H225370   1.160   2.341   8.379
 1271TIP3   OH225371   6.665   0.403   2.372
 1271TIP3    H125372   6.723   0.329   2.356
 1271TIP3    H225373   6.589   0.365   2.417
 1272TIP3   OH225374   1.022   6.375   0.477
 1272TIP3    H125375   1.106   6.328   0.480
 1272TIP3    H225376   0.993   6.367   0.386
 1273TIP3   OH225377   3.655   0.313   6.582
 1273TIP3    H125378   3.650   0.307   6.677
 1273TIP3    H225379   3.726   0.254   6.557
 1274TIP3   OH225380   2.201   3.362   0.581
 1274TIP3    H125381   2.106   3.354   0.584
 1274TIP3    H225382   2.231   3.280   0.542
 1275TIP3   OH225383   5.909   0.942   8.392
 1275TIP3    H125384   5.818   0.971   8.394
 1275TIP3    H225385   5.907   0.861   8.339
 1276TIP3   OH225386   2.079   3.979   1.787
 1276TIP3    H125387   2.166   4.018   1.781
 1276TIP3    H225388   2.064   3.940   1.701
 1277TIP3   OH225389   5.643   5.866   1.424
 1277TIP3    H125390   5.622   5.773   1.416
 1277TIP3    H225391   5.632   5.886   1.517
 1278TIP3   OH225392   3.878   0.875   1.963
 1278TIP3    H125393   3.866   0.970   1.953
 1278TIP3    H225394   3.792   0.838   1.942
 1279TIP3   OH225395   1.503   6.545   8.389
 1279TIP3    H125396   1.413   6.513   8.386
 1279TIP3    H225397   1.557   6.469   8.369
 1280TIP3   OH225398   2.605   0.440   8.504
 1280TIP3    H125399   2.553   0.507   8.548
 1280TIP3    H225400   2.696   0.463   8.523
 1281TIP3   OH225401   4.474   3.395   0.388
 1281TIP3    H125402   4.510   3.322   0.338
 1281TIP3    H225403   4.526   3.398   0.468
 1282TIP3   OH225404   0.462   4.727   0.664
 1282TIP3    H125405   0.529   4.763   0.606
 1282TIP3    H225406   0.502   4.729   0.751
 1283TIP3   OH225407   5.900   3.034   2.658
 1283TIP3    H125408   5.961   2.976   2.614
 1283TIP3    H225409   5.815   2.990   2.650
 1284TIP3   OH225410   1.509   0.172   1.900
 1284TIP3    H125411   1.416   0.156   1.916
 1284TIP3    H225412   1.523   0.143   1.810
 1285TIP3   OH225413   3.689   1.506   0.980
 1285TIP3    H125414   3.687   1.598   1.003
 1285TIP3    H225415   3.682   1.460   1.064
 1286TIP3   OH225416   3.284   4.155   0.741
 1286TIP3    H125417   3.248   4.139   0.654
 1286TIP3    H225418   3.373   4.119   0.737
 1287TIP3   OH225419   4.949   6.603   0.945
 1287TIP3    H125420   4.940   6.550   0.866
 1287TIP3    H225421   4.865   6.648   0.953
 1288TIP3   OH225422   3.013   2.030   1.073
 1288TIP3    H125423   3.098   2.018   1.116
 1288TIP3    H225424   3.022   2.113   1.026
 1289TIP3   OH225425   4.049   2.832   2.244
 1289TIP3    H125426   4.139   2.823   2.212
 1289TIP3    H225427   4.016   2.911   2.201
 1290TIP3   OH225428   4.113   4.477   0.549
 1290TIP3    H125429   4.197   4.471   0.503
 1290TIP3    H225430   4.118   4.410   0.618
 1291TIP3   OH225431   0.750   6.326   0.863
 1291TIP3    H125432   0.736   6.274   0.784
 1291TIP3    H225433   0.827   6.380   0.842
 1292TIP3   OH225434   0.286   0.502   1.552
 1292TIP3    H125435   0.228   0.529   1.623
 1292TIP3    H225436   0.285   0.576   1.491
 1293TIP3   OH225437   2.205   1.285   0.975
 1293TIP3    H125438   2.241   1.260   1.059
 1293TIP3    H225439   2.249   1.367   0.953
 1294TIP3   OH225440   6.226   1.154   7.654
 1294TIP3    H125441   6.317   1.175   7.631
 1294TIP3    H225442   6.186   1.127   7.572
 1295TIP3   OH225443   3.856   6.453   0.075
 1295TIP3    H125444   3.891   6.376   0.121
 1295TIP3    H225445   3.925   6.478   0.015
 1296TIP3   OH225446   5.309   5.497   7.604
 1296TIP3    H125447   5.274   5.492   7.693
 1296TIP3    H225448   5.246   5.449   7.550
 1297TIP3   OH225449   1.350   0.094   7.622
 1297TIP3    H125450   1.260   0.122   7.604
 1297TIP3    H225451   1.401   0.131   7.550
 1298TIP3   OH225452   1.872   1.942   2.100
 1298TIP3    H125453   1.916   2.027   2.090
 1298TIP3    H225454   1.909   1.906   2.181
 1299TIP3   OH225455   4.042   0.254   8.422
 1299TIP3    H125456   4.076   0.342   8.409
 1299TIP3    H225457   3.949   0.261   8.400
 1300TIP3   OH225458   4.751   6.323   0.825
 1300TIP3    H125459   4.743   6.406   0.778
 1300TIP3    H225460   4.831   6.284   0.791
 1301TIP3   OH225461   5.660   0.152   0.092
 1301TIP3    H125462   5.690   0.074   0.046
 1301TIP3    H225463   5.671   0.223   0.029
 1302TIP3   OH225464   0.463   6.201   8.529
 1302TIP3    H125465   0.540   6.238   8.486
 1302TIP3    H225466   0.498   6.153   8.604
 1303TIP3   OH225467   3.386   0.880   7.255
 1303TIP3    H125468   3.334   0.938   7.310
 1303TIP3    H225469   3.347   0.888   7.168
 1304TIP3   OH225470   0.907   2.907   0.674
 1304TIP3    H125471   0.856   2.937   0.749
 1304TIP3    H225472   0.843   2.865   0.616
 1305TIP3   OH225473   2.799   5.286   6.895
 1305TIP3    H125474   2.803   5.328   6.809
 1305TIP3    H225475   2.874   5.226   6.896
 1306TIP3   OH225476   5.030   6.218   0.970
 1306TIP3    H125477   5.053   6.276   1.042
 1306TIP3    H225478   5.093   6.240   0.901
 1307TIP3   OH225479   3.273   0.061   8.299
 1307TIP3    H125480   3.355   0.027   8.335
 1307TIP3    H225481   3.212   0.060   8.372
 1308TIP3   OH225482   0.074   4.440   7.745
 1308TIP3    H125483   0.019   4.496   7.800
 1308TIP3    H225484   0.013   4.380   7.703
 1309TIP3   OH225485   6.067   3.770   0.257
 1309TIP3    H125486   5.991   3.717   0.234
 1309TIP3    H225487   6.031   3.843   0.307
 1310TIP3   OH225488   2.625   1.461   6.833
 1310TIP3    H125489   2.582   1.415   6.904
 1310TIP3    H225490   2.709   1.489   6.870
 1311TIP3   OH225491   3.808   0.082   8.019
 1311TIP3    H125492   3.857   6.886   8.017
 1311TIP3    H225493   3.818   0.118   7.931
 1312TIP3   OH225494   4.933   1.948   1.374
 1312TIP3    H125495   4.901   1.995   1.297
 1312TIP3    H225496   4.863   1.957   1.439
 1313TIP3   OH225497   4.009   0.945   0.645
 1313TIP3    H125498   3.987   0.896   0.566
 1313TIP3    H225499   3.996   0.882   0.716
 1314TIP3   OH225500   2.950   2.946   0.368
 1314TIP3    H125501   2.878   2.884   0.373
 1314TIP3    H225502   2.990   2.930   0.282
 1315TIP3   OH225503   1.986   0.158   1.115
 1315TIP3    H125504   2.049   0.159   1.187
 1315TIP3    H225505   1.984   0.067   1.086
 1316TIP3   OH225506   2.625   2.812   1.940
 1316TIP3    H125507   2.614   2.898   1.900
 1316TIP3    H225508   2.625   2.830   2.034
 1317TIP3   OH225509   3.253   1.866   0.043
 1317TIP3    H125510   3.240   1.777   0.011
 1317TIP3    H225511   3.193   1.919   8.652
 1318TIP3   OH225512   1.870   1.415   0.378
 1318TIP3    H125513   1.923   1.406   0.457
 1318TIP3    H225514   1.805   1.481   0.400
 1319TIP3   OH225515   3.930   6.710   7.471
 1319TIP3    H125516   3.939   6.800   7.502
 1319TIP3    H225517   4.017   6.672   7.480
 1320TIP3   OH225518   0.644   2.211   0.623
 1320TIP3    H125519   0.674   2.136   0.673
 1320TIP3    H225520   0.613   2.273   0.689
 1321TIP3   OH225521   3.231   6.647   0.181
 1321TIP3    H125522   3.218   6.562   0.138
 1321TIP3    H225523   3.322   6.645   0.210
 1322TIP3   OH225524   5.125   2.461   7.873
 1322TIP3    H125525   5.129   2.384   7.931
 1322TIP3    H225526   5.068   2.523   7.919
 1323TIP3   OH225527   0.714   1.952   7.729
 1323TIP3    H125528   0.638   1.910   7.768
 1323TIP3    H225529   0.701   1.942   7.635
 1324TIP3   OH225530   0.571   6.358   7.259
 1324TIP3    H125531   0.646   6.412   7.282
 1324TIP3    H225532   0.535   6.330   7.343
 1325TIP3   OH225533   3.915   6.749   1.596
 1325TIP3    H125534   3.958   6.677   1.549
 1325TIP3    H225535   3.986   6.796   1.638
 1326TIP3   OH225536   5.954   3.352   2.396
 1326TIP3    H125537   5.998   3.435   2.416
 1326TIP3    H225538   5.911   3.328   2.477
 1327TIP3   OH225539   6.725   2.429   8.529
 1327TIP3    H125540   6.713   2.362   8.462
 1327TIP3    H225541   6.688   2.509   8.490
 1328TIP3   OH225542   5.823   6.248   1.081
 1328TIP3    H125543   5.754   6.303   1.042
 1328TIP3    H225544   5.786   6.160   1.080
 1329TIP3   OH225545   6.153   1.411   7.760
 1329TIP3    H125546   6.065   1.400   7.724
 1329TIP3    H225547   6.198   1.329   7.741
 1330TIP3   OH225548   2.508   4.547   8.122
 1330TIP3    H125549   2.546   4.610   8.183
 1330TIP3    H225550   2.479   4.601   8.048
 1331TIP3   OH225551   4.934   3.945   7.946
 1331TIP3    H125552   4.868   3.890   7.988
 1331TIP3    H225553   4.993   3.884   7.902
 1332TIP3   OH225554   0.287   3.144   2.069
 1332TIP3    H125555   0.310   3.224   2.022
 1332TIP3    H225556   0.200   3.162   2.105
 1333TIP3   OH225557   3.178   1.686   7.669
 1333TIP3    H125558   3.097   1.638   7.686
 1333TIP3    H225559   3.210   1.651   7.586
 1334TIP3   OH225560   0.614   0.528   6.869
 1334TIP3    H125561   0.626   0.525   6.774
 1334TIP3    H225562   0.524   0.558   6.881
 1335TIP3   OH225563   6.790   4.459   1.472
 1335TIP3    H125564   6.812   4.406   1.549
 1335TIP3    H225565   6.701   4.434   1.450
 1336TIP3   OH225566   6.100   3.629   7.037
 1336TIP3    H125567   6.032   3.696   7.048
 1336TIP3    H225568   6.179   3.679   7.015
 1337TIP3   OH225569   3.682   1.898   2.081
 1337TIP3    H125570   3.641   1.920   2.165
 1337TIP3    H225571   3.754   1.840   2.105
 1338TIP3   OH225572   0.893   2.514   8.473
 1338TIP3    H125573   0.893   2.594   8.421
 1338TIP3    H225574   0.940   2.538   8.553
 1339TIP3   OH225575   4.090   2.282   2.329
 1339TIP3    H125576   4.103   2.358   2.386
 1339TIP3    H225577   4.152   2.295   2.257
 1340TIP3   OH225578   1.854   2.540   0.537
 1340TIP3    H125579   1.776   2.497   0.570
 1340TIP3    H225580   1.919   2.530   0.607
 1341TIP3   OH225581   4.654   4.912   7.178
 1341TIP3    H125582   4.578   4.888   7.231
 1341TIP3    H225583   4.674   4.833   7.128
 1342TIP3   OH225584   3.294   3.677   0.146
 1342TIP3    H125585   3.233   3.644   0.212
 1342TIP3    H225586   3.314   3.766   0.173
 1343TIP3   OH225587   1.034   5.456   0.364
 1343TIP3    H125588   1.128   5.449   0.347
 1343TIP3    H225589   1.005   5.528   0.309
 1344TIP3   OH225590   0.256   0.921   1.983
 1344TIP3    H125591   0.253   0.981   1.908
 1344TIP3    H225592   0.307   0.967   2.049
 1345TIP3   OH225593   4.573   6.571   1.329
 1345TIP3    H125594   4.615   6.525   1.402
 1345TIP3    H225595   4.556   6.501   1.265
 1346TIP3   OH225596   1.567   1.746   1.376
 1346TIP3    H125597   1.532   1.659   1.395
 1346TIP3    H225598   1.515   1.806   1.430
 1347TIP3   OH225599   6.135   1.426   0.801
 1347TIP3    H125600   6.111   1.501   0.854
 1347TIP3    H225601   6.106   1.448   0.712
 1348TIP3   OH225602   0.236   4.169   7.110
 1348TIP3    H125603   0.323   4.130   7.096
 1348TIP3    H225604   0.207   4.194   7.023
 1349TIP3   OH225605   2.118   1.356   1.616
 1349TIP3    H125606   2.070   1.417   1.673
 1349TIP3    H225607   2.130   1.404   1.535
 1350TIP3   OH225608   4.301   5.245   8.652
 1350TIP3    H125609   4.386   5.287   8.651
 1350TIP3    H225610   4.312   5.169   0.047
 1351TIP3   OH225611   1.872   4.801   6.638
 1351TIP3    H125612   1.879   4.706   6.645
 1351TIP3    H225613   1.791   4.816   6.590
 1352TIP3   OH225614   3.640   2.910   1.088
 1352TIP3    H125615   3.596   2.825   1.083
 1352TIP3    H225616   3.711   2.896   1.151
 1353TIP3   OH225617   4.621   1.097   8.295
 1353TIP3    H125618   4.531   1.073   8.318
 1353TIP3    H225619   4.647   1.160   8.361
 1354TIP3   OH225620   2.139   6.748   6.879
 1354TIP3    H125621   2.054   6.718   6.913
 1354TIP3    H225622   2.197   6.673   6.888
 1355TIP3   OH225623   6.265   1.960   6.616
 1355TIP3    H125624   6.263   1.955   6.711
 1355TIP3    H225625   6.358   1.967   6.594
 1356TIP3   OH225626   3.941   1.778   6.954
 1356TIP3    H125627   3.924   1.708   6.892
 1356TIP3    H225628   3.947   1.857   6.901
 1357TIP3   OH225629   4.497   3.923   1.915
 1357TIP3    H125630   4.475   3.882   1.832
 1357TIP3    H225631   4.570   3.982   1.895
 1358TIP3   OH225632   6.076   2.194   0.710
 1358TIP3    H125633   6.039   2.112   0.744
 1358TIP3    H225634   6.032   2.263   0.760
 1359TIP3   OH225635   3.453   4.769   8.566
 1359TIP3    H125636   3.408   4.727   8.639
 1359TIP3    H225637   3.437   4.863   8.578
 1360TIP3   OH225638   2.218   2.325   1.434
 1360TIP3    H125639   2.280   2.361   1.371
 1360TIP3    H225640   2.197   2.238   1.401
 1361TIP3   OH225641   3.508   5.315   7.482
 1361TIP3    H125642   3.547   5.280   7.402
 1361TIP3    H225643   3.495   5.408   7.463
 1362TIP3   OH225644   1.579   6.341   2.189
 1362TIP3    H125645   1.673   6.357   2.184
 1362TIP3    H225646   1.571   6.262   2.244
 1363TIP3   OH225647   5.332   4.775   1.216
 1363TIP3    H125648   5.356   4.732   1.134
 1363TIP3    H225649   5.326   4.868   1.193
 1364TIP3   OH225650   0.127   1.705   7.254
 1364TIP3    H125651   0.081   1.779   7.215
 1364TIP3    H225652   0.170   1.662   7.180
 1365TIP3   OH225653   2.560   0.386   7.865
 1365TIP3    H125654   2.639   0.385   7.919
 1365TIP3    H225655   2.493   0.346   7.920
 1366TIP3   OH225656   4.865   5.371   6.285
 1366TIP3    H125657   4.911   5.287   6.278
 1366TIP3    H225658   4.931   5.431   6.319
 1367TIP3   OH225659   1.445   4.294   7.529
 1367TIP3    H125660   1.504   4.366   7.551
 1367TIP3    H225661   1.402   4.322   7.449
 1368TIP3   OH225662   2.310   1.520   8.021
 1368TIP3    H125663   2.241   1.580   7.995
 1368TIP3    H225664   2.384   1.542   7.965
 1369TIP3   OH225665   0.774   0.293   0.800
 1369TIP3    H125666   0.838   0.354   0.837
 1369TIP3    H225667   0.690   0.338   0.807
 1370TIP3   OH225668   3.039   0.144   0.156
 1370TIP3    H125669   3.071   0.073   0.212
 1370TIP3    H225670   3.101   0.215   0.170
 1371TIP3   OH225671   6.426   4.009   6.528
 1371TIP3    H125672   6.406   3.916   6.535
 1371TIP3    H225673   6.368   4.051   6.592
 1372TIP3   OH225674   6.693   4.312   8.384
 1372TIP3    H125675   6.705   4.374   8.312
 1372TIP3    H225676   6.633   4.356   8.444
 1373TIP3   OH225677   2.734   5.446   0.216
 1373TIP3    H125678   2.794   5.439   0.290
 1373TIP3    H225679   2.792   5.455   0.140
 1374TIP3   OH225680   4.555   4.951   0.096
 1374TIP3    H125681   4.584   4.860   0.105
 1374TIP3    H225682   4.461   4.947   0.113
 1375TIP3   OH225683   3.306   0.171   6.863
 1375TIP3    H125684   3.391   0.176   6.907
 1375TIP3    H225685   3.250   0.123   6.923
 1376TIP3   OH225686   1.829   3.381   8.356
 1376TIP3    H125687   1.909   3.350   8.400
 1376TIP3    H225688   1.818   3.323   8.282
 1377TIP3   OH225689   0.281   1.916   2.191
 1377TIP3    H125690   0.268   1.841   2.134
 1377TIP3    H225691   0.361   1.896   2.239
 1378TIP3   OH225692   1.998   3.461   8.050
 1378TIP3    H125693   2.040   3.381   8.082
 1378TIP3    H225694   2.034   3.530   8.105
 1379TIP3   OH225695   1.754   1.446   0.666
 1379TIP3    H125696   1.846   1.435   0.641
 1379TIP3    H225697   1.705   1.400   0.598
 1380TIP3   OH225698   4.828   4.788   6.867
 1380TIP3    H125699   4.898   4.830   6.918
 1380TIP3    H225700   4.770   4.749   6.933
 1381TIP3   OH225701   0.429   2.318   8.391
 1381TIP3    H125702   0.454   2.277   8.474
 1381TIP3    H225703   0.511   2.322   8.341
 1382TIP3   OH225704   5.334   4.829   8.560
 1382TIP3    H125705   5.374   4.756   8.608
 1382TIP3    H225706   5.305   4.791   8.477
 1383TIP3   OH225707   6.781   6.229   7.337
 1383TIP3    H125708   6.824   6.144   7.348
 1383TIP3    H225709   6.837   6.278   7.278
 1384TIP3   OH225710   4.960   0.008   1.166
 1384TIP3    H125711   4.867   6.882   1.182
 1384TIP3    H225712   4.994   6.806   1.153
 1385TIP3   OH225713   0.935   5.296   7.810
 1385TIP3    H125714   0.891   5.363   7.863
 1385TIP3    H225715   1.024   5.293   7.845
 1386TIP3   OH225716   5.348   1.789   7.791
 1386TIP3    H125717   5.284   1.718   7.800
 1386TIP3    H225718   5.298   1.862   7.755
 1387TIP3   OH225719   3.955   3.349   8.494
 1387TIP3    H125720   3.898   3.287   8.540
 1387TIP3    H225721   3.976   3.416   8.559
 1388TIP3   OH225722   0.791   1.278   7.876
 1388TIP3    H125723   0.796   1.363   7.834
 1388TIP3    H225724   0.750   1.221   7.811
 1389TIP3   OH225725   3.013   4.945   0.476
 1389TIP3    H125726   3.096   4.958   0.522
 1389TIP3    H225727   3.028   4.984   0.389
 1390TIP3   OH225728   3.320   4.753   7.955
 1390TIP3    H125729   3.277   4.796   8.029
 1390TIP3    H225730   3.297   4.806   7.879
 1391TIP3   OH225731   4.895   3.334   7.378
 1391TIP3    H125732   4.973   3.355   7.430
 1391TIP3    H225733   4.859   3.419   7.353
 1392TIP3   OH225734   5.533   4.226   0.890
 1392TIP3    H125735   5.472   4.265   0.827
 1392TIP3    H225736   5.551   4.139   0.855
 1393TIP3   OH225737   4.675   5.878   1.521
 1393TIP3    H125738   4.597   5.850   1.568
 1393TIP3    H225739   4.735   5.803   1.526
 1394TIP3   OH225740   6.616   1.092   0.191
 1394TIP3    H125741   6.633   1.005   0.228
 1394TIP3    H225742   6.636   1.083   0.098
 1395TIP3   OH225743   6.371   1.786   1.237
 1395TIP3    H125744   6.463   1.793   1.262
 1395TIP3    H225745   6.333   1.727   1.301
 1396TIP3   OH225746   4.929   5.854   7.792
 1396TIP3    H125747   4.887   5.869   7.708
 1396TIP3    H225748   4.963   5.765   7.786
 1397TIP3   OH225749   2.724   4.689   7.385
 1397TIP3    H125750   2.725   4.614   7.445
 1397TIP3    H225751   2.775   4.756   7.429
 1398TIP3   OH225752   1.067   3.191   1.079
 1398TIP3    H125753   1.061   3.137   1.157
 1398TIP3    H225754   1.051   3.280   1.110
 1399TIP3   OH225755   4.194   0.790   6.748
 1399TIP3    H125756   4.279   0.750   6.727
 1399TIP3    H225757   4.212   0.884   6.751
 1400TIP3   OH225758   1.884   3.379   7.330
 1400TIP3    H125759   1.914   3.302   7.282
 1400TIP3    H225760   1.951   3.446   7.314
 1401TIP3   OH225761   2.486   6.672   0.242
 1401TIP3    H125762   2.539   6.602   0.205
 1401TIP3    H225763   2.504   6.669   0.336
 1402TIP3   OH225764   2.434   4.376   7.196
 1402TIP3    H125765   2.358   4.362   7.140
 1402TIP3    H225766   2.401   4.432   7.266
 1403TIP3   OH225767   4.538   6.200   0.651
 1403TIP3    H125768   4.512   6.180   0.741
 1403TIP3    H225769   4.631   6.219   0.657
 1404TIP3   OH225770   2.710   2.232   8.527
 1404TIP3    H125771   2.692   2.302   8.463
 1404TIP3    H225772   2.757   2.166   8.476
 1405TIP3   OH225773   2.481   5.505   1.170
 1405TIP3    H125774   2.449   5.501   1.260
 1405TIP3    H225775   2.460   5.594   1.141
 1406TIP3   OH225776   3.719   3.047   8.250
 1406TIP3    H125777   3.808   3.052   8.284
 1406TIP3    H225778   3.667   3.011   8.322
 1407TIP3   OH225779   3.101   5.287   0.576
 1407TIP3    H125780   3.020   5.331   0.548
 1407TIP3    H225781   3.074   5.233   0.650
 1408TIP3   OH225782   4.724   5.971   7.596
 1408TIP3    H125783   4.634   5.949   7.569
 1408TIP3    H225784   4.779   5.935   7.527
 1409TIP3   OH225785   5.356   0.499   8.642
 1409TIP3    H125786   5.275   0.457   8.610
 1409TIP3    H225787   5.413   0.426   0.003
 1410TIP3   OH225788   5.008   5.592   0.581
 1410TIP3    H125789   4.942   5.618   0.646
 1410TIP3    H225790   5.011   5.497   0.587
 1411TIP3   OH225791   0.360   4.434   7.792
 1411TIP3    H125792   0.380   4.388   7.874
 1411TIP3    H225793   0.265   4.432   7.786
 1412TIP3   OH225794   5.855   2.474   7.593
 1412TIP3    H125795   5.913   2.495   7.520
 1412TIP3    H225796   5.881   2.385   7.619
 1413TIP3   OH225797   5.766   3.245   0.077
 1413TIP3    H125798   5.812   3.310   0.130
 1413TIP3    H225799   5.836   3.195   0.035
 1414TIP3   OH225800   2.537   2.862   7.225
 1414TIP3    H125801   2.580   2.777   7.218
 1414TIP3    H225802   2.534   2.894   7.135
 1415TIP3   OH225803   0.924   1.102   8.152
 1415TIP3    H125804   0.892   1.013   8.167
 1415TIP3    H225805   0.992   1.091   8.086
 1416TIP3   OH225806   3.826   2.325   7.219
 1416TIP3    H125807   3.854   2.407   7.177
 1416TIP3    H225808   3.869   2.256   7.168
 1417TIP3   OH225809   2.758   5.222   6.457
 1417TIP3    H125810   2.813   5.277   6.401
 1417TIP3    H225811   2.672   5.264   6.453
 1418TIP3   OH225812   1.437   4.911   6.004
 1418TIP3    H125813   1.446   4.971   6.078
 1418TIP3    H225814   1.462   4.963   5.927
 1419TIP3   OH225815   3.387   6.870   6.428
 1419TIP3    H125816   3.353   0.022   6.348
 1419TIP3    H225817   3.398   6.777   6.407
 1420TIP3   OH225818   4.000   3.684   8.404
 1420TIP3    H125819   3.915   3.672   8.361
 1420TIP3    H225820   4.064   3.662   8.336
 1421TIP3   OH225821   6.192   2.252   7.130
 1421TIP3    H125822   6.153   2.218   7.210
 1421TIP3    H225823   6.149   2.336   7.116
 1422TIP3   OH225824   3.105   0.249   1.044
 1422TIP3    H125825   3.162   0.197   1.101
 1422TIP3    H225826   3.027   0.196   1.032
 1423TIP3   OH225827   4.484   5.075   1.511
 1423TIP3    H125828   4.415   5.139   1.496
 1423TIP3    H225829   4.565   5.124   1.499
 1424TIP3   OH225830   6.274   1.044   1.044
 1424TIP3    H125831   6.255   1.133   1.015
 1424TIP3    H225832   6.316   1.003   0.968
 1425TIP3   OH225833   1.093   5.512   1.949
 1425TIP3    H125834   1.165   5.552   1.997
 1425TIP3    H225835   1.021   5.509   2.013
 1426TIP3   OH225836   3.996   6.205   0.762
 1426TIP3    H125837   4.022   6.281   0.709
 1426TIP3    H225838   4.036   6.130   0.719
 1427TIP3   OH225839   6.356   5.794   1.752
 1427TIP3    H125840   6.403   5.822   1.673
 1427TIP3    H225841   6.327   5.705   1.732
 1428TIP3   OH225842   5.174   0.890   0.230
 1428TIP3    H125843   5.194   0.802   0.198
 1428TIP3    H225844   5.177   0.945   0.152
 1429TIP3   OH225845   6.831   6.339   6.484
 1429TIP3    H125846   6.751   6.330   6.430
 1429TIP3    H225847   6.804   6.397   6.555
 1430TIP3   OH225848   6.502   6.217   0.744
 1430TIP3    H125849   6.530   6.132   0.710
 1430TIP3    H225850   6.482   6.201   0.836
 1431TIP3   OH225851   0.322   3.546   1.738
 1431TIP3    H125852   0.381   3.599   1.791
 1431TIP3    H225853   0.380   3.497   1.680
 1432TIP3   OH225854   0.570   0.480   0.795
 1432TIP3    H125855   0.602   0.556   0.842
 1432TIP3    H225856   0.598   0.494   0.704
 1433TIP3   OH225857   5.609   1.564   7.855
 1433TIP3    H125858   5.620   1.501   7.926
 1433TIP3    H225859   5.522   1.601   7.868
 1434TIP3   OH225860   3.454   4.055   8.125
 1434TIP3    H125861   3.489   4.051   8.214
 1434TIP3    H225862   3.485   4.139   8.091
 1435TIP3   OH225863   2.368   0.264   7.013
 1435TIP3    H125864   2.331   0.313   7.087
 1435TIP3    H225865   2.462   0.279   7.020
 1436TIP3   OH225866   0.619   0.071   1.079
 1436TIP3    H125867   0.583   0.055   1.166
 1436TIP3    H225868   0.551   0.039   1.019
 1437TIP3   OH225869   2.116   5.466   6.138
 1437TIP3    H125870   2.029   5.484   6.174
 1437TIP3    H225871   2.114   5.504   6.051
 1438TIP3   OH225872   1.102   2.037   8.597
 1438TIP3    H125873   1.107   2.128   8.628
 1438TIP3    H225874   1.019   2.034   8.549
 1439TIP3   OH225875   3.126   1.127   0.130
 1439TIP3    H125876   3.083   1.212   0.137
 1439TIP3    H225877   3.219   1.147   0.134
 1440TIP3   OH225878   3.606   2.665   7.026
 1440TIP3    H125879   3.679   2.603   7.023
 1440TIP3    H225880   3.602   2.702   6.938
 1441TIP3   OH225881   6.533   0.326   0.898
 1441TIP3    H125882   6.601   0.391   0.878
 1441TIP3    H225883   6.520   0.333   0.993
 1442TIP3   OH225884   3.137   6.151   0.568
 1442TIP3    H125885   3.214   6.207   0.556
 1442TIP3    H225886   3.155   6.075   0.512
 1443TIP3   OH225887   0.161   5.356   7.867
 1443TIP3    H125888   0.099   5.375   7.938
 1443TIP3    H225889   0.137   5.417   7.798
 1444TIP3   OH225890   1.003   6.429   0.851
 1444TIP3    H125891   1.025   6.490   0.780
 1444TIP3    H225892   1.059   6.353   0.834
 1445TIP3   OH225893   0.319   6.226   8.282
 1445TIP3    H125894   0.255   6.294   8.304
 1445TIP3    H225895   0.388   6.235   8.348
 1446TIP3   OH225896   4.281   4.666   6.904
 1446TIP3    H125897   4.358   4.636   6.951
 1446TIP3    H225898   4.294   4.635   6.814
 1447TIP3   OH225899   3.159   3.264   1.778
 1447TIP3    H125900   3.242   3.296   1.742
 1447TIP3    H225901   3.162   3.290   1.870
 1448TIP3   OH225902   2.529   3.979   0.002
 1448TIP3    H125903   2.623   3.988   0.020
 1448TIP3    H225904   2.490   3.961   0.088
 1449TIP3   OH225905   4.856   5.975   7.115
 1449TIP3    H125906   4.888   6.057   7.154
 1449TIP3    H225907   4.783   6.001   7.060
 1450TIP3   OH225908   5.144   5.896   6.779
 1450TIP3    H125909   5.184   5.872   6.862
 1450TIP3    H225910   5.217   5.925   6.724
 1451TIP3   OH225911   1.866   0.787   1.658
 1451TIP3    H125912   1.929   0.791   1.731
 1451TIP3    H225913   1.869   0.875   1.620
 1452TIP3   OH225914   3.809   5.342   7.590
 1452TIP3    H125915   3.771   5.264   7.550
 1452TIP3    H225916   3.742   5.373   7.650
 1453TIP3   OH225917   6.661   2.046   0.024
 1453TIP3    H125918   6.636   1.999   8.606
 1453TIP3    H225919   6.752   2.072   0.009
 1454TIP3   OH225920   0.521   0.808   6.375
 1454TIP3    H125921   0.448   0.849   6.329
 1454TIP3    H225922   0.581   0.780   6.306
 1455TIP3   OH225923   5.215   0.380   2.362
 1455TIP3    H125924   5.208   0.356   2.455
 1455TIP3    H225925   5.169   0.310   2.316
 1456TIP3   OH225926   0.343   4.466   8.383
 1456TIP3    H125927   0.292   4.500   8.310
 1456TIP3    H225928   0.278   4.427   8.441
 1457TIP3   OH225929   6.556   2.483   0.107
 1457TIP3    H125930   6.611   2.479   0.029
 1457TIP3    H225931   6.567   2.397   0.148
 1458TIP3   OH225932   3.702   3.757   1.903
 1458TIP3    H125933   3.654   3.700   1.963
 1458TIP3    H225934   3.639   3.825   1.879
 1459TIP3   OH225935   0.768   3.133   8.233
 1459TIP3    H125936   0.705   3.072   8.195
 1459TIP3    H225937   0.850   3.115   8.187
 1460TIP3   OH225938   4.757   0.228   1.069
 1460TIP3    H125939   4.739   0.310   1.024
 1460TIP3    H225940   4.794   0.171   1.002
 1461TIP3   OH225941   3.794   2.846   7.654
 1461TIP3    H125942   3.832   2.759   7.641
 1461TIP3    H225943   3.749   2.841   7.738
 1462TIP3   OH225944   0.064   0.313   6.980
 1462TIP3    H125945   0.118   0.352   7.049
 1462TIP3    H225946   0.103   0.347   6.899
 1463TIP3   OH225947   0.458   4.923   6.188
 1463TIP3    H125948   0.479   4.877   6.269
 1463TIP3    H225949   0.362   4.921   6.184
 1464TIP3   OH225950   6.453   1.787   7.325
 1464TIP3    H125951   6.493   1.750   7.247
 1464TIP3    H225952   6.427   1.876   7.299
 1465TIP3   OH225953   0.347   0.606   6.939
 1465TIP3    H125954   0.326   0.685   6.989
 1465TIP3    H225955   0.313   0.535   6.993
 1466TIP3   OH225956   0.544   2.756   2.506
 1466TIP3    H125957   0.480   2.750   2.435
 1466TIP3    H225958   0.526   2.840   2.547
 1467TIP3   OH225959   0.215   6.697   6.440
 1467TIP3    H125960   0.159   6.656   6.374
 1467TIP3    H225961   0.158   6.760   6.483
 1468TIP3   OH225962   4.308   3.778   2.024
 1468TIP3    H125963   4.353   3.741   2.101
 1468TIP3    H225964   4.359   3.855   2.002
 1469TIP3   OH225965   3.346   0.714   2.075
 1469TIP3    H125966   3.382   0.639   2.028
 1469TIP3    H225967   3.421   0.755   2.117
 1470TIP3   OH225968   4.574   5.626   7.408
 1470TIP3    H125969   4.598   5.622   7.315
 1470TIP3    H225970   4.649   5.588   7.454
 1471TIP3   OH225971   0.695   1.869   0.277
 1471TIP3    H125972   0.634   1.921   0.225
 1471TIP3    H225973   0.672   1.778   0.258
 1472TIP3   OH225974   5.227   1.536   6.410
 1472TIP3    H125975   5.171   1.529   6.333
 1472TIP3    H225976   5.166   1.543   6.483
 1473TIP3   OH225977   3.389   5.946   7.766
 1473TIP3    H125978   3.364   6.011   7.832
 1473TIP3    H225979   3.312   5.890   7.758
 1474TIP3   OH225980   1.697   3.219   8.552
 1474TIP3    H125981   1.711   3.290   8.490
 1474TIP3    H225982   1.698   3.261   8.638
 1475TIP3   OH225983   2.763   5.826   7.581
 1475TIP3    H125984   2.757   5.902   7.639
 1475TIP3    H225985   2.733   5.858   7.496
 1476TIP3   OH225986   5.650   5.612   7.464
 1476TIP3    H125987   5.653   5.637   7.372
 1476TIP3    H225988   5.585   5.671   7.503
 1477TIP3   OH225989   4.014   0.655   0.388
 1477TIP3    H125990   3.970   0.650   0.473
 1477TIP3    H225991   3.956   0.710   0.335
 1478TIP3   OH225992   5.369   4.115   0.133
 1478TIP3    H125993   5.319   4.104   0.214
 1478TIP3    H225994   5.410   4.030   0.119
 1479TIP3   OH225995   5.177   6.116   8.042
 1479TIP3    H125996   5.152   6.205   8.015
 1479TIP3    H225997   5.272   6.122   8.057
 1480TIP3   OH225998   3.175   4.610   0.986
 1480TIP3    H125999   3.181   4.606   0.891
 1480TIP3    H226000   3.261   4.580   1.016
 1481TIP3   OH226001   0.445   1.615   0.777
 1481TIP3    H126002   0.534   1.615   0.811
 1481TIP3    H226003   0.430   1.524   0.750
 1482TIP3   OH226004   2.172   6.200   1.194
 1482TIP3    H126005   2.219   6.197   1.111
 1482TIP3    H226006   2.235   6.165   1.258
 1483TIP3   OH226007   5.533   4.314   6.833
 1483TIP3    H126008   5.557   4.261   6.757
 1483TIP3    H226009   5.586   4.393   6.825
 1484TIP3   OH226010   3.821   0.975   8.309
 1484TIP3    H126011   3.842   0.899   8.254
 1484TIP3    H226012   3.762   1.028   8.254
 1485TIP3   OH226013   4.888   6.356   2.025
 1485TIP3    H126014   4.884   6.353   2.121
 1485TIP3    H226015   4.912   6.447   2.005
 1486TIP3   OH226016   0.850   2.301   0.427
 1486TIP3    H126017   0.778   2.292   0.490
 1486TIP3    H226018   0.809   2.293   0.342
 1487TIP3   OH226019   1.046   3.982   6.238
 1487TIP3    H126020   1.094   4.060   6.210
 1487TIP3    H226021   1.082   3.961   6.324
 1488TIP3   OH226022   5.002   0.122   7.646
 1488TIP3    H126023   4.927   0.167   7.686
 1488TIP3    H226024   4.969   0.035   7.625
 1489TIP3   OH226025   0.489   1.053   1.574
 1489TIP3    H126026   0.546   1.093   1.639
 1489TIP3    H226027   0.524   1.081   1.490
 1490TIP3   OH226028   3.636   6.658   7.203
 1490TIP3    H126029   3.658   6.751   7.197
 1490TIP3    H226030   3.660   6.633   7.292
 1491TIP3   OH226031   2.847   4.091   7.870
 1491TIP3    H126032   2.879   4.073   7.959
 1491TIP3    H226033   2.786   4.020   7.852
 1492TIP3   OH226034   5.084   5.815   0.793
 1492TIP3    H126035   5.044   5.848   0.873
 1492TIP3    H226036   5.077   5.720   0.800
 1493TIP3   OH226037   0.870   6.015   2.088
 1493TIP3    H126038   0.933   5.943   2.083
 1493TIP3    H226039   0.923   6.093   2.102
 1494TIP3   OH226040   5.844   3.944   0.063
 1494TIP3    H126041   5.910   3.886   0.100
 1494TIP3    H226042   5.776   3.949   0.131
 1495TIP3   OH226043   0.780   1.908   1.121
 1495TIP3    H126044   0.707   1.873   1.071
 1495TIP3    H226045   0.856   1.856   1.094
 1496TIP3   OH226046   5.996   5.059   1.630
 1496TIP3    H126047   6.070   5.074   1.689
 1496TIP3    H226048   5.933   5.010   1.682
 1497TIP3   OH226049   2.510   1.184   1.350
 1497TIP3    H126050   2.552   1.097   1.353
 1497TIP3    H226051   2.426   1.171   1.393
 1498TIP3   OH226052   5.757   5.083   1.288
 1498TIP3    H126053   5.837   5.108   1.240
 1498TIP3    H226054   5.687   5.094   1.225
 1499TIP3   OH226055   6.092   0.862   6.629
 1499TIP3    H126056   6.039   0.942   6.633
 1499TIP3    H226057   6.028   0.791   6.630
 1500TIP3   OH226058   3.395   1.223   6.868
 1500TIP3    H126059   3.330   1.226   6.797
 1500TIP3    H226060   3.470   1.270   6.832
 1501TIP3   OH226061   6.333   3.890   1.544
 1501TIP3    H126062   6.376   3.932   1.618
 1501TIP3    H226063   6.249   3.934   1.536
 1502TIP3   OH226064   1.786   5.245   8.621
 1502TIP3    H126065   1.747   5.179   0.017
 1502TIP3    H226066   1.798   5.200   8.538
 1503TIP3   OH226067   3.435   5.571   7.282
 1503TIP3    H126068   3.497   5.532   7.220
 1503TIP3    H226069   3.489   5.629   7.336
 1504TIP3   OH226070   5.920   2.302   1.724
 1504TIP3    H126071   5.968   2.243   1.782
 1504TIP3    H226072   5.970   2.383   1.725
 1505TIP3   OH226073   2.566   6.647   2.080
 1505TIP3    H126074   2.554   6.556   2.110
 1505TIP3    H226075   2.563   6.699   2.160
 1506TIP3   OH226076   3.875   6.194   1.586
 1506TIP3    H126077   3.886   6.281   1.548
 1506TIP3    H226078   3.794   6.161   1.549
 1507TIP3   OH226079   6.462   5.148   7.585
 1507TIP3    H126080   6.467   5.187   7.673
 1507TIP3    H226081   6.387   5.190   7.544
 1508TIP3   OH226082   2.761   4.406   0.878
 1508TIP3    H126083   2.701   4.411   0.952
 1508TIP3    H226084   2.843   4.441   0.912
 1509TIP3   OH226085   4.109   5.475   7.259
 1509TIP3    H126086   4.201   5.497   7.241
 1509TIP3    H226087   4.110   5.380   7.272
 1510TIP3   OH226088   4.966   4.673   0.099
 1510TIP3    H126089   5.033   4.739   0.082
 1510TIP3    H226090   5.010   4.590   0.083
 1511TIP3   OH226091   4.122   4.634   8.062
 1511TIP3    H126092   4.119   4.728   8.075
 1511TIP3    H226093   4.039   4.613   8.019
 1512TIP3   OH226094   2.170   3.946   0.314
 1512TIP3    H126095   2.077   3.929   0.303
 1512TIP3    H226096   2.203   3.958   0.225
 1513TIP3   OH226097   6.142   1.503   1.718
 1513TIP3    H126098   6.176   1.512   1.807
 1513TIP3    H226099   6.217   1.474   1.666
 1514TIP3   OH226100   2.921   2.817   7.385
 1514TIP3    H126101   3.015   2.819   7.370
 1514TIP3    H226102   2.910   2.759   7.461
 1515TIP3   OH226103   1.119   1.317   0.810
 1515TIP3    H126104   1.203   1.272   0.807
 1515TIP3    H226105   1.056   1.252   0.780
 1516TIP3   OH226106   6.835   1.126   7.462
 1516TIP3    H126107   0.016   1.057   7.460
 1516TIP3    H226108   6.770   1.097   7.398
 1517TIP3   OH226109   4.920   5.957   0.061
 1517TIP3    H126110   4.923   6.036   0.007
 1517TIP3    H226111   4.828   5.947   0.084
 1518TIP3   OH226112   5.924   1.109   7.228
 1518TIP3    H126113   5.839   1.107   7.272
 1518TIP3    H226114   5.909   1.161   7.149
 1519TIP3   OH226115   2.459   5.635   1.683
 1519TIP3    H126116   2.394   5.632   1.613
 1519TIP3    H226117   2.504   5.551   1.677
 1520TIP3   OH226118   1.500   6.204   1.958
 1520TIP3    H126119   1.412   6.239   1.973
 1520TIP3    H226120   1.542   6.207   2.044
 1521TIP3   OH226121   0.767   0.342   2.466
 1521TIP3    H126122   0.820   0.263   2.455
 1521TIP3    H226123   0.782   0.392   2.386
 1522TIP3   OH226124   0.716   4.955   1.072
 1522TIP3    H126125   0.780   4.978   1.005
 1522TIP3    H226126   0.660   5.033   1.079
 1523TIP3   OH226127   5.743   0.464   1.064
 1523TIP3    H126128   5.731   0.552   1.026
 1523TIP3    H226129   5.764   0.480   1.155
 1524TIP3   OH226130   2.122   6.197   0.588
 1524TIP3    H126131   2.043   6.162   0.630
 1524TIP3    H226132   2.191   6.133   0.608
 1525TIP3   OH226133   6.637   2.203   1.810
 1525TIP3    H126134   6.565   2.174   1.753
 1525TIP3    H226135   6.594   2.226   1.892
 1526TIP3   OH226136   1.991   5.955   7.568
 1526TIP3    H126137   1.900   5.929   7.552
 1526TIP3    H226138   1.996   6.045   7.534
 1527TIP3   OH226139   0.436   5.884   8.470
 1527TIP3    H126140   0.519   5.870   8.424
 1527TIP3    H226141   0.459   5.938   8.545
 1528TIP3   OH226142   2.765   0.331   6.758
 1528TIP3    H126143   2.728   0.331   6.670
 1528TIP3    H226144   2.847   0.283   6.751
 1529TIP3   OH226145   0.005   3.255   7.456
 1529TIP3    H126146   0.089   3.212   7.436
 1529TIP3    H226147   6.859   3.286   7.372
 1530TIP3   OH226148   2.978   2.773   0.090
 1530TIP3    H126149   2.993   2.685   0.125
 1530TIP3    H226150   2.928   2.758   0.009
 1531TIP3   OH226151   4.179   4.916   7.008
 1531TIP3    H126152   4.249   4.981   7.009
 1531TIP3    H226153   4.219   4.837   6.970
 1532TIP3   OH226154   2.586   1.808   7.005
 1532TIP3    H126155   2.649   1.790   7.074
 1532TIP3    H226156   2.633   1.862   6.943
 1533TIP3   OH226157   4.358   1.862   6.949
 1533TIP3    H126158   4.297   1.816   6.891
 1533TIP3    H226159   4.430   1.889   6.891
 1534TIP3   OH226160   6.755   1.444   6.446
 1534TIP3    H126161   6.835   1.391   6.457
 1534TIP3    H226162   6.720   1.418   6.361
 1535TIP3   OH226163   2.462   0.904   7.861
 1535TIP3    H126164   2.533   0.931   7.803
 1535TIP3    H226165   2.504   0.895   7.947
 1536TIP3   OH226166   3.523   5.313   8.124
 1536TIP3    H126167   3.557   5.247   8.064
 1536TIP3    H226168   3.478   5.262   8.192
 1537TIP3   OH226169   6.121   0.459   1.748
 1537TIP3    H126170   6.097   0.530   1.808
 1537TIP3    H226171   6.201   0.490   1.705
 1538TIP3   OH226172   0.679   4.874   7.237
 1538TIP3    H126173   0.716   4.924   7.310
 1538TIP3    H226174   0.598   4.838   7.272
 1539TIP3   OH226175   0.061   3.031   8.061
 1539TIP3    H126176   6.880   2.965   8.042
 1539TIP3    H226177   0.054   3.046   8.155
 1540TIP3   OH226178   4.637   6.413   1.546
 1540TIP3    H126179   4.550   6.383   1.572
 1540TIP3    H226180   4.680   6.437   1.628
 1541TIP3   OH226181   3.805   1.613   1.531
 1541TIP3    H126182   3.878   1.659   1.572
 1541TIP3    H226183   3.778   1.548   1.596
 1542TIP3   OH226184   0.695   6.650   1.213
 1542TIP3    H126185   0.718   6.740   1.237
 1542TIP3    H226186   0.698   6.649   1.118
 1543TIP3   OH226187   4.265   4.100   1.606
 1543TIP3    H126188   4.230   4.125   1.520
 1543TIP3    H226189   4.247   4.006   1.612
 1544TIP3   OH226190   1.779   1.704   6.742
 1544TIP3    H126191   1.729   1.739   6.668
 1544TIP3    H226192   1.841   1.643   6.702
 1545TIP3   OH226193   2.721   1.873   7.727
 1545TIP3    H126194   2.629   1.849   7.740
 1545TIP3    H226195   2.768   1.825   7.795
 1546TIP3   OH226196   3.655   1.647   0.575
 1546TIP3    H126197   3.700   1.613   0.498
 1546TIP3    H226198   3.712   1.717   0.607
 1547TIP3   OH226199   6.006   5.678   8.353
 1547TIP3    H126200   6.036   5.759   8.312
 1547TIP3    H226201   5.970   5.705   8.437
 1548TIP3   OH226202   6.423   1.801   8.101
 1548TIP3    H126203   6.471   1.862   8.045
 1548TIP3    H226204   6.331   1.827   8.092
 1549TIP3   OH226205   2.921   4.233   6.597
 1549TIP3    H126206   2.826   4.231   6.583
 1549TIP3    H226207   2.949   4.319   6.565
 1550TIP3   OH226208   5.054   6.090   8.300
 1550TIP3    H126209   5.073   6.107   8.208
 1550TIP3    H226210   5.118   6.024   8.326
 1551TIP3   OH226211   4.196   4.739   0.616
 1551TIP3    H126212   4.163   4.652   0.595
 1551TIP3    H226213   4.259   4.758   0.547
 1552TIP3   OH226214   0.370   0.924   7.597
 1552TIP3    H126215   0.398   0.843   7.556
 1552TIP3    H226216   0.450   0.973   7.612
 1553TIP3   OH226217   4.244   2.635   1.762
 1553TIP3    H126218   4.218   2.563   1.704
 1553TIP3    H226219   4.191   2.709   1.732
 1554TIP3   OH226220   4.386   1.469   7.749
 1554TIP3    H126221   4.434   1.410   7.690
 1554TIP3    H226222   4.402   1.556   7.713
 1555TIP3   OH226223   0.306   1.111   6.484
 1555TIP3    H126224   0.371   1.178   6.465
 1555TIP3    H226225   0.352   1.028   6.469
 1556TIP3   OH226226   3.338   4.454   0.455
 1556TIP3    H126227   3.259   4.508   0.444
 1556TIP3    H226228   3.363   4.466   0.546
 1557TIP3   OH226229   4.003   3.028   8.305
 1557TIP3    H126230   4.074   3.079   8.343
 1557TIP3    H226231   4.045   2.951   8.267
 1558TIP3   OH226232   4.582   4.146   0.436
 1558TIP3    H126233   4.512   4.103   0.484
 1558TIP3    H226234   4.641   4.075   0.410
 1559TIP3   OH226235   2.734   1.702   0.825
 1559TIP3    H126236   2.777   1.617   0.833
 1559TIP3    H226237   2.659   1.685   0.768
 1560TIP3   OH226238   4.861   5.684   8.301
 1560TIP3    H126239   4.952   5.655   8.291
 1560TIP3    H226240   4.868   5.778   8.320
 1561TIP3   OH226241   6.841   1.774   7.431
 1561TIP3    H126242   0.033   1.738   7.388
 1561TIP3    H226243   6.836   1.864   7.400
 1562TIP3   OH226244   2.967   1.865   2.196
 1562TIP3    H126245   3.026   1.925   2.152
 1562TIP3    H226246   3.020   1.787   2.213
 1563TIP3   OH226247   6.315   1.774   0.742
 1563TIP3    H126248   6.396   1.814   0.711
 1563TIP3    H226249   6.318   1.783   0.837
 1564TIP3   OH226250   3.836   3.756   0.467
 1564TIP3    H126251   3.924   3.795   0.467
 1564TIP3    H226252   3.799   3.781   0.551
 1565TIP3   OH226253   2.605   3.963   1.434
 1565TIP3    H126254   2.610   4.027   1.363
 1565TIP3    H226255   2.572   3.883   1.393
 1566TIP3   OH226256   3.774   3.345   7.039
 1566TIP3    H126257   3.741   3.324   7.127
 1566TIP3    H226258   3.844   3.281   7.024
 1567TIP3   OH226259   3.962   0.758   7.713
 1567TIP3    H126260   3.904   0.812   7.766
 1567TIP3    H226261   3.991   0.688   7.772
 1568TIP3   OH226262   5.124   5.833   7.419
 1568TIP3    H126263   5.208   5.837   7.464
 1568TIP3    H226264   5.124   5.748   7.375
 1569TIP3   OH226265   0.884   5.114   8.366
 1569TIP3    H126266   0.859   5.022   8.355
 1569TIP3    H226267   0.869   5.132   8.458
 1570TIP3   OH226268   2.507   5.054   0.764
 1570TIP3    H126269   2.514   5.014   0.851
 1570TIP3    H226270   2.526   4.983   0.703
 1571TIP3   OH226271   5.820   5.449   8.411
 1571TIP3    H126272   5.780   5.498   8.482
 1571TIP3    H226273   5.912   5.440   8.436
 1572TIP3   OH226274   1.236   6.428   8.366
 1572TIP3    H126275   1.196   6.341   8.360
 1572TIP3    H226276   1.170   6.482   8.410
 1573TIP3   OH226277   6.338   5.526   0.288
 1573TIP3    H126278   6.412   5.582   0.310
 1573TIP3    H226279   6.357   5.443   0.330
 1574TIP3   OH226280   6.364   4.351   7.664
 1574TIP3    H126281   6.335   4.441   7.680
 1574TIP3    H226282   6.290   4.310   7.618
 1575TIP3   OH226283   3.130   3.284   7.002
 1575TIP3    H126284   3.051   3.259   7.050
 1575TIP3    H226285   3.111   3.263   6.911
 1576TIP3   OH226286   3.845   5.653   7.831
 1576TIP3    H126287   3.829   5.635   7.924
 1576TIP3    H226288   3.765   5.695   7.801
 1577TIP3   OH226289   5.982   6.619   1.623
 1577TIP3    H126290   5.960   6.527   1.607
 1577TIP3    H226291   6.030   6.617   1.705
 1578TIP3   OH226292   5.917   4.798   0.965
 1578TIP3    H126293   5.984   4.841   0.911
 1578TIP3    H226294   5.917   4.707   0.935
 1579TIP3   OH226295   2.073   2.777   1.168
 1579TIP3    H126296   2.027   2.860   1.155
 1579TIP3    H226297   2.029   2.737   1.243
 1580TIP3   OH226298   3.239   5.956   0.387
 1580TIP3    H126299   3.299   5.973   0.315
 1580TIP3    H226300   3.293   5.913   0.453
 1581TIP3   OH226301   5.458   5.123   0.582
 1581TIP3    H126302   5.426   5.122   0.492
 1581TIP3    H226303   5.542   5.077   0.579
 1582TIP3   OH226304   5.795   2.094   6.650
 1582TIP3    H126305   5.741   2.169   6.625
 1582TIP3    H226306   5.792   2.036   6.573
 1583TIP3   OH226307   0.861   6.242   7.474
 1583TIP3    H126308   0.838   6.279   7.559
 1583TIP3    H226309   0.927   6.176   7.494
 1584TIP3   OH226310   3.637   3.838   0.317
 1584TIP3    H126311   3.704   3.781   0.355
 1584TIP3    H226312   3.686   3.900   0.263
 1585TIP3   OH226313   6.348   5.788   0.809
 1585TIP3    H126314   6.343   5.694   0.825
 1585TIP3    H226315   6.349   5.828   0.896
 1586TIP3   OH226316   2.253   5.621   1.501
 1586TIP3    H126317   2.171   5.669   1.509
 1586TIP3    H226318   2.231   5.542   1.453
 1587TIP3   OH226319   1.702   2.713   1.109
 1587TIP3    H126320   1.690   2.805   1.131
 1587TIP3    H226321   1.731   2.671   1.190
 1588TIP3   OH226322   5.995   4.299   0.388
 1588TIP3    H126323   6.027   4.389   0.381
 1588TIP3    H226324   6.012   4.274   0.479
 1589TIP3   OH226325   4.763   1.622   2.128
 1589TIP3    H126326   4.820   1.572   2.187
 1589TIP3    H226327   4.737   1.558   2.061
 1590TIP3   OH226328   0.199   3.270   0.390
 1590TIP3    H126329   0.125   3.214   0.416
 1590TIP3    H226330   0.272   3.240   0.444
 1591TIP3   OH226331   6.382   0.493   6.820
 1591TIP3    H126332   6.433   0.418   6.789
 1591TIP3    H226333   6.377   0.552   6.744
 1592TIP3   OH226334   2.326   0.788   7.647
 1592TIP3    H126335   2.394   0.789   7.714
 1592TIP3    H226336   2.320   0.879   7.618
 1593TIP3   OH226337   2.770   2.371   0.760
 1593TIP3    H126338   2.726   2.289   0.736
 1593TIP3    H226339   2.719   2.440   0.718
 1594TIP3   OH226340   3.694   3.682   1.570
 1594TIP3    H126341   3.779   3.661   1.610
 1594TIP3    H226342   3.677   3.608   1.512
 1595TIP3   OH226343   3.114   1.643   2.250
 1595TIP3    H126344   3.200   1.672   2.219
 1595TIP3    H226345   3.124   1.638   2.345
 1596TIP3   OH226346   6.815   1.856   7.914
 1596TIP3    H126347   6.846   1.791   7.851
 1596TIP3    H226348   6.776   1.925   7.859
 1597TIP3   OH226349   6.311   3.468   8.049
 1597TIP3    H126350   6.309   3.416   7.969
 1597TIP3    H226351   6.329   3.557   8.019
 1598TIP3   OH226352   3.047   1.076   8.246
 1598TIP3    H126353   3.051   1.122   8.329
 1598TIP3    H226354   2.962   1.031   8.248
 1599TIP3   OH226355   5.561   1.671   0.639
 1599TIP3    H126356   5.508   1.661   0.560
 1599TIP3    H226357   5.625   1.739   0.617
 1600TIP3   OH226358   6.077   6.723   1.106
 1600TIP3    H126359   5.989   6.688   1.092
 1600TIP3    H226360   6.125   6.700   1.027
 1601TIP3   OH226361   2.818   5.640   6.869
 1601TIP3    H126362   2.753   5.707   6.848
 1601TIP3    H226363   2.881   5.644   6.798
 1602TIP3   OH226364   4.041   3.783   6.534
 1602TIP3    H126365   3.975   3.726   6.495
 1602TIP3    H226366   4.117   3.776   6.477
 1603TIP3   OH226367   1.881   5.416   2.308
 1603TIP3    H126368   1.815   5.349   2.293
 1603TIP3    H226369   1.851   5.491   2.256
 1604TIP3   OH226370   3.696   0.971   0.719
 1604TIP3    H126371   3.640   0.957   0.796
 1604TIP3    H226372   3.742   1.053   0.738
 1605TIP3   OH226373   2.597   3.253   6.674
 1605TIP3    H126374   2.545   3.328   6.645
 1605TIP3    H226375   2.571   3.182   6.614
 1606TIP3   OH226376   2.059   5.024   1.978
 1606TIP3    H126377   2.019   5.109   1.997
 1606TIP3    H226378   2.013   4.962   2.035
 1607TIP3   OH226379   6.802   5.615   1.579
 1607TIP3    H126380   6.850   5.591   1.659
 1607TIP3    H226381   6.712   5.586   1.596
 1608TIP3   OH226382   0.038   6.627   0.599
 1608TIP3    H126383   6.879   6.679   0.533
 1608TIP3    H226384   6.854   6.588   0.652
 1609TIP3   OH226385   3.286   5.600   6.827
 1609TIP3    H126386   3.228   5.532   6.860
 1609TIP3    H226387   3.266   5.606   6.734
 1610TIP3   OH226388   0.794   2.263   0.997
 1610TIP3    H126389   0.751   2.188   0.955
 1610TIP3    H226390   0.882   2.264   0.958
 1611TIP3   OH226391   0.282   0.172   8.515
 1611TIP3    H126392   0.308   0.262   8.537
 1611TIP3    H226393   0.190   0.180   8.487
 1612TIP3   OH226394   5.230   5.888   8.348
 1612TIP3    H126395   5.210   5.803   8.388
 1612TIP3    H226396   5.325   5.885   8.333
 1613TIP3   OH226397   5.169   4.453   0.048
 1613TIP3    H126398   5.138   4.363   0.058
 1613TIP3    H226399   5.134   4.481   8.626
 1614TIP3   OH226400   6.360   0.611   0.431
 1614TIP3    H126401   6.295   0.641   0.368
 1614TIP3    H226402   6.398   0.690   0.467
 1615TIP3   OH226403   5.565   3.156   7.842
 1615TIP3    H126404   5.613   3.166   7.760
 1615TIP3    H226405   5.563   3.061   7.857
 1616TIP3   OH226406   1.319   1.133   0.779
 1616TIP3    H126407   1.388   1.078   0.817
 1616TIP3    H226408   1.277   1.078   0.714
 1617TIP3   OH226409   1.405   4.226   8.647
 1617TIP3    H126410   1.478   4.279   8.615
 1617TIP3    H226411   1.391   4.161   8.578
 1618TIP3   OH226412   5.938   3.026   2.351
 1618TIP3    H126413   5.870   3.046   2.415
 1618TIP3    H226414   5.984   2.951   2.389
 1619TIP3   OH226415   0.888   5.977   1.213
 1619TIP3    H126416   0.879   6.035   1.137
 1619TIP3    H226417   0.836   6.019   1.282
 1620TIP3   OH226418   2.076   4.174   7.432
 1620TIP3    H126419   1.985   4.147   7.425
 1620TIP3    H226420   2.116   4.143   7.351
 1621TIP3   OH226421   6.837   5.804   0.198
 1621TIP3    H126422   6.767   5.869   0.189
 1621TIP3    H226423   0.021   5.837   0.141
 1622TIP3   OH226424   3.022   6.146   7.612
 1622TIP3    H126425   3.009   6.169   7.704
 1622TIP3    H226426   3.113   6.118   7.607
 1623TIP3   OH226427   4.245   6.438   1.338
 1623TIP3    H126428   4.317   6.377   1.322
 1623TIP3    H226429   4.166   6.385   1.330
 1624TIP3   OH226430   4.680   4.610   0.791
 1624TIP3    H126431   4.758   4.620   0.736
 1624TIP3    H226432   4.702   4.655   0.872
 1625TIP3   OH226433   0.464   6.486   7.042
 1625TIP3    H126434   0.515   6.467   6.963
 1625TIP3    H226435   0.494   6.421   7.105
 1626TIP3   OH226436   3.279   5.218   7.403
 1626TIP3    H126437   3.289   5.147   7.466
 1626TIP3    H226438   3.367   5.252   7.390
 1627TIP3   OH226439   0.313   2.885   6.731
 1627TIP3    H126440   0.247   2.926   6.675
 1627TIP3    H226441   0.384   2.949   6.734
 1628TIP3   OH226442   5.812   4.886   1.720
 1628TIP3    H126443   5.795   4.854   1.632
 1628TIP3    H226444   5.736   4.858   1.771
 1629TIP3   OH226445   3.060   0.287   8.114
 1629TIP3    H126446   3.104   0.337   8.183
 1629TIP3    H226447   2.991   0.239   8.160
 1630TIP3   OH226448   6.547   3.310   0.081
 1630TIP3    H126449   6.581   3.290   8.656
 1630TIP3    H226450   6.623   3.302   0.139
 1631TIP3   OH226451   3.640   6.582   0.992
 1631TIP3    H126452   3.689   6.622   1.064
 1631TIP3    H226453   3.578   6.650   0.964
 1632TIP3   OH226454   5.824   5.308   6.989
 1632TIP3    H126455   5.889   5.238   6.994
 1632TIP3    H226456   5.742   5.263   6.971
 1633TIP3   OH226457   6.198   4.485   6.929
 1633TIP3    H126458   6.135   4.543   6.972
 1633TIP3    H226459   6.145   4.417   6.888
 1634TIP3   OH226460   5.242   3.136   6.132
 1634TIP3    H126461   5.336   3.154   6.137
 1634TIP3    H226462   5.230   3.060   6.189
 1635TIP3   OH226463   6.870   6.657   7.275
 1635TIP3    H126464   6.791   6.607   7.294
 1635TIP3    H226465   6.863   6.679   7.182
 1636TIP3   OH226466   2.495   2.716   8.160
 1636TIP3    H126467   2.400   2.705   8.157
 1636TIP3    H226468   2.527   2.677   8.079
 1637TIP3   OH226469   2.413   4.371   0.571
 1637TIP3    H126470   2.339   4.425   0.545
 1637TIP3    H226471   2.381   4.281   0.565
 1638TIP3   OH226472   1.132   3.907   1.166
 1638TIP3    H126473   1.174   3.987   1.135
 1638TIP3    H226474   1.097   3.930   1.252
 1639TIP3   OH226475   2.992   1.622   0.333
 1639TIP3    H126476   2.978   1.705   0.290
 1639TIP3    H226477   2.928   1.621   0.405
 1640TIP3   OH226478   1.359   0.502   0.428
 1640TIP3    H126479   1.347   0.564   0.355
 1640TIP3    H226480   1.453   0.483   0.427
 1641TIP3   OH226481   3.665   3.755   0.710
 1641TIP3    H126482   3.638   3.665   0.727
 1641TIP3    H226483   3.583   3.803   0.699
 1642TIP3   OH226484   5.222   5.232   0.997
 1642TIP3    H126485   5.217   5.327   0.994
 1642TIP3    H226486   5.158   5.202   0.932
 1643TIP3   OH226487   0.596   4.906   1.433
 1643TIP3    H126488   0.657   4.927   1.505
 1643TIP3    H226489   0.582   4.990   1.389
 1644TIP3   OH226490   5.617   3.526   1.667
 1644TIP3    H126491   5.678   3.598   1.655
 1644TIP3    H226492   5.574   3.543   1.751
 1645TIP3   OH226493   5.282   0.552   7.609
 1645TIP3    H126494   5.226   0.476   7.594
 1645TIP3    H226495   5.233   0.625   7.571
 1646TIP3   OH226496   4.571   3.330   7.911
 1646TIP3    H126497   4.477   3.347   7.915
 1646TIP3    H226498   4.579   3.236   7.896
 1647TIP3   OH226499   4.003   4.004   7.069
 1647TIP3    H126500   4.006   3.917   7.108
 1647TIP3    H226501   4.067   4.055   7.119
 1648TIP3   OH226502   2.080   6.586   7.778
 1648TIP3    H126503   2.112   6.538   7.854
 1648TIP3    H226504   2.063   6.518   7.713
 1649TIP3   OH226505   4.339   4.615   7.847
 1649TIP3    H126506   4.293   4.670   7.784
 1649TIP3    H226507   4.298   4.636   7.931
 1650TIP3   OH226508   6.509   3.892   8.552
 1650TIP3    H126509   6.457   3.971   8.567
 1650TIP3    H226510   6.516   3.885   8.457
 1651TIP3   OH226511   6.545   4.678   7.174
 1651TIP3    H126512   6.467   4.700   7.224
 1651TIP3    H226513   6.516   4.612   7.111
 1652TIP3   OH226514   6.150   6.141   7.150
 1652TIP3    H126515   6.186   6.112   7.066
 1652TIP3    H226516   6.225   6.176   7.198
 1653TIP3   OH226517   0.908   4.896   7.078
 1653TIP3    H126518   0.911   4.835   7.005
 1653TIP3    H226519   0.820   4.888   7.114
 1654TIP3   OH226520   5.397   4.515   8.047
 1654TIP3    H126521   5.340   4.439   8.045
 1654TIP3    H226522   5.350   4.579   8.102
 1655TIP3   OH226523   1.298   4.120   6.215
 1655TIP3    H126524   1.372   4.111   6.274
 1655TIP3    H226525   1.311   4.053   6.148
 1656TIP3   OH226526   4.005   5.479   2.317
 1656TIP3    H126527   3.930   5.441   2.271
 1656TIP3    H226528   4.003   5.572   2.294
 1657TIP3   OH226529   1.926   1.003   2.152
 1657TIP3    H126530   1.883   0.928   2.193
 1657TIP3    H226531   1.996   1.026   2.212
 1658TIP3   OH226532   4.645   1.439   8.129
 1658TIP3    H126533   4.576   1.380   8.100
 1658TIP3    H226534   4.621   1.524   8.092
 1659TIP3   OH226535   4.529   2.633   0.736
 1659TIP3    H126536   4.444   2.670   0.758
 1659TIP3    H226537   4.589   2.708   0.743
 1660TIP3   OH226538   3.048   3.373   8.258
 1660TIP3    H126539   2.970   3.371   8.204
 1660TIP3    H226540   3.091   3.289   8.241
 1661TIP3   OH226541   3.300   0.007   7.326
 1661TIP3    H126542   3.364   0.072   7.297
 1661TIP3    H226543   3.260   0.046   7.404
 1662TIP3   OH226544   6.516   2.424   1.609
 1662TIP3    H126545   6.465   2.382   1.540
 1662TIP3    H226546   6.549   2.352   1.663
 1663TIP3   OH226547   2.417   6.632   8.610
 1663TIP3    H126548   2.337   6.596   8.572
 1663TIP3    H226549   2.481   6.560   8.604
 1664TIP3   OH226550   4.096   4.670   1.541
 1664TIP3    H126551   4.103   4.609   1.614
 1664TIP3    H226552   4.176   4.656   1.490
 1665TIP3   OH226553   0.060   4.702   0.189
 1665TIP3    H126554   0.097   4.756   0.119
 1665TIP3    H226555   0.099   4.615   0.176
 1666TIP3   OH226556   6.347   5.425   0.577
 1666TIP3    H126557   6.425   5.450   0.528
 1666TIP3    H226558   6.361   5.461   0.664
 1667TIP3   OH226559   5.973   2.277   8.077
 1667TIP3    H126560   5.891   2.313   8.110
 1667TIP3    H226561   6.012   2.232   8.152
 1668TIP3   OH226562   0.324   0.435   8.548
 1668TIP3    H126563   0.286   0.464   8.466
 1668TIP3    H226564   0.285   0.492   8.614
 1669TIP3   OH226565   2.655   4.660   6.509
 1669TIP3    H126566   2.574   4.626   6.547
 1669TIP3    H226567   2.626   4.711   6.433
 1670TIP3   OH226568   5.129   2.015   7.969
 1670TIP3    H126569   5.122   1.934   8.020
 1670TIP3    H226570   5.218   2.046   7.985
 1671TIP3   OH226571   2.170   6.305   7.423
 1671TIP3    H126572   2.264   6.314   7.402
 1671TIP3    H226573   2.135   6.394   7.414
 1672TIP3   OH226574   4.955   1.704   7.879
 1672TIP3    H126575   4.924   1.763   7.947
 1672TIP3    H226576   4.971   1.760   7.803
 1673TIP3   OH226577   6.438   0.078   1.297
 1673TIP3    H126578   6.352   0.086   1.255
 1673TIP3    H226579   6.492   0.032   1.233
 1674TIP3   OH226580   4.481   2.384   8.636
 1674TIP3    H126581   4.492   2.328   8.560
 1674TIP3    H226582   4.469   2.324   0.047
 1675TIP3   OH226583   1.332   1.861   1.474
 1675TIP3    H126584   1.269   1.930   1.491
 1675TIP3    H226585   1.279   1.787   1.444
 1676TIP3   OH226586   3.739   5.769   6.853
 1676TIP3    H126587   3.753   5.838   6.789
 1676TIP3    H226588   3.645   5.773   6.872
 1677TIP3   OH226589   5.365   3.858   7.769
 1677TIP3    H126590   5.284   3.836   7.814
 1677TIP3    H226591   5.433   3.846   7.836
 1678TIP3   OH226592   0.749   3.074   6.295
 1678TIP3    H126593   0.749   3.167   6.314
 1678TIP3    H226594   0.686   3.036   6.356
 1679TIP3   OH226595   5.390   3.566   0.186
 1679TIP3    H126596   5.363   3.503   0.253
 1679TIP3    H226597   5.448   3.516   0.128
 1680TIP3   OH226598   2.086   2.420   0.297
 1680TIP3    H126599   2.163   2.435   0.353
 1680TIP3    H226600   2.096   2.482   0.225
 1681TIP3   OH226601   6.853   0.525   7.628
 1681TIP3    H126602   6.787   0.522   7.559
 1681TIP3    H226603   0.029   0.591   7.599
 1682TIP3   OH226604   6.162   5.628   7.729
 1682TIP3    H126605   6.099   5.615   7.658
 1682TIP3    H226606   6.116   5.684   7.792
 1683TIP3   OH226607   2.000   1.553   1.796
 1683TIP3    H126608   2.077   1.608   1.812
 1683TIP3    H226609   1.926   1.604   1.830
 1684TIP3   OH226610   4.867   4.774   1.467
 1684TIP3    H126611   4.877   4.835   1.540
 1684TIP3    H226612   4.952   4.731   1.460
 1685TIP3   OH226613   0.334   0.523   7.851
 1685TIP3    H126614   0.242   0.499   7.850
 1685TIP3    H226615   0.335   0.618   7.836
 1686TIP3   OH226616   1.609   3.074   0.250
 1686TIP3    H126617   1.547   3.115   0.190
 1686TIP3    H226618   1.592   2.980   0.241
 1687TIP3   OH226619   2.268   4.055   0.745
 1687TIP3    H126620   2.230   4.111   0.677
 1687TIP3    H226621   2.362   4.074   0.742
 1688TIP3   OH226622   3.503   2.004   1.043
 1688TIP3    H126623   3.581   1.961   1.079
 1688TIP3    H226624   3.432   1.972   1.098
 1689TIP3   OH226625   4.552   2.852   1.689
 1689TIP3    H126626   4.648   2.852   1.685
 1689TIP3    H226627   4.527   2.941   1.664
 1690TIP3   OH226628   2.200   6.539   7.164
 1690TIP3    H126629   2.181   6.628   7.135
 1690TIP3    H226630   2.234   6.549   7.253
 1691TIP3   OH226631   0.291   1.689   1.654
 1691TIP3    H126632   0.386   1.687   1.655
 1691TIP3    H226633   0.267   1.680   1.562
 1692TIP3   OH226634   1.961   2.635   2.088
 1692TIP3    H126635   1.924   2.723   2.092
 1692TIP3    H226636   1.886   2.577   2.095
 1693TIP3   OH226637   0.570   5.404   7.218
 1693TIP3    H126638   0.659   5.370   7.219
 1693TIP3    H226639   0.515   5.326   7.211
 1694TIP3   OH226640   4.424   6.104   8.008
 1694TIP3    H126641   4.407   6.161   8.083
 1694TIP3    H226642   4.416   6.161   7.932
 1695TIP3   OH226643   4.318   6.734   1.946
 1695TIP3    H126644   4.316   6.761   2.038
 1695TIP3    H226645   4.243   6.675   1.937
 1696TIP3   OH226646   5.601   2.177   8.639
 1696TIP3    H126647   5.655   2.220   0.044
 1696TIP3    H226648   5.557   2.249   8.594
 1697TIP3   OH226649   2.911   2.105   8.245
 1697TIP3    H126650   2.835   2.102   8.187
 1697TIP3    H226651   2.985   2.118   8.186
 1698TIP3   OH226652   4.606   4.924   7.812
 1698TIP3    H126653   4.630   4.834   7.789
 1698TIP3    H226654   4.528   4.914   7.867
 1699TIP3   OH226655   4.325   1.020   1.585
 1699TIP3    H126656   4.409   1.054   1.616
 1699TIP3    H226657   4.337   0.925   1.584
 1700TIP3   OH226658   2.268   2.726   0.282
 1700TIP3    H126659   2.297   2.662   0.348
 1700TIP3    H226660   2.242   2.802   0.333
 1701TIP3   OH226661   5.109   3.691   8.343
 1701TIP3    H126662   5.203   3.675   8.351
 1701TIP3    H226663   5.087   3.660   8.255
 1702TIP3   OH226664   2.768   4.012   2.129
 1702TIP3    H126665   2.742   4.099   2.157
 1702TIP3    H226666   2.765   3.959   2.209
 1703TIP3   OH226667   2.052   0.511   7.810
 1703TIP3    H126668   2.070   0.419   7.793
 1703TIP3    H226669   2.040   0.516   7.905
 1704TIP3   OH226670   1.599   6.818   2.161
 1704TIP3    H126671   1.506   6.798   2.165
 1704TIP3    H226672   1.603   0.028   2.162
 1705TIP3   OH226673   0.777   2.742   8.598
 1705TIP3    H126674   0.828   2.748   8.518
 1705TIP3    H226675   0.700   2.797   8.583
 1706TIP3   OH226676   1.025   3.942   6.867
 1706TIP3    H126677   0.976   4.014   6.906
 1706TIP3    H226678   0.959   3.873   6.852
 1707TIP3   OH226679   5.463   6.453   0.491
 1707TIP3    H126680   5.526   6.500   0.546
 1707TIP3    H226681   5.517   6.391   0.441
 1708TIP3   OH226682   4.828   1.725   6.962
 1708TIP3    H126683   4.876   1.656   6.916
 1708TIP3    H226684   4.782   1.773   6.893
 1709TIP3   OH226685   6.494   6.599   0.830
 1709TIP3    H126686   6.564   6.630   0.771
 1709TIP3    H226687   6.539   6.547   0.896
 1710TIP3   OH226688   3.591   4.000   6.725
 1710TIP3    H126689   3.607   3.931   6.661
 1710TIP3    H226690   3.666   3.994   6.785
 1711TIP3   OH226691   5.977   5.746   1.040
 1711TIP3    H126692   6.022   5.662   1.050
 1711TIP3    H226693   5.884   5.724   1.046
 1712TIP3   OH226694   5.407   1.719   8.532
 1712TIP3    H126695   5.403   1.775   8.455
 1712TIP3    H226696   5.496   1.731   8.566
 1713TIP3   OH226697   5.226   4.144   1.000
 1713TIP3    H126698   5.315   4.110   1.006
 1713TIP3    H226699   5.179   4.080   0.947
 1714TIP3   OH226700   4.888   6.508   0.695
 1714TIP3    H126701   4.957   6.566   0.662
 1714TIP3    H226702   4.807   6.543   0.657
 1715TIP3   OH226703   3.781   0.917   7.103
 1715TIP3    H126704   3.875   0.908   7.119
 1715TIP3    H226705   3.775   0.969   7.023
 1716TIP3   OH226706   2.554   1.658   2.147
 1716TIP3    H126707   2.599   1.724   2.200
 1716TIP3    H226708   2.549   1.581   2.204
 1717TIP3   OH226709   0.904   6.720   0.434
 1717TIP3    H126710   0.993   6.748   0.457
 1717TIP3    H226711   0.899   6.629   0.463
 1718TIP3   OH226712   2.014   1.878   8.558
 1718TIP3    H126713   2.079   1.940   8.524
 1718TIP3    H226714   1.931   1.925   8.550
 1719TIP3   OH226715   2.866   1.226   6.864
 1719TIP3    H126716   2.873   1.211   6.770
 1719TIP3    H226717   2.881   1.320   6.874
 1720TIP3   OH226718   4.574   3.493   1.748
 1720TIP3    H126719   4.493   3.534   1.719
 1720TIP3    H226720   4.595   3.538   1.831
 1721TIP3   OH226721   6.043   4.223   0.684
 1721TIP3    H126722   5.952   4.244   0.707
 1721TIP3    H226723   6.047   4.127   0.691
 1722TIP3   OH226724   5.505   6.227   2.202
 1722TIP3    H126725   5.460   6.293   2.255
 1722TIP3    H226726   5.476   6.144   2.238
 1723TIP3   OH226727   4.410   3.665   0.194
 1723TIP3    H126728   4.421   3.699   0.106
 1723TIP3    H226729   4.348   3.592   0.184
 1724TIP3   OH226730   2.376   2.092   0.608
 1724TIP3    H126731   2.356   2.177   0.570
 1724TIP3    H226732   2.297   2.040   0.595
 1725TIP3   OH226733   1.872   2.770   0.130
 1725TIP3    H126734   1.790   2.807   0.098
 1725TIP3    H226735   1.846   2.695   0.184
 1726TIP3   OH226736   0.330   1.965   7.269
 1726TIP3    H126737   0.301   1.923   7.188
 1726TIP3    H226738   0.353   1.893   7.327
 1727TIP3   OH226739   6.389   3.714   7.885
 1727TIP3    H126740   6.422   3.804   7.874
 1727TIP3    H226741   6.464   3.659   7.864
 1728TIP3   OH226742   4.342   0.011   7.581
 1728TIP3    H126743   4.366   0.042   7.494
 1728TIP3    H226744   4.422   6.857   7.615
 1729TIP3   OH226745   4.692   5.590   6.257
 1729TIP3    H126746   4.747   5.512   6.264
 1729TIP3    H226747   4.659   5.605   6.345
 1730TIP3   OH226748   2.214   4.165   0.502
 1730TIP3    H126749   2.198   4.079   0.462
 1730TIP3    H226750   2.168   4.226   0.444
 1731TIP3   OH226751   5.755   1.058   0.560
 1731TIP3    H126752   5.678   1.074   0.505
 1731TIP3    H226753   5.826   1.104   0.515
 1732TIP3   OH226754   0.905   0.091   7.099
 1732TIP3    H126755   0.906   0.097   7.004
 1732TIP3    H226756   0.843   0.021   7.119
 1733TIP3   OH226757   2.027   3.545   6.887
 1733TIP3    H126758   2.111   3.591   6.891
 1733TIP3    H226759   1.964   3.607   6.924
 1734TIP3   OH226760   3.419   6.067   0.931
 1734TIP3    H126761   3.370   6.021   0.864
 1734TIP3    H226762   3.456   6.143   0.886
 1735TIP3   OH226763   0.661   0.449   7.480
 1735TIP3    H126764   0.584   0.412   7.523
 1735TIP3    H226765   0.673   0.394   7.402
 1736TIP3   OH226766   2.882   1.727   1.790
 1736TIP3    H126767   2.900   1.664   1.721
 1736TIP3    H226768   2.814   1.686   1.843
 1737TIP3   OH226769   6.514   5.336   6.713
 1737TIP3    H126770   6.580   5.346   6.645
 1737TIP3    H226771   6.537   5.402   6.779
 1738TIP3   OH226772   6.779   0.794   2.195
 1738TIP3    H126773   6.852   0.799   2.134
 1738TIP3    H226774   6.746   0.884   2.201
 1739TIP3   OH226775   2.695   4.477   8.470
 1739TIP3    H126776   2.695   4.437   8.557
 1739TIP3    H226777   2.787   4.477   8.444
 1740TIP3   OH226778   4.020   2.141   0.081
 1740TIP3    H126779   3.995   2.056   0.045
 1740TIP3    H226780   4.033   2.197   0.004
 1741TIP3   OH226781   4.885   2.677   8.638
 1741TIP3    H126782   4.932   2.733   8.575
 1741TIP3    H226783   4.847   2.608   8.584
 1742TIP3   OH226784   5.568   0.052   2.822
 1742TIP3    H126785   5.472   0.043   2.819
 1742TIP3    H226786   5.600   6.848   2.812
 1743TIP3   OH226787   3.021   6.328   8.523
 1743TIP3    H126788   2.998   6.253   8.467
 1743TIP3    H226789   3.008   6.296   8.612
 1744TIP3   OH226790   4.005   3.405   1.869
 1744TIP3    H126791   3.952   3.326   1.879
 1744TIP3    H226792   3.995   3.451   1.953
 1745TIP3   OH226793   0.589   0.834   7.119
 1745TIP3    H126794   0.573   0.894   7.192
 1745TIP3    H226795   0.682   0.813   7.124
 1746TIP3   OH226796   4.851   3.352   1.928
 1746TIP3    H126797   4.886   3.347   2.017
 1746TIP3    H226798   4.808   3.267   1.915
 1747TIP3   OH226799   3.092   2.489   1.621
 1747TIP3    H126800   3.096   2.576   1.659
 1747TIP3    H226801   3.168   2.484   1.563
 1748TIP3   OH226802   0.280   5.159   7.706
 1748TIP3    H126803   0.203   5.190   7.754
 1748TIP3    H226804   0.332   5.238   7.690
 1749TIP3   OH226805   3.083   0.798   7.516
 1749TIP3    H126806   3.110   0.856   7.587
 1749TIP3    H226807   3.076   0.711   7.557
 1750TIP3   OH226808   3.224   0.511   6.715
 1750TIP3    H126809   3.216   0.430   6.765
 1750TIP3    H226810   3.301   0.554   6.752
 1751TIP3   OH226811   0.691   5.982   6.930
 1751TIP3    H126812   0.652   6.021   7.008
 1751TIP3    H226813   0.626   5.919   6.900
 1752TIP3   OH226814   3.572   0.463   7.921
 1752TIP3    H126815   3.613   0.480   7.836
 1752TIP3    H226816   3.640   0.417   7.971
 1753TIP3   OH226817   6.554   2.286   2.046
 1753TIP3    H126818   6.610   2.318   2.117
 1753TIP3    H226819   6.465   2.293   2.080
 1754TIP3   OH226820   1.180   1.543   8.499
 1754TIP3    H126821   1.174   1.449   8.483
 1754TIP3    H226822   1.107   1.581   8.448
 1755TIP3   OH226823   0.551   1.504   1.196
 1755TIP3    H126824   0.467   1.499   1.151
 1755TIP3    H226825   0.580   1.595   1.182
 1756TIP3   OH226826   4.615   4.482   1.569
 1756TIP3    H126827   4.583   4.566   1.601
 1756TIP3    H226828   4.556   4.418   1.608
 1757TIP3   OH226829   6.021   5.614   7.469
 1757TIP3    H126830   5.973   5.536   7.443
 1757TIP3    H226831   6.068   5.641   7.390
 1758TIP3   OH226832   3.040   3.832   7.067
 1758TIP3    H126833   3.112   3.770   7.076
 1758TIP3    H226834   3.077   3.915   7.097
 1759TIP3   OH226835   2.979   1.368   0.172
 1759TIP3    H126836   3.016   1.449   0.207
 1759TIP3    H226837   2.937   1.327   0.248
 1760TIP3   OH226838   5.007   1.822   7.417
 1760TIP3    H126839   5.091   1.836   7.372
 1760TIP3    H226840   4.970   1.745   7.374
 1761TIP3   OH226841   5.742   0.580   1.319
 1761TIP3    H126842   5.773   0.670   1.321
 1761TIP3    H226843   5.780   0.540   1.396
 1762TIP3   OH226844   1.251   2.300   7.172
 1762TIP3    H126845   1.345   2.298   7.151
 1762TIP3    H226846   1.209   2.253   7.099
 1763TIP3   OH226847   4.213   1.086   0.027
 1763TIP3    H126848   4.141   1.072   8.628
 1763TIP3    H226849   4.171   1.093   0.113
 1764TIP3   OH226850   5.705   3.415   1.153
 1764TIP3    H126851   5.787   3.441   1.195
 1764TIP3    H226852   5.649   3.492   1.159
 1765TIP3   OH226853   1.959   1.144   0.941
 1765TIP3    H126854   2.024   1.214   0.935
 1765TIP3    H226855   2.011   1.063   0.946
 1766TIP3   OH226856   0.621   4.826   1.893
 1766TIP3    H126857   0.669   4.894   1.846
 1766TIP3    H226858   0.530   4.840   1.868
 1767TIP3   OH226859   2.763   1.384   6.371
 1767TIP3    H126860   2.723   1.443   6.435
 1767TIP3    H226861   2.814   1.323   6.423
 1768TIP3   OH226862   4.442   3.408   8.604
 1768TIP3    H126863   4.519   3.420   8.661
 1768TIP3    H226864   4.368   3.411   0.002
 1769TIP3   OH226865   2.486   3.624   8.579
 1769TIP3    H126866   2.447   3.697   8.627
 1769TIP3    H226867   2.542   3.580   8.642
 1770TIP3   OH226868   0.193   0.382   0.342
 1770TIP3    H126869   0.265   0.439   0.312
 1770TIP3    H226870   0.195   0.389   0.437
 1771TIP3   OH226871   3.145   6.475   1.599
 1771TIP3    H126872   3.213   6.441   1.657
 1771TIP3    H226873   3.080   6.515   1.657
 1772TIP3   OH226874   3.969   6.394   7.085
 1772TIP3    H126875   4.029   6.455   7.041
 1772TIP3    H226876   3.938   6.337   7.016
 1773TIP3   OH226877   0.777   4.276   2.212
 1773TIP3    H126878   0.821   4.308   2.290
 1773TIP3    H226879   0.836   4.210   2.176
 1774TIP3   OH226880   0.042   2.794   1.646
 1774TIP3    H126881   0.095   2.861   1.688
 1774TIP3    H226882   6.861   2.844   1.599
 1775TIP3   OH226883   0.950   2.584   1.170
 1775TIP3    H126884   0.965   2.678   1.182
 1775TIP3    H226885   0.995   2.563   1.089
 1776TIP3   OH226886   4.143   5.390   2.026
 1776TIP3    H126887   4.219   5.430   1.984
 1776TIP3    H226888   4.076   5.458   2.026
 1777TIP3   OH226889   6.766   2.218   7.330
 1777TIP3    H126890   6.816   2.137   7.339
 1777TIP3    H226891   6.681   2.197   7.369
 1778TIP3   OH226892   1.098   4.309   1.520
 1778TIP3    H126893   1.022   4.345   1.566
 1778TIP3    H226894   1.134   4.245   1.582
 1779TIP3   OH226895   2.871   6.000   1.300
 1779TIP3    H126896   2.806   5.929   1.303
 1779TIP3    H226897   2.845   6.053   1.224
 1780TIP3   OH226898   6.129   4.117   8.044
 1780TIP3    H126899   6.072   4.187   8.076
 1780TIP3    H226900   6.211   4.161   8.021
 1781TIP3   OH226901   3.323   4.403   1.680
 1781TIP3    H126902   3.309   4.360   1.764
 1781TIP3    H226903   3.332   4.496   1.703
 1782TIP3   OH226904   5.407   2.603   0.866
 1782TIP3    H126905   5.369   2.658   0.935
 1782TIP3    H226906   5.454   2.535   0.914
 1783TIP3   OH226907   0.038   0.458   1.104
 1783TIP3    H126908   0.115   0.444   1.160
 1783TIP3    H226909   6.885   0.371   1.094
 1784TIP3   OH226910   4.633   5.863   0.828
 1784TIP3    H126911   4.550   5.907   0.846
 1784TIP3    H226912   4.694   5.898   0.893
 1785TIP3   OH226913   2.286   1.353   6.923
 1785TIP3    H126914   2.226   1.420   6.892
 1785TIP3    H226915   2.340   1.397   6.988
 1786TIP3   OH226916   4.217   1.700   1.291
 1786TIP3    H126917   4.257   1.741   1.368
 1786TIP3    H226918   4.245   1.754   1.217
 1787TIP3   OH226919   3.151   3.333   6.717
 1787TIP3    H126920   3.148   3.294   6.629
 1787TIP3    H226921   3.064   3.373   6.728
 1788TIP3   OH226922   2.332   1.126   6.541
 1788TIP3    H126923   2.392   1.091   6.476
 1788TIP3    H226924   2.378   1.202   6.578
 1789TIP3   OH226925   2.068   3.059   1.049
 1789TIP3    H126926   2.122   3.128   1.012
 1789TIP3    H226927   1.999   3.044   0.984
 1790TIP3   OH226928   4.085   1.556   7.707
 1790TIP3    H126929   4.063   1.601   7.789
 1790TIP3    H226930   4.150   1.491   7.733
 1791TIP3   OH226931   1.012   2.758   0.099
 1791TIP3    H126932   1.066   2.703   0.042
 1791TIP3    H226933   0.933   2.774   0.049
 1792TIP3   OH226934   6.546   1.454   2.391
 1792TIP3    H126935   6.529   1.383   2.329
 1792TIP3    H226936   6.495   1.528   2.357
 1793TIP3   OH226937   0.490   6.752   7.509
 1793TIP3    H126938   0.569   6.726   7.462
 1793TIP3    H226939   0.418   6.725   7.452
 1794TIP3   OH226940   3.183   5.525   1.600
 1794TIP3    H126941   3.168   5.552   1.691
 1794TIP3    H226942   3.264   5.570   1.575
 1795TIP3   OH226943   2.443   2.269   1.657
 1795TIP3    H126944   2.430   2.176   1.641
 1795TIP3    H226945   2.355   2.306   1.659
 1796TIP3   OH226946   4.818   1.340   6.319
 1796TIP3    H126947   4.794   1.317   6.409
 1796TIP3    H226948   4.745   1.393   6.288
 1797TIP3   OH226949   1.138   2.640   8.551
 1797TIP3    H126950   1.129   2.723   8.504
 1797TIP3    H226951   1.178   2.580   8.488
 1798TIP3   OH226952   4.399   5.528   8.141
 1798TIP3    H126953   4.394   5.434   8.162
 1798TIP3    H226954   4.490   5.552   8.162
 1799TIP3   OH226955   3.229   1.223   6.591
 1799TIP3    H126956   3.170   1.153   6.561
 1799TIP3    H226957   3.316   1.196   6.560
 1800TIP3   OH226958   4.206   1.085   2.404
 1800TIP3    H126959   4.179   1.001   2.441
 1800TIP3    H226960   4.129   1.115   2.354
 1801TIP3   OH226961   3.070   3.661   6.779
 1801TIP3    H126962   3.024   3.735   6.819
 1801TIP3    H226963   3.076   3.683   6.686
 1802TIP3   OH226964   1.035   5.246   6.675
 1802TIP3    H126965   1.064   5.158   6.701
 1802TIP3    H226966   1.115   5.299   6.676
 1803TIP3   OH226967   5.162   3.534   0.641
 1803TIP3    H126968   5.212   3.525   0.721
 1803TIP3    H226969   5.126   3.622   0.644
 1804TIP3   OH226970   6.718   0.499   0.830
 1804TIP3    H126971   6.758   0.469   0.748
 1804TIP3    H226972   6.792   0.530   0.882
 1805TIP3   OH226973   4.085   1.046   1.208
 1805TIP3    H126974   4.011   0.984   1.211
 1805TIP3    H226975   4.088   1.074   1.116
 1806TIP3   OH226976   4.628   4.577   7.770
 1806TIP3    H126977   4.538   4.594   7.797
 1806TIP3    H226978   4.640   4.483   7.782
 1807TIP3   OH226979   3.569   6.229   0.760
 1807TIP3    H126980   3.550   6.323   0.762
 1807TIP3    H226981   3.651   6.220   0.808
 1808TIP3   OH226982   4.872   0.563   7.301
 1808TIP3    H126983   4.834   0.574   7.388
 1808TIP3    H226984   4.891   0.469   7.295
 1809TIP3   OH226985   1.831   4.091   8.601
 1809TIP3    H126986   1.843   4.053   0.026
 1809TIP3    H226987   1.763   4.037   8.560
 1810TIP3   OH226988   3.792   5.689   2.217
 1810TIP3    H126989   3.702   5.665   2.193
 1810TIP3    H226990   3.782   5.761   2.279
 1811TIP3   OH226991   1.908   3.946   6.054
 1811TIP3    H126992   1.941   3.857   6.046
 1811TIP3    H226993   1.940   3.976   6.139
 1812TIP3   OH226994   3.022   6.267   7.887
 1812TIP3    H126995   3.040   6.327   7.960
 1812TIP3    H226996   2.968   6.318   7.827
 1813TIP3   OH226997   6.486   0.084   2.161
 1813TIP3    H126998   6.493   0.159   2.221
 1813TIP3    H226999   6.497   0.008   2.218
 1814TIP3   OH227000   4.022   3.353   7.815
 1814TIP3    H127001   4.099   3.358   7.870
 1814TIP3    H227002   3.997   3.261   7.816
 1815TIP3   OH227003   0.539   6.233   1.878
 1815TIP3    H127004   0.450   6.266   1.886
 1815TIP3    H227005   0.532   6.139   1.898
 1816TIP3   OH227006   3.555   0.014   7.673
 1816TIP3    H127007   3.504   6.827   7.638
 1816TIP3    H227008   3.552   0.003   7.768
 1817TIP3   OH227009   0.500   6.840   1.298
 1817TIP3    H127010   0.534   6.855   1.387
 1817TIP3    H227011   0.478   6.747   1.297
 1818TIP3   OH227012   4.376   5.391   0.223
 1818TIP3    H127013   4.401   5.480   0.248
 1818TIP3    H227014   4.436   5.368   0.152
 1819TIP3   OH227015   4.686   5.479   0.365
 1819TIP3    H127016   4.778   5.506   0.372
 1819TIP3    H227017   4.638   5.547   0.412
 1820TIP3   OH227018   3.665   1.115   8.108
 1820TIP3    H127019   3.658   1.204   8.075
 1820TIP3    H227020   3.710   1.067   8.038
 1821TIP3   OH227021   1.315   3.622   1.537
 1821TIP3    H127022   1.286   3.578   1.617
 1821TIP3    H227023   1.294   3.561   1.467
 1822TIP3   OH227024   3.703   6.294   1.293
 1822TIP3    H127025   3.645   6.299   1.217
 1822TIP3    H227026   3.678   6.212   1.337
 1823TIP3   OH227027   1.269   6.843   7.917
 1823TIP3    H127028   1.202   6.800   7.972
 1823TIP3    H227029   1.248   0.050   7.922
 1824TIP3   OH227030   2.016   5.762   6.107
 1824TIP3    H127031   2.061   5.702   6.048
 1824TIP3    H227032   1.923   5.745   6.091
 1825TIP3   OH227033   4.097   3.751   0.534
 1825TIP3    H127034   4.114   3.844   0.550
 1825TIP3    H227035   4.184   3.712   0.526
 1826TIP3   OH227036   4.192   3.690   8.202
 1826TIP3    H127037   4.205   3.744   8.124
 1826TIP3    H227038   4.246   3.613   8.187
 1827TIP3   OH227039   6.042   3.710   1.336
 1827TIP3    H127040   6.114   3.744   1.281
 1827TIP3    H227041   6.084   3.688   1.419
 1828TIP3   OH227042   3.208   5.704   0.565
 1828TIP3    H127043   3.121   5.725   0.530
 1828TIP3    H227044   3.232   5.623   0.521
 1829TIP3   OH227045   4.186   5.713   1.906
 1829TIP3    H127046   4.258   5.654   1.886
 1829TIP3    H227047   4.107   5.658   1.898
 1830TIP3   OH227048   6.554   1.987   6.590
 1830TIP3    H127049   6.565   2.073   6.629
 1830TIP3    H227050   6.614   1.986   6.515
 1831TIP3   OH227051   0.565   4.947   0.508
 1831TIP3    H127052   0.559   5.012   0.437
 1831TIP3    H227053   0.658   4.926   0.513
 1832TIP3   OH227054   0.610   1.433   1.996
 1832TIP3    H127055   0.693   1.469   2.028
 1832TIP3    H227056   0.566   1.403   2.076
 1833TIP3   OH227057   3.370   1.341   7.671
 1833TIP3    H127058   3.281   1.314   7.650
 1833TIP3    H227059   3.411   1.263   7.708
 1834TIP3   OH227060   5.678   5.918   7.612
 1834TIP3    H127061   5.641   6.001   7.643
 1834TIP3    H227062   5.668   5.921   7.517
 1835TIP3   OH227063   5.820   1.303   7.993
 1835TIP3    H127064   5.912   1.318   8.015
 1835TIP3    H227065   5.777   1.293   8.078
 1836TIP3   OH227066   6.527   1.090   7.260
 1836TIP3    H127067   6.507   1.028   7.331
 1836TIP3    H227068   6.470   1.164   7.277
 1837TIP3   OH227069   5.342   3.180   7.166
 1837TIP3    H127070   5.369   3.091   7.143
 1837TIP3    H227071   5.292   3.170   7.247
 1838TIP3   OH227072   6.330   6.710   1.990
 1838TIP3    H127073   6.336   6.626   2.035
 1838TIP3    H227074   6.419   6.744   1.990
 1839TIP3   OH227075   1.349   4.240   1.864
 1839TIP3    H127076   1.350   4.254   1.769
 1839TIP3    H227077   1.407   4.307   1.899
 1840TIP3   OH227078   0.491   0.635   8.238
 1840TIP3    H127079   0.517   0.552   8.277
 1840TIP3    H227080   0.396   0.636   8.245
 1841TIP3   OH227081   0.426   0.594   0.291
 1841TIP3    H127082   0.502   0.652   0.288
 1841TIP3    H227083   0.459   0.510   0.257
 1842TIP3   OH227084   3.249   2.460   1.127
 1842TIP3    H127085   3.211   2.409   1.199
 1842TIP3    H227086   3.298   2.396   1.076
 1843TIP3   OH227087   2.667   1.328   7.725
 1843TIP3    H127088   2.679   1.288   7.811
 1843TIP3    H227089   2.603   1.271   7.681
 1844TIP3   OH227090   1.127   2.750   0.688
 1844TIP3    H127091   1.066   2.824   0.696
 1844TIP3    H227092   1.166   2.761   0.601
 1845TIP3   OH227093   3.133   0.718   1.867
 1845TIP3    H127094   3.064   0.651   1.865
 1845TIP3    H227095   3.187   0.694   1.943
 1846TIP3   OH227096   4.497   4.590   0.576
 1846TIP3    H127097   4.562   4.630   0.632
 1846TIP3    H227098   4.475   4.657   0.511
 1847TIP3   OH227099   0.871   2.066   8.431
 1847TIP3    H127100   0.846   2.080   8.522
 1847TIP3    H227101   0.855   2.151   8.388
 1848TIP3   OH227102   1.894   4.230   7.652
 1848TIP3    H127103   1.969   4.248   7.596
 1848TIP3    H227104   1.907   4.141   7.683
 1849TIP3   OH227105   0.174   3.242   1.214
 1849TIP3    H127106   0.120   3.167   1.188
 1849TIP3    H227107   0.248   3.203   1.261
 1850TIP3   OH227108   5.872   6.704   0.311
 1850TIP3    H127109   5.776   6.698   0.305
 1850TIP3    H227110   5.892   6.681   0.402
 1851TIP3   OH227111   6.493   5.786   0.380
 1851TIP3    H127112   6.432   5.852   0.412
 1851TIP3    H227113   6.517   5.815   0.293
 1852TIP3   OH227114   3.719   5.799   1.541
 1852TIP3    H127115   3.796   5.777   1.593
 1852TIP3    H227116   3.689   5.715   1.505
 1853TIP3   OH227117   4.220   1.852   0.133
 1853TIP3    H127118   4.295   1.806   0.171
 1853TIP3    H227119   4.157   1.783   0.112
 1854TIP3   OH227120   5.645   0.242   1.673
 1854TIP3    H127121   5.680   0.328   1.694
 1854TIP3    H227122   5.698   0.211   1.600
 1855TIP3   OH227123   6.083   0.354   7.160
 1855TIP3    H127124   6.033   0.421   7.113
 1855TIP3    H227125   6.171   0.391   7.167
 1856TIP3   OH227126   3.324   1.795   0.347
 1856TIP3    H127127   3.336   1.709   0.306
 1856TIP3    H227128   3.290   1.851   0.277
 1857TIP3   OH227129   6.522   2.371   0.533
 1857TIP3    H127130   6.473   2.290   0.541
 1857TIP3    H227131   6.466   2.429   0.482
 1858TIP3   OH227132   1.701   6.690   1.024
 1858TIP3    H127133   1.648   6.743   1.084
 1858TIP3    H227134   1.711   6.744   0.946
 1859TIP3   OH227135   6.486   4.726   0.701
 1859TIP3    H127136   6.450   4.714   0.613
 1859TIP3    H227137   6.490   4.821   0.712
 1860TIP3   OH227138   6.134   5.712   2.257
 1860TIP3    H127139   6.067   5.729   2.323
 1860TIP3    H227140   6.211   5.761   2.287
 1861TIP3   OH227141   4.179   0.854   8.037
 1861TIP3    H127142   4.192   0.884   8.126
 1861TIP3    H227143   4.096   0.893   8.010
 1862TIP3   OH227144   0.486   1.516   7.090
 1862TIP3    H127145   0.406   1.557   7.056
 1862TIP3    H227146   0.553   1.583   7.082
 1863TIP3   OH227147   2.099   5.632   1.086
 1863TIP3    H127148   2.077   5.696   1.018
 1863TIP3    H227149   2.189   5.652   1.110
 1864TIP3   OH227150   2.270   2.067   1.313
 1864TIP3    H127151   2.271   2.021   1.397
 1864TIP3    H227152   2.213   2.014   1.257
 1865TIP3   OH227153   3.447   5.772   1.005
 1865TIP3    H127154   3.383   5.811   0.946
 1865TIP3    H227155   3.528   5.768   0.954
 1866TIP3   OH227156   5.524   6.722   7.876
 1866TIP3    H127157   5.485   6.704   7.790
 1866TIP3    H227158   5.610   6.680   7.872
 1867TIP3   OH227159   5.807   4.916   7.100
 1867TIP3    H127160   5.769   4.879   7.180
 1867TIP3    H227161   5.735   4.968   7.062
 1868TIP3   OH227162   1.282   1.739   1.791
 1868TIP3    H127163   1.368   1.746   1.749
 1868TIP3    H227164   1.254   1.830   1.802
 1869TIP3   OH227165   3.883   4.347   7.793
 1869TIP3    H127166   3.826   4.282   7.752
 1869TIP3    H227167   3.957   4.355   7.733
 1870TIP3   OH227168   5.409   6.779   7.256
 1870TIP3    H127169   5.408   6.683   7.257
 1870TIP3    H227170   5.317   6.804   7.251
 1871TIP3   OH227171   6.876   5.669   6.878
 1871TIP3    H127172   6.870   5.729   6.804
 1871TIP3    H227173   6.885   5.583   6.838
 1872TIP3   OH227174   3.873   1.094   0.399
 1872TIP3    H127175   3.959   1.121   0.368
 1872TIP3    H227176   3.831   1.175   0.428
 1873TIP3   OH227177   1.392   5.066   0.713
 1873TIP3    H127178   1.435   5.149   0.697
 1873TIP3    H227179   1.371   5.068   0.807
 1874TIP3   OH227180   1.335   3.899   1.573
 1874TIP3    H127181   1.344   3.808   1.542
 1874TIP3    H227182   1.347   3.952   1.494
 1875TIP3   OH227183   1.233   6.402   2.469
 1875TIP3    H127184   1.190   6.476   2.512
 1875TIP3    H227185   1.160   6.350   2.435
 1876TIP3   OH227186   3.117   4.986   7.906
 1876TIP3    H127187   3.174   4.952   7.837
 1876TIP3    H227188   3.114   5.081   7.889
 1877TIP3   OH227189   6.371   1.380   1.586
 1877TIP3    H127190   6.450   1.389   1.639
 1877TIP3    H227191   6.364   1.286   1.569
 1878TIP3   OH227192   5.836   2.828   2.152
 1878TIP3    H127193   5.811   2.896   2.215
 1878TIP3    H227194   5.769   2.832   2.084
 1879TIP3   OH227195   4.087   0.088   6.711
 1879TIP3    H127196   4.043   0.024   6.656
 1879TIP3    H227197   4.151   0.037   6.761
 1880TIP3   OH227198   2.832   4.382   7.416
 1880TIP3    H127199   2.812   4.369   7.508
 1880TIP3    H227200   2.811   4.298   7.375
 1881TIP3   OH227201   0.673   6.264   8.116
 1881TIP3    H127202   0.678   6.344   8.065
 1881TIP3    H227203   0.607   6.283   8.183
 1882TIP3   OH227204   0.519   0.692   1.001
 1882TIP3    H127205   0.553   0.780   0.984
 1882TIP3    H227206   0.436   0.707   1.045
 1883TIP3   OH227207   2.348   4.683   7.057
 1883TIP3    H127208   2.267   4.732   7.069
 1883TIP3    H227209   2.414   4.732   7.105
 1884TIP3   OH227210   0.240   6.801   8.553
 1884TIP3    H127211   0.281   6.886   8.535
 1884TIP3    H227212   0.178   6.819   8.623
 1885TIP3   OH227213   1.945   4.116   6.963
 1885TIP3    H127214   1.870   4.073   6.923
 1885TIP3    H227215   1.999   4.144   6.889
 1886TIP3   OH227216   3.214   2.753   6.396
 1886TIP3    H127217   3.281   2.694   6.360
 1886TIP3    H227218   3.246   2.841   6.375
 1887TIP3   OH227219   1.627   2.334   7.424
 1887TIP3    H127220   1.648   2.372   7.339
 1887TIP3    H227221   1.537   2.304   7.415
 1888TIP3   OH227222   2.997   5.584   1.089
 1888TIP3    H127223   3.038   5.584   1.002
 1888TIP3    H227224   2.903   5.588   1.070
 1889TIP3   OH227225   5.413   5.806   7.270
 1889TIP3    H127226   5.420   5.712   7.255
 1889TIP3    H227227   5.382   5.813   7.361
 1890TIP3   OH227228   6.104   1.066   8.004
 1890TIP3    H127229   6.057   0.994   8.043
 1890TIP3    H227230   6.194   1.034   7.994
 1891TIP3   OH227231   4.300   0.595   0.646
 1891TIP3    H127232   4.378   0.549   0.613
 1891TIP3    H227233   4.330   0.638   0.726
 1892TIP3   OH227234   3.369   2.053   7.395
 1892TIP3    H127235   3.296   2.031   7.338
 1892TIP3    H227236   3.445   2.011   7.354
 1893TIP3   OH227237   1.942   0.595   2.115
 1893TIP3    H127238   1.894   0.514   2.132
 1893TIP3    H227239   1.942   0.641   2.199
 1894TIP3   OH227240   2.928   2.947   1.260
 1894TIP3    H127241   2.962   2.860   1.238
 1894TIP3    H227242   2.916   2.945   1.355
 1895TIP3   OH227243   2.467   0.665   8.598
 1895TIP3    H127244   2.384   0.714   8.601
 1895TIP3    H227245   2.484   0.642   0.028
 1896TIP3   OH227246   2.581   0.981   0.936
 1896TIP3    H127247   2.620   1.051   0.989
 1896TIP3    H227248   2.581   1.015   0.847
 1897TIP3   OH227249   5.280   3.129   0.290
 1897TIP3    H127250   5.199   3.145   0.242
 1897TIP3    H227251   5.336   3.204   0.268
 1898TIP3   OH227252   1.788   6.798   7.040
 1898TIP3    H127253   1.819   6.714   7.007
 1898TIP3    H227254   1.866   6.840   7.076
 1899TIP3   OH227255   5.735   1.113   7.613
 1899TIP3    H127256   5.725   1.018   7.606
 1899TIP3    H227257   5.816   1.125   7.663
 1900TIP3   OH227258   1.396   6.805   0.233
 1900TIP3    H127259   1.472   6.787   0.288
 1900TIP3    H227260   1.411   0.008   0.201
 1901TIP3   OH227261   0.365   1.201   7.848
 1901TIP3    H127262   0.443   1.166   7.807
 1901TIP3    H227263   0.384   1.294   7.860
 1902TIP3   OH227264   3.897   2.933   6.982
 1902TIP3    H127265   3.935   3.016   6.954
 1902TIP3    H227266   3.896   2.879   6.904
 1903TIP3   OH227267   6.425   3.803   7.230
 1903TIP3    H127268   6.398   3.781   7.141
 1903TIP3    H227269   6.517   3.779   7.235
 1904TIP3   OH227270   0.817   1.094   7.461
 1904TIP3    H127271   0.771   1.089   7.545
 1904TIP3    H227272   0.772   1.031   7.405
 1905TIP3   OH227273   5.952   1.228   0.436
 1905TIP3    H127274   6.036   1.203   0.474
 1905TIP3    H227275   5.972   1.246   0.344
 1906TIP3   OH227276   0.307   1.998   1.876
 1906TIP3    H127277   0.300   2.044   1.792
 1906TIP3    H227278   0.397   1.967   1.879
 1907TIP3   OH227279   3.284   6.403   0.048
 1907TIP3    H127280   3.252   6.337   0.108
 1907TIP3    H227281   3.373   6.422   0.078
 1908TIP3   OH227282   6.012   5.871   7.867
 1908TIP3    H127283   6.032   5.942   7.806
 1908TIP3    H227284   6.070   5.886   7.941
 1909TIP3   OH227285   3.053   0.376   0.799
 1909TIP3    H127286   3.111   0.451   0.786
 1909TIP3    H227287   3.066   0.352   0.891
 1910TIP3   OH227288   2.819   1.448   8.325
 1910TIP3    H127289   2.840   1.480   8.412
 1910TIP3    H227290   2.786   1.359   8.339
 1911TIP3   OH227291   5.307   1.963   7.595
 1911TIP3    H127292   5.258   2.013   7.530
 1911TIP3    H227293   5.338   2.028   7.658
 1912TIP3   OH227294   0.081   2.653   7.479
 1912TIP3    H127295   0.131   2.687   7.404
 1912TIP3    H227296   6.876   2.670   7.457
 1913TIP3   OH227297   3.737   2.446   0.186
 1913TIP3    H127298   3.808   2.383   0.183
 1913TIP3    H227299   3.678   2.419   0.115
 1914TIP3   OH227300   4.436   4.974   0.831
 1914TIP3    H127301   4.502   4.905   0.825
 1914TIP3    H227302   4.480   5.053   0.800
 1915TIP3   OH227303   5.627   1.108   1.030
 1915TIP3    H127304   5.631   1.132   1.123
 1915TIP3    H227305   5.702   1.154   0.990
 1916TIP3   OH227306   1.201   5.287   7.636
 1916TIP3    H127307   1.214   5.275   7.730
 1916TIP3    H227308   1.132   5.352   7.630
 1917TIP3   OH227309   5.003   2.871   7.237
 1917TIP3    H127310   5.033   2.869   7.146
 1917TIP3    H227311   5.079   2.904   7.286
 1918TIP3   OH227312   4.837   0.527   0.599
 1918TIP3    H127313   4.824   0.530   0.504
 1918TIP3    H227314   4.932   0.516   0.610
 1919TIP3   OH227315   2.328   3.177   0.381
 1919TIP3    H127316   2.290   3.089   0.374
 1919TIP3    H227317   2.423   3.162   0.377
 1920TIP3   OH227318   3.055   1.066   1.476
 1920TIP3    H127319   3.135   1.100   1.517
 1920TIP3    H227320   3.085   1.015   1.401
 1921TIP3   OH227321   4.201   1.086   6.373
 1921TIP3    H127322   4.209   1.007   6.320
 1921TIP3    H227323   4.252   1.153   6.326
 1922TIP3   OH227324   3.919   5.103   7.931
 1922TIP3    H127325   3.938   5.192   7.900
 1922TIP3    H227326   3.883   5.115   8.019
 1923TIP3   OH227327   1.200   0.214   0.833
 1923TIP3    H127328   1.191   0.252   0.921
 1923TIP3    H227329   1.143   0.137   0.834
 1924TIP3   OH227330   2.224   3.331   7.145
 1924TIP3    H127331   2.318   3.350   7.138
 1924TIP3    H227332   2.181   3.413   7.124
 1925TIP3   OH227333   5.022   5.556   7.300
 1925TIP3    H127334   5.069   5.596   7.227
 1925TIP3    H227335   5.071   5.476   7.319
 1926TIP3   OH227336   2.581   4.892   8.512
 1926TIP3    H127337   2.597   4.983   8.538
 1926TIP3    H227338   2.490   4.876   8.535
 1927TIP3   OH227339   0.556   6.456   6.793
 1927TIP3    H127340   0.505   6.471   6.714
 1927TIP3    H227341   0.634   6.410   6.763
 1928TIP3   OH227342   3.046   5.676   7.043
 1928TIP3    H127343   3.117   5.732   7.013
 1928TIP3    H227344   3.031   5.614   6.971
 1929TIP3   OH227345   2.924   5.490   7.781
 1929TIP3    H127346   2.983   5.423   7.748
 1929TIP3    H227347   2.910   5.466   7.873
 1930TIP3   OH227348   3.958   5.485   1.374
 1930TIP3    H127349   4.047   5.514   1.353
 1930TIP3    H227350   3.967   5.391   1.391
 1931TIP3   OH227351   5.843   6.827   1.255
 1931TIP3    H127352   5.898   0.007   1.212
 1931TIP3    H227353   5.783   6.797   1.187
 1932TIP3   OH227354   5.079   6.692   7.619
 1932TIP3    H127355   5.094   6.604   7.584
 1932TIP3    H227356   4.985   6.705   7.612
 1933TIP3   OH227357   6.088   2.003   1.455
 1933TIP3    H127358   6.017   2.003   1.391
 1933TIP3    H227359   6.085   1.915   1.494
 1934TIP3   OH227360   6.125   2.502   1.588
 1934TIP3    H127361   6.166   2.470   1.669
 1934TIP3    H227362   6.151   2.593   1.582
 1935TIP3   OH227363   5.805   3.859   7.806
 1935TIP3    H127364   5.783   3.863   7.899
 1935TIP3    H227365   5.892   3.819   7.804
 1936TIP3   OH227366   2.832   1.564   7.470
 1936TIP3    H127367   2.888   1.565   7.548
 1936TIP3    H227368   2.831   1.655   7.440
 1937TIP3   OH227369   0.307   5.454   1.595
 1937TIP3    H127370   0.304   5.537   1.642
 1937TIP3    H227371   0.221   5.447   1.553
 1938TIP3   OH227372   3.957   6.845   8.516
 1938TIP3    H127373   3.963   0.044   8.473
 1938TIP3    H227374   3.874   6.808   8.486
 1939TIP3   OH227375   2.015   2.758   6.654
 1939TIP3    H127376   1.956   2.832   6.662
 1939TIP3    H227377   1.981   2.708   6.580
 1940TIP3   OH227378   4.566   0.789   1.235
 1940TIP3    H127379   4.540   0.812   1.146
 1940TIP3    H227380   4.647   0.840   1.250
 1941TIP3   OH227381   0.514   3.252   7.995
 1941TIP3    H127382   0.445   3.318   7.984
 1941TIP3    H227383   0.560   3.251   7.911
 1942TIP3   OH227384   1.629   1.770   8.390
 1942TIP3    H127385   1.552   1.725   8.356
 1942TIP3    H227386   1.703   1.727   8.347
 1943TIP3   OH227387   1.828   5.718   0.079
 1943TIP3    H127388   1.845   5.698   0.171
 1943TIP3    H227389   1.759   5.656   0.053
 1944TIP3   OH227390   4.711   2.512   6.849
 1944TIP3    H127391   4.799   2.530   6.815
 1944TIP3    H227392   4.652   2.534   6.777
 1945TIP3   OH227393   2.170   2.932   1.642
 1945TIP3    H127394   2.228   2.930   1.566
 1945TIP3    H227395   2.210   2.870   1.704
 1946TIP3   OH227396   0.677   4.029   7.569
 1946TIP3    H127397   0.657   4.123   7.567
 1946TIP3    H227398   0.616   3.993   7.634
 1947TIP3   OH227399   5.540   1.094   6.924
 1947TIP3    H127400   5.560   1.141   6.843
 1947TIP3    H227401   5.625   1.060   6.953
 1948TIP3   OH227402   5.418   6.013   0.295
 1948TIP3    H127403   5.438   5.931   0.340
 1948TIP3    H227404   5.322   6.014   0.287
 1949TIP3   OH227405   6.694   5.525   0.118
 1949TIP3    H127406   6.751   5.562   0.186
 1949TIP3    H227407   6.691   5.592   0.050
 1950TIP3   OH227408   1.392   4.655   6.875
 1950TIP3    H127409   1.458   4.714   6.839
 1950TIP3    H227410   1.401   4.575   6.824
 1951TIP3   OH227411   2.825   4.081   0.324
 1951TIP3    H127412   2.805   4.155   0.382
 1951TIP3    H227413   2.744   4.065   0.276
 1952TIP3   OH227414   2.512   0.332   0.712
 1952TIP3    H127415   2.497   0.260   0.651
 1952TIP3    H227416   2.448   0.399   0.687
 1953TIP3   OH227417   6.067   3.889   7.572
 1953TIP3    H127418   6.117   3.809   7.551
 1953TIP3    H227419   6.099   3.915   7.658
 1954TIP3   OH227420   1.007   4.257   8.223
 1954TIP3    H127421   0.915   4.248   8.197
 1954TIP3    H227422   1.047   4.173   8.199
 1955TIP3   OH227423   4.558   3.414   2.479
 1955TIP3    H127424   4.584   3.506   2.489
 1955TIP3    H227425   4.587   3.372   2.560
 1956TIP3   OH227426   6.498   2.221   6.769
 1956TIP3    H127427   6.536   2.206   6.856
 1956TIP3    H227428   6.416   2.173   6.770
 1957TIP3   OH227429   3.167   4.416   0.026
 1957TIP3    H127430   3.181   4.395   8.596
 1957TIP3    H227431   3.170   4.331   0.070
 1958TIP3   OH227432   0.770   5.851   7.256
 1958TIP3    H127433   0.694   5.883   7.306
 1958TIP3    H227434   0.781   5.914   7.186
 1959TIP3   OH227435   4.220   4.171   8.380
 1959TIP3    H127436   4.256   4.243   8.329
 1959TIP3    H227437   4.126   4.184   8.377
 1960TIP3   OH227438   2.797   3.882   0.740
 1960TIP3    H127439   2.881   3.909   0.776
 1960TIP3    H227440   2.732   3.911   0.805
 1961TIP3   OH227441   5.990   0.118   8.090
 1961TIP3    H127442   6.027   0.205   8.077
 1961TIP3    H227443   5.916   0.131   8.148
 1962TIP3   OH227444   4.273   5.971   1.294
 1962TIP3    H127445   4.335   5.973   1.367
 1962TIP3    H227446   4.301   5.895   1.242
 1963TIP3   OH227447   1.676   6.434   1.661
 1963TIP3    H127448   1.643   6.517   1.697
 1963TIP3    H227449   1.755   6.416   1.711
 1964TIP3   OH227450   5.490   5.132   1.611
 1964TIP3    H127451   5.539   5.130   1.694
 1964TIP3    H227452   5.522   5.056   1.562
 1965TIP3   OH227453   1.485   4.285   1.138
 1965TIP3    H127454   1.545   4.316   1.071
 1965TIP3    H227455   1.497   4.190   1.139
 1966TIP3   OH227456   3.545   5.400   0.583
 1966TIP3    H127457   3.591   5.437   0.658
 1966TIP3    H227458   3.516   5.314   0.611
 1967TIP3   OH227459   0.773   3.498   1.753
 1967TIP3    H127460   0.765   3.445   1.674
 1967TIP3    H227461   0.694   3.477   1.804
 1968TIP3   OH227462   5.514   5.561   0.563
 1968TIP3    H127463   5.517   5.653   0.592
 1968TIP3    H227464   5.422   5.536   0.572
 1969TIP3   OH227465   0.018   0.950   0.408
 1969TIP3    H127466   0.073   0.873   0.391
 1969TIP3    H227467   0.027   0.966   0.501
 1970TIP3   OH227468   1.381   4.411   7.263
 1970TIP3    H127469   1.399   4.504   7.250
 1970TIP3    H227470   1.348   4.380   7.179
 1971TIP3   OH227471   5.979   4.959   8.297
 1971TIP3    H127472   5.933   5.010   8.364
 1971TIP3    H227473   6.009   4.880   8.343
 1972TIP3   OH227474   0.038   1.010   6.528
 1972TIP3    H127475   6.854   1.068   6.559
 1972TIP3    H227476   0.118   1.061   6.538
 1973TIP3   OH227477   6.006   5.087   1.146
 1973TIP3    H127478   6.081   5.126   1.102
 1973TIP3    H227479   6.043   5.029   1.212
 1974TIP3   OH227480   4.483   1.588   8.408
 1974TIP3    H127481   4.491   1.631   8.493
 1974TIP3    H227482   4.446   1.502   8.428
 1975TIP3   OH227483   1.258   1.825   8.248
 1975TIP3    H127484   1.265   1.897   8.311
 1975TIP3    H227485   1.166   1.826   8.221
 1976TIP3   OH227486   2.486   6.547   8.176
 1976TIP3    H127487   2.504   6.605   8.250
 1976TIP3    H227488   2.402   6.578   8.142
 1977TIP3   OH227489   2.012   1.123   6.087
 1977TIP3    H127490   2.072   1.110   6.160
 1977TIP3    H227491   1.944   1.182   6.122
 1978TIP3   OH227492   0.040   3.203   0.666
 1978TIP3    H127493   0.024   3.156   0.584
 1978TIP3    H227494   6.839   3.225   0.699
 1979TIP3   OH227495   5.585   3.141   1.773
 1979TIP3    H127496   5.560   3.175   1.686
 1979TIP3    H227497   5.668   3.183   1.792
 1980TIP3   OH227498   3.655   5.972   6.318
 1980TIP3    H127499   3.657   5.889   6.366
 1980TIP3    H227500   3.730   5.967   6.259
 1981TIP3   OH227501   5.406   0.457   7.937
 1981TIP3    H127502   5.346   0.488   7.870
 1981TIP3    H227503   5.364   0.379   7.974
 1982TIP3   OH227504   2.503   2.833   0.531
 1982TIP3    H127505   2.419   2.807   0.569
 1982TIP3    H227506   2.565   2.827   0.605
 1983TIP3   OH227507   5.505   0.724   7.654
 1983TIP3    H127508   5.489   0.742   7.747
 1983TIP3    H227509   5.432   0.667   7.628
 1984TIP3   OH227510   4.231   2.223   7.248
 1984TIP3    H127511   4.259   2.305   7.288
 1984TIP3    H227512   4.309   2.166   7.253
 1985TIP3   OH227513   2.606   2.553   1.217
 1985TIP3    H127514   2.629   2.472   1.172
 1985TIP3    H227515   2.670   2.617   1.187
 1986TIP3   OH227516   5.043   5.697   1.110
 1986TIP3    H127517   4.964   5.750   1.120
 1986TIP3    H227518   5.096   5.719   1.187
 1987TIP3   OH227519   5.654   2.869   1.965
 1987TIP3    H127520   5.682   2.917   1.887
 1987TIP3    H227521   5.559   2.870   1.962
 1988TIP3   OH227522   5.229   0.570   8.283
 1988TIP3    H127523   5.218   0.504   8.214
 1988TIP3    H227524   5.139   0.597   8.304
 1989TIP3   OH227525   0.966   1.715   1.118
 1989TIP3    H127526   1.023   1.678   1.186
 1989TIP3    H227527   0.912   1.642   1.090
 1990TIP3   OH227528   0.024   3.458   0.090
 1990TIP3    H127529   0.113   3.493   0.080
 1990TIP3    H227530   6.854   3.536   0.093
 1991TIP3   OH227531   5.145   6.844   1.590
 1991TIP3    H127532   5.218   6.845   1.652
 1991TIP3    H227533   5.067   6.839   1.645
 1992TIP3   OH227534   3.491   0.210   0.206
 1992TIP3    H127535   3.526   0.130   0.247
 1992TIP3    H227536   3.568   0.254   0.170
 1993TIP3   OH227537   3.490   6.392   6.652
 1993TIP3    H127538   3.438   6.465   6.683
 1993TIP3    H227539   3.553   6.376   6.722
 1994TIP3   OH227540   6.864   5.864   0.974
 1994TIP3    H127541   6.816   5.842   0.894
 1994TIP3    H227542   6.823   5.945   1.004
 1995TIP3   OH227543   1.656   2.256   7.860
 1995TIP3    H127544   1.689   2.225   7.945
 1995TIP3    H227545   1.567   2.287   7.880
 1996TIP3   OH227546   2.636   3.189   7.316
 1996TIP3    H127547   2.709   3.243   7.346
 1996TIP3    H227548   2.676   3.108   7.286
 1997TIP3   OH227549   1.867   1.185   0.219
 1997TIP3    H127550   1.796   1.131   0.254
 1997TIP3    H227551   1.867   1.263   0.274
 1998TIP3   OH227552   2.109   6.353   8.093
 1998TIP3    H127553   2.164   6.338   8.016
 1998TIP3    H227554   2.122   6.446   8.113
 1999TIP3   OH227555   4.363   2.608   8.528
 1999TIP3    H127556   4.423   2.535   8.543
 1999TIP3    H227557   4.282   2.581   8.571
 2000TIP3   OH227558   0.549   0.876   6.634
 2000TIP3    H127559   0.628   0.833   6.668
 2000TIP3    H227560   0.545   0.850   6.542
 2001TIP3   OH227561   2.994   1.401   2.102
 2001TIP3    H127562   3.041   1.380   2.021
 2001TIP3    H227563   3.056   1.452   2.154
 2002TIP3   OH227564   0.598   2.987   8.101
 2002TIP3    H127565   0.632   2.937   8.026
 2002TIP3    H227566   0.530   3.042   8.063
 2003TIP3   OH227567   6.879   3.790   8.372
 2003TIP3    H127568   6.814   3.760   8.436
 2003TIP3    H227569   0.077   3.762   8.408
 2004TIP3   OH227570   3.158   0.360   8.343
 2004TIP3    H127571   3.201   0.367   8.429
 2004TIP3    H227572   3.199   0.284   8.302
 2005TIP3   OH227573   1.363   2.240   7.472
 2005TIP3    H127574   1.287   2.204   7.426
 2005TIP3    H227575   1.325   2.298   7.538
 2006TIP3   OH227576   4.236   3.439   0.151
 2006TIP3    H127577   4.203   3.411   0.237
 2006TIP3    H227578   4.160   3.480   0.109
 2007TIP3   OH227579   5.500   5.363   8.639
 2007TIP3    H127580   5.567   5.312   0.022
 2007TIP3    H227581   5.508   5.451   0.014
 2008TIP3   OH227582   6.626   3.229   1.294
 2008TIP3    H127583   6.570   3.300   1.322
 2008TIP3    H227584   6.704   3.272   1.259
 2009TIP3   OH227585   3.603   3.956   1.382
 2009TIP3    H127586   3.565   3.869   1.397
 2009TIP3    H227587   3.659   3.944   1.304
 2010TIP3   OH227588   0.614   6.092   7.173
 2010TIP3    H127589   0.635   6.178   7.210
 2010TIP3    H227590   0.550   6.055   7.233
 2011TIP3   OH227591   5.031   3.586   8.101
 2011TIP3    H127592   5.077   3.510   8.065
 2011TIP3    H227593   4.973   3.615   8.030
 2012TIP3   OH227594   6.231   2.672   6.586
 2012TIP3    H127595   6.320   2.695   6.558
 2012TIP3    H227596   6.174   2.717   6.524
 2013TIP3   OH227597   6.014   0.068   0.278
 2013TIP3    H127598   6.036   0.066   0.185
 2013TIP3    H227599   5.949   6.885   0.290
 2014TIP3   OH227600   6.571   5.530   6.921
 2014TIP3    H127601   6.553   5.621   6.947
 2014TIP3    H227602   6.663   5.530   6.896
 2015TIP3   OH227603   3.099   2.075   8.638
 2015TIP3    H127604   3.024   2.047   8.585
 2015TIP3    H227605   3.094   2.170   8.639
 2016TIP3   OH227606   5.733   0.659   1.751
 2016TIP3    H127607   5.826   0.684   1.750
 2016TIP3    H227608   5.695   0.710   1.822
 2017TIP3   OH227609   4.392   5.578   1.418
 2017TIP3    H127610   4.318   5.598   1.362
 2017TIP3    H227611   4.412   5.486   1.399
 2018TIP3   OH227612   0.741   3.631   1.039
 2018TIP3    H127613   0.684   3.579   1.096
 2018TIP3    H227614   0.741   3.718   1.078
 2019TIP3   OH227615   3.060   4.326   0.551
 2019TIP3    H127616   3.013   4.304   0.470
 2019TIP3    H227617   3.091   4.242   0.584
 2020TIP3   OH227618   1.962   4.949   0.491
 2020TIP3    H127619   2.044   4.985   0.522
 2020TIP3    H227620   1.927   5.015   0.431
 2021TIP3   OH227621   5.699   5.844   7.878
 2021TIP3    H127622   5.794   5.851   7.887
 2021TIP3    H227623   5.682   5.859   7.785
 2022TIP3   OH227624   5.783   5.025   0.913
 2022TIP3    H127625   5.804   4.936   0.941
 2022TIP3    H227626   5.861   5.076   0.933
 2023TIP3   OH227627   3.859   2.695   0.083
 2023TIP3    H127628   3.876   2.708   8.652
 2023TIP3    H227629   3.838   2.601   0.091
 2024TIP3   OH227630   0.903   6.757   8.379
 2024TIP3    H127631   0.934   6.812   8.308
 2024TIP3    H227632   0.964   6.774   8.451
 2025TIP3   OH227633   6.845   4.486   6.590
 2025TIP3    H127634   6.841   4.487   6.495
 2025TIP3    H227635   6.840   4.394   6.614
 2026TIP3   OH227636   5.766   1.769   1.077
 2026TIP3    H127637   5.715   1.782   0.997
 2026TIP3    H227638   5.820   1.693   1.059
 2027TIP3   OH227639   5.538   4.418   1.104
 2027TIP3    H127640   5.472   4.470   1.058
 2027TIP3    H227641   5.533   4.332   1.063
 2028TIP3   OH227642   4.111   3.394   1.632
 2028TIP3    H127643   4.202   3.371   1.652
 2028TIP3    H227644   4.071   3.410   1.718
 2029TIP3   OH227645   2.033   3.947   8.368
 2029TIP3    H127646   1.972   3.875   8.384
 2029TIP3    H227647   1.980   4.011   8.319
 2030TIP3   OH227648   2.541   0.794   1.154
 2030TIP3    H127649   2.612   0.735   1.129
 2030TIP3    H227650   2.532   0.853   1.079
 2031TIP3   OH227651   0.599   6.557   0.451
 2031TIP3    H127652   0.505   6.551   0.432
 2031TIP3    H227653   0.618   6.650   0.448
 2032TIP3   OH227654   0.327   5.693   1.762
 2032TIP3    H127655   0.363   5.753   1.697
 2032TIP3    H227656   0.268   5.747   1.815
 2033TIP3   OH227657   3.214   5.417   0.979
 2033TIP3    H127658   3.272   5.344   0.960
 2033TIP3    H227659   3.172   5.437   0.894
 2034TIP3   OH227660   2.365   2.876   0.065
 2034TIP3    H127661   2.330   2.825   0.139
 2034TIP3    H227662   2.400   2.955   0.106
 2035TIP3   OH227663   0.085   0.426   7.878
 2035TIP3    H127664   0.064   0.333   7.872
 2035TIP3    H227665   0.061   0.461   7.792
 2036TIP3   OH227666   4.477   0.651   1.882
 2036TIP3    H127667   4.565   0.690   1.879
 2036TIP3    H227668   4.445   0.670   1.970
 2037TIP3   OH227669   1.357   2.324   0.782
 2037TIP3    H127670   1.276   2.277   0.802
 2037TIP3    H227671   1.419   2.296   0.849
 2038TIP3   OH227672   6.086   2.505   7.065
 2038TIP3    H127673   6.167   2.501   7.014
 2038TIP3    H227674   6.082   2.595   7.098
 2039TIP3   OH227675   5.575   5.550   2.277
 2039TIP3    H127676   5.528   5.579   2.356
 2039TIP3    H227677   5.547   5.460   2.265
 2040TIP3   OH227678   1.254   3.842   6.724
 2040TIP3    H127679   1.232   3.751   6.705
 2040TIP3    H227680   1.173   3.879   6.759
 2041TIP3   OH227681   0.060   0.641   0.900
 2041TIP3    H127682   0.138   0.610   0.855
 2041TIP3    H227683   0.074   0.617   0.992
 2042TIP3   OH227684   5.604   3.682   7.589
 2042TIP3    H127685   5.585   3.744   7.518
 2042TIP3    H227686   5.637   3.737   7.660
 2043TIP3   OH227687   3.681   6.321   6.831
 2043TIP3    H127688   3.746   6.256   6.806
 2043TIP3    H227689   3.682   6.321   6.926
 2044TIP3   OH227690   2.551   4.132   6.979
 2044TIP3    H127691   2.537   4.095   7.067
 2044TIP3    H227692   2.524   4.063   6.919
 2045TIP3   OH227693   6.646   1.242   8.012
 2045TIP3    H127694   6.577   1.254   7.946
 2045TIP3    H227695   6.638   1.150   8.038
 2046TIP3   OH227696   1.623   1.975   1.968
 2046TIP3    H127697   1.692   1.958   2.031
 2046TIP3    H227698   1.549   2.005   2.022
 2047TIP3   OH227699   6.374   6.645   8.581
 2047TIP3    H127700   6.302   6.582   8.576
 2047TIP3    H227701   6.427   6.615   8.654
 2048TIP3   OH227702   0.732   4.130   0.334
 2048TIP3    H127703   0.726   4.190   0.408
 2048TIP3    H227704   0.694   4.048   0.365
 2049TIP3   OH227705   5.087   2.989   0.839
 2049TIP3    H127706   5.103   2.903   0.877
 2049TIP3    H227707   5.046   3.040   0.909
 2050TIP3   OH227708   3.741   6.431   7.756
 2050TIP3    H127709   3.781   6.439   7.670
 2050TIP3    H227710   3.689   6.351   7.751
 2051TIP3   OH227711   5.064   6.173   6.814
 2051TIP3    H127712   5.073   6.078   6.805
 2051TIP3    H227713   5.070   6.205   6.724
 2052TIP3   OH227714   5.848   2.392   1.326
 2052TIP3    H127715   5.865   2.468   1.270
 2052TIP3    H227716   5.753   2.383   1.326
 2053TIP3   OH227717   1.742   5.451   0.790
 2053TIP3    H127718   1.819   5.417   0.834
 2053TIP3    H227719   1.730   5.539   0.826
 2054TIP3   OH227720   2.926   3.812   8.060
 2054TIP3    H127721   2.914   3.792   8.152
 2054TIP3    H227722   2.842   3.847   8.031
 2055TIP3   OH227723   1.208   0.485   7.345
 2055TIP3    H127724   1.290   0.533   7.337
 2055TIP3    H227725   1.141   0.553   7.357
 2056TIP3   OH227726   5.580   4.934   0.238
 2056TIP3    H127727   5.531   4.921   0.157
 2056TIP3    H227728   5.514   4.958   0.303
 2057TIP3   OH227729   6.775   5.533   7.533
 2057TIP3    H127730   6.795   5.573   7.618
 2057TIP3    H227731   6.809   5.444   7.539
 2058TIP3   OH227732   0.017   2.350   1.163
 2058TIP3    H127733   0.058   2.413   1.222
 2058TIP3    H227734   0.044   2.265   1.195
 2059TIP3   OH227735   0.462   5.940   7.339
 2059TIP3    H127736   0.457   5.854   7.381
 2059TIP3    H227737   0.423   6.000   7.403
 2060TIP3   OH227738   6.468   0.827   2.542
 2060TIP3    H127739   6.549   0.777   2.538
 2060TIP3    H227740   6.481   0.889   2.614
 2061TIP3   OH227741   6.150   1.923   7.613
 2061TIP3    H127742   6.146   1.834   7.649
 2061TIP3    H227743   6.152   1.979   7.690
 2062TIP3   OH227744   5.505   5.070   2.183
 2062TIP3    H127745   5.455   5.129   2.239
 2062TIP3    H227746   5.438   5.024   2.133
 2063TIP3   OH227747   0.662   0.051   2.156
 2063TIP3    H127748   0.599   0.114   2.193
 2063TIP3    H227749   0.732   0.047   2.222
 2064TIP3   OH227750   5.685   1.381   1.672
 2064TIP3    H127751   5.770   1.340   1.688
 2064TIP3    H227752   5.690   1.465   1.718
 2065TIP3   OH227753   2.869   4.095   8.610
 2065TIP3    H127754   2.825   4.157   0.004
 2065TIP3    H227755   2.962   4.103   8.632
 2066TIP3   OH227756   4.835   3.866   7.270
 2066TIP3    H127757   4.861   3.836   7.357
 2066TIP3    H227758   4.875   3.803   7.210
 2067TIP3   OH227759   6.738   6.562   7.039
 2067TIP3    H127760   6.710   6.480   6.999
 2067TIP3    H227761   6.723   6.628   6.971
 2068TIP3   OH227762   5.880   3.471   0.642
 2068TIP3    H127763   5.946   3.538   0.622
 2068TIP3    H227764   5.876   3.469   0.738
 2069TIP3   OH227765   2.239   3.070   7.190
 2069TIP3    H127766   2.207   3.160   7.180
 2069TIP3    H227767   2.281   3.069   7.276
 2070TIP3   OH227768   5.415   4.106   1.620
 2070TIP3    H127769   5.465   4.172   1.668
 2070TIP3    H227770   5.480   4.040   1.594
 2071TIP3   OH227771   2.375   5.869   1.420
 2071TIP3    H127772   2.313   5.829   1.481
 2071TIP3    H227773   2.370   5.963   1.439
 2072TIP3   OH227774   5.462   5.598   8.032
 2072TIP3    H127775   5.520   5.629   8.101
 2072TIP3    H227776   5.467   5.666   7.965
 2073TIP3   OH227777   2.219   1.185   8.282
 2073TIP3    H127778   2.140   1.238   8.289
 2073TIP3    H227779   2.291   1.248   8.289
 2074TIP3   OH227780   1.617   1.057   8.420
 2074TIP3    H127781   1.531   1.060   8.462
 2074TIP3    H227782   1.622   1.139   8.372
 2075TIP3   OH227783   1.619   5.481   8.124
 2075TIP3    H127784   1.634   5.482   8.029
 2075TIP3    H227785   1.529   5.449   8.133
 2076TIP3   OH227786   5.376   0.858   0.903
 2076TIP3    H127787   5.410   0.910   0.830
 2076TIP3    H227788   5.448   0.858   0.967
 2077TIP3   OH227789   2.789   4.282   0.631
 2077TIP3    H127790   2.884   4.285   0.621
 2077TIP3    H227791   2.774   4.309   0.721
 2078TIP3   OH227792   5.110   4.938   0.486
 2078TIP3    H127793   5.102   4.915   0.578
 2078TIP3    H227794   5.176   4.878   0.452
 2079TIP3   OH227795   6.028   6.422   7.602
 2079TIP3    H127796   6.055   6.509   7.571
 2079TIP3    H227797   6.087   6.403   7.674
 2080TIP3   OH227798   5.754   2.724   0.948
 2080TIP3    H127799   5.701   2.672   0.888
 2080TIP3    H227800   5.745   2.814   0.917
 2081TIP3   OH227801   1.705   6.382   0.864
 2081TIP3    H127802   1.702   6.287   0.868
 2081TIP3    H227803   1.672   6.411   0.949
 2082TIP3   OH227804   2.121   2.611   7.148
 2082TIP3    H127805   2.188   2.680   7.153
 2082TIP3    H227806   2.076   2.628   7.065
 2083TIP3   OH227807   4.592   4.966   0.360
 2083TIP3    H127808   4.665   4.968   0.421
 2083TIP3    H227809   4.633   4.971   0.273
 2084TIP3   OH227810   1.393   6.625   0.835
 2084TIP3    H127811   1.385   6.719   0.853
 2084TIP3    H227812   1.451   6.621   0.759
 2085TIP3   OH227813   0.173   1.772   1.875
 2085TIP3    H127814   0.222   1.729   1.806
 2085TIP3    H227815   0.214   1.858   1.886
 2086TIP3   OH227816   4.561   6.676   7.498
 2086TIP3    H127817   4.556   6.706   7.407
 2086TIP3    H227818   4.577   6.582   7.492
 2087TIP3   OH227819   6.719   2.662   7.175
 2087TIP3    H127820   6.725   2.575   7.135
 2087TIP3    H227821   6.672   2.714   7.110
 2088TIP3   OH227822   2.375   2.996   7.427
 2088TIP3    H127823   2.431   3.047   7.486
 2088TIP3    H227824   2.435   2.965   7.358
 2089TIP3   OH227825   4.154   2.868   7.144
 2089TIP3    H127826   4.179   2.907   7.227
 2089TIP3    H227827   4.058   2.867   7.145
 2090TIP3   OH227828   2.617   0.166   1.591
 2090TIP3    H127829   2.543   0.217   1.560
 2090TIP3    H227830   2.672   0.228   1.639
 2091TIP3   OH227831   4.947   6.213   6.469
 2091TIP3    H127832   5.018   6.235   6.530
 2091TIP3    H227833   4.868   6.214   6.523
 2092TIP3   OH227834   4.058   0.516   7.846
 2092TIP3    H127835   4.141   0.545   7.884
 2092TIP3    H227836   4.008   0.481   7.920
 2093TIP3   OH227837   3.927   0.270   6.555
 2093TIP3    H127838   3.873   0.204   6.512
 2093TIP3    H227839   3.988   0.220   6.609
 2094TIP3   OH227840   2.247   2.333   0.568
 2094TIP3    H127841   2.155   2.355   0.558
 2094TIP3    H227842   2.255   2.301   0.658
 2095TIP3   OH227843   4.442   6.792   8.392
 2095TIP3    H127844   4.528   6.826   8.416
 2095TIP3    H227845   4.388   6.869   8.378
 2096TIP3   OH227846   3.373   1.387   1.653
 2096TIP3    H127847   3.358   1.392   1.748
 2096TIP3    H227848   3.460   1.425   1.641
 2097TIP3   OH227849   3.620   2.327   8.606
 2097TIP3    H127850   3.533   2.299   8.636
 2097TIP3    H227851   3.659   2.248   8.569
 2098TIP3   OH227852   4.431   4.873   2.103
 2098TIP3    H127853   4.337   4.861   2.090
 2098TIP3    H227854   4.462   4.912   2.021
 2099TIP3   OH227855   6.781   4.596   7.333
 2099TIP3    H127856   6.710   4.606   7.269
 2099TIP3    H227857   6.857   4.570   7.281
 2100TIP3   OH227858   1.808   6.051   7.804
 2100TIP3    H127859   1.810   6.074   7.896
 2100TIP3    H227860   1.899   6.058   7.774
 2101TIP3   OH227861   5.686   6.132   0.547
 2101TIP3    H127862   5.663   6.201   0.609
 2101TIP3    H227863   5.603   6.090   0.526
 2102TIP3   OH227864   5.603   6.772   6.614
 2102TIP3    H127865   5.653   6.816   6.546
 2102TIP3    H227866   5.611   6.829   6.691
 2103TIP3   OH227867   2.758   0.388   1.667
 2103TIP3    H127868   2.720   0.432   1.590
 2103TIP3    H227869   2.773   0.458   1.730
 2104TIP3   OH227870   0.913   3.376   7.916
 2104TIP3    H127871   0.831   3.373   7.866
 2104TIP3    H227872   0.953   3.459   7.892
 2105TIP3   OH227873   5.348   5.047   1.180
 2105TIP3    H127874   5.346   5.106   1.255
 2105TIP3    H227875   5.295   5.091   1.113
 2106TIP3   OH227876   6.196   1.797   8.273
 2106TIP3    H127877   6.239   1.866   8.323
 2106TIP3    H227878   6.250   1.719   8.287
 2107TIP3   OH227879   0.971   2.358   7.823
 2107TIP3    H127880   0.970   2.395   7.912
 2107TIP3    H227881   0.979   2.264   7.836
 2108TIP3   OH227882   4.688   2.425   1.277
 2108TIP3    H127883   4.749   2.465   1.215
 2108TIP3    H227884   4.602   2.442   1.240
 2109TIP3   OH227885   3.247   3.464   8.470
 2109TIP3    H127886   3.201   3.413   8.403
 2109TIP3    H227887   3.183   3.475   8.540
 2110TIP3   OH227888   6.268   6.434   1.678
 2110TIP3    H127889   6.240   6.486   1.753
 2110TIP3    H227890   6.288   6.498   1.610
 2111TIP3   OH227891   5.009   3.145   7.660
 2111TIP3    H127892   5.093   3.156   7.616
 2111TIP3    H227893   5.032   3.127   7.751
 2112TIP3   OH227894   6.577   5.489   0.438
 2112TIP3    H127895   6.655   5.446   0.472
 2112TIP3    H227896   6.600   5.582   0.438
 2113TIP3   OH227897   3.298   3.314   7.902
 2113TIP3    H127898   3.217   3.297   7.854
 2113TIP3    H227899   3.332   3.227   7.922
 2114TIP3   OH227900   3.289   2.278   1.838
 2114TIP3    H127901   3.287   2.370   1.863
 2114TIP3    H227902   3.327   2.232   1.913
 2115TIP3   OH227903   3.123   4.194   0.187
 2115TIP3    H127904   3.033   4.209   0.217
 2115TIP3    H227905   3.172   4.176   0.267
 2116TIP3   OH227906   1.694   3.040   0.571
 2116TIP3    H127907   1.722   3.034   0.479
 2116TIP3    H227908   1.741   2.969   0.615
 2117TIP3   OH227909   6.748   5.152   0.303
 2117TIP3    H127910   6.688   5.119   0.370
 2117TIP3    H227911   6.834   5.149   0.343
 2118TIP3   OH227912   2.246   4.277   7.837
 2118TIP3    H127913   2.194   4.221   7.895
 2118TIP3    H227914   2.336   4.252   7.854
 2119TIP3   OH227915   0.506   2.115   8.192
 2119TIP3    H127916   0.548   2.176   8.131
 2119TIP3    H227917   0.450   2.171   8.246
 2120TIP3   OH227918   0.742   0.497   6.616
 2120TIP3    H127919   0.820   0.538   6.654
 2120TIP3    H227920   0.771   0.409   6.591
 2121TIP3   OH227921   2.947   4.472   7.180
 2121TIP3    H127922   2.888   4.529   7.131
 2121TIP3    H227923   2.917   4.479   7.271
 2122TIP3   OH227924   5.176   1.854   1.224
 2122TIP3    H127925   5.154   1.790   1.156
 2122TIP3    H227926   5.092   1.885   1.256
 2123TIP3   OH227927   5.439   6.136   1.397
 2123TIP3    H127928   5.490   6.111   1.474
 2123TIP3    H227929   5.374   6.066   1.387
 2124TIP3   OH227930   3.669   3.506   7.637
 2124TIP3    H127931   3.711   3.493   7.552
 2124TIP3    H227932   3.741   3.506   7.700
 2125TIP3   OH227933   4.851   5.926   8.428
 2125TIP3    H127934   4.850   5.928   8.523
 2125TIP3    H227935   4.918   5.990   8.403
 2126TIP3   OH227936   1.423   0.509   6.954
 2126TIP3    H127937   1.477   0.512   7.033
 2126TIP3    H227938   1.476   0.550   6.886
 2127TIP3   OH227939   5.389   4.901   7.167
 2127TIP3    H127940   5.390   4.806   7.172
 2127TIP3    H227941   5.309   4.922   7.119
 2128TIP3   OH227942   5.681   5.134   7.902
 2128TIP3    H127943   5.736   5.184   7.841
 2128TIP3    H227944   5.663   5.196   7.973
 2129TIP3   OH227945   5.544   0.175   7.218
 2129TIP3    H127946   5.550   0.193   7.312
 2129TIP3    H227947   5.593   0.246   7.176
 2130TIP3   OH227948   5.017   0.192   8.001
 2130TIP3    H127949   4.994   0.237   7.919
 2130TIP3    H227950   4.963   0.113   8.001
 2131TIP3   OH227951   1.398   1.448   0.103
 2131TIP3    H127952   1.305   1.465   0.121
 2131TIP3    H227953   1.443   1.474   0.184
 2132TIP3   OH227954   1.127   6.186   7.920
 2132TIP3    H127955   1.084   6.253   7.974
 2132TIP3    H227956   1.209   6.228   7.892
 2133TIP3   OH227957   3.289   2.623   7.807
 2133TIP3    H127958   3.257   2.712   7.795
 2133TIP3    H227959   3.316   2.595   7.720
 2134TIP3   OH227960   5.281   5.421   7.945
 2134TIP3    H127961   5.357   5.463   7.985
 2134TIP3    H227962   5.252   5.483   7.877
 2135TIP3   OH227963   0.770   3.642   0.763
 2135TIP3    H127964   0.826   3.720   0.753
 2135TIP3    H227965   0.748   3.641   0.856
 2136TIP3   OH227966   2.420   6.591   0.879
 2136TIP3    H127967   2.391   6.507   0.844
 2136TIP3    H227968   2.428   6.575   0.973
 2137TIP3   OH227969   5.005   0.484   0.116
 2137TIP3    H127970   5.038   0.571   0.095
 2137TIP3    H227971   5.016   0.434   0.035
 2138TIP3   OH227972   6.023   0.809   8.049
 2138TIP3    H127973   6.090   0.790   7.983
 2138TIP3    H227974   5.940   0.806   8.002
 2139TIP3   OH227975   1.452   0.617   1.321
 2139TIP3    H127976   1.529   0.667   1.346
 2139TIP3    H227977   1.416   0.663   1.246
 2140TIP3   OH227978   0.369   4.886   1.823
 2140TIP3    H127979   0.361   4.975   1.857
 2140TIP3    H227980   0.341   4.892   1.732
 2141TIP3   OH227981   4.774   3.179   8.350
 2141TIP3    H127982   4.838   3.147   8.414
 2141TIP3    H227983   4.714   3.232   8.401
 2142TIP3   OH227984   6.273   5.273   6.830
 2142TIP3    H127985   6.217   5.218   6.774
 2142TIP3    H227986   6.347   5.297   6.774
 2143TIP3   OH227987   6.783   1.558   2.243
 2143TIP3    H127988   6.729   1.551   2.322
 2143TIP3    H227989   6.867   1.591   2.274
 2144TIP3   OH227990   5.683   3.168   2.133
 2144TIP3    H127991   5.660   3.119   2.212
 2144TIP3    H227992   5.605   3.161   2.077
 2145TIP3   OH227993   5.354   0.566   1.740
 2145TIP3    H127994   5.276   0.517   1.717
 2145TIP3    H227995   5.391   0.519   1.815
 2146TIP3   OH227996   0.279   0.026   8.195
 2146TIP3    H127997   0.240   0.053   8.278
 2146TIP3    H227998   0.214   6.855   8.155
 2147TIP3   OH227999   1.247   6.049   8.554
 2147TIP3    H128000   1.332   6.083   8.580
 2147TIP3    H228001   1.214   6.112   8.490
 2148TIP3   OH228002   2.147   0.260   7.786
 2148TIP3    H128003   2.135   0.166   7.803
 2148TIP3    H228004   2.213   0.263   7.718
 2149TIP3   OH228005   3.207   0.292   1.464
 2149TIP3    H128006   3.238   0.242   1.389
 2149TIP3    H228007   3.267   0.366   1.471
 2150TIP3   OH228008   4.869   4.969   0.365
 2150TIP3    H128009   4.955   4.962   0.407
 2150TIP3    H228010   4.862   5.060   0.338
 2151TIP3   OH228011   4.606   3.390   8.368
 2151TIP3    H128012   4.535   3.397   8.432
 2151TIP3    H228013   4.567   3.419   8.286
 2152TIP3   OH228014   2.815   6.554   2.002
 2152TIP3    H128015   2.792   6.461   2.000
 2152TIP3    H228016   2.731   6.599   2.014
 2153TIP3   OH228017   3.489   0.442   1.479
 2153TIP3    H128018   3.426   0.502   1.518
 2153TIP3    H228019   3.526   0.394   1.553
 2154TIP3   OH228020   0.283   4.092   7.913
 2154TIP3    H128021   0.322   4.142   7.841
 2154TIP3    H228022   0.332   4.119   7.991
 2155TIP3   OH228023   5.007   1.738   1.048
 2155TIP3    H128024   4.961   1.717   1.129
 2155TIP3    H228025   5.019   1.653   1.005
 2156TIP3   OH228026   5.126   3.143   6.690
 2156TIP3    H128027   5.072   3.064   6.699
 2156TIP3    H228028   5.173   3.131   6.607
 2157TIP3   OH228029   1.701   4.856   0.322
 2157TIP3    H128030   1.647   4.871   0.399
 2157TIP3    H228031   1.728   4.764   0.328
 2158TIP3   OH228032   6.371   0.446   0.127
 2158TIP3    H128033   6.381   0.368   0.181
 2158TIP3    H228034   6.461   0.476   0.111
 2159TIP3   OH228035   6.801   0.367   0.322
 2159TIP3    H128036   6.775   0.275   0.315
 2159TIP3    H228037   0.005   0.368   0.291
 2160TIP3   OH228038   3.638   0.458   7.640
 2160TIP3    H128039   3.723   0.484   7.603
 2160TIP3    H228040   3.631   0.365   7.620
 2161TIP3   OH228041   6.130   3.898   1.781
 2161TIP3    H128042   6.079   3.843   1.722
 2161TIP3    H228043   6.111   3.988   1.752
 2162TIP3   OH228044   5.617   2.614   0.693
 2162TIP3    H128045   5.572   2.658   0.621
 2162TIP3    H228046   5.547   2.585   0.751
 2163TIP3   OH228047   6.432   0.194   7.173
 2163TIP3    H128048   6.500   0.202   7.239
 2163TIP3    H228049   6.458   0.253   7.103
 2164TIP3   OH228050   6.808   5.707   7.966
 2164TIP3    H128051   6.758   5.782   8.000
 2164TIP3    H228052   0.000   5.705   8.020
 2165TIP3   OH228053   0.862   4.458   6.302
 2165TIP3    H128054   0.951   4.481   6.331
 2165TIP3    H228055   0.805   4.510   6.359
 2166TIP3   OH228056   6.236   2.466   1.832
 2166TIP3    H128057   6.262   2.389   1.882
 2166TIP3    H228058   6.252   2.540   1.891
 2167TIP3   OH228059   5.685   2.949   6.998
 2167TIP3    H128060   5.643   2.900   6.927
 2167TIP3    H228061   5.737   3.016   6.954
 2168TIP3   OH228062   5.468   4.000   1.060
 2168TIP3    H128063   5.557   4.034   1.059
 2168TIP3    H228064   5.444   3.997   1.152
 2169TIP3   OH228065   0.406   5.216   8.046
 2169TIP3    H128066   0.426   5.263   7.965
 2169TIP3    H228067   0.471   5.247   8.109
 2170TIP3   OH228068   5.121   1.448   1.704
 2170TIP3    H128069   5.165   1.365   1.721
 2170TIP3    H228070   5.071   1.466   1.784
 2171TIP3   OH228071   3.907   5.540   7.062
 2171TIP3    H128072   3.957   5.533   7.143
 2171TIP3    H228073   3.920   5.630   7.033
 2172TIP3   OH228074   1.059   6.302   6.398
 2172TIP3    H128075   0.974   6.259   6.406
 2172TIP3    H228076   1.055   6.346   6.313
 2173TIP3   OH228077   4.970   3.089   1.100
 2173TIP3    H128078   4.922   3.129   1.173
 2173TIP3    H228079   5.062   3.100   1.123
 2174TIP3   OH228080   3.155   1.492   6.348
 2174TIP3    H128081   3.130   1.413   6.300
 2174TIP3    H228082   3.105   1.489   6.429
 2175TIP3   OH228083   2.437   3.216   1.526
 2175TIP3    H128084   2.486   3.217   1.444
 2175TIP3    H228085   2.427   3.309   1.549
 2176TIP3   OH228086   0.273   6.368   7.307
 2176TIP3    H128087   0.358   6.328   7.290
 2176TIP3    H228088   0.252   6.342   7.396
 2177TIP3   OH228089   6.571   2.634   0.325
 2177TIP3    H128090   6.572   2.567   0.257
 2177TIP3    H228091   6.649   2.616   0.378
 2178TIP3   OH228092   6.094   6.303   1.090
 2178TIP3    H128093   6.000   6.306   1.107
 2178TIP3    H228094   6.113   6.209   1.079
 2179TIP3   OH228095   0.879   0.876   8.297
 2179TIP3    H128096   0.839   0.795   8.328
 2179TIP3    H228097   0.969   0.872   8.329
 2180TIP3   OH228098   6.426   0.913   1.226
 2180TIP3    H128099   6.399   0.963   1.150
 2180TIP3    H228100   6.504   0.866   1.197
 2181TIP3   OH228101   1.432   2.868   8.090
 2181TIP3    H128102   1.465   2.907   8.170
 2181TIP3    H228103   1.480   2.785   8.082
 2182TIP3   OH228104   4.781   4.066   7.480
 2182TIP3    H128105   4.804   3.978   7.511
 2182TIP3    H228106   4.769   4.055   7.385
 2183TIP3   OH228107   2.465   5.690   7.437
 2183TIP3    H128108   2.527   5.762   7.448
 2183TIP3    H228109   2.515   5.622   7.390
 2184TIP3   OH228110   2.324   4.208   1.033
 2184TIP3    H128111   2.307   4.157   0.953
 2184TIP3    H228112   2.287   4.294   1.013
 2185TIP3   OH228113   5.188   3.203   1.519
 2185TIP3    H128114   5.104   3.158   1.506
 2185TIP3    H228115   5.203   3.198   1.613
 2186TIP3   OH228116   4.440   1.719   7.654
 2186TIP3    H128117   4.430   1.763   7.739
 2186TIP3    H228118   4.526   1.746   7.623
 2187TIP3   OH228119   6.865   1.808   8.187
 2187TIP3    H128120   6.799   1.869   8.219
 2187TIP3    H228121   6.856   1.811   8.091
 2188TIP3   OH228122   1.951   0.931   1.253
 2188TIP3    H128123   1.922   0.958   1.340
 2188TIP3    H228124   1.879   0.954   1.195
 2189TIP3   OH228125   4.932   5.052   1.717
 2189TIP3    H128126   5.016   5.060   1.673
 2189TIP3    H228127   4.926   4.959   1.739
 2190TIP3   OH228128   4.863   5.902   0.628
 2190TIP3    H128129   4.802   5.886   0.700
 2190TIP3    H228130   4.950   5.896   0.668
 2191TIP3   OH228131   4.695   0.002   8.411
 2191TIP3    H128132   4.776   6.838   8.395
 2191TIP3    H228133   4.717   0.059   8.485
 2192TIP3   OH228134   6.706   3.614   0.229
 2192TIP3    H128135   6.640   3.672   0.192
 2192TIP3    H228136   6.745   3.664   0.301
 2193TIP3   OH228137   6.695   6.081   1.075
 2193TIP3    H128138   6.604   6.109   1.067
 2193TIP3    H228139   6.742   6.159   1.103
 2194TIP3   OH228140   4.137   3.912   8.487
 2194TIP3    H128141   4.171   3.967   8.416
 2194TIP3    H228142   4.091   3.841   8.442
 2195TIP3   OH228143   5.615   1.883   0.403
 2195TIP3    H128144   5.547   1.917   0.345
 2195TIP3    H228145   5.651   1.807   0.356
 2196TIP3   OH228146   5.788   0.652   8.197
 2196TIP3    H128147   5.738   0.712   8.141
 2196TIP3    H228148   5.876   0.651   8.159
 2197TIP3   OH228149   6.863   3.452   8.446
 2197TIP3    H128150   6.780   3.468   8.400
 2197TIP3    H228151   6.859   3.510   8.522
 2198TIP3   OH228152   1.609   0.026   7.684
 2198TIP3    H128153   1.663   0.104   7.694
 2198TIP3    H228154   1.519   0.059   7.685
 2199TIP3   OH228155   5.066   4.535   1.049
 2199TIP3    H128156   5.139   4.550   0.989
 2199TIP3    H228157   5.107   4.505   1.130
 2200TIP3   OH228158   2.769   2.775   1.054
 2200TIP3    H128159   2.843   2.781   1.114
 2200TIP3    H228160   2.790   2.703   0.995
 2201TIP3   OH228161   6.242   2.710   8.553
 2201TIP3    H128162   6.326   2.704   8.598
 2201TIP3    H228163   6.242   2.797   8.512
 2202TIP3   OH228164   0.251   0.697   8.332
 2202TIP3    H128165   0.169   0.653   8.356
 2202TIP3    H228166   0.273   0.749   8.409
 2203TIP3   OH228167   1.491   6.527   8.068
 2203TIP3    H128168   1.474   6.573   8.151
 2203TIP3    H228169   1.511   6.596   8.006
 2204TIP3   OH228170   1.417   2.290   6.139
 2204TIP3    H128171   1.346   2.354   6.134
 2204TIP3    H228172   1.489   2.338   6.182
 2205TIP3   OH228173   2.468   2.719   1.369
 2205TIP3    H128174   2.391   2.675   1.404
 2205TIP3    H228175   2.509   2.654   1.312
 2206TIP3   OH228176   5.332   3.368   7.626
 2206TIP3    H128177   5.323   3.371   7.722
 2206TIP3    H228178   5.405   3.308   7.610
 2207TIP3   OH228179   4.918   1.803   1.830
 2207TIP3    H128180   4.875   1.861   1.892
 2207TIP3    H228181   4.975   1.748   1.884
 2208TIP3   OH228182   1.954   6.398   1.211
 2208TIP3    H128183   1.974   6.452   1.135
 2208TIP3    H228184   2.035   6.349   1.228
 2209TIP3   OH228185   0.401   4.877   1.092
 2209TIP3    H128186   0.311   4.908   1.082
 2209TIP3    H228187   0.437   4.929   1.164
 2210TIP3   OH228188   3.249   0.607   0.272
 2210TIP3    H128189   3.284   0.696   0.273
 2210TIP3    H228190   3.188   0.604   0.346
 2211TIP3   OH228191   3.256   6.110   7.974
 2211TIP3    H128192   3.220   6.022   7.979
 2211TIP3    H228193   3.182   6.165   7.948
 2212TIP3   OH228194   5.076   4.195   0.067
 2212TIP3    H128195   5.132   4.145   0.008
 2212TIP3    H228196   5.061   4.137   0.142
 2213TIP3   OH228197   6.498   2.010   0.406
 2213TIP3    H128198   6.576   1.986   0.456
 2213TIP3    H228199   6.449   2.068   0.464
 2214TIP3   OH228200   5.721   5.806   6.378
 2214TIP3    H128201   5.744   5.719   6.345
 2214TIP3    H228202   5.730   5.799   6.473
 2215TIP3   OH228203   2.088   1.213   6.580
 2215TIP3    H128204   2.084   1.289   6.521
 2215TIP3    H228205   2.177   1.180   6.570
 2216TIP3   OH228206   1.903   5.023   1.364
 2216TIP3    H128207   1.963   4.948   1.366
 2216TIP3    H228208   1.888   5.039   1.271
 2217TIP3   OH228209   6.383   5.864   1.486
 2217TIP3    H128210   6.378   5.812   1.406
 2217TIP3    H228211   6.292   5.872   1.515
 2218TIP3   OH228212   1.708   2.990   1.057
 2218TIP3    H128213   1.712   3.054   1.129
 2218TIP3    H228214   1.629   3.015   1.009
 2219TIP3   OH228215   3.496   3.461   8.592
 2219TIP3    H128216   3.440   3.483   8.517
 2219TIP3    H228217   3.535   3.377   8.569
 2220TIP3   OH228218   5.893   2.606   0.307
 2220TIP3    H128219   5.830   2.563   0.250
 2220TIP3    H228220   5.893   2.553   0.387
 2221TIP3   OH228221   4.805   0.855   0.193
 2221TIP3    H128222   4.713   0.881   0.197
 2221TIP3    H228223   4.848   0.913   0.256
 2222TIP3   OH228224   6.372   2.186   7.970
 2222TIP3    H128225   6.373   2.187   8.066
 2222TIP3    H228226   6.320   2.262   7.946
 2223TIP3   OH228227   5.324   6.872   8.348
 2223TIP3    H128228   5.359   0.069   8.318
 2223TIP3    H228229   5.280   6.835   8.271
 2224TIP3   OH228230   5.813   1.881   6.480
 2224TIP3    H128231   5.909   1.883   6.479
 2224TIP3    H228232   5.791   1.788   6.471
 2225TIP3   OH228233   1.139   4.917   7.582
 2225TIP3    H128234   1.219   4.931   7.633
 2225TIP3    H228235   1.112   4.828   7.604
 2226TIP3   OH228236   2.382   2.239   6.699
 2226TIP3    H128237   2.297   2.250   6.657
 2226TIP3    H228238   2.422   2.326   6.694
 2227TIP3   OH228239   3.273   1.901   1.734
 2227TIP3    H128240   3.196   1.956   1.744
 2227TIP3    H228241   3.335   1.934   1.799
 2228TIP3   OH228242   1.879   5.194   0.372
 2228TIP3    H128243   1.828   5.193   0.291
 2228TIP3    H228244   1.970   5.205   0.343
 2229TIP3   OH228245   0.825   3.557   0.343
 2229TIP3    H128246   0.733   3.531   0.352
 2229TIP3    H228247   0.862   3.542   0.430
 2230TIP3   OH228248   1.435   4.238   1.605
 2230TIP3    H128249   1.429   4.154   1.561
 2230TIP3    H228250   1.480   4.295   1.543
 2231TIP3   OH228251   1.170   6.075   7.382
 2231TIP3    H128252   1.162   6.011   7.310
 2231TIP3    H228253   1.240   6.041   7.437
 2232TIP3   OH228254   0.764   1.422   6.148
 2232TIP3    H128255   0.715   1.437   6.228
 2232TIP3    H228256   0.753   1.329   6.130
 2233TIP3   OH228257   5.384   0.110   6.571
 2233TIP3    H128258   5.307   0.144   6.618
 2233TIP3    H228259   5.454   0.111   6.636
 2234TIP3   OH228260   2.916   3.319   2.275
 2234TIP3    H128261   2.987   3.267   2.313
 2234TIP3    H228262   2.952   3.351   2.193
 2235TIP3   OH228263   3.873   6.490   8.308
 2235TIP3    H128264   3.914   6.406   8.330
 2235TIP3    H228265   3.846   6.480   8.217
 2236TIP3   OH228266   3.276   3.948   7.955
 2236TIP3    H128267   3.344   3.987   8.009
 2236TIP3    H228268   3.319   3.928   7.872
 2237TIP3   OH228269   4.269   0.228   7.357
 2237TIP3    H128270   4.221   0.298   7.311
 2237TIP3    H228271   4.344   0.210   7.301
 2238TIP3   OH228272   1.253   1.213   0.044
 2238TIP3    H128273   1.232   1.237   8.616
 2238TIP3    H228274   1.339   1.251   0.060
 2239TIP3   OH228275   1.635   6.469   7.671
 2239TIP3    H128276   1.561   6.426   7.713
 2239TIP3    H228277   1.621   6.562   7.688
 2240TIP3   OH228278   1.437   3.486   0.057
 2240TIP3    H128279   1.357   3.477   0.006
 2240TIP3    H228280   1.416   3.549   0.125
 2241TIP3   OH228281   3.625   1.681   0.096
 2241TIP3    H128282   3.672   1.633   0.027
 2241TIP3    H228283   3.680   1.669   0.174
 2242TIP3   OH228284   4.102   4.374   7.621
 2242TIP3    H128285   4.135   4.456   7.584
 2242TIP3    H228286   4.179   4.336   7.663
 2243TIP3   OH228287   1.897   2.287   1.338
 2243TIP3    H128288   1.883   2.197   1.366
 2243TIP3    H228289   1.932   2.332   1.416
 2244TIP3   OH228290   0.491   2.246   7.501
 2244TIP3    H128291   0.547   2.198   7.439
 2244TIP3    H228292   0.513   2.338   7.487
 2245TIP3   OH228293   4.882   1.484   0.443
 2245TIP3    H128294   4.951   1.524   0.497
 2245TIP3    H228295   4.807   1.479   0.501
 2246TIP3   OH228296   0.848   4.670   0.859
 2246TIP3    H128297   0.916   4.616   0.901
 2246TIP3    H228298   0.853   4.645   0.766
 2247TIP3   OH228299   4.076   5.852   7.951
 2247TIP3    H128300   4.003   5.807   7.908
 2247TIP3    H228301   4.077   5.939   7.912
 2248TIP3   OH228302   1.668   1.524   7.491
 2248TIP3    H128303   1.716   1.455   7.445
 2248TIP3    H228304   1.725   1.547   7.565
 2249TIP3   OH228305   6.028   1.649   7.435
 2249TIP3    H128306   6.104   1.639   7.492
 2249TIP3    H228307   5.973   1.574   7.456
 2250TIP3   OH228308   4.249   2.650   7.715
 2250TIP3    H128309   4.221   2.636   7.805
 2250TIP3    H228310   4.223   2.569   7.670
 2251TIP3   OH228311   1.356   5.440   7.442
 2251TIP3    H128312   1.312   5.522   7.466
 2251TIP3    H228313   1.319   5.375   7.501
 2252TIP3   OH228314   1.211   6.635   0.407
 2252TIP3    H128315   1.253   6.717   0.379
 2252TIP3    H228316   1.220   6.577   0.332
 2253TIP3   OH228317   1.992   6.882   8.173
 2253TIP3    H128318   2.071   6.829   8.162
 2253TIP3    H228319   2.008   0.075   8.121
 2254TIP3   OH228320   5.673   4.350   8.146
 2254TIP3    H128321   5.666   4.360   8.241
 2254TIP3    H228322   5.645   4.259   8.130
 2255TIP3   OH228323   5.163   3.869   1.047
 2255TIP3    H128324   5.105   3.794   1.034
 2255TIP3    H228325   5.172   3.877   1.142
 2256TIP3   OH228326   2.078   6.797   1.259
 2256TIP3    H128327   2.147   6.783   1.194
 2256TIP3    H228328   2.124   6.801   1.343
 2257TIP3   OH228329   5.716   0.411   1.934
 2257TIP3    H128330   5.691   0.499   1.907
 2257TIP3    H228331   5.632   0.366   1.947
 2258TIP3   OH228332   1.531   6.052   0.988
 2258TIP3    H128333   1.542   6.112   1.062
 2258TIP3    H228334   1.445   6.013   1.002
 2259TIP3   OH228335   1.763   3.613   0.665
 2259TIP3    H128336   1.750   3.581   0.575
 2259TIP3    H228337   1.793   3.536   0.713
 2260TIP3   OH228338   6.382   6.211   7.812
 2260TIP3    H128339   6.470   6.230   7.780
 2260TIP3    H228340   6.397   6.167   7.896
 2261TIP3   OH228341   5.452   1.106   2.589
 2261TIP3    H128342   5.482   1.017   2.571
 2261TIP3    H228343   5.531   1.151   2.620
 2262TIP3   OH228344   0.164   3.588   0.520
 2262TIP3    H128345   0.190   3.625   0.436
 2262TIP3    H228346   0.156   3.494   0.503
 2263TIP3   OH228347   5.535   0.894   2.216
 2263TIP3    H128348   5.521   0.828   2.284
 2263TIP3    H228349   5.582   0.848   2.146
 2264TIP3   OH228350   4.719   3.049   0.991
 2264TIP3    H128351   4.810   3.070   1.011
 2264TIP3    H228352   4.707   2.961   1.025
 2265TIP3   OH228353   0.823   4.250   1.824
 2265TIP3    H128354   0.781   4.215   1.903
 2265TIP3    H228355   0.752   4.253   1.759
 2266TIP3   OH228356   4.464   4.282   6.810
 2266TIP3    H128357   4.414   4.287   6.729
 2266TIP3    H228358   4.551   4.254   6.783
 2267TIP3   OH228359   5.478   5.848   0.664
 2267TIP3    H128360   5.497   5.855   0.757
 2267TIP3    H228361   5.411   5.915   0.648
 2268TIP3   OH228362   3.954   6.375   1.299
 2268TIP3    H128363   3.980   6.401   1.210
 2268TIP3    H228364   3.859   6.370   1.295
 2269TIP3   OH228365   1.156   1.598   1.462
 2269TIP3    H128366   1.090   1.529   1.461
 2269TIP3    H228367   1.169   1.617   1.555
 2270TIP3   OH228368   4.890   0.228   0.210
 2270TIP3    H128369   4.944   0.307   0.203
 2270TIP3    H228370   4.884   0.212   0.304
 2271TIP3   OH228371   3.622   2.377   0.463
 2271TIP3    H128372   3.638   2.283   0.470
 2271TIP3    H228373   3.701   2.411   0.422
 2272TIP3   OH228374   6.698   2.945   1.535
 2272TIP3    H128375   6.617   2.991   1.554
 2272TIP3    H228376   6.679   2.892   1.457
 2273TIP3   OH228377   0.167   6.388   6.763
 2273TIP3    H128378   0.101   6.455   6.746
 2273TIP3    H228379   0.191   6.356   6.676
 2274TIP3   OH228380   1.566   2.177   8.383
 2274TIP3    H128381   1.546   2.212   8.470
 2274TIP3    H228382   1.501   2.109   8.369
 2275TIP3   OH228383   4.898   3.905   1.529
 2275TIP3    H128384   4.841   3.828   1.532
 2275TIP3    H228385   4.940   3.906   1.615
 2276TIP3   OH228386   0.600   3.191   0.249
 2276TIP3    H128387   0.623   3.177   0.157
 2276TIP3    H228388   0.680   3.173   0.297
 2277TIP3   OH228389   0.432   3.106   1.152
 2277TIP3    H128390   0.394   3.025   1.187
 2277TIP3    H228391   0.526   3.096   1.166
 2278TIP3   OH228392   4.069   2.650   8.382
 2278TIP3    H128393   4.010   2.614   8.316
 2278TIP3    H228394   4.021   2.726   8.417
 2279TIP3   OH228395   2.206   1.091   6.916
 2279TIP3    H128396   2.297   1.067   6.899
 2279TIP3    H228397   2.209   1.183   6.942
 2280TIP3   OH228398   4.107   0.450   2.473
 2280TIP3    H128399   4.172   0.477   2.538
 2280TIP3    H228400   4.075   0.366   2.505
 2281TIP3   OH228401   1.007   3.460   1.077
 2281TIP3    H128402   1.079   3.521   1.089
 2281TIP3    H228403   0.949   3.503   1.014
 2282TIP3   OH228404   5.345   2.011   8.481
 2282TIP3    H128405   5.403   1.960   8.425
 2282TIP3    H228406   5.363   1.980   8.570
 2283TIP3   OH228407   1.787   6.138   6.866
 2283TIP3    H128408   1.871   6.117   6.823
 2283TIP3    H228409   1.751   6.053   6.890
 2284TIP3   OH228410   6.574   1.844   8.540
 2284TIP3    H128411   6.553   1.778   8.473
 2284TIP3    H228412   6.494   1.851   8.592
 2285TIP3   OH228413   2.205   3.906   1.278
 2285TIP3    H128414   2.231   3.994   1.305
 2285TIP3    H228415   2.190   3.914   1.184
 2286TIP3   OH228416   6.769   3.828   0.865
 2286TIP3    H128417   6.842   3.771   0.887
 2286TIP3    H228418   6.716   3.777   0.803
 2287TIP3   OH228419   5.833   6.283   6.713
 2287TIP3    H128420   5.881   6.200   6.711
 2287TIP3    H228421   5.900   6.350   6.701
 2288TIP3   OH228422   2.007   0.615   1.486
 2288TIP3    H128423   1.937   0.668   1.525
 2288TIP3    H228424   1.973   0.525   1.488
 2289TIP3   OH228425   0.470   2.579   7.395
 2289TIP3    H128426   0.451   2.542   7.309
 2289TIP3    H228427   0.565   2.591   7.396
 2290TIP3   OH228428   2.666   6.858   0.058
 2290TIP3    H128429   2.595   6.796   0.075
 2290TIP3    H228430   2.627   0.037   0.000
 2291TIP3   OH228431   0.575   1.151   6.392
 2291TIP3    H128432   0.623   1.121   6.469
 2291TIP3    H228433   0.636   1.206   6.344
 2292TIP3   OH228434   2.866   4.666   6.722
 2292TIP3    H128435   2.851   4.754   6.754
 2292TIP3    H228436   2.816   4.610   6.781
 2293TIP3   OH228437   0.861   0.647   7.362
 2293TIP3    H128438   0.795   0.583   7.388
 2293TIP3    H228439   0.851   0.654   7.267
 2294TIP3   OH228440   6.333   4.618   7.691
 2294TIP3    H128441   6.355   4.662   7.773
 2294TIP3    H228442   6.412   4.627   7.637
 2295TIP3   OH228443   4.240   0.371   1.585
 2295TIP3    H128444   4.265   0.447   1.532
 2295TIP3    H228445   4.178   0.324   1.531
 2296TIP3   OH228446   1.940   5.093   7.240
 2296TIP3    H128447   1.957   4.999   7.236
 2296TIP3    H228448   1.974   5.120   7.326
 2297TIP3   OH228449   2.382   3.091   0.718
 2297TIP3    H128450   2.432   3.019   0.756
 2297TIP3    H228451   2.445   3.142   0.668
 2298TIP3   OH228452   2.940   4.712   0.619
 2298TIP3    H128453   2.931   4.800   0.581
 2298TIP3    H228454   3.016   4.719   0.677
 2299TIP3   OH228455   2.108   3.837   6.838
 2299TIP3    H128456   2.021   3.878   6.832
 2299TIP3    H228457   2.135   3.825   6.747
 2300TIP3   OH228458   1.186   6.112   0.216
 2300TIP3    H128459   1.237   6.169   0.158
 2300TIP3    H228460   1.237   6.032   0.222
 2301TIP3   OH228461   6.539   2.629   2.013
 2301TIP3    H128462   6.568   2.698   1.953
 2301TIP3    H228463   6.605   2.560   2.004
 2302TIP3   OH228464   4.205   4.081   1.330
 2302TIP3    H128465   4.264   4.027   1.276
 2302TIP3    H228466   4.160   4.137   1.267
 2303TIP3   OH228467   4.938   4.227   1.655
 2303TIP3    H128468   4.936   4.213   1.561
 2303TIP3    H228469   4.931   4.138   1.692
 2304TIP3   OH228470   1.987   1.754   0.700
 2304TIP3    H128471   1.972   1.780   0.610
 2304TIP3    H228472   2.037   1.826   0.738
 2305TIP3   OH228473   3.138   4.261   8.463
 2305TIP3    H128474   3.136   4.180   8.514
 2305TIP3    H228475   3.202   4.244   8.394
 2306TIP3   OH228476   3.231   6.287   6.560
 2306TIP3    H128477   3.321   6.318   6.571
 2306TIP3    H228478   3.234   6.230   6.483
 2307TIP3   OH228479   3.763   0.964   1.301
 2307TIP3    H128480   3.776   0.880   1.345
 2307TIP3    H228481   3.707   1.013   1.361
 2308TIP3   OH228482   6.413   5.987   8.009
 2308TIP3    H128483   6.475   6.013   8.077
 2308TIP3    H228484   6.424   5.892   8.001
 2309TIP3   OH228485   0.102   5.202   7.134
 2309TIP3    H128486   0.066   5.213   7.046
 2309TIP3    H228487   0.142   5.115   7.133
 2310TIP3   OH228488   4.370   4.377   7.721
 2310TIP3    H128489   4.393   4.306   7.781
 2310TIP3    H228490   4.353   4.452   7.778
 2311TIP3   OH228491   4.858   2.683   7.392
 2311TIP3    H128492   4.839   2.742   7.464
 2311TIP3    H228493   4.901   2.737   7.326
 2312TIP3   OH228494   5.263   2.081   2.374
 2312TIP3    H128495   5.244   2.045   2.287
 2312TIP3    H228496   5.246   2.009   2.434
 2313TIP3   OH228497   1.088   5.420   7.294
 2313TIP3    H128498   1.108   5.444   7.385
 2313TIP3    H228499   1.093   5.503   7.246
 2314TIP3   OH228500   5.282   3.248   0.630
 2314TIP3    H128501   5.198   3.286   0.655
 2314TIP3    H228502   5.319   3.214   0.711
 2315TIP3   OH228503   0.154   4.727   7.251
 2315TIP3    H128504   0.064   4.742   7.220
 2315TIP3    H228505   0.144   4.700   7.342
 2316TIP3   OH228506   2.366   4.437   1.221
 2316TIP3    H128507   2.357   4.346   1.192
 2316TIP3    H228508   2.320   4.441   1.305
 2317TIP3   OH228509   3.485   3.728   1.349
 2317TIP3    H128510   3.493   3.633   1.340
 2317TIP3    H228511   3.415   3.752   1.289
 2318TIP3   OH228512   1.036   1.286   1.737
 2318TIP3    H128513   1.038   1.355   1.803
 2318TIP3    H228514   0.964   1.229   1.765
 2319TIP3   OH228515   3.094   6.659   8.569
 2319TIP3    H128516   3.013   6.680   8.615
 2319TIP3    H228517   3.129   6.744   8.542
 2320TIP3   OH228518   5.992   0.378   0.933
 2320TIP3    H128519   5.909   0.372   0.980
 2320TIP3    H228520   6.017   0.470   0.940
 2321TIP3   OH228521   4.744   3.692   1.609
 2321TIP3    H128522   4.701   3.622   1.560
 2321TIP3    H228523   4.675   3.757   1.623
 2322TIP3   OH228524   0.905   0.252   8.152
 2322TIP3    H128525   0.928   0.159   8.148
 2322TIP3    H228526   0.868   0.271   8.065
 2323TIP3   OH228527   0.163   4.889   8.154
 2323TIP3    H128528   0.211   4.887   8.071
 2323TIP3    H228529   0.135   4.980   8.162
 2324TIP3   OH228530   3.579   4.435   7.021
 2324TIP3    H128531   3.632   4.492   7.076
 2324TIP3    H228532   3.589   4.348   7.059
 2325TIP3   OH228533   4.068   0.989   2.115
 2325TIP3    H128534   4.018   1.071   2.118
 2325TIP3    H228535   4.020   0.934   2.053
 2326TIP3   OH228536   0.204   2.305   6.401
 2326TIP3    H128537   0.203   2.212   6.377
 2326TIP3    H228538   0.113   2.333   6.391
 2327TIP3   OH228539   1.236   6.785   1.321
 2327TIP3    H128540   1.172   6.853   1.297
 2327TIP3    H228541   1.190   6.731   1.386
 2328TIP3   OH228542   1.665   3.724   8.184
 2328TIP3    H128543   1.709   3.678   8.113
 2328TIP3    H228544   1.650   3.812   8.150
 2329TIP3   OH228545   3.491   4.213   7.187
 2329TIP3    H128546   3.396   4.221   7.185
 2329TIP3    H228547   3.507   4.124   7.219
 2330TIP3   OH228548   6.155   0.350   7.533
 2330TIP3    H128549   6.236   0.400   7.548
 2330TIP3    H228550   6.091   0.390   7.592
 2331TIP3   OH228551   2.016   3.611   7.202
 2331TIP3    H128552   2.082   3.612   7.133
 2331TIP3    H228553   1.974   3.697   7.196
 2332TIP3   OH228554   2.105   4.659   2.036
 2332TIP3    H128555   2.147   4.629   2.117
 2332TIP3    H228556   2.016   4.680   2.062
 2333TIP3   OH228557   0.640   4.208   1.641
 2333TIP3    H128558   0.561   4.160   1.666
 2333TIP3    H228559   0.688   4.147   1.585
 2334TIP3   OH228560   4.445   0.572   8.311
 2334TIP3    H128561   4.398   0.541   8.389
 2334TIP3    H228562   4.471   0.661   8.333
 2335TIP3   OH228563   1.099   3.844   0.848
 2335TIP3    H128564   1.089   3.887   0.933
 2335TIP3    H228565   1.149   3.765   0.867
 2336TIP3   OH228566   1.863   5.532   1.092
 2336TIP3    H128567   1.847   5.467   1.024
 2336TIP3    H228568   1.946   5.572   1.068
 2337TIP3   OH228569   0.021   3.183   8.311
 2337TIP3    H128570   6.833   3.131   8.343
 2337TIP3    H228571   0.046   3.238   8.385
 2338TIP3   OH228572   6.202   1.666   7.684
 2338TIP3    H128573   6.182   1.595   7.745
 2338TIP3    H228574   6.250   1.624   7.613
 2339TIP3   OH228575   0.788   3.393   1.518
 2339TIP3    H128576   0.782   3.302   1.488
 2339TIP3    H228577   0.820   3.441   1.442
 2340TIP3   OH228578   4.596   0.128   0.579
 2340TIP3    H128579   4.648   0.115   0.659
 2340TIP3    H228580   4.660   0.159   0.515
 2341TIP3   OH228581   0.900   4.444   0.616
 2341TIP3    H128582   0.962   4.490   0.559
 2341TIP3    H228583   0.953   4.411   0.688
 2342TIP3   OH228584   5.112   3.797   6.245
 2342TIP3    H128585   5.137   3.851   6.320
 2342TIP3    H228586   5.179   3.728   6.242
 2343TIP3   OH228587   4.559   6.224   2.157
 2343TIP3    H128588   4.520   6.175   2.229
 2343TIP3    H228589   4.523   6.312   2.165
 2344TIP3   OH228590   0.047   6.531   6.286
 2344TIP3    H128591   0.004   6.473   6.348
 2344TIP3    H228592   0.108   6.475   6.239
 2345TIP3   OH228593   1.812   3.476   0.937
 2345TIP3    H128594   1.864   3.499   1.014
 2345TIP3    H228595   1.862   3.405   0.895
 2346TIP3   OH228596   6.196   4.627   0.076
 2346TIP3    H128597   6.126   4.565   0.097
 2346TIP3    H228598   6.211   4.674   0.158
 2347TIP3   OH228599   0.670   6.681   6.524
 2347TIP3    H128600   0.586   6.636   6.517
 2347TIP3    H228601   0.725   6.621   6.575
 2348TIP3   OH228602   1.280   0.049   8.215
 2348TIP3    H128603   1.192   0.033   8.181
 2348TIP3    H228604   1.301   0.137   8.185
 2349TIP3   OH228605   6.488   0.910   0.892
 2349TIP3    H128606   6.560   0.939   0.948
 2349TIP3    H228607   6.511   0.821   0.867
 2350TIP3   OH228608   4.423   2.144   7.946
 2350TIP3    H128609   4.429   2.128   7.851
 2350TIP3    H228610   4.372   2.225   7.954
 2351TIP3   OH228611   1.655   5.632   0.297
 2351TIP3    H128612   1.631   5.723   0.314
 2351TIP3    H228613   1.713   5.609   0.369
 2352TIP3   OH228614   0.185   5.971   6.373
 2352TIP3    H128615   0.183   5.884   6.414
 2352TIP3    H228616   0.216   6.029   6.443
 2353TIP3   OH228617   0.266   1.467   2.479
 2353TIP3    H128618   0.174   1.440   2.479
 2353TIP3    H228619   0.309   1.405   2.538
 2354TIP3   OH228620   4.097   5.824   1.502
 2354TIP3    H128621   4.042   5.780   1.436
 2354TIP3    H228622   4.054   5.805   1.585
 2355TIP3   OH228623   0.022   2.195   1.687
 2355TIP3    H128624   6.836   2.242   1.729
 2355TIP3    H228625   6.867   2.116   1.652
 2356TIP3   OH228626   0.156   5.932   0.051
 2356TIP3    H128627   0.166   6.015   0.004
 2356TIP3    H228628   0.186   5.866   8.650
 2357TIP3   OH228629   2.035   4.420   0.736
 2357TIP3    H128630   2.043   4.466   0.653
 2357TIP3    H228631   1.960   4.362   0.724
 2358TIP3   OH228632   0.623   5.423   6.190
 2358TIP3    H128633   0.667   5.454   6.269
 2358TIP3    H228634   0.580   5.500   6.154
 2359TIP3   OH228635   4.266   0.911   8.298
 2359TIP3    H128636   4.291   0.875   8.383
 2359TIP3    H228637   4.208   0.985   8.319
 2360TIP3   OH228638   3.054   4.303   1.319
 2360TIP3    H128639   3.094   4.308   1.232
 2360TIP3    H228640   3.098   4.372   1.369
 2361TIP3   OH228641   0.822   2.108   1.332
 2361TIP3    H128642   0.877   2.185   1.319
 2361TIP3    H228643   0.830   2.058   1.251
 2362TIP3   OH228644   0.718   4.203   1.354
 2362TIP3    H128645   0.647   4.141   1.343
 2362TIP3    H228646   0.698   4.249   1.436
 2363TIP3   OH228647   4.179   1.481   7.960
 2363TIP3    H128648   4.249   1.501   7.898
 2363TIP3    H228649   4.167   1.386   7.953
 2364TIP3   OH228650   4.847   2.092   1.169
 2364TIP3    H128651   4.754   2.071   1.181
 2364TIP3    H228652   4.858   2.097   1.074
 2365TIP3   OH228653   0.165   4.444   0.165
 2365TIP3    H128654   0.218   4.460   0.243
 2365TIP3    H228655   0.153   4.349   0.164
 2366TIP3   OH228656   5.336   1.455   8.545
 2366TIP3    H128657   5.406   1.437   8.607
 2366TIP3    H228658   5.322   1.550   8.552
 2367TIP3   OH228659   2.198   2.121   6.453
 2367TIP3    H128660   2.267   2.163   6.402
 2367TIP3    H228661   2.185   2.036   6.410
 2368TIP3   OH228662   4.459   3.277   1.311
 2368TIP3    H128663   4.368   3.305   1.298
 2368TIP3    H228664   4.507   3.358   1.325
 2369TIP3   OH228665   1.360   6.377   1.516
 2369TIP3    H128666   1.331   6.320   1.445
 2369TIP3    H228667   1.415   6.442   1.474
 2370TIP3   OH228668   2.137   6.069   2.134
 2370TIP3    H128669   2.090   6.087   2.215
 2370TIP3    H228670   2.069   6.068   2.067
 2371TIP3   OH228671   3.308   0.953   1.825
 2371TIP3    H128672   3.257   0.877   1.854
 2371TIP3    H228673   3.304   0.949   1.730
 2372TIP3   OH228674   5.219   4.248   2.307
 2372TIP3    H128675   5.285   4.237   2.375
 2372TIP3    H228676   5.169   4.166   2.309
 2373TIP3   OH228677   0.186   0.746   0.381
 2373TIP3    H128678   0.137   0.702   0.312
 2373TIP3    H228679   0.278   0.735   0.356
 2374TIP3   OH228680   2.405   4.933   6.858
 2374TIP3    H128681   2.406   4.841   6.884
 2374TIP3    H228682   2.488   4.946   6.812
 2375TIP3   OH228683   2.985   1.383   1.329
 2375TIP3    H128684   2.989   1.423   1.242
 2375TIP3    H228685   3.072   1.395   1.365
 2376TIP3   OH228686   4.456   2.064   0.834
 2376TIP3    H128687   4.363   2.052   0.855
 2376TIP3    H228688   4.479   2.148   0.873
 2377TIP3   OH228689   1.083   1.136   1.522
 2377TIP3    H128690   1.060   1.185   1.601
 2377TIP3    H228691   1.178   1.140   1.518
 2378TIP3   OH228692   6.586   0.500   7.212
 2378TIP3    H128693   6.557   0.456   7.132
 2378TIP3    H228694   6.670   0.540   7.189
 2379TIP3   OH228695   4.281   2.147   0.561
 2379TIP3    H128696   4.337   2.133   0.485
 2379TIP3    H228697   4.282   2.241   0.574
 2380TIP3   OH228698   2.727   5.722   0.532
 2380TIP3    H128699   2.655   5.681   0.580
 2380TIP3    H228700   2.787   5.650   0.512
 2381TIP3   OH228701   1.139   4.244   2.304
 2381TIP3    H128702   1.230   4.263   2.327
 2381TIP3    H228703   1.144   4.174   2.240
 2382TIP3   OH228704   0.030   5.281   7.570
 2382TIP3    H128705   0.113   5.277   7.522
 2382TIP3    H228706   0.030   5.201   7.623
 2383TIP3   OH228707   6.564   0.468   8.078
 2383TIP3    H128708   6.486   0.458   8.134
 2383TIP3    H228709   6.544   0.416   8.000
 2384TIP3   OH228710   3.848   4.350   2.455
 2384TIP3    H128711   3.847   4.445   2.448
 2384TIP3    H228712   3.914   4.322   2.392
 2385TIP3   OH228713   3.558   4.932   1.512
 2385TIP3    H128714   3.485   4.872   1.495
 2385TIP3    H228715   3.615   4.883   1.571
 2386TIP3   OH228716   6.623   4.831   2.271
 2386TIP3    H128717   6.584   4.915   2.245
 2386TIP3    H228718   6.571   4.802   2.345
 2387TIP3   OH228719   5.422   2.800   2.258
 2387TIP3    H128720   5.412   2.739   2.331
 2387TIP3    H228721   5.345   2.856   2.263
 2388TIP3   OH228722   4.459   1.332   0.834
 2388TIP3    H128723   4.455   1.361   0.925
 2388TIP3    H228724   4.367   1.332   0.805
 2389TIP3   OH228725   4.840   4.690   0.352
 2389TIP3    H128726   4.878   4.683   0.264
 2389TIP3    H228727   4.811   4.781   0.358
 2390TIP3   OH228728   0.034   5.451   1.784
 2390TIP3    H128729   0.086   5.387   1.832
 2390TIP3    H228730   0.045   5.533   1.833
 2391TIP3   OH228731   2.777   2.512   0.503
 2391TIP3    H128732   2.788   2.606   0.488
 2391TIP3    H228733   2.688   2.493   0.473
 2392TIP3   OH228734   5.873   1.276   0.766
 2392TIP3    H128735   5.884   1.360   0.721
 2392TIP3    H228736   5.831   1.219   0.701
 2393TIP3   OH228737   0.014   3.825   1.390
 2393TIP3    H128738   0.064   3.904   1.372
 2393TIP3    H228739   0.036   3.803   1.480
 2394TIP3   OH228740   3.279   5.559   8.643
 2394TIP3    H128741   3.277   5.534   0.074
 2394TIP3    H228742   3.370   5.551   8.618
 2395TIP3   OH228743   6.866   3.839   7.376
 2395TIP3    H128744   0.045   3.908   7.380
 2395TIP3    H228745   6.830   3.844   7.288
 2396TIP3   OH228746   2.303   0.856   7.322
 2396TIP3    H128747   2.268   0.937   7.284
 2396TIP3    H228748   2.287   0.790   7.255
 2397TIP3   OH228749   3.166   3.912   1.398
 2397TIP3    H128750   3.127   3.964   1.328
 2397TIP3    H228751   3.253   3.952   1.410
 2398TIP3   OH228752   5.207   6.276   0.099
 2398TIP3    H128753   5.183   6.242   0.013
 2398TIP3    H228754   5.167   6.215   0.161
 2399TIP3   OH228755   4.699   0.497   0.886
 2399TIP3    H128756   4.697   0.508   0.791
 2399TIP3    H228757   4.755   0.568   0.917
 2400TIP3   OH228758   4.961   2.177   6.826
 2400TIP3    H128759   4.885   2.179   6.768
 2400TIP3    H228760   5.031   2.139   6.773
 2401TIP3   OH228761   3.670   0.923   0.453
 2401TIP3    H128762   3.745   0.968   0.415
 2401TIP3    H228763   3.682   0.932   0.548
 2402TIP3   OH228764   4.195   3.591   1.422
 2402TIP3    H128765   4.143   3.557   1.495
 2402TIP3    H228766   4.172   3.684   1.417
 2403TIP3   OH228767   5.593   3.434   0.752
 2403TIP3    H128768   5.665   3.412   0.692
 2403TIP3    H228769   5.587   3.359   0.811
 2404TIP3   OH228770   5.298   2.553   0.599
 2404TIP3    H128771   5.338   2.573   0.684
 2404TIP3    H228772   5.272   2.637   0.564
 2405TIP3   OH228773   5.435   1.420   2.373
 2405TIP3    H128774   5.513   1.366   2.359
 2405TIP3    H228775   5.379   1.367   2.429
 2406TIP3   OH228776   2.270   1.876   8.039
 2406TIP3    H128777   2.205   1.947   8.045
 2406TIP3    H228778   2.262   1.829   8.121
 2407TIP3   OH228779   3.463   5.160   0.685
 2407TIP3    H128780   3.462   5.175   0.780
 2407TIP3    H228781   3.486   5.067   0.676
 2408TIP3   OH228782   3.045   3.201   0.162
 2408TIP3    H128783   3.091   3.163   0.237
 2408TIP3    H228784   3.105   3.267   0.127
 2409TIP3   OH228785   5.029   1.222   0.861
 2409TIP3    H128786   4.973   1.272   0.921
 2409TIP3    H228787   5.055   1.145   0.912
 2410TIP3   OH228788   6.362   5.076   8.220
 2410TIP3    H128789   6.325   5.163   8.206
 2410TIP3    H228790   6.457   5.088   8.207
 2411TIP3   OH228791   2.285   1.876   7.780
 2411TIP3    H128792   2.279   1.861   7.875
 2411TIP3    H228793   2.195   1.873   7.750
 2412TIP3   OH228794   3.818   2.159   8.298
 2412TIP3    H128795   3.864   2.080   8.268
 2412TIP3    H228796   3.799   2.141   8.391
 2413TIP3   OH228797   2.480   2.604   1.764
 2413TIP3    H128798   2.442   2.676   1.815
 2413TIP3    H228799   2.408   2.575   1.708
 2414TIP3   OH228800   1.874   1.715   8.228
 2414TIP3    H128801   1.899   1.633   8.186
 2414TIP3    H228802   1.861   1.776   8.156
 2415TIP3   OH228803   5.744   1.694   2.488
 2415TIP3    H128804   5.818   1.694   2.549
 2415TIP3    H228805   5.775   1.644   2.412
 2416TIP3   OH228806   3.787   1.318   7.804
 2416TIP3    H128807   3.781   1.264   7.726
 2416TIP3    H228808   3.859   1.281   7.854
 2417TIP3   OH228809   3.577   4.713   0.846
 2417TIP3    H128810   3.653   4.693   0.901
 2417TIP3    H228811   3.504   4.723   0.909
 2418TIP3   OH228812   5.058   2.461   8.481
 2418TIP3    H128813   5.016   2.445   8.566
 2418TIP3    H228814   5.150   2.477   8.503
 2419TIP3   OH228815   4.554   3.041   1.374
 2419TIP3    H128816   4.496   3.099   1.324
 2419TIP3    H228817   4.541   3.068   1.465
 2420TIP3   OH228818   6.523   4.988   0.752
 2420TIP3    H128819   6.480   5.073   0.748
 2420TIP3    H228820   6.576   4.992   0.832
 2421TIP3   OH228821   3.147   5.847   1.972
 2421TIP3    H128822   3.171   5.883   1.887
 2421TIP3    H228823   3.111   5.761   1.952
 2422TIP3   OH228824   0.623   3.948   0.031
 2422TIP3    H128825   0.676   3.900   8.629
 2422TIP3    H228826   0.605   3.884   0.099
 2423TIP3   OH228827   1.900   5.004   6.826
 2423TIP3    H128828   1.876   4.937   6.762
 2423TIP3    H228829   1.838   5.075   6.812
 2424TIP3   OH228830   0.806   4.672   2.344
 2424TIP3    H128831   0.871   4.732   2.382
 2424TIP3    H228832   0.840   4.585   2.364
 2425TIP3   OH228833   1.304   0.639   0.194
 2425TIP3    H128834   1.305   0.718   0.140
 2425TIP3    H228835   1.212   0.629   0.219
 2426TIP3   OH228836   1.175   6.325   7.654
 2426TIP3    H128837   1.237   6.356   7.720
 2426TIP3    H228838   1.166   6.231   7.671
 2427TIP3   OH228839   0.401   4.703   8.476
 2427TIP3    H128840   0.458   4.750   8.414
 2427TIP3    H228841   0.382   4.620   8.432
 2428TIP3   OH228842   3.701   5.195   6.868
 2428TIP3    H128843   3.757   5.135   6.916
 2428TIP3    H228844   3.627   5.142   6.840
 2429TIP3   OH228845   6.380   6.547   8.195
 2429TIP3    H128846   6.406   6.639   8.186
 2429TIP3    H228847   6.462   6.498   8.186
 2430TIP3   OH228848   4.555   0.980   0.194
 2430TIP3    H128849   4.560   1.073   0.218
 2430TIP3    H228850   4.478   0.948   0.241
 2431TIP3   OH228851   5.546   2.144   7.571
 2431TIP3    H128852   5.534   2.202   7.496
 2431TIP3    H228853   5.533   2.056   7.535
 2432TIP3   OH228854   4.825   1.038   7.329
 2432TIP3    H128855   4.887   1.110   7.340
 2432TIP3    H228856   4.756   1.057   7.393
 2433TIP3   OH228857   1.055   3.292   6.506
 2433TIP3    H128858   1.123   3.261   6.445
 2433TIP3    H228859   0.978   3.305   6.451
 2434TIP3   OH228860   3.596   4.389   6.482
 2434TIP3    H128861   3.595   4.399   6.578
 2434TIP3    H228862   3.674   4.435   6.454
 2435TIP3   OH228863   4.256   0.320   6.890
 2435TIP3    H128864   4.175   0.284   6.855
 2435TIP3    H228865   4.231   0.406   6.923
 2436TIP3   OH228866   3.237   4.264   1.047
 2436TIP3    H128867   3.263   4.355   1.042
 2436TIP3    H228868   3.282   4.222   0.974
 2437TIP3   OH228869   5.487   0.904   1.622
 2437TIP3    H128870   5.568   0.876   1.665
 2437TIP3    H228871   5.423   0.910   1.693
 2438TIP3   OH228872   6.381   1.259   0.076
 2438TIP3    H128873   6.380   1.309   8.657
 2438TIP3    H228874   6.473   1.235   0.088
 2439TIP3   OH228875   4.737   2.797   1.107
 2439TIP3    H128876   4.747   2.711   1.067
 2439TIP3    H228877   4.658   2.790   1.161
 2440TIP3   OH228878   4.277   3.450   6.106
 2440TIP3    H128879   4.363   3.447   6.064
 2440TIP3    H228880   4.232   3.523   6.062
 2441TIP3   OH228881   0.793   6.708   0.159
 2441TIP3    H128882   0.698   6.720   0.164
 2441TIP3    H228883   0.829   6.795   0.177
 2442TIP3   OH228884   6.682   3.800   1.615
 2442TIP3    H128885   6.750   3.835   1.558
 2442TIP3    H228886   6.688   3.853   1.695
 2443TIP3   OH228887   0.388   3.098   1.658
 2443TIP3    H128888   0.314   3.043   1.633
 2443TIP3    H228889   0.416   3.140   1.576
 2444TIP3   OH228890   2.281   2.582   1.566
 2444TIP3    H128891   2.282   2.495   1.527
 2444TIP3    H228892   2.217   2.576   1.637
 2445TIP3   OH228893   6.206   4.721   6.368
 2445TIP3    H128894   6.117   4.699   6.397
 2445TIP3    H228895   6.229   4.799   6.418
 2446TIP3   OH228896   3.287   0.600   7.768
 2446TIP3    H128897   3.270   0.522   7.715
 2446TIP3    H228898   3.268   0.573   7.858
 2447TIP3   OH228899   0.072   2.630   1.281
 2447TIP3    H128900   0.046   2.718   1.305
 2447TIP3    H228901   0.106   2.591   1.361
 2448TIP3   OH228902   6.553   3.992   2.262
 2448TIP3    H128903   6.532   3.931   2.191
 2448TIP3    H228904   6.486   4.059   2.257
 2449TIP3   OH228905   3.515   0.699   7.603
 2449TIP3    H128906   3.425   0.669   7.601
 2449TIP3    H228907   3.566   0.622   7.628
 2450TIP3   OH228908   3.190   0.370   7.534
 2450TIP3    H128909   3.115   0.364   7.594
 2450TIP3    H228910   3.253   0.306   7.568
 2451TIP3   OH228911   2.187   0.918   2.651
 2451TIP3    H128912   2.247   0.872   2.593
 2451TIP3    H228913   2.121   0.852   2.675
 2452TIP3   OH228914   2.751   1.530   1.959
 2452TIP3    H128915   2.769   1.547   2.051
 2452TIP3    H228916   2.737   1.435   1.954
 2453TIP3   OH228917   3.819   0.432   0.697
 2453TIP3    H128918   3.746   0.408   0.639
 2453TIP3    H228919   3.887   0.368   0.678
 2454TIP3   OH228920   3.068   5.441   6.850
 2454TIP3    H128921   2.994   5.450   6.790
 2454TIP3    H228922   3.099   5.352   6.837
 2455TIP3   OH228923   6.065   2.976   1.740
 2455TIP3    H128924   6.011   2.917   1.793
 2455TIP3    H228925   6.067   2.936   1.653
 2456TIP3   OH228926   3.012   4.462   6.485
 2456TIP3    H128927   3.086   4.471   6.545
 2456TIP3    H228928   3.051   4.465   6.398
 2457TIP3   OH228929   2.043   3.231   8.469
 2457TIP3    H128930   2.041   3.158   8.532
 2457TIP3    H228931   2.113   3.208   8.408
 2458TIP3   OH228932   0.634   4.459   1.446
 2458TIP3    H128933   0.635   4.553   1.431
 2458TIP3    H228934   0.627   4.450   1.541
 2459TIP3   OH228935   1.784   4.580   7.407
 2459TIP3    H128936   1.701   4.549   7.444
 2459TIP3    H228937   1.776   4.675   7.406
 2460TIP3   OH228938   6.187   0.729   7.842
 2460TIP3    H128939   6.175   0.705   7.750
 2460TIP3    H228940   6.278   0.758   7.847
 2461TIP3   OH228941   0.932   6.077   0.577
 2461TIP3    H128942   0.997   6.146   0.578
 2461TIP3    H228943   0.943   6.032   0.661
 2462TIP3   OH228944   1.419   4.639   0.516
 2462TIP3    H128945   1.459   4.722   0.541
 2462TIP3    H228946   1.463   4.573   0.570
 2463TIP3   OH228947   4.368   3.831   8.607
 2463TIP3    H128948   4.281   3.866   8.592
 2463TIP3    H228949   4.402   3.812   8.520
 2464TIP3   OH228950   4.997   2.764   1.940
 2464TIP3    H128951   5.063   2.711   1.984
 2464TIP3    H228952   4.922   2.764   2.000
 2465TIP3   OH228953   6.877   6.428   8.587
 2465TIP3    H128954   0.052   6.402   8.518
 2465TIP3    H228955   0.043   6.428   0.005
 2466TIP3   OH228956   4.764   5.488   0.992
 2466TIP3    H128957   4.695   5.498   1.058
 2466TIP3    H228958   4.824   5.423   1.030
 2467TIP3   OH228959   1.429   5.890   1.373
 2467TIP3    H128960   1.363   5.835   1.330
 2467TIP3    H228961   1.440   5.965   1.314
 2468TIP3   OH228962   3.815   6.441   8.035
 2468TIP3    H128963   3.791   6.467   7.946
 2468TIP3    H228964   3.858   6.357   8.025
 2469TIP3   OH228965   6.071   0.638   0.845
 2469TIP3    H128966   6.064   0.723   0.799
 2469TIP3    H228967   6.084   0.574   0.775
 2470TIP3   OH228968   4.880   3.695   7.054
 2470TIP3    H128969   4.946   3.732   6.995
 2470TIP3    H228970   4.910   3.605   7.071
 2471TIP3   OH228971   0.853   0.201   1.095
 2471TIP3    H128972   0.761   0.188   1.069
 2471TIP3    H228973   0.857   0.290   1.128
 2472TIP3   OH228974   4.040   3.867   2.104
 2472TIP3    H128975   4.071   3.952   2.137
 2472TIP3    H228976   4.121   3.820   2.083
 2473TIP3   OH228977   0.142   2.749   7.235
 2473TIP3    H128978   0.215   2.729   7.176
 2473TIP3    H228979   0.068   2.765   7.177
 2474TIP3   OH228980   1.860   5.473   6.236
 2474TIP3    H128981   1.784   5.475   6.294
 2474TIP3    H228982   1.834   5.527   6.161
 2475TIP3   OH228983   1.146   0.531   8.008
 2475TIP3    H128984   1.120   0.505   8.096
 2475TIP3    H228985   1.242   0.539   8.013
 2476TIP3   OH228986   6.484   6.329   1.808
 2476TIP3    H128987   6.488   6.234   1.797
 2476TIP3    H228988   6.424   6.359   1.740
 2477TIP3   OH228989   6.277   6.445   7.766
 2477TIP3    H128990   6.336   6.459   7.692
 2477TIP3    H228991   6.296   6.356   7.795
 2478TIP3   OH228992   0.639   3.612   7.156
 2478TIP3    H128993   0.589   3.628   7.236
 2478TIP3    H228994   0.593   3.661   7.088
 2479TIP3   OH228995   1.291   4.186   6.732
 2479TIP3    H128996   1.262   4.097   6.750
 2479TIP3    H228997   1.371   4.176   6.682
 2480TIP3   OH228998   0.713   3.935   1.717
 2480TIP3    H128999   0.638   3.877   1.701
 2480TIP3    H229000   0.777   3.880   1.762
 2481TIP3   OH229001   1.055   6.787   8.623
 2481TIP3    H129002   1.075   6.873   8.662
 2481TIP3    H229003   1.069   6.725   0.033
 2482TIP3   OH229004   3.825   0.206   7.765
 2482TIP3    H129005   3.878   0.269   7.716
 2482TIP3    H229006   3.761   0.174   7.701
 2483TIP3   OH229007   2.860   3.236   8.443
 2483TIP3    H129008   2.855   3.330   8.459
 2483TIP3    H229009   2.951   3.220   8.418
 2484TIP3   OH229010   6.351   3.437   8.596
 2484TIP3    H129011   6.435   3.420   8.639
 2484TIP3    H229012   6.286   3.406   8.658
 2485TIP3   OH229013   5.324   6.316   1.996
 2485TIP3    H129014   5.281   6.234   1.975
 2485TIP3    H229015   5.392   6.292   2.059
 2486TIP3   OH229016   3.318   3.060   8.044
 2486TIP3    H129017   3.393   3.003   8.064
 2486TIP3    H229018   3.283   3.025   7.962
 2487TIP3   OH229019   4.166   2.818   0.599
 2487TIP3    H129020   4.190   2.820   0.692
 2487TIP3    H229021   4.239   2.773   0.556
 2488TIP3   OH229022   4.650   4.702   8.656
 2488TIP3    H129023   4.629   4.610   0.013
 2488TIP3    H229024   4.746   4.704   8.651
 2489TIP3   OH229025   2.408   2.129   7.791
 2489TIP3    H129026   2.390   2.035   7.785
 2489TIP3    H229027   2.327   2.170   7.761
 2490TIP3   OH229028   6.533   5.920   6.109
 2490TIP3    H129029   6.468   5.905   6.041
 2490TIP3    H229030   6.608   5.867   6.083
 2491TIP3   OH229031   2.530   0.179   7.316
 2491TIP3    H129032   2.573   0.103   7.356
 2491TIP3    H229033   2.443   0.180   7.354
 2492TIP3   OH229034   4.523   3.149   8.202
 2492TIP3    H129035   4.598   3.173   8.256
 2492TIP3    H229036   4.447   3.175   8.253
 2493TIP3   OH229037   5.775   1.282   6.510
 2493TIP3    H129038   5.729   1.365   6.513
 2493TIP3    H229039   5.820   1.281   6.425
 2494TIP3   OH229040   0.202   0.612   0.094
 2494TIP3    H129041   0.159   0.697   0.104
 2494TIP3    H229042   0.295   0.631   0.107
 2495TIP3   OH229043   6.071   1.856   7.245
 2495TIP3    H129044   6.055   1.786   7.308
 2495TIP3    H229045   6.166   1.857   7.235
 2496TIP3   OH229046   6.828   1.702   6.557
 2496TIP3    H129047   6.871   1.781   6.523
 2496TIP3    H229048   6.849   1.634   6.493
 2497TIP3   OH229049   2.327   5.320   7.327
 2497TIP3    H129050   2.408   5.349   7.370
 2497TIP3    H229051   2.274   5.400   7.320
 2498TIP3   OH229052   0.500   6.221   0.572
 2498TIP3    H129053   0.468   6.241   0.484
 2498TIP3    H229054   0.573   6.282   0.586
 2499TIP3   OH229055   1.189   5.702   0.517
 2499TIP3    H129056   1.170   5.617   0.475
 2499TIP3    H229057   1.104   5.746   0.520
 2500TIP3   OH229058   1.356   6.574   1.124
 2500TIP3    H129059   1.321   6.640   1.183
 2500TIP3    H229060   1.335   6.607   1.036
 2501TIP3   OH229061   1.929   0.452   8.505
 2501TIP3    H129062   1.996   0.391   8.537
 2501TIP3    H229063   1.885   0.403   8.435
 2502TIP3   OH229064   3.519   3.601   7.269
 2502TIP3    H129065   3.455   3.641   7.328
 2502TIP3    H229066   3.474   3.525   7.232
 2503TIP3   OH229067   5.736   3.643   6.788
 2503TIP3    H129068   5.688   3.635   6.870
 2503TIP3    H229069   5.688   3.710   6.739
 2504TIP3   OH229070   0.673   2.531   0.299
 2504TIP3    H129071   0.691   2.529   0.205
 2504TIP3    H229072   0.599   2.472   0.311
 2505TIP3   OH229073   6.684   2.172   6.975
 2505TIP3    H129074   6.779   2.171   6.958
 2505TIP3    H229075   6.670   2.253   7.024
 2506TIP3   OH229076   6.004   2.948   1.193
 2506TIP3    H129077   6.074   3.011   1.175
 2506TIP3    H229078   5.999   2.894   1.114
 2507TIP3   OH229079   4.735   1.953   1.976
 2507TIP3    H129080   4.718   2.028   1.919
 2507TIP3    H229081   4.708   1.982   2.063
 2508TIP3   OH229082   3.986   0.431   8.116
 2508TIP3    H129083   4.016   0.485   8.189
 2508TIP3    H229084   3.894   0.414   8.135
 2509TIP3   OH229085   6.395   6.169   7.038
 2509TIP3    H129086   6.418   6.162   6.945
 2509TIP3    H229087   6.413   6.083   7.074
 2510TIP3   OH229088   2.176   5.143   8.091
 2510TIP3    H129089   2.086   5.113   8.103
 2510TIP3    H229090   2.177   5.182   8.004
 2511TIP3   OH229091   0.899   6.044   7.878
 2511TIP3    H129092   0.925   5.970   7.824
 2511TIP3    H229093   0.974   6.103   7.877
 2512TIP3   OH229094   3.436   3.733   0.482
 2512TIP3    H129095   3.513   3.755   0.430
 2512TIP3    H229096   3.405   3.651   0.444
 2513TIP3   OH229097   0.356   4.651   7.106
 2513TIP3    H129098   0.277   4.671   7.156
 2513TIP3    H229099   0.337   4.567   7.063
 2514TIP3   OH229100   0.197   4.804   0.813
 2514TIP3    H129101   0.144   4.883   0.811
 2514TIP3    H229102   0.274   4.825   0.760
 2515TIP3   OH229103   5.666   2.024   1.574
 2515TIP3    H129104   5.682   2.093   1.509
 2515TIP3    H229105   5.581   2.047   1.612
 2516TIP3   OH229106   4.521   4.802   6.723
 2516TIP3    H129107   4.535   4.808   6.629
 2516TIP3    H229108   4.524   4.893   6.754
 2517TIP3   OH229109   4.570   0.468   8.073
 2517TIP3    H129110   4.569   0.459   8.169
 2517TIP3    H229111   4.538   0.557   8.057
 2518TIP3   OH229112   3.553   2.891   8.086
 2518TIP3    H129113   3.625   2.952   8.101
 2518TIP3    H229114   3.574   2.815   8.140
 2519TIP3   OH229115   6.042   3.796   0.991
 2519TIP3    H129116   6.047   3.855   1.067
 2519TIP3    H229117   6.049   3.708   1.029
 2520TIP3   OH229118   0.458   1.428   8.141
 2520TIP3    H129119   0.476   1.464   8.054
 2520TIP3    H229120   0.515   1.351   8.147
 2521TIP3   OH229121   5.145   2.399   7.424
 2521TIP3    H129122   5.068   2.423   7.476
 2521TIP3    H229123   5.164   2.477   7.372
 2522TIP3   OH229124   5.053   2.725   0.953
 2522TIP3    H129125   4.978   2.730   1.013
 2522TIP3    H229126   5.025   2.664   0.885
 2523TIP3   OH229127   1.413   0.649   7.370
 2523TIP3    H129128   1.429   0.741   7.346
 2523TIP3    H229129   1.482   0.600   7.325
 2524TIP3   OH229130   0.998   1.897   8.191
 2524TIP3    H129131   0.924   1.855   8.147
 2524TIP3    H229132   0.958   1.954   8.256
 2525TIP3   OH229133   1.956   1.937   1.288
 2525TIP3    H129134   1.920   1.982   1.364
 2525TIP3    H229135   1.902   1.859   1.278
 2526TIP3   OH229136   3.022   6.866   6.937
 2526TIP3    H129137   3.031   0.028   7.020
 2526TIP3    H229138   3.019   6.774   6.962
 2527TIP3   OH229139   4.458   1.780   1.099
 2527TIP3    H129140   4.502   1.709   1.051
 2527TIP3    H229141   4.470   1.758   1.191
 2528TIP3   OH229142   4.588   1.560   0.996
 2528TIP3    H129143   4.537   1.489   1.037
 2528TIP3    H229144   4.540   1.581   0.916
 2529TIP3   OH229145   4.326   2.834   0.025
 2529TIP3    H129146   4.340   2.759   8.629
 2529TIP3    H229147   4.341   2.911   8.631
 2530TIP3   OH229148   2.200   5.134   6.918
 2530TIP3    H129149   2.255   5.056   6.908
 2530TIP3    H229150   2.173   5.156   6.829
 2531TIP3   OH229151   6.567   3.190   0.718
 2531TIP3    H129152   6.620   3.261   0.753
 2531TIP3    H229153   6.629   3.119   0.701
 2532TIP3   OH229154   0.360   6.536   1.844
 2532TIP3    H129155   0.401   6.584   1.916
 2532TIP3    H229156   0.431   6.521   1.782
 2533TIP3   OH229157   5.815   2.696   1.757
 2533TIP3    H129158   5.757   2.765   1.726
 2533TIP3    H229159   5.817   2.631   1.687
 2534TIP3   OH229160   0.086   2.370   7.477
 2534TIP3    H129161   0.085   2.465   7.492
 2534TIP3    H229162   0.010   2.354   7.422
 2535TIP3   OH229163   2.521   5.752   8.652
 2535TIP3    H129164   2.481   5.838   8.637
 2535TIP3    H229165   2.604   5.771   0.032
 2536TIP3   OH229166   5.358   4.152   0.447
 2536TIP3    H129167   5.388   4.064   0.470
 2536TIP3    H229168   5.272   4.159   0.489
 2537TIP3   OH229169   4.573   6.146   7.240
 2537TIP3    H129170   4.523   6.149   7.322
 2537TIP3    H229171   4.508   6.121   7.174
 2538TIP3   OH229172   2.890   5.419   6.640
 2538TIP3    H129173   2.799   5.432   6.613
 2538TIP3    H229174   2.927   5.363   6.572
 2539TIP3   OH229175   2.016   2.875   8.452
 2539TIP3    H129176   2.028   2.917   8.537
 2539TIP3    H229177   2.100   2.834   8.433
 2540TIP3   OH229178   4.583   1.675   8.005
 2540TIP3    H129179   4.581   1.749   8.066
 2540TIP3    H229180   4.491   1.655   7.988
 2541TIP3   OH229181   5.167   6.061   1.553
 2541TIP3    H129182   5.076   6.052   1.581
 2541TIP3    H229183   5.195   6.144   1.591
 2542TIP3   OH229184   4.408   2.902   7.914
 2542TIP3    H129185   4.432   2.823   7.865
 2542TIP3    H229186   4.484   2.960   7.906
 2543TIP3   OH229187   0.638   1.540   8.551
 2543TIP3    H129188   0.654   1.461   8.500
 2543TIP3    H229189   0.632   1.610   8.485
 2544TIP3   OH229190   2.175   0.103   0.869
 2544TIP3    H129191   2.099   0.162   0.869
 2544TIP3    H229192   2.164   0.050   0.790
 2545TIP3   OH229193   3.455   2.091   7.657
 2545TIP3    H129194   3.374   2.108   7.704
 2545TIP3    H229195   3.427   2.075   7.567
 2546TIP3   OH229196   6.098   6.358   6.688
 2546TIP3    H129197   6.124   6.293   6.623
 2546TIP3    H229198   6.102   6.442   6.642
 2547TIP3   OH229199   2.190   5.094   1.726
 2547TIP3    H129200   2.145   5.082   1.810
 2547TIP3    H229201   2.120   5.105   1.662
 2548TIP3   OH229202   4.744   0.736   1.862
 2548TIP3    H129203   4.792   0.656   1.883
 2548TIP3    H229204   4.799   0.807   1.895
 2549TIP3   OH229205   1.862   3.679   2.123
 2549TIP3    H129206   1.908   3.597   2.139
 2549TIP3    H229207   1.862   3.687   2.027
 2550TIP3   OH229208   2.484   5.456   2.014
 2550TIP3    H129209   2.492   5.384   2.076
 2550TIP3    H229210   2.425   5.422   1.946
 2551TIP3   OH229211   6.758   2.028   0.497
 2551TIP3    H129212   6.838   2.024   0.443
 2551TIP3    H229213   6.789   2.017   0.586
 2552TIP3   OH229214   4.473   1.080   1.265
 2552TIP3    H129215   4.381   1.061   1.280
 2552TIP3    H229216   4.516   1.058   1.348
 2553TIP3   OH229217   3.989   3.509   2.116
 2553TIP3    H129218   3.893   3.506   2.119
 2553TIP3    H229219   4.017   3.463   2.195
 2554TIP3   OH229220   4.256   6.821   0.409
 2554TIP3    H129221   4.314   6.751   0.379
 2554TIP3    H229222   4.192   6.776   0.464
 2555TIP3   OH229223   5.488   1.562   1.164
 2555TIP3    H129224   5.493   1.617   1.085
 2555TIP3    H229225   5.533   1.613   1.231
 2556TIP3   OH229226   5.334   0.795   7.873
 2556TIP3    H129227   5.248   0.758   7.893
 2556TIP3    H229228   5.315   0.880   7.834
 2557TIP3   OH229229   5.579   0.146   1.935
 2557TIP3    H129230   5.593   0.169   1.843
 2557TIP3    H229231   5.519   0.212   1.968
 2558TIP3   OH229232   4.444   2.054   7.231
 2558TIP3    H129233   4.471   2.023   7.145
 2558TIP3    H229234   4.419   1.975   7.279
 2559TIP3   OH229235   6.670   2.234   8.253
 2559TIP3    H129236   6.637   2.145   8.260
 2559TIP3    H229237   6.620   2.273   8.182
 2560TIP3   OH229238   1.618   5.460   7.577
 2560TIP3    H129239   1.700   5.411   7.564
 2560TIP3    H229240   1.559   5.426   7.509
 2561TIP3   OH229241   1.124   0.925   0.919
 2561TIP3    H129242   1.204   0.881   0.945
 2561TIP3    H229243   1.147   0.973   0.840
 2562TIP3   OH229244   6.200   6.627   7.945
 2562TIP3    H129245   6.241   6.596   8.025
 2562TIP3    H229246   6.215   6.557   7.882
 2563TIP3   OH229247   6.110   0.839   7.296
 2563TIP3    H129248   6.058   0.776   7.346
 2563TIP3    H229249   6.060   0.854   7.216
 2564TIP3   OH229250   4.531   4.268   8.433
 2564TIP3    H129251   4.568   4.280   8.521
 2564TIP3    H229252   4.514   4.174   8.428
 2565TIP3   OH229253   2.395   6.121   7.894
 2565TIP3    H129254   2.393   6.030   7.921
 2565TIP3    H229255   2.327   6.163   7.946
 2566TIP3   OH229256   1.187   4.662   7.650
 2566TIP3    H129257   1.134   4.594   7.609
 2566TIP3    H229258   1.265   4.669   7.594
 2567TIP3   OH229259   0.834   3.879   8.306
 2567TIP3    H129260   0.821   3.794   8.266
 2567TIP3    H229261   0.808   3.867   8.398
 2568TIP3   OH229262   3.400   3.845   7.749
 2568TIP3    H129263   3.365   3.760   7.777
 2568TIP3    H229264   3.495   3.832   7.745
 2569TIP3   OH229265   4.564   4.396   0.036
 2569TIP3    H129266   4.597   4.317   0.077
 2569TIP3    H229267   4.475   4.406   0.070
 2570TIP3   OH229268   5.721   0.842   7.532
 2570TIP3    H129269   5.650   0.807   7.586
 2570TIP3    H229270   5.739   0.772   7.469
 2571TIP3   OH229271   2.335   0.358   8.260
 2571TIP3    H129272   2.420   0.366   8.304
 2571TIP3    H229273   2.280   0.423   8.302
 2572TIP3   OH229274   5.203   2.805   8.581
 2572TIP3    H129275   5.191   2.862   8.657
 2572TIP3    H229276   5.117   2.802   8.539
 2573TIP3   OH229277   4.574   3.825   7.276
 2573TIP3    H129278   4.523   3.878   7.215
 2573TIP3    H229279   4.664   3.854   7.264
 2574TIP3   OH229280   5.743   5.597   5.850
 2574TIP3    H129281   5.767   5.600   5.943
 2574TIP3    H229282   5.657   5.555   5.850
 2575TIP3   OH229283   6.318   6.486   0.341
 2575TIP3    H129284   6.248   6.432   0.305
 2575TIP3    H229285   6.368   6.426   0.396
 2576TIP3   OH229286   6.772   1.383   0.187
 2576TIP3    H129287   6.688   1.416   0.218
 2576TIP3    H229288   6.762   1.376   0.092
 2577TIP3   OH229289   5.645   3.067   1.076
 2577TIP3    H129290   5.583   3.067   1.149
 2577TIP3    H229291   5.724   3.108   1.112
 2578TIP3   OH229292   5.844   5.267   7.740
 2578TIP3    H129293   5.936   5.294   7.740
 2578TIP3    H229294   5.803   5.323   7.673
 2579TIP3   OH229295   4.591   1.662   6.786
 2579TIP3    H129296   4.599   1.567   6.778
 2579TIP3    H229297   4.497   1.678   6.786
 2580TIP3   OH229298   1.503   5.362   1.098
 2580TIP3    H129299   1.529   5.270   1.092
 2580TIP3    H229300   1.585   5.411   1.092
 2581TIP3   OH229301   2.549   6.265   8.313
 2581TIP3    H129302   2.517   6.335   8.257
 2581TIP3    H229303   2.634   6.241   8.275
 2582TIP3   OH229304   2.469   0.216   2.288
 2582TIP3    H129305   2.481   0.131   2.330
 2582TIP3    H229306   2.390   0.252   2.329
 2583TIP3   OH229307   0.899   5.335   1.252
 2583TIP3    H129308   0.932   5.382   1.328
 2583TIP3    H229309   0.874   5.249   1.286
 2584TIP3   OH229310   2.641   0.709   7.300
 2584TIP3    H129311   2.695   0.712   7.379
 2584TIP3    H229312   2.624   0.616   7.286
 2585TIP3   OH229313   1.201   5.710   1.267
 2585TIP3    H129314   1.241   5.624   1.254
 2585TIP3    H229315   1.156   5.728   1.185
 2586TIP3   OH229316   2.742   0.600   2.312
 2586TIP3    H129317   2.765   0.537   2.244
 2586TIP3    H229318   2.805   0.671   2.303
 2587TIP3   OH229319   1.584   3.277   0.670
 2587TIP3    H129320   1.643   3.204   0.648
 2587TIP3    H229321   1.574   3.325   0.588
 2588TIP3   OH229322   6.727   4.560   7.889
 2588TIP3    H129323   6.702   4.636   7.837
 2588TIP3    H229324   6.749   4.596   7.975
 2589TIP3   OH229325   1.911   2.274   7.050
 2589TIP3    H129326   1.924   2.291   6.957
 2589TIP3    H229327   1.978   2.209   7.072
 2590TIP3   OH229328   5.385   1.126   7.851
 2590TIP3    H129329   5.300   1.144   7.891
 2590TIP3    H229330   5.406   1.206   7.802
 2591TIP3   OH229331   1.498   4.130   0.282
 2591TIP3    H129332   1.504   4.225   0.280
 2591TIP3    H229333   1.523   4.102   0.194
 2592TIP3   OH229334   4.770   3.187   1.295
 2592TIP3    H129335   4.732   3.274   1.286
 2592TIP3    H229336   4.697   3.132   1.324
 2593TIP3   OH229337   0.375   2.479   1.861
 2593TIP3    H129338   0.300   2.477   1.801
 2593TIP3    H229339   0.451   2.489   1.804
 2594TIP3   OH229340   0.854   6.775   7.479
 2594TIP3    H129341   0.846   6.812   7.567
 2594TIP3    H229342   0.940   6.804   7.449
 2595TIP3   OH229343   4.029   3.014   6.599
 2595TIP3    H129344   3.987   3.098   6.580
 2595TIP3    H229345   3.958   2.959   6.633
 2596TIP3   OH229346   5.133   1.615   0.483
 2596TIP3    H129347   5.139   1.703   0.447
 2596TIP3    H229348   5.223   1.586   0.492
 2597TIP3   OH229349   1.623   6.418   0.416
 2597TIP3    H129350   1.661   6.412   0.329
 2597TIP3    H229351   1.571   6.499   0.414
 2598TIP3   OH229352   6.833   6.206   8.342
 2598TIP3    H129353   6.759   6.224   8.401
 2598TIP3    H229354   0.024   6.209   8.399
 2599TIP3   OH229355   3.040   3.887   0.311
 2599TIP3    H129356   2.960   3.902   0.260
 2599TIP3    H229357   3.062   3.796   0.294
 2600TIP3   OH229358   1.045   6.441   1.708
 2600TIP3    H129359   1.016   6.384   1.779
 2600TIP3    H229360   1.139   6.454   1.725
 2601TIP3   OH229361   5.295   0.260   0.157
 2601TIP3    H129362   5.218   0.298   0.114
 2601TIP3    H229363   5.298   0.302   0.243
 2602TIP3   OH229364   3.085   4.152   2.132
 2602TIP3    H129365   3.010   4.186   2.180
 2602TIP3    H229366   3.114   4.077   2.183
 2603TIP3   OH229367   4.756   3.306   0.849
 2603TIP3    H129368   4.738   3.218   0.880
 2603TIP3    H229369   4.736   3.363   0.924
 2604TIP3   OH229370   2.855   6.815   1.574
 2604TIP3    H129371   2.839   0.014   1.533
 2604TIP3    H229372   2.926   6.776   1.521
 2605TIP3   OH229373   1.794   6.092   2.180
 2605TIP3    H129374   1.823   6.183   2.192
 2605TIP3    H229375   1.717   6.099   2.123
 2606TIP3   OH229376   3.755   2.577   2.776
 2606TIP3    H129377   3.715   2.649   2.823
 2606TIP3    H229378   3.831   2.615   2.732
 2607TIP3   OH229379   4.021   6.831   1.913
 2607TIP3    H129380   4.045   0.006   1.982
 2607TIP3    H229381   3.932   6.856   1.889
 2608TIP3   OH229382   6.030   2.245   1.154
 2608TIP3    H129383   6.013   2.302   1.229
 2608TIP3    H229384   6.125   2.244   1.146
 2609TIP3   OH229385   2.336   0.015   8.364
 2609TIP3    H129386   2.295   6.870   8.283
 2609TIP3    H229387   2.283   6.863   8.434
 2610TIP3   OH229388   2.614   6.660   7.909
 2610TIP3    H129389   2.637   6.621   7.994
 2610TIP3    H229390   2.697   6.694   7.875
 2611TIP3   OH229391   5.933   1.048   1.147
 2611TIP3    H129392   5.967   1.118   1.090
 2611TIP3    H229393   5.876   1.093   1.209
 2612TIP3   OH229394   2.092   5.695   8.552
 2612TIP3    H129395   2.004   5.691   8.589
 2612TIP3    H229396   2.090   5.634   8.479
 2613TIP3   OH229397   0.117   1.159   7.978
 2613TIP3    H129398   0.056   1.211   7.926
 2613TIP3    H229399   0.199   1.163   7.929
 2614TIP3   OH229400   6.215   6.015   7.415
 2614TIP3    H129401   6.286   5.953   7.436
 2614TIP3    H229402   6.261   6.096   7.391
 2615TIP3   OH229403   2.265   5.177   8.574
 2615TIP3    H129404   2.315   5.253   8.601
 2615TIP3    H229405   2.185   5.181   8.627
 2616TIP3   OH229406   4.742   4.069   0.804
 2616TIP3    H129407   4.652   4.063   0.836
 2616TIP3    H229408   4.794   4.021   0.869
 2617TIP3   OH229409   0.147   1.302   8.258
 2617TIP3    H129410   0.102   1.238   8.204
 2617TIP3    H229411   0.230   1.319   8.212
 2618TIP3   OH229412   1.902   1.877   6.981
 2618TIP3    H129413   1.881   1.814   6.913
 2618TIP3    H229414   1.915   1.960   6.934
 2619TIP3   OH229415   2.954   3.001   0.890
 2619TIP3    H129416   3.020   2.932   0.883
 2619TIP3    H229417   2.975   3.046   0.972
 2620TIP3   OH229418   2.868   4.032   1.117
 2620TIP3    H129419   2.836   4.101   1.176
 2620TIP3    H229420   2.790   3.985   1.089
 2621TIP3   OH229421   0.755   4.736   1.227
 2621TIP3    H129422   0.749   4.798   1.154
 2621TIP3    H229423   0.705   4.777   1.298
 2622TIP3   OH229424   3.562   6.842   1.196
 2622TIP3    H129425   3.572   0.013   1.272
 2622TIP3    H229426   3.631   6.871   1.136
 2623TIP3   OH229427   3.017   5.717   0.314
 2623TIP3    H129428   2.999   5.636   0.361
 2623TIP3    H229429   2.982   5.786   0.371
 2624TIP3   OH229430   5.341   1.328   0.516
 2624TIP3    H129431   5.266   1.308   0.459
 2624TIP3    H229432   5.301   1.360   0.597
 2625TIP3   OH229433   2.243   1.626   0.680
 2625TIP3    H129434   2.257   1.682   0.603
 2625TIP3    H229435   2.155   1.650   0.711
 2626TIP3   OH229436   1.744   2.960   8.645
 2626TIP3    H129437   1.690   3.039   8.654
 2626TIP3    H229438   1.825   2.991   8.604
 2627TIP3   OH229439   3.858   3.624   1.091
 2627TIP3    H129440   3.821   3.707   1.122
 2627TIP3    H229441   3.930   3.650   1.033
 2628TIP3   OH229442   6.209   5.262   1.046
 2628TIP3    H129443   6.221   5.295   1.135
 2628TIP3    H229444   6.298   5.252   1.012
 2629TIP3   OH229445   0.377   4.970   7.936
 2629TIP3    H129446   0.354   4.991   7.845
 2629TIP3    H229447   0.369   5.053   7.982
 2630TIP3   OH229448   3.727   4.380   0.096
 2630TIP3    H129449   3.669   4.401   0.023
 2630TIP3    H229450   3.727   4.459   0.150
 2631TIP3   OH229451   5.023   3.386   0.978
 2631TIP3    H129452   4.956   3.321   0.957
 2631TIP3    H229453   5.088   3.378   0.908
 2632TIP3   OH229454   5.848   4.514   0.922
 2632TIP3    H129455   5.944   4.514   0.915
 2632TIP3    H229456   5.829   4.450   0.990
 2633TIP3   OH229457   0.761   4.553   8.627
 2633TIP3    H129458   0.712   4.473   8.645
 2633TIP3    H229459   0.837   4.549   0.023
 2634TIP3   OH229460   4.590   5.641   0.089
 2634TIP3    H129461   4.647   5.581   0.137
 2634TIP3    H229462   4.644   5.720   0.077
 2635TIP3   OH229463   1.799   1.361   7.317
 2635TIP3    H129464   1.828   1.294   7.255
 2635TIP3    H229465   1.874   1.420   7.325
 2636TIP3   OH229466   6.588   5.130   1.116
 2636TIP3    H129467   6.547   5.044   1.120
 2636TIP3    H229468   6.644   5.126   1.038
 2637TIP3   OH229469   4.358   2.885   1.064
 2637TIP3    H129470   4.353   2.980   1.059
 2637TIP3    H229471   4.326   2.864   1.152
 2638TIP3   OH229472   0.902   3.922   7.737
 2638TIP3    H129473   0.961   3.979   7.786
 2638TIP3    H229474   0.819   3.969   7.736
 2639TIP3   OH229475   4.903   1.185   0.613
 2639TIP3    H129476   4.961   1.209   0.685
 2639TIP3    H229477   4.826   1.241   0.625
 2640TIP3   OH229478   2.967   6.726   7.906
 2640TIP3    H129479   3.045   6.680   7.877
 2640TIP3    H229480   2.999   6.793   7.966
 2641TIP3   OH229481   4.248   6.780   8.606
 2641TIP3    H129482   4.301   6.737   8.539
 2641TIP3    H229483   4.257   6.725   0.021
 2642TIP3   OH229484   4.261   5.302   1.715
 2642TIP3    H129485   4.303   5.354   1.783
 2642TIP3    H229486   4.241   5.219   1.758
 2643TIP3   OH229487   6.007   0.775   7.018
 2643TIP3    H129488   5.951   0.699   7.036
 2643TIP3    H229489   6.093   0.737   6.998
 2644TIP3   OH229490   6.605   5.564   1.277
 2644TIP3    H129491   6.598   5.530   1.366
 2644TIP3    H229492   6.664   5.639   1.284
 2645TIP3   OH229493   3.686   3.585   6.929
 2645TIP3    H129494   3.648   3.577   6.842
 2645TIP3    H229495   3.705   3.495   6.955
 2646TIP3   OH229496   3.669   5.445   0.824
 2646TIP3    H129497   3.697   5.398   0.903
 2646TIP3    H229498   3.661   5.536   0.852
 2647TIP3   OH229499   5.779   1.759   7.006
 2647TIP3    H129500   5.853   1.799   7.052
 2647TIP3    H229501   5.774   1.806   6.923
 2648TIP3   OH229502   6.337   0.840   1.494
 2648TIP3    H129503   6.345   0.845   1.399
 2648TIP3    H229504   6.424   0.863   1.527
 2649TIP3   OH229505   6.288   5.552   7.277
 2649TIP3    H129506   6.377   5.517   7.275
 2649TIP3    H229507   6.235   5.487   7.230
 2650TIP3   OH229508   1.881   1.843   0.450
 2650TIP3    H129509   1.884   1.838   0.354
 2650TIP3    H229510   1.818   1.913   0.467
 2651TIP3   OH229511   2.661   3.830   7.545
 2651TIP3    H129512   2.606   3.886   7.599
 2651TIP3    H229513   2.739   3.882   7.528
 2652TIP3   OH229514   3.709   6.557   0.535
 2652TIP3    H129515   3.736   6.595   0.452
 2652TIP3    H229516   3.779   6.496   0.557
 2653TIP3   OH229517   3.747   5.583   0.350
 2653TIP3    H129518   3.731   5.522   0.278
 2653TIP3    H229519   3.808   5.538   0.408
 2654TIP3   OH229520   1.132   0.785   7.224
 2654TIP3    H129521   1.215   0.817   7.260
 2654TIP3    H229522   1.158   0.722   7.157
 2655TIP3   OH229523   3.523   2.105   1.430
 2655TIP3    H129524   3.459   2.160   1.476
 2655TIP3    H229525   3.569   2.166   1.372
 2656TIP3   OH229526   5.872   2.214   2.324
 2656TIP3    H129527   5.841   2.176   2.242
 2656TIP3    H229528   5.861   2.144   2.389
 2657TIP3   OH229529   5.332   0.916   1.399
 2657TIP3    H129530   5.391   0.946   1.468
 2657TIP3    H229531   5.338   0.821   1.402
 2658TIP3   OH229532   4.062   2.855   0.210
 2658TIP3    H129533   4.152   2.850   0.177
 2658TIP3    H229534   4.014   2.790   0.158
 2659TIP3   OH229535   5.042   1.471   6.953
 2659TIP3    H129536   5.113   1.408   6.950
 2659TIP3    H229537   4.965   1.423   6.923
 2660TIP3   OH229538   4.890   5.836   1.924
 2660TIP3    H129539   4.927   5.921   1.949
 2660TIP3    H229540   4.945   5.771   1.967
 2661TIP3   OH229541   0.469   6.463   0.072
 2661TIP3    H129542   0.401   6.400   0.095
 2661TIP3    H229543   0.441   6.499   8.650
 2662TIP3   OH229544   2.606   5.957   7.376
 2662TIP3    H129545   2.656   6.031   7.343
 2662TIP3    H229546   2.544   5.995   7.438
 2663TIP3   OH229547   4.744   5.752   0.412
 2663TIP3    H129548   4.805   5.815   0.450
 2663TIP3    H229549   4.674   5.745   0.478
 2664TIP3   OH229550   5.661   0.437   2.415
 2664TIP3    H129551   5.734   0.489   2.448
 2664TIP3    H229552   5.674   0.351   2.455
 2665TIP3   OH229553   4.130   2.678   7.950
 2665TIP3    H129554   4.160   2.725   8.027
 2665TIP3    H229555   4.037   2.659   7.968
 2666TIP3   OH229556   1.955   2.607   8.487
 2666TIP3    H129557   1.867   2.571   8.499
 2666TIP3    H229558   1.941   2.699   8.465
 2667TIP3   OH229559   4.099   0.386   0.581
 2667TIP3    H129560   4.129   0.474   0.603
 2667TIP3    H229561   4.178   0.333   0.578
 2668TIP3   OH229562   4.661   2.880   7.555
 2668TIP3    H129563   4.615   2.811   7.602
 2668TIP3    H229564   4.604   2.956   7.562
 2669TIP3   OH229565   3.416   0.808   1.100
 2669TIP3    H129566   3.462   0.753   1.163
 2669TIP3    H229567   3.428   0.764   1.016
 2670TIP3   OH229568   2.581   1.018   6.058
 2670TIP3    H129569   2.580   1.097   6.112
 2670TIP3    H229570   2.662   0.973   6.082
 2671TIP3   OH229571   5.984   2.237   6.775
 2671TIP3    H129572   5.941   2.281   6.848
 2671TIP3    H229573   5.911   2.199   6.724
 2672TIP3   OH229574   4.528   0.737   8.025
 2672TIP3    H129575   4.556   0.806   8.084
 2672TIP3    H229576   4.482   0.783   7.955
 2673TIP3   OH229577   0.893   1.157   2.033
 2673TIP3    H129578   0.907   1.227   2.096
 2673TIP3    H229579   0.957   1.090   2.057
 2674TIP3   OH229580   5.596   5.344   0.727
 2674TIP3    H129581   5.550   5.266   0.698
 2674TIP3    H229582   5.570   5.412   0.666
 2675TIP3   OH229583   4.678   0.369   1.843
 2675TIP3    H129584   4.597   0.372   1.792
 2675TIP3    H229585   4.650   0.384   1.933
 2676TIP3   OH229586   6.089   6.028   1.056
 2676TIP3    H129587   6.066   5.935   1.055
 2676TIP3    H229588   6.136   6.041   0.973
 2677TIP3   OH229589   6.750   3.975   1.831
 2677TIP3    H129590   6.831   3.983   1.780
 2677TIP3    H229591   6.768   4.022   1.912
 2678TIP3   OH229592   4.955   3.491   6.470
 2678TIP3    H129593   4.941   3.511   6.378
 2678TIP3    H229594   5.048   3.509   6.484
 2679TIP3   OH229595   3.675   4.375   8.203
 2679TIP3    H129596   3.700   4.420   8.285
 2679TIP3    H229597   3.624   4.300   8.232
 2680TIP3   OH229598   5.956   3.952   0.452
 2680TIP3    H129599   5.887   4.015   0.470
 2680TIP3    H229600   6.020   3.966   0.522
 2681TIP3   OH229601   6.285   6.674   0.558
 2681TIP3    H129602   6.279   6.618   0.481
 2681TIP3    H229603   6.282   6.763   0.524
 2682TIP3   OH229604   1.776   0.441   6.855
 2682TIP3    H129605   1.862   0.408   6.826
 2682TIP3    H229606   1.747   0.498   6.784
 2683TIP3   OH229607   5.114   5.695   7.100
 2683TIP3    H129608   5.144   5.786   7.100
 2683TIP3    H229609   5.168   5.652   7.033
 2684TIP3   OH229610   2.795   6.080   7.913
 2684TIP3    H129611   2.858   6.090   7.985
 2684TIP3    H229612   2.752   5.996   7.932
 2685TIP3   OH229613   6.674   3.044   8.383
 2685TIP3    H129614   6.676   2.961   8.335
 2685TIP3    H229615   6.692   3.020   8.474
 2686TIP3   OH229616   4.042   4.863   1.102
 2686TIP3    H129617   4.088   4.787   1.138
 2686TIP3    H229618   4.086   4.881   1.019
 2687TIP3   OH229619   3.779   3.935   1.106
 2687TIP3    H129620   3.858   3.967   1.150
 2687TIP3    H229621   3.787   3.968   1.017
 2688TIP3   OH229622   6.143   0.890   1.289
 2688TIP3    H129623   6.220   0.881   1.233
 2688TIP3    H229624   6.076   0.930   1.233
 2689TIP3   OH229625   1.518   3.950   2.170
 2689TIP3    H129626   1.465   3.904   2.105
 2689TIP3    H229627   1.477   3.928   2.254
 2690TIP3   OH229628   1.718   5.838   6.865
 2690TIP3    H129629   1.656   5.855   6.936
 2690TIP3    H229630   1.673   5.774   6.809
 2691TIP3   OH229631   2.594   2.814   8.396
 2691TIP3    H129632   2.541   2.893   8.409
 2691TIP3    H229633   2.559   2.775   8.316
 2692TIP3   OH229634   5.598   0.203   1.153
 2692TIP3    H129635   5.563   0.152   1.080
 2692TIP3    H229636   5.692   0.209   1.135
 2693TIP3   OH229637   6.537   6.110   1.471
 2693TIP3    H129638   6.625   6.109   1.509
 2693TIP3    H229639   6.496   6.029   1.502
 2694TIP3   OH229640   0.189   3.500   7.295
 2694TIP3    H129641   0.208   3.420   7.247
 2694TIP3    H229642   0.179   3.567   7.227
 2695TIP3   OH229643   6.404   3.445   0.775
 2695TIP3    H129644   6.344   3.518   0.789
 2695TIP3    H229645   6.461   3.445   0.852
 2696TIP3   OH229646   3.023   4.266   6.950
 2696TIP3    H129647   3.077   4.345   6.944
 2696TIP3    H229648   3.085   4.194   6.945
 2697TIP3   OH229649   6.108   1.295   8.592
 2697TIP3    H129650   6.071   1.275   0.016
 2697TIP3    H229651   6.164   1.220   8.572
 2698TIP3   OH229652   1.658   4.222   7.842
 2698TIP3    H129653   1.739   4.256   7.804
 2698TIP3    H229654   1.647   4.135   7.804
 2699TIP3   OH229655   0.237   6.036   8.102
 2699TIP3    H129656   0.278   5.950   8.110
 2699TIP3    H229657   0.282   6.090   8.166
 2700TIP3   OH229658   2.779   5.949   0.361
 2700TIP3    H129659   2.746   5.887   0.425
 2700TIP3    H229660   2.713   6.019   0.358
 2701TIP3   OH229661   1.549   6.859   1.184
 2701TIP3    H129662   1.529   6.845   1.277
 2701TIP3    H229663   1.613   0.044   1.184
 2702TIP3   OH229664   4.325   6.202   6.933
 2702TIP3    H129665   4.252   6.186   6.874
 2702TIP3    H229666   4.319   6.133   6.999
 2703TIP3   OH229667   3.017   6.277   0.126
 2703TIP3    H129668   3.030   6.348   0.189
 2703TIP3    H229669   3.029   6.197   0.178
 2704TIP3   OH229670   6.101   2.488   2.848
 2704TIP3    H129671   6.120   2.550   2.777
 2704TIP3    H229672   6.160   2.513   2.919
 2705TIP3   OH229673   2.455   1.239   0.139
 2705TIP3    H129674   2.361   1.255   0.132
 2705TIP3    H229675   2.466   1.194   0.223
 2706TIP3   OH229676   2.184   1.682   1.463
 2706TIP3    H129677   2.133   1.754   1.500
 2706TIP3    H229678   2.196   1.706   1.371
 2707TIP3   OH229679   2.777   4.240   1.260
 2707TIP3    H129680   2.729   4.320   1.240
 2707TIP3    H229681   2.869   4.262   1.245
 2708TIP3   OH229682   5.990   3.427   8.424
 2708TIP3    H129683   6.043   3.377   8.485
 2708TIP3    H229684   6.029   3.410   8.338
 2709TIP3   OH229685   5.409   1.582   0.419
 2709TIP3    H129686   5.411   1.599   0.325
 2709TIP3    H229687   5.417   1.487   0.426
 2710TIP3   OH229688   0.996   0.724   7.590
 2710TIP3    H129689   1.078   0.771   7.579
 2710TIP3    H229690   0.975   0.690   7.503
 2711TIP3   OH229691   5.994   0.825   1.749
 2711TIP3    H129692   6.056   0.898   1.751
 2711TIP3    H229693   6.031   0.761   1.810
 2712TIP3   OH229694   3.941   5.219   1.985
 2712TIP3    H129695   4.017   5.274   2.002
 2712TIP3    H229696   3.945   5.151   2.052
 2713TIP3   OH229697   5.690   6.814   8.623
 2713TIP3    H129698   5.713   6.812   8.530
 2713TIP3    H229699   5.599   6.787   8.626
 2714TIP3   OH229700   1.798   5.524   1.953
 2714TIP3    H129701   1.787   5.590   2.021
 2714TIP3    H229702   1.855   5.566   1.888
 2715TIP3   OH229703   6.748   2.489   1.862
 2715TIP3    H129704   6.785   2.492   1.950
 2715TIP3    H229705   6.703   2.405   1.858
 2716TIP3   OH229706   4.994   1.535   0.784
 2716TIP3    H129707   4.933   1.584   0.729
 2716TIP3    H229708   4.940   1.504   0.857
 2717TIP3   OH229709   0.589   0.065   1.515
 2717TIP3    H129710   0.603   0.057   1.609
 2717TIP3    H229711   0.568   0.157   1.501
 2718TIP3   OH229712   4.198   2.646   1.199
 2718TIP3    H129713   4.164   2.732   1.221
 2718TIP3    H229714   4.135   2.611   1.135
 2719TIP3   OH229715   5.896   2.063   7.100
 2719TIP3    H129716   5.901   2.026   7.011
 2719TIP3    H229717   5.963   2.016   7.149
 2720TIP3   OH229718   5.141   2.325   6.361
 2720TIP3    H129719   5.182   2.331   6.447
 2720TIP3    H229720   5.055   2.285   6.377
 2721TIP3   OH229721   5.047   1.768   2.067
 2721TIP3    H129722   5.017   1.709   2.136
 2721TIP3    H229723   5.140   1.748   2.057
 2722TIP3   OH229724   5.929   6.350   7.098
 2722TIP3    H129725   5.928   6.346   7.003
 2722TIP3    H229726   6.000   6.291   7.124
 2723TIP3   OH229727   2.276   3.591   7.026
 2723TIP3    H129728   2.320   3.553   6.950
 2723TIP3    H229729   2.290   3.685   7.016
 2724TIP3   OH229730   2.829   5.487   8.595
 2724TIP3    H129731   2.762   5.521   8.535
 2724TIP3    H229732   2.912   5.522   8.560
 2725TIP3   OH229733   5.889   5.488   1.599
 2725TIP3    H129734   5.942   5.409   1.609
 2725TIP3    H229735   5.918   5.546   1.669
 2726TIP3   OH229736   3.882   5.138   1.689
 2726TIP3    H129737   3.955   5.083   1.660
 2726TIP3    H229738   3.898   5.153   1.782
 2727TIP3   OH229739   4.729   5.200   1.485
 2727TIP3    H129740   4.735   5.294   1.506
 2727TIP3    H229741   4.819   5.169   1.485
 2728TIP3   OH229742   3.256   4.881   1.527
 2728TIP3    H129743   3.280   4.805   1.474
 2728TIP3    H229744   3.163   4.893   1.512
 2729TIP3   OH229745   4.926   4.731   6.351
 2729TIP3    H129746   5.010   4.696   6.382
 2729TIP3    H229747   4.869   4.728   6.428
 2730TIP3   OH229748   1.407   2.436   8.092
 2730TIP3    H129749   1.377   2.349   8.120
 2730TIP3    H229750   1.411   2.430   7.997
 2731TIP3   OH229751   2.447   1.349   6.625
 2731TIP3    H129752   2.497   1.430   6.617
 2731TIP3    H229753   2.446   1.330   6.718
 2732TIP3   OH229754   5.502   6.143   5.979
 2732TIP3    H129755   5.498   6.090   6.058
 2732TIP3    H229756   5.564   6.098   5.922
 2733TIP3   OH229757   1.308   0.940   0.074
 2733TIP3    H129758   1.263   1.005   0.019
 2733TIP3    H229759   1.292   0.970   0.163
 2734TIP3   OH229760   6.516   0.654   1.184
 2734TIP3    H129761   6.489   0.569   1.220
 2734TIP3    H229762   6.440   0.684   1.134
 2735TIP3   OH229763   4.747   6.353   1.790
 2735TIP3    H129764   4.669   6.309   1.824
 2735TIP3    H229765   4.807   6.354   1.865
 2736TIP3   OH229766   6.119   1.296   1.317
 2736TIP3    H129767   6.153   1.386   1.320
 2736TIP3    H229768   6.065   1.293   1.238
 2737TIP3   OH229769   6.651   1.960   8.273
 2737TIP3    H129770   6.629   1.946   8.365
 2737TIP3    H229771   6.610   1.886   8.228
 2738TIP3   OH229772   2.013   4.505   7.267
 2738TIP3    H129773   1.974   4.429   7.223
 2738TIP3    H229774   1.943   4.539   7.323
 2739TIP3   OH229775   0.963   0.902   7.032
 2739TIP3    H129776   1.002   0.913   6.945
 2739TIP3    H229777   1.028   0.852   7.082
 2740TIP3   OH229778   5.793   4.852   0.450
 2740TIP3    H129779   5.718   4.857   0.391
 2740TIP3    H229780   5.757   4.868   0.537
 2741TIP3   OH229781   6.064   5.494   0.992
 2741TIP3    H129782   5.995   5.467   0.932
 2741TIP3    H229783   6.102   5.412   1.024
 2742TIP3   OH229784   1.572   0.694   7.886
 2742TIP3    H129785   1.524   0.703   7.803
 2742TIP3    H229786   1.619   0.611   7.877
 2743TIP3   OH229787   1.762   4.618   0.175
 2743TIP3    H129788   1.756   4.523   0.171
 2743TIP3    H229789   1.779   4.645   0.084
 2744TIP3   OH229790   2.786   0.402   8.032
 2744TIP3    H129791   2.748   0.444   8.109
 2744TIP3    H229792   2.876   0.384   8.057
 2745TIP3   OH229793   5.271   3.114   2.394
 2745TIP3    H129794   5.229   3.200   2.390
 2745TIP3    H229795   5.350   3.128   2.445
 2746TIP3   OH229796   1.460   6.319   0.669
 2746TIP3    H129797   1.514   6.245   0.695
 2746TIP3    H229798   1.511   6.365   0.603
 2747TIP3   OH229799   1.792   1.296   1.705
 2747TIP3    H129800   1.786   1.282   1.800
 2747TIP3    H229801   1.820   1.387   1.695
 2748TIP3   OH229802   0.858   0.886   7.783
 2748TIP3    H129803   0.899   0.830   7.717
 2748TIP3    H229804   0.786   0.929   7.736
 2749TIP3   OH229805   2.796   6.721   0.736
 2749TIP3    H129806   2.755   6.716   0.823
 2749TIP3    H229807   2.851   6.643   0.732
 2750TIP3   OH229808   1.001   5.492   8.105
 2750TIP3    H129809   1.085   5.463   8.069
 2750TIP3    H229810   1.020   5.515   8.195
 2751TIP3   OH229811   3.598   4.276   0.646
 2751TIP3    H129812   3.680   4.257   0.692
 2751TIP3    H229813   3.625   4.305   0.559
 2752TIP3   OH229814   0.508   4.442   0.792
 2752TIP3    H129815   0.514   4.537   0.797
 2752TIP3    H229816   0.452   4.425   0.716
 2753TIP3   OH229817   1.479   0.152   7.044
 2753TIP3    H129818   1.568   0.176   7.071
 2753TIP3    H229819   1.422   0.212   7.092
 2754TIP3   OH229820   6.344   0.855   0.582
 2754TIP3    H129821   6.346   0.945   0.549
 2754TIP3    H229822   6.332   0.865   0.676
 2755TIP3   OH229823   5.287   2.813   1.126
 2755TIP3    H129824   5.217   2.751   1.109
 2755TIP3    H229825   5.244   2.889   1.165
 2756TIP3   OH229826   3.238   3.466   1.204
 2756TIP3    H129827   3.323   3.485   1.244
 2756TIP3    H229828   3.179   3.532   1.240
 2757TIP3   OH229829   5.345   6.673   0.340
 2757TIP3    H129830   5.394   6.591   0.349
 2757TIP3    H229831   5.265   6.649   0.292
 2758TIP3   OH229832   1.900   5.942   6.546
 2758TIP3    H129833   1.948   6.018   6.579
 2758TIP3    H229834   1.961   5.901   6.484
 2759TIP3   OH229835   3.228   0.330   0.249
 2759TIP3    H129836   3.313   0.288   0.237
 2759TIP3    H229837   3.248   0.423   0.261
 2760TIP3   OH229838   1.571   5.165   7.510
 2760TIP3    H129839   1.610   5.147   7.424
 2760TIP3    H229840   1.477   5.150   7.498
 2761TIP3   OH229841   5.405   1.172   0.919
 2761TIP3    H129842   5.471   1.128   0.971
 2761TIP3    H229843   5.403   1.124   0.836
 2762TIP3   OH229844   3.858   3.255   6.751
 2762TIP3    H129845   3.935   3.229   6.802
 2762TIP3    H229846   3.873   3.219   6.664
 2763TIP3   OH229847   5.005   1.470   8.409
 2763TIP3    H129848   5.044   1.395   8.454
 2763TIP3    H229849   4.925   1.488   8.459
 2764TIP3   OH229850   1.315   3.464   6.894
 2764TIP3    H129851   1.227   3.434   6.918
 2764TIP3    H229852   1.307   3.486   6.801
 2765TIP3   OH229853   4.897   3.471   0.031
 2765TIP3    H129854   4.921   3.425   0.111
 2765TIP3    H229855   4.803   3.487   0.039
 2766TIP3   OH229856   2.649   1.011   1.806
 2766TIP3    H129857   2.724   1.031   1.750
 2766TIP3    H229858   2.682   0.944   1.866
 2767TIP3   OH229859   6.605   4.227   7.720
 2767TIP3    H129860   6.547   4.292   7.680
 2767TIP3    H229861   6.580   4.226   7.812
 2768TIP3   OH229862   5.121   0.742   7.494
 2768TIP3    H129863   5.102   0.741   7.400
 2768TIP3    H229864   5.138   0.834   7.514
 2769TIP3   OH229865   5.419   4.638   7.240
 2769TIP3    H129866   5.371   4.590   7.309
 2769TIP3    H229867   5.425   4.576   7.168
 2770TIP3   OH229868   0.194   1.585   0.889
 2770TIP3    H129869   0.117   1.547   0.847
 2770TIP3    H229870   0.255   1.602   0.817
 2771TIP3   OH229871   0.028   6.370   7.162
 2771TIP3    H129872   0.107   6.389   7.213
 2771TIP3    H229873   6.882   6.457   7.136
 2772TIP3   OH229874   6.588   6.280   8.471
 2772TIP3    H129875   6.606   6.374   8.474
 2772TIP3    H229876   6.505   6.270   8.517
 2773TIP3   OH229877   5.917   5.314   0.272
 2773TIP3    H129878   5.955   5.376   0.335
 2773TIP3    H229879   5.960   5.231   0.291
 2774TIP3   OH229880   3.389   5.051   8.567
 2774TIP3    H129881   3.406   5.119   8.632
 2774TIP3    H229882   3.316   5.085   8.516
 2775TIP3   OH229883   0.882   4.455   1.662
 2775TIP3    H129884   0.905   4.376   1.711
 2775TIP3    H229885   0.797   4.481   1.697
 2776TIP3   OH229886   3.243   4.543   7.256
 2776TIP3    H129887   3.197   4.613   7.301
 2776TIP3    H229888   3.325   4.533   7.305
 2777TIP3   OH229889   0.202   2.191   0.896
 2777TIP3    H129890   0.120   2.203   0.944
 2777TIP3    H229891   0.175   2.161   0.809
 2778TIP3   OH229892   3.338   4.533   8.420
 2778TIP3    H129893   3.311   4.530   8.328
 2778TIP3    H229894   3.293   4.609   8.456
 2779TIP3   OH229895   4.995   4.776   7.287
 2779TIP3    H129896   4.966   4.865   7.306
 2779TIP3    H229897   5.055   4.755   7.359
 2780TIP3   OH229898   6.081   5.884   8.211
 2780TIP3    H129899   6.165   5.842   8.230
 2780TIP3    H229900   6.101   5.951   8.146
 2781TIP3   OH229901   0.957   5.287   0.885
 2781TIP3    H129902   0.990   5.331   0.807
 2781TIP3    H229903   0.942   5.197   0.858
 2782TIP3   OH229904   0.032   2.417   0.692
 2782TIP3    H129905   6.853   2.448   0.755
 2782TIP3    H229906   0.097   2.488   0.689
 2783TIP3   OH229907   1.559   6.220   8.022
 2783TIP3    H129908   1.602   6.303   8.040
 2783TIP3    H229909   1.543   6.182   8.108
 2784TIP3   OH229910   4.095   2.656   7.406
 2784TIP3    H129911   4.170   2.710   7.430
 2784TIP3    H229912   4.089   2.591   7.476
 2785TIP3   OH229913   6.133   3.207   8.658
 2785TIP3    H129914   6.136   3.239   0.086
 2785TIP3    H229915   6.073   3.132   8.661
 2786TIP3   OH229916   6.330   1.322   0.991
 2786TIP3    H129917   6.302   1.339   0.901
 2786TIP3    H229918   6.304   1.401   1.039
 2787TIP3   OH229919   5.447   1.807   7.383
 2787TIP3    H129920   5.382   1.837   7.447
 2787TIP3    H229921   5.529   1.804   7.433
 2788TIP3   OH229922   3.719   4.547   7.231
 2788TIP3    H129923   3.752   4.626   7.188
 2788TIP3    H229924   3.792   4.518   7.286
 2789TIP3   OH229925   3.625   6.167   8.566
 2789TIP3    H129926   3.637   6.124   8.481
 2789TIP3    H229927   3.710   6.160   8.609
 2790TIP3   OH229928   4.632   3.469   6.662
 2790TIP3    H129929   4.547   3.445   6.698
 2790TIP3    H229930   4.642   3.414   6.584
 2791TIP3   OH229931   2.360   0.535   1.190
 2791TIP3    H129932   2.387   0.462   1.134
 2791TIP3    H229933   2.429   0.600   1.180
 2792TIP3   OH229934   0.534   1.050   7.305
 2792TIP3    H129935   0.470   1.036   7.235
 2792TIP3    H229936   0.484   1.094   7.374
 2793TIP3   OH229937   3.862   3.822   1.410
 2793TIP3    H129938   3.789   3.794   1.464
 2793TIP3    H229939   3.908   3.741   1.388
 2794TIP3   OH229940   1.289   5.109   1.578
 2794TIP3    H129941   1.315   5.052   1.506
 2794TIP3    H229942   1.333   5.192   1.561
 2795TIP3   OH229943   6.120   5.820   7.190
 2795TIP3    H129944   6.159   5.871   7.119
 2795TIP3    H229945   6.188   5.759   7.216
 2796TIP3   OH229946   2.626   3.270   0.505
 2796TIP3    H129947   2.603   3.183   0.473
 2796TIP3    H229948   2.720   3.265   0.525
 2797TIP3   OH229949   6.371   6.137   6.730
 2797TIP3    H129950   6.465   6.146   6.746
 2797TIP3    H229951   6.355   6.042   6.737
 2798TIP3   OH229952   0.691   6.074   0.394
 2798TIP3    H129953   0.764   6.096   0.452
 2798TIP3    H229954   0.632   6.148   0.401
 2799TIP3   OH229955   2.601   5.398   1.602
 2799TIP3    H129956   2.670   5.345   1.641
 2799TIP3    H229957   2.561   5.341   1.536
 2800TIP3   OH229958   6.052   3.057   0.767
 2800TIP3    H129959   6.124   3.117   0.788
 2800TIP3    H229960   6.000   3.104   0.702
 2801TIP3   OH229961   4.015   5.182   7.025
 2801TIP3    H129962   4.080   5.205   7.091
 2801TIP3    H229963   4.006   5.087   7.032
 2802TIP3   OH229964   0.486   6.007   7.653
 2802TIP3    H129965   0.484   6.051   7.738
 2802TIP3    H229966   0.423   5.936   7.661
 2803TIP3   OH229967   6.702   4.200   1.300
 2803TIP3    H129968   6.632   4.232   1.357
 2803TIP3    H229969   6.720   4.273   1.240
 2804TIP3   OH229970   3.106   4.701   1.708
 2804TIP3    H129971   3.104   4.669   1.618
 2804TIP3    H229972   3.180   4.761   1.710
 2805TIP3   OH229973   1.276   3.290   7.936
 2805TIP3    H129974   1.334   3.366   7.929
 2805TIP3    H229975   1.221   3.309   8.011
 2806TIP3   OH229976   0.218   3.862   6.276
 2806TIP3    H129977   0.293   3.885   6.223
 2806TIP3    H229978   0.172   3.794   6.226
 2807TIP3   OH229979   5.672   2.342   7.356
 2807TIP3    H129980   5.752   2.307   7.317
 2807TIP3    H229981   5.702   2.417   7.408
 2808TIP3   OH229982   5.150   4.906   0.798
 2808TIP3    H129983   5.176   4.818   0.771
 2808TIP3    H229984   5.226   4.960   0.780
 2809TIP3   OH229985   2.707   0.342   0.917
 2809TIP3    H129986   2.641   0.328   0.849
 2809TIP3    H229987   2.753   0.258   0.923
 2810TIP3   OH229988   3.944   3.929   8.036
 2810TIP3    H129989   3.986   4.008   8.070
 2810TIP3    H229990   4.004   3.857   8.061
 2811TIP3   OH229991   4.455   1.390   1.141
 2811TIP3    H129992   4.523   1.331   1.172
 2811TIP3    H229993   4.374   1.354   1.179
 2812TIP3   OH229994   4.207   1.196   8.053
 2812TIP3    H129995   4.270   1.126   8.038
 2812TIP3    H229996   4.234   1.237   8.135
 2813TIP3   OH229997   3.027   1.429   6.581
 2813TIP3    H129998   3.110   1.381   6.588
 2813TIP3    H229999   2.962   1.369   6.617
 2814TIP3   OH230000   0.481   0.973   6.891
 2814TIP3    H130001   0.509   0.927   6.812
 2814TIP3    H230002   0.526   0.928   6.962
 2815TIP3   OH230003   3.637   2.313   0.781
 2815TIP3    H130004   3.584   2.234   0.792
 2815TIP3    H230005   3.614   2.345   0.693
 2816TIP3   OH230006   3.208   6.586   7.873
 2816TIP3    H130007   3.223   6.535   7.794
 2816TIP3    H230008   3.255   6.538   7.942
 2817TIP3   OH230009   1.711   4.865   7.384
 2817TIP3    H130010   1.770   4.928   7.426
 2817TIP3    H230011   1.661   4.918   7.322
 2818TIP3   OH230012   1.565   2.074   5.933
 2818TIP3    H130013   1.494   2.111   5.986
 2818TIP3    H230014   1.530   1.991   5.901
 2819TIP3   OH230015   0.429   2.265   7.950
 2819TIP3    H130016   0.405   2.197   7.887
 2819TIP3    H230017   0.410   2.347   7.906
 2820TIP3   OH230018   1.198   2.220   0.265
 2820TIP3    H130019   1.155   2.135   0.260
 2820TIP3    H230020   1.252   2.216   0.344
 2821TIP3   OH230021   3.742   4.072   6.443
 2821TIP3    H130022   3.747   4.071   6.538
 2821TIP3    H230023   3.700   3.989   6.420
 2822TIP3   OH230024   1.996   2.675   7.729
 2822TIP3    H130025   1.999   2.764   7.764
 2822TIP3    H230026   2.087   2.648   7.723
 2823TIP3   OH230027   1.049   3.453   1.704
 2823TIP3    H130028   1.101   3.533   1.697
 2823TIP3    H230029   0.958   3.483   1.693
 2824TIP3   OH230030   3.659   6.193   8.118
 2824TIP3    H130031   3.741   6.145   8.103
 2824TIP3    H230032   3.670   6.274   8.068
 2825TIP3   OH230033   4.832   4.978   7.566
 2825TIP3    H130034   4.920   4.943   7.583
 2825TIP3    H230035   4.775   4.902   7.566
 2826TIP3   OH230036   5.398   4.260   8.534
 2826TIP3    H130037   5.363   4.332   8.588
 2826TIP3    H230038   5.341   4.186   8.553
 2827TIP3   OH230039   2.750   4.776   0.851
 2827TIP3    H130040   2.822   4.728   0.811
 2827TIP3    H230041   2.678   4.768   0.788
 2828TIP3   OH230042   5.448   5.270   7.727
 2828TIP3    H130043   5.499   5.224   7.794
 2828TIP3    H230044   5.425   5.354   7.768
 2829TIP3   OH230045   1.907   5.070   8.067
 2829TIP3    H130046   1.898   5.157   8.027
 2829TIP3    H230047   1.818   5.035   8.068
 2830TIP3   OH230048   5.140   0.419   8.094
 2830TIP3    H130049   5.106   0.505   8.069
 2830TIP3    H230050   5.075   0.357   8.061
 2831TIP3   OH230051   1.604   4.336   8.496
 2831TIP3    H130052   1.673   4.372   8.440
 2831TIP3    H230053   1.525   4.339   8.441
 2832TIP3   OH230054   2.048   4.406   0.032
 2832TIP3    H130055   2.031   4.333   8.636
 2832TIP3    H230056   2.001   4.480   8.656
 2833TIP3   OH230057   2.824   3.120   7.902
 2833TIP3    H130058   2.833   3.162   7.988
 2833TIP3    H230059   2.775   3.040   7.920
 2834TIP3   OH230060   2.908   4.921   2.269
 2834TIP3    H130061   2.921   5.005   2.224
 2834TIP3    H230062   2.911   4.943   2.362
 2835TIP3   OH230063   0.458   2.476   7.781
 2835TIP3    H130064   0.408   2.543   7.733
 2835TIP3    H230065   0.492   2.522   7.857
 2836TIP3   OH230066   4.203   0.761   0.078
 2836TIP3    H130067   4.290   0.740   0.044
 2836TIP3    H230068   4.219   0.787   0.169
 2837TIP3   OH230069   0.402   4.721   1.436
 2837TIP3    H130070   0.334   4.777   1.473
 2837TIP3    H230071   0.475   4.781   1.419
 2838TIP3   OH230072   5.206   5.821   8.059
 2838TIP3    H130073   5.271   5.816   7.989
 2838TIP3    H230074   5.183   5.913   8.065
 2839TIP3   OH230075   3.755   4.709   7.659
 2839TIP3    H130076   3.794   4.778   7.713
 2839TIP3    H230077   3.748   4.634   7.718
 2840TIP3   OH230078   4.399   6.289   1.643
 2840TIP3    H130079   4.398   6.211   1.698
 2840TIP3    H230080   4.338   6.269   1.572
 2841TIP3   OH230081   3.570   3.190   1.492
 2841TIP3    H130082   3.639   3.169   1.428
 2841TIP3    H230083   3.502   3.125   1.475
 2842TIP3   OH230084   0.708   6.126   6.711
 2842TIP3    H130085   0.707   6.080   6.795
 2842TIP3    H230086   0.616   6.145   6.693
 2843TIP3   OH230087   1.772   0.188   7.032
 2843TIP3    H130088   1.750   0.095   7.039
 2843TIP3    H230089   1.868   0.189   7.024
 2844TIP3   OH230090   1.929   1.878   0.971
 2844TIP3    H130091   1.894   1.875   0.883
 2844TIP3    H230092   1.855   1.906   1.026
 2845TIP3   OH230093   2.956   6.501   0.720
 2845TIP3    H130094   3.010   6.470   0.793
 2845TIP3    H230095   2.911   6.423   0.689
 2846TIP3   OH230096   1.588   3.963   0.068
 2846TIP3    H130097   1.601   3.905   8.655
 2846TIP3    H230098   1.656   3.938   0.130
 2847TIP3   OH230099   0.158   3.133   6.818
 2847TIP3    H130100   0.119   3.119   6.732
 2847TIP3    H230101   0.247   3.163   6.801
 2848TIP3   OH230102   1.522   1.369   1.994
 2848TIP3    H130103   1.465   1.346   1.920
 2848TIP3    H230104   1.518   1.292   2.051
 2849TIP3   OH230105   3.057   0.003   1.178
 2849TIP3    H130106   3.018   6.843   1.104
 2849TIP3    H230107   2.983   0.044   1.223
 2850TIP3   OH230108   6.023   5.138   8.529
 2850TIP3    H130109   6.003   5.226   8.563
 2850TIP3    H230110   5.997   5.079   8.600
 2851TIP3   OH230111   4.528   6.525   8.348
 2851TIP3    H130112   4.456   6.463   8.358
 2851TIP3    H230113   4.490   6.610   8.372
 2852TIP3   OH230114   4.402   4.012   8.181
 2852TIP3    H130115   4.396   4.106   8.198
 2852TIP3    H230116   4.327   3.992   8.126
 2853TIP3   OH230117   5.183   5.060   8.392
 2853TIP3    H130118   5.277   5.063   8.374
 2853TIP3    H230119   5.176   5.007   8.471
 2854TIP3   OH230120   4.886   1.104   1.689
 2854TIP3    H130121   4.873   1.174   1.626
 2854TIP3    H230122   4.848   1.137   1.770
 2855TIP3   OH230123   2.831   0.310   6.423
 2855TIP3    H130124   2.880   0.355   6.492
 2855TIP3    H230125   2.739   0.319   6.449
 2856TIP3   OH230126   6.724   4.090   6.984
 2856TIP3    H130127   6.739   4.136   7.067
 2856TIP3    H230128   6.706   3.999   7.010
 2857TIP3   OH230129   2.628   6.313   7.982
 2857TIP3    H130130   2.694   6.269   7.929
 2857TIP3    H230131   2.545   6.280   7.949
 2858TIP3   OH230132   4.605   4.535   6.712
 2858TIP3    H130133   4.572   4.623   6.727
 2858TIP3    H230134   4.583   4.487   6.792
 2859TIP3   OH230135   6.292   2.645   8.192
 2859TIP3    H130136   6.250   2.710   8.136
 2859TIP3    H230137   6.261   2.665   8.281
 2860TIP3   OH230138   1.474   3.685   6.988
 2860TIP3    H130139   1.550   3.627   7.000
 2860TIP3    H230140   1.409   3.630   6.945
 2861TIP3   OH230141   0.457   5.591   8.079
 2861TIP3    H130142   0.537   5.578   8.029
 2861TIP3    H230143   0.484   5.581   8.171
 2862TIP3   OH230144   4.108   1.190   0.300
 2862TIP3    H130145   4.120   1.255   0.231
 2862TIP3    H230146   4.181   1.206   0.361
 2863TIP3   OH230147   0.791   3.394   7.132
 2863TIP3    H130148   0.732   3.469   7.128
 2863TIP3    H230149   0.746   3.326   7.082
 2864TIP3   OH230150   2.070   2.435   7.362
 2864TIP3    H130151   2.076   2.497   7.289
 2864TIP3    H230152   2.146   2.455   7.417
 2865TIP3   OH230153   3.550   6.503   0.736
 2865TIP3    H130154   3.600   6.520   0.815
 2865TIP3    H230155   3.609   6.525   0.664
 2866TIP3   OH230156   4.338   2.458   7.340
 2866TIP3    H130157   4.421   2.488   7.303
 2866TIP3    H230158   4.326   2.512   7.419
 2867TIP3   OH230159   5.202   2.273   0.202
 2867TIP3    H130160   5.157   2.348   0.162
 2867TIP3    H230161   5.248   2.310   0.276
 2868TIP3   OH230162   4.883   3.436   0.367
 2868TIP3    H130163   4.949   3.504   0.386
 2868TIP3    H230164   4.819   3.445   0.438
 2869TIP3   OH230165   4.730   6.877   0.169
 2869TIP3    H130166   4.801   0.056   0.168
 2869TIP3    H230167   4.660   0.032   0.118
 2870TIP3   OH230168   4.152   6.536   2.580
 2870TIP3    H130169   4.060   6.508   2.575
 2870TIP3    H230170   4.171   6.570   2.493
 2871TIP3   OH230171   1.780   1.688   2.494
 2871TIP3    H130172   1.875   1.699   2.492
 2871TIP3    H230173   1.745   1.777   2.497
 2872TIP3   OH230174   4.542   1.104   0.649
 2872TIP3    H130175   4.548   1.165   0.723
 2872TIP3    H230176   4.469   1.046   0.673
 2873TIP3   OH230177   0.806   2.720   2.406
 2873TIP3    H130178   0.712   2.722   2.426
 2873TIP3    H230179   0.823   2.629   2.381
 2874TIP3   OH230180   1.280   1.063   8.274
 2874TIP3    H130181   1.230   1.026   8.346
 2874TIP3    H230182   1.309   0.987   8.223
 2875TIP3   OH230183   0.491   3.529   8.160
 2875TIP3    H130184   0.406   3.563   8.188
 2875TIP3    H230185   0.478   3.434   8.152
 2876TIP3   OH230186   3.772   5.872   8.009
 2876TIP3    H130187   3.679   5.857   7.995
 2876TIP3    H230188   3.801   5.921   7.932
 2877TIP3   OH230189   5.260   4.426   6.769
 2877TIP3    H130190   5.181   4.436   6.714
 2877TIP3    H230191   5.333   4.430   6.707
 2878TIP3   OH230192   5.390   6.629   0.871
 2878TIP3    H130193   5.345   6.706   0.906
 2878TIP3    H230194   5.386   6.640   0.776
 2879TIP3   OH230195   4.447   4.733   8.474
 2879TIP3    H130196   4.508   4.745   8.547
 2879TIP3    H230197   4.366   4.775   8.504
 2880TIP3   OH230198   2.287   0.570   7.467
 2880TIP3    H130199   2.296   0.665   7.479
 2880TIP3    H230200   2.347   0.533   7.531
 2881TIP3   OH230201   0.167   4.598   8.199
 2881TIP3    H130202   0.095   4.595   8.262
 2881TIP3    H230203   0.168   4.689   8.168
 2882TIP3   OH230204   0.105   4.105   7.327
 2882TIP3    H130205   0.031   4.163   7.307
 2882TIP3    H230206   0.159   4.107   7.249
 2883TIP3   OH230207   0.439   3.656   0.422
 2883TIP3    H130208   0.462   3.689   0.509
 2883TIP3    H230209   0.468   3.565   0.422
 2884TIP3   OH230210   3.030   2.592   0.775
 2884TIP3    H130211   3.079   2.673   0.758
 2884TIP3    H230212   3.032   2.544   0.692
 2885TIP3   OH230213   0.970   6.557   1.294
 2885TIP3    H130214   0.999   6.588   1.208
 2885TIP3    H230215   0.888   6.603   1.310
 2886TIP3   OH230216   6.628   4.357   0.206
 2886TIP3    H130217   6.645   4.439   0.254
 2886TIP3    H230218   6.617   4.291   0.275
 2887TIP3   OH230219   1.936   1.228   6.867
 2887TIP3    H130220   1.851   1.207   6.828
 2887TIP3    H230221   2.000   1.203   6.801
 2888TIP3   OH230222   0.270   0.695   1.158
 2888TIP3    H130223   0.205   0.710   1.226
 2888TIP3    H230224   0.300   0.605   1.173
 2889TIP3   OH230225   2.643   3.272   2.360
 2889TIP3    H130226   2.681   3.187   2.379
 2889TIP3    H230227   2.717   3.326   2.332
 2890TIP3   OH230228   4.556   6.777   0.395
 2890TIP3    H130229   4.616   6.792   0.322
 2890TIP3    H230230   4.540   6.864   0.432
 2891TIP3   OH230231   1.670   2.154   6.712
 2891TIP3    H130232   1.633   2.092   6.650
 2891TIP3    H230233   1.752   2.114   6.741
 2892TIP3   OH230234   1.870   6.846   0.277
 2892TIP3    H130235   1.881   6.767   0.225
 2892TIP3    H230236   1.910   0.029   0.225
 2893TIP3   OH230237   3.282   0.108   1.267
 2893TIP3    H130238   3.356   0.067   1.222
 2893TIP3    H230239   3.207   0.052   1.246
 2894TIP3   OH230240   3.753   2.915   0.835
 2894TIP3    H130241   3.696   2.985   0.804
 2894TIP3    H230242   3.746   2.919   0.930
 2895TIP3   OH230243   1.215   3.943   6.469
 2895TIP3    H130244   1.294   3.913   6.425
 2895TIP3    H230245   1.225   3.912   6.559
 2896TIP3   OH230246   3.693   5.290   1.057
 2896TIP3    H130247   3.757   5.355   1.085
 2896TIP3    H230248   3.616   5.305   1.113
 2897TIP3   OH230249   1.805   0.358   8.248
 2897TIP3    H130250   1.758   0.276   8.259
 2897TIP3    H230251   1.740   0.426   8.265
 2898TIP3   OH230252   0.785   3.322   1.252
 2898TIP3    H130253   0.704   3.372   1.240
 2898TIP3    H230254   0.854   3.379   1.217
 2899TIP3   OH230255   1.779   3.936   2.080
 2899TIP3    H130256   1.684   3.940   2.072
 2899TIP3    H230257   1.798   3.843   2.097
 2900TIP3   OH230258   3.584   0.719   7.148
 2900TIP3    H130259   3.641   0.795   7.132
 2900TIP3    H230260   3.505   0.756   7.186
 2901TIP3   OH230261   3.411   1.701   1.177
 2901TIP3    H130262   3.408   1.611   1.208
 2901TIP3    H230263   3.497   1.733   1.205
 2902TIP3   OH230264   5.244   3.472   6.477
 2902TIP3    H130265   5.294   3.392   6.460
 2902TIP3    H230266   5.253   3.523   6.397
 2903TIP3   OH230267   4.928   3.594   7.657
 2903TIP3    H130268   4.882   3.538   7.720
 2903TIP3    H230269   4.946   3.537   7.583
 2904TIP3   OH230270   0.634   6.336   8.390
 2904TIP3    H130271   0.719   6.354   8.350
 2904TIP3    H230272   0.596   6.422   8.406
 2905TIP3   OH230273   0.722   0.903   8.008
 2905TIP3    H130274   0.780   0.907   7.932
 2905TIP3    H230275   0.706   0.809   8.020
 2906TIP3   OH230276   4.850   6.369   7.610
 2906TIP3    H130277   4.939   6.370   7.573
 2906TIP3    H230278   4.851   6.295   7.671
 2907TIP3   OH230279   1.872   0.034   6.796
 2907TIP3    H130280   1.849   0.101   6.731
 2907TIP3    H230281   1.936   0.078   6.853
 2908TIP3   OH230282   3.217   0.850   0.067
 2908TIP3    H130283   3.170   0.934   0.072
 2908TIP3    H230284   3.148   0.784   0.063
 2909TIP3   OH230285   1.773   1.196   1.959
 2909TIP3    H130286   1.832   1.179   2.032
 2909TIP3    H230287   1.685   1.193   1.997
 2910TIP3   OH230288   5.596   5.096   1.873
 2910TIP3    H130289   5.542   5.102   1.952
 2910TIP3    H230290   5.682   5.067   1.905
 2911TIP3   OH230291   5.036   3.298   0.700
 2911TIP3    H130292   5.045   3.372   0.640
 2911TIP3    H230293   4.943   3.298   0.726
 2912TIP3   OH230294   0.087   5.243   8.561
 2912TIP3    H130295   0.020   5.214   8.623
 2912TIP3    H230296   0.099   5.336   8.581
 2913TIP3   OH230297   3.733   2.875   7.195
 2913TIP3    H130298   3.806   2.913   7.145
 2913TIP3    H230299   3.705   2.800   7.142
 2914TIP3   OH230300   1.811   0.736   8.044
 2914TIP3    H130301   1.872   0.665   8.024
 2914TIP3    H230302   1.862   0.799   8.094
 2915TIP3   OH230303   3.257   2.607   7.226
 2915TIP3    H130304   3.222   2.696   7.228
 2915TIP3    H230305   3.352   2.619   7.219
 2916TIP3   OH230306   5.501   5.912   8.281
 2916TIP3    H130307   5.478   5.980   8.218
 2916TIP3    H230308   5.562   5.855   8.232
 2917TIP3   OH230309   0.952   1.678   8.378
 2917TIP3    H130310   0.862   1.689   8.408
 2917TIP3    H230311   0.958   1.733   8.299
 2918TIP3   OH230312   4.374   5.572   0.954
 2918TIP3    H130313   4.449   5.549   0.900
 2918TIP3    H230314   4.308   5.506   0.933
 2919TIP3   OH230315   3.531   5.655   8.076
 2919TIP3    H130316   3.482   5.699   8.146
 2919TIP3    H230317   3.464   5.627   8.014
 2920TIP3   OH230318   4.860   0.752   7.929
 2920TIP3    H130319   4.822   0.822   7.981
 2920TIP3    H230320   4.796   0.736   7.859
 2921TIP3   OH230321   5.571   1.598   7.053
 2921TIP3    H130322   5.601   1.564   7.138
 2921TIP3    H230323   5.637   1.663   7.029
 2922TIP3   OH230324   3.177   3.242   0.926
 2922TIP3    H130325   3.117   3.218   0.996
 2922TIP3    H230326   3.226   3.161   0.908
 2923TIP3   OH230327   3.335   5.978   0.104
 2923TIP3    H130328   3.243   5.992   0.080
 2923TIP3    H230329   3.375   5.945   0.024
 2924TIP3   OH230330   6.300   3.887   0.610
 2924TIP3    H130331   6.364   3.955   0.628
 2924TIP3    H230332   6.351   3.811   0.583
 2925TIP3   OH230333   5.429   2.788   2.919
 2925TIP3    H130334   5.517   2.780   2.883
 2925TIP3    H230335   5.437   2.857   2.985
 2926TIP3   OH230336   3.545   0.407   7.331
 2926TIP3    H130337   3.615   0.466   7.303
 2926TIP3    H230338   3.580   0.363   7.409
 2927TIP3   OH230339   2.035   2.438   0.719
 2927TIP3    H130340   2.076   2.501   0.779
 2927TIP3    H230341   1.997   2.372   0.776
 2928TIP3   OH230342   6.384   2.678   7.520
 2928TIP3    H130343   6.380   2.685   7.615
 2928TIP3    H230344   6.414   2.763   7.490
 2929TIP3   OH230345   0.996   5.434   2.511
 2929TIP3    H130346   1.068   5.495   2.503
 2929TIP3    H230347   0.919   5.489   2.528
 2930TIP3   OH230348   1.177   0.423   0.610
 2930TIP3    H130349   1.236   0.369   0.663
 2930TIP3    H230350   1.234   0.465   0.546
 2931TIP3   OH230351   1.909   4.571   0.543
 2931TIP3    H130352   1.845   4.630   0.582
 2931TIP3    H230353   1.860   4.491   0.524
 2932TIP3   OH230354   4.288   5.301   1.432
 2932TIP3    H130355   4.275   5.320   1.525
 2932TIP3    H230356   4.226   5.231   1.413
 2933TIP3   OH230357   2.352   1.509   1.252
 2933TIP3    H130358   2.300   1.433   1.279
 2933TIP3    H230359   2.289   1.567   1.209
 2934TIP3   OH230360   2.716   1.091   0.151
 2934TIP3    H130361   2.653   1.085   0.222
 2934TIP3    H230362   2.764   1.009   0.154
 2935TIP3   OH230363   6.793   5.094   7.976
 2935TIP3    H130364   6.750   5.037   8.040
 2935TIP3    H230365   6.871   5.125   8.021
 2936TIP3   OH230366   3.568   3.023   0.130
 2936TIP3    H130367   3.626   3.068   0.191
 2936TIP3    H230368   3.528   3.093   0.078
 2937TIP3   OH230369   3.093   3.921   6.241
 2937TIP3    H130370   3.052   3.835   6.230
 2937TIP3    H230371   3.184   3.908   6.214
 2938TIP3   OH230372   2.681   5.480   0.835
 2938TIP3    H130373   2.636   5.525   0.764
 2938TIP3    H230374   2.682   5.543   0.907
 2939TIP3   OH230375   4.296   0.806   7.318
 2939TIP3    H130376   4.256   0.772   7.399
 2939TIP3    H230377   4.312   0.728   7.265
 2940TIP3   OH230378   4.619   1.814   2.269
 2940TIP3    H130379   4.549   1.764   2.312
 2940TIP3    H230380   4.677   1.747   2.233
 2941TIP3   OH230381   0.723   1.335   7.360
 2941TIP3    H130382   0.763   1.249   7.375
 2941TIP3    H230383   0.773   1.395   7.413
 2942TIP3   OH230384   2.506   6.129   7.617
 2942TIP3    H130385   2.467   6.098   7.699
 2942TIP3    H230386   2.557   6.206   7.643
 2943TIP3   OH230387   5.254   3.921   6.468
 2943TIP3    H130388   5.300   3.884   6.544
 2943TIP3    H230389   5.192   3.984   6.506
 2944TIP3   OH230390   2.325   4.289   6.513
 2944TIP3    H130391   2.363   4.254   6.433
 2944TIP3    H230392   2.340   4.221   6.578
 2945TIP3   OH230393   1.132   4.073   1.667
 2945TIP3    H130394   1.097   4.021   1.740
 2945TIP3    H230395   1.211   4.026   1.639
 2946TIP3   OH230396   4.671   0.993   0.917
 2946TIP3    H130397   4.728   0.959   0.847
 2946TIP3    H230398   4.730   1.005   0.991
 2947TIP3   OH230399   2.114   0.986   6.323
 2947TIP3    H130400   2.158   0.994   6.408
 2947TIP3    H230401   2.183   0.966   6.261
 2948TIP3   OH230402   5.106   0.104   6.650
 2948TIP3    H130403   5.108   0.173   6.716
 2948TIP3    H230404   5.018   0.110   6.612
 2949TIP3   OH230405   3.627   6.155   7.239
 2949TIP3    H130406   3.651   6.217   7.170
 2949TIP3    H230407   3.601   6.210   7.313
 2950TIP3   OH230408   3.236   4.854   0.687
 2950TIP3    H130409   3.223   4.760   0.698
 2950TIP3    H230410   3.277   4.883   0.768
 2951TIP3   OH230411   1.919   3.070   8.287
 2951TIP3    H130412   1.899   3.090   8.378
 2951TIP3    H230413   2.007   3.032   8.290
 2952TIP3   OH230414   0.361   0.426   1.181
 2952TIP3    H130415   0.440   0.457   1.226
 2952TIP3    H230416   0.308   0.386   1.251
 2953TIP3   OH230417   2.166   6.297   1.602
 2953TIP3    H130418   2.086   6.323   1.647
 2953TIP3    H230419   2.185   6.370   1.543
 2954TIP3   OH230420   1.230   0.234   7.889
 2954TIP3    H130421   1.295   0.273   7.830
 2954TIP3    H230422   1.149   0.281   7.869
 2955TIP3   OH230423   5.638   1.505   7.300
 2955TIP3    H130424   5.727   1.494   7.334
 2955TIP3    H230425   5.597   1.419   7.310
 2956TIP3   OH230426   4.837   3.833   0.240
 2956TIP3    H130427   4.840   3.927   0.223
 2956TIP3    H230428   4.756   3.821   0.290
 2957TIP3   OH230429   0.102   1.282   8.638
 2957TIP3    H130430   0.157   1.345   8.591
 2957TIP3    H230431   0.014   1.320   8.635
 2958TIP3   OH230432   2.967   1.085   0.864
 2958TIP3    H130433   2.978   1.082   0.959
 2958TIP3    H230434   3.020   1.159   0.836
 2959TIP3   OH230435   5.055   6.248   1.257
 2959TIP3    H130436   4.960   6.237   1.258
 2959TIP3    H230437   5.068   6.339   1.285
 2960TIP3   OH230438   4.704   5.215   0.564
 2960TIP3    H130439   4.622   5.217   0.514
 2960TIP3    H230440   4.685   5.157   0.638
 2961TIP3   OH230441   0.168   5.937   1.650
 2961TIP3    H130442   0.235   6.005   1.653
 2961TIP3    H230443   0.170   5.897   1.737
 2962TIP3   OH230444   1.296   3.675   8.204
 2962TIP3    H130445   1.333   3.726   8.132
 2962TIP3    H230446   1.260   3.741   8.264
 2963TIP3   OH230447   2.040   0.114   7.507
 2963TIP3    H130448   2.076   0.194   7.545
 2963TIP3    H230449   2.111   0.051   7.509
 2964TIP3   OH230450   3.562   4.663   6.812
 2964TIP3    H130451   3.582   4.572   6.791
 2964TIP3    H230452   3.503   4.692   6.742
 2965TIP3   OH230453   0.191   1.934   7.005
 2965TIP3    H130454   0.233   1.863   6.958
 2965TIP3    H230455   0.099   1.908   7.010
 2966TIP3   OH230456   2.579   4.960   7.555
 2966TIP3    H130457   2.531   4.878   7.567
 2966TIP3    H230458   2.663   4.945   7.598
 2967TIP3   OH230459   6.554   0.848   8.586
 2967TIP3    H130460   6.535   0.938   8.558
 2967TIP3    H230461   6.486   0.828   8.650
 2968TIP3   OH230462   0.795   2.994   2.565
 2968TIP3    H130463   0.702   2.983   2.582
 2968TIP3    H230464   0.827   3.048   2.638
 2969TIP3   OH230465   6.112   4.529   0.992
 2969TIP3    H130466   6.144   4.557   1.078
 2969TIP3    H230467   6.185   4.547   0.932
 2970TIP3   OH230468   2.009   0.754   7.489
 2970TIP3    H130469   2.076   0.714   7.544
 2970TIP3    H230470   2.015   0.848   7.509
 2971TIP3   OH230471   3.125   1.414   8.264
 2971TIP3    H130472   3.067   1.403   8.340
 2971TIP3    H230473   3.178   1.333   8.263
 2972TIP3   OH230474   6.126   3.731   8.001
 2972TIP3    H130475   6.138   3.696   8.090
 2972TIP3    H230476   6.208   3.708   7.956
 2973TIP3   OH230477   0.771   3.308   7.487
 2973TIP3    H130478   0.860   3.329   7.459
 2973TIP3    H230479   0.753   3.222   7.448
 2974TIP3   OH230480   6.752   3.431   0.456
 2974TIP3    H130481   6.779   3.463   0.370
 2974TIP3    H230482   6.656   3.428   0.452
 2975TIP3   OH230483   6.440   2.424   2.330
 2975TIP3    H130484   6.421   2.379   2.413
 2975TIP3    H230485   6.534   2.410   2.317
 2976TIP3   OH230486   0.597   1.947   7.471
 2976TIP3    H130487   0.643   1.892   7.407
 2976TIP3    H230488   0.505   1.944   7.444
 2977TIP3   OH230489   0.579   4.491   8.142
 2977TIP3    H130490   0.584   4.560   8.076
 2977TIP3    H230491   0.493   4.452   8.128
 2978TIP3   OH230492   5.366   3.293   7.950
 2978TIP3    H130493   5.360   3.265   8.041
 2978TIP3    H230494   5.427   3.232   7.910
 2979TIP3   OH230495   1.720   3.574   7.653
 2979TIP3    H130496   1.740   3.619   7.571
 2979TIP3    H230497   1.701   3.484   7.628
 2980TIP3   OH230498   3.690   1.445   1.703
 2980TIP3    H130499   3.700   1.353   1.679
 2980TIP3    H230500   3.723   1.450   1.793
 2981TIP3   OH230501   3.700   3.106   7.857
 2981TIP3    H130502   3.715   3.169   7.928
 2981TIP3    H230503   3.779   3.111   7.803
 2982TIP3   OH230504   3.663   0.218   7.508
 2982TIP3    H130505   3.702   0.169   7.436
 2982TIP3    H230506   3.618   0.152   7.560
 2983TIP3   OH230507   2.236   5.147   1.229
 2983TIP3    H130508   2.170   5.084   1.201
 2983TIP3    H230509   2.260   5.194   1.148
 2984TIP3   OH230510   5.801   0.128   7.022
 2984TIP3    H130511   5.787   0.222   7.017
 2984TIP3    H230512   5.822   0.101   6.932
 2985TIP3   OH230513   4.058   3.103   6.335
 2985TIP3    H130514   3.976   3.108   6.384
 2985TIP3    H230515   4.041   3.147   6.253
 2986TIP3   OH230516   0.934   1.407   8.114
 2986TIP3    H130517   0.877   1.350   8.062
 2986TIP3    H230518   0.942   1.363   8.199
 2987TIP3   OH230519   1.328   1.035   0.357
 2987TIP3    H130520   1.280   1.117   0.366
 2987TIP3    H230521   1.295   0.979   0.427
 2988TIP3   OH230522   1.137   0.196   8.604
 2988TIP3    H130523   1.229   0.189   8.580
 2988TIP3    H230524   1.093   0.226   8.524
 2989TIP3   OH230525   3.362   3.426   7.124
 2989TIP3    H130526   3.310   3.491   7.077
 2989TIP3    H230527   3.306   3.348   7.125
 2990TIP3   OH230528   1.602   5.724   1.680
 2990TIP3    H130529   1.618   5.815   1.655
 2990TIP3    H230530   1.689   5.686   1.691
 2991TIP3   OH230531   5.421   1.045   7.570
 2991TIP3    H130532   5.440   1.013   7.659
 2991TIP3    H230533   5.459   1.133   7.568
 2992TIP3   OH230534   3.583   0.039   0.406
 2992TIP3    H130535   3.532   6.870   0.465
 2992TIP3    H230536   3.595   0.121   0.453
 2993TIP3   OH230537   0.826   3.066   1.589
 2993TIP3    H130538   0.896   3.116   1.631
 2993TIP3    H230539   0.839   2.976   1.619
 2994TIP3   OH230540   0.637   4.541   1.765
 2994TIP3    H130541   0.578   4.481   1.812
 2994TIP3    H230542   0.655   4.610   1.828
 2995TIP3   OH230543   0.131   3.772   1.659
 2995TIP3    H130544   0.161   3.726   1.737
 2995TIP3    H230545   0.108   3.860   1.689
 2996TIP3   OH230546   2.575   4.827   1.298
 2996TIP3    H130547   2.577   4.923   1.294
 2996TIP3    H230548   2.490   4.804   1.261
 2997TIP3   OH230549   6.786   0.380   8.186
 2997TIP3    H130550   6.704   0.425   8.166
 2997TIP3    H230551   6.854   0.445   8.170
 2998TIP3   OH230552   6.197   3.117   2.737
 2998TIP3    H130553   6.125   3.122   2.800
 2998TIP3    H230554   6.209   3.024   2.721
 2999TIP3   OH230555   3.537   4.401   8.541
 2999TIP3    H130556   3.468   4.443   8.490
 2999TIP3    H230557   3.493   4.330   8.588
 3000TIP3   OH230558   0.093   4.103   0.639
 3000TIP3    H130559   0.171   4.148   0.606
 3000TIP3    H230560   0.118   4.011   0.646
 3001TIP3   OH230561   5.852   2.873   0.313
 3001TIP3    H130562   5.882   2.787   0.285
 3001TIP3    H230563   5.826   2.861   0.404
 3002TIP3   OH230564   6.772   6.211   0.156
 3002TIP3    H130565   6.781   6.282   0.091
 3002TIP3    H230566   6.862   6.190   0.180
 3003TIP3   OH230567   6.823   4.028   0.379
 3003TIP3    H130568   6.801   3.936   0.394
 3003TIP3    H230569   6.820   4.067   0.467
 3004TIP3   OH230570   3.900   3.945   7.749
 3004TIP3    H130571   3.904   3.935   7.844
 3004TIP3    H230572   3.832   4.011   7.734
 3005TIP3   OH230573   4.857   5.301   7.524
 3005TIP3    H130574   4.818   5.222   7.562
 3005TIP3    H230575   4.807   5.316   7.443
 3006TIP3   OH230576   2.491   6.209   0.976
 3006TIP3    H130577   2.420   6.268   0.951
 3006TIP3    H230578   2.570   6.248   0.939
 3007TIP3   OH230579   1.409   3.204   0.129
 3007TIP3    H130580   1.403   3.290   0.086
 3007TIP3    H230581   1.370   3.143   0.067
 3008TIP3   OH230582   3.871   4.945   7.176
 3008TIP3    H130583   3.800   4.894   7.213
 3008TIP3    H230584   3.882   4.910   7.087
 3009TIP3   OH230585   0.700   2.489   1.183
 3009TIP3    H130586   0.781   2.537   1.198
 3009TIP3    H230587   0.710   2.452   1.095
 3010TIP3   OH230588   2.171   5.265   7.831
 3010TIP3    H130589   2.252   5.219   7.810
 3010TIP3    H230590   2.187   5.356   7.804
 3011TIP3   OH230591   6.671   6.374   6.842
 3011TIP3    H130592   6.722   6.412   6.770
 3011TIP3    H230593   6.669   6.280   6.822
 3012TIP3   OH230594   3.839   3.435   0.815
 3012TIP3    H130595   3.872   3.405   0.900
 3012TIP3    H230596   3.914   3.424   0.756
 3013TIP3   OH230597   1.001   1.218   6.725
 3013TIP3    H130598   1.040   1.304   6.743
 3013TIP3    H230599   0.951   1.197   6.805
 3014TIP3   OH230600   6.554   1.632   7.111
 3014TIP3    H130601   6.518   1.566   7.052
 3014TIP3    H230602   6.595   1.696   7.052
 3015TIP3   OH230603   3.161   0.700   8.096
 3015TIP3    H130604   3.120   0.647   8.028
 3015TIP3    H230605   3.134   0.660   8.178
 3016TIP3   OH230606   6.737   6.069   6.512
 3016TIP3    H130607   6.670   6.073   6.443
 3016TIP3    H230608   6.799   6.137   6.488
 3017TIP3   OH230609   1.177   0.233   1.355
 3017TIP3    H130610   1.210   0.171   1.420
 3017TIP3    H230611   1.088   0.254   1.384
 3018TIP3   OH230612   1.036   4.959   1.544
 3018TIP3    H130613   1.115   4.995   1.583
 3018TIP3    H230614   1.033   4.868   1.574
 3019TIP3   OH230615   3.461   6.780   0.892
 3019TIP3    H130616   3.380   6.829   0.878
 3019TIP3    H230617   3.525   6.845   0.921
 3020TIP3   OH230618   0.934   4.852   8.599
 3020TIP3    H130619   1.004   4.893   8.650
 3020TIP3    H230620   0.877   4.811   0.002
 3021TIP3   OH230621   2.224   4.681   6.693
 3021TIP3    H130622   2.318   4.667   6.683
 3021TIP3    H230623   2.186   4.593   6.687
 3022TIP3   OH230624   3.254   2.288   1.396
 3022TIP3    H130625   3.185   2.266   1.458
 3022TIP3    H230626   3.305   2.357   1.440
 3023TIP3   OH230627   0.907   4.846   0.592
 3023TIP3    H130628   0.852   4.789   0.538
 3023TIP3    H230629   0.995   4.809   0.584
 3024TIP3   OH230630   0.766   5.723   1.157
 3024TIP3    H130631   0.843   5.781   1.160
 3024TIP3    H230632   0.785   5.662   1.086
 3025TIP3   OH230633   5.903   1.958   1.263
 3025TIP3    H130634   5.859   2.042   1.255
 3025TIP3    H230635   5.854   1.899   1.207
 3026TIP3   OH230636   1.897   6.595   0.008
 3026TIP3    H130637   1.878   6.590   8.576
 3026TIP3    H230638   1.992   6.581   0.014
 3027TIP3   OH230639   5.269   2.934   7.838
 3027TIP3    H130640   5.359   2.902   7.840
 3027TIP3    H230641   5.234   2.913   7.925
 3028TIP3   OH230642   1.032   2.156   0.875
 3028TIP3    H130643   0.973   2.110   0.816
 3028TIP3    H230644   1.083   2.086   0.916
 3029TIP3   OH230645   3.012   1.993   1.842
 3029TIP3    H130646   3.013   1.898   1.854
 3029TIP3    H230647   3.078   2.025   1.903
 3030TIP3   OH230648   6.597   3.810   6.804
 3030TIP3    H130649   6.629   3.895   6.774
 3030TIP3    H230650   6.653   3.787   6.878
 3031TIP3   OH230651   0.478   3.417   2.248
 3031TIP3    H130652   0.556   3.434   2.195
 3031TIP3    H230653   0.405   3.438   2.190
 3032TIP3   OH230654   3.970   5.083   0.812
 3032TIP3    H130655   3.895   5.032   0.844
 3032TIP3    H230656   4.047   5.031   0.839
 3033TIP3   OH230657   3.315   5.168   0.937
 3033TIP3    H130658   3.235   5.120   0.917
 3033TIP3    H230659   3.357   5.117   1.006
 3034TIP3   OH230660   4.808   6.761   7.597
 3034TIP3    H130661   4.798   6.707   7.675
 3034TIP3    H230662   4.720   6.764   7.559
 3035TIP3   OH230663   2.259   0.692   0.145
 3035TIP3    H130664   2.273   0.746   0.222
 3035TIP3    H230665   2.187   0.735   0.098
 3036TIP3   OH230666   4.815   0.179   8.602
 3036TIP3    H130667   4.814   0.253   8.541
 3036TIP3    H230668   4.857   0.213   0.018
 3037TIP3   OH230669   3.559   6.050   6.045
 3037TIP3    H130670   3.468   6.054   6.075
 3037TIP3    H230671   3.608   6.023   6.122
 3038TIP3   OH230672   0.723   3.919   1.108
 3038TIP3    H130673   0.743   3.926   1.202
 3038TIP3    H230674   0.662   3.991   1.091
 3039TIP3   OH230675   4.901   2.979   7.990
 3039TIP3    H130676   4.907   2.963   7.896
 3039TIP3    H230677   4.979   3.029   8.011
 3040TIP3   OH230678   1.089   5.744   1.017
 3040TIP3    H130679   1.164   5.696   0.982
 3040TIP3    H230680   1.032   5.675   1.052
 3041TIP3   OH230681   2.275   0.621   1.484
 3041TIP3    H130682   2.306   0.583   1.401
 3041TIP3    H230683   2.185   0.647   1.466
 3042TIP3   OH230684   0.526   4.329   1.901
 3042TIP3    H130685   0.574   4.247   1.912
 3042TIP3    H230686   0.446   4.305   1.855
 3043TIP3   OH230687   3.981   1.671   0.075
 3043TIP3    H130688   4.004   1.581   0.050
 3043TIP3    H230689   3.917   1.660   0.145
 3044TIP3   OH230690   4.670   2.276   0.179
 3044TIP3    H130691   4.738   2.268   0.246
 3044TIP3    H230692   4.670   2.369   0.156
 3045TIP3   OH230693   3.899   0.332   0.373
 3045TIP3    H130694   3.951   0.366   0.446
 3045TIP3    H230695   3.955   0.266   0.332
 3046TIP3   OH230696   5.366   4.330   1.313
 3046TIP3    H130697   5.414   4.390   1.255
 3046TIP3    H230698   5.419   4.251   1.315
 3047TIP3   OH230699   3.185   3.288   1.436
 3047TIP3    H130700   3.237   3.258   1.361
 3047TIP3    H230701   3.244   3.345   1.484
 3048TIP3   OH230702   4.232   3.719   7.289
 3048TIP3    H130703   4.200   3.717   7.198
 3048TIP3    H230704   4.318   3.676   7.284
 3049TIP3   OH230705   1.601   1.003   6.260
 3049TIP3    H130706   1.574   1.006   6.352
 3049TIP3    H230707   1.692   0.975   6.262
 3050TIP3   OH230708   2.212   5.086   0.589
 3050TIP3    H130709   2.261   5.092   0.507
 3050TIP3    H230710   2.279   5.073   0.656
 3051TIP3   OH230711   2.017   5.350   6.732
 3051TIP3    H130712   1.965   5.348   6.812
 3051TIP3    H230713   1.997   5.434   6.692
 3052TIP3   OH230714   5.147   1.550   0.179
 3052TIP3    H130715   5.229   1.601   0.176
 3052TIP3    H230716   5.092   1.598   0.240
 3053TIP3   OH230717   0.056   1.370   7.365
 3053TIP3    H130718   0.024   1.296   7.416
 3053TIP3    H230719   6.882   1.376   7.291
 3054TIP3   OH230720   6.868   6.633   7.664
 3054TIP3    H130721   0.023   6.686   7.732
 3054TIP3    H230722   6.776   6.629   7.689
 3055TIP3   OH230723   1.212   4.429   1.019
 3055TIP3    H130724   1.117   4.431   1.008
 3055TIP3    H230725   1.225   4.444   1.113
 3056TIP3   OH230726   4.538   6.314   1.209
 3056TIP3    H130727   4.583   6.355   1.134
 3056TIP3    H230728   4.597   6.243   1.236
 3057TIP3   OH230729   0.361   0.420   2.233
 3057TIP3    H130730   0.443   0.385   2.197
 3057TIP3    H230731   0.313   0.452   2.157
 3058TIP3   OH230732   3.869   2.682   0.728
 3058TIP3    H130733   3.841   2.765   0.767
 3058TIP3    H230734   3.852   2.693   0.635
 3059TIP3   OH230735   4.494   0.412   6.845
 3059TIP3    H130736   4.485   0.459   6.762
 3059TIP3    H230737   4.411   0.367   6.856
 3060TIP3   OH230738   4.493   5.895   8.576
 3060TIP3    H130739   4.569   5.944   8.605
 3060TIP3    H230740   4.510   5.875   8.484
 3061TIP3   OH230741   4.985   3.128   8.533
 3061TIP3    H130742   5.023   3.049   8.493
 3061TIP3    H230743   5.060   3.180   8.560
 3062TIP3   OH230744   0.884   4.847   8.321
 3062TIP3    H130745   0.846   4.761   8.338
 3062TIP3    H230746   0.961   4.852   8.379
 3063TIP3   OH230747   1.669   4.750   1.436
 3063TIP3    H130748   1.574   4.747   1.424
 3063TIP3    H230749   1.705   4.708   1.357
 3064TIP3   OH230750   3.386   0.844   0.292
 3064TIP3    H130751   3.318   0.855   0.226
 3064TIP3    H230752   3.406   0.933   0.321
 3065TIP3   OH230753   3.322   0.466   8.022
 3065TIP3    H130754   3.308   0.372   8.022
 3065TIP3    H230755   3.411   0.478   7.989
 3066TIP3   OH230756   0.359   4.092   0.531
 3066TIP3    H130757   0.432   4.061   0.478
 3066TIP3    H230758   0.392   4.091   0.620
 3067TIP3   OH230759   6.561   1.874   1.416
 3067TIP3    H130760   6.532   1.841   1.501
 3067TIP3    H230761   6.501   1.946   1.397
 3068TIP3   OH230762   6.024   1.751   6.694
 3068TIP3    H130763   6.060   1.665   6.674
 3068TIP3    H230764   6.029   1.800   6.612
 3069TIP3   OH230765   6.287   6.859   0.325
 3069TIP3    H130766   6.212   0.029   0.346
 3069TIP3    H230767   6.310   6.883   0.235
 3070TIP3   OH230768   2.275   3.812   6.145
 3070TIP3    H130769   2.202   3.774   6.095
 3070TIP3    H230770   2.242   3.818   6.234
 3071TIP3   OH230771   5.679   4.680   8.078
 3071TIP3    H130772   5.759   4.648   8.119
 3071TIP3    H230773   5.702   4.768   8.047
 3072TIP3   OH230774   5.813   3.282   2.627
 3072TIP3    H130775   5.734   3.231   2.642
 3072TIP3    H230776   5.884   3.219   2.640
 3073TIP3   OH230777   3.062   6.348   7.424
 3073TIP3    H130778   3.021   6.289   7.487
 3073TIP3    H230779   3.030   6.318   7.339
 3074TIP3   OH230780   2.009   1.562   8.517
 3074TIP3    H130781   2.001   1.657   8.512
 3074TIP3    H230782   1.998   1.542   8.610
 3075TIP3   OH230783   5.507   5.682   2.526
 3075TIP3    H130784   5.598   5.703   2.546
 3075TIP3    H230785   5.461   5.767   2.532
 3076TIP3   OH230786   2.777   2.548   2.010
 3076TIP3    H130787   2.755   2.588   2.094
 3076TIP3    H230788   2.727   2.466   2.009
 3077TIP3   OH230789   1.744   2.774   0.640
 3077TIP3    H130790   1.669   2.751   0.694
 3077TIP3    H230791   1.769   2.692   0.597
 3078TIP3   OH230792   2.069   0.948   0.705
 3078TIP3    H130793   2.073   0.923   0.797
 3078TIP3    H230794   2.155   0.985   0.686
 3079TIP3   OH230795   3.155   3.113   0.401
 3079TIP3    H130796   3.152   3.151   0.488
 3079TIP3    H230797   3.095   3.038   0.405
 3080TIP3   OH230798   6.616   1.127   8.572
 3080TIP3    H130799   6.690   1.142   8.513
 3080TIP3    H230800   6.540   1.122   8.515
 3081TIP3   OH230801   1.789   6.430   6.823
 3081TIP3    H130802   1.703   6.432   6.780
 3081TIP3    H230803   1.806   6.337   6.837
 3082TIP3   OH230804   3.620   0.304   0.513
 3082TIP3    H130805   3.531   0.338   0.524
 3082TIP3    H230806   3.654   0.348   0.436
 3083TIP3   OH230807   0.475   4.139   6.946
 3083TIP3    H130808   0.448   4.087   6.870
 3083TIP3    H230809   0.566   4.114   6.960
 3084TIP3   OH230810   6.230   4.568   6.147
 3084TIP3    H130811   6.275   4.645   6.111
 3084TIP3    H230812   6.215   4.590   6.239
 3085TIP3   OH230813   0.641   6.654   0.943
 3085TIP3    H130814   0.598   6.599   0.878
 3085TIP3    H230815   0.701   6.709   0.892
 3086TIP3   OH230816   2.703   4.292   0.067
 3086TIP3    H130817   2.616   4.291   0.026
 3086TIP3    H230818   2.685   4.305   0.160
 3087TIP3   OH230819   0.563   1.672   1.741
 3087TIP3    H130820   0.615   1.597   1.711
 3087TIP3    H230821   0.570   1.668   1.837
 3088TIP3   OH230822   6.798   0.738   0.638
 3088TIP3    H130823   6.783   0.655   0.593
 3088TIP3    H230824   6.820   0.713   0.727
 3089TIP3   OH230825   5.028   4.866   1.031
 3089TIP3    H130826   5.036   4.774   1.057
 3089TIP3    H230827   5.076   4.871   0.948
 3090TIP3   OH230828   3.284   0.867   1.490
 3090TIP3    H130829   3.267   0.786   1.537
 3090TIP3    H230830   3.221   0.867   1.418
 3091TIP3   OH230831   6.078   1.884   6.456
 3091TIP3    H130832   6.115   1.860   6.371
 3091TIP3    H230833   6.153   1.914   6.507
 3092TIP3   OH230834   4.708   4.817   0.990
 3092TIP3    H130835   4.744   4.741   1.036
 3092TIP3    H230836   4.731   4.892   1.045
 3093TIP3   OH230837   3.738   5.053   2.225
 3093TIP3    H130838   3.822   5.015   2.202
 3093TIP3    H230839   3.674   4.986   2.201
 3094TIP3   OH230840   2.905   2.226   2.174
 3094TIP3    H130841   2.841   2.220   2.103
 3094TIP3    H230842   2.915   2.320   2.189
 3095TIP3   OH230843   1.454   2.549   7.600
 3095TIP3    H130844   1.492   2.463   7.617
 3095TIP3    H230845   1.485   2.573   7.513
 3096TIP3   OH230846   3.712   5.086   7.672
 3096TIP3    H130847   3.791   5.038   7.698
 3096TIP3    H230848   3.679   5.125   7.753
 3097TIP3   OH230849   4.805   0.423   8.448
 3097TIP3    H130850   4.868   0.495   8.446
 3097TIP3    H230851   4.815   0.380   8.363
 3098TIP3   OH230852   0.985   5.303   1.534
 3098TIP3    H130853   0.941   5.387   1.526
 3098TIP3    H230854   0.965   5.273   1.623
 3099TIP3   OH230855   1.240   2.579   0.499
 3099TIP3    H130856   1.193   2.541   0.573
 3099TIP3    H230857   1.171   2.620   0.446
 3100TIP3   OH230858   3.006   3.577   0.700
 3100TIP3    H130859   2.997   3.555   0.793
 3100TIP3    H230860   2.925   3.625   0.680
 3101TIP3   OH230861   1.714   4.935   7.075
 3101TIP3    H130862   1.642   4.997   7.085
 3101TIP3    H230863   1.792   4.989   7.070
 3102TIP3   OH230864   2.034   5.259   0.660
 3102TIP3    H130865   1.963   5.225   0.606
 3102TIP3    H230866   2.099   5.189   0.661
 3103TIP3   OH230867   4.014   1.651   1.699
 3103TIP3    H130868   4.050   1.733   1.666
 3103TIP3    H230869   3.986   1.672   1.789
 3104TIP3   OH230870   0.702   1.106   0.031
 3104TIP3    H130871   0.678   1.015   0.017
 3104TIP3    H230872   0.711   1.143   8.606
 3105TIP3   OH230873   4.440   1.453   7.424
 3105TIP3    H130874   4.497   1.530   7.424
 3105TIP3    H230875   4.351   1.488   7.432
 3106TIP3   OH230876   3.513   6.876   8.494
 3106TIP3    H130877   3.503   0.077   8.534
 3106TIP3    H230878   3.587   6.837   8.541
 3107TIP3   OH230879   6.707   2.717   1.352
 3107TIP3    H130880   6.736   2.639   1.305
 3107TIP3    H230881   6.624   2.691   1.392
 3108TIP3   OH230882   5.109   5.177   0.204
 3108TIP3    H130883   5.110   5.084   0.228
 3108TIP3    H230884   5.017   5.201   0.203
 3109TIP3   OH230885   5.965   3.176   8.104
 3109TIP3    H130886   5.958   3.162   8.198
 3109TIP3    H230887   6.059   3.182   8.088
 3110TIP3   OH230888   1.210   0.309   6.378
 3110TIP3    H130889   1.179   0.384   6.427
 3110TIP3    H230890   1.261   0.346   6.306
 3111TIP3   OH230891   4.573   3.675   7.743
 3111TIP3    H130892   4.569   3.591   7.697
 3111TIP3    H230893   4.483   3.706   7.745
 3112TIP3   OH230894   3.317   1.941   0.581
 3112TIP3    H130895   3.316   1.861   0.528
 3112TIP3    H230896   3.266   1.919   0.658
 3113TIP3   OH230897   5.521   5.451   6.523
 3113TIP3    H130898   5.432   5.487   6.517
 3113TIP3    H230899   5.507   5.359   6.547
 3114TIP3   OH230900   5.412   6.154   0.572
 3114TIP3    H130901   5.335   6.097   0.576
 3114TIP3    H230902   5.378   6.242   0.585
 3115TIP3   OH230903   4.855   1.651   1.289
 3115TIP3    H130904   4.791   1.580   1.298
 3115TIP3    H230905   4.804   1.731   1.306
 3116TIP3   OH230906   0.859   2.147   7.527
 3116TIP3    H130907   0.782   2.143   7.471
 3116TIP3    H230908   0.836   2.095   7.603
 3117TIP3   OH230909   1.225   3.092   6.988
 3117TIP3    H130910   1.190   3.040   6.916
 3117TIP3    H230911   1.219   3.183   6.957
 3118TIP3   OH230912   1.238   0.748   1.733
 3118TIP3    H130913   1.224   0.696   1.813
 3118TIP3    H230914   1.245   0.838   1.764
 3119TIP3   OH230915   2.249   4.558   0.137
 3119TIP3    H130916   2.215   4.647   0.126
 3119TIP3    H230917   2.186   4.503   0.091
 3120TIP3   OH230918   6.543   0.291   6.648
 3120TIP3    H130919   6.634   0.297   6.676
 3120TIP3    H230920   6.532   0.200   6.620
 3121TIP3   OH230921   5.040   2.426   1.866
 3121TIP3    H130922   5.070   2.335   1.863
 3121TIP3    H230923   5.082   2.462   1.944
 3122TIP3   OH230924   2.854   1.143   7.574
 3122TIP3    H130925   2.789   1.211   7.562
 3122TIP3    H230926   2.918   1.181   7.635
 3123TIP3   OH230927   6.107   4.562   2.029
 3123TIP3    H130928   6.109   4.656   2.046
 3123TIP3    H230929   6.164   4.550   1.953
 3124TIP3   OH230930   0.069   6.796   0.092
 3124TIP3    H130931   0.123   6.735   0.141
 3124TIP3    H230932   0.036   6.858   0.157
 3125TIP3   OH230933   5.636   5.955   7.338
 3125TIP3    H130934   5.584   5.885   7.300
 3125TIP3    H230935   5.607   6.035   7.294
 3126TIP3   OH230936   5.741   2.231   0.510
 3126TIP3    H130937   5.781   2.145   0.503
 3126TIP3    H230938   5.707   2.236   0.599
 3127TIP3   OH230939   1.208   2.066   0.599
 3127TIP3    H130940   1.232   1.980   0.632
 3127TIP3    H230941   1.120   2.054   0.564
 3128TIP3   OH230942   1.434   3.595   7.463
 3128TIP3    H130943   1.377   3.600   7.386
 3128TIP3    H230944   1.384   3.544   7.526
 3129TIP3   OH230945   3.620   0.999   0.984
 3129TIP3    H130946   3.691   0.942   1.016
 3129TIP3    H230947   3.568   1.018   1.062
 3130TIP3   OH230948   6.498   6.840   8.001
 3130TIP3    H130949   6.404   6.854   8.009
 3130TIP3    H230950   6.537   0.011   8.068
 3131TIP3   OH230951   1.163   2.037   6.410
 3131TIP3    H130952   1.121   2.072   6.331
 3131TIP3    H230953   1.136   1.945   6.413
 3132TIP3   OH230954   0.905   0.778   1.777
 3132TIP3    H130955   0.939   0.701   1.731
 3132TIP3    H230956   0.937   0.769   1.867
 3133TIP3   OH230957   1.465   3.663   6.032
 3133TIP3    H130958   1.398   3.680   5.966
 3133TIP3    H230959   1.465   3.568   6.043
 3134TIP3   OH230960   3.240   3.401   0.072
 3134TIP3    H130961   3.276   3.470   0.129
 3134TIP3    H230962   3.313   3.377   0.015
 3135TIP3   OH230963   6.878   4.148   8.559
 3135TIP3    H130964   6.817   4.201   8.507
 3135TIP3    H230965   6.825   4.116   8.632
 3136TIP3   OH230966   3.516   6.266   1.864
 3136TIP3    H130967   3.509   6.174   1.837
 3136TIP3    H230968   3.558   6.309   1.790
 3137TIP3   OH230969   3.650   3.178   7.220
 3137TIP3    H130970   3.633   3.084   7.211
 3137TIP3    H230971   3.697   3.186   7.302
 3138TIP3   OH230972   2.388   1.485   0.346
 3138TIP3    H130973   2.340   1.556   0.302
 3138TIP3    H230974   2.478   1.495   0.318
 3139TIP3   OH230975   5.583   1.822   8.022
 3139TIP3    H130976   5.665   1.793   7.981
 3139TIP3    H230977   5.524   1.838   7.949
 3140TIP3   OH230978   6.492   6.281   2.337
 3140TIP3    H130979   6.562   6.277   2.402
 3140TIP3    H230980   6.437   6.205   2.357
 3141TIP3   OH230981   1.835   5.074   1.097
 3141TIP3    H130982   1.747   5.055   1.063
 3141TIP3    H230983   1.866   5.147   1.045
 3142TIP3   OH230984   4.081   5.991   6.445
 3142TIP3    H130985   4.083   5.938   6.524
 3142TIP3    H230986   4.012   6.056   6.461
 3143TIP3   OH230987   5.109   1.024   1.024
 3143TIP3    H130988   5.071   0.987   1.104
 3143TIP3    H230989   5.203   1.008   1.033
 3144TIP3   OH230990   4.525   5.141   7.330
 3144TIP3    H130991   4.612   5.153   7.293
 3144TIP3    H230992   4.540   5.119   7.422
 3145TIP3   OH230993   6.477   0.667   0.770
 3145TIP3    H130994   6.407   0.603   0.753
 3145TIP3    H230995   6.558   0.615   0.767
 3146TIP3   OH230996   1.700   4.773   6.424
 3146TIP3    H130997   1.701   4.865   6.395
 3146TIP3    H230998   1.790   4.743   6.412
 3147TIP3   OH230999   3.985   4.323   8.356
 3147TIP3    H131000   3.957   4.327   8.265
 3147TIP3    H231001   3.918   4.372   8.404
 3148TIP3   OH231002   3.203   5.377   2.072
 3148TIP3    H131003   3.187   5.396   2.164
 3148TIP3    H231004   3.223   5.283   2.070
 3149TIP3   OH231005   0.447   3.762   7.007
 3149TIP3    H131006   0.416   3.673   6.988
 3149TIP3    H231007   0.378   3.819   6.975
 3150TIP3   OH231008   5.091   2.062   1.631
 3150TIP3    H131009   5.054   2.150   1.637
 3150TIP3    H231010   5.041   2.020   1.561
 3151TIP3   OH231011   4.540   1.685   8.659
 3151TIP3    H131012   4.553   1.754   0.063
 3151TIP3    H231013   4.447   1.665   0.002
 3152TIP3   OH231014   5.655   4.749   7.257
 3152TIP3    H131015   5.567   4.738   7.221
 3152TIP3    H231016   5.641   4.779   7.347
 3153TIP3   OH231017   0.548   2.642   7.987
 3153TIP3    H131018   0.612   2.704   7.953
 3153TIP3    H231019   0.488   2.695   8.039
 3154TIP3   OH231020   4.818   3.681   7.938
 3154TIP3    H131021   4.754   3.719   7.878
 3154TIP3    H231022   4.816   3.587   7.918
 3155TIP3   OH231023   1.927   3.020   7.195
 3155TIP3    H131024   1.845   3.066   7.180
 3155TIP3    H231025   1.969   3.018   7.109
 3156TIP3   OH231026   3.267   1.388   7.046
 3156TIP3    H131027   3.314   1.350   6.972
 3156TIP3    H231028   3.328   1.453   7.082
 3157TIP3   OH231029   3.880   1.416   7.464
 3157TIP3    H131030   3.830   1.492   7.434
 3157TIP3    H231031   3.922   1.445   7.544
 3158TIP3   OH231032   6.688   5.053   8.238
 3158TIP3    H131033   6.697   5.132   8.292
 3158TIP3    H231034   6.664   4.984   8.300
 3159TIP3   OH231035   0.778   1.801   7.306
 3159TIP3    H131036   0.865   1.800   7.345
 3159TIP3    H231037   0.746   1.711   7.313
 3160TIP3   OH231038   4.095   4.881   6.642
 3160TIP3    H131039   4.171   4.878   6.583
 3160TIP3    H231040   4.044   4.804   6.618
 3161TIP3   OH231041   5.120   0.082   8.540
 3161TIP3    H131042   5.178   0.013   8.508
 3161TIP3    H231043   5.071   0.041   8.612
 3162TIP3   OH231044   0.345   5.419   1.016
 3162TIP3    H131045   0.436   5.420   1.043
 3162TIP3    H231046   0.323   5.511   1.003
 3163TIP3   OH231047   1.132   4.615   0.543
 3163TIP3    H131048   1.214   4.605   0.592
 3163TIP3    H231049   1.155   4.670   0.469
 3164TIP3   OH231050   6.019   5.508   1.311
 3164TIP3    H131051   6.016   5.423   1.355
 3164TIP3    H231052   5.934   5.515   1.267
 3165TIP3   OH231053   1.095   4.791   7.330
 3165TIP3    H131054   1.051   4.845   7.395
 3165TIP3    H231055   1.069   4.828   7.246
 3166TIP3   OH231056   5.548   2.871   7.824
 3166TIP3    H131057   5.590   2.785   7.831
 3166TIP3    H231058   5.528   2.880   7.731
 3167TIP3   OH231059   1.560   4.992   1.339
 3167TIP3    H131060   1.609   4.914   1.364
 3167TIP3    H231061   1.599   5.063   1.390
 3168TIP3   OH231062   5.619   3.362   8.269
 3168TIP3    H131063   5.607   3.376   8.175
 3168TIP3    H231064   5.714   3.357   8.281
 3169TIP3   OH231065   2.396   3.851   7.667
 3169TIP3    H131066   2.377   3.757   7.664
 3169TIP3    H231067   2.388   3.874   7.760
 3170TIP3   OH231068   3.268   0.182   6.593
 3170TIP3    H131069   3.297   0.184   6.685
 3170TIP3    H231070   3.302   0.099   6.559
 3171TIP3   OH231071   5.541   0.656   0.580
 3171TIP3    H131072   5.587   0.672   0.662
 3171TIP3    H231073   5.510   0.566   0.586
 3172TIP3   OH231074   5.657   3.689   8.209
 3172TIP3    H131075   5.627   3.640   8.285
 3172TIP3    H231076   5.595   3.667   8.140
 3173TIP3   OH231077   0.169   4.410   8.566
 3173TIP3    H131078   0.180   4.412   8.661
 3173TIP3    H231079   0.077   4.432   8.552
 3174TIP3   OH231080   6.790   0.698   1.165
 3174TIP3    H131081   6.697   0.707   1.146
 3174TIP3    H231082   6.805   0.604   1.169
 3175TIP3   OH231083   2.087   5.492   8.386
 3175TIP3    H131084   2.004   5.466   8.346
 3175TIP3    H231085   2.153   5.442   8.337
 3176TIP3   OH231086   2.488   3.710   0.720
 3176TIP3    H131087   2.492   3.624   0.679
 3176TIP3    H231088   2.397   3.739   0.708
 3177TIP3   OH231089   3.822   1.608   7.872
 3177TIP3    H131090   3.833   1.680   7.810
 3177TIP3    H231091   3.815   1.530   7.817
 3178TIP3   OH231092   0.149   0.533   2.097
 3178TIP3    H131093   0.127   0.555   2.188
 3178TIP3    H231094   0.075   0.480   2.067
 3179TIP3   OH231095   3.971   1.689   0.664
 3179TIP3    H131096   3.949   1.622   0.730
 3179TIP3    H231097   3.909   1.760   0.682
 3180TIP3   OH231098   0.644   0.022   1.800
 3180TIP3    H131099   0.639   6.820   1.837
 3180TIP3    H231100   0.574   0.070   1.844
 3181TIP3   OH231101   0.737   5.527   8.312
 3181TIP3    H131102   0.707   5.443   8.277
 3181TIP3    H231103   0.688   5.538   8.393
 3182TIP3   OH231104   2.483   5.299   0.492
 3182TIP3    H131105   2.553   5.300   0.558
 3182TIP3    H231106   2.477   5.208   0.464
 3183TIP3   OH231107   3.505   2.234   7.964
 3183TIP3    H131108   3.586   2.183   7.958
 3183TIP3    H231109   3.515   2.285   8.044
 3184TIP3   OH231110   3.352   1.209   8.254
 3184TIP3    H131111   3.420   1.256   8.205
 3184TIP3    H231112   3.349   1.123   8.213
 3185TIP3   OH231113   4.256   5.321   0.569
 3185TIP3    H131114   4.333   5.286   0.523
 3185TIP3    H231115   4.264   5.416   0.561
 3186TIP3   OH231116   6.169   5.000   0.856
 3186TIP3    H131117   6.224   5.075   0.836
 3186TIP3    H231118   6.207   4.963   0.936
 3187TIP3   OH231119   4.837   5.804   6.656
 3187TIP3    H131120   4.847   5.860   6.578
 3187TIP3    H231121   4.921   5.810   6.700
 3188TIP3   OH231122   0.240   0.108   1.517
 3188TIP3    H131123   0.241   0.023   1.560
 3188TIP3    H231124   0.328   0.143   1.530
 3189TIP3   OH231125   5.162   6.518   1.422
 3189TIP3    H131126   5.117   6.541   1.503
 3189TIP3    H231127   5.159   6.598   1.369
 3190TIP3   OH231128   2.368   2.506   6.931
 3190TIP3    H131129   2.389   2.535   6.842
 3190TIP3    H231130   2.362   2.411   6.925
 3191TIP3   OH231131   0.861   1.500   0.151
 3191TIP3    H131132   0.765   1.499   0.144
 3191TIP3    H231133   0.887   1.409   0.133
 3192TIP3   OH231134   6.556   4.834   8.389
 3192TIP3    H131135   6.488   4.776   8.422
 3192TIP3    H231136   6.584   4.884   8.466
 3193TIP3   OH231137   3.594   3.161   0.821
 3193TIP3    H131138   3.647   3.189   0.895
 3193TIP3    H231139   3.524   3.225   0.815
 3194TIP3   OH231140   0.737   6.486   0.018
 3194TIP3    H131141   0.648   6.494   0.051
 3194TIP3    H231142   0.781   6.566   0.046
 3195TIP3   OH231143   2.096   2.638   0.908
 3195TIP3    H131144   2.074   2.719   0.955
 3195TIP3    H231145   2.077   2.568   0.971
 3196TIP3   OH231146   2.461   4.236   8.622
 3196TIP3    H131147   2.450   4.145   8.647
 3196TIP3    H231148   2.386   4.256   8.566
 3197TIP3   OH231149   3.258   3.853   6.603
 3197TIP3    H131150   3.297   3.812   6.681
 3197TIP3    H231151   3.263   3.785   6.536
 3198TIP3   OH231152   3.134   2.901   8.375
 3198TIP3    H131153   3.118   2.948   8.457
 3198TIP3    H231154   3.216   2.854   8.390
 3199TIP3   OH231155   3.065   3.864   8.367
 3199TIP3    H131156   3.132   3.901   8.424
 3199TIP3    H231157   3.009   3.938   8.344
 3200TIP3   OH231158   1.408   1.572   1.023
 3200TIP3    H131159   1.355   1.533   1.093
 3200TIP3    H231160   1.345   1.601   0.958
 3201TIP3   OH231161   2.816   6.502   7.487
 3201TIP3    H131162   2.766   6.550   7.421
 3201TIP3    H231163   2.891   6.466   7.440
 3202TIP3   OH231164   1.740   1.329   0.909
 3202TIP3    H131165   1.750   1.378   0.827
 3202TIP3    H231166   1.821   1.278   0.917
 3203TIP3   OH231167   2.156   3.718   7.405
 3203TIP3    H131168   2.093   3.662   7.360
 3203TIP3    H231169   2.165   3.678   7.492
 3204TIP3   OH231170   0.243   5.223   7.386
 3204TIP3    H131171   0.321   5.170   7.369
 3204TIP3    H231172   0.203   5.235   7.300
 3205TIP3   OH231173   6.260   5.152   0.447
 3205TIP3    H131174   6.354   5.166   0.451
 3205TIP3    H231175   6.223   5.239   0.434
 3206TIP3   OH231176   3.856   3.070   0.241
 3206TIP3    H131177   3.890   2.983   0.266
 3206TIP3    H231178   3.900   3.130   0.301
 3207TIP3   OH231179   2.929   6.127   0.859
 3207TIP3    H131180   3.017   6.138   0.822
 3207TIP3    H231181   2.870   6.144   0.786
 3208TIP3   OH231182   1.523   3.701   8.570
 3208TIP3    H131183   1.432   3.719   8.546
 3208TIP3    H231184   1.518   3.621   8.623
 3209TIP3   OH231185   5.923   2.296   8.658
 3209TIP3    H131186   5.855   2.341   0.046
 3209TIP3    H231187   5.986   2.364   8.635
 3210TIP3   OH231188   2.113   3.225   7.762
 3210TIP3    H131189   2.188   3.271   7.800
 3210TIP3    H231190   2.058   3.294   7.726
 3211TIP3   OH231191   4.816   6.591   7.789
 3211TIP3    H131192   4.731   6.569   7.827
 3211TIP3    H231193   4.840   6.513   7.739
 3212TIP3   OH231194   0.565   3.055   7.016
 3212TIP3    H131195   0.603   3.136   6.982
 3212TIP3    H231196   0.490   3.037   6.959
 3213TIP3   OH231197   2.259   3.657   1.400
 3213TIP3    H131198   2.229   3.582   1.348
 3213TIP3    H231199   2.238   3.734   1.347
 3214TIP3   OH231200   1.339   2.377   1.367
 3214TIP3    H131201   1.297   2.322   1.301
 3214TIP3    H231202   1.432   2.359   1.356
 3215TIP3   OH231203   5.222   1.277   6.870
 3215TIP3    H131204   5.145   1.284   6.814
 3215TIP3    H231205   5.281   1.219   6.822
 3216TIP3   OH231206   0.801   1.059   6.883
 3216TIP3    H131207   0.848   1.010   6.951
 3216TIP3    H231208   0.825   1.015   6.802
 3217TIP3   OH231209   6.485   0.681   7.862
 3217TIP3    H131210   6.565   0.687   7.915
 3217TIP3    H231211   6.515   0.694   7.772
 3218TIP3   OH231212   4.619   5.896   1.920
 3218TIP3    H131213   4.583   5.811   1.946
 3218TIP3    H231214   4.714   5.883   1.922
 3219TIP3   OH231215   1.781   6.835   7.493
 3219TIP3    H131216   1.833   0.027   7.473
 3219TIP3    H231217   1.724   6.862   7.566
 3220TIP3   OH231218   0.740   6.869   2.617
 3220TIP3    H131219   0.656   0.022   2.594
 3220TIP3    H231220   0.793   6.876   2.537
 3221TIP3   OH231221   1.218   6.196   0.544
 3221TIP3    H131222   1.250   6.246   0.619
 3221TIP3    H231223   1.270   6.115   0.545
 3222TIP3   OH231224   3.020   3.576   7.883
 3222TIP3    H131225   3.054   3.487   7.872
 3222TIP3    H231226   2.958   3.586   7.811
 3223TIP3   OH231227   6.763   3.220   0.216
 3223TIP3    H131228   6.786   3.206   0.308
 3223TIP3    H231229   6.837   3.269   0.181
 3224TIP3   OH231230   2.075   3.107   1.333
 3224TIP3    H131231   2.092   3.132   1.242
 3224TIP3    H231232   2.158   3.070   1.364
 3225TIP3   OH231233   3.130   5.107   1.343
 3225TIP3    H131234   3.150   5.195   1.374
 3225TIP3    H231235   3.128   5.114   1.248
 3226TIP3   OH231236   0.577   6.379   1.081
 3226TIP3    H131237   0.616   6.322   1.014
 3226TIP3    H231238   0.629   6.459   1.078
 3227TIP3   OH231239   0.777   5.449   7.993
 3227TIP3    H131240   0.860   5.468   8.037
 3227TIP3    H231241   0.743   5.372   8.039
 3228TIP3   OH231242   1.660   0.860   7.331
 3228TIP3    H131243   1.712   0.851   7.411
 3228TIP3    H231244   1.719   0.902   7.269
 3229TIP3   OH231245   4.232   1.081   1.892
 3229TIP3    H131246   4.310   1.054   1.844
 3229TIP3    H231247   4.199   1.000   1.932
 3230TIP3   OH231248   2.126   0.876   0.952
 3230TIP3    H131249   2.157   0.786   0.958
 3230TIP3    H231250   2.182   0.925   1.012
 3231TIP3   OH231251   6.360   6.307   6.160
 3231TIP3    H131252   6.367   6.399   6.185
 3231TIP3    H231253   6.355   6.260   6.243
 3232TIP3   OH231254   3.650   3.396   1.168
 3232TIP3    H131255   3.692   3.479   1.142
 3232TIP3    H231256   3.722   3.335   1.181
 3233TIP3   OH231257   0.580   2.083   0.885
 3233TIP3    H131258   0.507   2.020   0.882
 3233TIP3    H231259   0.551   2.155   0.829
 3234TIP3   OH231260   2.982   0.137   6.707
 3234TIP3    H131261   3.062   0.189   6.703
 3234TIP3    H231262   2.996   0.079   6.782
 3235TIP3   OH231263   1.022   5.476   7.581
 3235TIP3    H131264   0.963   5.429   7.639
 3235TIP3    H231265   0.979   5.560   7.565
 3236TIP3   OH231266   1.897   3.873   7.211
 3236TIP3    H131267   1.841   3.943   7.245
 3236TIP3    H231268   1.980   3.915   7.193
 3237TIP3   OH231269   6.278   1.808   6.859
 3237TIP3    H131270   6.275   1.887   6.912
 3237TIP3    H231271   6.186   1.787   6.840
 3238TIP3   OH231272   1.220   6.332   6.662
 3238TIP3    H131273   1.250   6.422   6.671
 3238TIP3    H231274   1.147   6.337   6.600
 3239TIP3   OH231275   6.478   4.024   7.503
 3239TIP3    H131276   6.420   3.956   7.469
 3239TIP3    H231277   6.566   3.987   7.492
 3240TIP3   OH231278   2.573   0.568   0.148
 3240TIP3    H131279   2.566   0.475   0.123
 3240TIP3    H231280   2.589   0.566   0.242
 3241TIP3   OH231281   3.306   2.304   0.690
 3241TIP3    H131282   3.314   2.392   0.655
 3241TIP3    H231283   3.328   2.247   0.616
 3242TIP3   OH231284   6.277   0.564   8.067
 3242TIP3    H131285   6.287   0.622   8.143
 3242TIP3    H231286   6.262   0.624   7.994
 3243TIP3   OH231287   0.846   1.085   1.789
 3243TIP3    H131288   0.907   1.015   1.764
 3243TIP3    H231289   0.861   1.098   1.882
 3244TIP3   OH231290   3.943   6.212   8.051
 3244TIP3    H131291   4.006   6.192   7.981
 3244TIP3    H231292   3.956   6.141   8.114
 3245TIP3   OH231293   1.172   5.204   1.328
 3245TIP3    H131294   1.113   5.223   1.402
 3245TIP3    H231295   1.213   5.121   1.352
 3246TIP3   OH231296   2.024   0.394   7.151
 3246TIP3    H131297   2.035   0.325   7.086
 3246TIP3    H231298   2.001   0.471   7.099
 3247TIP3   OH231299   3.515   0.298   8.283
 3247TIP3    H131300   3.517   0.292   8.379
 3247TIP3    H231301   3.465   0.377   8.265
 3248TIP3   OH231302   3.416   1.375   1.960
 3248TIP3    H131303   3.450   1.296   2.001
 3248TIP3    H231304   3.471   1.445   1.994
 3249TIP3   OH231305   2.517   5.904   1.694
 3249TIP3    H131306   2.444   5.951   1.654
 3249TIP3    H231307   2.503   5.812   1.670
 3250TIP3   OH231308   6.234   6.866   8.124
 3250TIP3    H131309   6.154   0.031   8.120
 3250TIP3    H231310   6.265   6.875   8.214
 3251TIP3   OH231311   4.378   4.245   1.109
 3251TIP3    H131312   4.461   4.267   1.067
 3251TIP3    H231313   4.389   4.155   1.139
 3252TIP3   OH231314   2.396   0.325   1.508
 3252TIP3    H131315   2.355   0.313   1.594
 3252TIP3    H231316   2.327   0.361   1.453
 3253TIP3   OH231317   0.233   5.994   6.647
 3253TIP3    H131318   0.317   6.040   6.643
 3253TIP3    H231319   0.245   5.928   6.715
 3254TIP3   OH231320   4.261   5.803   8.243
 3254TIP3    H131321   4.352   5.833   8.254
 3254TIP3    H231322   4.217   5.830   8.323
 3255TIP3   OH231323   5.813   4.723   0.072
 3255TIP3    H131324   5.724   4.748   0.095
 3255TIP3    H231325   5.805   4.635   0.036
 3256TIP3   OH231326   1.435   3.865   8.009
 3256TIP3    H131327   1.482   3.837   7.931
 3256TIP3    H231328   1.494   3.927   8.052
 3257TIP3   OH231329   1.711   5.854   1.894
 3257TIP3    H131330   1.703   5.869   1.988
 3257TIP3    H231331   1.627   5.815   1.869
 3258TIP3   OH231332   1.149   0.931   8.474
 3258TIP3    H131333   1.164   0.839   8.494
 3258TIP3    H231334   1.075   0.957   8.529
 3259TIP3   OH231335   2.790   0.707   7.861
 3259TIP3    H131336   2.709   0.752   7.886
 3259TIP3    H231337   2.774   0.615   7.884
 3260TIP3   OH231338   5.451   1.826   8.286
 3260TIP3    H131339   5.461   1.848   8.193
 3260TIP3    H231340   5.527   1.771   8.305
 3261TIP3   OH231341   1.292   4.957   1.359
 3261TIP3    H131342   1.386   4.962   1.347
 3261TIP3    H231343   1.262   4.897   1.291
 3262TIP3   OH231344   6.519   5.050   2.158
 3262TIP3    H131345   6.539   5.140   2.182
 3262TIP3    H231346   6.433   5.055   2.115
 3263TIP3   OH231347   4.449   1.656   2.378
 3263TIP3    H131348   4.369   1.708   2.384
 3263TIP3    H231349   4.426   1.572   2.418
 3264TIP3   OH231350   5.837   5.644   8.132
 3264TIP3    H131351   5.886   5.647   8.050
 3264TIP3    H231352   5.902   5.619   8.197
 3265TIP3   OH231353   0.918   1.921   0.432
 3265TIP3    H131354   0.961   1.939   0.348
 3265TIP3    H231355   0.829   1.895   0.408
 3266TIP3   OH231356   1.509   2.240   7.103
 3266TIP3    H131357   1.599   2.267   7.119
 3266TIP3    H231358   1.501   2.155   7.147
 3267TIP3   OH231359   2.084   3.844   1.526
 3267TIP3    H131360   2.158   3.799   1.484
 3267TIP3    H231361   2.069   3.921   1.471
 3268TIP3   OH231362   5.784   4.937   8.045
 3268TIP3    H131363   5.734   5.003   7.997
 3268TIP3    H231364   5.813   4.981   8.125
 3269TIP3   OH231365   3.954   0.345   7.030
 3269TIP3    H131366   3.957   0.436   7.001
 3269TIP3    H231367   3.985   0.347   7.120
 3270TIP3   OH231368   5.186   4.521   0.372
 3270TIP3    H131369   5.249   4.488   0.307
 3270TIP3    H231370   5.208   4.614   0.379
 3271TIP3   OH231371   3.030   0.663   0.435
 3271TIP3    H131372   3.029   0.675   0.530
 3271TIP3    H231373   2.937   0.657   0.411
 3272TIP3   OH231374   0.970   0.464   0.868
 3272TIP3    H131375   1.057   0.497   0.844
 3272TIP3    H231376   0.931   0.535   0.918
 3273TIP3   OH231377   0.035   5.513   0.327
 3273TIP3    H131378   0.039   5.603   0.359
 3273TIP3    H231379   0.126   5.484   0.324
 3274TIP3   OH231380   5.723   2.889   1.595
 3274TIP3    H131381   5.733   2.977   1.559
 3274TIP3    H231382   5.634   2.863   1.571
 3275TIP3   OH231383   5.374   0.309   0.447
 3275TIP3    H131384   5.458   0.288   0.407
 3275TIP3    H231385   5.395   0.332   0.538
 3276TIP3   OH231386   6.215   1.344   0.519
 3276TIP3    H131387   6.257   1.380   0.597
 3276TIP3    H231388   6.198   1.420   0.463
 3277TIP3   OH231389   5.007   3.043   1.951
 3277TIP3    H131390   5.012   2.948   1.940
 3277TIP3    H231391   5.041   3.059   2.040
 3278TIP3   OH231392   4.136   5.078   1.202
 3278TIP3    H131393   4.110   4.992   1.168
 3278TIP3    H231394   4.232   5.078   1.195
 3279TIP3   OH231395   0.795   5.228   7.260
 3279TIP3    H131396   0.803   5.185   7.174
 3279TIP3    H231397   0.860   5.298   7.258
 3280TIP3   OH231398   1.480   1.850   8.079
 3280TIP3    H131399   1.412   1.805   8.129
 3280TIP3    H231400   1.483   1.805   7.995
 3281TIP3   OH231401   6.295   2.723   1.627
 3281TIP3    H131402   6.389   2.736   1.642
 3281TIP3    H231403   6.269   2.798   1.573
 3282TIP3   OH231404   4.372   6.038   1.731
 3282TIP3    H131405   4.390   5.946   1.709
 3282TIP3    H231406   4.453   6.068   1.773
 3283TIP3   OH231407   0.095   2.063   0.344
 3283TIP3    H131408   0.071   2.151   0.315
 3283TIP3    H231409   0.082   2.009   0.266
 3284TIP3   OH231410   1.272   5.588   7.721
 3284TIP3    H131411   1.254   5.615   7.631
 3284TIP3    H231412   1.187   5.593   7.764
 3285TIP3   OH231413   3.821   6.651   1.192
 3285TIP3    H131414   3.850   6.739   1.217
 3285TIP3    H231415   3.902   6.604   1.174
 3286TIP3   OH231416   4.858   4.123   7.096
 3286TIP3    H131417   4.791   4.057   7.080
 3286TIP3    H231418   4.940   4.076   7.089
 3287TIP3   OH231419   6.579   5.997   0.161
 3287TIP3    H131420   6.507   6.056   0.141
 3287TIP3    H231421   6.656   6.054   0.166
 3288TIP3   OH231422   4.458   5.831   7.560
 3288TIP3    H131423   4.373   5.847   7.518
 3288TIP3    H231424   4.510   5.789   7.492
 3289TIP3   OH231425   3.272   6.103   6.109
 3289TIP3    H131426   3.191   6.053   6.117
 3289TIP3    H231427   3.265   6.146   6.024
 3290TIP3   OH231428   4.271   6.198   0.398
 3290TIP3    H131429   4.356   6.240   0.410
 3290TIP3    H231430   4.228   6.206   0.483
 3291TIP3   OH231431   6.447   5.681   7.989
 3291TIP3    H131432   6.357   5.657   7.966
 3291TIP3    H231433   6.457   5.650   8.079
 3292TIP3   OH231434   5.318   4.575   7.509
 3292TIP3    H131435   5.298   4.614   7.594
 3292TIP3    H231436   5.336   4.483   7.528
 3293TIP3   OH231437   3.649   2.765   0.244
 3293TIP3    H131438   3.719   2.731   0.188
 3293TIP3    H231439   3.612   2.839   0.196
 3294TIP3   OH231440   0.336   1.433   0.374
 3294TIP3    H131441   0.261   1.373   0.373
 3294TIP3    H231442   0.405   1.384   0.329
 3295TIP3   OH231443   6.456   4.239   6.125
 3295TIP3    H131444   6.453   4.144   6.140
 3295TIP3    H231445   6.382   4.256   6.066
 3296TIP3   OH231446   1.762   0.747   0.455
 3296TIP3    H131447   1.841   0.697   0.437
 3296TIP3    H231448   1.793   0.836   0.471
 3297TIP3   OH231449   2.919   3.352   2.547
 3297TIP3    H131450   3.002   3.307   2.565
 3297TIP3    H231451   2.912   3.354   2.452
 3298TIP3   OH231452   2.211   0.809   8.065
 3298TIP3    H131453   2.148   0.847   8.126
 3298TIP3    H231454   2.189   0.848   7.980
 3299TIP3   OH231455   0.892   3.734   7.225
 3299TIP3    H131456   0.812   3.685   7.205
 3299TIP3    H231457   0.868   3.826   7.214
 3300TIP3   OH231458   2.402   2.432   0.042
 3300TIP3    H131459   2.416   2.488   8.628
 3300TIP3    H231460   2.310   2.443   0.063
 3301TIP3   OH231461   1.445   4.586   0.968
 3301TIP3    H131462   1.487   4.558   0.887
 3301TIP3    H231463   1.394   4.511   0.996
 3302TIP3   OH231464   3.730   5.754   6.486
 3302TIP3    H131465   3.656   5.723   6.538
 3302TIP3    H231466   3.807   5.715   6.528
 3303TIP3   OH231467   2.710   5.248   7.964
 3303TIP3    H131468   2.694   5.176   8.024
 3303TIP3    H231469   2.787   5.293   8.000
 3304TIP3   OH231470   6.138   2.196   2.425
 3304TIP3    H131471   6.091   2.220   2.505
 3304TIP3    H231472   6.078   2.137   2.379
 3305TIP3   OH231473   0.016   6.176   6.984
 3305TIP3    H131474   0.001   6.250   7.042
 3305TIP3    H231475   0.110   6.177   6.967
 3306TIP3   OH231476   5.983   2.371   2.091
 3306TIP3    H131477   5.958   2.462   2.083
 3306TIP3    H231478   5.949   2.343   2.176
 3307TIP3   OH231479   2.920   3.898   6.797
 3307TIP3    H131480   2.946   3.895   6.889
 3307TIP3    H231481   2.962   3.977   6.764
 3308TIP3   OH231482   2.340   5.745   1.159
 3308TIP3    H131483   2.341   5.823   1.103
 3308TIP3    H231484   2.365   5.777   1.246
 3309TIP3   OH231485   2.181   2.276   7.721
 3309TIP3    H131486   2.230   2.341   7.671
 3309TIP3    H231487   2.127   2.327   7.781
 3310TIP3   OH231488   1.795   6.520   6.178
 3310TIP3    H131489   1.857   6.569   6.125
 3310TIP3    H231490   1.727   6.492   6.117
 3311TIP3   OH231491   4.478   1.385   0.471
 3311TIP3    H131492   4.443   1.388   0.559
 3311TIP3    H231493   4.558   1.332   0.479
 3312TIP3   OH231494   6.060   5.119   7.097
 3312TIP3    H131495   6.062   5.069   7.016
 3312TIP3    H231496   6.058   5.052   7.166
 3313TIP3   OH231497   3.517   5.301   1.408
 3313TIP3    H131498   3.424   5.323   1.410
 3313TIP3    H231499   3.522   5.219   1.358
 3314TIP3   OH231500   1.476   4.241   8.196
 3314TIP3    H131501   1.415   4.289   8.251
 3314TIP3    H231502   1.457   4.270   8.106
 3315TIP3   OH231503   0.178   3.031   1.433
 3315TIP3    H131504   0.251   2.983   1.393
 3315TIP3    H231505   0.108   3.025   1.368
 3316TIP3   OH231506   1.543   4.027   1.876
 3316TIP3    H131507   1.491   3.950   1.899
 3316TIP3    H231508   1.482   4.100   1.883
 3317TIP3   OH231509   5.152   0.375   1.649
 3317TIP3    H131510   5.059   0.395   1.648
 3317TIP3    H231511   5.170   0.342   1.560
 3318TIP3   OH231512   5.889   1.511   0.641
 3318TIP3    H131513   5.895   1.546   0.730
 3318TIP3    H231514   5.921   1.582   0.585
 3319TIP3   OH231515   0.483   5.830   1.319
 3319TIP3    H131516   0.498   5.923   1.300
 3319TIP3    H231517   0.516   5.785   1.242
 3320TIP3   OH231518   6.814   0.757   7.352
 3320TIP3    H131519   6.871   0.833   7.356
 3320TIP3    H231520   6.745   0.781   7.290
 3321TIP3   OH231521   6.178   5.268   8.033
 3321TIP3    H131522   6.099   5.280   8.086
 3321TIP3    H231523   6.248   5.310   8.085
 3322TIP3   OH231524   3.049   5.872   0.903
 3322TIP3    H131525   2.992   5.947   0.919
 3322TIP3    H231526   2.991   5.804   0.870
 3323TIP3   OH231527   2.088   0.775   7.775
 3323TIP3    H131528   2.078   0.688   7.814
 3323TIP3    H231529   2.175   0.772   7.734
 3324TIP3   OH231530   2.035   2.487   7.942
 3324TIP3    H131531   1.977   2.483   7.865
 3324TIP3    H231532   2.116   2.527   7.909
 3325TIP3   OH231533   1.895   5.332   7.518
 3325TIP3    H131534   1.926   5.376   7.438
 3325TIP3    H231535   1.964   5.269   7.539
 3326TIP3   OH231536   1.587   5.259   2.331
 3326TIP3    H131537   1.622   5.219   2.251
 3326TIP3    H231538   1.513   5.204   2.355
 3327TIP3   OH231539   3.583   4.473   1.343
 3327TIP3    H131540   3.627   4.406   1.395
 3327TIP3    H231541   3.647   4.544   1.337
 3328TIP3   OH231542   2.986   0.824   0.656
 3328TIP3    H131543   2.928   0.763   0.702
 3328TIP3    H231544   2.927   0.892   0.624
 3329TIP3   OH231545   2.085   6.099   7.902
 3329TIP3    H131546   2.143   6.029   7.931
 3329TIP3    H231547   2.050   6.137   7.983
 3330TIP3   OH231548   3.074   4.959   0.930
 3330TIP3    H131549   3.056   5.010   0.850
 3330TIP3    H231550   3.000   4.979   0.988
 3331TIP3   OH231551   2.499   4.014   7.229
 3331TIP3    H131552   2.416   3.991   7.272
 3331TIP3    H231553   2.551   3.933   7.232
 3332TIP3   OH231554   1.822   6.545   7.463
 3332TIP3    H131555   1.822   6.639   7.480
 3332TIP3    H231556   1.768   6.508   7.534
 3333TIP3   OH231557   4.223   1.754   0.645
 3333TIP3    H131558   4.223   1.846   0.616
 3333TIP3    H231559   4.133   1.739   0.674
 3334TIP3   OH231560   0.970   2.203   7.269
 3334TIP3    H131561   1.065   2.196   7.268
 3334TIP3    H231562   0.945   2.179   7.359
 3335TIP3   OH231563   2.512   4.823   0.619
 3335TIP3    H131564   2.528   4.731   0.643
 3335TIP3    H231565   2.494   4.820   0.525
 3336TIP3   OH231566   4.421   0.086   8.073
 3336TIP3    H131567   4.411   0.136   8.154
 3336TIP3    H231568   4.458   0.148   8.011
 3337TIP3   OH231569   4.851   2.275   7.088
 3337TIP3    H131570   4.894   2.251   7.005
 3337TIP3    H231571   4.898   2.353   7.117
 3338TIP3   OH231572   3.869   0.887   7.498
 3338TIP3    H131573   3.895   0.848   7.581
 3338TIP3    H231574   3.819   0.819   7.454
 3339TIP3   OH231575   4.765   6.189   8.261
 3339TIP3    H131576   4.709   6.132   8.208
 3339TIP3    H231577   4.843   6.137   8.278
 3340TIP3   OH231578   6.095   4.126   7.264
 3340TIP3    H131579   6.085   4.032   7.250
 3340TIP3    H231580   6.189   4.141   7.257
 3341TIP3   OH231581   4.211   3.841   7.957
 3341TIP3    H131582   4.155   3.912   7.925
 3341TIP3    H231583   4.267   3.820   7.882
 3342TIP3   OH231584   1.775   4.813   0.637
 3342TIP3    H131585   1.824   4.883   0.594
 3342TIP3    H231586   1.811   4.809   0.725
 3343TIP3   OH231587   4.565   5.920   6.060
 3343TIP3    H131588   4.489   5.866   6.085
 3343TIP3    H231589   4.590   5.963   6.141
 3344TIP3   OH231590   3.434   1.427   1.206
 3344TIP3    H131591   3.525   1.395   1.209
 3344TIP3    H231592   3.402   1.397   1.120
 3345TIP3   OH231593   6.114   0.741   0.305
 3345TIP3    H131594   6.176   0.814   0.297
 3345TIP3    H231595   6.047   0.760   0.239
 3346TIP3   OH231596   6.402   5.222   0.750
 3346TIP3    H131597   6.344   5.256   0.682
 3346TIP3    H231598   6.486   5.265   0.734
 3347TIP3   OH231599   0.683   3.334   7.757
 3347TIP3    H131600   0.615   3.395   7.731
 3347TIP3    H231601   0.716   3.297   7.675
 3348TIP3   OH231602   1.772   2.841   6.883
 3348TIP3    H131603   1.738   2.754   6.901
 3348TIP3    H231604   1.695   2.898   6.887
 3349TIP3   OH231605   4.596   4.533   8.350
 3349TIP3    H131606   4.549   4.450   8.363
 3349TIP3    H231607   4.542   4.598   8.395
 3350TIP3   OH231608   6.635   5.614   1.900
 3350TIP3    H131609   6.583   5.686   1.866
 3350TIP3    H231610   6.724   5.648   1.905
 3351TIP3   OH231611   6.773   3.610   8.084
 3351TIP3    H131612   6.737   3.523   8.100
 3351TIP3    H231613   6.791   3.612   7.990
 3352TIP3   OH231614   2.429   0.068   1.832
 3352TIP3    H131615   2.338   0.041   1.821
 3352TIP3    H231616   2.429   0.162   1.815
 3353TIP3   OH231617   5.049   2.060   8.310
 3353TIP3    H131618   5.063   2.077   8.403
 3353TIP3    H231619   5.035   1.965   8.304
 3354TIP3   OH231620   4.682   6.632   7.101
 3354TIP3    H131621   4.597   6.667   7.073
 3354TIP3    H231622   4.661   6.553   7.150
 3355TIP3   OH231623   1.050   4.036   1.401
 3355TIP3    H131624   1.056   4.051   1.495
 3355TIP3    H231625   1.039   4.123   1.363
 3356TIP3   OH231626   3.644   6.634   7.467
 3356TIP3    H131627   3.732   6.660   7.492
 3356TIP3    H231628   3.589   6.663   7.541
 3357TIP3   OH231629   4.691   4.711   2.052
 3357TIP3    H131630   4.715   4.787   1.998
 3357TIP3    H231631   4.621   4.743   2.109
 3358TIP3   OH231632   5.772   1.333   8.259
 3358TIP3    H131633   5.708   1.318   8.329
 3358TIP3    H231634   5.851   1.360   8.306
 3359TIP3   OH231635   6.448   6.490   2.131
 3359TIP3    H131636   6.540   6.501   2.108
 3359TIP3    H231637   6.450   6.454   2.220
 3360TIP3   OH231638   1.003   0.519   7.777
 3360TIP3    H131639   1.056   0.534   7.855
 3360TIP3    H231640   1.030   0.589   7.716
 3361TIP3   OH231641   0.446   0.935   8.019
 3361TIP3    H131642   0.538   0.922   7.997
 3361TIP3    H231643   0.423   1.018   7.977
 3362TIP3   OH231644   2.203   5.799   2.265
 3362TIP3    H131645   2.193   5.890   2.235
 3362TIP3    H231646   2.212   5.806   2.360
 3363TIP3   OH231647   6.198   4.885   8.131
 3363TIP3    H131648   6.118   4.919   8.170
 3363TIP3    H231649   6.268   4.937   8.172
 3364TIP3   OH231650   6.130   3.622   1.615
 3364TIP3    H131651   6.206   3.679   1.630
 3364TIP3    H231652   6.141   3.550   1.678
 3365TIP3   OH231653   1.581   6.830   6.811
 3365TIP3    H131654   1.545   6.792   6.731
 3365TIP3    H231655   1.671   6.799   6.815
 3366TIP3   OH231656   1.228   3.563   6.648
 3366TIP3    H131657   1.143   3.519   6.653
 3366TIP3    H231658   1.278   3.511   6.586
 3367TIP3   OH231659   6.174   4.661   1.518
 3367TIP3    H131660   6.108   4.663   1.587
 3367TIP3    H231661   6.225   4.740   1.531
 3368TIP3   OH231662   0.979   6.400   8.018
 3368TIP3    H131663   0.954   6.449   7.940
 3368TIP3    H231664   0.898   6.393   8.069
 3369TIP3   OH231665   2.625   2.367   8.281
 3369TIP3    H131666   2.674   2.375   8.199
 3369TIP3    H231667   2.540   2.331   8.255
 3370TIP3   OH231668   0.099   0.674   1.381
 3370TIP3    H131669   0.079   0.760   1.418
 3370TIP3    H231670   0.015   0.628   1.381
 3371TIP3   OH231671   5.394   6.485   2.265
 3371TIP3    H131672   5.418   6.548   2.333
 3371TIP3    H231673   5.299   6.491   2.258
 3372TIP3   OH231674   4.798   1.557   8.587
 3372TIP3    H131675   4.841   1.573   0.009
 3372TIP3    H231676   4.704   1.563   8.607
 3373TIP3   OH231677   1.778   2.356   6.411
 3373TIP3    H131678   1.737   2.421   6.468
 3373TIP3    H231679   1.869   2.351   6.441
 3374TIP3   OH231680   3.692   0.167   1.350
 3374TIP3    H131681   3.680   0.260   1.370
 3374TIP3    H231682   3.775   0.163   1.302
 3375TIP3   OH231683   2.083   5.637   2.062
 3375TIP3    H131684   2.146   5.685   2.114
 3375TIP3    H231685   1.998   5.656   2.103
 3376TIP3   OH231686   0.032   1.946   6.496
 3376TIP3    H131687   6.835   1.989   6.473
 3376TIP3    H231688   0.069   2.001   6.565
 3377TIP3   OH231689   1.103   3.341   0.820
 3377TIP3    H131690   1.064   3.284   0.753
 3377TIP3    H231691   1.083   3.297   0.903
 3378TIP3   OH231692   3.933   0.652   7.119
 3378TIP3    H131693   3.960   0.734   7.160
 3378TIP3    H231694   3.876   0.679   7.047
 3379TIP3   OH231695   3.368   2.519   7.505
 3379TIP3    H131696   3.406   2.595   7.460
 3379TIP3    H231697   3.368   2.450   7.439
 3380TIP3   OH231698   6.211   3.386   0.506
 3380TIP3    H131699   6.181   3.477   0.513
 3380TIP3    H231700   6.269   3.374   0.581
 3381TIP3   OH231701   1.278   3.080   8.166
 3381TIP3    H131702   1.271   2.999   8.116
 3381TIP3    H231703   1.321   3.141   8.107
 3382TIP3   OH231704   5.303   1.842   2.508
 3382TIP3    H131705   5.386   1.840   2.461
 3382TIP3    H231706   5.262   1.758   2.489
 3383TIP3   OH231707   5.313   0.086   0.720
 3383TIP3    H131708   5.254   0.107   0.648
 3383TIP3    H231709   5.259   0.093   0.799
 3384TIP3   OH231710   3.725   4.148   7.685
 3384TIP3    H131711   3.721   4.183   7.596
 3384TIP3    H231712   3.633   4.134   7.709
 3385TIP3   OH231713   2.578   3.335   8.357
 3385TIP3    H131714   2.642   3.378   8.300
 3385TIP3    H231715   2.624   3.325   8.440
 3386TIP3   OH231716   5.429   3.210   8.403
 3386TIP3    H131717   5.491   3.275   8.370
 3386TIP3    H231718   5.481   3.130   8.411
 3387TIP3   OH231719   0.879   0.773   1.304
 3387TIP3    H131720   0.954   0.810   1.350
 3387TIP3    H231721   0.915   0.698   1.257
 3388TIP3   OH231722   3.155   5.975   1.720
 3388TIP3    H131723   3.114   6.059   1.700
 3388TIP3    H231724   3.134   5.920   1.645
 3389TIP3   OH231725   5.616   6.479   1.039
 3389TIP3    H131726   5.567   6.562   1.047
 3389TIP3    H231727   5.565   6.417   1.091
 3390TIP3   OH231728   0.095   3.902   0.008
 3390TIP3    H131729   0.016   3.917   0.059
 3390TIP3    H231730   0.087   3.962   8.595
 3391TIP3   OH231731   3.840   3.932   2.407
 3391TIP3    H131732   3.916   3.990   2.409
 3391TIP3    H231733   3.768   3.984   2.443
 3392TIP3   OH231734   2.140   0.545   8.350
 3392TIP3    H131735   2.183   0.625   8.380
 3392TIP3    H231736   2.056   0.544   8.396
 3393TIP3   OH231737   2.979   3.682   7.447
 3393TIP3    H131738   3.042   3.623   7.487
 3393TIP3    H231739   3.020   3.768   7.453
 3394TIP3   OH231740   0.169   0.346   1.357
 3394TIP3    H131741   0.203   0.374   1.442
 3394TIP3    H231742   0.083   0.308   1.377
 3395TIP3   OH231743   1.904   2.352   7.731
 3395TIP3    H131744   1.817   2.315   7.745
 3395TIP3    H231745   1.897   2.397   7.647
 3396TIP3   OH231746   4.631   1.844   0.845
 3396TIP3    H131747   4.582   1.926   0.845
 3396TIP3    H231748   4.575   1.782   0.892
 3397TIP3   OH231749   2.954   5.690   7.421
 3397TIP3    H131750   2.991   5.607   7.451
 3397TIP3    H231751   2.913   5.727   7.499
 3398TIP3   OH231752   6.104   6.588   7.120
 3398TIP3    H131753   6.102   6.501   7.080
 3398TIP3    H231754   6.181   6.588   7.176
 3399TIP3   OH231755   2.267   2.747   8.492
 3399TIP3    H131756   2.318   2.666   8.479
 3399TIP3    H231757   2.303   2.784   8.573
 3400TIP3   OH231758   3.879   6.157   6.457
 3400TIP3    H131759   3.787   6.179   6.446
 3400TIP3    H231760   3.915   6.228   6.510
 3401TIP3   OH231761   5.010   6.159   7.726
 3401TIP3    H131762   5.058   6.076   7.736
 3401TIP3    H231763   5.049   6.200   7.650
 3402TIP3   OH231764   6.374   5.581   7.562
 3402TIP3    H131765   6.328   5.562   7.480
 3402TIP3    H231766   6.304   5.596   7.625
 3403TIP3   OH231767   1.143   6.589   0.677
 3403TIP3    H131768   1.169   6.611   0.587
 3403TIP3    H231769   1.225   6.578   0.724
 3404TIP3   OH231770   1.255   4.515   1.690
 3404TIP3    H131771   1.277   4.487   1.601
 3404TIP3    H231772   1.339   4.543   1.728
 3405TIP3   OH231773   0.583   4.724   0.920
 3405TIP3    H131774   0.579   4.794   0.984
 3405TIP3    H231775   0.676   4.707   0.908
 3406TIP3   OH231776   3.554   4.341   0.346
 3406TIP3    H131777   3.485   4.386   0.395
 3406TIP3    H231778   3.616   4.411   0.323
 3407TIP3   OH231779   6.344   2.163   0.603
 3407TIP3    H131780   6.366   2.194   0.691
 3407TIP3    H231781   6.265   2.110   0.615
 3408TIP3   OH231782   3.646   5.070   1.304
 3408TIP3    H131783   3.709   5.017   1.256
 3408TIP3    H231784   3.638   5.026   1.389
 3409TIP3   OH231785   0.432   1.938   1.433
 3409TIP3    H131786   0.488   1.994   1.487
 3409TIP3    H231787   0.351   1.930   1.483
 3410TIP3   OH231788   5.682   1.680   8.308
 3410TIP3    H131789   5.731   1.601   8.332
 3410TIP3    H231790   5.747   1.751   8.314
 3411TIP3   OH231791   3.474   3.446   1.357
 3411TIP3    H131792   3.480   3.375   1.420
 3411TIP3    H231793   3.534   3.422   1.287
 3412TIP3   OH231794   5.700   5.677   7.204
 3412TIP3    H131795   5.654   5.651   7.124
 3412TIP3    H231796   5.736   5.763   7.184
 3413TIP3   OH231797   4.707   2.257   1.483
 3413TIP3    H131798   4.688   2.322   1.415
 3413TIP3    H231799   4.693   2.173   1.440
 3414TIP3   OH231800   6.663   1.116   7.722
 3414TIP3    H131801   6.741   1.139   7.672
 3414TIP3    H231802   6.695   1.061   7.794
 3415TIP3   OH231803   1.390   0.354   1.117
 3415TIP3    H131804   1.449   0.309   1.178
 3415TIP3    H231805   1.310   0.303   1.118
 3416TIP3   OH231806   3.087   2.970   6.964
 3416TIP3    H131807   2.995   2.982   6.941
 3416TIP3    H231808   3.127   2.933   6.885
 3417TIP3   OH231809   3.044   5.274   1.671
 3417TIP3    H131810   3.095   5.354   1.654
 3417TIP3    H231811   3.104   5.203   1.651
 3418TIP3   OH231812   4.805   6.200   2.262
 3418TIP3    H131813   4.819   6.107   2.277
 3418TIP3    H231814   4.717   6.205   2.225
 3419TIP3   OH231815   2.077   3.519   0.354
 3419TIP3    H131816   2.146   3.586   0.359
 3419TIP3    H231817   2.101   3.466   0.279
 3420TIP3   OH231818   2.286   0.018   0.149
 3420TIP3    H131819   2.332   0.011   0.065
 3420TIP3    H231820   2.306   6.822   0.194
 3421TIP3   OH231821   6.119   1.518   1.073
 3421TIP3    H131822   6.060   1.448   1.043
 3421TIP3    H231823   6.070   1.563   1.142
 3422TIP3   OH231824   4.376   6.569   0.420
 3422TIP3    H131825   4.399   6.518   0.498
 3422TIP3    H231826   4.449   6.630   0.409
 3423TIP3   OH231827   6.316   0.395   1.376
 3423TIP3    H131828   6.252   0.455   1.337
 3423TIP3    H231829   6.264   0.320   1.406
 3424TIP3   OH231830   1.867   4.595   8.565
 3424TIP3    H131831   1.950   4.632   8.535
 3424TIP3    H231832   1.840   4.538   8.493
 3425TIP3   OH231833   0.962   1.979   7.908
 3425TIP3    H131834   0.908   1.960   7.984
 3425TIP3    H231835   0.911   1.950   7.833
 3426TIP3   OH231836   6.380   4.094   7.212
 3426TIP3    H131837   6.391   4.109   7.118
 3426TIP3    H231838   6.382   3.999   7.221
 3427TIP3   OH231839   4.939   3.929   8.282
 3427TIP3    H131840   4.976   4.003   8.331
 3427TIP3    H231841   4.996   3.855   8.302
 3428TIP3   OH231842   6.664   5.492   7.810
 3428TIP3    H131843   6.682   5.535   7.894
 3428TIP3    H231844   6.637   5.563   7.752
 3429TIP3   OH231845   5.083   1.526   7.495
 3429TIP3    H131846   5.103   1.520   7.402
 3429TIP3    H231847   4.988   1.516   7.500
 3430TIP3   OH231848   1.012   2.652   1.513
 3430TIP3    H131849   0.985   2.718   1.577
 3430TIP3    H231850   0.931   2.620   1.475
 3431TIP3   OH231851   5.946   2.179   7.532
 3431TIP3    H131852   5.891   2.117   7.484
 3431TIP3    H231853   6.028   2.182   7.482
 3432TIP3   OH231854   3.287   0.287   8.575
 3432TIP3    H131855   3.239   0.328   8.647
 3432TIP3    H231856   3.305   0.198   8.606
 3433TIP3   OH231857   3.824   2.313   2.730
 3433TIP3    H131858   3.783   2.395   2.759
 3433TIP3    H231859   3.900   2.340   2.680
 3434TIP3   OH231860   4.139   4.609   1.187
 3434TIP3    H131861   4.195   4.577   1.117
 3434TIP3    H231862   4.086   4.534   1.211
 3435TIP3   OH231863   0.698   1.309   0.951
 3435TIP3    H131864   0.623   1.256   0.924
 3435TIP3    H231865   0.749   1.252   1.009
 3436TIP3   OH231866   3.534   0.732   0.840
 3436TIP3    H131867   3.506   0.714   0.750
 3436TIP3    H231868   3.593   0.807   0.832
 3437TIP3   OH231869   5.276   0.179   7.239
 3437TIP3    H131870   5.229   0.157   7.159
 3437TIP3    H231871   5.366   0.153   7.223
 3438TIP3   OH231872   2.930   0.929   7.832
 3438TIP3    H131873   2.879   0.855   7.864
 3438TIP3    H231874   3.009   0.890   7.795
 3439TIP3   OH231875   1.573   6.488   6.665
 3439TIP3    H131876   1.491   6.525   6.632
 3439TIP3    H231877   1.626   6.473   6.586
 3440TIP3   OH231878   4.665   4.871   0.688
 3440TIP3    H131879   4.741   4.823   0.654
 3440TIP3    H231880   4.669   4.857   0.782
 3441TIP3   OH231881   6.299   0.211   1.688
 3441TIP3    H131882   6.266   0.155   1.617
 3441TIP3    H231883   6.394   0.202   1.683
 3442TIP3   OH231884   5.072   0.934   6.993
 3442TIP3    H131885   5.149   0.967   6.948
 3442TIP3    H231886   5.102   0.917   7.083
 3443TIP3   OH231887   3.238   5.367   1.367
 3443TIP3    H131888   3.267   5.422   1.294
 3443TIP3    H231889   3.202   5.429   1.431
 3444TIP3   OH231890   6.305   0.341   8.537
 3444TIP3    H131891   6.328   0.404   8.604
 3444TIP3    H231892   6.263   0.269   8.585
 3445TIP3   OH231893   6.176   2.155   7.401
 3445TIP3    H131894   6.200   2.063   7.401
 3445TIP3    H231895   6.255   2.202   7.428
 3446TIP3   OH231896   3.322   4.377   1.413
 3446TIP3    H131897   3.318   4.356   1.506
 3446TIP3    H231898   3.406   4.423   1.402
 3447TIP3   OH231899   1.967   2.593   6.896
 3447TIP3    H131900   1.969   2.645   6.816
 3447TIP3    H231901   1.878   2.558   6.900
 3448TIP3   OH231902   0.345   6.709   1.559
 3448TIP3    H131903   0.437   6.688   1.544
 3448TIP3    H231904   0.300   6.680   1.480
 3449TIP3   OH231905   0.529   3.699   0.185
 3449TIP3    H131906   0.458   3.748   0.144
 3449TIP3    H231907   0.496   3.678   0.272
 3450TIP3   OH231908   3.366   4.870   6.361
 3450TIP3    H131909   3.435   4.822   6.315
 3450TIP3    H231910   3.383   4.962   6.339
 3451TIP3   OH231911   2.427   4.715   7.927
 3451TIP3    H131912   2.397   4.765   8.003
 3451TIP3    H231913   2.400   4.768   7.852
 3452TIP3   OH231914   2.538   1.799   8.005
 3452TIP3    H131915   2.571   1.777   8.092
 3452TIP3    H231916   2.452   1.837   8.020
 3453TIP3   OH231917   2.827   4.786   6.301
 3453TIP3    H131918   2.739   4.811   6.271
 3453TIP3    H231919   2.845   4.845   6.374
 3454TIP3   OH231920   2.038   2.159   0.219
 3454TIP3    H131921   1.956   2.168   0.171
 3454TIP3    H231922   2.052   2.245   0.258
 3455TIP3   OH231923   2.969   3.634   6.475
 3455TIP3    H131924   2.879   3.637   6.509
 3455TIP3    H231925   2.960   3.657   6.382
 3456TIP3   OH231926   1.799   3.929   6.807
 3456TIP3    H131927   1.776   3.857   6.866
 3456TIP3    H231928   1.723   3.937   6.749
 3457TIP3   OH231929   3.118   6.471   6.320
 3457TIP3    H131930   3.058   6.531   6.275
 3457TIP3    H231931   3.063   6.400   6.351
 3458TIP3   OH231932   2.840   5.062   7.741
 3458TIP3    H131933   2.918   5.113   7.761
 3458TIP3    H231934   2.802   5.042   7.826
 3459TIP3   OH231935   1.189   2.562   7.227
 3459TIP3    H131936   1.205   2.470   7.205
 3459TIP3    H231937   1.275   2.603   7.219
 3460TIP3   OH231938   3.327   2.769   1.302
 3460TIP3    H131939   3.357   2.755   1.212
 3460TIP3    H231940   3.273   2.692   1.321
 3461TIP3   OH231941   2.594   3.297   7.695
 3461TIP3    H131942   2.615   3.262   7.781
 3461TIP3    H231943   2.678   3.299   7.649
 3462TIP3   OH231944   5.964   2.678   7.771
 3462TIP3    H131945   5.950   2.650   7.862
 3462TIP3    H231946   5.894   2.636   7.721
 3463TIP3   OH231947   1.552   0.582   1.041
 3463TIP3    H131948   1.647   0.584   1.030
 3463TIP3    H231949   1.537   0.512   1.105
 3464TIP3   OH231950   1.553   1.853   8.656
 3464TIP3    H131951   1.611   1.813   8.591
 3464TIP3    H231952   1.465   1.827   8.629
 3465TIP3   OH231953   4.719   3.222   8.626
 3465TIP3    H131954   4.803   3.200   0.003
 3465TIP3    H231955   4.732   3.310   8.591
 3466TIP3   OH231956   2.499   5.652   0.705
 3466TIP3    H131957   2.411   5.638   0.670
 3466TIP3    H231958   2.487   5.721   0.771
 3467TIP3   OH231959   4.864   6.563   1.308
 3467TIP3    H131960   4.879   6.501   1.379
 3467TIP3    H231961   4.801   6.519   1.251
 3468TIP3   OH231962   4.669   2.871   8.574
 3468TIP3    H131963   4.738   2.807   8.590
 3468TIP3    H231964   4.679   2.896   8.482
 3469TIP3   OH231965   1.073   1.733   7.885
 3469TIP3    H131966   1.047   1.816   7.925
 3469TIP3    H231967   1.135   1.758   7.817
 3470TIP3   OH231968   6.734   1.566   1.382
 3470TIP3    H131969   6.696   1.558   1.295
 3470TIP3    H231970   6.712   1.655   1.410
 3471TIP3   OH231971   3.073   0.607   6.277
 3471TIP3    H131972   3.074   0.511   6.286
 3471TIP3    H231973   3.148   0.636   6.328
 3472TIP3   OH231974   5.578   0.085   6.805
 3472TIP3    H131975   5.506   0.140   6.837
 3472TIP3    H231976   5.655   0.116   6.853
 3473TIP3   OH231977   6.235   1.413   8.283
 3473TIP3    H131978   6.191   1.342   8.330
 3473TIP3    H231979   6.199   1.411   8.195
 3474TIP3   OH231980   4.309   4.551   6.669
 3474TIP3    H131981   4.313   4.458   6.645
 3474TIP3    H231982   4.365   4.594   6.605
 3475TIP3   OH231983   0.189   3.675   8.539
 3475TIP3    H131984   0.248   3.635   8.604
 3475TIP3    H231985   0.156   3.753   8.582
 3476TIP3   OH231986   4.953   2.243   8.133
 3476TIP3    H131987   4.955   2.188   8.211
 3476TIP3    H231988   4.994   2.189   8.064
 3477TIP3   OH231989   0.924   0.044   1.759
 3477TIP3    H131990   0.950   6.839   1.773
 3477TIP3    H231991   0.830   0.040   1.744
 3478TIP3   OH231992   5.118   2.872   1.573
 3478TIP3    H131993   5.159   2.945   1.619
 3478TIP3    H231994   5.142   2.794   1.624
 3479TIP3   OH231995   2.622   2.981   7.627
 3479TIP3    H131996   2.641   3.072   7.606
 3479TIP3    H231997   2.708   2.940   7.636
 3480TIP3   OH231998   1.031   2.804   2.219
 3480TIP3    H131999   1.126   2.808   2.214
 3480TIP3    H232000   1.012   2.713   2.241
 3481TIP3   OH232001   1.469   2.256   1.040
 3481TIP3    H132002   1.488   2.342   1.077
 3481TIP3    H232003   1.391   2.226   1.087
 3482TIP3   OH232004   4.218   5.122   6.736
 3482TIP3    H132005   4.169   5.049   6.699
 3482TIP3    H232006   4.184   5.131   6.825
 3483TIP3   OH232007   1.741   6.054   7.207
 3483TIP3    H132008   1.735   6.116   7.135
 3483TIP3    H232009   1.828   6.068   7.243
 3484TIP3   OH232010   2.292   4.534   7.414
 3484TIP3    H132011   2.218   4.539   7.353
 3484TIP3    H232012   2.253   4.501   7.495
 3485TIP3   OH232013   5.876   1.583   1.832
 3485TIP3    H132014   5.965   1.579   1.797
 3485TIP3    H232015   5.874   1.517   1.901
 3486TIP3   OH232016   3.856   5.125   0.320
 3486TIP3    H132017   3.771   5.164   0.340
 3486TIP3    H232018   3.905   5.134   0.402
 3487TIP3   OH232019   2.001   0.793   1.950
 3487TIP3    H132020   1.982   0.877   1.992
 3487TIP3    H232021   1.979   0.727   2.016
 3488TIP3   OH232022   0.286   5.712   0.308
 3488TIP3    H132023   0.333   5.640   0.350
 3488TIP3    H232024   0.237   5.753   0.380
 3489TIP3   OH232025   6.617   4.606   0.341
 3489TIP3    H132026   6.549   4.635   0.402
 3489TIP3    H232027   6.632   4.682   0.285
 3490TIP3   OH232028   1.866   3.586   6.355
 3490TIP3    H132029   1.853   3.605   6.448
 3490TIP3    H232030   1.936   3.521   6.354
 3491TIP3   OH232031   0.926   4.163   6.989
 3491TIP3    H132032   0.942   4.228   6.921
 3491TIP3    H232033   0.882   4.211   7.059
 3492TIP3   OH232034   4.035   3.552   8.633
 3492TIP3    H132035   3.998   3.586   0.052
 3492TIP3    H232036   3.992   3.604   8.564
 3493TIP3   OH232037   4.458   6.481   2.154
 3493TIP3    H132038   4.524   6.535   2.198
 3493TIP3    H232039   4.495   6.463   2.067
 3494TIP3   OH232040   2.523   3.503   0.147
 3494TIP3    H132041   2.524   3.557   0.225
 3494TIP3    H232042   2.595   3.441   0.159
 3495TIP3   OH232043   1.684   5.934   7.471
 3495TIP3    H132044   1.665   6.007   7.531
 3495TIP3    H232045   1.713   5.977   7.390
 3496TIP3   OH232046   2.889   0.134   8.593
 3496TIP3    H132047   2.901   0.111   0.023
 3496TIP3    H232048   2.824   0.204   8.595
 3497TIP3   OH232049   2.852   3.049   2.128
 3497TIP3    H132050   2.814   3.123   2.080
 3497TIP3    H232051   2.823   3.060   2.218
 3498TIP3   OH232052   1.613   2.317   1.666
 3498TIP3    H132053   1.694   2.330   1.616
 3498TIP3    H232054   1.619   2.382   1.737
 3499TIP3   OH232055   0.280   1.043   1.737
 3499TIP3    H132056   0.369   1.030   1.706
 3499TIP3    H232057   0.244   1.112   1.681
 3500TIP3   OH232058   0.314   0.880   8.549
 3500TIP3    H132059   0.249   0.935   8.592
 3500TIP3    H232060   0.360   0.939   8.489
 3501TIP3   OH232061   4.268   4.684   0.189
 3501TIP3    H132062   4.284   4.597   0.152
 3501TIP3    H232063   4.174   4.697   0.180
 3502TIP3   OH232064   0.971   6.751   7.899
 3502TIP3    H132065   0.947   6.674   7.848
 3502TIP3    H232066   0.998   6.816   7.834
 3503TIP3   OH232067   2.928   5.382   6.306
 3503TIP3    H132068   2.987   5.324   6.259
 3503TIP3    H232069   2.852   5.390   6.249
 3504TIP3   OH232070   4.461   3.707   1.451
 3504TIP3    H132071   4.371   3.707   1.419
 3504TIP3    H232072   4.502   3.630   1.411
 3505TIP3   OH232073   3.348   4.670   0.135
 3505TIP3    H132074   3.353   4.730   0.208
 3505TIP3    H232075   3.286   4.602   0.164
 3506TIP3   OH232076   3.449   2.003   1.927
 3506TIP3    H132077   3.477   2.081   1.975
 3506TIP3    H232078   3.502   1.932   1.963
 3507TIP3   OH232079   0.096   3.641   0.844
 3507TIP3    H132080   0.047   3.637   0.762
 3507TIP3    H232081   0.185   3.666   0.818
 3508TIP3   OH232082   6.224   1.527   0.277
 3508TIP3    H132083   6.282   1.509   0.203
 3508TIP3    H232084   6.274   1.588   0.331
 3509TIP3   OH232085   5.117   5.787   0.375
 3509TIP3    H132086   5.087   5.732   0.447
 3509TIP3    H232087   5.121   5.875   0.412
 3510TIP3   OH232088   4.848   0.978   1.965
 3510TIP3    H132089   4.821   1.068   1.946
 3510TIP3    H232090   4.943   0.978   1.952
 3511TIP3   OH232091   2.894   2.871   1.558
 3511TIP3    H132092   2.818   2.821   1.526
 3511TIP3    H232093   2.907   2.841   1.648
 3512TIP3   OH232094   0.825   2.160   0.031
 3512TIP3    H132095   0.884   2.229   0.062
 3512TIP3    H232096   0.737   2.195   0.047
 3513TIP3   OH232097   0.068   2.574   0.243
 3513TIP3    H132098   0.150   2.527   0.260
 3513TIP3    H232099   0.045   2.613   0.327
 3514TIP3   OH232100   4.831   5.572   6.500
 3514TIP3    H132101   4.911   5.583   6.449
 3514TIP3    H232102   4.823   5.652   6.551
 3515TIP3   OH232103   0.123   5.029   1.091
 3515TIP3    H132104   0.070   4.953   1.115
 3515TIP3    H232105   0.131   5.078   1.173
 3516TIP3   OH232106   0.879   5.843   7.700
 3516TIP3    H132107   0.919   5.782   7.639
 3516TIP3    H232108   0.832   5.905   7.645
 3517TIP3   OH232109   4.421   2.966   7.112
 3517TIP3    H132110   4.384   2.912   7.181
 3517TIP3    H232111   4.447   2.904   7.044
 3518TIP3   OH232112   4.634   3.510   0.124
 3518TIP3    H132113   4.637   3.456   0.204
 3518TIP3    H232114   4.556   3.564   0.135
 3519TIP3   OH232115   3.609   4.664   2.364
 3519TIP3    H132116   3.684   4.604   2.365
 3519TIP3    H232117   3.554   4.634   2.436
 3520TIP3   OH232118   0.192   0.328   1.837
 3520TIP3    H132119   0.176   0.417   1.807
 3520TIP3    H232120   0.150   0.324   1.923
 3521TIP3   OH232121   5.620   1.753   1.326
 3521TIP3    H132122   5.650   1.779   1.239
 3521TIP3    H232123   5.700   1.737   1.375
 3522TIP3   OH232124   1.176   3.081   0.532
 3522TIP3    H132125   1.269   3.068   0.510
 3522TIP3    H232126   1.176   3.096   0.626
 3523TIP3   OH232127   2.331   3.316   6.336
 3523TIP3    H132128   2.366   3.300   6.423
 3523TIP3    H232129   2.399   3.286   6.276
 3524TIP3   OH232130   6.165   1.517   2.008
 3524TIP3    H132131   6.109   1.475   2.073
 3524TIP3    H232132   6.179   1.605   2.042
 3525TIP3   OH232133   2.506   6.531   1.145
 3525TIP3    H132134   2.558   6.595   1.194
 3525TIP3    H232135   2.520   6.448   1.191
 3526TIP3   OH232136   6.583   0.329   6.999
 3526TIP3    H132137   6.634   0.252   6.974
 3526TIP3    H232138   6.637   0.403   6.970
 3527TIP3   OH232139   1.421   0.561   8.061
 3527TIP3    H132140   1.491   0.552   8.127
 3527TIP3    H232141   1.465   0.600   7.985
 3528TIP3   OH232142   4.049   0.484   7.288
 3528TIP3    H132143   4.004   0.550   7.235
 3528TIP3    H232144   4.118   0.532   7.333
 3529TIP3   OH232145   5.357   5.570   0.815
 3529TIP3    H132146   5.277   5.532   0.853
 3529TIP3    H232147   5.416   5.580   0.889
 3530TIP3   OH232148   4.035   5.796   1.241
 3530TIP3    H132149   4.087   5.869   1.275
 3530TIP3    H232150   4.096   5.723   1.235
 3531TIP3   OH232151   2.041   5.202   2.290
 3531TIP3    H132152   2.129   5.231   2.264
 3531TIP3    H232153   1.988   5.281   2.286
 3532TIP3   OH232154   3.696   4.571   0.258
 3532TIP3    H132155   3.748   4.580   0.338
 3532TIP3    H232156   3.645   4.651   0.253
 3533TIP3   OH232157   1.669   2.080   0.493
 3533TIP3    H132158   1.719   2.153   0.456
 3533TIP3    H232159   1.711   2.063   0.577
 3534TIP3   OH232160   6.358   3.749   6.962
 3534TIP3    H132161   6.436   3.794   6.931
 3534TIP3    H232162   6.286   3.788   6.912
 3535TIP3   OH232163   1.627   0.380   7.913
 3535TIP3    H132164   1.585   0.309   7.962
 3535TIP3    H232165   1.655   0.339   7.832
 3536TIP3   OH232166   6.578   0.495   7.506
 3536TIP3    H132167   6.568   0.401   7.524
 3536TIP3    H232168   6.566   0.502   7.411
 3537TIP3   OH232169   0.774   4.313   6.097
 3537TIP3    H132170   0.840   4.370   6.136
 3537TIP3    H232171   0.690   4.351   6.123
 3538TIP3   OH232172   3.046   1.939   0.520
 3538TIP3    H132173   2.986   2.014   0.520
 3538TIP3    H232174   3.064   1.922   0.612
 3539TIP3   OH232175   5.401   1.292   6.425
 3539TIP3    H132176   5.351   1.218   6.391
 3539TIP3    H232177   5.342   1.366   6.417
 3540TIP3   OH232178   0.983   5.928   0.811
 3540TIP3    H132179   0.947   5.866   0.747
 3540TIP3    H232180   1.043   5.875   0.864
 3541TIP3   OH232181   0.909   5.394   8.623
 3541TIP3    H132182   0.846   5.336   8.580
 3541TIP3    H232183   0.856   5.448   0.020
 3542TIP3   OH232184   6.749   0.706   0.063
 3542TIP3    H132185   6.687   0.745   0.001
 3542TIP3    H232186   6.821   0.770   0.068
 3543TIP3   OH232187   5.819   3.729   7.115
 3543TIP3    H132188   5.848   3.734   7.205
 3543TIP3    H232189   5.726   3.707   7.121
 3544TIP3   OH232190   1.530   6.699   1.841
 3544TIP3    H132191   1.544   6.792   1.853
 3544TIP3    H232192   1.551   6.660   1.926
 3545TIP3   OH232193   4.020   0.398   1.075
 3545TIP3    H132194   4.048   0.478   1.030
 3545TIP3    H232195   3.957   0.429   1.141
 3546TIP3   OH232196   1.681   5.150   2.089
 3546TIP3    H132197   1.652   5.067   2.051
 3546TIP3    H232198   1.763   5.170   2.044
 3547TIP3   OH232199   4.664   2.781   0.449
 3547TIP3    H132200   4.588   2.772   0.391
 3547TIP3    H232201   4.675   2.876   0.459
 3548TIP3   OH232202   3.859   1.164   1.936
 3548TIP3    H132203   3.815   1.175   1.852
 3548TIP3    H232204   3.922   1.236   1.940
 3549TIP3   OH232205   2.577   5.626   8.194
 3549TIP3    H132206   2.603   5.535   8.207
 3549TIP3    H232207   2.513   5.622   8.123
 3550TIP3   OH232208   4.039   6.640   0.548
 3550TIP3    H132209   3.990   6.629   0.630
 3550TIP3    H232210   4.005   6.722   0.512
 3551TIP3   OH232211   2.840   3.936   7.223
 3551TIP3    H132212   2.897   3.898   7.156
 3551TIP3    H232213   2.791   3.861   7.257
 3552TIP3   OH232214   6.460   1.990   7.610
 3552TIP3    H132215   6.384   1.959   7.561
 3552TIP3    H232216   6.475   1.923   7.677
 3553TIP3   OH232217   0.728   0.412   1.569
 3553TIP3    H132218   0.794   0.460   1.619
 3553TIP3    H232219   0.736   0.446   1.479
 3554TIP3   OH232220   3.872   2.803   8.497
 3554TIP3    H132221   3.778   2.813   8.487
 3554TIP3    H232222   3.908   2.890   8.482
 3555TIP3   OH232223   1.097   1.639   7.191
 3555TIP3    H132224   1.037   1.569   7.218
 3555TIP3    H232225   1.173   1.628   7.247
 3556TIP3   OH232226   4.358   0.050   0.915
 3556TIP3    H132227   4.393   0.132   0.882
 3556TIP3    H232228   4.388   0.046   1.006
 3557TIP3   OH232229   5.566   3.297   0.433
 3557TIP3    H132230   5.533   3.383   0.407
 3557TIP3    H232231   5.510   3.271   0.507
 3558TIP3   OH232232   1.480   2.975   0.909
 3558TIP3    H132233   1.426   2.941   0.980
 3558TIP3    H232234   1.429   3.048   0.874
 3559TIP3   OH232235   6.743   5.689   7.139
 3559TIP3    H132236   6.742   5.594   7.149
 3559TIP3    H232237   6.813   5.705   7.075
 3560TIP3   OH232238   5.270   1.011   6.573
 3560TIP3    H132239   5.182   1.026   6.539
 3560TIP3    H232240   5.281   0.916   6.569
 3561TIP3   OH232241   3.660   1.899   1.283
 3561TIP3    H132242   3.588   1.935   1.335
 3561TIP3    H232243   3.731   1.885   1.346
 3562TIP3   OH232244   0.139   3.678   7.048
 3562TIP3    H132245   0.045   3.691   7.057
 3562TIP3    H232246   0.168   3.753   6.996
 3563TIP3   OH232247   4.064   5.788   2.318
 3563TIP3    H132248   4.143   5.842   2.308
 3563TIP3    H232249   3.999   5.849   2.353
 3564TIP3   OH232250   3.691   3.036   8.534
 3564TIP3    H132251   3.707   3.128   8.551
 3564TIP3    H232252   3.636   3.007   8.607
 3565TIP3   OH232253   5.510   2.040   0.180
 3565TIP3    H132254   5.414   2.043   0.175
 3565TIP3    H232255   5.540   2.083   0.100
 3566TIP3   OH232256   3.302   6.168   7.466
 3566TIP3    H132257   3.290   6.247   7.413
 3566TIP3    H232258   3.278   6.096   7.407
 3567TIP3   OH232259   5.562   5.413   0.995
 3567TIP3    H132260   5.561   5.400   0.900
 3567TIP3    H232261   5.580   5.326   1.031
 3568TIP3   OH232262   6.574   1.784   6.791
 3568TIP3    H132263   6.569   1.856   6.728
 3568TIP3    H232264   6.526   1.816   6.868
 3569TIP3   OH232265   5.747   6.226   2.088
 3569TIP3    H132266   5.803   6.233   2.165
 3569TIP3    H232267   5.658   6.242   2.121
 3570TIP3   OH232268   4.118   2.861   7.632
 3570TIP3    H132269   4.175   2.805   7.684
 3570TIP3    H232270   4.052   2.802   7.596
 3571TIP3   OH232271   0.783   1.802   8.071
 3571TIP3    H132272   0.697   1.840   8.088
 3571TIP3    H232273   0.763   1.714   8.037
 3572TIP3   OH232274   0.969   1.757   1.860
 3572TIP3    H132275   0.892   1.759   1.916
 3572TIP3    H232276   1.022   1.685   1.894
 3573TIP3   OH232277   1.553   4.790   7.641
 3573TIP3    H132278   1.600   4.854   7.588
 3573TIP3    H232279   1.492   4.749   7.580
 3574TIP3   OH232280   4.671   0.718   0.649
 3574TIP3    H132281   4.682   0.802   0.605
 3574TIP3    H232282   4.757   0.676   0.643
 3575TIP3   OH232283   5.925   3.423   1.322
 3575TIP3    H132284   5.890   3.334   1.314
 3575TIP3    H232285   5.923   3.442   1.416
 3576TIP3   OH232286   6.794   4.420   6.966
 3576TIP3    H132287   6.741   4.500   6.956
 3576TIP3    H232288   6.745   4.353   6.917
 3577TIP3   OH232289   3.922   2.432   8.320
 3577TIP3    H132290   3.854   2.365   8.320
 3577TIP3    H232291   4.003   2.384   8.304
 3578TIP3   OH232292   0.457   6.695   7.240
 3578TIP3    H132293   0.463   6.637   7.164
 3578TIP3    H232294   0.365   6.695   7.264
 3579TIP3   OH232295   1.285   1.100   1.241
 3579TIP3    H132296   1.193   1.114   1.221
 3579TIP3    H232297   1.332   1.151   1.175
 3580TIP3   OH232298   6.756   3.602   0.686
 3580TIP3    H132299   6.745   3.530   0.624
 3580TIP3    H232300   6.720   3.569   0.768
 3581TIP3   OH232301   0.529   6.311   1.404
 3581TIP3    H132302   0.576   6.339   1.326
 3581TIP3    H232303   0.437   6.308   1.377
 3582TIP3   OH232304   5.093   0.782   0.691
 3582TIP3    H132305   5.098   0.755   0.600
 3582TIP3    H232306   5.180   0.763   0.726
 3583TIP3   OH232307   2.566   3.034   0.358
 3583TIP3    H132308   2.635   2.991   0.307
 3583TIP3    H232309   2.527   2.963   0.410
 3584TIP3   OH232310   6.764   4.046   2.096
 3584TIP3    H132311   6.716   4.129   2.106
 3584TIP3    H232312   6.696   3.979   2.095
 3585TIP3   OH232313   2.289   2.815   0.768
 3585TIP3    H132314   2.248   2.739   0.811
 3585TIP3    H232315   2.220   2.882   0.767
 3586TIP3   OH232316   3.759   4.765   8.627
 3586TIP3    H132317   3.673   4.783   8.589
 3586TIP3    H232318   3.741   4.751   0.058
 3587TIP3   OH232319   4.560   1.833   0.226
 3587TIP3    H132320   4.499   1.904   0.248
 3587TIP3    H232321   4.549   1.770   0.297
 3588TIP3   OH232322   6.361   0.334   1.954
 3588TIP3    H132323   6.419   0.397   1.997
 3588TIP3    H232324   6.407   0.250   1.961
 3589TIP3   OH232325   4.134   4.110   8.113
 3589TIP3    H132326   4.134   4.116   8.208
 3589TIP3    H232327   4.086   4.188   8.084
 3590TIP3   OH232328   1.665   5.491   8.637
 3590TIP3    H132329   1.733   5.424   8.644
 3590TIP3    H232330   1.618   5.470   8.557
 3591TIP3   OH232331   5.823   5.565   6.853
 3591TIP3    H132332   5.741   5.612   6.865
 3591TIP3    H232333   5.814   5.486   6.906
 3592TIP3   OH232334   1.150   1.389   7.960
 3592TIP3    H132335   1.070   1.410   8.007
 3592TIP3    H232336   1.215   1.450   7.994
 3593TIP3   OH232337   0.550   1.316   0.184
 3593TIP3    H132338   0.619   1.275   0.132
 3593TIP3    H232339   0.473   1.314   0.127
 3594TIP3   OH232340   6.381   4.714   0.438
 3594TIP3    H132341   6.363   4.772   0.364
 3594TIP3    H232342   6.298   4.709   0.485
 3595TIP3   OH232343   4.019   6.512   1.057
 3595TIP3    H132344   4.085   6.569   1.019
 3595TIP3    H232345   4.002   6.447   0.989
 3596TIP3   OH232346   5.481   4.894   1.443
 3596TIP3    H132347   5.435   4.873   1.362
 3596TIP3    H232348   5.564   4.847   1.436
 3597TIP3   OH232349   6.817   5.428   6.768
 3597TIP3    H132350   6.801   5.393   6.681
 3597TIP3    H232351   6.835   5.351   6.822
 3598TIP3   OH232352   0.707   2.902   2.188
 3598TIP3    H132353   0.660   2.985   2.195
 3598TIP3    H232354   0.639   2.836   2.203
 3599TIP3   OH232355   0.880   3.751   1.832
 3599TIP3    H132356   0.964   3.759   1.787
 3599TIP3    H232357   0.852   3.661   1.814
 3600TIP3   OH232358   4.695   6.742   0.942
 3600TIP3    H132359   4.657   6.762   1.028
 3600TIP3    H232360   4.620   6.735   0.884
 3601TIP3   OH232361   5.137   5.322   7.479
 3601TIP3    H132362   5.042   5.316   7.494
 3601TIP3    H232363   5.176   5.277   7.553
 3602TIP3   OH232364   3.882   2.587   8.076
 3602TIP3    H132365   3.837   2.528   8.015
 3602TIP3    H232366   3.894   2.534   8.155
 3603TIP3   OH232367   6.051   0.940   0.888
 3603TIP3    H132368   6.100   1.009   0.843
 3603TIP3    H232369   6.079   0.947   0.979
 3604TIP3   OH232370   6.775   3.500   7.530
 3604TIP3    H132371   6.807   3.537   7.612
 3604TIP3    H232372   6.850   3.451   7.495
 3605TIP3   OH232373   2.667   2.117   8.101
 3605TIP3    H132374   2.705   2.202   8.078
 3605TIP3    H232375   2.573   2.134   8.107
 3606TIP3   OH232376   6.553   3.786   8.270
 3606TIP3    H132377   6.509   3.702   8.279
 3606TIP3    H232378   6.490   3.841   8.223
 3607TIP3   OH232379   2.751   2.007   0.407
 3607TIP3    H132380   2.673   1.952   0.396
 3607TIP3    H232381   2.823   1.952   0.377
 3608TIP3   OH232382   2.483   2.347   7.953
 3608TIP3    H132383   2.450   2.289   7.884
 3608TIP3    H232384   2.504   2.429   7.908
 3609TIP3   OH232385   4.897   1.674   7.222
 3609TIP3    H132386   4.954   1.597   7.230
 3609TIP3    H232387   4.876   1.679   7.129
 3610TIP3   OH232388   2.946   4.815   8.046
 3610TIP3    H132389   3.000   4.867   7.986
 3610TIP3    H232390   2.865   4.799   7.997
 3611TIP3   OH232391   2.745   5.117   1.498
 3611TIP3    H132392   2.662   5.097   1.453
 3611TIP3    H232393   2.809   5.062   1.453
 3612TIP3   OH232394   0.288   4.924   0.454
 3612TIP3    H132395   0.263   4.835   0.432
 3612TIP3    H232396   0.371   4.914   0.501
 3613TIP3   OH232397   5.672   2.939   8.653
 3613TIP3    H132398   5.582   2.933   0.023
 3613TIP3    H232399   5.663   2.975   8.564
 3614TIP3   OH232400   6.324   4.704   7.966
 3614TIP3    H132401   6.275   4.775   8.007
 3614TIP3    H232402   6.413   4.713   8.002
 3615TIP3   OH232403   2.156   1.313   1.320
 3615TIP3    H132404   2.212   1.237   1.311
 3615TIP3    H232405   2.069   1.282   1.297
 3616TIP3   OH232406   3.271   0.593   0.635
 3616TIP3    H132407   3.361   0.625   0.631
 3616TIP3    H232408   3.222   0.661   0.681
 3617TIP3   OH232409   2.590   0.933   1.382
 3617TIP3    H132410   2.559   0.890   1.303
 3617TIP3    H232411   2.583   0.866   1.450
 3618TIP3   OH232412   1.686   0.755   0.189
 3618TIP3    H132413   1.741   0.730   0.264
 3618TIP3    H232414   1.733   0.720   0.113
 3619TIP3   OH232415   1.471   1.956   0.372
 3619TIP3    H132416   1.539   2.009   0.413
 3619TIP3    H232417   1.398   1.958   0.434
 3620TIP3   OH232418   1.595   0.506   0.787
 3620TIP3    H132419   1.563   0.531   0.873
 3620TIP3    H232420   1.657   0.435   0.803
 3621TIP3   OH232421   2.752   2.270   0.292
 3621TIP3    H132422   2.804   2.307   0.363
 3621TIP3    H232423   2.758   2.175   0.306
 3622TIP3   OH232424   2.759   0.023   7.173
 3622TIP3    H132425   2.715   0.034   7.257
 3622TIP3    H232426   2.807   0.104   7.160
 3623TIP3   OH232427   3.236   4.458   6.985
 3623TIP3    H132428   3.320   4.460   7.031
 3623TIP3    H232429   3.178   4.512   7.039
 3624TIP3   OH232430   3.279   6.609   7.360
 3624TIP3    H132431   3.187   6.601   7.336
 3624TIP3    H232432   3.297   6.703   7.355
 3625TIP3   OH232433   4.280   2.606   0.412
 3625TIP3    H132434   4.334   2.528   0.400
 3625TIP3    H232435   4.225   2.610   0.334
 3626TIP3   OH232436   2.773   6.495   8.153
 3626TIP3    H132437   2.701   6.438   8.126
 3626TIP3    H232438   2.852   6.448   8.124
 3627TIP3   OH232439   2.208   3.785   0.649
 3627TIP3    H132440   2.222   3.879   0.657
 3627TIP3    H232441   2.124   3.770   0.694
 3628TIP3   OH232442   4.186   0.459   0.275
 3628TIP3    H132443   4.119   0.514   0.316
 3628TIP3    H232444   4.160   0.369   0.296
 3629TIP3   OH232445   2.994   4.528   8.133
 3629TIP3    H132446   2.929   4.491   8.074
 3629TIP3    H232447   3.008   4.617   8.100
 3630TIP3   OH232448   5.763   6.609   0.566
 3630TIP3    H132449   5.836   6.630   0.624
 3630TIP3    H232450   5.695   6.672   0.589
 3631TIP3   OH232451   4.507   0.091   0.054
 3631TIP3    H132452   4.492   0.161   8.653
 3631TIP3    H232453   4.420   0.051   0.065
 3632TIP3   OH232454   3.038   2.421   0.531
 3632TIP3    H132455   2.954   2.466   0.519
 3632TIP3    H232456   3.096   2.461   0.466
 3633TIP3   OH232457   3.698   4.389   6.222
 3633TIP3    H132458   3.779   4.372   6.173
 3633TIP3    H232459   3.704   4.482   6.245
 3634TIP3   OH232460   2.881   2.760   8.491
 3634TIP3    H132461   2.919   2.815   8.421
 3634TIP3    H232462   2.790   2.747   8.465
 3635TIP3   OH232463   6.522   2.222   7.441
 3635TIP3    H132464   6.440   2.268   7.462
 3635TIP3    H232465   6.533   2.158   7.512
 3636TIP3   OH232466   4.893   6.272   5.896
 3636TIP3    H132467   4.873   6.244   5.985
 3636TIP3    H232468   4.889   6.192   5.844
 3637TIP3   OH232469   3.393   3.068   1.713
 3637TIP3    H132470   3.414   2.977   1.693
 3637TIP3    H232471   3.300   3.077   1.690
 3638TIP3   OH232472   3.153   2.949   1.568
 3638TIP3    H132473   3.144   2.885   1.638
 3638TIP3    H232474   3.067   2.950   1.525
 3639TIP3   OH232475   0.696   2.282   7.258
 3639TIP3    H132476   0.680   2.376   7.253
 3639TIP3    H232477   0.791   2.274   7.254
 3640TIP3   OH232478   1.864   0.384   1.479
 3640TIP3    H132479   1.798   0.393   1.547
 3640TIP3    H232480   1.911   0.304   1.502
 3641TIP3   OH232481   3.915   2.740   0.459
 3641TIP3    H132482   3.910   2.795   0.381
 3641TIP3    H232483   4.006   2.748   0.489
 3642TIP3   OH232484   1.305   0.830   1.173
 3642TIP3    H132485   1.227   0.815   1.228
 3642TIP3    H232486   1.326   0.922   1.186
 3643TIP3   OH232487   3.185   2.740   0.389
 3643TIP3    H132488   3.212   2.792   0.313
 3643TIP3    H232489   3.111   2.689   0.357
 3644TIP3   OH232490   4.775   3.756   1.230
 3644TIP3    H132491   4.860   3.741   1.189
 3644TIP3    H232492   4.764   3.681   1.289
 3645TIP3   OH232493   4.469   0.506   7.793
 3645TIP3    H132494   4.517   0.491   7.874
 3645TIP3    H232495   4.416   0.584   7.811
 3646TIP3   OH232496   1.923   0.123   8.442
 3646TIP3    H132497   1.838   0.158   8.417
 3646TIP3    H232498   1.960   0.090   8.360
 3647TIP3   OH232499   5.470   2.498   1.687
 3647TIP3    H132500   5.562   2.497   1.662
 3647TIP3    H232501   5.423   2.509   1.603
 3648TIP3   OH232502   0.622   5.054   0.008
 3648TIP3    H132503   0.622   4.960   8.653
 3648TIP3    H232504   0.541   5.086   8.631
 3649TIP3   OH232505   2.931   0.216   1.482
 3649TIP3    H132506   3.016   0.258   1.470
 3649TIP3    H232507   2.894   0.258   1.560
 3650TIP3   OH232508   0.913   5.702   7.450
 3650TIP3    H132509   0.878   5.739   7.368
 3650TIP3    H232510   0.858   5.626   7.467
 3651TIP3   OH232511   5.888   1.393   7.427
 3651TIP3    H132512   5.877   1.309   7.384
 3651TIP3    H232513   5.875   1.374   7.520
 3652TIP3   OH232514   4.850   1.438   1.046
 3652TIP3    H132515   4.827   1.362   1.100
 3652TIP3    H232516   4.771   1.493   1.049
 3653TIP3   OH232517   5.996   2.532   6.453
 3653TIP3    H132518   5.901   2.522   6.453
 3653TIP3    H232519   6.011   2.626   6.446
 3654TIP3   OH232520   0.117   1.346   6.530
 3654TIP3    H132521   0.126   1.396   6.449
 3654TIP3    H232522   0.173   1.270   6.518
 3655TIP3   OH232523   4.191   3.999   0.915
 3655TIP3    H132524   4.154   3.911   0.925
 3655TIP3    H232525   4.122   4.048   0.869
 3656TIP3   OH232526   4.235   3.874   6.856
 3656TIP3    H132527   4.280   3.813   6.798
 3656TIP3    H232528   4.172   3.919   6.800
 3657TIP3   OH232529   1.777   6.149   1.157
 3657TIP3    H132530   1.825   6.204   1.219
 3657TIP3    H232531   1.690   6.141   1.195
 3658TIP3   OH232532   1.434   5.350   0.731
 3658TIP3    H132533   1.404   5.364   0.641
 3658TIP3    H232534   1.499   5.418   0.745
 3659TIP3   OH232535   2.305   3.371   8.648
 3659TIP3    H132536   2.289   3.399   8.558
 3659TIP3    H232537   2.371   3.432   0.019
 3660TIP3   OH232538   5.822   1.428   0.078
 3660TIP3    H132539   5.900   1.408   0.026
 3660TIP3    H232540   5.805   1.348   0.127
 3661TIP3   OH232541   4.299   4.975   0.110
 3661TIP3    H132542   4.229   4.997   0.172
 3661TIP3    H232543   4.259   4.910   0.052
 3662TIP3   OH232544   4.806   0.306   6.019
 3662TIP3    H132545   4.826   0.212   6.011
 3662TIP3    H232546   4.883   0.342   6.064
 3663TIP3   OH232547   6.680   0.694   2.446
 3663TIP3    H132548   6.707   0.712   2.356
 3663TIP3    H232549   6.692   0.600   2.456
 3664TIP3   OH232550   0.624   6.615   1.464
 3664TIP3    H132551   0.640   6.617   1.370
 3664TIP3    H232552   0.657   6.699   1.496
 3665TIP3   OH232553   2.795   4.207   7.169
 3665TIP3    H132554   2.873   4.243   7.128
 3665TIP3    H232555   2.812   4.113   7.175
 3666TIP3   OH232556   1.081   3.995   8.262
 3666TIP3    H132557   1.146   3.946   8.311
 3666TIP3    H232558   0.997   3.957   8.287
 3667TIP3   OH232559   2.282   6.343   0.818
 3667TIP3    H132560   2.290   6.352   0.723
 3667TIP3    H232561   2.190   6.320   0.832
 3668TIP3   OH232562   1.950   6.566   6.975
 3668TIP3    H132563   1.894   6.518   6.914
 3668TIP3    H232564   1.991   6.498   7.029
 3669TIP3   OH232565   0.257   0.387   7.197
 3669TIP3    H132566   0.344   0.349   7.206
 3669TIP3    H232567   0.232   0.413   7.286
 3670TIP3   OH232568   0.971   2.925   7.839
 3670TIP3    H132569   0.991   3.016   7.817
 3670TIP3    H232570   1.018   2.909   7.921
 3671TIP3   OH232571   2.734   6.576   1.531
 3671TIP3    H132572   2.656   6.619   1.495
 3671TIP3    H232573   2.792   6.648   1.555
 3672TIP3   OH232574   2.046   2.378   6.196
 3672TIP3    H132575   2.133   2.403   6.226
 3672TIP3    H232576   1.987   2.444   6.233
 3673TIP3   OH232577   1.693   6.112   1.799
 3673TIP3    H132578   1.673   6.021   1.823
 3673TIP3    H232579   1.621   6.162   1.839
 3674TIP3   OH232580   3.597   0.778   2.196
 3674TIP3    H132581   3.590   0.868   2.162
 3674TIP3    H232582   3.681   0.776   2.242
 3675TIP3   OH232583   4.558   0.824   8.436
 3675TIP3    H132584   4.654   0.820   8.440
 3675TIP3    H232585   4.534   0.891   8.500
 3676TIP3   OH232586   5.011   5.143   0.866
 3676TIP3    H132587   4.928   5.109   0.900
 3676TIP3    H232588   5.064   5.065   0.849
 3677TIP3   OH232589   4.080   0.520   8.399
 3677TIP3    H132590   4.061   0.609   8.367
 3677TIP3    H232591   4.159   0.530   8.452
 3678TIP3   OH232592   6.005   4.635   1.721
 3678TIP3    H132593   6.032   4.563   1.778
 3678TIP3    H232594   5.953   4.693   1.778
 3679TIP3   OH232595   5.508   3.232   0.177
 3679TIP3    H132596   5.596   3.238   0.139
 3679TIP3    H232597   5.524   3.235   0.272
 3680TIP3   OH232598   5.830   6.344   1.637
 3680TIP3    H132599   5.802   6.296   1.715
 3680TIP3    H232600   5.796   6.293   1.564
 3681TIP3   OH232601   4.151   5.356   1.108
 3681TIP3    H132602   4.128   5.268   1.136
 3681TIP3    H232603   4.154   5.351   1.012
 3682TIP3   OH232604   5.142   2.867   7.008
 3682TIP3    H132605   5.133   2.861   6.913
 3682TIP3    H232606   5.224   2.821   7.028
 3683TIP3   OH232607   0.742   4.292   0.852
 3683TIP3    H132608   0.659   4.340   0.844
 3683TIP3    H232609   0.717   4.200   0.859
 3684TIP3   OH232610   0.227   6.650   7.438
 3684TIP3    H132611   0.256   6.563   7.412
 3684TIP3    H232612   0.132   6.648   7.425
 3685TIP3   OH232613   2.392   6.731   0.631
 3685TIP3    H132614   2.389   6.708   0.724
 3685TIP3    H232615   2.300   6.746   0.607
 3686TIP3   OH232616   2.636   6.293   6.569
 3686TIP3    H132617   2.639   6.217   6.627
 3686TIP3    H232618   2.549   6.331   6.582
 3687TIP3   OH232619   3.799   4.132   0.746
 3687TIP3    H132620   3.827   4.045   0.777
 3687TIP3    H232621   3.880   4.182   0.740
 3688TIP3   OH232622   3.136   1.285   1.903
 3688TIP3    H132623   3.138   1.195   1.872
 3688TIP3    H232624   3.227   1.313   1.903
 3689TIP3   OH232625   2.638   1.545   6.560
 3689TIP3    H132626   2.634   1.640   6.567
 3689TIP3    H232627   2.689   1.517   6.636
 3690TIP3   OH232628   6.103   2.892   1.467
 3690TIP3    H132629   6.036   2.834   1.432
 3690TIP3    H232630   6.128   2.947   1.392
 3691TIP3   OH232631   4.773   4.527   1.044
 3691TIP3    H132632   4.743   4.442   1.076
 3691TIP3    H232633   4.864   4.533   1.072
 3692TIP3   OH232634   2.693   1.207   8.353
 3692TIP3    H132635   2.626   1.232   8.417
 3692TIP3    H232636   2.766   1.174   8.406
 3693TIP3   OH232637   1.332   2.479   0.097
 3693TIP3    H132638   1.313   2.570   0.071
 3693TIP3    H232639   1.368   2.487   0.185
 3694TIP3   OH232640   2.353   4.711   1.153
 3694TIP3    H132641   2.270   4.731   1.197
 3694TIP3    H232642   2.342   4.622   1.121
 3695TIP3   OH232643   4.235   6.575   0.157
 3695TIP3    H132644   4.248   6.573   0.251
 3695TIP3    H232645   4.252   6.486   0.128
 3696TIP3   OH232646   4.447   3.911   7.507
 3696TIP3    H132647   4.411   3.981   7.452
 3696TIP3    H232648   4.490   3.852   7.445
 3697TIP3   OH232649   5.823   4.421   7.883
 3697TIP3    H132650   5.844   4.331   7.860
 3697TIP3    H232651   5.904   4.457   7.917
 3698TIP3   OH232652   2.411   6.450   6.593
 3698TIP3    H132653   2.430   6.481   6.504
 3698TIP3    H232654   2.325   6.409   6.586
 3699TIP3   OH232655   3.449   1.672   1.926
 3699TIP3    H132656   3.467   1.677   1.832
 3699TIP3    H232657   3.353   1.678   1.932
 3700TIP3   OH232658   1.192   0.933   7.650
 3700TIP3    H132659   1.155   0.989   7.718
 3700TIP3    H232660   1.152   0.964   7.569
 3701TIP3   OH232661   2.131   1.736   1.956
 3701TIP3    H132662   2.088   1.819   1.977
 3701TIP3    H232663   2.210   1.735   2.010
 3702TIP3   OH232664   2.281   5.285   8.314
 3702TIP3    H132665   2.291   5.228   8.390
 3702TIP3    H232666   2.237   5.231   8.249
 3703TIP3   OH232667   6.246   2.569   0.588
 3703TIP3    H132668   6.233   2.538   0.678
 3703TIP3    H232669   6.235   2.664   0.595
 3704TIP3   OH232670   3.696   0.582   8.315
 3704TIP3    H132671   3.701   0.556   8.407
 3704TIP3    H232672   3.603   0.600   8.300
 3705TIP3   OH232673   5.260   3.277   8.599
 3705TIP3    H132674   5.289   3.246   8.513
 3705TIP3    H232675   5.338   3.270   8.655
 3706TIP3   OH232676   0.392   0.131   7.838
 3706TIP3    H132677   0.427   0.146   7.750
 3706TIP3    H232678   0.365   0.039   7.839
 3707TIP3   OH232679   1.962   5.736   7.012
 3707TIP3    H132680   1.892   5.770   6.956
 3707TIP3    H232681   1.918   5.679   7.074
 3708TIP3   OH232682   5.228   6.847   0.984
 3708TIP3    H132683   5.167   6.823   1.054
 3708TIP3    H232684   5.289   0.022   1.025
 3709TIP3   OH232685   1.595   4.301   6.337
 3709TIP3    H132686   1.519   4.357   6.352
 3709TIP3    H232687   1.559   4.218   6.307
 3710TIP3   OH232688   1.939   1.072   1.576
 3710TIP3    H132689   1.858   1.116   1.600
 3710TIP3    H232690   2.008   1.134   1.598
 3711TIP3   OH232691   6.754   4.663   6.777
 3711TIP3    H132692   6.816   4.734   6.762
 3711TIP3    H232693   6.787   4.591   6.724
 3712TIP3   OH232694   6.390   6.579   1.466
 3712TIP3    H132695   6.477   6.543   1.484
 3712TIP3    H232696   6.396   6.670   1.496
 3713TIP3   OH232697   1.072   5.815   2.072
 3713TIP3    H132698   1.164   5.799   2.051
 3713TIP3    H232699   1.048   5.743   2.130
 3714TIP3   OH232700   4.045   2.507   7.174
 3714TIP3    H132701   4.077   2.417   7.184
 3714TIP3    H232702   4.079   2.553   7.250
 3715TIP3   OH232703   2.727   0.111   7.965
 3715TIP3    H132704   2.665   0.170   8.007
 3715TIP3    H232705   2.733   0.036   8.026
 3716TIP3   OH232706   3.556   1.727   1.511
 3716TIP3    H132707   3.590   1.800   1.561
 3716TIP3    H232708   3.633   1.674   1.491
 3717TIP3   OH232709   5.938   0.107   7.557
 3717TIP3    H132710   5.946   0.105   7.653
 3717TIP3    H232711   5.879   0.035   7.536
 3718TIP3   OH232712   2.207   2.187   2.499
 3718TIP3    H132713   2.166   2.103   2.518
 3718TIP3    H232714   2.260   2.206   2.576
 3719TIP3   OH232715   2.616   4.700   8.306
 3719TIP3    H132716   2.580   4.761   8.369
 3719TIP3    H232717   2.640   4.623   8.357
 3720TIP3   OH232718   4.246   3.180   0.485
 3720TIP3    H132719   4.280   3.219   0.404
 3720TIP3    H232720   4.152   3.201   0.483
 3721TIP3   OH232721   5.393   5.044   0.828
 3721TIP3    H132722   5.394   5.114   0.894
 3721TIP3    H232723   5.428   5.086   0.749
 3722TIP3   OH232724   6.578   0.411   2.107
 3722TIP3    H132725   6.659   0.377   2.068
 3722TIP3    H232726   6.586   0.391   2.200
 3723TIP3   OH232727   5.516   1.697   0.919
 3723TIP3    H132728   5.537   1.693   0.826
 3723TIP3    H232729   5.437   1.751   0.924
 3724TIP3   OH232730   5.459   6.529   7.230
 3724TIP3    H132731   5.393   6.466   7.201
 3724TIP3    H232732   5.509   6.549   7.151
 3725TIP3   OH232733   2.976   4.572   0.167
 3725TIP3    H132734   2.925   4.626   0.106
 3725TIP3    H232735   3.055   4.549   0.118
 3726TIP3   OH232736   4.880   3.474   8.347
 3726TIP3    H132737   4.871   3.556   8.298
 3726TIP3    H232738   4.792   3.437   8.349
 3727TIP3   OH232739   2.216   1.671   7.229
 3727TIP3    H132740   2.202   1.766   7.222
 3727TIP3    H232741   2.305   1.658   7.195
 3728TIP3   OH232742   2.870   0.631   0.805
 3728TIP3    H132743   2.883   0.538   0.822
 3728TIP3    H232744   2.775   0.642   0.807
 3729TIP3   OH232745   1.208   4.156   7.538
 3729TIP3    H132746   1.288   4.207   7.524
 3729TIP3    H232747   1.217   4.122   7.627
 3730TIP3   OH232748   6.608   5.028   1.648
 3730TIP3    H132749   6.585   5.061   1.735
 3730TIP3    H232750   6.687   5.078   1.624
 3731TIP3   OH232751   2.151   0.596   1.781
 3731TIP3    H132752   2.125   0.671   1.833
 3731TIP3    H232753   2.152   0.628   1.691
 3732TIP3   OH232754   5.001   0.615   1.936
 3732TIP3    H132755   5.029   0.649   2.021
 3732TIP3    H232756   4.999   0.520   1.947
 3733TIP3   OH232757   6.090   5.420   8.554
 3733TIP3    H132758   6.090   5.507   8.594
 3733TIP3    H232759   6.178   5.386   8.571
 3734TIP3   OH232760   4.425   5.933   6.751
 3734TIP3    H132761   4.418   5.867   6.821
 3734TIP3    H232762   4.344   5.982   6.755
 3735TIP3   OH232763   5.113   2.089   0.419
 3735TIP3    H132764   5.185   2.092   0.482
 3735TIP3    H232765   5.131   2.161   0.359
 3736TIP3   OH232766   5.291   0.183   7.972
 3736TIP3    H132767   5.291   0.140   7.886
 3736TIP3    H232768   5.200   0.206   7.987
 3737TIP3   OH232769   3.265   6.309   0.332
 3737TIP3    H132770   3.338   6.304   0.394
 3737TIP3    H232771   3.187   6.308   0.388
 3738TIP3   OH232772   3.763   5.802   7.354
 3738TIP3    H132773   3.675   5.802   7.393
 3738TIP3    H232774   3.807   5.727   7.395
 3739TIP3   OH232775   1.529   1.636   7.916
 3739TIP3    H132776   1.488   1.586   7.987
 3739TIP3    H232777   1.520   1.580   7.839
 3740TIP3   OH232778   1.220   1.297   8.390
 3740TIP3    H132779   1.264   1.219   8.355
 3740TIP3    H232780   1.128   1.273   8.395
 3741TIP3   OH232781   1.017   0.363   0.122
 3741TIP3    H132782   1.041   0.309   0.197
 3741TIP3    H232783   1.058   0.320   0.047
 3742TIP3   OH232784   3.075   4.150   1.560
 3742TIP3    H132785   3.158   4.102   1.558
 3742TIP3    H232786   3.060   4.176   1.469
 3743TIP3   OH232787   0.180   4.603   6.709
 3743TIP3    H132788   0.259   4.556   6.682
 3743TIP3    H232789   0.108   4.547   6.680
 3744TIP3   OH232790   6.274   3.232   8.411
 3744TIP3    H132791   6.240   3.200   8.495
 3744TIP3    H232792   6.366   3.254   8.429
 3745TIP3   OH232793   2.279   4.121   1.401
 3745TIP3    H132794   2.185   4.139   1.389
 3745TIP3    H232795   2.296   4.147   1.492
 3746TIP3   OH232796   2.865   0.333   7.125
 3746TIP3    H132797   2.917   0.335   7.205
 3746TIP3    H232798   2.927   0.356   7.056
 3747TIP3   OH232799   0.108   2.988   1.817
 3747TIP3    H132800   0.197   3.023   1.823
 3747TIP3    H232801   0.057   3.041   1.877
 3748TIP3   OH232802   1.151   6.495   7.447
 3748TIP3    H132803   1.180   6.570   7.499
 3748TIP3    H232804   1.161   6.420   7.506
 3749TIP3   OH232805   4.986   2.128   6.445
 3749TIP3    H132806   4.992   2.093   6.534
 3749TIP3    H232807   5.055   2.083   6.397
 3750TIP3   OH232808   6.339   3.387   7.801
 3750TIP3    H132809   6.416   3.344   7.764
 3750TIP3    H232810   6.277   3.392   7.728
 3751TIP3   OH232811   6.884   1.328   7.086
 3751TIP3    H132812   6.838   1.407   7.057
 3751TIP3    H232813   0.048   1.299   7.010
 3752TIP3   OH232814   3.755   5.341   2.252
 3752TIP3    H132815   3.681   5.351   2.312
 3752TIP3    H232816   3.763   5.247   2.239
 3753TIP3   OH232817   0.403   3.204   0.594
 3753TIP3    H132818   0.372   3.114   0.601
 3753TIP3    H232819   0.419   3.230   0.685
 3754TIP3   OH232820   5.259   0.807   2.546
 3754TIP3    H132821   5.201   0.736   2.575
 3754TIP3    H232822   5.218   0.841   2.467
 3755TIP3   OH232823   1.878   4.320   7.129
 3755TIP3    H132824   1.816   4.378   7.086
 3755TIP3    H232825   1.886   4.245   7.070
 3756TIP3   OH232826   5.139   5.595   8.268
 3756TIP3    H132827   5.164   5.505   8.247
 3756TIP3    H232828   5.198   5.648   8.215
 3757TIP3   OH232829   6.771   3.855   6.378
 3757TIP3    H132830   6.791   3.804   6.299
 3757TIP3    H232831   6.693   3.814   6.414
 3758TIP3   OH232832   6.141   6.482   8.583
 3758TIP3    H132833   6.086   6.450   8.511
 3758TIP3    H232834   6.080   6.506   8.652
 3759TIP3   OH232835   2.496   4.088   1.205
 3759TIP3    H132836   2.452   4.128   1.130
 3759TIP3    H232837   2.432   4.093   1.276
 3760TIP3   OH232838   1.347   5.812   8.221
 3760TIP3    H132839   1.433   5.771   8.235
 3760TIP3    H232840   1.288   5.763   8.278
 3761TIP3   OH232841   0.930   6.477   7.779
 3761TIP3    H132842   1.008   6.455   7.728
 3761TIP3    H232843   0.862   6.419   7.745
 3762TIP3   OH232844   5.862   5.572   2.069
 3762TIP3    H132845   5.824   5.488   2.095
 3762TIP3    H232846   5.868   5.622   2.150
 3763TIP3   OH232847   6.205   4.167   0.973
 3763TIP3    H132848   6.251   4.214   0.903
 3763TIP3    H232849   6.271   4.154   1.040
 3764TIP3   OH232850   6.630   6.461   1.517
 3764TIP3    H132851   6.620   6.460   1.612
 3764TIP3    H232852   6.704   6.519   1.501
 3765TIP3   OH232853   0.338   2.476   0.311
 3765TIP3    H132854   0.362   2.385   0.293
 3765TIP3    H232855   0.345   2.484   0.407
 3766TIP3   OH232856   4.797   4.618   1.772
 3766TIP3    H132857   4.851   4.690   1.741
 3766TIP3    H232858   4.721   4.661   1.813
 3767TIP3   OH232859   6.137   5.354   7.758
 3767TIP3    H132860   6.138   5.449   7.765
 3767TIP3    H232861   6.152   5.323   7.848
 3768TIP3   OH232862   3.944   0.083   7.124
 3768TIP3    H132863   3.971   0.151   7.063
 3768TIP3    H232864   3.934   0.128   7.208
 3769TIP3   OH232865   1.856   0.951   6.348
 3769TIP3    H132866   1.837   0.982   6.437
 3769TIP3    H232867   1.951   0.963   6.338
 3770TIP3   OH232868   2.114   3.225   1.659
 3770TIP3    H132869   2.161   3.227   1.576
 3770TIP3    H232870   2.109   3.132   1.681
 3771TIP3   OH232871   6.004   5.266   8.253
 3771TIP3    H132872   5.909   5.259   8.250
 3771TIP3    H232873   6.031   5.198   8.315
 3772TIP3   OH232874   3.151   2.309   7.137
 3772TIP3    H132875   3.240   2.345   7.139
 3772TIP3    H232876   3.094   2.385   7.148
 3773TIP3   OH232877   5.691   1.920   0.682
 3773TIP3    H132878   5.669   1.936   0.590
 3773TIP3    H232879   5.636   1.982   0.730
 3774TIP3   OH232880   0.093   3.238   7.878
 3774TIP3    H132881   0.093   3.178   7.804
 3774TIP3    H232882   0.044   3.192   7.946
 3775TIP3   OH232883   6.415   0.800   7.313
 3775TIP3    H132884   6.320   0.797   7.305
 3775TIP3    H232885   6.431   0.843   7.397
 3776TIP3   OH232886   0.437   4.965   6.540
 3776TIP3    H132887   0.363   4.976   6.480
 3776TIP3    H232888   0.400   4.923   6.617
 3777TIP3   OH232889   4.522   5.261   8.397
 3777TIP3    H132890   4.560   5.344   8.370
 3777TIP3    H232891   4.595   5.212   8.436
 3778TIP3   OH232892   1.278   0.963   1.890
 3778TIP3    H132893   1.306   1.050   1.862
 3778TIP3    H232894   1.207   0.979   1.952
 3779TIP3   OH232895   5.383   1.476   1.459
 3779TIP3    H132896   5.351   1.398   1.414
 3779TIP3    H232897   5.472   1.454   1.486
 3780TIP3   OH232898   0.606   0.366   1.080
 3780TIP3    H132899   0.600   0.277   1.047
 3780TIP3    H232900   0.515   0.395   1.089
 3781TIP3   OH232901   1.105   3.152   8.359
 3781TIP3    H132902   1.082   3.242   8.339
 3781TIP3    H232903   1.169   3.128   8.292
 3782TIP3   OH232904   4.789   6.470   8.297
 3782TIP3    H132905   4.781   6.375   8.288
 3782TIP3    H232906   4.708   6.497   8.340
 3783TIP3   OH232907   0.936   0.144   6.843
 3783TIP3    H132908   0.968   0.136   6.754
 3783TIP3    H232909   0.842   0.160   6.834
 3784TIP3   OH232910   2.847   1.084   0.628
 3784TIP3    H132911   2.898   1.099   0.548
 3784TIP3    H232912   2.912   1.078   0.698
 3785TIP3   OH232913   5.475   4.652   0.064
 3785TIP3    H132914   5.433   4.577   0.108
 3785TIP3    H232915   5.540   4.612   0.006
 3786TIP3   OH232916   1.895   3.381   0.516
 3786TIP3    H132917   1.812   3.365   0.471
 3786TIP3    H232918   1.943   3.440   0.458
 3787TIP3   OH232919   0.850   5.065   7.689
 3787TIP3    H132920   0.858   5.120   7.767
 3787TIP3    H232921   0.935   5.022   7.681
 3788TIP3   OH232922   3.772   5.539   8.075
 3788TIP3    H132923   3.702   5.601   8.096
 3788TIP3    H232924   3.726   5.457   8.056
 3789TIP3   OH232925   5.520   1.534   6.787
 3789TIP3    H132926   5.545   1.551   6.878
 3789TIP3    H232927   5.435   1.577   6.777
 3790TIP3   OH232928   0.721   3.405   8.513
 3790TIP3    H132929   0.650   3.342   8.508
 3790TIP3    H232930   0.724   3.430   8.606
 3791TIP3   OH232931   6.680   4.835   0.203
 3791TIP3    H132932   6.773   4.818   0.190
 3791TIP3    H232933   6.664   4.917   0.156
 3792TIP3   OH232934   4.126   2.223   8.490
 3792TIP3    H132935   4.159   2.261   8.408
 3792TIP3    H232936   4.141   2.129   8.480
 3793TIP3   OH232937   2.873   4.842   8.314
 3793TIP3    H132938   2.862   4.814   8.223
 3793TIP3    H232939   2.832   4.772   8.365
 3794TIP3   OH232940   3.316   3.684   7.451
 3794TIP3    H132941   3.289   3.775   7.454
 3794TIP3    H232942   3.234   3.635   7.464
 3795TIP3   OH232943   0.622   6.752   6.871
 3795TIP3    H132944   0.661   6.807   6.804
 3795TIP3    H232945   0.594   6.673   6.824
 3796TIP3   OH232946   6.648   3.099   7.525
 3796TIP3    H132947   6.638   3.004   7.521
 3796TIP3    H232948   6.741   3.115   7.509
 3797TIP3   OH232949   4.053   1.185   7.483
 3797TIP3    H132950   4.038   1.146   7.569
 3797TIP3    H232951   4.001   1.265   7.483
 3798TIP3   OH232952   1.976   3.466   1.353
 3798TIP3    H132953   2.002   3.493   1.441
 3798TIP3    H232954   1.907   3.402   1.367
 3799TIP3   OH232955   0.146   6.375   7.561
 3799TIP3    H132956   0.124   6.315   7.632
 3799TIP3    H232957   0.109   6.459   7.588
 3800TIP3   OH232958   6.330   6.377   0.626
 3800TIP3    H132959   6.254   6.337   0.584
 3800TIP3    H232960   6.378   6.303   0.664
 3801TIP3   OH232961   6.379   1.653   0.988
 3801TIP3    H132962   6.290   1.618   0.984
 3801TIP3    H232963   6.381   1.704   1.069
 3802TIP3   OH232964   1.923   5.521   7.194
 3802TIP3    H132965   1.828   5.513   7.184
 3802TIP3    H232966   1.957   5.436   7.164
 3803TIP3   OH232967   0.937   4.430   1.010
 3803TIP3    H132968   0.891   4.366   0.956
 3803TIP3    H232969   0.870   4.462   1.071
 3804TIP3   OH232970   4.075   3.914   0.209
 3804TIP3    H132971   3.990   3.873   0.227
 3804TIP3    H232972   4.119   3.853   0.150
 3805TIP3   OH232973   4.075   2.470   1.615
 3805TIP3    H132974   4.000   2.412   1.626
 3805TIP3    H232975   4.044   2.538   1.555
 3806TIP3   OH232976   3.943   0.106   1.243
 3806TIP3    H132977   4.006   0.128   1.311
 3806TIP3    H232978   3.955   0.173   1.176
 3807TIP3   OH232979   6.601   6.844   1.964
 3807TIP3    H132980   6.544   6.884   2.030
 3807TIP3    H232981   6.674   0.019   1.956
 3808TIP3   OH232982   6.754   1.717   0.045
 3808TIP3    H132983   6.680   1.721   8.646
 3808TIP3    H232984   6.793   1.632   0.029
 3809TIP3   OH232985   2.008   5.138   6.568
 3809TIP3    H132986   1.994   5.185   6.485
 3809TIP3    H232987   1.999   5.206   6.635
 3810TIP3   OH232988   4.134   3.941   7.457
 3810TIP3    H132989   4.042   3.920   7.446
 3810TIP3    H232990   4.180   3.864   7.422
 3811TIP3   OH232991   5.567   1.484   8.121
 3811TIP3    H132992   5.654   1.452   8.143
 3811TIP3    H232993   5.553   1.560   8.177
 3812TIP3   OH232994   6.848   4.356   1.727
 3812TIP3    H132995   6.832   4.350   1.821
 3812TIP3    H232996   0.053   4.330   1.716
 3813TIP3   OH232997   2.564   5.241   0.048
 3813TIP3    H132998   2.574   5.337   0.046
 3813TIP3    H232999   2.641   5.210   0.096
 3814TIP3   OH233000   5.949   1.306   1.703
 3814TIP3    H133001   5.950   1.268   1.790
 3814TIP3    H233002   6.025   1.364   1.700
 3815TIP3   OH233003   6.714   5.975   7.011
 3815TIP3    H133004   6.669   5.962   7.095
 3815TIP3    H233005   6.794   6.022   7.034
 3816TIP3   OH233006   4.558   1.103   7.340
 3816TIP3    H133007   4.575   1.140   7.254
 3816TIP3    H233008   4.472   1.138   7.365
 3817TIP3   OH233009   3.300   0.725   8.493
 3817TIP3    H133010   3.275   0.774   8.571
 3817TIP3    H233011   3.356   0.785   8.444
 3818TIP3   OH233012   5.060   6.712   8.660
 3818TIP3    H133013   5.137   6.657   8.645
 3818TIP3    H233014   5.047   6.709   0.093
 3819TIP3   OH233015   6.641   6.629   1.748
 3819TIP3    H133016   6.612   6.718   1.768
 3819TIP3    H233017   6.673   6.595   1.832
 3820TIP3   OH233018   4.095   5.815   0.455
 3820TIP3    H133019   4.002   5.801   0.438
 3820TIP3    H233020   4.123   5.879   0.389
 3821TIP3   OH233021   2.523   2.503   0.701
 3821TIP3    H133022   2.494   2.418   0.733
 3821TIP3    H233023   2.501   2.564   0.771
 3822TIP3   OH233024   3.136   5.866   8.034
 3822TIP3    H133025   3.095   5.807   7.971
 3822TIP3    H233026   3.063   5.908   8.079
 3823TIP3   OH233027   1.962   3.444   1.858
 3823TIP3    H133028   2.004   3.530   1.862
 3823TIP3    H233029   1.967   3.411   1.947
 3824TIP3   OH233030   4.311   1.962   8.338
 3824TIP3    H133031   4.382   1.908   8.303
 3824TIP3    H233032   4.321   1.956   8.433
 3825TIP3   OH233033   3.394   3.347   1.634
 3825TIP3    H133034   3.406   3.254   1.653
 3825TIP3    H233035   3.459   3.391   1.688
 3826TIP3   OH233036   2.288   3.938   7.426
 3826TIP3    H133037   2.223   3.875   7.395
 3826TIP3    H233038   2.317   3.902   7.510
 3827TIP3   OH233039   2.388   2.314   0.822
 3827TIP3    H133040   2.353   2.229   0.850
 3827TIP3    H233041   2.402   2.362   0.904
 3828TIP3   OH233042   1.171   4.955   0.086
 3828TIP3    H133043   1.261   4.980   0.063
 3828TIP3    H233044   1.123   5.038   0.088
 3829TIP3   OH233045   6.781   4.045   0.119
 3829TIP3    H133046   6.689   4.018   0.126
 3829TIP3    H233047   6.798   4.092   0.201
 3830TIP3   OH233048   0.763   3.067   1.881
 3830TIP3    H133049   0.712   3.011   1.940
 3830TIP3    H233050   0.854   3.037   1.892
 3831TIP3   OH233051   4.955   4.150   6.165
 3831TIP3    H133052   5.010   4.147   6.086
 3831TIP3    H233053   5.013   4.184   6.233
 3832TIP3   OH233054   6.080   2.963   2.046
 3832TIP3    H133055   6.003   2.920   2.085
 3832TIP3    H233056   6.125   2.892   1.999
 3833TIP3   OH233057   3.402   5.032   1.167
 3833TIP3    H133058   3.481   5.023   1.221
 3833TIP3    H233059   3.330   5.034   1.230
 3834TIP3   OH233060   6.254   0.087   7.832
 3834TIP3    H133061   6.232   0.023   7.900
 3834TIP3    H233062   6.244   0.172   7.875
 3835TIP3   OH233063   0.271   5.682   7.158
 3835TIP3    H133064   0.275   5.777   7.144
 3835TIP3    H233065   0.228   5.673   7.244
 3836TIP3   OH233066   5.072   4.520   8.466
 3836TIP3    H133067   5.071   4.586   8.397
 3836TIP3    H233068   5.008   4.455   8.438
 3837TIP3   OH233069   6.244   2.774   1.889
 3837TIP3    H133070   6.328   2.818   1.873
 3837TIP3    H233071   6.220   2.737   1.804
 3838TIP3   OH233072   0.400   4.854   7.345
 3838TIP3    H133073   0.384   4.782   7.283
 3838TIP3    H233074   0.361   4.824   7.427
 3839TIP3   OH233075   0.031   0.960   1.497
 3839TIP3    H133076   6.834   1.001   1.471
 3839TIP3    H233077   0.012   0.917   1.580
 3840TIP3   OH233078   5.322   0.967   8.408
 3840TIP3    H133079   5.377   0.925   8.473
 3840TIP3    H233080   5.351   1.058   8.405
 3841TIP3   OH233081   4.289   2.989   6.760
 3841TIP3    H133082   4.285   3.084   6.762
 3841TIP3    H233083   4.208   2.960   6.802
 3842TIP3   OH233084   3.436   6.053   1.694
 3842TIP3    H133085   3.464   5.974   1.740
 3842TIP3    H233086   3.345   6.036   1.670
 3843TIP3   OH233087   6.089   6.185   0.601
 3843TIP3    H133088   6.020   6.242   0.567
 3843TIP3    H233089   6.054   6.096   0.589
 3844TIP3   OH233090   0.728   4.666   0.508
 3844TIP3    H133091   0.764   4.583   0.540
 3844TIP3    H233092   0.645   4.642   0.466
 3845TIP3   OH233093   5.771   6.852   0.873
 3845TIP3    H133094   5.683   6.849   0.911
 3845TIP3    H233095   5.757   0.000   0.785
 3846TIP3   OH233096   5.434   0.022   1.331
 3846TIP3    H133097   5.341   0.043   1.334
 3846TIP3    H233098   5.478   0.101   1.363
 3847TIP3   OH233099   6.637   4.846   1.116
 3847TIP3    H133100   6.629   4.791   1.194
 3847TIP3    H233101   6.732   4.853   1.102
 3848TIP3   OH233102   3.752   4.728   7.016
 3848TIP3    H133103   3.774   4.806   6.966
 3848TIP3    H233104   3.689   4.681   6.961
 3849TIP3   OH233105   2.957   5.241   0.197
 3849TIP3    H133106   3.001   5.219   0.115
 3849TIP3    H233107   3.002   5.320   0.227
 3850TIP3   OH233108   0.279   6.280   1.293
 3850TIP3    H133109   0.264   6.237   1.209
 3850TIP3    H233110   0.195   6.276   1.339
 3851TIP3   OH233111   4.612   6.563   6.609
 3851TIP3    H133112   4.679   6.500   6.635
 3851TIP3    H233113   4.661   6.641   6.582
 3852TIP3   OH233114   3.641   3.725   7.855
 3852TIP3    H133115   3.649   3.767   7.940
 3852TIP3    H233116   3.686   3.641   7.866
 3853TIP3   OH233117   2.809   0.135   2.016
 3853TIP3    H133118   2.733   0.081   1.992
 3853TIP3    H233119   2.870   0.074   2.057
 3854TIP3   OH233120   2.607   2.973   8.019
 3854TIP3    H133121   2.669   3.009   8.083
 3854TIP3    H233122   2.562   2.904   8.067
 3855TIP3   OH233123   5.022   2.185   8.596
 3855TIP3    H133124   5.116   2.179   8.579
 3855TIP3    H233125   5.012   2.263   8.650
 3856TIP3   OH233126   4.202   3.433   7.192
 3856TIP3    H133127   4.110   3.452   7.210
 3856TIP3    H233128   4.202   3.396   7.103
 3857TIP3   OH233129   0.521   0.590   8.647
 3857TIP3    H133130   0.489   0.507   8.613
 3857TIP3    H233131   0.616   0.588   8.632
 3858TIP3   OH233132   2.340   6.135   1.395
 3858TIP3    H133133   2.418   6.187   1.374
 3858TIP3    H233134   2.294   6.187   1.461
 3859TIP3   OH233135   3.546   1.476   6.510
 3859TIP3    H133136   3.578   1.388   6.492
 3859TIP3    H233137   3.490   1.496   6.435
 3860TIP3   OH233138   1.643   1.536   2.289
 3860TIP3    H133139   1.694   1.567   2.363
 3860TIP3    H233140   1.634   1.442   2.304
 3861TIP3   OH233141   2.915   4.798   7.119
 3861TIP3    H133142   2.915   4.860   7.192
 3861TIP3    H233143   2.830   4.812   7.076
 3862TIP3   OH233144   5.303   0.655   1.402
 3862TIP3    H133145   5.319   0.655   1.496
 3862TIP3    H233146   5.368   0.594   1.366
 3863TIP3   OH233147   4.732   3.211   7.570
 3863TIP3    H133148   4.808   3.196   7.626
 3863TIP3    H233149   4.767   3.216   7.481
 3864TIP3   OH233150   1.490   4.682   1.208
 3864TIP3    H133151   1.404   4.669   1.249
 3864TIP3    H233152   1.476   4.662   1.116
 3865TIP3   OH233153   2.478   0.100   0.554
 3865TIP3    H133154   2.402   0.131   0.504
 3865TIP3    H233155   2.444   0.026   0.604
 3866TIP3   OH233156   1.507   0.147   7.981
 3866TIP3    H133157   1.585   0.094   7.998
 3866TIP3    H233158   1.437   0.083   7.966
 3867TIP3   OH233159   6.418   1.437   8.524
 3867TIP3    H133160   6.377   1.422   8.439
 3867TIP3    H233161   6.378   1.519   8.555
 3868TIP3   OH233162   0.944   2.322   1.237
 3868TIP3    H133163   0.867   2.314   1.181
 3868TIP3    H233164   0.981   2.407   1.215
 3869TIP3   OH233165   2.726   2.076   7.279
 3869TIP3    H133166   2.776   2.031   7.210
 3869TIP3    H233167   2.724   2.014   7.352
 3870TIP3   OH233168   6.206   3.124   1.118
 3870TIP3    H133169   6.300   3.116   1.130
 3870TIP3    H233170   6.196   3.159   1.029
 3871TIP3   OH233171   3.109   4.783   6.505
 3871TIP3    H133172   3.178   4.825   6.454
 3871TIP3    H233173   3.100   4.838   6.583
 3872TIP3   OH233174   3.732   0.684   1.004
 3872TIP3    H133175   3.658   0.688   0.943
 3872TIP3    H233176   3.740   0.590   1.025
 3873TIP3   OH233177   0.612   5.161   6.543
 3873TIP3    H133178   0.562   5.081   6.550
 3873TIP3    H233179   0.615   5.181   6.449
 3874TIP3   OH233180   4.706   3.559   2.228
 3874TIP3    H133181   4.662   3.553   2.313
 3874TIP3    H233182   4.749   3.474   2.217
 3875TIP3   OH233183   2.898   5.113   2.476
 3875TIP3    H133184   2.968   5.176   2.461
 3875TIP3    H233185   2.817   5.165   2.469
 3876TIP3   OH233186   2.113   3.900   8.638
 3876TIP3    H133187   2.094   3.916   8.546
 3876TIP3    H233188   2.028   3.876   0.014
 3877TIP3   OH233189   1.522   1.283   6.956
 3877TIP3    H133190   1.563   1.232   6.886
 3877TIP3    H233191   1.482   1.357   6.910
 3878TIP3   OH233192   5.892   5.798   0.423
 3878TIP3    H133193   5.877   5.889   0.450
 3878TIP3    H233194   5.965   5.803   0.362
 3879TIP3   OH233195   6.334   2.015   7.189
 3879TIP3    H133196   6.317   2.107   7.208
 3879TIP3    H233197   6.411   2.015   7.133
 3880TIP3   OH233198   3.847   0.671   0.598
 3880TIP3    H133199   3.765   0.705   0.562
 3880TIP3    H233200   3.821   0.599   0.655
 3881TIP3   OH233201   3.946   0.220   0.877
 3881TIP3    H133202   3.978   0.265   0.955
 3881TIP3    H233203   4.025   0.196   0.828
 3882TIP3   OH233204   1.499   4.055   0.901
 3882TIP3    H133205   1.415   4.088   0.869
 3882TIP3    H233206   1.532   4.000   0.829
 3883TIP3   OH233207   1.785   5.030   0.140
 3883TIP3    H133208   1.733   4.964   0.186
 3883TIP3    H233209   1.809   4.988   0.057
 3884TIP3   OH233210   6.840   0.865   1.740
 3884TIP3    H133211   6.884   0.813   1.807
 3884TIP3    H233212   6.839   0.954   1.776
 3885TIP3   OH233213   4.987   6.519   6.046
 3885TIP3    H133214   4.986   6.595   5.988
 3885TIP3    H233215   4.946   6.449   5.995
 3886TIP3   OH233216   1.431   4.002   1.335
 3886TIP3    H133217   1.356   4.043   1.291
 3886TIP3    H233218   1.503   4.011   1.271
 3887TIP3   OH233219   4.451   0.280   1.220
 3887TIP3    H133220   4.499   0.353   1.259
 3887TIP3    H233221   4.486   0.274   1.131
 3888TIP3   OH233222   4.818   4.228   8.585
 3888TIP3    H133223   4.825   4.290   8.512
 3888TIP3    H233224   4.908   4.203   8.604
 3889TIP3   OH233225   2.249   2.608   7.828
 3889TIP3    H133226   2.281   2.550   7.758
 3889TIP3    H233227   2.313   2.678   7.833
 3890TIP3   OH233228   5.613   4.656   0.766
 3890TIP3    H133229   5.532   4.657   0.816
 3890TIP3    H233230   5.677   4.615   0.824
 3891TIP3   OH233231   1.348   3.106   7.312
 3891TIP3    H133232   1.254   3.094   7.298
 3891TIP3    H233233   1.384   3.018   7.316
 3892TIP3   OH233234   4.772   1.855   8.336
 3892TIP3    H133235   4.856   1.810   8.348
 3892TIP3    H233236   4.784   1.940   8.379
 3893TIP3   OH233237   4.944   2.414   6.597
 3893TIP3    H133238   5.037   2.406   6.618
 3893TIP3    H233239   4.903   2.336   6.636
 3894TIP3   OH233240   4.877   3.791   6.393
 3894TIP3    H133241   4.819   3.836   6.332
 3894TIP3    H233242   4.960   3.783   6.345
 3895TIP3   OH233243   1.339   6.384   7.891
 3895TIP3    H133244   1.329   6.469   7.935
 3895TIP3    H233245   1.418   6.346   7.931
 3896TIP3   OH233246   0.951   4.215   1.232
 3896TIP3    H133247   0.971   4.288   1.174
 3896TIP3    H233248   0.868   4.240   1.274
 3897TIP3   OH233249   4.307   5.014   7.566
 3897TIP3    H133250   4.401   5.032   7.578
 3897TIP3    H233251   4.265   5.100   7.572
 3898TIP3   OH233252   4.799   5.972   6.456
 3898TIP3    H133253   4.743   5.924   6.395
 3898TIP3    H233254   4.755   6.056   6.468
 3899TIP3   OH233255   0.537   1.813   2.416
 3899TIP3    H133256   0.628   1.835   2.400
 3899TIP3    H233257   0.524   1.730   2.370
 3900TIP3   OH233258   4.375   0.585   6.207
 3900TIP3    H133259   4.457   0.559   6.165
 3900TIP3    H233260   4.332   0.503   6.229
 3901TIP3   OH233261   1.891   2.989   0.842
 3901TIP3    H133262   1.818   2.978   0.903
 3901TIP3    H233263   1.864   2.940   0.764
 3902TIP3   OH233264   3.742   2.449   7.856
 3902TIP3    H133265   3.653   2.457   7.890
 3902TIP3    H233266   3.738   2.370   7.801
 3903TIP3   OH233267   1.378   0.293   8.435
 3903TIP3    H133268   1.340   0.293   8.348
 3903TIP3    H233269   1.400   0.384   8.452
 3904TIP3   OH233270   3.421   1.472   0.047
 3904TIP3    H133271   3.349   1.523   0.085
 3904TIP3    H233272   3.499   1.526   0.059
 3905TIP3   OH233273   6.335   6.530   7.252
 3905TIP3    H133274   6.369   6.605   7.299
 3905TIP3    H233275   6.411   6.472   7.241
 3906TIP3   OH233276   2.934   1.543   8.576
 3906TIP3    H133277   2.898   1.607   8.638
 3906TIP3    H233278   2.938   1.461   8.625
 3907TIP3   OH233279   1.945   3.044   1.953
 3907TIP3    H133280   1.905   3.014   1.871
 3907TIP3    H233281   1.923   2.976   2.017
 3908TIP3   OH233282   2.023   6.113   7.205
 3908TIP3    H133283   2.058   6.154   7.284
 3908TIP3    H233284   2.064   6.161   7.133
 3909TIP3   OH233285   5.601   4.232   6.446
 3909TIP3    H133286   5.558   4.186   6.518
 3909TIP3    H233287   5.640   4.162   6.393
 3910TIP3   OH233288   6.717   3.104   7.877
 3910TIP3    H133289   6.655   3.096   7.803
 3910TIP3    H233290   6.800   3.074   7.841
 3911TIP3   OH233291   5.033   6.553   8.187
 3911TIP3    H133292   4.947   6.525   8.218
 3911TIP3    H233293   5.040   6.513   8.100
 3912TIP3   OH233294   5.682   6.397   7.991
 3912TIP3    H133295   5.688   6.302   7.996
 3912TIP3    H233296   5.709   6.417   7.901
 3913TIP3   OH233297   0.987   0.560   1.653
 3913TIP3    H133298   1.040   0.588   1.579
 3913TIP3    H233299   1.025   0.476   1.679
 3914TIP3   OH233300   0.266   6.249   1.826
 3914TIP3    H133301   0.244   6.341   1.811
 3914TIP3    H233302   0.210   6.222   1.898
 3915TIP3   OH233303   4.909   5.110   8.291
 3915TIP3    H133304   4.843   5.128   8.357
 3915TIP3    H233305   4.992   5.107   8.339
 3916TIP3   OH233306   0.193   3.848   0.627
 3916TIP3    H133307   0.283   3.832   0.657
 3916TIP3    H233308   0.166   3.765   0.587
 3917TIP3   OH233309   5.372   2.096   7.886
 3917TIP3    H133310   5.327   2.164   7.836
 3917TIP3    H233311   5.463   2.102   7.858
 3918TIP3   OH233312   6.508   0.988   7.514
 3918TIP3    H133313   6.569   0.930   7.560
 3918TIP3    H233314   6.485   1.055   7.578
 3919TIP3   OH233315   6.549   3.746   6.524
 3919TIP3    H133316   6.461   3.709   6.518
 3919TIP3    H233317   6.545   3.806   6.599
 3920TIP3   OH233318   4.295   0.157   8.324
 3920TIP3    H133319   4.225   0.184   8.384
 3920TIP3    H233320   4.249   0.137   8.242
 3921TIP3   OH233321   5.456   4.801   1.953
 3921TIP3    H133322   5.467   4.784   1.859
 3921TIP3    H233323   5.372   4.847   1.959
 3922TIP3   OH233324   2.844   4.825   7.576
 3922TIP3    H133325   2.881   4.907   7.609
 3922TIP3    H233326   2.826   4.774   7.655
 3923TIP3   OH233327   2.551   3.624   6.387
 3923TIP3    H133328   2.590   3.604   6.302
 3923TIP3    H233329   2.618   3.601   6.450
 3924TIP3   OH233330   5.165   1.023   7.466
 3924TIP3    H133331   5.126   1.093   7.520
 3924TIP3    H233332   5.257   1.023   7.491
 3925TIP3   OH233333   5.242   3.164   1.136
 3925TIP3    H133334   5.223   3.257   1.148
 3925TIP3    H233335   5.318   3.148   1.193
 3926TIP3   OH233336   4.078   1.418   8.646
 3926TIP3    H133337   4.036   1.335   0.008
 3926TIP3    H233338   4.101   1.408   8.554
 3927TIP3   OH233339   4.868   0.320   7.803
 3927TIP3    H133340   4.898   0.387   7.741
 3927TIP3    H233341   4.773   0.329   7.805
 3928TIP3   OH233342   2.176   1.233   2.642
 3928TIP3    H133343   2.240   1.229   2.571
 3928TIP3    H233344   2.147   1.143   2.653
 3929TIP3   OH233345   0.106   2.755   0.013
 3929TIP3    H133346   0.063   2.689   0.068
 3929TIP3    H233347   0.188   2.713   8.649
 3930TIP3   OH233348   6.476   1.116   0.701
 3930TIP3    H133349   6.481   1.052   0.773
 3930TIP3    H233350   6.563   1.112   0.661
 3931TIP3   OH233351   1.749   2.568   0.284
 3931TIP3    H133352   1.802   2.573   0.364
 3931TIP3    H233353   1.660   2.587   0.312
 3932TIP3   OH233354   1.214   2.148   1.604
 3932TIP3    H133355   1.194   2.239   1.579
 3932TIP3    H233356   1.151   2.096   1.554
 3933TIP3   OH233357   2.539   4.812   0.266
 3933TIP3    H133358   2.633   4.806   0.250
 3933TIP3    H233359   2.506   4.866   0.194
 3934TIP3   OH233360   3.607   2.314   1.805
 3934TIP3    H133361   3.635   2.232   1.846
 3934TIP3    H233362   3.629   2.381   1.870
 3935TIP3   OH233363   2.252   2.121   2.226
 3935TIP3    H133364   2.315   2.186   2.195
 3935TIP3    H233365   2.252   2.132   2.321
 3936TIP3   OH233366   0.904   6.663   1.793
 3936TIP3    H133367   0.840   6.603   1.755
 3936TIP3    H233368   0.979   6.607   1.814
 3937TIP3   OH233369   2.552   2.639   0.236
 3937TIP3    H133370   2.512   2.615   0.320
 3937TIP3    H233371   2.533   2.565   0.178
 3938TIP3   OH233372   4.550   2.497   1.700
 3938TIP3    H133373   4.615   2.494   1.770
 3938TIP3    H233374   4.580   2.566   1.641
 3939TIP3   OH233375   3.327   3.410   1.971
 3939TIP3    H133376   3.334   3.326   2.016
 3939TIP3    H233377   3.411   3.420   1.926
 3940TIP3   OH233378   4.194   4.167   7.230
 3940TIP3    H133379   4.258   4.161   7.300
 3940TIP3    H233380   4.246   4.173   7.150
 3941TIP3   OH233381   2.025   1.358   0.594
 3941TIP3    H133382   2.091   1.399   0.649
 3941TIP3    H233383   2.073   1.292   0.544
 3942TIP3   OH233384   2.761   6.762   2.369
 3942TIP3    H133385   2.753   6.851   2.403
 3942TIP3    H233386   2.715   6.708   2.434
 3943TIP3   OH233387   0.046   6.228   8.096
 3943TIP3    H133388   0.108   6.156   8.101
 3943TIP3    H233389   6.883   6.223   8.178
 3944TIP3   OH233390   6.179   6.196   1.647
 3944TIP3    H133391   6.156   6.203   1.554
 3944TIP3    H233392   6.213   6.283   1.670
 3945TIP3   OH233393   0.589   4.165   7.952
 3945TIP3    H133394   0.649   4.132   8.018
 3945TIP3    H233395   0.635   4.238   7.911
 3946TIP3   OH233396   3.121   2.054   2.096
 3946TIP3    H133397   3.214   2.079   2.099
 3946TIP3    H233398   3.078   2.118   2.153
 3947TIP3   OH233399   3.152   3.563   7.018
 3947TIP3    H133400   3.128   3.471   7.029
 3947TIP3    H233401   3.123   3.585   6.930
 3948TIP3   OH233402   0.585   0.863   8.611
 3948TIP3    H133403   0.522   0.792   8.628
 3948TIP3    H233404   0.578   0.878   8.516
 3949TIP3   OH233405   3.430   4.132   7.697
 3949TIP3    H133406   3.406   4.039   7.693
 3949TIP3    H233407   3.384   4.172   7.623
 3950TIP3   OH233408   4.903   1.133   1.396
 3950TIP3    H133409   4.948   1.178   1.325
 3950TIP3    H233410   4.970   1.077   1.435
 3951TIP3   OH233411   1.416   4.316   7.937
 3951TIP3    H133412   1.354   4.319   7.865
 3951TIP3    H233413   1.493   4.271   7.901
 3952TIP3   OH233414   0.945   1.402   7.010
 3952TIP3    H133415   1.018   1.388   6.949
 3952TIP3    H233416   0.897   1.476   6.973
 3953TIP3   OH233417   4.970   0.643   8.467
 3953TIP3    H133418   4.932   0.716   8.418
 3953TIP3    H233419   4.983   0.677   8.555
 3954TIP3   OH233420   1.202   6.389   1.244
 3954TIP3    H133421   1.116   6.427   1.264
 3954TIP3    H233422   1.253   6.463   1.212
 3955TIP3   OH233423   2.212   5.882   0.076
 3955TIP3    H133424   2.175   5.818   0.015
 3955TIP3    H233425   2.291   5.840   0.111
 3956TIP3   OH233426   5.333   2.966   1.731
 3956TIP3    H133427   5.319   3.059   1.750
 3956TIP3    H233428   5.356   2.928   1.816
 3957TIP3   OH233429   5.615   0.897   8.166
 3957TIP3    H133430   5.629   0.902   8.072
 3957TIP3    H233431   5.559   0.821   8.178
 3958TIP3   OH233432   3.585   1.989   8.262
 3958TIP3    H133433   3.629   1.945   8.189
 3958TIP3    H233434   3.648   2.052   8.294
 3959TIP3   OH233435   0.392   3.240   2.493
 3959TIP3    H133436   0.310   3.236   2.442
 3959TIP3    H233437   0.417   3.332   2.490
 3960TIP3   OH233438   5.977   3.411   0.169
 3960TIP3    H133439   5.953   3.504   0.169
 3960TIP3    H233440   6.065   3.409   0.207
 3961TIP3   OH233441   5.803   3.731   1.734
 3961TIP3    H133442   5.866   3.719   1.806
 3961TIP3    H233443   5.721   3.754   1.778
 3962TIP3   OH233444   4.837   0.041   0.752
 3962TIP3    H133445   4.896   0.101   0.797
 3962TIP3    H233446   4.811   6.864   0.819
 3963TIP3   OH233447   6.465   4.571   1.536
 3963TIP3    H133448   6.421   4.640   1.586
 3963TIP3    H233449   6.509   4.617   1.465
 3964TIP3   OH233450   0.279   3.215   7.368
 3964TIP3    H133451   0.335   3.148   7.329
 3964TIP3    H233452   0.337   3.289   7.382
 3965TIP3   OH233453   3.750   2.216   7.667
 3965TIP3    H133454   3.762   2.226   7.573
 3965TIP3    H233455   3.659   2.186   7.676
 3966TIP3   OH233456   5.115   4.694   7.701
 3966TIP3    H133457   5.052   4.753   7.743
 3966TIP3    H233458   5.199   4.714   7.743
 3967TIP3   OH233459   2.208   3.037   8.318
 3967TIP3    H133460   2.230   3.014   8.227
 3967TIP3    H233461   2.293   3.039   8.362
 3968TIP3   OH233462   5.364   5.764   7.544
 3968TIP3    H133463   5.305   5.691   7.562
 3968TIP3    H233464   5.438   5.749   7.603
 3969TIP3   OH233465   2.042   0.373   0.933
 3969TIP3    H133466   2.034   0.322   1.014
 3969TIP3    H233467   1.954   0.410   0.920
 3970TIP3   OH233468   6.390   0.851   1.889
 3970TIP3    H133469   6.331   0.784   1.924
 3970TIP3    H233470   6.420   0.815   1.806
 3971TIP3   OH233471   3.170   4.581   0.706
 3971TIP3    H133472   3.230   4.511   0.734
 3971TIP3    H233473   3.102   4.535   0.657
 3972TIP3   OH233474   3.032   6.435   8.083
 3972TIP3    H133475   3.087   6.413   8.159
 3972TIP3    H233476   3.075   6.511   8.044
 3973TIP3   OH233477   1.697   3.276   8.118
 3973TIP3    H133478   1.748   3.257   8.039
 3973TIP3    H233479   1.622   3.326   8.086
 3974TIP3   OH233480   1.325   3.508   8.435
 3974TIP3    H133481   1.419   3.496   8.422
 3974TIP3    H233482   1.295   3.552   8.355
 3975TIP3   OH233483   4.183   1.137   0.618
 3975TIP3    H133484   4.251   1.093   0.668
 3975TIP3    H233485   4.106   1.082   0.629
 3976TIP3   OH233486   0.947   6.104   1.601
 3976TIP3    H133487   0.940   6.152   1.518
 3976TIP3    H233488   0.898   6.158   1.664
 3977TIP3   OH233489   5.061   5.158   2.015
 3977TIP3    H133490   5.087   5.250   2.018
 3977TIP3    H233491   4.997   5.149   2.086
 3978TIP3   OH233492   0.931   1.271   8.377
 3978TIP3    H133493   0.917   1.200   8.315
 3978TIP3    H233494   0.842   1.296   8.405
 3979TIP3   OH233495   6.793   1.185   8.372
 3979TIP3    H133496   6.777   1.134   8.292
 3979TIP3    H233497   6.861   1.248   8.347
 3980TIP3   OH233498   3.569   1.792   6.973
 3980TIP3    H133499   3.590   1.759   6.885
 3980TIP3    H233500   3.530   1.878   6.958
 3981TIP3   OH233501   2.705   2.871   0.182
 3981TIP3    H133502   2.638   2.805   0.164
 3981TIP3    H233503   2.785   2.835   0.145
 3982TIP3   OH233504   4.202   5.582   7.815
 3982TIP3    H133505   4.150   5.623   7.746
 3982TIP3    H233506   4.282   5.554   7.771
 3983TIP3   OH233507   6.295   4.320   0.727
 3983TIP3    H133508   6.209   4.278   0.729
 3983TIP3    H233509   6.345   4.269   0.663
 3984TIP3   OH233510   5.715   4.523   6.383
 3984TIP3    H133511   5.620   4.523   6.368
 3984TIP3    H233512   5.735   4.434   6.413
 3985TIP3   OH233513   6.632   1.469   7.800
 3985TIP3    H133514   6.714   1.429   7.829
 3985TIP3    H233515   6.647   1.493   7.709
 3986TIP3   OH233516   3.476   2.558   0.273
 3986TIP3    H133517   3.549   2.615   0.249
 3986TIP3    H233518   3.517   2.480   0.311
 3987TIP3   OH233519   3.551   1.435   0.718
 3987TIP3    H133520   3.591   1.427   0.805
 3987TIP3    H233521   3.556   1.529   0.698
 3988TIP3   OH233522   1.170   4.332   0.471
 3988TIP3    H133523   1.124   4.300   0.393
 3988TIP3    H233524   1.172   4.427   0.460
 3989TIP3   OH233525   2.222   5.583   7.765
 3989TIP3    H133526   2.240   5.668   7.724
 3989TIP3    H233527   2.296   5.528   7.739
 3990TIP3   OH233528   4.080   0.175   0.252
 3990TIP3    H133529   4.132   0.180   0.172
 3990TIP3    H233530   4.110   0.095   0.295
 3991TIP3   OH233531   5.019   0.749   0.063
 3991TIP3    H133532   4.945   0.782   0.114
 3991TIP3    H233533   5.053   0.825   0.017
 3992TIP3   OH233534   0.361   0.671   6.033
 3992TIP3    H133535   0.434   0.644   6.088
 3992TIP3    H233536   0.290   0.610   6.055
 3993TIP3   OH233537   1.234   3.413   1.369
 3993TIP3    H133538   1.146   3.445   1.389
 3993TIP3    H233539   1.232   3.394   1.275
 3994TIP3   OH233540   5.282   6.759   2.156
 3994TIP3    H133541   5.207   6.767   2.097
 3994TIP3    H233542   5.245   6.719   2.235
 3995TIP3   OH233543   4.921   2.701   6.560
 3995TIP3    H133544   4.946   2.610   6.576
 3995TIP3    H233545   4.839   2.695   6.511
 3996TIP3   OH233546   6.594   3.104   2.164
 3996TIP3    H133547   6.563   3.106   2.073
 3996TIP3    H233548   6.638   3.188   2.176
 3997TIP3   OH233549   0.568   0.409   8.378
 3997TIP3    H133550   0.558   0.442   8.467
 3997TIP3    H233551   0.605   0.322   8.388
 3998TIP3   OH233552   1.631   0.834   1.306
 3998TIP3    H133553   1.640   0.928   1.322
 3998TIP3    H233554   1.648   0.823   1.213
 3999TIP3   OH233555   2.604   0.448   7.233
 3999TIP3    H133556   2.546   0.375   7.254
 3999TIP3    H233557   2.679   0.407   7.190
 4000TIP3   OH233558   2.131   5.215   7.518
 4000TIP3    H133559   2.198   5.229   7.452
 4000TIP3    H233560   2.179   5.208   7.601
 4001TIP3   OH233561   1.982   6.652   6.041
 4001TIP3    H133562   1.971   6.736   6.084
 4001TIP3    H233563   1.997   6.674   5.949
 4002TIP3   OH233564   5.491   4.857   0.970
 4002TIP3    H133565   5.446   4.775   0.947
 4002TIP3    H233566   5.452   4.923   0.912
 4003TIP3   OH233567   1.374   1.297   1.755
 4003TIP3    H133568   1.279   1.309   1.761
 4003TIP3    H233569   1.391   1.287   1.662
 4004TIP3   OH233570   6.682   5.014   8.575
 4004TIP3    H133571   6.708   5.102   8.601
 4004TIP3    H233572   6.765   4.969   8.556
 4005TIP3   OH233573   3.970   2.397   0.550
 4005TIP3    H133574   3.942   2.397   0.458
 4005TIP3    H233575   3.952   2.486   0.581
 4006TIP3   OH233576   4.482   2.391   0.361
 4006TIP3    H133577   4.540   2.409   0.435
 4006TIP3    H233578   4.514   2.447   0.291
 4007TIP3   OH233579   0.775   4.168   8.567
 4007TIP3    H133580   0.730   4.122   8.639
 4007TIP3    H233581   0.705   4.189   8.505
 4008TIP3   OH233582   1.926   2.130   8.264
 4008TIP3    H133583   1.846   2.169   8.229
 4008TIP3    H233584   1.909   2.121   8.358
 4009TIP3   OH233585   4.003   1.078   7.748
 4009TIP3    H133586   3.984   1.121   7.831
 4009TIP3    H233587   3.960   0.992   7.755
 4010TIP3   OH233588   0.867   0.857   0.966
 4010TIP3    H133589   0.856   0.763   0.949
 4010TIP3    H233590   0.960   0.873   0.951
 4011TIP3   OH233591   6.870   0.166   7.791
 4011TIP3    H133592   6.799   0.109   7.818
 4011TIP3    H233593   0.063   0.113   7.802
 4012TIP3   OH233594   5.005   6.453   7.246
 4012TIP3    H133595   4.974   6.537   7.281
 4012TIP3    H233596   5.061   6.418   7.315
 4013TIP3   OH233597   2.493   5.540   7.672
 4013TIP3    H133598   2.557   5.471   7.654
 4013TIP3    H233599   2.496   5.597   7.595
 4014TIP3   OH233600   2.556   1.837   0.349
 4014TIP3    H133601   2.543   1.793   0.433
 4014TIP3    H233602   2.475   1.821   0.301
 4015TIP3   OH233603   3.842   0.792   2.338
 4015TIP3    H133604   3.870   0.874   2.378
 4015TIP3    H233605   3.915   0.732   2.353
 4016TIP3   OH233606   4.253   3.172   7.744
 4016TIP3    H133607   4.315   3.156   7.673
 4016TIP3    H233608   4.206   3.089   7.753
 4017TIP3   OH233609   6.854   2.689   7.845
 4017TIP3    H133610   6.838   2.640   7.765
 4017TIP3    H233611   0.061   2.711   7.841
 4018TIP3   OH233612   5.244   3.840   7.197
 4018TIP3    H133613   5.249   3.744   7.203
 4018TIP3    H233614   5.183   3.856   7.124
 4019TIP3   OH233615   1.984   0.684   0.657
 4019TIP3    H133616   2.013   0.644   0.576
 4019TIP3    H233617   2.034   0.765   0.663
 4020TIP3   OH233618   2.393   3.972   7.922
 4020TIP3    H133619   2.459   4.011   7.979
 4020TIP3    H233620   2.325   3.941   7.983
 4021TIP3   OH233621   3.835   0.149   1.656
 4021TIP3    H133622   3.760   0.196   1.693
 4021TIP3    H233623   3.806   0.058   1.648
 4022TIP3   OH233624   1.293   2.086   8.354
 4022TIP3    H133625   1.255   2.170   8.328
 4022TIP3    H233626   1.260   2.073   8.444
 4023TIP3   OH233627   1.059   1.967   0.192
 4023TIP3    H133628   1.123   1.897   0.202
 4023TIP3    H233629   1.050   1.978   0.098
 4024TIP3   OH233630   6.168   5.966   6.946
 4024TIP3    H133631   6.086   5.919   6.929
 4024TIP3    H233632   6.231   5.924   6.888
 4025TIP3   OH233633   4.661   3.837   0.441
 4025TIP3    H133634   4.737   3.830   0.499
 4025TIP3    H233635   4.588   3.860   0.498
 4026TIP3   OH233636   5.410   2.171   2.015
 4026TIP3    H133637   5.385   2.238   2.079
 4026TIP3    H233638   5.492   2.201   1.978
 4027TIP3   OH233639   3.965   5.375   7.837
 4027TIP3    H133640   3.887   5.359   7.783
 4027TIP3    H233641   3.977   5.470   7.832
 4028TIP3   OH233642   0.780   4.107   8.158
 4028TIP3    H133643   0.741   4.159   8.228
 4028TIP3    H233644   0.779   4.017   8.191
 4029TIP3   OH233645   6.106   2.774   7.490
 4029TIP3    H133646   6.199   2.753   7.504
 4029TIP3    H233647   6.060   2.726   7.559
 4030TIP3   OH233648   4.829   5.634   5.961
 4030TIP3    H133649   4.758   5.589   5.913
 4030TIP3    H233650   4.835   5.586   6.043
 4031TIP3   OH233651   5.139   6.726   7.219
 4031TIP3    H133652   5.080   6.763   7.153
 4031TIP3    H233653   5.081   6.696   7.288
 4032TIP3   OH233654   4.549   1.828   1.652
 4032TIP3    H133655   4.470   1.778   1.675
 4032TIP3    H233656   4.621   1.770   1.677
 4033TIP3   OH233657   4.530   2.775   1.312
 4033TIP3    H133658   4.536   2.866   1.341
 4033TIP3    H233659   4.586   2.726   1.372
 4034TIP3   OH233660   3.025   4.442   1.701
 4034TIP3    H133661   3.079   4.443   1.622
 4034TIP3    H233662   3.045   4.525   1.745
 4035TIP3   OH233663   1.227   0.003   1.865
 4035TIP3    H133664   1.261   6.803   1.892
 4035TIP3    H233665   1.137   0.004   1.896
 4036TIP3   OH233666   1.066   6.659   1.034
 4036TIP3    H133667   1.086   6.725   0.967
 4036TIP3    H233668   1.031   6.585   0.984
 4037TIP3   OH233669   1.812   2.884   2.122
 4037TIP3    H133670   1.761   2.930   2.055
 4037TIP3    H233671   1.776   2.915   2.205
 4038TIP3   OH233672   4.339   3.447   8.152
 4038TIP3    H133673   4.366   3.527   8.106
 4038TIP3    H233674   4.315   3.387   8.082
 4039TIP3   OH233675   5.313   5.211   1.421
 4039TIP3    H133676   5.276   5.299   1.411
 4039TIP3    H233677   5.407   5.225   1.432
 4040TIP3   OH233678   1.896   4.098   8.201
 4040TIP3    H133679   1.867   4.171   8.145
 4040TIP3    H233680   1.978   4.069   8.162
 4041TIP3   OH233681   2.872   1.393   7.999
 4041TIP3    H133682   2.815   1.317   7.992
 4041TIP3    H233683   2.888   1.403   8.092
 4042TIP3   OH233684   6.035   1.741   2.549
 4042TIP3    H133685   6.040   1.795   2.469
 4042TIP3    H233686   6.061   1.800   2.619
 4043TIP3   OH233687   2.790   1.742   0.096
 4043TIP3    H133688   2.832   1.819   0.132
 4043TIP3    H233689   2.735   1.776   0.025
 4044TIP3   OH233690   1.431   1.584   8.341
 4044TIP3    H133691   1.338   1.604   8.355
 4044TIP3    H233692   1.455   1.528   8.416
 4045TIP3   OH233693   1.149   5.834   6.542
 4045TIP3    H133694   1.125   5.912   6.493
 4045TIP3    H233695   1.194   5.778   6.478
 4046TIP3   OH233696   5.424   6.752   8.611
 4046TIP3    H133697   5.361   6.802   8.559
 4046TIP3    H233698   5.390   6.663   8.611
 4047TIP3   OH233699   5.115   0.364   8.543
 4047TIP3    H133700   5.103   0.410   8.461
 4047TIP3    H233701   5.127   0.272   8.518
 4048TIP3   OH233702   6.614   6.131   7.548
 4048TIP3    H133703   6.625   6.113   7.454
 4048TIP3    H233704   6.523   6.163   7.555
 4049TIP3   OH233705   4.284   2.698   1.457
 4049TIP3    H133706   4.244   2.658   1.381
 4049TIP3    H233707   4.359   2.747   1.423
 4050TIP3   OH233708   6.783   6.103   1.617
 4050TIP3    H133709   6.856   6.041   1.622
 4050TIP3    H233710   6.819   6.185   1.649
 4051TIP3   OH233711   2.092   1.533   6.806
 4051TIP3    H133712   2.051   1.568   6.726
 4051TIP3    H233713   2.019   1.506   6.861
 4052TIP3   OH233714   1.349   1.592   0.537
 4052TIP3    H133715   1.370   1.501   0.560
 4052TIP3    H233716   1.419   1.619   0.478
 4053TIP3   OH233717   2.788   2.651   2.265
 4053TIP3    H133718   2.820   2.628   2.352
 4053TIP3    H233719   2.714   2.710   2.283
 4054TIP3   OH233720   6.423   1.311   7.898
 4054TIP3    H133721   6.336   1.328   7.861
 4054TIP3    H233722   6.482   1.369   7.848
 4055TIP3   OH233723   0.549   1.586   0.168
 4055TIP3    H133724   0.562   1.596   0.074
 4055TIP3    H233725   0.553   1.491   0.183
 4056TIP3   OH233726   0.629   2.784   6.929
 4056TIP3    H133727   0.659   2.792   6.838
 4056TIP3    H233728   0.697   2.826   6.981
 4057TIP3   OH233729   2.925   1.593   1.563
 4057TIP3    H133730   2.831   1.573   1.556
 4057TIP3    H233731   2.967   1.527   1.508
 4058TIP3   OH233732   1.395   6.067   7.872
 4058TIP3    H133733   1.445   6.128   7.926
 4058TIP3    H233734   1.422   6.086   7.782
 4059TIP3   OH233735   3.390   6.630   8.433
 4059TIP3    H133736   3.425   6.719   8.442
 4059TIP3    H233737   3.449   6.587   8.371
 4060TIP3   OH233738   0.133   3.903   6.916
 4060TIP3    H133739   0.056   3.905   6.973
 4060TIP3    H233740   0.158   3.995   6.907
 4061TIP3   OH233741   4.487   5.123   6.703
 4061TIP3    H133742   4.393   5.122   6.686
 4061TIP3    H233743   4.527   5.098   6.620
 4062TIP3   OH233744   0.986   6.504   8.430
 4062TIP3    H133745   0.937   6.582   8.403
 4062TIP3    H233746   0.935   6.467   8.502
 4063TIP3   OH233747   6.292   2.004   8.427
 4063TIP3    H133748   6.300   2.036   8.517
 4063TIP3    H233749   6.277   2.082   8.374
 4064TIP3   OH233750   4.872   5.176   2.201
 4064TIP3    H133751   4.858   5.250   2.261
 4064TIP3    H233752   4.858   5.098   2.255
 4065TIP3   OH233753   5.675   0.698   0.062
 4065TIP3    H133754   5.723   0.765   0.110
 4065TIP3    H233755   5.730   0.679   8.648
 4066TIP3   OH233756   2.311   4.496   8.291
 4066TIP3    H133757   2.395   4.492   8.245
 4066TIP3    H233758   2.247   4.513   8.223
 4067TIP3   OH233759   2.971   2.896   8.045
 4067TIP3    H133760   2.999   2.814   8.086
 4067TIP3    H233761   3.002   2.965   8.103
 4068TIP3   OH233762   2.353   1.939   1.671
 4068TIP3    H133763   2.351   1.896   1.757
 4068TIP3    H233764   2.266   1.979   1.662
 4069TIP3   OH233765   4.523   2.947   0.153
 4069TIP3    H133766   4.568   2.959   0.070
 4069TIP3    H233767   4.442   2.901   0.131
 4070TIP3   OH233768   0.437   1.372   7.603
 4070TIP3    H133769   0.505   1.439   7.604
 4070TIP3    H233770   0.484   1.290   7.619
 4071TIP3   OH233771   4.321   0.179   0.576
 4071TIP3    H133772   4.414   0.156   0.574
 4071TIP3    H233773   4.278   0.112   0.523
 4072TIP3   OH233774   4.560   6.775   7.839
 4072TIP3    H133775   4.569   6.755   7.932
 4072TIP3    H233776   4.466   6.786   7.826
 4073TIP3   OH233777   5.899   0.740   1.033
 4073TIP3    H133778   5.974   0.682   1.022
 4073TIP3    H233779   5.923   0.819   0.986
 4074TIP3   OH233780   3.959   1.851   0.365
 4074TIP3    H133781   4.033   1.793   0.346
 4074TIP3    H233782   3.883   1.794   0.364
 4075TIP3   OH233783   4.652   3.482   1.021
 4075TIP3    H133784   4.699   3.479   1.104
 4075TIP3    H233785   4.560   3.485   1.046
 4076TIP3   OH233786   1.029   4.314   6.790
 4076TIP3    H133787   1.049   4.405   6.767
 4076TIP3    H233788   1.111   4.266   6.774
 4077TIP3   OH233789   1.630   1.285   2.371
 4077TIP3    H133790   1.591   1.239   2.296
 4077TIP3    H233791   1.570   1.267   2.443
 4078TIP3   OH233792   5.577   2.935   7.562
 4078TIP3    H133793   5.565   2.887   7.480
 4078TIP3    H233794   5.635   3.007   7.540
 4079TIP3   OH233795   4.926   2.789   1.390
 4079TIP3    H133796   4.989   2.841   1.438
 4079TIP3    H233797   4.891   2.849   1.324
 4080TIP3   OH233798   0.477   2.856   1.750
 4080TIP3    H133799   0.567   2.833   1.774
 4080TIP3    H233800   0.484   2.945   1.714
 4081TIP3   OH233801   1.551   5.087   1.075
 4081TIP3    H133802   1.538   5.046   1.161
 4081TIP3    H233803   1.465   5.085   1.034
 4082TIP3   OH233804   2.255   5.954   0.641
 4082TIP3    H133805   2.247   5.875   0.587
 4082TIP3    H233806   2.171   5.960   0.687
 4083TIP3   OH233807   2.610   6.656   0.513
 4083TIP3    H133808   2.680   6.665   0.578
 4083TIP3    H233809   2.532   6.687   0.558
 4084TIP3   OH233810   4.050   2.924   1.598
 4084TIP3    H133811   4.035   2.889   1.686
 4084TIP3    H233812   4.019   3.014   1.602
 4085TIP3   OH233813   4.911   1.083   8.010
 4085TIP3    H133814   4.980   1.126   8.061
 4085TIP3    H233815   4.901   1.137   7.932
 4086TIP3   OH233816   5.832   4.433   0.127
 4086TIP3    H133817   5.753   4.459   0.173
 4086TIP3    H233818   5.883   4.384   0.192
 4087TIP3   OH233819   3.489   6.669   0.270
 4087TIP3    H133820   3.524   6.593   0.223
 4087TIP3    H233821   3.567   6.713   0.305
 4088TIP3   OH233822   4.192   0.068   7.797
 4088TIP3    H133823   4.240   0.144   7.829
 4088TIP3    H233824   4.238   0.042   7.718
 4089TIP3   OH233825   5.239   6.066   1.166
 4089TIP3    H133826   5.173   6.132   1.189
 4089TIP3    H233827   5.271   6.093   1.080
 4090TIP3   OH233828   5.519   6.880   7.508
 4090TIP3    H133829   5.459   6.822   7.556
 4090TIP3    H233830   5.483   6.883   7.420
 4091TIP3   OH233831   5.422   6.741   0.598
 4091TIP3    H133832   5.384   6.739   0.510
 4091TIP3    H233833   5.405   6.829   0.630
 4092TIP3   OH233834   1.358   4.706   7.439
 4092TIP3    H133835   1.274   4.744   7.414
 4092TIP3    H233836   1.396   4.674   7.357
 4093TIP3   OH233837   4.975   5.320   0.611
 4093TIP3    H133838   5.017   5.279   0.687
 4093TIP3    H233839   4.890   5.275   0.604
 4094TIP3   OH233840   3.885   4.008   8.375
 4094TIP3    H133841   3.900   3.928   8.425
 4094TIP3    H233842   3.887   4.078   8.440
 4095TIP3   OH233843   1.170   4.935   0.598
 4095TIP3    H133844   1.250   4.965   0.640
 4095TIP3    H233845   1.101   4.988   0.639
 4096TIP3   OH233846   0.785   1.464   0.622
 4096TIP3    H133847   0.811   1.402   0.555
 4096TIP3    H233848   0.693   1.442   0.641
 4097TIP3   OH233849   0.090   0.556   1.721
 4097TIP3    H133850   0.028   0.554   1.648
 4097TIP3    H233851   0.055   0.622   1.781
 4098TIP3   OH233852   3.092   0.735   7.227
 4098TIP3    H133853   3.085   0.787   7.306
 4098TIP3    H233854   3.094   0.645   7.257
 4099TIP3   OH233855   2.902   3.130   1.676
 4099TIP3    H133856   2.923   3.050   1.628
 4099TIP3    H233857   2.987   3.171   1.693
 4100TIP3   OH233858   6.026   6.801   8.439
 4100TIP3    H133859   6.020   6.707   8.459
 4100TIP3    H233860   5.949   6.818   8.384
 4101TIP3   OH233861   3.576   6.356   7.439
 4101TIP3    H133862   3.619   6.441   7.438
 4101TIP3    H233863   3.589   6.323   7.528
 4102TIP3   OH233864   5.161   2.556   2.074
 4102TIP3    H133865   5.167   2.543   2.169
 4102TIP3    H233866   5.246   2.531   2.040
 4103TIP3   OH233867   2.528   6.800   1.506
 4103TIP3    H133868   2.550   0.002   1.538
 4103TIP3    H233869   2.573   6.793   1.422
 4104TIP3   OH233870   4.702   6.828   1.238
 4104TIP3    H133871   4.616   6.846   1.201
 4104TIP3    H233872   4.695   6.739   1.273
 4105TIP3   OH233873   6.234   2.700   7.772
 4105TIP3    H133874   6.141   2.689   7.751
 4105TIP3    H233875   6.239   2.786   7.814
 4106TIP3   OH233876   3.258   1.536   0.271
 4106TIP3    H133877   3.293   1.475   0.336
 4106TIP3    H233878   3.163   1.537   0.288
 4107TIP3   OH233879   6.187   3.882   6.796
 4107TIP3    H133880   6.156   3.832   6.721
 4107TIP3    H233881   6.209   3.968   6.760
 4108TIP3   OH233882   2.726   1.944   1.586
 4108TIP3    H133883   2.665   1.987   1.527
 4108TIP3    H233884   2.787   1.897   1.529
 4109TIP3   OH233885   5.765   4.304   0.764
 4109TIP3    H133886   5.792   4.386   0.806
 4109TIP3    H233887   5.677   4.288   0.799
 4110TIP3   OH233888   3.030   0.941   0.375
 4110TIP3    H133889   3.052   0.849   0.388
 4110TIP3    H233890   3.067   0.962   0.290
 4111TIP3   OH233891   1.410   0.227   0.124
 4111TIP3    H133892   1.493   0.238   0.079
 4111TIP3    H233893   1.370   0.314   0.122
 4112TIP3   OH233894   1.726   1.007   7.053
 4112TIP3    H133895   1.642   1.021   7.010
 4112TIP3    H233896   1.775   0.951   6.993
 4113TIP3   OH233897   5.620   3.148   7.311
 4113TIP3    H133898   5.548   3.089   7.289
 4113TIP3    H233899   5.699   3.098   7.290
 4114TIP3   OH233900   1.807   1.154   7.614
 4114TIP3    H133901   1.747   1.093   7.656
 4114TIP3    H233902   1.880   1.099   7.584
 4115TIP3   OH233903   5.320   3.699   6.888
 4115TIP3    H133904   5.231   3.733   6.898
 4115TIP3    H233905   5.353   3.740   6.809
 4116TIP3   OH233906   4.463   1.010   8.593
 4116TIP3    H133907   4.483   0.979   0.019
 4116TIP3    H233908   4.388   1.068   8.605
 4117TIP3   OH233909   2.126   4.068   7.184
 4117TIP3    H133910   2.069   4.102   7.115
 4117TIP3    H233911   2.197   4.025   7.137
 4118TIP3   OH233912   5.890   5.436   7.223
 4118TIP3    H133913   5.843   5.515   7.196
 4118TIP3    H233914   5.879   5.375   7.150
 4119TIP3   OH233915   4.705   3.565   7.301
 4119TIP3    H133916   4.656   3.597   7.377
 4119TIP3    H233917   4.646   3.579   7.227
 4120TIP3   OH233918   1.734   0.299   0.354
 4120TIP3    H133919   1.666   0.234   0.371
 4120TIP3    H233920   1.710   0.374   0.408
 4121TIP3   OH233921   6.180   5.846   0.032
 4121TIP3    H133922   6.187   5.819   0.124
 4121TIP3    H233923   6.107   5.795   8.660
 4122TIP3   OH233924   2.590   3.019   6.223
 4122TIP3    H133925   2.661   3.071   6.186
 4122TIP3    H233926   2.511   3.050   6.178
 4123TIP3   OH233927   4.125   3.531   0.749
 4123TIP3    H133928   4.074   3.549   0.669
 4123TIP3    H233929   4.149   3.439   0.742
 4124TIP3   OH233930   3.715   1.349   1.238
 4124TIP3    H133931   3.744   1.259   1.225
 4124TIP3    H233932   3.784   1.389   1.290
 4125TIP3   OH233933   5.795   2.364   0.978
 4125TIP3    H133934   5.840   2.317   1.049
 4125TIP3    H233935   5.864   2.416   0.937
 4126TIP3   OH233936   6.707   6.358   7.711
 4126TIP3    H133937   6.795   6.342   7.745
 4126TIP3    H233938   6.689   6.281   7.657
 4127TIP3   OH233939   0.553   4.737   8.008
 4127TIP3    H133940   0.500   4.812   7.981
 4127TIP3    H233941   0.643   4.764   7.991
 4128TIP3   OH233942   6.409   4.626   8.552
 4128TIP3    H133943   6.344   4.658   8.614
 4128TIP3    H233944   6.379   4.539   8.527
 4129TIP3   OH233945   5.101   1.810   8.151
 4129TIP3    H133946   5.106   1.715   8.143
 4129TIP3    H233947   5.166   1.833   8.218
 4130TIP3   OH233948   3.475   0.613   0.027
 4130TIP3    H133949   3.397   0.593   0.080
 4130TIP3    H233950   3.440   0.640   8.605
 4131TIP3   OH233951   2.778   6.155   7.446
 4131TIP3    H133952   2.863   6.112   7.456
 4131TIP3    H233953   2.766   6.206   7.526
 4132TIP3   OH233954   1.909   4.669   0.953
 4132TIP3    H133955   1.864   4.684   1.036
 4132TIP3    H233956   1.994   4.633   0.977
 4133TIP3   OH233957   2.912   5.716   6.615
 4133TIP3    H133958   2.886   5.635   6.571
 4133TIP3    H233959   2.869   5.786   6.565
 4134TIP3   OH233960   0.512   5.630   6.640
 4134TIP3    H133961   0.434   5.592   6.600
 4134TIP3    H233962   0.584   5.603   6.582
 4135TIP3   OH233963   1.200   4.022   7.779
 4135TIP3    H133964   1.154   4.024   7.863
 4135TIP3    H233965   1.231   3.932   7.771
 4136TIP3   OH233966   5.478   0.408   8.370
 4136TIP3    H133967   5.416   0.479   8.386
 4136TIP3    H233968   5.523   0.433   8.290
 4137TIP3   OH233969   0.986   2.020   6.837
 4137TIP3    H133970   0.989   1.991   6.746
 4137TIP3    H233971   0.988   1.940   6.888
 4138TIP3   OH233972   1.686   3.403   0.099
 4138TIP3    H133973   1.600   3.437   0.076
 4138TIP3    H233974   1.711   3.452   0.177
 4139TIP3   OH233975   6.740   2.069   7.758
 4139TIP3    H133976   6.677   2.079   7.686
 4139TIP3    H233977   6.707   2.128   7.826
 4140TIP3   OH233978   0.850   4.454   0.221
 4140TIP3    H133979   0.920   4.517   0.239
 4140TIP3    H233980   0.896   4.374   0.198
 4141TIP3   OH233981   2.207   6.247   7.063
 4141TIP3    H133982   2.240   6.219   6.977
 4141TIP3    H233983   2.255   6.328   7.081
 4142TIP3   OH233984   5.827   0.324   7.919
 4142TIP3    H133985   5.882   0.323   7.997
 4142TIP3    H233986   5.782   0.239   7.920
 4143TIP3   OH233987   0.036   3.341   1.489
 4143TIP3    H133988   0.082   3.409   1.441
 4143TIP3    H233989   0.081   3.260   1.465
 4144TIP3   OH233990   1.688   4.802   7.937
 4144TIP3    H133991   1.660   4.859   8.008
 4144TIP3    H233992   1.617   4.807   7.872
 4145TIP3   OH233993   0.019   3.054   0.427
 4145TIP3    H133994   6.817   3.026   0.401
 4145TIP3    H233995   0.063   2.973   0.454
 4146TIP3   OH233996   4.794   6.235   6.193
 4146TIP3    H133997   4.765   6.150   6.227
 4146TIP3    H233998   4.742   6.299   6.242
 4147TIP3   OH233999   1.284   2.619   8.285
 4147TIP3    H134000   1.365   2.567   8.285
 4147TIP3    H234001   1.287   2.668   8.203
 4148TIP3   OH234002   5.489   0.640   1.199
 4148TIP3    H134003   5.581   0.620   1.215
 4148TIP3    H234004   5.488   0.734   1.182
 4149TIP3   OH234005   2.558   4.472   7.569
 4149TIP3    H134006   2.602   4.437   7.646
 4149TIP3    H234007   2.482   4.415   7.557
 4150TIP3   OH234008   0.754   4.955   8.093
 4150TIP3    H134009   0.797   4.924   8.013
 4150TIP3    H234010   0.796   4.905   8.163
 4151TIP3   OH234011   5.034   2.780   8.170
 4151TIP3    H134012   5.017   2.690   8.198
 4151TIP3    H234013   4.975   2.794   8.096
 4152TIP3   OH234014   3.352   3.396   0.589
 4152TIP3    H134015   3.274   3.342   0.599
 4152TIP3    H234016   3.330   3.478   0.634
 4153TIP3   OH234017   2.790   4.203   1.655
 4153TIP3    H134018   2.753   4.231   1.571
 4153TIP3    H234019   2.714   4.180   1.708
 4154TIP3   OH234020   6.209   2.696   0.246
 4154TIP3    H134021   6.133   2.677   0.301
 4154TIP3    H234022   6.269   2.622   0.261
 4155TIP3   OH234023   5.718   1.940   1.928
 4155TIP3    H134024   5.741   2.006   1.863
 4155TIP3    H234025   5.655   1.884   1.883
 4156TIP3   OH234026   0.865   5.001   7.421
 4156TIP3    H134027   0.858   5.016   7.515
 4156TIP3    H234028   0.872   5.089   7.383
 4157TIP3   OH234029   3.208   4.486   2.296
 4157TIP3    H134030   3.161   4.569   2.286
 4157TIP3    H234031   3.288   4.509   2.344
 4158TIP3   OH234032   1.825   0.611   7.305
 4158TIP3    H134033   1.896   0.655   7.351
 4158TIP3    H234034   1.851   0.615   7.213
 4159TIP3   OH234035   2.396   1.516   1.519
 4159TIP3    H134036   2.393   1.487   1.428
 4159TIP3    H234037   2.334   1.588   1.524
 4160TIP3   OH234038   4.326   1.213   7.409
 4160TIP3    H134039   4.361   1.302   7.400
 4160TIP3    H234040   4.231   1.224   7.402
 4161TIP3   OH234041   2.878   3.750   0.517
 4161TIP3    H134042   2.938   3.808   0.469
 4161TIP3    H234043   2.862   3.795   0.600
 4162TIP3   OH234044   4.586   3.912   8.001
 4162TIP3    H134045   4.582   3.967   8.078
 4162TIP3    H234046   4.558   3.968   7.929
 4163TIP3   OH234047   3.889   1.178   0.775
 4163TIP3    H134048   3.864   1.236   0.703
 4163TIP3    H234049   3.937   1.106   0.733
 4164TIP3   OH234050   1.182   3.714   7.681
 4164TIP3    H134051   1.098   3.734   7.723
 4164TIP3    H234052   1.170   3.739   7.590
 4165TIP3   OH234053   2.890   6.604   6.286
 4165TIP3    H134054   2.867   6.693   6.312
 4165TIP3    H234055   2.865   6.549   6.360
 4166TIP3   OH234056   2.589   2.988   1.154
 4166TIP3    H134057   2.658   2.922   1.161
 4166TIP3    H234058   2.510   2.939   1.133
 4167TIP3   OH234059   2.717   5.131   1.191
 4167TIP3    H134060   2.642   5.123   1.249
 4167TIP3    H234061   2.716   5.222   1.162
 4168TIP3   OH234062   6.391   3.846   0.928
 4168TIP3    H134063   6.459   3.861   0.863
 4168TIP3    H234064   6.406   3.913   0.994
 4169TIP3   OH234065   4.564   2.423   7.823
 4169TIP3    H134066   4.606   2.418   7.738
 4169TIP3    H234067   4.596   2.346   7.871
 4170TIP3   OH234068   4.463   6.079   2.348
 4170TIP3    H134069   4.408   6.002   2.338
 4170TIP3    H234070   4.418   6.133   2.413
 4171TIP3   OH234071   5.979   5.055   0.387
 4171TIP3    H134072   5.926   4.982   0.420
 4171TIP3    H234073   6.065   5.041   0.427
 4172TIP3   OH234074   3.301   5.465   0.490
 4172TIP3    H134075   3.390   5.450   0.522
 4172TIP3    H234076   3.248   5.399   0.534
 4173TIP3   OH234077   0.444   3.831   1.609
 4173TIP3    H134078   0.412   3.920   1.625
 4173TIP3    H234079   0.366   3.776   1.612
 4174TIP3   OH234080   4.470   2.025   7.623
 4174TIP3    H134081   4.547   2.000   7.675
 4174TIP3    H234082   4.466   1.959   7.553
 4175TIP3   OH234083   4.476   3.134   0.949
 4175TIP3    H134084   4.563   3.107   0.981
 4175TIP3    H234085   4.447   3.200   1.012
 4176TIP3   OH234086   1.396   3.699   0.516
 4176TIP3    H134087   1.324   3.748   0.557
 4176TIP3    H234088   1.466   3.764   0.508
 4177TIP3   OH234089   4.036   1.096   1.690
 4177TIP3    H134090   4.073   1.119   1.775
 4177TIP3    H234091   4.039   1.000   1.688
 4178TIP3   OH234092   2.768   3.571   1.199
 4178TIP3    H134093   2.776   3.483   1.235
 4178TIP3    H234094   2.733   3.558   1.111
 4179TIP3   OH234095   3.855   2.080   7.076
 4179TIP3    H134096   3.796   2.009   7.102
 4179TIP3    H234097   3.873   2.064   6.984
 4180TIP3   OH234098   4.745   1.533   7.791
 4180TIP3    H134099   4.669   1.562   7.841
 4180TIP3    H234100   4.815   1.593   7.816
 4181TIP3   OH234101   3.690   2.006   7.988
 4181TIP3    H134102   3.708   1.956   7.908
 4181TIP3    H234103   3.776   2.026   8.023
 4182TIP3   OH234104   4.615   0.420   2.105
 4182TIP3    H134105   4.642   0.430   2.196
 4182TIP3    H234106   4.524   0.450   2.103
 4183TIP3   OH234107   0.365   1.884   2.628
 4183TIP3    H134108   0.426   1.949   2.664
 4183TIP3    H234109   0.411   1.848   2.552
 4184TIP3   OH234110   1.283   1.199   7.467
 4184TIP3    H134111   1.266   1.274   7.410
 4184TIP3    H234112   1.238   1.125   7.425
 4185TIP3   OH234113   6.804   1.103   7.197
 4185TIP3    H134114   6.709   1.102   7.205
 4185TIP3    H234115   6.822   1.177   7.139
 4186TIP3   OH234116   6.652   4.294   7.990
 4186TIP3    H134117   6.641   4.362   8.056
 4186TIP3    H234118   6.689   4.340   7.914
 4187TIP3   OH234119   3.480   2.236   6.772
 4187TIP3    H134120   3.548   2.172   6.751
 4187TIP3    H234121   3.527   2.320   6.776
 4188TIP3   OH234122   3.810   5.856   7.095
 4188TIP3    H134123   3.779   5.835   7.183
 4188TIP3    H234124   3.746   5.816   7.036
 4189TIP3   OH234125   4.823   3.414   7.861
 4189TIP3    H134126   4.732   3.384   7.866
 4189TIP3    H234127   4.873   3.344   7.902
 4190TIP3   OH234128   3.359   4.055   1.537
 4190TIP3    H134129   3.391   4.146   1.543
 4190TIP3    H234130   3.438   4.002   1.528
 4191TIP3   OH234131   5.051   1.825   0.671
 4191TIP3    H134132   4.985   1.840   0.602
 4191TIP3    H234133   5.051   1.731   0.683
 4192TIP3   OH234134   4.629   2.218   7.453
 4192TIP3    H134135   4.678   2.137   7.462
 4192TIP3    H234136   4.551   2.205   7.506
 4193TIP3   OH234137   5.710   1.155   1.306
 4193TIP3    H134138   5.633   1.135   1.359
 4193TIP3    H234139   5.784   1.144   1.366
 4194TIP3   OH234140   1.056   5.480   8.378
 4194TIP3    H134141   1.052   5.405   8.437
 4194TIP3    H234142   0.979   5.532   8.399
 4195TIP3   OH234143   6.149   4.213   7.529
 4195TIP3    H134144   6.154   4.126   7.568
 4195TIP3    H234145   6.145   4.198   7.435
 4196TIP3   OH234146   2.511   0.190   1.226
 4196TIP3    H134147   2.603   0.214   1.237
 4196TIP3    H234148   2.484   0.238   1.148
 4197TIP3   OH234149   1.394   6.711   7.008
 4197TIP3    H134150   1.418   6.636   6.954
 4197TIP3    H234151   1.460   6.778   6.988
 4198TIP3   OH234152   6.248   2.616   0.862
 4198TIP3    H134153   6.316   2.573   0.913
 4198TIP3    H234154   6.256   2.709   0.883
 4199TIP3   OH234155   6.689   0.082   6.920
 4199TIP3    H134156   6.728   0.004   6.880
 4199TIP3    H234157   6.628   0.047   6.985
 4200TIP3   OH234158   0.417   0.984   0.235
 4200TIP3    H134159   0.328   0.973   0.204
 4200TIP3    H234160   0.436   1.077   0.222
 4201TIP3   OH234161   5.012   1.459   1.947
 4201TIP3    H134162   5.047   1.385   1.996
 4201TIP3    H234163   4.920   1.465   1.975
 4202TIP3   OH234164   0.029   0.932   1.119
 4202TIP3    H134165   0.004   0.840   1.132
 4202TIP3    H234166   0.087   0.951   1.193
 4203TIP3   OH234167   5.263   5.660   8.586
 4203TIP3    H134168   5.272   5.652   0.019
 4203TIP3    H234169   5.253   5.570   8.554
 4204TIP3   OH234170   1.696   6.840   8.037
 4204TIP3    H134171   1.665   6.836   8.127
 4204TIP3    H234172   1.790   6.823   8.042
 4205TIP3   OH234173   2.229   5.405   0.468
 4205TIP3    H134174   2.312   5.375   0.505
 4205TIP3    H234175   2.190   5.326   0.430
 4206TIP3   OH234176   0.610   2.880   1.039
 4206TIP3    H134177   0.622   2.967   1.002
 4206TIP3    H234178   0.535   2.844   0.993
 4207TIP3   OH234179   5.327   3.044   7.594
 4207TIP3    H134180   5.421   3.027   7.585
 4207TIP3    H234181   5.302   2.997   7.674
 4208TIP3   OH234182   3.490   3.073   7.698
 4208TIP3    H134183   3.478   2.978   7.701
 4208TIP3    H234184   3.561   3.092   7.759
 4209TIP3   OH234185   4.999   4.658   8.230
 4209TIP3    H134186   5.012   4.613   8.147
 4209TIP3    H234187   4.907   4.684   8.230
 4210TIP3   OH234188   0.955   3.087   0.352
 4210TIP3    H134189   1.023   3.104   0.417
 4210TIP3    H234190   0.997   3.106   0.268
 4211TIP3   OH234191   5.890   1.837   2.127
 4211TIP3    H134192   5.816   1.865   2.074
 4211TIP3    H234193   5.863   1.753   2.164
 4212TIP3   OH234194   0.113   3.052   0.928
 4212TIP3    H134195   0.128   3.143   0.953
 4212TIP3    H234196   0.098   3.055   0.833
 4213TIP3   OH234197   1.475   5.830   0.797
 4213TIP3    H134198   1.405   5.880   0.756
 4213TIP3    H234199   1.523   5.894   0.849
 4214TIP3   OH234200   2.735   6.855   0.332
 4214TIP3    H134201   2.681   6.846   0.254
 4214TIP3    H234202   2.698   6.792   0.394
 4215TIP3   OH234203   5.202   3.204   1.805
 4215TIP3    H134204   5.252   3.252   1.871
 4215TIP3    H234205   5.124   3.173   1.851
 4216TIP3   OH234206   4.882   4.679   0.624
 4216TIP3    H134207   4.972   4.655   0.648
 4216TIP3    H234208   4.873   4.650   0.533
 4217TIP3   OH234209   1.794   4.337   8.074
 4217TIP3    H134210   1.872   4.389   8.051
 4217TIP3    H234211   1.766   4.298   7.991
 4218TIP3   OH234212   2.559   4.890   0.971
 4218TIP3    H134213   2.622   4.825   0.939
 4218TIP3    H234214   2.486   4.838   1.004
 4219TIP3   OH234215   3.278   5.517   7.650
 4219TIP3    H134216   3.302   5.541   7.560
 4219TIP3    H234217   3.228   5.436   7.640
 4220TIP3   OH234218   3.459   1.120   0.467
 4220TIP3    H134219   3.489   1.174   0.395
 4220TIP3    H234220   3.531   1.060   0.485
 4221TIP3   OH234221   1.367   1.911   7.510
 4221TIP3    H134222   1.278   1.944   7.511
 4221TIP3    H234223   1.383   1.882   7.600
 4222TIP3   OH234224   2.860   6.490   7.804
 4222TIP3    H134225   2.771   6.456   7.800
 4222TIP3    H234226   2.869   6.527   7.892
 4223TIP3   OH234227   1.424   2.674   7.161
 4223TIP3    H134228   1.498   2.638   7.112
 4223TIP3    H234229   1.401   2.754   7.114
 4224TIP3   OH234230   5.812   3.228   1.891
 4224TIP3    H134231   5.896   3.257   1.927
 4224TIP3    H234232   5.779   3.165   1.956
 4225TIP3   OH234233   0.967   5.093   0.262
 4225TIP3    H134234   0.926   5.007   0.273
 4225TIP3    H234235   0.901   5.155   0.293
 4226TIP3   OH234236   5.161   0.114   0.468
 4226TIP3    H134237   5.172   0.067   0.385
 4226TIP3    H234238   5.223   0.187   0.462
 4227TIP3   OH234239   1.673   0.398   7.442
 4227TIP3    H134240   1.690   0.493   7.440
 4227TIP3    H234241   1.724   0.363   7.368
 4228TIP3   OH234242   5.220   2.657   1.749
 4228TIP3    H134243   5.314   2.641   1.741
 4228TIP3    H234244   5.186   2.580   1.794
 4229TIP3   OH234245   6.847   0.414   0.616
 4229TIP3    H134246   6.808   0.388   0.533
 4229TIP3    H234247   0.053   0.391   0.608
 4230TIP3   OH234248   6.752   1.990   1.595
 4230TIP3    H134249   6.717   1.954   1.513
 4230TIP3    H234250   6.763   1.913   1.651
 4231TIP3   OH234251   3.425   0.595   8.257
 4231TIP3    H134252   3.375   0.656   8.311
 4231TIP3    H234253   3.378   0.592   8.173
 4232TIP3   OH234254   1.747   4.637   1.177
 4232TIP3    H134255   1.660   4.676   1.183
 4232TIP3    H234256   1.733   4.553   1.132
 4233TIP3   OH234257   0.951   3.502   0.565
 4233TIP3    H134258   0.923   3.514   0.656
 4233TIP3    H234259   1.016   3.432   0.570
 4234TIP3   OH234260   1.943   0.922   8.218
 4234TIP3    H134261   1.895   0.995   8.180
 4234TIP3    H234262   1.987   0.960   8.295
 4235TIP3   OH234263   2.253   1.395   7.673
 4235TIP3    H134264   2.330   1.436   7.713
 4235TIP3    H234265   2.257   1.421   7.581
 4236TIP3   OH234266   1.193   5.754   8.461
 4236TIP3    H134267   1.099   5.769   8.447
 4236TIP3    H234268   1.227   5.841   8.484
 4237TIP3   OH234269   2.248   1.275   0.450
 4237TIP3    H134270   2.312   1.204   0.460
 4237TIP3    H234271   2.296   1.344   0.405
 4238TIP3   OH234272   4.989   2.411   0.100
 4238TIP3    H134273   4.973   2.505   0.108
 4238TIP3    H234274   4.943   2.372   0.174
 4239TIP3   OH234275   3.198   0.872   7.766
 4239TIP3    H134276   3.215   0.899   7.856
 4239TIP3    H234277   3.244   0.789   7.757
 4240TIP3   OH234278   5.589   6.854   0.336
 4240TIP3    H134279   5.516   6.792   0.330
 4240TIP3    H234280   5.587   0.015   0.253
 4241TIP3   OH234281   2.796   1.734   2.398
 4241TIP3    H134282   2.769   1.656   2.349
 4241TIP3    H234283   2.880   1.759   2.359
 4242TIP3   OH234284   0.933   3.188   0.695
 4242TIP3    H134285   0.915   3.096   0.678
 4242TIP3    H234286   0.855   3.234   0.666
 4243TIP3   OH234287   0.601   6.099   0.099
 4243TIP3    H134288   0.550   6.070   0.174
 4243TIP3    H234289   0.683   6.133   0.136
 4244TIP3   OH234290   5.889   6.077   0.369
 4244TIP3    H134291   5.869   6.097   0.278
 4244TIP3    H234292   5.814   6.111   0.418
 4245TIP3   OH234293   3.952   4.854   7.841
 4245TIP3    H134294   3.940   4.945   7.869
 4245TIP3    H234295   3.902   4.803   7.905
 4246TIP3   OH234296   0.017   0.811   7.667
 4246TIP3    H134297   0.084   0.832   7.733
 4246TIP3    H234298   0.053   0.846   7.585
 4247TIP3   OH234299   0.435   6.094   1.653
 4247TIP3    H134300   0.397   6.166   1.704
 4247TIP3    H234301   0.473   6.137   1.576
 4248TIP3   OH234302   2.449   1.521   8.266
 4248TIP3    H134303   2.419   1.607   8.293
 4248TIP3    H234304   2.399   1.502   8.187
 4249TIP3   OH234305   3.262   3.619   0.783
 4249TIP3    H134306   3.169   3.622   0.760
 4249TIP3    H234307   3.264   3.627   0.878
 4250TIP3   OH234308   2.175   1.895   0.841
 4250TIP3    H134309   2.105   1.877   0.903
 4250TIP3    H234310   2.221   1.971   0.878
 4251TIP3   OH234311   6.592   3.819   2.024
 4251TIP3    H134312   6.532   3.747   2.008
 4251TIP3    H234313   6.583   3.875   1.947
 4252TIP3   OH234314   5.735   5.944   2.187
 4252TIP3    H134315   5.782   5.945   2.270
 4252TIP3    H234316   5.755   6.028   2.147
 4253TIP3   OH234317   3.478   6.845   6.989
 4253TIP3    H134318   3.486   6.822   6.897
 4253TIP3    H234319   3.435   6.769   7.029
 4254TIP3   OH234320   4.421   5.654   0.302
 4254TIP3    H134321   4.463   5.713   0.364
 4254TIP3    H234322   4.477   5.656   0.224
 4255TIP3   OH234323   0.532   5.586   7.001
 4255TIP3    H134324   0.440   5.611   7.008
 4255TIP3    H234325   0.548   5.529   7.076
 4256TIP3   OH234326   2.514   6.040   0.617
 4256TIP3    H134327   2.534   6.069   0.528
 4256TIP3    H234328   2.421   6.015   0.614
 4257TIP3   OH234329   6.377   6.179   0.119
 4257TIP3    H134330   6.338   6.211   0.038
 4257TIP3    H234331   6.305   6.137   0.166
 4258TIP3   OH234332   1.402   3.950   6.008
 4258TIP3    H134333   1.490   3.986   5.998
 4258TIP3    H234334   1.416   3.858   6.028
 4259TIP3   OH234335   0.694   5.534   7.512
 4259TIP3    H134336   0.662   5.449   7.543
 4259TIP3    H234337   0.618   5.574   7.471
 4260TIP3   OH234338   0.525   5.391   1.457
 4260TIP3    H134339   0.565   5.346   1.531
 4260TIP3    H234340   0.440   5.419   1.488
 4261TIP3   OH234341   0.625   0.894   0.824
 4261TIP3    H134342   0.717   0.890   0.847
 4261TIP3    H234343   0.618   0.968   0.765
 4262TIP3   OH234344   0.383   2.714   0.983
 4262TIP3    H134345   0.290   2.733   0.989
 4262TIP3    H234346   0.388   2.618   0.984
 4263TIP3   OH234347   5.323   2.153   0.720
 4263TIP3    H134348   5.296   2.066   0.751
 4263TIP3    H234349   5.251   2.211   0.744
 4264TIP3   OH234350   5.213   3.533   7.079
 4264TIP3    H134351   5.295   3.491   7.107
 4264TIP3    H234352   5.233   3.570   6.994
 4265TIP3   OH234353   4.524   2.100   6.385
 4265TIP3    H134354   4.595   2.115   6.322
 4265TIP3    H234355   4.476   2.182   6.387
 4266TIP3   OH234356   4.528   4.276   8.095
 4266TIP3    H134357   4.529   4.241   8.006
 4266TIP3    H234358   4.620   4.276   8.122
 4267TIP3   OH234359   3.320   4.795   0.414
 4267TIP3    H134360   3.252   4.733   0.390
 4267TIP3    H234361   3.287   4.839   0.492
 4268TIP3   OH234362   6.105   3.958   7.819
 4268TIP3    H134363   6.161   3.908   7.878
 4268TIP3    H234364   6.072   4.031   7.872
 4269TIP3   OH234365   4.004   5.192   1.416
 4269TIP3    H134366   3.937   5.133   1.450
 4269TIP3    H234367   4.033   5.151   1.335
 4270TIP3   OH234368   3.139   4.028   8.636
 4270TIP3    H134369   3.147   4.090   0.046
 4270TIP3    H234370   3.195   3.954   8.661
 4271TIP3   OH234371   5.542   0.020   6.310
 4271TIP3    H134372   5.635   0.025   6.333
 4271TIP3    H234373   5.496   0.053   6.388
 4272TIP3   OH234374   4.298   5.765   0.719
 4272TIP3    H134375   4.265   5.697   0.660
 4272TIP3    H234376   4.303   5.722   0.805
 4273TIP3   OH234377   6.798   4.563   8.634
 4273TIP3    H134378   6.814   4.623   0.045
 4273TIP3    H234379   6.739   4.497   0.008
 4274TIP3   OH234380   0.898   1.982   6.571
 4274TIP3    H134381   0.936   1.956   6.487
 4274TIP3    H234382   0.891   2.078   6.566
 4275TIP3   OH234383   4.122   2.505   0.190
 4275TIP3    H134384   4.120   2.497   0.095
 4275TIP3    H234385   4.063   2.436   0.221
 4276TIP3   OH234386   4.794   4.178   8.131
 4276TIP3    H134387   4.850   4.108   8.165
 4276TIP3    H234388   4.841   4.210   8.054
 4277TIP3   OH234389   0.363   1.446   6.816
 4277TIP3    H134390   0.436   1.501   6.786
 4277TIP3    H234391   0.399   1.357   6.816
 4278TIP3   OH234392   5.959   4.646   6.442
 4278TIP3    H134393   5.967   4.621   6.534
 4278TIP3    H234394   5.888   4.591   6.408
 4279TIP3   OH234395   1.419   2.156   1.777
 4279TIP3    H134396   1.342   2.144   1.721
 4279TIP3    H234397   1.480   2.207   1.723
 4280TIP3   OH234398   5.635   4.905   7.496
 4280TIP3    H134399   5.556   4.890   7.548
 4280TIP3    H234400   5.705   4.913   7.560
 4281TIP3   OH234401   1.252   5.607   7.103
 4281TIP3    H134402   1.281   5.521   7.132
 4281TIP3    H234403   1.221   5.593   7.014
 4282TIP3   OH234404   1.304   0.677   6.411
 4282TIP3    H134405   1.369   0.707   6.475
 4282TIP3    H234406   1.336   0.710   6.327
 4283TIP3   OH234407   2.033   4.712   7.800
 4283TIP3    H134408   2.119   4.737   7.766
 4283TIP3    H234409   1.978   4.790   7.787
 4284TIP3   OH234410   0.363   3.697   0.784
 4284TIP3    H134411   0.390   3.714   0.874
 4284TIP3    H234412   0.444   3.698   0.734
 4285TIP3   OH234413   0.503   3.935   0.366
 4285TIP3    H134414   0.444   3.861   0.387
 4285TIP3    H234415   0.585   3.893   0.342
 4286TIP3   OH234416   2.213   0.764   6.824
 4286TIP3    H134417   2.252   0.733   6.906
 4286TIP3    H234418   2.245   0.853   6.815
 4287TIP3   OH234419   2.066   4.765   7.200
 4287TIP3    H134420   2.047   4.672   7.216
 4287TIP3    H234421   2.045   4.777   7.107
 4288TIP3   OH234422   6.237   5.679   1.990
 4288TIP3    H134423   6.184   5.691   2.068
 4288TIP3    H234424   6.286   5.761   1.982
 4289TIP3   OH234425   6.550   4.959   7.828
 4289TIP3    H134426   6.457   4.946   7.812
 4289TIP3    H234427   6.562   5.054   7.826
 4290TIP3   OH234428   4.567   1.186   1.636
 4290TIP3    H134429   4.620   1.120   1.591
 4290TIP3    H234430   4.601   1.187   1.725
 4291TIP3   OH234431   5.937   5.888   7.498
 4291TIP3    H134432   5.970   5.798   7.503
 4291TIP3    H234433   5.865   5.891   7.561
 4292TIP3   OH234434   5.192   6.494   1.829
 4292TIP3    H134435   5.229   6.457   1.910
 4292TIP3    H234436   5.119   6.547   1.859
 4293TIP3   OH234437   1.179   0.591   1.958
 4293TIP3    H134438   1.104   0.611   2.014
 4293TIP3    H234439   1.173   0.497   1.942
 4294TIP3   OH234440   2.228   4.495   1.816
 4294TIP3    H134441   2.207   4.563   1.880
 4294TIP3    H234442   2.266   4.424   1.868
 4295TIP3   OH234443   1.983   2.111   6.122
 4295TIP3    H134444   1.945   2.144   6.040
 4295TIP3    H234445   2.008   2.190   6.170
 4296TIP3   OH234446   0.965   2.518   7.370
 4296TIP3    H134447   1.025   2.491   7.440
 4296TIP3    H234448   1.020   2.523   7.292
 4297TIP3   OH234449   1.445   6.202   7.053
 4297TIP3    H134450   1.474   6.110   7.051
 4297TIP3    H234451   1.420   6.217   7.144
 4298TIP3   OH234452   4.274   1.606   0.031
 4298TIP3    H134453   4.286   1.556   0.112
 4298TIP3    H234454   4.190   1.575   8.659
 4299TIP3   OH234455   5.888   0.230   1.433
 4299TIP3    H134456   5.966   0.193   1.391
 4299TIP3    H234457   5.909   0.323   1.444
 4300TIP3   OH234458   4.739   1.916   7.501
 4300TIP3    H134459   4.823   1.874   7.481
 4300TIP3    H234460   4.734   1.915   7.596
 4301TIP3   OH234461   0.363   2.890   2.031
 4301TIP3    H134462   0.373   2.883   1.936
 4301TIP3    H234463   0.323   2.976   2.045
 4302TIP3   OH234464   2.949   5.944   7.183
 4302TIP3    H134465   2.930   6.036   7.198
 4302TIP3    H234466   2.950   5.935   7.087
 4303TIP3   OH234467   0.168   3.439   7.594
 4303TIP3    H134468   0.110   3.364   7.577
 4303TIP3    H234469   0.209   3.458   7.510
 4304TIP3   OH234470   2.890   6.715   0.081
 4304TIP3    H134471   2.810   6.768   0.076
 4304TIP3    H234472   2.930   6.740   0.164
 4305TIP3   OH234473   5.380   6.285   7.860
 4305TIP3    H134474   5.447   6.352   7.871
 4305TIP3    H234475   5.301   6.324   7.899
 4306TIP3   OH234476   1.497   4.995   8.260
 4306TIP3    H134477   1.507   4.937   8.336
 4306TIP3    H234478   1.462   4.939   8.191
 4307TIP3   OH234479   2.269   6.822   1.055
 4307TIP3    H134480   2.229   0.006   1.004
 4307TIP3    H234481   2.360   6.818   1.023
 4308TIP3   OH234482   2.677   5.133   7.349
 4308TIP3    H134483   2.615   5.090   7.408
 4308TIP3    H234484   2.744   5.169   7.408
 4309TIP3   OH234485   0.438   3.950   6.731
 4309TIP3    H134486   0.420   4.041   6.710
 4309TIP3    H234487   0.446   3.907   6.646
 4310TIP3   OH234488   1.694   1.033   0.804
 4310TIP3    H134489   1.741   0.951   0.786
 4310TIP3    H234490   1.761   1.101   0.796
 4311TIP3   OH234491   5.251   1.636   6.803
 4311TIP3    H134492   5.257   1.728   6.828
 4311TIP3    H234493   5.197   1.637   6.724
 4312TIP3   OH234494   2.520   1.684   1.845
 4312TIP3    H134495   2.555   1.645   1.925
 4312TIP3    H234496   2.495   1.773   1.869
 4313TIP3   OH234497   5.061   1.202   7.223
 4313TIP3    H134498   5.145   1.190   7.179
 4313TIP3    H234499   5.083   1.204   7.316
 4314TIP3   OH234500   3.012   5.275   1.132
 4314TIP3    H134501   3.067   5.336   1.082
 4314TIP3    H234502   2.922   5.295   1.104
 4315TIP3   OH234503   2.444   0.651   8.112
 4315TIP3    H134504   2.361   0.697   8.111
 4315TIP3    H234505   2.443   0.595   8.035
 4316TIP3   OH234506   3.648   5.718   0.848
 4316TIP3    H134507   3.730   5.764   0.865
 4316TIP3    H234508   3.650   5.700   0.754
 4317TIP3   OH234509   2.316   4.878   8.133
 4317TIP3    H134510   2.274   4.965   8.130
 4317TIP3    H234511   2.363   4.877   8.216
 4318TIP3   OH234512   3.447   1.688   7.741
 4318TIP3    H134513   3.355   1.703   7.721
 4318TIP3    H234514   3.487   1.672   7.656
 4319TIP3   OH234515   3.294   5.881   0.778
 4319TIP3    H134516   3.213   5.866   0.828
 4319TIP3    H234517   3.275   5.846   0.691
 4320TIP3   OH234518   0.866   0.070   7.686
 4320TIP3    H134519   0.785   0.082   7.735
 4320TIP3    H234520   0.889   0.159   7.657
 4321TIP3   OH234521   3.940   1.461   0.839
 4321TIP3    H134522   3.954   1.465   0.933
 4321TIP3    H234523   3.867   1.399   0.828
 4322TIP3   OH234524   2.033   2.334   6.540
 4322TIP3    H134525   2.067   2.251   6.507
 4322TIP3    H234526   2.109   2.392   6.543
 4323TIP3   OH234527   1.807   0.199   7.341
 4323TIP3    H134528   1.818   0.165   7.252
 4323TIP3    H234529   1.886   0.171   7.387
 4324TIP3   OH234530   1.540   3.116   1.575
 4324TIP3    H134531   1.591   3.116   1.656
 4324TIP3    H234532   1.605   3.122   1.505
 4325TIP3   OH234533   1.956   3.651   0.004
 4325TIP3    H134534   1.918   3.722   0.054
 4325TIP3    H234535   1.919   3.572   0.042
 4326TIP3   OH234536   4.536   2.703   7.741
 4326TIP3    H134537   4.570   2.615   7.757
 4326TIP3    H234538   4.446   2.689   7.713
 4327TIP3   OH234539   3.288   0.149   6.197
 4327TIP3    H134540   3.317   0.080   6.137
 4327TIP3    H234541   3.364   0.207   6.204
 4328TIP3   OH234542   2.082   3.427   6.430
 4328TIP3    H134543   2.155   3.372   6.400
 4328TIP3    H234544   2.027   3.367   6.481
 4329TIP3   OH234545   3.112   6.724   0.601
 4329TIP3    H134546   3.185   6.668   0.574
 4329TIP3    H234547   3.047   6.662   0.636
 4330TIP3   OH234548   5.100   3.114   2.192
 4330TIP3    H134549   5.173   3.101   2.253
 4330TIP3    H234550   5.022   3.110   2.248
 4331TIP3   OH234551   4.254   5.233   7.895
 4331TIP3    H134552   4.251   5.267   7.985
 4331TIP3    H234553   4.162   5.224   7.869
 4332TIP3   OH234554   3.913   3.715   6.768
 4332TIP3    H134555   3.949   3.753   6.687
 4332TIP3    H234556   3.848   3.779   6.797
 4333TIP3   OH234557   2.791   1.689   0.515
 4333TIP3    H134558   2.706   1.672   0.557
 4333TIP3    H234559   2.849   1.715   0.586
 4334TIP3   OH234560   2.385   3.421   8.054
 4334TIP3    H134561   2.325   3.443   8.125
 4334TIP3    H234562   2.391   3.326   8.055
 4335TIP3   OH234563   2.714   5.045   0.503
 4335TIP3    H134564   2.712   5.114   0.570
 4335TIP3    H234565   2.802   5.008   0.510
 4336TIP3   OH234566   0.554   6.093   7.925
 4336TIP3    H134567   0.586   6.128   8.008
 4336TIP3    H234568   0.534   6.001   7.944
 4337TIP3   OH234569   5.402   2.740   7.034
 4337TIP3    H134570   5.356   2.659   7.009
 4337TIP3    H234571   5.458   2.759   6.959
 4338TIP3   OH234572   6.011   1.766   0.318
 4338TIP3    H134573   6.074   1.781   0.247
 4338TIP3    H234574   5.956   1.694   0.285
 4339TIP3   OH234575   2.242   1.057   7.746
 4339TIP3    H134576   2.248   1.148   7.776
 4339TIP3    H234577   2.296   1.008   7.808
 4340TIP3   OH234578   0.081   2.440   0.003
 4340TIP3    H134579   0.077   2.496   0.081
 4340TIP3    H234580   6.876   2.435   8.635
 4341TIP3   OH234581   5.179   2.281   6.957
 4341TIP3    H134582   5.107   2.255   6.899
 4341TIP3    H234583   5.154   2.248   7.043
 4342TIP3   OH234584   1.493   1.231   1.088
 4342TIP3    H134585   1.583   1.209   1.063
 4342TIP3    H234586   1.455   1.271   1.009
 4343TIP3   OH234587   2.898   4.601   7.750
 4343TIP3    H134588   2.891   4.537   7.820
 4343TIP3    H234589   2.980   4.580   7.706
 4344TIP3   OH234590   5.595   2.906   8.110
 4344TIP3    H134591   5.681   2.896   8.070
 4344TIP3    H234592   5.532   2.890   8.039
 4345TIP3   OH234593   6.038   3.678   6.710
 4345TIP3    H134594   5.947   3.660   6.734
 4345TIP3    H234595   6.080   3.592   6.713
 4346TIP3   OH234596   0.093   1.462   1.305
 4346TIP3    H134597   0.007   1.503   1.311
 4346TIP3    H234598   0.076   1.374   1.273
 4347TIP3   OH234599   1.629   1.106   1.609
 4347TIP3    H134600   1.671   1.181   1.650
 4347TIP3    H234601   1.622   1.041   1.678
 4348TIP3   OH234602   3.666   6.691   1.732
 4348TIP3    H134603   3.656   6.762   1.795
 4348TIP3    H234604   3.751   6.707   1.691
 4349TIP3   OH234605   2.696   4.815   6.953
 4349TIP3    H134606   2.701   4.864   6.871
 4349TIP3    H234607   2.652   4.875   7.014
 4350TIP3   OH234608   3.122   3.896   7.518
 4350TIP3    H134609   3.180   3.972   7.514
 4350TIP3    H234610   3.093   3.893   7.609
 4351TIP3   OH234611   5.831   5.647   2.350
 4351TIP3    H134612   5.745   5.635   2.310
 4351TIP3    H234613   5.814   5.691   2.433
 4352TIP3   OH234614   3.936   1.186   0.007
 4352TIP3    H134615   3.972   1.152   8.588
 4352TIP3    H234616   3.868   1.124   0.032
 4353TIP3   OH234617   4.923   3.132   1.545
 4353TIP3    H134618   4.879   3.205   1.588
 4353TIP3    H234619   4.895   3.137   1.453
 4354TIP3   OH234620   3.055   3.936   0.830
 4354TIP3    H134621   3.019   4.004   0.887
 4354TIP3    H234622   3.131   3.977   0.788
 4355TIP3   OH234623   6.634   0.256   1.847
 4355TIP3    H134624   6.627   0.176   1.795
 4355TIP3    H234625   6.642   0.326   1.781
 4356TIP3   OH234626   6.594   0.499   6.392
 4356TIP3    H134627   6.627   0.412   6.411
 4356TIP3    H234628   6.499   0.489   6.389
 4357TIP3   OH234629   2.176   4.320   7.006
 4357TIP3    H134630   2.154   4.341   6.915
 4357TIP3    H234631   2.094   4.333   7.054
 4358TIP3   OH234632   3.616   2.461   1.368
 4358TIP3    H134633   3.635   2.422   1.283
 4358TIP3    H234634   3.622   2.556   1.352
 4359TIP3   OH234635   5.404   2.932   1.484
 4359TIP3    H134636   5.319   2.890   1.472
 4359TIP3    H234637   5.400   2.969   1.572
 4360TIP3   OH234638   4.755   5.136   7.035
 4360TIP3    H134639   4.736   5.046   7.059
 4360TIP3    H234640   4.684   5.161   6.975
 4361TIP3   OH234641   0.606   3.474   1.971
 4361TIP3    H134642   0.538   3.542   1.972
 4361TIP3    H234643   0.563   3.398   1.931
 4362TIP3   OH234644   5.776   2.360   8.260
 4362TIP3    H134645   5.827   2.327   8.334
 4362TIP3    H234646   5.755   2.450   8.284
 4363TIP3   OH234647   1.295   5.942   1.010
 4363TIP3    H134648   1.248   6.023   1.027
 4363TIP3    H234649   1.226   5.877   0.995
 4364TIP3   OH234650   3.014   3.159   1.125
 4364TIP3    H134651   2.973   3.237   1.161
 4364TIP3    H234652   2.992   3.089   1.187
 4365TIP3   OH234653   0.738   4.460   1.183
 4365TIP3    H134654   0.704   4.415   1.260
 4365TIP3    H234655   0.710   4.551   1.194
 4366TIP3   OH234656   3.410   3.478   6.693
 4366TIP3    H134657   3.396   3.565   6.730
 4366TIP3    H234658   3.322   3.444   6.678
 4367TIP3   OH234659   1.935   0.646   1.228
 4367TIP3    H134660   1.932   0.741   1.240
 4367TIP3    H234661   1.992   0.615   1.298
 4368TIP3   OH234662   0.365   4.133   8.224
 4368TIP3    H134663   0.443   4.164   8.270
 4368TIP3    H234664   0.389   4.046   8.193
 4369TIP3   OH234665   3.639   5.510   7.041
 4369TIP3    H134666   3.622   5.551   6.956
 4369TIP3    H234667   3.729   5.533   7.061
 4370TIP3   OH234668   0.854   5.752   6.710
 4370TIP3    H134669   0.906   5.752   6.791
 4370TIP3    H234670   0.792   5.680   6.721
 4371TIP3   OH234671   4.504   2.778   2.782
 4371TIP3    H134672   4.480   2.704   2.838
 4371TIP3    H234673   4.594   2.761   2.755
 4372TIP3   OH234674   4.860   3.595   0.849
 4372TIP3    H134675   4.814   3.514   0.828
 4372TIP3    H234676   4.893   3.582   0.938
 4373TIP3   OH234677   1.735   4.425   0.966
 4373TIP3    H134678   1.709   4.374   0.889
 4373TIP3    H234679   1.807   4.480   0.935
 4374TIP3   OH234680   2.154   2.124   6.962
 4374TIP3    H134681   2.206   2.182   6.906
 4374TIP3    H234682   2.166   2.161   7.050
 4375TIP3   OH234683   5.400   6.156   8.535
 4375TIP3    H134684   5.401   6.061   8.521
 4375TIP3    H234685   5.334   6.189   8.473
 4376TIP3   OH234686   5.560   1.425   0.790
 4376TIP3    H134687   5.593   1.490   0.728
 4376TIP3    H234688   5.467   1.415   0.767
 4377TIP3   OH234689   5.217   6.058   1.953
 4377TIP3    H134690   5.123   6.069   1.943
 4377TIP3    H234691   5.227   5.975   2.000
 4378TIP3   OH234692   4.182   4.909   0.857
 4378TIP3    H134693   4.181   4.834   0.797
 4378TIP3    H234694   4.271   4.943   0.852
 4379TIP3   OH234695   5.254   5.182   8.084
 4379TIP3    H134696   5.173   5.138   8.059
 4379TIP3    H234697   5.273   5.241   8.011
 4380TIP3   OH234698   1.102   0.493   8.270
 4380TIP3    H134699   1.089   0.398   8.274
 4380TIP3    H234700   1.014   0.529   8.279
 4381TIP3   OH234701   3.046   2.258   0.922
 4381TIP3    H134702   2.974   2.286   0.864
 4381TIP3    H234703   3.122   2.308   0.892
 4382TIP3   OH234704   4.100   0.651   2.293
 4382TIP3    H134705   4.036   0.633   2.224
 4382TIP3    H234706   4.101   0.571   2.345
 4383TIP3   OH234707   5.852   2.559   8.006
 4383TIP3    H134708   5.820   2.541   8.094
 4383TIP3    H234709   5.800   2.503   7.949
 4384TIP3   OH234710   2.455   1.743   7.625
 4384TIP3    H134711   2.426   1.758   7.535
 4384TIP3    H234712   2.405   1.807   7.677
 4385TIP3   OH234713   3.264   6.583   0.848
 4385TIP3    H134714   3.359   6.573   0.849
 4385TIP3    H234715   3.250   6.677   0.831
 4386TIP3   OH234716   2.313   2.264   7.445
 4386TIP3    H134717   2.253   2.191   7.431
 4386TIP3    H234718   2.357   2.277   7.361
 4387TIP3   OH234719   4.691   3.440   0.603
 4387TIP3    H134720   4.703   3.381   0.677
 4387TIP3    H234721   4.612   3.491   0.624
 4388TIP3   OH234722   2.455   4.508   6.651
 4388TIP3    H134723   2.467   4.464   6.735
 4388TIP3    H234724   2.397   4.451   6.601
 4389TIP3   OH234725   2.072   4.102   7.955
 4389TIP3    H134726   2.004   4.103   7.887
 4389TIP3    H234727   2.079   4.010   7.980
 4390TIP3   OH234728   5.578   5.280   8.086
 4390TIP3    H134729   5.499   5.239   8.122
 4390TIP3    H234730   5.611   5.335   8.157
 4391TIP3   OH234731   6.304   4.231   1.639
 4391TIP3    H134732   6.221   4.184   1.645
 4391TIP3    H234733   6.365   4.178   1.690
 4392TIP3   OH234734   3.956   1.427   1.385
 4392TIP3    H134735   3.914   1.507   1.417
 4392TIP3    H234736   3.990   1.385   1.464
 4393TIP3   OH234737   2.437   1.099   7.111
 4393TIP3    H134738   2.344   1.086   7.130
 4393TIP3    H234739   2.476   1.013   7.120
 4394TIP3   OH234740   6.117   1.139   8.279
 4394TIP3    H134741   6.120   1.118   8.185
 4394TIP3    H234742   6.037   1.097   8.310
 4395TIP3   OH234743   2.267   0.762   8.418
 4395TIP3    H134744   2.239   0.852   8.438
 4395TIP3    H234745   2.354   0.771   8.380
 4396TIP3   OH234746   2.540   3.609   7.850
 4396TIP3    H134747   2.617   3.592   7.795
 4396TIP3    H234748   2.478   3.539   7.827
 4397TIP3   OH234749   5.936   0.057   1.635
 4397TIP3    H134750   5.951   0.094   1.721
 4397TIP3    H234751   5.926   0.133   1.577
 4398TIP3   OH234752   2.859   1.231   7.154
 4398TIP3    H134753   2.855   1.218   7.060
 4398TIP3    H234754   2.897   1.150   7.188
 4399TIP3   OH234755   1.663   5.141   7.259
 4399TIP3    H134756   1.756   5.118   7.256
 4399TIP3    H234757   1.656   5.221   7.207
 4400TIP3   OH234758   0.367   3.891   0.072
 4400TIP3    H134759   0.291   3.926   0.026
 4400TIP3    H234760   0.439   3.951   0.050
 4401TIP3   OH234761   4.330   1.786   6.669
 4401TIP3    H134762   4.275   1.859   6.696
 4401TIP3    H234763   4.328   1.788   6.573
 4402TIP3   OH234764   5.177   4.670   0.655
 4402TIP3    H134765   5.200   4.614   0.729
 4402TIP3    H234766   5.211   4.624   0.578
 4403TIP3   OH234767   2.307   5.879   7.987
 4403TIP3    H134768   2.270   5.836   8.064
 4403TIP3    H234769   2.353   5.809   7.941
 4404TIP3   OH234770   6.697   3.668   8.561
 4404TIP3    H134771   6.708   3.665   8.656
 4404TIP3    H234772   6.611   3.709   8.549
 4405TIP3   OH234773   1.343   0.003   0.989
 4405TIP3    H134774   1.392   6.862   1.066
 4405TIP3    H234775   1.287   0.074   1.019
 4406TIP3   OH234776   2.958   5.386   2.391
 4406TIP3    H134777   2.868   5.419   2.394
 4406TIP3    H234778   3.007   5.453   2.344
 4407TIP3   OH234779   1.332   3.315   1.601
 4407TIP3    H134780   1.311   3.308   1.507
 4407TIP3    H234781   1.420   3.279   1.608
 4408TIP3   OH234782   1.834   4.669   8.110
 4408TIP3    H134783   1.829   4.581   8.072
 4408TIP3    H234784   1.813   4.728   8.037
 4409TIP3   OH234785   4.749   6.156   7.814
 4409TIP3    H134786   4.735   6.101   7.737
 4409TIP3    H234787   4.842   6.144   7.835
 4410TIP3   OH234788   0.711   0.748   1.531
 4410TIP3    H134789   0.772   0.773   1.461
 4410TIP3    H234790   0.766   0.738   1.608
 4411TIP3   OH234791   6.180   0.100   7.287
 4411TIP3    H134792   6.251   0.139   7.235
 4411TIP3    H234793   6.136   0.041   7.227
 4412TIP3   OH234794   1.463   2.647   1.398
 4412TIP3    H134795   1.554   2.619   1.393
 4412TIP3    H234796   1.413   2.578   1.355
 4413TIP3   OH234797   4.743   4.298   1.422
 4413TIP3    H134798   4.658   4.338   1.442
 4413TIP3    H234799   4.735   4.272   1.330
 4414TIP3   OH234800   0.726   3.909   7.017
 4414TIP3    H134801   0.687   3.837   6.966
 4414TIP3    H234802   0.657   3.934   7.079
 4415TIP3   OH234803   5.179   0.015   0.210
 4415TIP3    H134804   5.246   6.851   0.165
 4415TIP3    H234805   5.207   0.106   0.201
 4416TIP3   OH234806   0.464   5.857   8.076
 4416TIP3    H134807   0.429   5.779   8.033
 4416TIP3    H234808   0.505   5.824   8.156
 4417TIP3   OH234809   1.708   3.342   1.375
 4417TIP3    H134810   1.661   3.265   1.343
 4417TIP3    H234811   1.650   3.416   1.355
 4418TIP3   OH234812   2.773   2.771   0.474
 4418TIP3    H134813   2.721   2.777   0.394
 4418TIP3    H234814   2.754   2.851   0.522
 4419TIP3   OH234815   2.971   0.256   1.818
 4419TIP3    H134816   2.921   0.222   1.892
 4419TIP3    H234817   2.907   0.305   1.766
 4420TIP3   OH234818   2.259   4.856   7.743
 4420TIP3    H134819   2.229   4.946   7.758
 4420TIP3    H234820   2.290   4.856   7.652
 4421TIP3   OH234821   3.182   2.956   7.833
 4421TIP3    H134822   3.097   2.969   7.874
 4421TIP3    H234823   3.162   2.934   7.742
 4422TIP3   OH234824   1.233   2.782   7.540
 4422TIP3    H134825   1.177   2.858   7.553
 4422TIP3    H234826   1.175   2.713   7.510
 4423TIP3   OH234827   0.222   5.421   8.318
 4423TIP3    H134828   0.192   5.449   8.232
 4423TIP3    H234829   0.186   5.333   8.329
 4424TIP3   OH234830   0.577   1.105   1.836
 4424TIP3    H134831   0.539   1.099   1.923
 4424TIP3    H234832   0.668   1.078   1.847
 4425TIP3   OH234833   1.473   3.441   8.056
 4425TIP3    H134834   1.559   3.482   8.050
 4425TIP3    H234835   1.422   3.499   8.112
 4426TIP3   OH234836   6.351   1.679   0.012
 4426TIP3    H134837   6.322   1.702   0.100
 4426TIP3    H234838   6.285   1.717   8.616
 4427TIP3   OH234839   5.564   3.677   7.033
 4427TIP3    H134840   5.487   3.716   6.991
 4427TIP3    H234841   5.531   3.599   7.077
 4428TIP3   OH234842   5.580   6.022   7.006
 4428TIP3    H134843   5.573   6.083   6.933
 4428TIP3    H234844   5.582   6.078   7.084
 4429TIP3   OH234845   1.327   3.649   0.247
 4429TIP3    H134846   1.347   3.660   0.340
 4429TIP3    H234847   1.238   3.614   0.245
 4430TIP3   OH234848   0.141   2.237   7.705
 4430TIP3    H134849   0.099   2.283   7.632
 4430TIP3    H234850   0.139   2.299   7.777
 4431TIP3   OH234851   5.572   4.206   7.211
 4431TIP3    H134852   5.607   4.294   7.197
 4431TIP3    H234853   5.591   4.187   7.303
 4432TIP3   OH234854   2.829   0.870   7.438
 4432TIP3    H134855   2.906   0.819   7.462
 4432TIP3    H234856   2.824   0.938   7.505
 4433TIP3   OH234857   1.708   2.238   8.125
 4433TIP3    H134858   1.639   2.223   8.190
 4433TIP3    H234859   1.732   2.330   8.137
 4434TIP3   OH234860   0.503   6.085   1.200
 4434TIP3    H134861   0.558   6.143   1.146
 4434TIP3    H234862   0.439   6.144   1.241
 4435TIP3   OH234863   1.072   2.696   7.025
 4435TIP3    H134864   1.085   2.666   6.934
 4435TIP3    H234865   1.076   2.615   7.077
 4436TIP3   OH234866   3.483   1.095   6.521
 4436TIP3    H134867   3.494   1.006   6.489
 4436TIP3    H234868   3.571   1.133   6.518
 4437TIP3   OH234869   0.407   2.474   7.155
 4437TIP3    H134870   0.441   2.469   7.065
 4437TIP3    H234871   0.346   2.402   7.161
 4438TIP3   OH234872   5.022   6.248   8.515
 4438TIP3    H134873   5.032   6.189   8.440
 4438TIP3    H234874   5.048   6.334   8.480
 4439TIP3   OH234875   0.392   0.760   1.525
 4439TIP3    H134876   0.480   0.786   1.552
 4439TIP3    H234877   0.360   0.835   1.474
 4440TIP3   OH234878   1.884   1.300   2.591
 4440TIP3    H134879   1.966   1.283   2.636
 4440TIP3    H234880   1.870   1.222   2.537
 4441TIP3   OH234881   5.545   5.954   6.168
 4441TIP3    H134882   5.486   5.881   6.188
 4441TIP3    H234883   5.602   5.961   6.244
 4442TIP3   OH234884   0.731   2.621   7.464
 4442TIP3    H134885   0.744   2.574   7.547
 4442TIP3    H234886   0.804   2.593   7.409
 4443TIP3   OH234887   0.946   3.564   1.363
 4443TIP3    H134888   0.999   3.599   1.292
 4443TIP3    H234889   0.881   3.633   1.380
 4444TIP3   OH234890   6.841   1.775   2.468
 4444TIP3    H134891   6.841   1.864   2.502
 4444TIP3    H234892   6.796   1.724   2.535
 4445TIP3   OH234893   1.272   5.071   6.458
 4445TIP3    H134894   1.196   5.015   6.472
 4445TIP3    H234895   1.317   5.031   6.383
 4446TIP3   OH234896   6.862   4.661   8.397
 4446TIP3    H134897   0.043   4.723   8.424
 4446TIP3    H234898   6.835   4.619   8.479
 4447TIP3   OH234899   0.501   1.538   7.905
 4447TIP3    H134900   0.444   1.614   7.893
 4447TIP3    H234901   0.540   1.523   7.819
 4448TIP3   OH234902   6.143   2.736   7.167
 4448TIP3    H134903   6.139   2.719   7.261
 4448TIP3    H234904   6.089   2.813   7.154
 4449TIP3   OH234905   0.803   0.628   7.084
 4449TIP3    H134906   0.848   0.663   7.007
 4449TIP3    H234907   0.715   0.608   7.052
 4450TIP3   OH234908   2.637   3.017   1.773
 4450TIP3    H134909   2.623   2.991   1.682
 4450TIP3    H234910   2.725   3.055   1.774
 4451TIP3   OH234911   3.665   6.356   2.086
 4451TIP3    H134912   3.638   6.447   2.074
 4451TIP3    H234913   3.624   6.309   2.013
 4452TIP3   OH234914   1.563   6.063   0.627
 4452TIP3    H134915   1.509   5.995   0.588
 4452TIP3    H234916   1.630   6.081   0.562
 4453TIP3   OH234917   0.851   5.068   1.336
 4453TIP3    H134918   0.915   4.999   1.354
 4453TIP3    H234919   0.798   5.034   1.263
 4454TIP3   OH234920   5.881   3.558   7.916
 4454TIP3    H134921   5.934   3.557   7.996
 4454TIP3    H234922   5.870   3.466   7.894
 4455TIP3   OH234923   1.143   2.965   6.161
 4455TIP3    H134924   1.234   2.980   6.188
 4455TIP3    H234925   1.119   2.883   6.204
 4456TIP3   OH234926   6.857   5.302   1.540
 4456TIP3    H134927   6.786   5.339   1.488
 4456TIP3    H234928   6.851   5.346   1.625
 4457TIP3   OH234929   3.288   5.123   1.667
 4457TIP3    H134930   3.281   5.039   1.622
 4457TIP3    H234931   3.303   5.099   1.759
 4458TIP3   OH234932   5.839   0.657   0.476
 4458TIP3    H134933   5.907   0.666   0.542
 4458TIP3    H234934   5.757   0.661   0.525
 4459TIP3   OH234935   1.907   5.079   1.639
 4459TIP3    H134936   1.909   5.067   1.544
 4459TIP3    H234937   1.854   5.005   1.670
 4460TIP3   OH234938   2.830   0.189   1.235
 4460TIP3    H134939   2.860   0.172   1.324
 4460TIP3    H234940   2.856   0.279   1.217
 4461TIP3   OH234941   2.887   1.486   6.921
 4461TIP3    H134942   2.933   1.550   6.866
 4461TIP3    H234943   2.875   1.531   7.005
 4462TIP3   OH234944   3.541   0.251   0.785
 4462TIP3    H134945   3.614   0.282   0.732
 4462TIP3    H234946   3.482   0.208   0.723
 4463TIP3   OH234947   3.388   3.875   6.225
 4463TIP3    H134948   3.400   3.832   6.310
 4463TIP3    H234949   3.415   3.809   6.161
 4464TIP3   OH234950   1.271   6.169   1.384
 4464TIP3    H134951   1.233   6.247   1.342
 4464TIP3    H234952   1.206   6.100   1.369
 4465TIP3   OH234953   2.019   0.868   0.338
 4465TIP3    H134954   2.034   0.869   0.243
 4465TIP3    H234955   2.102   0.837   0.374
 4466TIP3   OH234956   5.262   2.155   7.392
 4466TIP3    H134957   5.215   2.160   7.309
 4466TIP3    H234958   5.241   2.237   7.437
 4467TIP3   OH234959   2.657   4.889   6.699
 4467TIP3    H134960   2.624   4.950   6.634
 4467TIP3    H234961   2.668   4.806   6.652
 4468TIP3   OH234962   2.360   5.038   7.357
 4468TIP3    H134963   2.350   5.129   7.327
 4468TIP3    H234964   2.429   5.002   7.301
 4469TIP3   OH234965   0.265   1.685   1.380
 4469TIP3    H134966   0.341   1.696   1.323
 4469TIP3    H234967   0.229   1.599   1.356
 4470TIP3   OH234968   1.145   3.426   8.151
 4470TIP3    H134969   1.053   3.428   8.179
 4470TIP3    H234970   1.168   3.518   8.139
 4471TIP3   OH234971   1.281   4.728   8.506
 4471TIP3    H134972   1.308   4.784   8.579
 4471TIP3    H234973   1.248   4.648   8.548
 4472TIP3   OH234974   5.341   1.785   1.430
 4472TIP3    H134975   5.426   1.759   1.396
 4472TIP3    H234976   5.292   1.816   1.354
 4473TIP3   OH234977   5.587   4.634   7.787
 4473TIP3    H134978   5.651   4.702   7.807
 4473TIP3    H234979   5.608   4.607   7.698
 4474TIP3   OH234980   0.047   0.281   8.462
 4474TIP3    H134981   6.844   0.304   8.437
 4474TIP3    H234982   0.049   0.294   8.557
 4475TIP3   OH234983   3.987   3.763   1.827
 4475TIP3    H134984   4.039   3.768   1.907
 4475TIP3    H234985   3.896   3.767   1.857
 4476TIP3   OH234986   6.224   2.113   6.872
 4476TIP3    H134987   6.146   2.140   6.825
 4476TIP3    H234988   6.206   2.135   6.964
 4477TIP3   OH234989   6.175   4.399   1.435
 4477TIP3    H134990   6.165   4.482   1.482
 4477TIP3    H234991   6.199   4.336   1.503
 4478TIP3   OH234992   1.791   2.083   7.216
 4478TIP3    H134993   1.766   2.013   7.155
 4478TIP3    H234994   1.820   2.155   7.160
 4479TIP3   OH234995   3.561   4.099   0.881
 4479TIP3    H134996   3.641   4.092   0.829
 4479TIP3    H234997   3.536   4.009   0.900
 4480TIP3   OH234998   4.763   5.711   1.706
 4480TIP3    H134999   4.702   5.659   1.758
 4480TIP3    H235000   4.814   5.761   1.770
 4481TIP3   OH235001   5.221   4.084   1.377
 4481TIP3    H135002   5.249   4.173   1.356
 4481TIP3    H235003   5.295   4.045   1.424
 4482TIP3   OH235004   2.221   6.456   0.368
 4482TIP3    H135005   2.135   6.415   0.367
 4482TIP3    H235006   2.253   6.448   0.278
 4483TIP3   OH235007   5.047   1.755   1.559
 4483TIP3    H135008   4.984   1.770   1.629
 4483TIP3    H235009   5.008   1.797   1.482
 4484TIP3   OH235010   3.030   5.051   8.221
 4484TIP3    H135011   2.979   4.988   8.271
 4484TIP3    H235012   3.060   5.003   8.144
 4485TIP3   OH235013   2.259   3.538   0.797
 4485TIP3    H135014   2.233   3.615   0.746
 4485TIP3    H235015   2.248   3.465   0.737
 4486TIP3   OH235016   1.583   1.470   7.168
 4486TIP3    H135017   1.642   1.438   7.236
 4486TIP3    H235018   1.575   1.396   7.108
 4487TIP3   OH235019   0.145   3.333   0.886
 4487TIP3    H135020   0.182   3.421   0.884
 4487TIP3    H235021   0.149   3.303   0.795
 4488TIP3   OH235022   1.739   2.454   8.529
 4488TIP3    H135023   1.788   2.384   8.486
 4488TIP3    H235024   1.676   2.408   8.585
 4489TIP3   OH235025   1.487   2.827   0.251
 4489TIP3    H135026   1.499   2.732   0.256
 4489TIP3    H235027   1.423   2.840   0.180
 4490TIP3   OH235028   3.578   2.583   8.529
 4490TIP3    H135029   3.619   2.499   8.549
 4490TIP3    H235030   3.490   2.576   8.565
 4491TIP3   OH235031   3.053   5.252   7.120
 4491TIP3    H135032   3.096   5.333   7.093
 4491TIP3    H235033   3.032   5.207   7.038
 4492TIP3   OH235034   1.594   4.011   7.482
 4492TIP3    H135035   1.665   4.016   7.418
 4492TIP3    H235036   1.547   4.094   7.471
 4493TIP3   OH235037   4.647   0.702   1.584
 4493TIP3    H135038   4.673   0.704   1.676
 4493TIP3    H235039   4.727   0.677   1.537
 4494TIP3   OH235040   4.167   2.312   8.245
 4494TIP3    H135041   4.140   2.256   8.172
 4494TIP3    H235042   4.227   2.376   8.205
 4495TIP3   OH235043   4.808   4.723   6.589
 4495TIP3    H135044   4.788   4.747   6.680
 4495TIP3    H235045   4.742   4.658   6.566
 4496TIP3   OH235046   2.128   2.411   2.318
 4496TIP3    H135047   2.087   2.451   2.395
 4496TIP3    H235048   2.134   2.318   2.340
 4497TIP3   OH235049   6.287   6.293   8.247
 4497TIP3    H135050   6.332   6.376   8.228
 4497TIP3    H235051   6.211   6.293   8.190
 4498TIP3   OH235052   0.310   6.438   0.995
 4498TIP3    H135053   0.377   6.398   1.050
 4498TIP3    H235054   0.345   6.431   0.906
 4499TIP3   OH235055   2.843   6.362   1.423
 4499TIP3    H135056   2.789   6.435   1.456
 4499TIP3    H235057   2.933   6.390   1.441
 4500TIP3   OH235058   6.553   0.120   8.235
 4500TIP3    H135059   6.489   0.191   8.225
 4500TIP3    H235060   6.625   0.160   8.285
 4501TIP3   OH235061   4.211   6.521   2.290
 4501TIP3    H135062   4.289   6.477   2.256
 4501TIP3    H235063   4.208   6.604   2.242
 4502TIP3   OH235064   3.371   3.030   1.415
 4502TIP3    H135065   3.287   3.039   1.460
 4502TIP3    H235066   3.358   2.959   1.353
 4503TIP3   OH235067   1.672   0.850   7.672
 4503TIP3    H135068   1.717   0.766   7.664
 4503TIP3    H235069   1.579   0.829   7.663
 4504TIP3   OH235070   4.345   2.854   1.956
 4504TIP3    H135071   4.331   2.828   2.046
 4504TIP3    H235072   4.276   2.918   1.938
 4505TIP3   OH235073   6.717   4.393   1.094
 4505TIP3    H135074   6.626   4.369   1.077
 4505TIP3    H235075   6.760   4.386   1.009
 4506TIP3   OH235076   4.060   1.851   7.853
 4506TIP3    H135077   4.054   1.945   7.873
 4506TIP3    H235078   3.998   1.838   7.781
 4507TIP3   OH235079   5.873   2.691   6.953
 4507TIP3    H135080   5.876   2.751   7.027
 4507TIP3    H235081   5.957   2.705   6.908
 4508TIP3   OH235082   2.298   4.677   0.781
 4508TIP3    H135083   2.253   4.633   0.709
 4508TIP3    H235084   2.362   4.735   0.738
 4509TIP3   OH235085   2.252   6.825   1.475
 4509TIP3    H135086   2.221   6.837   1.565
 4509TIP3    H235087   2.348   6.824   1.483
 4510TIP3   OH235088   0.049   1.542   8.063
 4510TIP3    H135089   0.078   1.628   8.095
 4510TIP3    H235090   6.861   1.520   8.119
 4511TIP3   OH235091   1.445   4.756   6.501
 4511TIP3    H135092   1.530   4.766   6.459
 4511TIP3    H235093   1.447   4.667   6.537
 4512TIP3   OH235094   2.629   4.450   1.144
 4512TIP3    H135095   2.641   4.544   1.160
 4512TIP3    H235096   2.534   4.438   1.145
 4513TIP3   OH235097   5.107   4.602   6.487
 4513TIP3    H135098   5.100   4.508   6.504
 4513TIP3    H235099   5.098   4.643   6.573
 4514TIP3   OH235100   0.676   1.224   8.132
 4514TIP3    H135101   0.672   1.248   8.040
 4514TIP3    H235102   0.753   1.166   8.138
 4515TIP3   OH235103   6.230   3.354   2.560
 4515TIP3    H135104   6.211   3.284   2.623
 4515TIP3    H235105   6.325   3.366   2.565
 4516TIP3   OH235106   2.872   6.251   0.598
 4516TIP3    H135107   2.952   6.200   0.588
 4516TIP3    H235108   2.849   6.277   0.509
 4517TIP3   OH235109   0.450   6.524   0.769
 4517TIP3    H135110   0.384   6.526   0.700
 4517TIP3    H235111   0.522   6.474   0.732
 4518TIP3   OH235112   2.078   1.273   7.949
 4518TIP3    H135113   2.104   1.356   7.908
 4518TIP3    H235114   2.161   1.234   7.977
 4519TIP3   OH235115   0.741   3.525   0.079
 4519TIP3    H135116   0.660   3.556   0.121
 4519TIP3    H235117   0.802   3.512   0.151
 4520TIP3   OH235118   0.745   2.890   0.315
 4520TIP3    H135119   0.749   2.817   0.377
 4520TIP3    H235120   0.824   2.942   0.334
 4521TIP3   OH235121   4.133   0.635   1.074
 4521TIP3    H135122   4.147   0.679   0.990
 4521TIP3    H235123   4.075   0.694   1.122
 4522TIP3   OH235124   4.846   6.610   0.195
 4522TIP3    H135125   4.826   6.700   0.172
 4522TIP3    H235126   4.825   6.560   0.116
 4523TIP3   OH235127   1.594   3.325   7.541
 4523TIP3    H135128   1.569   3.351   7.452
 4523TIP3    H235129   1.513   3.295   7.581
 4524TIP3   OH235130   1.941   1.554   0.898
 4524TIP3    H135131   1.951   1.601   0.815
 4524TIP3    H235132   1.849   1.566   0.922
 4525TIP3   OH235133   4.869   5.985   0.940
 4525TIP3    H135134   4.860   5.951   1.029
 4525TIP3    H235135   4.902   6.074   0.951
 4526TIP3   OH235136   5.439   5.958   2.489
 4526TIP3    H135137   5.451   6.041   2.534
 4526TIP3    H235138   5.392   5.981   2.409
 4527TIP3   OH235139   1.411   0.910   0.907
 4527TIP3    H135140   1.416   0.830   0.856
 4527TIP3    H235141   1.502   0.941   0.913
 4528TIP3   OH235142   5.432   5.261   7.438
 4528TIP3    H135143   5.469   5.282   7.524
 4528TIP3    H235144   5.505   5.220   7.391
 4529TIP3   OH235145   4.848   0.643   1.417
 4529TIP3    H135146   4.888   0.593   1.346
 4529TIP3    H235147   4.920   0.663   1.476
 4530TIP3   OH235148   6.618   1.385   1.740
 4530TIP3    H135149   6.594   1.310   1.793
 4530TIP3    H235150   6.632   1.456   1.803
 4531TIP3   OH235151   4.926   6.498   1.625
 4531TIP3    H135152   4.965   6.565   1.682
 4531TIP3    H235153   4.893   6.431   1.685
 4532TIP3   OH235154   4.553   2.373   0.658
 4532TIP3    H135155   4.466   2.362   0.696
 4532TIP3    H235156   4.575   2.465   0.672
 4533TIP3   OH235157   4.427   6.041   0.920
 4533TIP3    H135158   4.422   6.103   0.992
 4533TIP3    H235159   4.336   6.016   0.903
 4534TIP3   OH235160   0.576   1.610   7.641
 4534TIP3    H135161   0.524   1.690   7.654
 4534TIP3    H235162   0.663   1.642   7.618
 4535TIP3   OH235163   0.469   6.244   7.484
 4535TIP3    H135164   0.423   6.177   7.536
 4535TIP3    H235165   0.483   6.316   7.546
 4536TIP3   OH235166   5.127   0.665   0.444
 4536TIP3    H135167   5.169   0.580   0.427
 4536TIP3    H235168   5.169   0.725   0.383
 4537TIP3   OH235169   4.474   2.643   8.161
 4537TIP3    H135170   4.426   2.702   8.219
 4537TIP3    H235171   4.542   2.605   8.216
 4538TIP3   OH235172   0.299   3.306   8.234
 4538TIP3    H135173   0.216   3.296   8.281
 4538TIP3    H235174   0.275   3.350   8.152
 4539TIP3   OH235175   3.589   0.312   8.543
 4539TIP3    H135176   3.678   0.292   8.573
 4539TIP3    H235177   3.559   0.382   8.602
 4540TIP3   OH235178   6.342   0.709   6.626
 4540TIP3    H135179   6.380   0.749   6.548
 4540TIP3    H235180   6.265   0.762   6.645
 4541TIP3   OH235181   6.470   2.902   1.865
 4541TIP3    H135182   6.487   2.995   1.851
 4541TIP3    H235183   6.531   2.858   1.805
 4542TIP3   OH235184   2.808   4.042   8.350
 4542TIP3    H135185   2.712   4.033   8.351
 4542TIP3    H235186   2.829   4.077   8.437
 4543TIP3   OH235187   6.428   3.544   8.311
 4543TIP3    H135188   6.397   3.476   8.250
 4543TIP3    H235189   6.413   3.507   8.398
 4544TIP3   OH235190   0.442   1.936   8.410
 4544TIP3    H135191   0.352   1.967   8.412
 4544TIP3    H235192   0.488   2.000   8.356
 4545TIP3   OH235193   0.488   2.439   2.227
 4545TIP3    H135194   0.578   2.447   2.259
 4545TIP3    H235195   0.474   2.519   2.176
 4546TIP3   OH235196   4.213   0.463   6.581
 4546TIP3    H135197   4.296   0.507   6.600
 4546TIP3    H235198   4.233   0.404   6.508
 4547TIP3   OH235199   4.015   6.646   7.817
 4547TIP3    H135200   4.019   6.684   7.905
 4547TIP3    H235201   3.957   6.704   7.768
 4548TIP3   OH235202   2.438   2.021   8.608
 4548TIP3    H135203   2.446   2.114   8.628
 4548TIP3    H235204   2.394   1.985   0.023
 4549TIP3   OH235205   2.059   4.761   8.240
 4549TIP3    H135206   2.110   4.777   8.161
 4549TIP3    H235207   1.969   4.748   8.208
 4550TIP3   OH235208   3.214   1.464   7.905
 4550TIP3    H135209   3.153   1.408   7.857
 4550TIP3    H235210   3.301   1.438   7.873
 4551TIP3   OH235211   2.752   1.159   7.982
 4551TIP3    H135212   2.665   1.127   8.004
 4551TIP3    H235213   2.789   1.091   7.926
 4552TIP3   OH235214   1.595   0.201   2.159
 4552TIP3    H135215   1.673   0.253   2.178
 4552TIP3    H235216   1.573   0.222   2.068
 4553TIP3   OH235217   4.790   1.286   6.585
 4553TIP3    H135218   4.804   1.197   6.619
 4553TIP3    H235219   4.740   1.330   6.654
 4554TIP3   OH235220   0.063   0.204   0.820
 4554TIP3    H135221   0.006   0.190   0.895
 4554TIP3    H235222   0.021   0.274   0.770
 4555TIP3   OH235223   5.610   3.951   0.227
 4555TIP3    H135224   5.652   3.903   0.299
 4555TIP3    H235225   5.535   3.898   0.203
 4556TIP3   OH235226   6.811   2.772   8.176
 4556TIP3    H135227   6.885   2.816   8.217
 4556TIP3    H235228   6.833   2.679   8.179
 4557TIP3   OH235229   0.458   4.129   0.785
 4557TIP3    H135230   0.538   4.088   0.819
 4557TIP3    H235231   0.421   4.174   0.861
 4558TIP3   OH235232   3.020   6.580   6.976
 4558TIP3    H135233   3.042   6.573   6.883
 4558TIP3    H235234   2.935   6.537   6.984
 4559TIP3   OH235235   1.402   4.227   0.550
 4559TIP3    H135236   1.335   4.275   0.503
 4559TIP3    H235237   1.429   4.157   0.489
 4560TIP3   OH235238   1.863   1.796   1.588
 4560TIP3    H135239   1.812   1.752   1.656
 4560TIP3    H235240   1.846   1.745   1.508
 4561TIP3   OH235241   5.494   6.588   8.364
 4561TIP3    H135242   5.539   6.583   8.448
 4561TIP3    H235243   5.460   6.677   8.360
 4562TIP3   OH235244   4.994   1.867   0.065
 4562TIP3    H135245   4.952   1.786   0.097
 4562TIP3    H235246   4.940   1.937   0.100
 4563TIP3   OH235247   4.223   6.729   1.334
 4563TIP3    H135248   4.197   6.762   1.421
 4563TIP3    H235249   4.217   6.634   1.342
 4564TIP3   OH235250   5.775   6.661   7.801
 4564TIP3    H135251   5.811   6.677   7.714
 4564TIP3    H235252   5.838   6.703   7.861
 4565TIP3   OH235253   6.070   4.945   1.372
 4565TIP3    H135254   6.005   4.876   1.356
 4565TIP3    H235255   6.064   4.963   1.466
 4566TIP3   OH235256   0.705   5.221   8.127
 4566TIP3    H135257   0.786   5.206   8.175
 4566TIP3    H235258   0.687   5.138   8.083
 4567TIP3   OH235259   5.086   1.163   2.018
 4567TIP3    H135260   5.107   1.072   2.037
 4567TIP3    H235261   5.098   1.208   2.102
 4568TIP3   OH235262   5.543   5.945   0.910
 4568TIP3    H135263   5.632   5.963   0.939
 4568TIP3    H235264   5.506   6.031   0.889
 4569TIP3   OH235265   4.094   2.184   1.510
 4569TIP3    H135266   4.165   2.248   1.515
 4569TIP3    H235267   4.014   2.236   1.517
 4570TIP3   OH235268   5.761   2.002   2.426
 4570TIP3    H135269   5.729   2.019   2.337
 4570TIP3    H235270   5.755   1.907   2.436
 4571TIP3   OH235271   0.439   6.623   2.095
 4571TIP3    H135272   0.383   6.565   2.147
 4571TIP3    H235273   0.412   6.711   2.121
 4572TIP3   OH235274   6.700   0.437   0.040
 4572TIP3    H135275   6.700   0.527   0.072
 4572TIP3    H235276   6.775   0.396   0.084
 4573TIP3   OH235277   6.798   6.328   0.784
 4573TIP3    H135278   6.761   6.352   0.869
 4573TIP3    H235279   6.722   6.322   0.726
 4574TIP3   OH235280   6.389   6.070   1.775
 4574TIP3    H135281   6.318   6.069   1.711
 4574TIP3    H235282   6.406   5.978   1.794
 4575TIP3   OH235283   3.132   3.996   1.139
 4575TIP3    H135284   3.038   4.011   1.138
 4575TIP3    H235285   3.169   4.070   1.091
 4576TIP3   OH235286   3.114   4.991   7.521
 4576TIP3    H135287   3.105   5.062   7.585
 4576TIP3    H235288   3.068   5.023   7.444
 4577TIP3   OH235289   5.755   4.841   1.445
 4577TIP3    H135290   5.807   4.806   1.373
 4577TIP3    H235291   5.734   4.931   1.418
 4578TIP3   OH235292   5.982   3.138   7.290
 4578TIP3    H135293   6.029   3.114   7.370
 4578TIP3    H235294   5.999   3.232   7.279
 4579TIP3   OH235295   1.985   5.873   1.752
 4579TIP3    H135296   1.910   5.864   1.811
 4579TIP3    H235297   2.026   5.786   1.752
 4580TIP3   OH235298   1.949   0.370   0.166
 4580TIP3    H135299   1.976   0.278   0.161
 4580TIP3    H235300   1.874   0.369   0.225
 4581TIP3   OH235301   3.404   1.109   1.211
 4581TIP3    H135302   3.334   1.156   1.164
 4581TIP3    H235303   3.379   1.017   1.205
 4582TIP3   OH235304   5.596   2.317   1.326
 4582TIP3    H135305   5.546   2.269   1.260
 4582TIP3    H235306   5.530   2.358   1.382
 4583TIP3   OH235307   3.374   6.387   7.259
 4583TIP3    H135308   3.457   6.374   7.304
 4583TIP3    H235309   3.331   6.458   7.306
 4584TIP3   OH235310   2.886   5.715   1.874
 4584TIP3    H135311   2.843   5.667   1.944
 4584TIP3    H235312   2.958   5.658   1.845
 4585TIP3   OH235313   6.268   3.882   0.097
 4585TIP3    H135314   6.190   3.853   0.144
 4585TIP3    H235315   6.267   3.978   0.105
 4586TIP3   OH235316   1.620   0.505   0.498
 4586TIP3    H135317   1.647   0.512   0.589
 4586TIP3    H235318   1.630   0.594   0.463
 4587TIP3   OH235319   5.159   1.013   8.634
 4587TIP3    H135320   5.152   1.101   8.599
 4587TIP3    H235321   5.221   0.969   8.577
 4588TIP3   OH235322   5.447   2.179   1.112
 4588TIP3    H135323   5.461   2.085   1.124
 4588TIP3    H235324   5.353   2.189   1.101
 4589TIP3   OH235325   5.201   3.986   7.546
 4589TIP3    H135326   5.175   4.027   7.464
 4589TIP3    H235327   5.195   3.892   7.529
 4590TIP3   OH235328   0.789   6.432   6.650
 4590TIP3    H135329   0.842   6.385   6.714
 4590TIP3    H235330   0.785   6.373   6.574
 4591TIP3   OH235331   6.345   2.059   1.398
 4591TIP3    H135332   6.259   2.020   1.416
 4591TIP3    H235333   6.325   2.147   1.365
 4592TIP3   OH235334   5.329   0.889   1.861
 4592TIP3    H135335   5.265   0.922   1.925
 4592TIP3    H235336   5.326   0.794   1.872
 4593TIP3   OH235337   0.396   2.118   7.709
 4593TIP3    H135338   0.444   2.156   7.635
 4593TIP3    H235339   0.308   2.156   7.702
 4594TIP3   OH235340   1.436   1.337   0.630
 4594TIP3    H135341   1.397   1.278   0.695
 4594TIP3    H235342   1.512   1.289   0.597
 4595TIP3   OH235343   3.720   0.421   0.972
 4595TIP3    H135344   3.780   0.363   1.020
 4595TIP3    H235345   3.746   0.410   0.880
 4596TIP3   OH235346   4.826   0.929   0.570
 4596TIP3    H135347   4.899   0.938   0.509
 4596TIP3    H235348   4.817   1.015   0.611
 4597TIP3   OH235349   4.495   0.982   7.790
 4597TIP3    H135350   4.413   0.984   7.739
 4597TIP3    H235351   4.466   0.992   7.881
 4598TIP3   OH235352   4.704   5.549   6.907
 4598TIP3    H135353   4.775   5.606   6.936
 4598TIP3    H235354   4.683   5.579   6.819
 4599TIP3   OH235355   4.098   1.336   1.575
 4599TIP3    H135356   4.187   1.360   1.601
 4599TIP3    H235357   4.094   1.241   1.591
 4600TIP3   OH235358   0.630   4.302   7.469
 4600TIP3    H135359   0.555   4.312   7.410
 4600TIP3    H235360   0.694   4.365   7.437
 4601TIP3   OH235361   3.823   5.194   7.312
 4601TIP3    H135362   3.906   5.208   7.358
 4601TIP3    H235363   3.840   5.120   7.253
 4602TIP3   OH235364   2.070   5.888   6.348
 4602TIP3    H135365   2.151   5.939   6.346
 4602TIP3    H235366   2.061   5.855   6.259
 4603TIP3   OH235367   1.860   5.630   1.676
 4603TIP3    H135368   1.851   5.535   1.666
 4603TIP3    H235369   1.890   5.660   1.590
 4604TIP3   OH235370   6.669   5.318   0.767
 4604TIP3    H135371   6.708   5.309   0.681
 4604TIP3    H235372   6.698   5.240   0.815
 4605TIP3   OH235373   0.971   2.903   7.551
 4605TIP3    H135374   0.939   2.917   7.641
 4605TIP3    H235375   0.983   2.808   7.545
 4606TIP3   OH235376   2.510   6.877   6.999
 4606TIP3    H135377   2.584   6.849   6.945
 4606TIP3    H235378   2.533   0.081   7.025
 4607TIP3   OH235379   2.807   1.271   8.609
 4607TIP3    H135380   2.784   1.211   0.018
 4607TIP3    H235381   2.742   1.341   8.615
 4608TIP3   OH235382   0.167   6.133   8.537
 4608TIP3    H135383   0.248   6.135   8.485
 4608TIP3    H235384   0.175   6.207   8.597
 4609TIP3   OH235385   5.162   0.051   1.341
 4609TIP3    H135386   5.152   0.008   1.425
 4609TIP3    H235387   5.077   0.041   1.298
 4610TIP3   OH235388   1.401   0.886   7.218
 4610TIP3    H135389   1.496   0.870   7.212
 4610TIP3    H235390   1.394   0.977   7.246
 4611TIP3   OH235391   1.031   2.389   0.148
 4611TIP3    H135392   1.092   2.335   0.199
 4611TIP3    H235393   0.975   2.430   0.215
 4612TIP3   OH235394   3.096   5.435   7.441
 4612TIP3    H135395   3.117   5.342   7.454
 4612TIP3    H235396   3.126   5.454   7.352
 4613TIP3   OH235397   4.930   3.410   7.072
 4613TIP3    H135398   5.022   3.414   7.098
 4613TIP3    H235399   4.906   3.318   7.083
 4614TIP3   OH235400   3.454   0.366   1.019
 4614TIP3    H135401   3.537   0.396   0.981
 4614TIP3    H235402   3.434   0.285   0.971
 4615TIP3   OH235403   3.219   0.854   0.786
 4615TIP3    H135404   3.232   0.947   0.802
 4615TIP3    H235405   3.131   0.848   0.747
 4616TIP3   OH235406   6.295   0.697   1.024
 4616TIP3    H135407   6.354   0.689   0.948
 4616TIP3    H235408   6.212   0.661   0.993
 4617TIP3   OH235409   6.370   1.154   0.423
 4617TIP3    H135410   6.306   1.219   0.451
 4617TIP3    H235411   6.455   1.196   0.436
 4618TIP3   OH235412   5.063   6.726   0.581
 4618TIP3    H135413   5.100   6.759   0.499
 4618TIP3    H235414   5.003   6.794   0.609
 4619TIP3   OH235415   2.691   0.869   0.523
 4619TIP3    H135416   2.742   0.940   0.563
 4619TIP3    H235417   2.635   0.913   0.459
 4620TIP3   OH235418   2.124   3.832   7.972
 4620TIP3    H135419   2.169   3.750   7.993
 4620TIP3    H235420   2.089   3.818   7.883
 4621TIP3   OH235421   0.365   5.633   8.644
 4621TIP3    H135422   0.433   5.700   8.633
 4621TIP3    H235423   0.383   5.595   0.068
 4622TIP3   OH235424   5.492   5.763   2.103
 4622TIP3    H135425   5.551   5.838   2.108
 4622TIP3    H235426   5.542   5.691   2.143
 4623TIP3   OH235427   4.319   3.639   1.764
 4623TIP3    H135428   4.334   3.694   1.842
 4623TIP3    H235429   4.264   3.568   1.796
 4624TIP3   OH235430   0.503   5.842   6.833
 4624TIP3    H135431   0.411   5.817   6.845
 4624TIP3    H235432   0.541   5.770   6.782
 4625TIP3   OH235433   3.554   5.435   6.753
 4625TIP3    H135434   3.512   5.354   6.783
 4625TIP3    H235435   3.519   5.449   6.665
 4626TIP3   OH235436   4.165   2.420   7.596
 4626TIP3    H135437   4.117   2.396   7.675
 4626TIP3    H235438   4.186   2.337   7.554
 4627TIP3   OH235439   3.075   1.946   7.498
 4627TIP3    H135440   3.086   2.038   7.475
 4627TIP3    H235441   3.063   1.946   7.593
 4628TIP3   OH235442   4.737   6.606   8.576
 4628TIP3    H135443   4.793   6.593   8.499
 4628TIP3    H235444   4.728   6.700   8.584
 4629TIP3   OH235445   3.413   1.959   7.945
 4629TIP3    H135446   3.380   2.046   7.922
 4629TIP3    H235447   3.508   1.968   7.941
 4630TIP3   OH235448   3.335   5.629   7.911
 4630TIP3    H135449   3.256   5.678   7.935
 4630TIP3    H235450   3.314   5.590   7.826
 4631TIP3   OH235451   0.835   1.461   1.161
 4631TIP3    H135452   0.838   1.401   1.236
 4631TIP3    H235453   0.743   1.458   1.132
 4632TIP3   OH235454   2.144   4.646   8.464
 4632TIP3    H135455   2.125   4.685   8.378
 4632TIP3    H235456   2.207   4.577   8.445
 4633TIP3   OH235457   5.970   4.764   6.897
 4633TIP3    H135458   6.000   4.834   6.840
 4633TIP3    H235459   5.904   4.805   6.952
 4634TIP3   OH235460   6.603   0.508   1.685
 4634TIP3    H135461   6.618   0.542   1.774
 4634TIP3    H235462   6.511   0.526   1.668
 4635TIP3   OH235463   3.919   1.899   1.373
 4635TIP3    H135464   3.988   1.891   1.438
 4635TIP3    H235465   3.959   1.867   1.292
 4636TIP3   OH235466   6.001   6.845   7.144
 4636TIP3    H135467   6.018   6.752   7.129
 4636TIP3    H235468   5.911   6.859   7.115
 4637TIP3   OH235469   3.948   3.112   7.723
 4637TIP3    H135470   3.991   3.031   7.697
 4637TIP3    H235471   3.914   3.149   7.642
 4638TIP3   OH235472   5.461   3.029   0.621
 4638TIP3    H135473   5.462   3.041   0.716
 4638TIP3    H235474   5.391   3.086   0.590
 4639TIP3   OH235475   0.635   0.769   0.249
 4639TIP3    H135476   0.567   0.836   0.255
 4639TIP3    H235477   0.634   0.742   0.157
 4640TIP3   OH235478   6.673   2.388   0.799
 4640TIP3    H135479   6.635   2.366   0.714
 4640TIP3    H235480   6.599   2.420   0.850
 4641TIP3   OH235481   3.493   3.475   8.037
 4641TIP3    H135482   3.435   3.426   7.979
 4641TIP3    H235483   3.566   3.415   8.055
 4642TIP3   OH235484   1.685   0.437   0.055
 4642TIP3    H135485   1.706   0.344   0.057
 4642TIP3    H235486   1.770   0.481   0.057
 4643TIP3   OH235487   3.033   0.647   1.572
 4643TIP3    H135488   2.964   0.629   1.637
 4643TIP3    H235489   2.992   0.626   1.488
 4644TIP3   OH235490   3.101   4.635   0.411
 4644TIP3    H135491   3.043   4.599   0.344
 4644TIP3    H235492   3.042   4.670   0.478
 4645TIP3   OH235493   2.832   6.216   1.091
 4645TIP3    H135494   2.849   6.185   1.002
 4645TIP3    H235495   2.818   6.311   1.081
 4646TIP3   OH235496   0.048   5.982   7.362
 4646TIP3    H135497   0.098   5.933   7.296
 4646TIP3    H235498   6.856   5.929   7.378
 4647TIP3   OH235499   1.049   4.657   0.170
 4647TIP3    H135500   1.081   4.687   0.255
 4647TIP3    H235501   1.118   4.601   0.136
 4648TIP3   OH235502   1.693   0.478   2.324
 4648TIP3    H135503   1.608   0.453   2.359
 4648TIP3    H235504   1.674   0.549   2.263
 4649TIP3   OH235505   2.350   4.229   7.486
 4649TIP3    H135506   2.265   4.244   7.446
 4649TIP3    H235507   2.363   4.135   7.482
 4650TIP3   OH235508   2.258   3.713   0.389
 4650TIP3    H135509   2.269   3.801   0.354
 4650TIP3    H235510   2.246   3.726   0.483
 4651TIP3   OH235511   0.184   3.725   0.300
 4651TIP3    H135512   0.183   3.815   0.269
 4651TIP3    H235513   0.208   3.672   0.224
 4652TIP3   OH235514   1.109   1.516   1.915
 4652TIP3    H135515   1.195   1.553   1.892
 4652TIP3    H235516   1.109   1.516   2.011
 4653TIP3   OH235517   0.454   5.149   7.194
 4653TIP3    H135518   0.378   5.093   7.180
 4653TIP3    H235519   0.520   5.116   7.132
 4654TIP3   OH235520   4.118   2.253   0.990
 4654TIP3    H135521   4.109   2.348   0.996
 4654TIP3    H235522   4.032   2.221   0.962
 4655TIP3   OH235523   2.788   3.226   1.923
 4655TIP3    H135524   2.849   3.204   1.852
 4655TIP3    H235525   2.768   3.319   1.910
 4656TIP3   OH235526   1.016   1.787   6.973
 4656TIP3    H135527   1.048   1.727   6.905
 4656TIP3    H235528   1.046   1.749   7.055
 4657TIP3   OH235529   6.035   1.632   8.624
 4657TIP3    H135530   6.012   1.564   0.025
 4657TIP3    H235531   5.953   1.676   8.604
 4658TIP3   OH235532   4.571   3.773   1.046
 4658TIP3    H135533   4.643   3.784   1.108
 4658TIP3    H235534   4.590   3.690   1.002
 4659TIP3   OH235535   6.606   0.796   7.100
 4659TIP3    H135536   6.539   0.805   7.032
 4659TIP3    H235537   6.557   0.798   7.182
 4660TIP3   OH235538   5.881   6.713   7.572
 4660TIP3    H135539   5.816   6.693   7.505
 4660TIP3    H235540   5.964   6.682   7.535
 4661TIP3   OH235541   5.787   1.429   1.395
 4661TIP3    H135542   5.768   1.348   1.348
 4661TIP3    H235543   5.778   1.405   1.488
 4662TIP3   OH235544   2.156   1.105   7.253
 4662TIP3    H135545   2.079   1.128   7.201
 4662TIP3    H235546   2.161   1.173   7.320
 4663TIP3   OH235547   3.426   5.192   7.699
 4663TIP3    H135548   3.442   5.253   7.628
 4663TIP3    H235549   3.332   5.201   7.718
 4664TIP3   OH235550   2.279   2.518   6.573
 4664TIP3    H135551   2.369   2.517   6.605
 4664TIP3    H235552   2.239   2.593   6.618
 4665TIP3   OH235553   0.858   3.152   2.269
 4665TIP3    H135554   0.837   3.198   2.188
 4665TIP3    H235555   0.848   3.218   2.337
 4666TIP3   OH235556   3.823   2.847   2.535
 4666TIP3    H135557   3.875   2.847   2.455
 4666TIP3    H235558   3.873   2.794   2.597
 4667TIP3   OH235559   3.433   4.105   0.428
 4667TIP3    H135560   3.482   4.184   0.407
 4667TIP3    H235561   3.497   4.047   0.469
 4668TIP3   OH235562   1.968   3.396   7.606
 4668TIP3    H135563   1.904   3.405   7.536
 4668TIP3    H235564   2.051   3.379   7.561
 4669TIP3   OH235565   6.711   3.906   7.950
 4669TIP3    H135566   6.782   3.905   7.887
 4669TIP3    H235567   6.637   3.944   7.903
 4670TIP3   OH235568   5.690   2.799   2.840
 4670TIP3    H135569   5.723   2.719   2.798
 4670TIP3    H235570   5.692   2.865   2.771
 4671TIP3   OH235571   5.049   0.004   2.412
 4671TIP3    H135572   5.079   6.853   2.330
 4671TIP3    H235573   5.083   6.831   2.480
 4672TIP3   OH235574   6.743   5.777   0.767
 4672TIP3    H135575   6.678   5.733   0.822
 4672TIP3    H235576   6.795   5.705   0.730
 4673TIP3   OH235577   4.494   2.950   3.026
 4673TIP3    H135578   4.492   2.876   2.966
 4673TIP3    H235579   4.449   2.918   3.104
 4674TIP3   OH235580   5.460   1.882   1.865
 4674TIP3    H135581   5.458   1.949   1.933
 4674TIP3    H235582   5.416   1.923   1.790
 4675TIP3   OH235583   0.827   0.228   1.962
 4675TIP3    H135584   0.762   0.174   2.007
 4675TIP3    H235585   0.827   0.195   1.872
 4676TIP3   OH235586   0.789   0.947   0.511
 4676TIP3    H135587   0.732   1.019   0.538
 4676TIP3    H235588   0.749   0.913   0.431
 4677TIP3   OH235589   1.774   4.287   0.729
 4677TIP3    H135590   1.746   4.287   0.637
 4677TIP3    H235591   1.787   4.194   0.749
 4678TIP3   OH235592   6.822   3.382   1.163
 4678TIP3    H135593   6.867   3.466   1.162
 4678TIP3    H235594   0.001   3.320   1.198
 4679TIP3   OH235595   2.516   0.839   7.130
 4679TIP3    H135596   2.575   0.784   7.182
 4679TIP3    H235597   2.453   0.777   7.092
 4680TIP3   OH235598   2.955   4.046   1.911
 4680TIP3    H135599   3.013   4.074   1.983
 4680TIP3    H235600   2.870   4.036   1.953
 4681TIP3   OH235601   4.568   5.460   0.756
 4681TIP3    H135602   4.659   5.454   0.784
 4681TIP3    H235603   4.545   5.371   0.730
 4682TIP3   OH235604   0.775   0.415   7.893
 4682TIP3    H135605   0.853   0.465   7.868
 4682TIP3    H235606   0.710   0.481   7.914
 4683TIP3   OH235607   1.132   6.601   8.169
 4683TIP3    H135608   1.076   6.543   8.117
 4683TIP3    H235609   1.190   6.543   8.217
 4684TIP3   OH235610   0.631   0.171   7.941
 4684TIP3    H135611   0.653   0.264   7.937
 4684TIP3    H235612   0.536   0.169   7.928
 4685TIP3   OH235613   4.175   6.407   8.057
 4685TIP3    H135614   4.206   6.401   7.967
 4685TIP3    H235615   4.082   6.384   8.052
 4686TIP3   OH235616   3.921   3.548   7.187
 4686TIP3    H135617   3.861   3.507   7.124
 4686TIP3    H235618   3.955   3.625   7.141
 4687TIP3   OH235619   4.540   0.992   1.869
 4687TIP3    H135620   4.581   1.079   1.868
 4687TIP3    H235621   4.610   0.932   1.894
 4688TIP3   OH235622   5.807   1.953   7.435
 4688TIP3    H135623   5.738   1.941   7.500
 4688TIP3    H235624   5.855   1.870   7.435
 4689TIP3   OH235625   5.687   5.385   1.398
 4689TIP3    H135626   5.728   5.308   1.360
 4689TIP3    H235627   5.754   5.422   1.456
 4690TIP3   OH235628   6.838   0.909   8.320
 4690TIP3    H135629   6.824   0.816   8.336
 4690TIP3    H235630   0.012   0.913   8.246
 4691TIP3   OH235631   2.766   6.289   0.359
 4691TIP3    H135632   2.763   6.204   0.315
 4691TIP3    H235633   2.708   6.345   0.307
 4692TIP3   OH235634   3.042   5.206   0.823
 4692TIP3    H135635   3.031   5.300   0.840
 4692TIP3    H235636   2.957   5.168   0.844
 4693TIP3   OH235637   5.125   3.991   0.265
 4693TIP3    H135638   5.087   3.972   0.351
 4693TIP3    H235639   5.137   3.905   0.225
 4694TIP3   OH235640   2.755   1.925   2.027
 4694TIP3    H135641   2.827   1.906   2.087
 4694TIP3    H235642   2.684   1.956   2.084
 4695TIP3   OH235643   6.490   1.390   0.589
 4695TIP3    H135644   6.471   1.324   0.656
 4695TIP3    H235645   6.567   1.357   0.543
 4696TIP3   OH235646   5.746   5.196   8.331
 4696TIP3    H135647   5.736   5.289   8.350
 4696TIP3    H235648   5.751   5.154   8.417
 4697TIP3   OH235649   4.564   5.780   6.529
 4697TIP3    H135650   4.496   5.835   6.568
 4697TIP3    H235651   4.646   5.812   6.568
 4698TIP3   OH235652   6.438   2.900   1.367
 4698TIP3    H135653   6.432   2.918   1.273
 4698TIP3    H235654   6.406   2.810   1.376
 4699TIP3   OH235655   2.105   4.825   6.929
 4699TIP3    H135656   2.139   4.777   6.854
 4699TIP3    H235657   2.052   4.895   6.891
 4700TIP3   OH235658   0.486   3.402   1.550
 4700TIP3    H135659   0.505   3.412   1.457
 4700TIP3    H235660   0.532   3.322   1.576
 4701TIP3   OH235661   1.153   4.142   0.058
 4701TIP3    H135662   1.248   4.131   0.056
 4701TIP3    H235663   1.133   4.190   8.640
 4702TIP3   OH235664   4.839   1.655   6.448
 4702TIP3    H135665   4.768   1.718   6.460
 4702TIP3    H235666   4.820   1.613   6.364
 4703TIP3   OH235667   1.345   4.601   0.269
 4703TIP3    H135668   1.331   4.695   0.258
 4703TIP3    H235669   1.388   4.593   0.354
 4704TIP3   OH235670   1.476   6.757   1.457
 4704TIP3    H135671   1.502   6.671   1.425
 4704TIP3    H235672   1.391   6.774   1.417
 4705TIP3   OH235673   4.115   2.478   8.588
 4705TIP3    H135674   4.120   2.393   8.544
 4705TIP3    H235675   4.082   2.538   8.520
 4706TIP3   OH235676   5.974   5.161   7.482
 4706TIP3    H135677   5.913   5.231   7.504
 4706TIP3    H235678   5.970   5.101   7.556
 4707TIP3   OH235679   5.108   0.700   8.028
 4707TIP3    H135680   5.123   0.766   8.096
 4707TIP3    H235681   5.017   0.714   8.001
 4708TIP3   OH235682   6.686   4.845   7.450
 4708TIP3    H135683   6.667   4.760   7.412
 4708TIP3    H235684   6.770   4.871   7.412
 4709TIP3   OH235685   3.784   6.222   0.943
 4709TIP3    H135686   3.771   6.137   0.984
 4709TIP3    H235687   3.866   6.213   0.894
 4710TIP3   OH235688   1.230   6.287   6.061
 4710TIP3    H135689   1.144   6.330   6.054
 4710TIP3    H235690   1.275   6.313   5.981
 4711TIP3   OH235691   1.032   2.872   1.201
 4711TIP3    H135692   1.108   2.832   1.244
 4711TIP3    H235693   1.008   2.945   1.257
 4712TIP3   OH235694   1.972   5.549   6.518
 4712TIP3    H135695   1.922   5.618   6.563
 4712TIP3    H235696   1.932   5.542   6.432
 4713TIP3   OH235697   2.729   1.458   1.306
 4713TIP3    H135698   2.666   1.402   1.351
 4713TIP3    H235699   2.812   1.410   1.310
 4714TIP3   OH235700   6.097   6.341   6.065
 4714TIP3    H135701   6.186   6.308   6.079
 4714TIP3    H235702   6.097   6.428   6.106
 4715TIP3   OH235703   1.729   6.343   8.437
 4715TIP3    H135704   1.693   6.257   8.415
 4715TIP3    H235705   1.700   6.358   8.527
 4716TIP3   OH235706   5.245   3.423   1.332
 4716TIP3    H135707   5.250   3.340   1.380
 4716TIP3    H235708   5.152   3.434   1.314
 4717TIP3   OH235709   5.488   6.326   8.299
 4717TIP3    H135710   5.509   6.417   8.281
 4717TIP3    H235711   5.567   6.291   8.340
 4718TIP3   OH235712   5.304   1.355   8.170
 4718TIP3    H135713   5.377   1.385   8.116
 4718TIP3    H235714   5.252   1.433   8.185
 4719TIP3   OH235715   2.051   3.003   0.032
 4719TIP3    H135716   2.132   3.032   0.076
 4719TIP3    H235717   2.020   2.931   0.086
 4720TIP3   OH235718   1.636   5.277   2.608
 4720TIP3    H135719   1.728   5.269   2.580
 4720TIP3    H235720   1.587   5.283   2.526
 4721TIP3   OH235721   2.425   2.542   0.457
 4721TIP3    H135722   2.478   2.571   0.531
 4721TIP3    H235723   2.380   2.464   0.489
 4722TIP3   OH235724   5.671   6.216   6.474
 4722TIP3    H135725   5.699   6.256   6.556
 4722TIP3    H235726   5.576   6.208   6.483
 4723TIP3   OH235727   1.355   4.306   7.002
 4723TIP3    H135728   1.438   4.291   6.958
 4723TIP3    H235729   1.289   4.285   6.936
 4724TIP3   OH235730   6.361   3.666   7.549
 4724TIP3    H135731   6.443   3.651   7.597
 4724TIP3    H235732   6.390   3.697   7.463
 4725TIP3   OH235733   0.572   0.083   0.401
 4725TIP3    H135734   0.627   0.161   0.393
 4725TIP3    H235735   0.560   0.053   0.311
 4726TIP3   OH235736   0.467   2.634   1.283
 4726TIP3    H135737   0.522   2.624   1.205
 4726TIP3    H235738   0.404   2.563   1.277
 4727TIP3   OH235739   2.036   3.326   0.111
 4727TIP3    H135740   2.104   3.350   0.047
 4727TIP3    H235741   2.016   3.235   0.090
 4728TIP3   OH235742   4.142   4.140   0.331
 4728TIP3    H135743   4.065   4.193   0.311
 4728TIP3    H235744   4.136   4.066   0.272
 4729TIP3   OH235745   3.630   2.299   1.121
 4729TIP3    H135746   3.536   2.285   1.110
 4729TIP3    H235747   3.664   2.300   1.032
 4730TIP3   OH235748   4.388   0.853   7.009
 4730TIP3    H135749   4.324   0.831   6.941
 4730TIP3    H235750   4.395   0.773   7.061
 4731TIP3   OH235751   4.934   2.669   1.683
 4731TIP3    H135752   4.985   2.708   1.754
 4731TIP3    H235753   4.961   2.578   1.681
 4732TIP3   OH235754   3.217   5.543   0.245
 4732TIP3    H135755   3.249   5.529   0.334
 4732TIP3    H235756   3.158   5.618   0.252
 4733TIP3   OH235757   0.091   0.352   0.069
 4733TIP3    H135758   0.123   0.311   0.149
 4733TIP3    H235759   0.125   0.441   0.073
 4734TIP3   OH235760   0.830   3.287   2.043
 4734TIP3    H135761   0.746   3.334   2.041
 4734TIP3    H235762   0.815   3.208   1.991
 4735TIP3   OH235763   2.656   5.050   8.128
 4735TIP3    H135764   2.660   4.955   8.133
 4735TIP3    H235765   2.721   5.080   8.191
 4736TIP3   OH235766   6.377   3.183   7.450
 4736TIP3    H135767   6.391   3.238   7.373
 4736TIP3    H235768   6.464   3.174   7.489
 4737TIP3   OH235769   3.789   3.089   2.688
 4737TIP3    H135770   3.781   3.169   2.636
 4737TIP3    H235771   3.792   3.019   2.623
 4738TIP3   OH235772   0.171   6.662   1.047
 4738TIP3    H135773   0.227   6.585   1.048
 4738TIP3    H235774   0.218   6.725   0.992
 4739TIP3   OH235775   6.829   2.025   2.575
 4739TIP3    H135776   6.816   2.010   2.669
 4739TIP3    H235777   6.764   2.092   2.552
 4740TIP3   OH235778   0.339   0.088   0.138
 4740TIP3    H135779   0.254   0.089   0.184
 4740TIP3    H235780   0.318   0.115   0.049
 4741TIP3   OH235781   4.114   2.513   0.868
 4741TIP3    H135782   4.047   2.569   0.829
 4741TIP3    H235783   4.139   2.453   0.798
 4742TIP3   OH235784   4.191   1.053   6.920
 4742TIP3    H135785   4.268   1.099   6.887
 4742TIP3    H235786   4.203   1.050   7.015
 4743TIP3   OH235787   2.856   4.019   7.484
 4743TIP3    H135788   2.875   3.976   7.401
 4743TIP3    H235789   2.774   4.065   7.469
 4744TIP3   OH235790   5.866   5.541   0.110
 4744TIP3    H135791   5.899   5.466   0.159
 4744TIP3    H235792   5.772   5.544   0.131
 4745TIP3   OH235793   0.001   6.529   1.611
 4745TIP3    H135794   0.029   6.615   1.642
 4745TIP3    H235795   6.854   6.485   1.690
 4746TIP3   OH235796   4.483   0.281   8.507
 4746TIP3    H135797   4.552   0.235   8.460
 4746TIP3    H235798   4.413   0.291   8.442
 4747TIP3   OH235799   6.419   6.708   7.492
 4747TIP3    H135800   6.494   6.767   7.498
 4747TIP3    H235801   6.350   6.751   7.543
 4748TIP3   OH235802   6.409   3.360   7.224
 4748TIP3    H135803   6.445   3.439   7.264
 4748TIP3    H235804   6.461   3.348   7.144
 4749TIP3   OH235805   6.684   5.314   8.366
 4749TIP3    H135806   6.721   5.391   8.408
 4749TIP3    H235807   6.591   5.314   8.392
 4750TIP3   OH235808   6.577   6.788   8.470
 4750TIP3    H135809   6.538   6.849   8.407
 4750TIP3    H235810   6.502   6.739   8.504
 4751TIP3   OH235811   1.168   5.316   7.925
 4751TIP3    H135812   1.243   5.375   7.912
 4751TIP3    H235813   1.191   5.265   8.002
 4752TIP3   OH235814   4.167   6.038   6.761
 4752TIP3    H135815   4.104   6.030   6.833
 4752TIP3    H235816   4.171   5.952   6.721
 4753TIP3   OH235817   5.918   0.131   1.062
 4753TIP3    H135818   6.013   0.136   1.051
 4753TIP3    H235819   5.891   0.057   1.007
 4754TIP3   OH235820   2.038   1.372   8.307
 4754TIP3    H135821   1.985   1.429   8.363
 4754TIP3    H235822   2.058   1.425   8.230
 4755TIP3   OH235823   5.287   6.511   8.608
 4755TIP3    H135824   5.266   6.463   0.025
 4755TIP3    H235825   5.259   6.454   8.537
 4756TIP3   OH235826   5.351   6.793   6.152
 4756TIP3    H135827   5.429   6.848   6.168
 4756TIP3    H235828   5.282   6.835   6.202
 4757TIP3   OH235829   1.466   2.799   7.758
 4757TIP3    H135830   1.440   2.733   7.821
 4757TIP3    H235831   1.475   2.751   7.675
 4758TIP3   OH235832   0.929   5.573   6.332
 4758TIP3    H135833   0.945   5.486   6.296
 4758TIP3    H235834   1.013   5.619   6.322
 4759TIP3   OH235835   6.276   0.366   7.860
 4759TIP3    H135836   6.293   0.429   7.930
 4759TIP3    H235837   6.197   0.399   7.816
 4760TIP3   OH235838   6.200   5.357   7.089
 4760TIP3    H135839   6.207   5.367   6.994
 4760TIP3    H235840   6.142   5.282   7.101
 4761TIP3   OH235841   4.282   3.474   6.916
 4761TIP3    H135842   4.307   3.420   6.841
 4761TIP3    H235843   4.187   3.485   6.906
 4762TIP3   OH235844   0.541   3.237   1.863
 4762TIP3    H135845   0.626   3.197   1.843
 4762TIP3    H235846   0.478   3.179   1.821
 4763TIP3   OH235847   6.618   6.400   1.026
 4763TIP3    H135848   6.624   6.377   1.118
 4763TIP3    H235849   6.531   6.369   0.999
 4764TIP3   OH235850   3.078   2.334   8.597
 4764TIP3    H135851   2.987   2.328   8.626
 4764TIP3    H235852   3.081   2.415   8.546
 4765TIP3   OH235853   5.926   4.995   0.075
 4765TIP3    H135854   5.926   4.901   0.059
 4765TIP3    H235855   5.940   5.003   0.170
 4766TIP3   OH235856   3.128   0.033   8.529
 4766TIP3    H135857   3.162   0.010   8.615
 4766TIP3    H235858   3.047   0.081   8.547
 4767TIP3   OH235859   0.387   6.107   0.803
 4767TIP3    H135860   0.302   6.144   0.778
 4767TIP3    H235861   0.443   6.122   0.726
 4768TIP3   OH235862   1.617   5.194   0.491
 4768TIP3    H135863   1.611   5.244   0.410
 4768TIP3    H235864   1.693   5.136   0.479
 4769TIP3   OH235865   0.024   3.204   8.608
 4769TIP3    H135866   0.107   3.163   8.634
 4769TIP3    H235867   0.038   3.298   8.624
 4770TIP3   OH235868   3.269   4.155   7.480
 4770TIP3    H135869   3.255   4.176   7.388
 4770TIP3    H235870   3.194   4.194   7.525
 4771TIP3   OH235871   6.154   6.054   8.031
 4771TIP3    H135872   6.108   6.124   7.986
 4771TIP3    H235873   6.244   6.060   7.998
 4772TIP3   OH235874   2.483   2.562   8.456
 4772TIP3    H135875   2.531   2.493   8.410
 4772TIP3    H235876   2.546   2.634   8.461
 4773TIP3   OH235877   2.159   6.853   7.847
 4773TIP3    H135878   2.080   6.801   7.837
 4773TIP3    H235879   2.200   6.818   7.926
 4774TIP3   OH235880   0.410   2.627   8.280
 4774TIP3    H135881   0.339   2.572   8.313
 4774TIP3    H235882   0.368   2.686   8.218
 4775TIP3   OH235883   2.772   3.571   7.702
 4775TIP3    H135884   2.756   3.630   7.628
 4775TIP3    H235885   2.807   3.491   7.662
 4776TIP3   OH235886   0.063   1.257   6.826
 4776TIP3    H135887   6.878   1.214   6.778
 4776TIP3    H235888   0.106   1.312   6.760
 4777TIP3   OH235889   0.361   3.738   1.219
 4777TIP3    H135890   0.350   3.645   1.199
 4777TIP3    H235891   0.343   3.783   1.137
 4778TIP3   OH235892   5.256   6.050   7.741
 4778TIP3    H135893   5.317   6.076   7.673
 4778TIP3    H235894   5.247   6.127   7.797
 4779TIP3   OH235895   4.835   0.322   1.336
 4779TIP3    H135896   4.833   0.262   1.262
 4779TIP3    H235897   4.913   0.377   1.320
 4780TIP3   OH235898   2.240   6.324   0.085
 4780TIP3    H135899   2.163   6.269   0.067
 4780TIP3    H235900   2.308   6.288   0.028
 4781TIP3   OH235901   6.615   6.294   1.263
 4781TIP3    H135902   6.617   6.211   1.311
 4781TIP3    H235903   6.574   6.356   1.323
 4782TIP3   OH235904   3.981   6.496   1.524
 4782TIP3    H135905   4.069   6.470   1.553
 4782TIP3    H235906   3.963   6.440   1.448
 4783TIP3   OH235907   3.379   6.218   8.200
 4783TIP3    H135908   3.326   6.173   8.134
 4783TIP3    H235909   3.466   6.179   8.191
 4784TIP3   OH235910   0.672   5.280   7.619
 4784TIP3    H135911   0.647   5.223   7.546
 4784TIP3    H235912   0.734   5.228   7.670
 4785TIP3   OH235913   4.533   3.633   6.039
 4785TIP3    H135914   4.502   3.629   6.130
 4785TIP3    H235915   4.559   3.543   6.019
 4786TIP3   OH235916   6.722   4.242   7.214
 4786TIP3    H135917   6.788   4.309   7.197
 4786TIP3    H235918   6.644   4.292   7.239
 4787TIP3   OH235919   2.682   2.149   7.716
 4787TIP3    H135920   2.595   2.137   7.754
 4787TIP3    H235921   2.729   2.069   7.739
 4788TIP3   OH235922   3.377   3.889   0.678
 4788TIP3    H135923   3.331   3.831   0.739
 4788TIP3    H235924   3.394   3.835   0.601
 4789TIP3   OH235925   3.167   4.063   0.516
 4789TIP3    H135926   3.108   4.004   0.469
 4789TIP3    H235927   3.251   4.052   0.472
 4790TIP3   OH235928   1.928   6.214   7.514
 4790TIP3    H135929   1.870   6.273   7.467
 4790TIP3    H235930   2.015   6.250   7.500
 4791TIP3   OH235931   4.169   1.593   7.427
 4791TIP3    H135932   4.151   1.575   7.519
 4791TIP3    H235933   4.097   1.650   7.400
 4792TIP3   OH235934   0.651   5.663   7.838
 4792TIP3    H135935   0.724   5.615   7.878
 4792TIP3    H235936   0.693   5.724   7.778
 4793TIP3   OH235937   3.374   2.598   0.549
 4793TIP3    H135938   3.303   2.641   0.501
 4793TIP3    H235939   3.440   2.578   0.483
 4794TIP3   OH235940   6.209   1.121   1.522
 4794TIP3    H135941   6.230   1.042   1.473
 4794TIP3    H235942   6.183   1.185   1.455
 4795TIP3   OH235943   5.705   6.469   8.538
 4795TIP3    H135944   5.778   6.503   8.589
 4795TIP3    H235945   5.726   6.376   8.525
 4796TIP3   OH235946   2.186   1.829   1.173
 4796TIP3    H135947   2.181   1.740   1.138
 4796TIP3    H235948   2.095   1.856   1.182
 4797TIP3   OH235949   1.599   0.079   0.916
 4797TIP3    H135950   1.618   0.142   0.985
 4797TIP3    H235951   1.511   0.048   0.937
 4798TIP3   OH235952   5.801   3.448   6.595
 4798TIP3    H135953   5.835   3.395   6.666
 4798TIP3    H235954   5.747   3.515   6.637
 4799TIP3   OH235955   5.107   1.248   1.227
 4799TIP3    H135956   5.103   1.181   1.160
 4799TIP3    H235957   5.177   1.307   1.199
 4800TIP3   OH235958   3.914   3.379   8.218
 4800TIP3    H135959   3.938   3.335   8.299
 4800TIP3    H235960   3.886   3.467   8.246
 4801TIP3   OH235961   3.668   0.486   1.764
 4801TIP3    H135962   3.718   0.485   1.682
 4801TIP3    H235963   3.675   0.397   1.797
 4802TIP3   OH235964   0.284   5.984   7.073
 4802TIP3    H135965   0.376   5.987   7.100
 4802TIP3    H235966   0.273   6.061   7.018
 4803TIP3   OH235967   4.110   0.821   2.513
 4803TIP3    H135968   4.132   0.770   2.590
 4803TIP3    H235969   4.101   0.757   2.443
 4804TIP3   OH235970   6.790   6.768   1.442
 4804TIP3    H135971   6.810   6.754   1.350
 4804TIP3    H235972   6.851   6.711   1.490
 4805TIP3   OH235973   2.805   6.758   8.265
 4805TIP3    H135974   2.717   6.762   8.301
 4805TIP3    H235975   2.804   6.682   8.207
 4806TIP3   OH235976   0.228   0.413   8.292
 4806TIP3    H135977   0.165   0.342   8.308
 4806TIP3    H235978   0.283   0.380   8.221
 4807TIP3   OH235979   5.227   6.298   1.650
 4807TIP3    H135980   5.151   6.322   1.597
 4807TIP3    H235981   5.236   6.368   1.714
 4808TIP3   OH235982   2.763   1.776   7.200
 4808TIP3    H135983   2.809   1.692   7.203
 4808TIP3    H235984   2.783   1.818   7.283
 4809TIP3   OH235985   0.108   1.997   0.094
 4809TIP3    H135986   0.125   2.048   0.014
 4809TIP3    H235987   0.121   1.906   0.067
 4810TIP3   OH235988   4.925   2.990   0.339
 4810TIP3    H135989   4.986   3.004   0.411
 4810TIP3    H235990   4.839   3.001   0.378
 4811TIP3   OH235991   3.448   3.193   6.304
 4811TIP3    H135992   3.469   3.250   6.379
 4811TIP3    H235993   3.410   3.115   6.343
 4812TIP3   OH235994   5.522   5.416   6.874
 4812TIP3    H135995   5.508   5.416   6.780
 4812TIP3    H235996   5.576   5.494   6.890
 4813TIP3   OH235997   5.485   0.744   0.253
 4813TIP3    H135998   5.540   0.716   0.181
 4813TIP3    H235999   5.527   0.706   0.331
 4814TIP3   OH236000   2.537   6.068   0.342
 4814TIP3    H136001   2.499   5.996   0.292
 4814TIP3    H236002   2.532   6.143   0.284
 4815TIP3   OH236003   3.441   2.154   0.209
 4815TIP3    H136004   3.402   2.175   0.124
 4815TIP3    H236005   3.480   2.067   0.197
 4816TIP3   OH236006   4.328   0.681   2.117
 4816TIP3    H136007   4.313   0.601   2.168
 4816TIP3    H236008   4.268   0.745   2.155
 4817TIP3   OH236009   1.056   3.695   8.630
 4817TIP3    H136010   1.048   3.606   8.594
 4817TIP3    H236011   1.107   3.683   0.048
 4818TIP3   OH236012   4.457   0.323   7.536
 4818TIP3    H136013   4.471   0.264   7.610
 4818TIP3    H236014   4.372   0.296   7.499
 4819TIP3   OH236015   4.283   6.453   8.457
 4819TIP3    H136016   4.236   6.401   8.392
 4819TIP3    H236017   4.219   6.470   8.526
 4820TIP3   OH236018   5.609   0.985   7.857
 4820TIP3    H136019   5.530   1.039   7.854
 4820TIP3    H236020   5.680   1.045   7.833
 4821TIP3   OH236021   3.290   3.770   1.094
 4821TIP3    H136022   3.233   3.843   1.121
 4821TIP3    H236023   3.363   3.813   1.048
 4822TIP3   OH236024   4.641   0.474   0.032
 4822TIP3    H136025   4.613   0.402   8.638
 4822TIP3    H236026   4.728   0.497   8.661
 4823TIP3   OH236027   2.540   0.090   7.715
 4823TIP3    H136028   2.495   0.151   7.774
 4823TIP3    H236029   2.614   0.058   7.766
 4824TIP3   OH236030   3.898   4.606   0.437
 4824TIP3    H136031   3.838   4.643   0.502
 4824TIP3    H236032   3.965   4.562   0.489
 4825TIP3   OH236033   2.788   2.315   7.364
 4825TIP3    H136034   2.745   2.234   7.337
 4825TIP3    H236035   2.741   2.344   7.442
 4826TIP3   OH236036   3.402   0.541   1.890
 4826TIP3    H136037   3.464   0.536   1.817
 4826TIP3    H236038   3.344   0.466   1.879
 4827TIP3   OH236039   5.889   1.497   6.792
 4827TIP3    H136040   5.857   1.588   6.794
 4827TIP3    H236041   5.976   1.502   6.752
 4828TIP3   OH236042   4.316   1.869   7.417
 4828TIP3    H136043   4.354   1.813   7.350
 4828TIP3    H236044   4.296   1.810   7.489
 4829TIP3   OH236045   3.073   1.704   6.710
 4829TIP3    H136046   3.089   1.616   6.676
 4829TIP3    H236047   2.978   1.715   6.705
 4830TIP3   OH236048   6.807   4.067   7.587
 4830TIP3    H136049   6.823   4.121   7.510
 4830TIP3    H236050   6.726   4.103   7.624
 4831TIP3   OH236051   2.583   3.605   8.124
 4831TIP3    H136052   2.554   3.620   8.034
 4831TIP3    H236053   2.519   3.543   8.159
 4832TIP3   OH236054   0.958   5.403   6.911
 4832TIP3    H136055   0.903   5.397   6.833
 4832TIP3    H236056   0.911   5.462   6.970
 4833TIP3   OH236057   5.797   1.638   7.628
 4833TIP3    H136058   5.731   1.622   7.561
 4833TIP3    H236059   5.748   1.638   7.710
 4834TIP3   OH236060   5.539   2.457   1.039
 4834TIP3    H136061   5.508   2.376   1.079
 4834TIP3    H236062   5.634   2.444   1.030
 4835TIP3   OH236063   4.705   2.636   2.707
 4835TIP3    H136064   4.787   2.637   2.657
 4835TIP3    H236065   4.698   2.546   2.739
 4836TIP3   OH236066   4.385   4.233   0.712
 4836TIP3    H136067   4.393   4.208   0.804
 4836TIP3    H236068   4.291   4.248   0.699
 4837TIP3   OH236069   6.578   4.454   6.256
 4837TIP3    H136070   6.552   4.370   6.219
 4837TIP3    H236071   6.616   4.432   6.341
 4838TIP3   OH236072   3.425   6.738   2.272
 4838TIP3    H136073   3.345   6.776   2.236
 4838TIP3    H236074   3.470   6.811   2.314
 4839TIP3   OH236075   0.100   0.581   8.086
 4839TIP3    H136076   0.091   0.515   8.018
 4839TIP3    H236077   0.167   0.545   8.145
 4840TIP3   OH236078   0.038   1.524   1.647
 4840TIP3    H136079   0.049   1.430   1.638
 4840TIP3    H236080   0.127   1.559   1.657
 4841TIP3   OH236081   0.576   0.615   7.951
 4841TIP3    H136082   0.583   0.599   8.045
 4841TIP3    H236083   0.491   0.577   7.926
 4842TIP3   OH236084   1.932   0.675   2.439
 4842TIP3    H136085   1.858   0.714   2.393
 4842TIP3    H236086   1.919   0.700   2.531
 4843TIP3   OH236087   0.811   3.840   2.098
 4843TIP3    H136088   0.717   3.856   2.100
 4843TIP3    H236089   0.831   3.824   2.006
 4844TIP3   OH236090   5.032   5.164   7.913
 4844TIP3    H136091   4.939   5.152   7.896
 4844TIP3    H236092   5.075   5.124   7.837
 4845TIP3   OH236093   3.308   5.459   8.230
 4845TIP3    H136094   3.394   5.452   8.189
 4845TIP3    H236095   3.251   5.406   8.174
 4846TIP3   OH236096   1.792   1.695   1.262
 4846TIP3    H136097   1.706   1.723   1.292
 4846TIP3    H236098   1.775   1.621   1.204
 4847TIP3   OH236099   6.354   0.912   0.261
 4847TIP3    H136100   6.351   0.997   0.306
 4847TIP3    H236101   6.427   0.866   0.302
 4848TIP3   OH236102   0.700   5.655   8.574
 4848TIP3    H136103   0.674   5.724   8.635
 4848TIP3    H236104   0.672   5.573   8.617
 4849TIP3   OH236105   1.937   3.776   0.778
 4849TIP3    H136106   1.938   3.791   0.872
 4849TIP3    H236107   1.869   3.711   0.764
 4850TIP3   OH236108   3.764   1.838   7.142
 4850TIP3    H136109   3.844   1.804   7.102
 4850TIP3    H236110   3.695   1.812   7.081
 4851TIP3   OH236111   3.305   2.167   8.421
 4851TIP3    H136112   3.215   2.170   8.454
 4851TIP3    H236113   3.304   2.097   8.356
 4852TIP3   OH236114   4.704   4.705   8.146
 4852TIP3    H136115   4.712   4.646   8.071
 4852TIP3    H236116   4.661   4.653   8.213
 4853TIP3   OH236117   3.070   3.323   0.658
 4853TIP3    H136118   3.106   3.302   0.744
 4853TIP3    H236119   3.038   3.413   0.666
 4854TIP3   OH236120   3.213   5.243   8.414
 4854TIP3    H136121   3.247   5.324   8.376
 4854TIP3    H236122   3.243   5.174   8.355
 4855TIP3   OH236123   5.257   2.038   0.104
 4855TIP3    H136124   5.224   2.110   0.160
 4855TIP3    H236125   5.179   2.007   0.058
 4856TIP3   OH236126   4.083   3.232   6.077
 4856TIP3    H136127   4.139   3.159   6.052
 4856TIP3    H236128   4.143   3.306   6.086
 4857TIP3   OH236129   4.019   1.308   8.350
 4857TIP3    H136130   4.065   1.379   8.306
 4857TIP3    H236131   3.929   1.341   8.360
 4858TIP3   OH236132   0.369   5.640   7.766
 4858TIP3    H136133   0.383   5.550   7.794
 4858TIP3    H236134   0.456   5.679   7.768
 4859TIP3   OH236135   6.715   4.556   0.787
 4859TIP3    H136136   6.638   4.612   0.780
 4859TIP3    H236137   6.689   4.487   0.848
 4860TIP3   OH236138   2.824   1.827   7.446
 4860TIP3    H136139   2.918   1.842   7.457
 4860TIP3    H236140   2.785   1.852   7.530
 4861TIP3   OH236141   4.674   2.636   1.492
 4861TIP3    H136142   4.768   2.646   1.482
 4861TIP3    H236143   4.654   2.551   1.454
 4862TIP3   OH236144   2.466   3.484   0.547
 4862TIP3    H136145   2.379   3.445   0.537
 4862TIP3    H236146   2.526   3.414   0.520
 4863TIP3   OH236147   4.335   1.874   6.406
 4863TIP3    H136148   4.412   1.929   6.415
 4863TIP3    H236149   4.281   1.918   6.340
 4864TIP3   OH236150   5.990   3.902   8.164
 4864TIP3    H136151   6.042   3.977   8.136
 4864TIP3    H236152   6.012   3.833   8.102
 4865TIP3   OH236153   0.717   1.213   7.094
 4865TIP3    H136154   0.797   1.264   7.103
 4865TIP3    H236155   0.735   1.153   7.022
 4866TIP3   OH236156   1.724   4.354   0.476
 4866TIP3    H136157   1.638   4.359   0.435
 4866TIP3    H236158   1.773   4.292   0.422
 4867TIP3   OH236159   2.550   3.102   0.051
 4867TIP3    H136160   2.618   3.170   0.057
 4867TIP3    H236161   2.565   3.046   0.127
 4868TIP3   OH236162   5.802   5.278   6.306
 4868TIP3    H136163   5.878   5.230   6.273
 4868TIP3    H236164   5.727   5.238   6.263
 4869TIP3   OH236165   2.934   6.586   1.741
 4869TIP3    H136166   2.910   6.566   1.832
 4869TIP3    H236167   2.873   6.655   1.715
 4870TIP3   OH236168   2.158   6.868   8.561
 4870TIP3    H136169   2.102   6.800   8.598
 4870TIP3    H236170   2.098   0.051   8.534
 4871TIP3   OH236171   3.853   4.428   2.142
 4871TIP3    H136172   3.804   4.349   2.122
 4871TIP3    H236173   3.936   4.396   2.179
 4872TIP3   OH236174   5.227   2.994   7.317
 4872TIP3    H136175   5.220   3.000   7.412
 4872TIP3    H236176   5.289   2.922   7.303
 4873TIP3   OH236177   2.989   1.896   0.254
 4873TIP3    H136178   3.044   1.941   0.190
 4873TIP3    H236179   3.036   1.905   0.337
 4874TIP3   OH236180   5.796   3.581   8.531
 4874TIP3    H136181   5.842   3.505   8.496
 4874TIP3    H236182   5.832   3.656   8.483
 4875TIP3   OH236183   4.680   3.937   8.420
 4875TIP3    H136184   4.614   3.893   8.368
 4875TIP3    H236185   4.757   3.942   8.363
 4876TIP3   OH236186   5.641   4.602   8.504
 4876TIP3    H136187   5.572   4.649   8.458
 4876TIP3    H236188   5.655   4.523   8.452
 4877TIP3   OH236189   1.925   0.325   2.396
 4877TIP3    H136190   1.853   0.380   2.364
 4877TIP3    H236191   1.957   0.279   2.318
 4878TIP3   OH236192   4.197   5.127   8.428
 4878TIP3    H136193   4.135   5.084   8.486
 4878TIP3    H236194   4.252   5.181   8.486
 4879TIP3   OH236195   2.106   2.041   0.487
 4879TIP3    H136196   2.090   2.043   0.393
 4879TIP3    H236197   2.023   2.067   0.526
 4880TIP3   OH236198   0.507   4.741   6.386
 4880TIP3    H136199   0.496   4.776   6.474
 4880TIP3    H236200   0.569   4.669   6.396
 4881TIP3   OH236201   2.131   0.777   2.266
 4881TIP3    H136202   2.076   0.740   2.335
 4881TIP3    H236203   2.146   0.868   2.294
 4882TIP3   OH236204   3.925   5.682   1.683
 4882TIP3    H136205   3.992   5.613   1.677
 4882TIP3    H236206   3.861   5.647   1.746
 4883TIP3   OH236207   2.056   2.108   7.553
 4883TIP3    H136208   1.961   2.120   7.543
 4883TIP3    H236209   2.083   2.182   7.609
 4884TIP3   OH236210   1.436   6.595   2.441
 4884TIP3    H136211   1.362   6.538   2.420
 4884TIP3    H236212   1.478   6.611   2.356
 4885TIP3   OH236213   2.491   4.803   7.290
 4885TIP3    H136214   2.416   4.747   7.312
 4885TIP3    H236215   2.556   4.781   7.357
 4886TIP3   OH236216   3.420   1.131   7.855
 4886TIP3    H136217   3.445   1.063   7.919
 4886TIP3    H236218   3.339   1.167   7.890
 4887TIP3   OH236219   5.718   5.775   1.881
 4887TIP3    H136220   5.733   5.782   1.976
 4887TIP3    H236221   5.806   5.772   1.844
 4888TIP3   OH236222   6.573   5.236   1.400
 4888TIP3    H136223   6.527   5.165   1.444
 4888TIP3    H236224   6.572   5.212   1.308
 4889TIP3   OH236225   3.309   3.625   7.886
 4889TIP3    H136226   3.278   3.546   7.843
 4889TIP3    H236227   3.385   3.597   7.937
 4890TIP3   OH236228   1.018   3.833   7.487
 4890TIP3    H136229   0.990   3.874   7.569
 4890TIP3    H236230   0.942   3.783   7.457
 4891TIP3   OH236231   1.099   0.003   7.444
 4891TIP3    H136232   1.172   6.870   7.386
 4891TIP3    H236233   1.097   0.098   7.451
 4892TIP3   OH236234   3.153   3.481   7.550
 4892TIP3    H136235   3.070   3.434   7.546
 4892TIP3    H236236   3.218   3.413   7.567
 4893TIP3   OH236237   1.624   4.807   6.828
 4893TIP3    H136238   1.655   4.856   6.904
 4893TIP3    H236239   1.655   4.858   6.753
 4894TIP3   OH236240   5.019   4.292   0.855
 4894TIP3    H136241   5.097   4.256   0.899
 4894TIP3    H236242   5.000   4.373   0.904
 4895TIP3   OH236243   0.818   4.608   7.643
 4895TIP3    H136244   0.731   4.625   7.606
 4895TIP3    H236245   0.863   4.555   7.577
 4896TIP3   OH236246   5.347   6.692   7.619
 4896TIP3    H136247   5.365   6.604   7.587
 4896TIP3    H236248   5.253   6.692   7.637
 4897TIP3   OH236249   2.088   6.033   0.943
 4897TIP3    H136250   2.010   5.989   0.977
 4897TIP3    H236251   2.065   6.126   0.944
 4898TIP3   OH236252   5.728   1.406   0.441
 4898TIP3    H136253   5.786   1.335   0.416
 4898TIP3    H236254   5.768   1.444   0.519
 4899TIP3   OH236255   5.123   5.879   1.357
 4899TIP3    H136256   5.138   5.945   1.424
 4899TIP3    H236257   5.146   5.922   1.275
 4900TIP3   OH236258   1.125   0.498   6.532
 4900TIP3    H136259   1.072   0.575   6.552
 4900TIP3    H236260   1.205   0.533   6.493
 4901TIP3   OH236261   1.816   6.373   0.614
 4901TIP3    H136262   1.790   6.403   0.701
 4901TIP3    H236263   1.748   6.406   0.556
 4902TIP3   OH236264   1.558   2.570   8.330
 4902TIP3    H136265   1.614   2.542   8.403
 4902TIP3    H236266   1.613   2.629   8.279
 4903TIP3   OH236267   0.212   5.265   1.911
 4903TIP3    H136268   0.155   5.206   1.960
 4903TIP3    H236269   0.297   5.220   1.909
 4904TIP3   OH236270   6.005   4.581   0.374
 4904TIP3    H136271   5.948   4.657   0.363
 4904TIP3    H236272   6.070   4.608   0.439
 4905TIP3   OH236273   6.118   1.907   1.965
 4905TIP3    H136274   6.030   1.916   2.002
 4905TIP3    H236275   6.173   1.881   2.039
 4906TIP3   OH236276   5.403   2.512   1.393
 4906TIP3    H136277   5.322   2.511   1.343
 4906TIP3    H236278   5.462   2.568   1.341
 4907TIP3   OH236279   4.501   0.413   0.259
 4907TIP3    H136280   4.558   0.442   0.188
 4907TIP3    H236281   4.412   0.432   0.228
 4908TIP3   OH236282   5.627   4.500   0.298
 4908TIP3    H136283   5.541   4.470   0.266
 4908TIP3    H236284   5.645   4.444   0.373
 4909TIP3   OH236285   0.896   1.565   7.418
 4909TIP3    H136286   0.952   1.489   7.400
 4909TIP3    H236287   0.921   1.593   7.506
 4910TIP3   OH236288   1.234   1.475   1.207
 4910TIP3    H136289   1.183   1.539   1.258
 4910TIP3    H236290   1.170   1.408   1.182
 4911TIP3   OH236291   1.005   2.423   8.093
 4911TIP3    H136292   1.094   2.389   8.096
 4911TIP3    H236293   0.965   2.393   8.174
 4912TIP3   OH236294   4.469   5.775   1.651
 4912TIP3    H136295   4.434   5.704   1.597
 4912TIP3    H236296   4.536   5.734   1.704
 4913TIP3   OH236297   4.911   6.518   6.979
 4913TIP3    H136298   4.821   6.524   7.008
 4913TIP3    H236299   4.961   6.494   7.057
 4914TIP3   OH236300   3.522   3.473   6.215
 4914TIP3    H136301   3.473   3.403   6.259
 4914TIP3    H236302   3.614   3.452   6.232
 4915TIP3   OH236303   2.495   2.706   0.937
 4915TIP3    H136304   2.577   2.753   0.948
 4915TIP3    H236305   2.429   2.774   0.921
 4916TIP3   OH236306   6.084   5.336   1.758
 4916TIP3    H136307   6.167   5.293   1.780
 4916TIP3    H236308   6.020   5.294   1.816
 4917TIP3   OH236309   3.786   2.940   1.353
 4917TIP3    H136310   3.713   2.893   1.394
 4917TIP3    H236311   3.783   3.027   1.391
 4918TIP3   OH236312   3.727   4.130   2.565
 4918TIP3    H136313   3.794   4.087   2.619
 4918TIP3    H236314   3.772   4.205   2.526
 4919TIP3   OH236315   2.804   5.069   0.901
 4919TIP3    H136316   2.780   5.078   0.993
 4919TIP3    H236317   2.736   5.014   0.863
 4920TIP3   OH236318   1.877   4.711   2.122
 4920TIP3    H136319   1.789   4.690   2.089
 4920TIP3    H236320   1.865   4.790   2.173
 4921TIP3   OH236321   2.885   5.622   1.451
 4921TIP3    H136322   2.965   5.629   1.399
 4921TIP3    H236323   2.867   5.528   1.454
 4922TIP3   OH236324   1.099   6.208   8.346
 4922TIP3    H136325   1.038   6.234   8.416
 4922TIP3    H236326   1.043   6.185   8.272
 4923TIP3   OH236327   4.841   3.329   2.199
 4923TIP3    H136328   4.841   3.256   2.261
 4923TIP3    H236329   4.922   3.377   2.218
 4924TIP3   OH236330   2.739   3.715   8.375
 4924TIP3    H136331   2.729   3.810   8.379
 4924TIP3    H236332   2.664   3.685   8.324
 4925TIP3   OH236333   2.926   6.806   2.128
 4925TIP3    H136334   2.885   6.787   2.212
 4925TIP3    H236335   2.892   6.739   2.069
 4926TIP3   OH236336   4.631   0.867   7.183
 4926TIP3    H136337   4.536   0.876   7.188
 4926TIP3    H236338   4.664   0.932   7.246
 4927TIP3   OH236339   0.048   6.754   7.967
 4927TIP3    H136340   0.003   6.790   8.043
 4927TIP3    H236341   0.076   6.667   7.994
 4928TIP3   OH236342   6.577   6.832   7.119
 4928TIP3    H136343   6.517   0.004   7.165
 4928TIP3    H236344   6.639   6.803   7.186
 4929TIP3   OH236345   4.567   5.113   7.602
 4929TIP3    H136346   4.610   5.059   7.668
 4929TIP3    H236347   4.540   5.192   7.650
 4930TIP3   OH236348   3.158   4.473   2.041
 4930TIP3    H136349   3.193   4.452   2.127
 4930TIP3    H236350   3.156   4.389   1.995
 4931TIP3   OH236351   2.272   3.992   8.226
 4931TIP3    H136352   2.193   3.954   8.265
 4931TIP3    H236353   2.281   4.077   8.268
 4932TIP3   OH236354   5.436   1.231   8.362
 4932TIP3    H136355   5.410   1.270   8.279
 4932TIP3    H236356   5.406   1.294   8.428
 4933TIP3   OH236357   0.849   5.240   2.402
 4933TIP3    H136358   0.828   5.301   2.331
 4933TIP3    H236359   0.896   5.294   2.466
 4934TIP3   OH236360   1.371   6.097   8.199
 4934TIP3    H136361   1.378   6.002   8.203
 4934TIP3    H236362   1.304   6.114   8.133
 4935TIP3   OH236363   2.561   4.562   0.722
 4935TIP3    H136364   2.509   4.500   0.671
 4935TIP3    H236365   2.615   4.508   0.778
 4936TIP3   OH236366   0.712   3.065   1.258
 4936TIP3    H136367   0.744   3.128   1.193
 4936TIP3    H236368   0.714   2.980   1.212
 4937TIP3   OH236369   2.930   5.166   2.162
 4937TIP3    H136370   3.021   5.165   2.133
 4937TIP3    H236371   2.929   5.230   2.234
 4938TIP3   OH236372   6.333   6.119   1.232
 4938TIP3    H136373   6.410   6.124   1.289
 4938TIP3    H236374   6.259   6.114   1.292
 4939TIP3   OH236375   5.861   0.403   0.406
 4939TIP3    H136376   5.843   0.496   0.421
 4939TIP3    H236377   5.930   0.403   0.339
 4940TIP3   OH236378   3.941   0.472   1.624
 4940TIP3    H136379   3.914   0.540   1.562
 4940TIP3    H236380   4.019   0.434   1.585
 4941TIP3   OH236381   5.202   1.313   7.853
 4941TIP3    H136382   5.185   1.404   7.828
 4941TIP3    H236383   5.217   1.317   7.948
 4942TIP3   OH236384   2.798   3.507   7.268
 4942TIP3    H136385   2.837   3.448   7.333
 4942TIP3    H236386   2.798   3.593   7.311
 4943TIP3   OH236387   5.626   4.541   1.751
 4943TIP3    H136388   5.568   4.613   1.727
 4943TIP3    H236389   5.568   4.469   1.772
 4944TIP3   OH236390   1.605   2.484   0.641
 4944TIP3    H136391   1.578   2.558   0.696
 4944TIP3    H236392   1.530   2.425   0.643
 4945TIP3   OH236393   4.777   2.875   8.286
 4945TIP3    H136394   4.749   2.832   8.204
 4945TIP3    H236395   4.811   2.960   8.258
 4946TIP3   OH236396   5.427   2.966   0.116
 4946TIP3    H136397   5.343   2.998   0.149
 4946TIP3    H236398   5.491   3.030   0.147
 4947TIP3   OH236399   1.828   0.288   2.052
 4947TIP3    H136400   1.869   0.342   1.984
 4947TIP3    H236401   1.793   0.213   2.005
 4948TIP3   OH236402   0.773   1.718   2.056
 4948TIP3    H136403   0.784   1.787   2.122
 4948TIP3    H236404   0.812   1.640   2.096
 4949TIP3   OH236405   3.185   1.118   0.559
 4949TIP3    H136406   3.278   1.121   0.536
 4949TIP3    H236407   3.147   1.055   0.497
 4950TIP3   OH236408   5.791   0.302   7.363
 4950TIP3    H136409   5.721   0.327   7.424
 4950TIP3    H236410   5.757   0.325   7.277
 4951TIP3   OH236411   6.379   3.915   8.103
 4951TIP3    H136412   6.289   3.926   8.072
 4951TIP3    H236413   6.434   3.948   8.032
 4952TIP3   OH236414   4.707   1.852   7.783
 4952TIP3    H136415   4.734   1.828   7.871
 4952TIP3    H236416   4.737   1.942   7.772
 4953TIP3   OH236417   5.683   3.797   0.449
 4953TIP3    H136418   5.633   3.739   0.506
 4953TIP3    H236419   5.770   3.802   0.490
 4954TIP3   OH236420   4.260   4.435   0.983
 4954TIP3    H136421   4.209   4.395   0.913
 4954TIP3    H236422   4.283   4.362   1.041
 4955TIP3   OH236423   4.986   3.437   1.341
 4955TIP3    H136424   5.006   3.430   1.434
 4955TIP3    H236425   4.890   3.436   1.337
 4956TIP3   OH236426   0.326   3.059   7.975
 4956TIP3    H136427   0.354   3.149   7.995
 4956TIP3    H236428   0.231   3.060   7.986
 4957TIP3   OH236429   6.289   2.423   2.571
 4957TIP3    H136430   6.233   2.353   2.535
 4957TIP3    H236431   6.227   2.488   2.604
 4958TIP3   OH236432   3.301   2.668   0.011
 4958TIP3    H136433   3.272   2.759   0.026
 4958TIP3    H236434   3.374   2.657   0.072
 4959TIP3   OH236435   6.025   5.002   7.690
 4959TIP3    H136436   6.069   4.942   7.629
 4959TIP3    H236437   6.079   4.999   7.769
 4960TIP3   OH236438   5.506   0.752   2.464
 4960TIP3    H136439   5.418   0.772   2.495
 4960TIP3    H236440   5.564   0.806   2.518
 4961TIP3   OH236441   0.810   1.118   6.552
 4961TIP3    H136442   0.793   1.031   6.587
 4961TIP3    H236443   0.894   1.144   6.589
 4962TIP3   OH236444   2.394   4.610   0.362
 4962TIP3    H136445   2.350   4.582   0.282
 4962TIP3    H236446   2.436   4.692   0.338
 4963TIP3   OH236447   1.228   3.237   7.531
 4963TIP3    H136448   1.308   3.187   7.548
 4963TIP3    H236449   1.226   3.249   7.436
 4964TIP3   OH236450   1.001   3.103   1.335
 4964TIP3    H136451   0.909   3.124   1.353
 4964TIP3    H236452   1.037   3.078   1.421
 4965TIP3   OH236453   1.154   1.392   7.682
 4965TIP3    H136454   1.151   1.301   7.652
 4965TIP3    H236455   1.191   1.387   7.770
 4966TIP3   OH236456   2.769   5.210   1.745
 4966TIP3    H136457   2.861   5.236   1.752
 4966TIP3    H236458   2.760   5.174   1.657
 4967TIP3   OH236459   6.290   3.196   0.845
 4967TIP3    H136460   6.299   3.291   0.844
 4967TIP3    H236461   6.368   3.164   0.799
 4968TIP3   OH236462   5.539   3.769   7.954
 4968TIP3    H136463   5.614   3.827   7.963
 4968TIP3    H236464   5.577   3.681   7.947
 4969TIP3   OH236465   2.189   0.608   0.988
 4969TIP3    H136466   2.124   0.551   0.949
 4969TIP3    H236467   2.227   0.557   1.060
 4970TIP3   OH236468   0.238   2.102   2.457
 4970TIP3    H136469   0.296   2.045   2.510
 4970TIP3    H236470   0.150   2.072   2.478
 4971TIP3   OH236471   6.818   5.332   0.534
 4971TIP3    H136472   6.857   5.247   0.517
 4971TIP3    H236473   6.857   5.390   0.469
 4972TIP3   OH236474   2.063   5.300   0.021
 4972TIP3    H136475   1.976   5.288   8.644
 4972TIP3    H236476   2.052   5.373   0.082
 4973TIP3   OH236477   1.268   0.291   7.163
 4973TIP3    H136478   1.239   0.265   7.251
 4973TIP3    H236479   1.301   0.380   7.175
 4974TIP3   OH236480   0.664   3.385   0.778
 4974TIP3    H136481   0.679   3.476   0.749
 4974TIP3    H236482   0.587   3.391   0.833
 4975TIP3   OH236483   1.449   2.914   1.309
 4975TIP3    H136484   1.402   2.877   1.234
 4975TIP3    H236485   1.441   2.847   1.377
 4976TIP3   OH236486   3.627   6.427   1.675
 4976TIP3    H136487   3.623   6.445   1.581
 4976TIP3    H236488   3.607   6.511   1.717
 4977TIP3   OH236489   6.606   1.463   2.030
 4977TIP3    H136490   6.658   1.514   2.092
 4977TIP3    H236491   6.571   1.391   2.082
 4978TIP3   OH236492   0.471   6.298   0.310
 4978TIP3    H136493   0.500   6.369   0.254
 4978TIP3    H236494   0.383   6.278   0.280
 4979TIP3   OH236495   2.241   5.346   2.225
 4979TIP3    H136496   2.321   5.384   2.261
 4979TIP3    H236497   2.227   5.392   2.142
 4980TIP3   OH236498   5.542   5.329   7.143
 4980TIP3    H136499   5.536   5.324   7.048
 4980TIP3    H236500   5.545   5.237   7.172
 4981TIP3   OH236501   3.694   6.385   7.103
 4981TIP3    H136502   3.661   6.468   7.138
 4981TIP3    H236503   3.786   6.384   7.129
 4982TIP3   OH236504   5.331   5.833   1.616
 4982TIP3    H136505   5.407   5.869   1.661
 4982TIP3    H236506   5.282   5.909   1.586
 4983TIP3   OH236507   1.946   3.680   8.379
 4983TIP3    H136508   1.875   3.630   8.338
 4983TIP3    H236509   1.966   3.631   8.459
 4984TIP3   OH236510   4.100   3.121   1.046
 4984TIP3    H136511   4.096   3.205   1.092
 4984TIP3    H236512   4.081   3.055   1.113
 4985TIP3   OH236513   1.436   5.236   7.799
 4985TIP3    H136514   1.409   5.265   7.886
 4985TIP3    H236515   1.505   5.297   7.774
 4986TIP3   OH236516   1.573   4.820   0.033
 4986TIP3    H136517   1.546   4.898   0.083
 4986TIP3    H236518   1.605   4.759   0.099
 4987TIP3   OH236519   5.622   2.197   0.769
 4987TIP3    H136520   5.645   2.221   0.859
 4987TIP3    H236521   5.527   2.188   0.771
 4988TIP3   OH236522   1.042   5.390   0.633
 4988TIP3    H136523   1.136   5.400   0.652
 4988TIP3    H236524   1.037   5.392   0.537
 4989TIP3   OH236525   2.999   6.867   7.414
 4989TIP3    H136526   2.950   6.824   7.483
 4989TIP3    H236527   3.031   6.795   7.359
 4990TIP3   OH236528   6.027   5.898   1.339
 4990TIP3    H136529   6.027   5.861   1.428
 4990TIP3    H236530   6.073   5.832   1.287
 4991TIP3   OH236531   4.386   1.345   8.534
 4991TIP3    H136532   4.317   1.379   8.590
 4991TIP3    H236533   4.458   1.324   8.593
 4992TIP3   OH236534   6.711   1.484   6.891
 4992TIP3    H136535   6.798   1.483   6.850
 4992TIP3    H236536   6.663   1.415   6.846
 4993TIP3   OH236537   6.494   3.056   1.128
 4993TIP3    H136538   6.554   3.060   1.054
 4993TIP3    H236539   6.545   3.088   1.202
 4994TIP3   OH236540   1.017   6.851   8.149
 4994TIP3    H136541   1.066   6.769   8.160
 4994TIP3    H236542   0.978   6.844   8.062
 4995TIP3   OH236543   1.986   4.788   0.252
 4995TIP3    H136544   1.962   4.826   0.337
 4995TIP3    H236545   1.920   4.721   0.237
 4996TIP3   OH236546   0.420   2.829   2.283
 4996TIP3    H136547   0.421   2.920   2.310
 4996TIP3    H236548   0.402   2.832   2.189
 4997TIP3   OH236549   2.567   0.796   8.364
 4997TIP3    H136550   2.527   0.734   8.425
 4997TIP3    H236551   2.620   0.854   8.418
 4998TIP3   OH236552   4.816   6.295   1.372
 4998TIP3    H136553   4.850   6.226   1.429
 4998TIP3    H236554   4.753   6.342   1.426
 4999TIP3   OH236555   2.377   5.304   1.805
 4999TIP3    H136556   2.447   5.319   1.741
 4999TIP3    H236557   2.331   5.227   1.771
 5000TIP3   OH236558   3.758   2.544   0.950
 5000TIP3    H136559   3.672   2.540   0.908
 5000TIP3    H236560   3.818   2.570   0.880
 5001TIP3   OH236561   0.769   0.584   1.010
 5001TIP3    H136562   0.756   0.495   0.976
 5001TIP3    H236563   0.681   0.616   1.028
 5002TIP3   OH236564   6.542   3.108   8.104
 5002TIP3    H136565   6.532   3.017   8.134
 5002TIP3    H236566   6.582   3.100   8.017
 5003TIP3   OH236567   6.443   2.435   0.950
 5003TIP3    H136568   6.453   2.425   1.044
 5003TIP3    H236569   6.403   2.353   0.921
 5004TIP3   OH236570   1.805   2.824   7.587
 5004TIP3    H136571   1.745   2.771   7.535
 5004TIP3    H236572   1.848   2.761   7.645
 5005TIP3   OH236573   3.044   4.197   6.264
 5005TIP3    H136574   3.054   4.102   6.267
 5005TIP3    H236575   2.960   4.213   6.307
 5006TIP3   OH236576   0.611   1.727   8.369
 5006TIP3    H136577   0.605   1.738   8.274
 5006TIP3    H236578   0.544   1.785   8.405
 5007TIP3   OH236579   4.344   1.308   8.257
 5007TIP3    H136580   4.267   1.361   8.282
 5007TIP3    H236581   4.393   1.299   8.339
 5008TIP3   OH236582   0.035   0.874   6.269
 5008TIP3    H136583   6.880   0.788   6.280
 5008TIP3    H236584   0.029   0.914   6.356
 5009TIP3   OH236585   4.192   3.211   8.417
 5009TIP3    H136586   4.121   3.257   8.463
 5009TIP3    H236587   4.228   3.277   8.358
 5010TIP3   OH236588   6.787   6.628   1.001
 5010TIP3    H136589   6.761   6.542   1.035
 5010TIP3    H236590   6.878   6.638   1.028
 5011TIP3   OH236591   0.920   0.296   8.429
 5011TIP3    H136592   0.862   0.224   8.453
 5011TIP3    H236593   0.916   0.299   8.333
 5012TIP3   OH236594   1.931   6.331   0.354
 5012TIP3    H136595   1.906   6.361   0.441
 5012TIP3    H236596   1.963   6.242   0.367
 5013TIP3   OH236597   6.073   5.437   0.448
 5013TIP3    H136598   6.017   5.501   0.492
 5013TIP3    H236599   6.160   5.452   0.485
 5014TIP3   OH236600   4.598   2.361   7.209
 5014TIP3    H136601   4.690   2.343   7.188
 5014TIP3    H236602   4.573   2.289   7.268
 5015TIP3   OH236603   5.850   2.601   2.729
 5015TIP3    H136604   5.905   2.546   2.785
 5015TIP3    H236605   5.912   2.647   2.672
 5016TIP3   OH236606   1.565   6.182   0.190
 5016TIP3    H136607   1.570   6.210   0.098
 5016TIP3    H236608   1.655   6.191   0.222
 5017TIP3   OH236609   6.470   6.453   7.564
 5017TIP3    H136610   6.450   6.542   7.536
 5017TIP3    H236611   6.562   6.441   7.540
 5018TIP3   OH236612   5.939   0.235   1.880
 5018TIP3    H136613   5.859   0.287   1.888
 5018TIP3    H236614   5.914   0.149   1.914
 5019TIP3   OH236615   2.128   2.189   7.260
 5019TIP3    H136616   2.078   2.128   7.314
 5019TIP3    H236617   2.088   2.275   7.278
 5020TIP3   OH236618   2.264   3.133   0.131
 5020TIP3    H136619   2.272   3.179   0.215
 5020TIP3    H236620   2.277   3.202   0.065
 5021TIP3   OH236621   4.081   1.195   0.983
 5021TIP3    H136622   4.021   1.196   0.908
 5021TIP3    H236623   4.074   1.282   1.021
 5022TIP3   OH236624   5.357   2.532   8.255
 5022TIP3    H136625   5.285   2.473   8.278
 5022TIP3    H236626   5.425   2.474   8.219
 5023TIP3   OH236627   5.102   3.424   6.716
 5023TIP3    H136628   5.148   3.442   6.635
 5023TIP3    H236629   5.113   3.330   6.730
 5024TIP3   OH236630   2.445   4.455   6.922
 5024TIP3    H136631   2.416   4.521   6.985
 5024TIP3    H236632   2.368   4.400   6.909
 5025TIP3   OH236633   4.075   3.713   0.945
 5025TIP3    H136634   4.160   3.704   0.988
 5025TIP3    H236635   4.080   3.654   0.870
 5026TIP3   OH236636   6.231   6.523   0.996
 5026TIP3    H136637   6.189   6.441   1.025
 5026TIP3    H236638   6.271   6.559   1.076
 5027TIP3   OH236639   4.908   1.414   7.984
 5027TIP3    H136640   4.843   1.395   8.052
 5027TIP3    H236641   4.857   1.456   7.915
 5028TIP3   OH236642   2.339   3.645   1.114
 5028TIP3    H136643   2.298   3.716   1.065
 5028TIP3    H236644   2.421   3.628   1.067
 5029TIP3   OH236645   1.242   5.214   6.924
 5029TIP3    H136646   1.299   5.250   6.991
 5029TIP3    H236647   1.299   5.202   6.848
 5030TIP3   OH236648   5.739   1.195   0.192
 5030TIP3    H136649   5.715   1.124   0.133
 5030TIP3    H236650   5.671   1.195   0.259
 5031TIP3   OH236651   5.126   2.770   7.563
 5031TIP3    H136652   5.035   2.744   7.553
 5031TIP3    H236653   5.129   2.818   7.646
 5032TIP3   OH236654   3.119   0.334   6.312
 5032TIP3    H136655   3.041   0.280   6.326
 5032TIP3    H236656   3.182   0.276   6.270
 5033TIP3   OH236657   5.585   3.493   7.999
 5033TIP3    H136658   5.675   3.463   7.985
 5033TIP3    H236659   5.531   3.416   7.983
 5034TIP3   OH236660   4.725   2.726   1.887
 5034TIP3    H136661   4.724   2.733   1.983
 5034TIP3    H236662   4.809   2.763   1.861
 5035TIP3   OH236663   1.303   5.079   0.971
 5035TIP3    H136664   1.236   5.010   0.978
 5035TIP3    H236665   1.270   5.150   1.025
 5036TIP3   OH236666   3.745   4.599   7.923
 5036TIP3    H136667   3.788   4.611   8.008
 5036TIP3    H236668   3.776   4.514   7.892
 5037TIP3   OH236669   4.182   1.527   8.301
 5037TIP3    H136670   4.252   1.584   8.330
 5037TIP3    H236671   4.155   1.563   8.217
 5038TIP3   OH236672   1.094   5.923   1.391
 5038TIP3    H136673   1.151   5.863   1.342
 5038TIP3    H236674   1.019   5.938   1.332
 5039TIP3   OH236675   0.062   4.438   0.700
 5039TIP3    H136676   0.091   4.502   0.635
 5039TIP3    H236677   6.867   4.474   0.735
 5040TIP3   OH236678   6.208   0.076   1.119
 5040TIP3    H136679   6.153   6.884   1.127
 5040TIP3    H236680   6.217   0.088   1.024
 5041TIP3   OH236681   1.260   5.003   7.157
 5041TIP3    H136682   1.342   5.042   7.126
 5041TIP3    H236683   1.244   5.046   7.241
 5042TIP3   OH236684   6.640   2.613   7.983
 5042TIP3    H136685   6.712   2.672   7.964
 5042TIP3    H236686   6.631   2.559   7.904
 5043TIP3   OH236687   3.568   3.492   1.775
 5043TIP3    H136688   3.619   3.551   1.720
 5043TIP3    H236689   3.635   3.445   1.826
 5044TIP3   OH236690   0.006   6.332   1.395
 5044TIP3    H136691   6.823   6.267   1.411
 5044TIP3    H236692   6.884   6.395   1.467
 5045TIP3   OH236693   3.470   3.093   0.400
 5045TIP3    H136694   3.524   3.020   0.430
 5045TIP3    H236695   3.382   3.073   0.433
 5046TIP3   OH236696   3.909   2.588   7.662
 5046TIP3    H136697   3.892   2.547   7.578
 5046TIP3    H236698   3.858   2.537   7.725
 5047TIP3   OH236699   4.863   6.286   0.082
 5047TIP3    H136700   4.781   6.280   0.033
 5047TIP3    H236701   4.931   6.264   0.019
 5048TIP3   OH236702   0.357   0.264   8.070
 5048TIP3    H136703   0.329   0.190   8.123
 5048TIP3    H236704   0.365   0.229   7.982
 5049TIP3   OH236705   4.233   0.716   1.739
 5049TIP3    H136706   4.295   0.676   1.800
 5049TIP3    H236707   4.282   0.726   1.658
 5050TIP3   OH236708   6.497   1.786   7.772
 5050TIP3    H136709   6.543   1.719   7.822
 5050TIP3    H236710   6.423   1.739   7.732
 5051TIP3   OH236711   1.463   6.626   7.327
 5051TIP3    H136712   1.436   6.642   7.237
 5051TIP3    H236713   1.502   6.709   7.356
 5052TIP3   OH236714   4.665   0.976   1.475
 5052TIP3    H136715   4.746   0.985   1.426
 5052TIP3    H236716   4.658   0.882   1.494
 5053TIP3   OH236717   4.541   6.869   7.217
 5053TIP3    H136718   4.521   0.045   7.148
 5053TIP3    H236719   4.472   6.803   7.210
 5054TIP3   OH236720   1.331   5.460   1.290
 5054TIP3    H136721   1.397   5.440   1.222
 5054TIP3    H236722   1.281   5.379   1.299
 5055TIP3   OH236723   3.793   0.199   8.301
 5055TIP3    H136724   3.710   0.239   8.275
 5055TIP3    H236725   3.821   0.149   8.225
 5056TIP3   OH236726   4.231   5.881   7.442
 5056TIP3    H136727   4.203   5.793   7.465
 5056TIP3    H236728   4.204   5.893   7.351
 5057TIP3   OH236729   0.022   1.990   7.287
 5057TIP3    H136730   0.081   2.003   7.361
 5057TIP3    H236731   0.061   2.041   7.216
 5058TIP3   OH236732   0.185   6.249   0.708
 5058TIP3    H136733   0.171   6.293   0.624
 5058TIP3    H236734   0.116   6.282   0.764
 5059TIP3   OH236735   4.077   6.028   8.218
 5059TIP3    H136736   4.007   5.966   8.234
 5059TIP3    H236737   4.156   5.975   8.211
 5060TIP3   OH236738   3.592   4.772   0.452
 5060TIP3    H136739   3.498   4.784   0.438
 5060TIP3    H236740   3.606   4.793   0.544
 5061TIP3   OH236741   1.366   5.388   0.142
 5061TIP3    H136742   1.366   5.451   0.071
 5061TIP3    H236743   1.287   5.336   0.128
 5062TIP3   OH236744   3.723   6.761   8.628
 5062TIP3    H136745   3.758   6.802   0.045
 5062TIP3    H236746   3.723   6.667   8.647
 5063TIP3   OH236747   0.948   1.304   0.442
 5063TIP3    H136748   0.954   1.254   0.360
 5063TIP3    H236749   1.030   1.353   0.445
 5064TIP3   OH236750   4.097   5.415   0.265
 5064TIP3    H136751   4.184   5.386   0.239
 5064TIP3    H236752   4.037   5.358   0.216
 5065TIP3   OH236753   2.594   1.154   0.676
 5065TIP3    H136754   2.549   1.140   0.592
 5065TIP3    H236755   2.685   1.172   0.652
 5066TIP3   OH236756   0.440   3.479   7.672
 5066TIP3    H136757   0.348   3.459   7.689
 5066TIP3    H236758   0.454   3.451   7.581
 5067TIP3   OH236759   0.579   4.154   1.119
 5067TIP3    H136760   0.637   4.223   1.153
 5067TIP3    H236761   0.508   4.202   1.078
 5068TIP3   OH236762   4.060   2.875   1.295
 5068TIP3    H136763   4.077   2.877   1.390
 5068TIP3    H236764   3.974   2.914   1.286
 5069TIP3   OH236765   2.547   6.841   0.985
 5069TIP3    H136766   2.580   0.024   0.927
 5069TIP3    H236767   2.518   6.772   0.925
 5070TIP3   OH236768   1.209   3.849   8.445
 5070TIP3    H136769   1.188   3.786   8.514
 5070TIP3    H236770   1.251   3.921   8.492
 5071TIP3   OH236771   2.878   4.342   1.933
 5071TIP3    H136772   2.852   4.313   2.020
 5071TIP3    H236773   2.877   4.437   1.937
 5072TIP3   OH236774   5.992   5.255   1.413
 5072TIP3    H136775   5.979   5.204   1.492
 5072TIP3    H236776   5.969   5.195   1.342
 5073TIP3   OH236777   4.915   3.652   6.755
 5073TIP3    H136778   4.981   3.594   6.794
 5073TIP3    H236779   4.927   3.736   6.799
 5074TIP3   OH236780   6.234   2.247   2.030
 5074TIP3    H136781   6.276   2.226   2.113
 5074TIP3    H236782   6.156   2.297   2.055
 5075TIP3   OH236783   3.522   3.822   0.968
 5075TIP3    H136784   3.584   3.843   1.037
 5075TIP3    H236785   3.563   3.750   0.920
 5076TIP3   OH236786   1.154   1.806   0.580
 5076TIP3    H136787   1.201   1.735   0.536
 5076TIP3    H236788   1.081   1.827   0.521
 5077TIP3   OH236789   0.137   2.883   8.314
 5077TIP3    H136790   0.166   2.810   8.370
 5077TIP3    H236791   0.173   2.961   8.357
 5078TIP3   OH236792   2.727   6.495   0.975
 5078TIP3    H136793   2.716   6.449   0.892
 5078TIP3    H236794   2.639   6.501   1.012
 5079TIP3   OH236795   3.673   0.065   0.970
 5079TIP3    H136796   3.740   0.046   0.904
 5079TIP3    H236797   3.635   0.149   0.942
 5080TIP3   OH236798   1.310   5.455   0.399
 5080TIP3    H136799   1.400   5.478   0.422
 5080TIP3    H236800   1.319   5.395   0.325
 5081TIP3   OH236801   1.492   0.763   8.644
 5081TIP3    H136802   1.439   0.830   0.025
 5081TIP3    H236803   1.568   0.753   0.040
 5082TIP3   OH236804   5.379   3.876   0.491
 5082TIP3    H136805   5.424   3.797   0.520
 5082TIP3    H236806   5.287   3.850   0.483
 5083TIP3   OH236807   3.096   1.376   7.272
 5083TIP3    H136808   3.011   1.353   7.234
 5083TIP3    H236809   3.154   1.390   7.197
 5084TIP3   OH236810   0.989   1.236   0.154
 5084TIP3    H136811   1.075   1.230   0.113
 5084TIP3    H236812   0.949   1.151   0.139
 5085TIP3   OH236813   1.123   5.260   0.103
 5085TIP3    H136814   1.064   5.300   0.038
 5085TIP3    H236815   1.065   5.207   0.158
 5086TIP3   OH236816   0.964   3.182   6.132
 5086TIP3    H136817   0.907   3.123   6.181
 5086TIP3    H236818   1.048   3.136   6.129
 5087TIP3   OH236819   3.615   1.375   8.081
 5087TIP3    H136820   3.582   1.457   8.044
 5087TIP3    H236821   3.692   1.401   8.131
 5088TIP3   OH236822   5.993   3.111   8.374
 5088TIP3    H136823   6.055   3.079   8.439
 5088TIP3    H236824   5.910   3.067   8.395
 5089TIP3   OH236825   4.129   3.254   8.078
 5089TIP3    H136826   4.126   3.166   8.116
 5089TIP3    H236827   4.063   3.303   8.127
 5090TIP3   OH236828   5.711   6.118   7.987
 5090TIP3    H136829   5.726   6.066   8.066
 5090TIP3    H236830   5.681   6.055   7.922
 5091TIP3   OH236831   3.678   0.734   0.187
 5091TIP3    H136832   3.632   0.802   0.237
 5091TIP3    H236833   3.607   0.685   0.145
 5092TIP3   OH236834   3.182   3.648   0.390
 5092TIP3    H136835   3.156   3.582   0.454
 5092TIP3    H236836   3.202   3.726   0.443
 5093TIP3   OH236837   1.854   4.165   0.321
 5093TIP3    H136838   1.947   4.171   0.342
 5093TIP3    H236839   1.845   4.081   0.275
 5094TIP3   OH236840   6.474   5.269   0.300
 5094TIP3    H136841   6.481   5.193   0.243
 5094TIP3    H236842   6.562   5.307   0.300
 5095TIP3   OH236843   0.079   0.065   0.551
 5095TIP3    H136844   0.170   0.085   0.571
 5095TIP3    H236845   0.028   0.126   0.606
 5096TIP3   OH236846   4.910   4.200   7.890
 5096TIP3    H136847   4.942   4.202   7.800
 5096TIP3    H236848   4.918   4.109   7.916
 5097TIP3   OH236849   1.616   5.361   0.249
 5097TIP3    H136850   1.636   5.455   0.251
 5097TIP3    H236851   1.525   5.357   0.220
 5098TIP3   OH236852   4.453   5.028   8.236
 5098TIP3    H136853   4.489   5.097   8.293
 5098TIP3    H236854   4.480   4.946   8.278
 5099TIP3   OH236855   0.338   4.379   8.077
 5099TIP3    H136856   0.326   4.303   8.134
 5099TIP3    H236857   0.254   4.425   8.079
 5100TIP3   OH236858   3.621   3.348   0.578
 5100TIP3    H136859   3.650   3.296   0.653
 5100TIP3    H236860   3.527   3.332   0.572
 5101TIP3   OH236861   6.624   1.596   1.105
 5101TIP3    H136862   6.671   1.650   1.042
 5101TIP3    H236863   6.544   1.570   1.060
 5102TIP3   OH236864   1.767   4.484   6.919
 5102TIP3    H136865   1.728   4.560   6.962
 5102TIP3    H236866   1.789   4.514   6.831
 5103TIP3   OH236867   1.605   2.662   8.010
 5103TIP3    H136868   1.621   2.578   8.053
 5103TIP3    H236869   1.691   2.690   7.979
 5104TIP3   OH236870   2.059   5.528   0.636
 5104TIP3    H136871   2.124   5.509   0.568
 5104TIP3    H236872   2.035   5.442   0.671
 5105TIP3   OH236873   5.965   3.404   7.021
 5105TIP3    H136874   6.023   3.479   7.004
 5105TIP3    H236875   5.933   3.378   6.935
 5106TIP3   OH236876   4.932   6.191   7.271
 5106TIP3    H136877   4.958   6.169   7.361
 5106TIP3    H236878   4.948   6.285   7.264
 5107TIP3   OH236879   3.807   5.802   1.088
 5107TIP3    H136880   3.752   5.877   1.113
 5107TIP3    H236881   3.867   5.792   1.161
 5108TIP3   OH236882   5.339   2.695   7.431
 5108TIP3    H136883   5.270   2.718   7.493
 5108TIP3    H236884   5.295   2.687   7.347
 5109TIP3   OH236885   1.299   1.459   7.265
 5109TIP3    H136886   1.381   1.446   7.217
 5109TIP3    H236887   1.316   1.533   7.323
 5110TIP3   OH236888   1.111   1.226   2.489
 5110TIP3    H136889   1.120   1.320   2.477
 5110TIP3    H236890   1.191   1.189   2.453
 5111TIP3   OH236891   3.821   0.472   6.354
 5111TIP3    H136892   3.858   0.420   6.425
 5111TIP3    H236893   3.833   0.563   6.383
 5112TIP3   OH236894   2.006   0.108   0.108
 5112TIP3    H136895   2.100   0.105   0.125
 5112TIP3    H236896   1.999   0.130   0.015
 5113TIP3   OH236897   3.763   3.586   8.297
 5113TIP3    H136898   3.741   3.668   8.252
 5113TIP3    H236899   3.685   3.565   8.349
 5114TIP3   OH236900   2.932   1.402   0.649
 5114TIP3    H136901   2.906   1.362   0.566
 5114TIP3    H236902   2.962   1.489   0.626
 5115TIP3   OH236903   1.939   4.917   8.541
 5115TIP3    H136904   1.983   4.913   8.456
 5115TIP3    H236905   1.848   4.937   8.520
 5116TIP3   OH236906   3.381   1.758   2.220
 5116TIP3    H136907   3.430   1.818   2.276
 5116TIP3    H236908   3.407   1.782   2.131
 5117TIP3   OH236909   5.298   1.572   7.077
 5117TIP3    H136910   5.269   1.581   6.987
 5117TIP3    H236911   5.393   1.567   7.072
 5118TIP3   OH236912   2.435   5.038   0.418
 5118TIP3    H136913   2.429   5.023   0.324
 5118TIP3    H236914   2.527   5.021   0.440
 5119TIP3   OH236915   3.798   6.021   7.756
 5119TIP3    H136916   3.770   5.971   7.680
 5119TIP3    H236917   3.889   6.045   7.736
 5120TIP3   OH236918   0.379   1.209   8.473
 5120TIP3    H136919   0.348   1.298   8.456
 5120TIP3    H236920   0.333   1.154   8.409
 5121TIP3   OH236921   6.516   6.760   2.325
 5121TIP3    H136922   6.461   6.718   2.392
 5121TIP3    H236923   6.565   6.688   2.287
 5122TIP3   OH236924   0.994   3.084   8.080
 5122TIP3    H136925   1.083   3.081   8.114
 5122TIP3    H236926   0.988   3.169   8.036
 5123TIP3   OH236927   3.763   1.910   0.693
 5123TIP3    H136928   3.820   1.973   0.738
 5123TIP3    H236929   3.698   1.964   0.649
 5124TIP3   OH236930   1.428   4.489   6.650
 5124TIP3    H136931   1.511   4.442   6.658
 5124TIP3    H236932   1.404   4.480   6.558
 5125TIP3   OH236933   6.785   4.775   7.088
 5125TIP3    H136934   6.700   4.745   7.120
 5125TIP3    H236935   6.765   4.814   7.002
 5126TIP3   OH236936   3.332   6.541   6.817
 5126TIP3    H136937   3.331   6.543   6.912
 5126TIP3    H236938   3.241   6.556   6.791
 5127TIP3   OH236939   3.646   3.813   6.502
 5127TIP3    H136940   3.572   3.754   6.516
 5127TIP3    H236941   3.723   3.756   6.505
 5128TIP3   OH236942   1.914   5.479   1.352
 5128TIP3    H136943   1.917   5.573   1.374
 5128TIP3    H236944   1.917   5.477   1.256
 5129TIP3   OH236945   3.879   5.584   7.437
 5129TIP3    H136946   3.921   5.546   7.360
 5129TIP3    H236947   3.852   5.509   7.490
 5130TIP3   OH236948   5.019   1.347   6.702
 5130TIP3    H136949   4.953   1.324   6.637
 5130TIP3    H236950   5.020   1.443   6.702
 5131TIP3   OH236951   3.768   4.818   7.391
 5131TIP3    H136952   3.761   4.767   7.471
 5131TIP3    H236953   3.842   4.877   7.407
 5132TIP3   OH236954   1.616   0.319   1.580
 5132TIP3    H136955   1.551   0.335   1.511
 5132TIP3    H236956   1.599   0.230   1.609
 5133TIP3   OH236957   6.501   0.359   1.196
 5133TIP3    H136958   6.425   0.373   1.252
 5133TIP3    H236959   6.559   0.303   1.247
 5134TIP3   OH236960   0.369   0.691   1.785
 5134TIP3    H136961   0.377   0.713   1.692
 5134TIP3    H236962   0.301   0.749   1.818
 5135TIP3   OH236963   1.924   2.066   6.798
 5135TIP3    H136964   1.947   2.004   6.728
 5135TIP3    H236965   1.995   2.130   6.797
 5136TIP3   OH236966   6.099   6.180   1.379
 5136TIP3    H136967   6.107   6.220   1.292
 5136TIP3    H236968   6.091   6.086   1.362
 5137TIP3   OH236969   2.791   1.520   2.234
 5137TIP3    H136970   2.869   1.481   2.195
 5137TIP3    H236971   2.747   1.447   2.277
 5138TIP3   OH236972   6.360   6.089   0.407
 5138TIP3    H136973   6.325   6.040   0.481
 5138TIP3    H236974   6.286   6.096   0.346
 5139TIP3   OH236975   5.309   4.142   7.738
 5139TIP3    H136976   5.257   4.106   7.666
 5139TIP3    H236977   5.347   4.065   7.780
 5140TIP3   OH236978   3.837   0.539   8.565
 5140TIP3    H136979   3.861   0.540   8.657
 5140TIP3    H236980   3.920   0.550   8.518
 5141TIP3   OH236981   2.144   3.234   8.125
 5141TIP3    H136982   2.086   3.199   8.056
 5141TIP3    H236983   2.142   3.167   8.193
 5142TIP3   OH236984   6.594   0.097   7.770
 5142TIP3    H136985   6.541   0.041   7.827
 5142TIP3    H236986   6.651   0.037   7.722
 5143TIP3   OH236987   4.317   4.649   1.903
 5143TIP3    H136988   4.258   4.715   1.938
 5143TIP3    H236989   4.345   4.598   1.979
 5144TIP3   OH236990   6.351   1.284   2.026
 5144TIP3    H136991   6.383   1.280   2.116
 5144TIP3    H236992   6.297   1.363   2.023
 5145TIP3   OH236993   1.953   5.302   0.938
 5145TIP3    H136994   2.031   5.298   0.994
 5145TIP3    H236995   1.987   5.287   0.849
 5146TIP3   OH236996   0.431   4.218   0.133
 5146TIP3    H136997   0.487   4.154   0.176
 5146TIP3    H236998   0.348   4.213   0.179
 5147TIP3   OH236999   4.137   5.639   7.540
 5147TIP3    H137000   4.191   5.570   7.501
 5147TIP3    H237001   4.047   5.611   7.524
 5148TIP3   OH237002   0.683   1.987   1.557
 5148TIP3    H137003   0.708   2.052   1.491
 5148TIP3    H237004   0.753   1.922   1.553
 5149TIP3   OH237005   0.020   1.799   0.645
 5149TIP3    H137006   0.040   1.741   0.573
 5149TIP3    H237007   0.097   1.856   0.653
 5150TIP3   OH237008   5.962   4.564   6.720
 5150TIP3    H137009   6.013   4.497   6.765
 5150TIP3    H237010   5.948   4.632   6.786
 5151TIP3   OH237011   3.378   4.123   6.410
 5151TIP3    H137012   3.319   4.111   6.335
 5151TIP3    H237013   3.325   4.103   6.487
 5152TIP3   OH237014   6.288   2.926   8.323
 5152TIP3    H137015   6.380   2.911   8.302
 5152TIP3    H237016   6.272   3.017   8.299
 5153TIP3   OH237017   1.505   0.477   2.756
 5153TIP3    H137018   1.512   0.382   2.764
 5153TIP3    H237019   1.537   0.497   2.669
 5154TIP3   OH237020   1.620   5.065   8.002
 5154TIP3    H137021   1.588   5.125   7.935
 5154TIP3    H237022   1.560   5.078   8.076
 5155TIP3   OH237023   6.334   2.470   6.915
 5155TIP3    H137024   6.384   2.551   6.912
 5155TIP3    H237025   6.383   2.412   6.973
 5156TIP3   OH237026   6.850   5.401   8.112
 5156TIP3    H137027   6.765   5.368   8.142
 5156TIP3    H237028   6.856   5.488   8.150
 5157TIP3   OH237029   1.707   2.465   7.194
 5157TIP3    H137030   1.702   2.518   7.115
 5157TIP3    H237031   1.792   2.421   7.188
 5158TIP3   OH237032   6.231   6.231   6.491
 5158TIP3    H137033   6.234   6.147   6.445
 5158TIP3    H237034   6.284   6.218   6.570
 5159TIP3   OH237035   5.699   4.456   7.164
 5159TIP3    H137036   5.720   4.487   7.076
 5159TIP3    H237037   5.689   4.536   7.216
 5160TIP3   OH237038   0.966   4.101   0.945
 5160TIP3    H137039   1.059   4.114   0.959
 5160TIP3    H237040   0.925   4.118   1.030
 5161TIP3   OH237041   2.681   6.845   1.822
 5161TIP3    H137042   2.722   6.856   1.736
 5161TIP3    H237043   2.589   6.866   1.807
 5162TIP3   OH237044   1.195   2.131   7.897
 5162TIP3    H137045   1.269   2.112   7.955
 5162TIP3    H237046   1.132   2.062   7.915
 5163TIP3   OH237047   4.098   6.022   0.277
 5163TIP3    H137048   4.098   6.028   0.182
 5163TIP3    H237049   4.174   6.074   0.304
 5164TIP3   OH237050   5.593   3.480   0.008
 5164TIP3    H137051   5.629   3.392   0.017
 5164TIP3    H237052   5.648   3.522   8.603
 5165TIP3   OH237053   1.272   3.190   6.369
 5165TIP3    H137054   1.345   3.235   6.412
 5165TIP3    H237055   1.284   3.097   6.391
 5166TIP3   OH237056   0.042   3.712   7.621
 5166TIP3    H137057   0.056   3.774   7.692
 5166TIP3    H237058   0.042   3.766   7.542
 5167TIP3   OH237059   6.556   6.077   6.318
 5167TIP3    H137060   6.466   6.071   6.350
 5167TIP3    H237061   6.560   6.011   6.248
 5168TIP3   OH237062   4.203   1.458   0.895
 5168TIP3    H137063   4.129   1.416   0.851
 5168TIP3    H237064   4.162   1.520   0.956
 5169TIP3   OH237065   5.959   4.424   8.556
 5169TIP3    H137066   5.913   4.474   8.623
 5169TIP3    H237067   5.913   4.340   8.553
 5170TIP3   OH237068   4.449   5.371   2.279
 5170TIP3    H137069   4.520   5.312   2.303
 5170TIP3    H237070   4.483   5.420   2.204
 5171TIP3   OH237071   1.635   4.017   1.138
 5171TIP3    H137072   1.671   3.935   1.170
 5171TIP3    H237073   1.606   3.997   1.049
 5172TIP3   OH237074   1.505   5.673   7.362
 5172TIP3    H137075   1.471   5.584   7.366
 5172TIP3    H237076   1.507   5.693   7.268
 5173TIP3   OH237077   5.759   6.383   7.663
 5173TIP3    H137078   5.693   6.417   7.602
 5173TIP3    H237079   5.842   6.412   7.626
 5174TIP3   OH237080   2.149   2.047   1.981
 5174TIP3    H137081   2.081   2.114   1.975
 5174TIP3    H237082   2.190   2.062   2.066
 5175TIP3   OH237083   4.532   2.671   7.413
 5175TIP3    H137084   4.497   2.759   7.398
 5175TIP3    H237085   4.578   2.649   7.332
 5176TIP3   OH237086   5.256   4.834   6.442
 5176TIP3    H137087   5.216   4.752   6.469
 5176TIP3    H237088   5.259   4.887   6.522
 5177TIP3   OH237089   2.141   4.482   8.030
 5177TIP3    H137090   2.100   4.528   7.956
 5177TIP3    H237091   2.216   4.436   7.991
 5178TIP3   OH237092   0.772   3.591   2.187
 5178TIP3    H137093   0.746   3.543   2.108
 5178TIP3    H237094   0.781   3.681   2.157
 5179TIP3   OH237095   1.236   3.610   7.270
 5179TIP3    H137096   1.209   3.655   7.190
 5179TIP3    H237097   1.166   3.545   7.285
 5180TIP3   OH237098   1.753   3.591   7.968
 5180TIP3    H137099   1.734   3.584   7.875
 5180TIP3    H237100   1.832   3.539   7.981
 5181TIP3   OH237101   2.242   4.410   1.480
 5181TIP3    H137102   2.231   4.490   1.531
 5181TIP3    H237103   2.285   4.349   1.541
 5182TIP3   OH237104   1.167   5.302   1.079
 5182TIP3    H137105   1.077   5.309   1.048
 5182TIP3    H237106   1.160   5.288   1.173
 5183TIP3   OH237107   1.132   1.625   7.555
 5183TIP3    H137108   1.212   1.635   7.503
 5183TIP3    H237109   1.146   1.544   7.605
 5184TIP3   OH237110   4.410   5.039   7.067
 5184TIP3    H137111   4.454   5.106   7.014
 5184TIP3    H237112   4.453   5.043   7.152
 5185TIP3   OH237113   4.460   2.076   0.328
 5185TIP3    H137114   4.528   2.119   0.381
 5185TIP3    H237115   4.425   2.146   0.273
 5186TIP3   OH237116   6.182   3.253   1.549
 5186TIP3    H137117   6.154   3.238   1.459
 5186TIP3    H237118   6.103   3.285   1.593
 5187TIP3   OH237119   6.854   2.799   2.063
 5187TIP3    H137120   0.035   2.798   1.994
 5187TIP3    H237121   6.854   2.710   2.097
 5188TIP3   OH237122   0.590   3.508   1.225
 5188TIP3    H137123   0.613   3.573   1.291
 5188TIP3    H237124   0.494   3.510   1.221
 5189TIP3   OH237125   2.735   5.371   8.251
 5189TIP3    H137126   2.796   5.333   8.314
 5189TIP3    H237127   2.654   5.322   8.264
 5190TIP3   OH237128   4.020   6.556   8.530
 5190TIP3    H137129   4.003   6.648   8.551
 5190TIP3    H237130   3.969   6.540   8.451
 5191TIP3   OH237131   5.222   0.292   1.404
 5191TIP3    H137132   5.316   0.286   1.420
 5191TIP3    H237133   5.198   0.206   1.371
 5192TIP3   OH237134   5.427   3.832   8.332
 5192TIP3    H137135   5.409   3.830   8.238
 5192TIP3    H237136   5.522   3.832   8.338
 5193TIP3   OH237137   6.598   5.130   2.447
 5193TIP3    H137138   6.513   5.095   2.472
 5193TIP3    H237139   6.578   5.207   2.395
 5194TIP3   OH237140   4.612   0.474   7.214
 5194TIP3    H137141   4.634   0.408   7.280
 5194TIP3    H237142   4.696   0.518   7.195
 5195TIP3   OH237143   4.432   1.013   8.054
 5195TIP3    H137144   4.526   1.010   8.073
 5195TIP3    H237145   4.391   0.964   8.125
 5196TIP3   OH237146   5.694   3.835   8.448
 5196TIP3    H137147   5.745   3.875   8.518
 5196TIP3    H237148   5.759   3.798   8.389
 5197TIP3   OH237149   5.085   6.648   1.167
 5197TIP3    H137150   5.045   6.642   1.080
 5197TIP3    H237151   5.012   6.641   1.228
 5198TIP3   OH237152   6.695   0.987   0.625
 5198TIP3    H137153   6.700   0.892   0.617
 5198TIP3    H237154   6.751   1.007   0.700
 5199TIP3   OH237155   6.567   2.191   1.092
 5199TIP3    H137156   6.639   2.131   1.071
 5199TIP3    H237157   6.608   2.277   1.094
 5200TIP3   OH237158   4.004   1.467   1.124
 5200TIP3    H137159   4.039   1.548   1.160
 5200TIP3    H237160   3.981   1.414   1.201
 5201TIP3   OH237161   0.921   4.152   0.680
 5201TIP3    H137162   0.964   4.174   0.763
 5201TIP3    H237163   0.879   4.234   0.653
 5202TIP3   OH237164   2.506   3.059   6.505
 5202TIP3    H137165   2.510   2.979   6.558
 5202TIP3    H237166   2.543   3.034   6.420
 5203TIP3   OH237167   6.430   5.844   7.430
 5203TIP3    H137168   6.509   5.851   7.484
 5203TIP3    H237169   6.407   5.751   7.434
 5204TIP3   OH237170   2.309   5.523   8.165
 5204TIP3    H137171   2.307   5.579   8.243
 5204TIP3    H237172   2.304   5.434   8.200
 5205TIP3   OH237173   3.371   6.595   7.082
 5205TIP3    H137174   3.464   6.606   7.101
 5205TIP3    H237175   3.340   6.532   7.146
 5206TIP3   OH237176   2.616   1.423   0.041
 5206TIP3    H137177   2.649   1.455   0.125
 5206TIP3    H237178   2.558   1.350   0.064
 5207TIP3   OH237179   6.599   4.622   1.301
 5207TIP3    H137180   6.683   4.576   1.295
 5207TIP3    H237181   6.547   4.585   1.230
 5208TIP3   OH237182   6.535   1.127   1.898
 5208TIP3    H137183   6.473   1.183   1.946
 5208TIP3    H237184   6.505   1.038   1.915
 5209TIP3   OH237185   3.384   5.078   8.275
 5209TIP3    H137186   3.337   5.016   8.220
 5209TIP3    H237187   3.455   5.026   8.314
 5210TIP3   OH237188   3.041   4.707   1.225
 5210TIP3    H137189   3.080   4.687   1.140
 5210TIP3    H237190   2.992   4.788   1.210
 5211TIP3   OH237191   1.276   3.456   0.498
 5211TIP3    H137192   1.278   3.408   0.415
 5211TIP3    H237193   1.351   3.516   0.494
 5212TIP3   OH237194   4.021   3.496   6.902
 5212TIP3    H137195   3.984   3.407   6.901
 5212TIP3    H237196   3.971   3.543   6.836
 5213TIP3   OH237197   5.573   6.758   1.106
 5213TIP3    H137198   5.531   6.804   1.033
 5213TIP3    H237199   5.536   6.799   1.184
 5214TIP3   OH237200   0.430   0.369   6.685
 5214TIP3    H137201   0.444   0.412   6.601
 5214TIP3    H237202   0.341   0.395   6.710
 5215TIP3   OH237203   1.895   2.920   1.710
 5215TIP3    H137204   1.986   2.900   1.687
 5215TIP3    H237205   1.859   2.961   1.632
 5216TIP3   OH237206   1.182   6.619   1.904
 5216TIP3    H137207   1.244   6.598   1.834
 5216TIP3    H237208   1.204   6.558   1.974
 5217TIP3   OH237209   4.434   0.222   7.768
 5217TIP3    H137210   4.457   0.313   7.785
 5217TIP3    H237211   4.509   0.172   7.801
 5218TIP3   OH237212   6.600   3.589   7.767
 5218TIP3    H137213   6.686   3.567   7.803
 5218TIP3    H237214   6.568   3.506   7.730
 5219TIP3   OH237215   5.037   4.494   7.407
 5219TIP3    H137216   5.092   4.562   7.445
 5219TIP3    H237217   5.080   4.470   7.325
 5220TIP3   OH237218   2.743   1.628   7.927
 5220TIP3    H137219   2.741   1.545   7.975
 5220TIP3    H237220   2.652   1.657   7.923
 5221TIP3   OH237221   2.122   4.339   0.286
 5221TIP3    H137222   2.104   4.335   0.192
 5221TIP3    H237223   2.192   4.404   0.294
 5222TIP3   OH237224   2.794   5.513   7.105
 5222TIP3    H137225   2.779   5.546   7.017
 5222TIP3    H237226   2.802   5.418   7.094
 5223TIP3   OH237227   6.439   1.234   1.237
 5223TIP3    H137228   6.362   1.183   1.263
 5223TIP3    H237229   6.412   1.278   1.157
 5224TIP3   OH237230   6.633   2.246   1.387
 5224TIP3    H137231   6.680   2.191   1.449
 5224TIP3    H237232   6.611   2.186   1.315
 5225TIP3   OH237233   0.212   5.214   0.883
 5225TIP3    H137234   0.187   5.149   0.949
 5225TIP3    H237235   0.251   5.286   0.933
 5226TIP3   OH237236   6.205   4.606   1.242
 5226TIP3    H137237   6.130   4.640   1.290
 5226TIP3    H237238   6.263   4.572   1.310
 5227TIP3   OH237239   5.374   4.357   0.701
 5227TIP3    H137240   5.353   4.435   0.751
 5227TIP3    H237241   5.289   4.326   0.667
 5228TIP3   OH237242   5.952   5.649   1.818
 5228TIP3    H137243   5.924   5.592   1.889
 5228TIP3    H237244   6.047   5.651   1.825
 5229TIP3   OH237245   1.571   3.900   0.444
 5229TIP3    H137246   1.533   3.962   0.382
 5229TIP3    H237247   1.645   3.862   0.398
 5230TIP3   OH237248   5.380   2.799   1.982
 5230TIP3    H137249   5.292   2.762   1.979
 5230TIP3    H237250   5.392   2.826   2.073
 5231TIP3   OH237251   4.680   6.651   0.605
 5231TIP3    H137252   4.653   6.700   0.528
 5231TIP3    H237253   4.605   6.656   0.665
 5232TIP3   OH237254   5.503   0.430   6.707
 5232TIP3    H137255   5.531   0.405   6.619
 5232TIP3    H237256   5.584   0.434   6.758
 5233TIP3   OH237257   1.540   3.613   1.121
 5233TIP3    H137258   1.524   3.669   1.045
 5233TIP3    H237259   1.528   3.524   1.088
 5234TIP3   OH237260   2.090   2.394   1.107
 5234TIP3    H137261   2.036   2.394   1.187
 5234TIP3    H237262   2.150   2.467   1.118
 5235TIP3   OH237263   0.911   5.805   8.475
 5235TIP3    H137264   0.848   5.740   8.508
 5235TIP3    H237265   0.932   5.859   8.551
 5236TIP3   OH237266   0.980   1.011   8.655
 5236TIP3    H137267   0.890   1.039   8.640
 5236TIP3    H237268   0.975   0.956   0.071
 5237TIP3   OH237269   4.577   5.863   7.166
 5237TIP3    H137270   4.587   5.957   7.160
 5237TIP3    H237271   4.651   5.833   7.219
 5238TIP3   OH237272   4.311   6.202   1.129
 5238TIP3    H137273   4.292   6.125   1.183
 5238TIP3    H237274   4.385   6.244   1.173
 5239TIP3   OH237275   1.035   4.260   8.505
 5239TIP3    H137276   1.029   4.263   8.410
 5239TIP3    H237277   0.952   4.221   8.533
 5240TIP3   OH237278   5.581   3.291   1.505
 5240TIP3    H137279   5.667   3.256   1.527
 5240TIP3    H237280   5.589   3.385   1.521
 5241TIP3   OH237281   2.880   3.704   6.232
 5241TIP3    H137282   2.897   3.629   6.174
 5241TIP3    H237283   2.817   3.757   6.183
 5242TIP3   OH237284   3.869   1.751   7.653
 5242TIP3    H137285   3.890   1.749   7.559
 5242TIP3    H237286   3.798   1.815   7.660
 5243TIP3   OH237287   5.233   6.478   0.654
 5243TIP3    H137288   5.175   6.550   0.629
 5243TIP3    H237289   5.314   6.494   0.606
 5244TIP3   OH237290   1.749   0.769   0.767
 5244TIP3    H137291   1.827   0.749   0.716
 5244TIP3    H237292   1.690   0.695   0.753
 5245TIP3   OH237293   4.891   3.939   0.990
 5245TIP3    H137294   4.835   3.899   1.057
 5245TIP3    H237295   4.954   3.991   1.040
 5246TIP3   OH237296   6.046   4.637   7.118
 5246TIP3    H137297   6.025   4.686   7.039
 5246TIP3    H237298   5.965   4.639   7.169
 5247TIP3   OH237299   2.532   6.528   6.836
 5247TIP3    H137300   2.482   6.488   6.765
 5247TIP3    H237301   2.500   6.618   6.842
 5248TIP3   OH237302   6.454   5.463   1.533
 5248TIP3    H137303   6.449   5.377   1.491
 5248TIP3    H237304   6.506   5.449   1.611
 5249TIP3   OH237305   5.846   4.264   1.391
 5249TIP3    H137306   5.818   4.349   1.425
 5249TIP3    H237307   5.868   4.214   1.470
 5250TIP3   OH237308   5.448   1.291   7.364
 5250TIP3    H137309   5.393   1.264   7.290
 5250TIP3    H237310   5.388   1.291   7.439
 5251TIP3   OH237311   6.036   0.469   7.755
 5251TIP3    H137312   6.006   0.556   7.731
 5251TIP3    H237313   5.973   0.439   7.821
 5252TIP3   OH237314   3.973   5.618   0.811
 5252TIP3    H137315   3.967   5.619   0.715
 5252TIP3    H237316   3.967   5.525   0.834
 5253TIP3   OH237317   1.148   1.984   7.288
 5253TIP3    H137318   1.144   1.931   7.209
 5253TIP3    H237319   1.067   1.965   7.334
 5254TIP3   OH237320   0.998   2.959   2.008
 5254TIP3    H137321   1.053   2.906   1.950
 5254TIP3    H237322   0.981   2.902   2.084
 5255TIP3   OH237323   0.208   5.986   7.827
 5255TIP3    H137324   0.200   5.891   7.824
 5255TIP3    H237325   0.200   6.008   7.920
 5256TIP3   OH237326   4.659   4.164   6.652
 5256TIP3    H137327   4.603   4.101   6.606
 5256TIP3    H237328   4.745   4.155   6.611
 5257TIP3   OH237329   0.526   6.786   8.185
 5257TIP3    H137330   0.438   6.822   8.172
 5257TIP3    H237331   0.584   6.857   8.160
 5258TIP3   OH237332   2.377   0.340   0.985
 5258TIP3    H137333   2.412   0.350   0.897
 5258TIP3    H237334   2.308   0.275   0.976
 5259TIP3   OH237335   5.864   6.222   6.107
 5259TIP3    H137336   5.941   6.274   6.087
 5259TIP3    H237337   5.871   6.145   6.051
 5260TIP3   OH237338   3.791   6.014   6.672
 5260TIP3    H137339   3.715   5.977   6.626
 5260TIP3    H237340   3.850   6.040   6.602
 5261TIP3   OH237341   1.440   0.442   2.423
 5261TIP3    H137342   1.377   0.509   2.395
 5261TIP3    H237343   1.408   0.361   2.383
 5262TIP3   OH237344   6.361   2.539   7.276
 5262TIP3    H137345   6.396   2.570   7.359
 5262TIP3    H237346   6.284   2.594   7.261
 5263TIP3   OH237347   6.557   5.528   7.371
 5263TIP3    H137348   6.651   5.542   7.384
 5263TIP3    H237349   6.517   5.555   7.453
 5264TIP3   OH237350   0.897   1.525   7.761
 5264TIP3    H137351   0.935   1.593   7.817
 5264TIP3    H237352   0.972   1.484   7.719
 5265TIP3   OH237353   4.315   6.418   7.309
 5265TIP3    H137354   4.398   6.383   7.340
 5265TIP3    H237355   4.260   6.341   7.296
 5266TIP3   OH237356   4.543   1.719   1.344
 5266TIP3    H137357   4.560   1.627   1.367
 5266TIP3    H237358   4.570   1.768   1.422
 5267TIP3   OH237359   3.563   2.758   1.442
 5267TIP3    H137360   3.529   2.753   1.532
 5267TIP3    H237361   3.485   2.770   1.388
 5268TIP3   OH237362   6.080   1.903   0.819
 5268TIP3    H137363   6.123   1.927   0.901
 5268TIP3    H237364   6.144   1.849   0.773
 5269TIP3   OH237365   4.702   0.955   8.087
 5269TIP3    H137366   4.692   1.000   8.171
 5269TIP3    H237367   4.774   1.000   8.044
 5270TIP3   OH237368   4.865   2.682   0.305
 5270TIP3    H137369   4.881   2.772   0.278
 5270TIP3    H237370   4.802   2.690   0.377
 5271TIP3   OH237371   5.533   4.099   1.310
 5271TIP3    H137372   5.618   4.131   1.279
 5271TIP3    H237373   5.553   4.054   1.391
 5272TIP3   OH237374   2.726   3.589   6.593
 5272TIP3    H137375   2.687   3.609   6.678
 5272TIP3    H237376   2.807   3.543   6.613
 5273TIP3   OH237377   1.363   5.918   0.517
 5273TIP3    H137378   1.300   5.852   0.548
 5273TIP3    H237379   1.346   5.925   0.423
 5274TIP3   OH237380   1.164   2.388   7.620
 5274TIP3    H137381   1.094   2.364   7.681
 5274TIP3    H237382   1.157   2.483   7.612
 5275TIP3   OH237383   0.863   1.805   1.603
 5275TIP3    H137384   0.865   1.719   1.561
 5275TIP3    H237385   0.878   1.786   1.696
 5276TIP3   OH237386   2.942   4.491   1.084
 5276TIP3    H137387   2.891   4.563   1.121
 5276TIP3    H237388   3.029   4.530   1.069
 5277TIP3   OH237389   4.957   5.694   0.160
 5277TIP3    H137390   4.964   5.785   0.132
 5277TIP3    H237391   4.990   5.694   0.250
 5278TIP3   OH237392   4.563   4.355   0.911
 5278TIP3    H137393   4.537   4.337   0.821
 5278TIP3    H237394   4.617   4.434   0.906
 5279TIP3   OH237395   3.324   6.597   6.424
 5279TIP3    H137396   3.241   6.570   6.385
 5279TIP3    H237397   3.328   6.551   6.508
 5280TIP3   OH237398   3.565   1.343   0.321
 5280TIP3    H137399   3.485   1.391   0.342
 5280TIP3    H237400   3.633   1.411   0.317
 5281TIP3   OH237401   1.500   2.735   7.405
 5281TIP3    H137402   1.417   2.749   7.450
 5281TIP3    H237403   1.477   2.724   7.313
 5282TIP3   OH237404   6.387   4.111   6.933
 5282TIP3    H137405   6.310   4.087   6.882
 5282TIP3    H237406   6.452   4.136   6.867
 5283TIP3   OH237407   2.904   1.620   6.249
 5283TIP3    H137408   2.992   1.591   6.273
 5283TIP3    H237409   2.846   1.554   6.288
 5284TIP3   OH237410   3.857   4.715   8.157
 5284TIP3    H137411   3.888   4.688   8.243
 5284TIP3    H237412   3.837   4.808   8.167
 5285TIP3   OH237413   4.773   2.009   0.127
 5285TIP3    H137414   4.763   2.097   0.165
 5285TIP3    H237415   4.687   1.970   0.134
 5286TIP3   OH237416   5.134   5.606   7.782
 5286TIP3    H137417   5.085   5.618   7.701
 5286TIP3    H237418   5.068   5.584   7.848
 5287TIP3   OH237419   0.348   1.382   0.677
 5287TIP3    H137420   0.256   1.360   0.691
 5287TIP3    H237421   0.354   1.404   0.584
 5288TIP3   OH237422   2.057   4.136   6.732
 5288TIP3    H137423   2.033   4.063   6.676
 5288TIP3    H237424   2.152   4.126   6.745
 5289TIP3   OH237425   6.330   0.581   7.558
 5289TIP3    H137426   6.359   0.649   7.618
 5289TIP3    H237427   6.406   0.523   7.548
 5290TIP3   OH237428   0.213   2.792   7.829
 5290TIP3    H137429   0.256   2.786   7.915
 5290TIP3    H237430   0.270   2.743   7.770
 5291TIP3   OH237431   2.583   2.798   6.373
 5291TIP3    H137432   2.571   2.711   6.335
 5291TIP3    H237433   2.582   2.857   6.298
 5292TIP3   OH237434   4.479   6.729   0.771
 5292TIP3    H137435   4.432   6.807   0.801
 5292TIP3    H237436   4.411   6.664   0.756
 5293TIP3   OH237437   1.949   6.114   1.920
 5293TIP3    H137438   1.863   6.157   1.918
 5293TIP3    H237439   1.938   6.037   1.864
 5294TIP3   OH237440   0.483   2.555   6.877
 5294TIP3    H137441   0.502   2.546   6.783
 5294TIP3    H237442   0.531   2.634   6.903
 5295TIP3   OH237443   2.096   2.443   8.213
 5295TIP3    H137444   2.043   2.394   8.275
 5295TIP3    H237445   2.039   2.457   8.138
 5296TIP3   OH237446   0.798   5.614   7.035
 5296TIP3    H137447   0.794   5.674   7.110
 5296TIP3    H237448   0.707   5.604   7.008
 5297TIP3   OH237449   5.681   5.207   0.145
 5297TIP3    H137450   5.765   5.227   0.187
 5297TIP3    H237451   5.634   5.157   0.211
 5298TIP3   OH237452   5.960   3.751   8.412
 5298TIP3    H137453   6.037   3.758   8.469
 5298TIP3    H237454   5.990   3.783   8.327
 5299TIP3   OH237455   1.309   5.520   0.992
 5299TIP3    H137456   1.396   5.482   0.998
 5299TIP3    H237457   1.250   5.444   0.994
 5300TIP3   OH237458   0.317   2.224   0.190
 5300TIP3    H137459   0.240   2.256   0.143
 5300TIP3    H237460   0.304   2.129   0.195
 5301TIP3   OH237461   4.746   2.067   8.509
 5301TIP3    H137462   4.827   2.118   8.510
 5301TIP3    H237463   4.739   2.030   8.597
 5302TIP3   OH237464   5.696   2.360   6.619
 5302TIP3    H137465   5.727   2.448   6.639
 5302TIP3    H237466   5.632   2.372   6.549
 5303TIP3   OH237467   1.092   4.387   7.676
 5303TIP3    H137468   1.069   4.432   7.595
 5303TIP3    H237469   1.126   4.303   7.648
 5304TIP3   OH237470   1.884   5.667   7.456
 5304TIP3    H137471   1.956   5.692   7.513
 5304TIP3    H237472   1.927   5.637   7.375
 5305TIP3   OH237473   2.828   2.791   6.853
 5305TIP3    H137474   2.775   2.736   6.795
 5305TIP3    H237475   2.822   2.748   6.939
 5306TIP3   OH237476   2.271   1.833   0.458
 5306TIP3    H137477   2.214   1.908   0.472
 5306TIP3    H237478   2.247   1.801   0.371
 5307TIP3   OH237479   3.946   2.312   0.293
 5307TIP3    H137480   3.913   2.247   0.356
 5307TIP3    H237481   3.962   2.263   0.213
 5308TIP3   OH237482   1.562   6.434   6.041
 5308TIP3    H137483   1.504   6.500   6.002
 5308TIP3    H237484   1.503   6.377   6.090
 5309TIP3   OH237485   6.597   3.352   7.658
 5309TIP3    H137486   6.671   3.383   7.606
 5309TIP3    H237487   6.610   3.258   7.665
 5310TIP3   OH237488   0.346   1.258   7.363
 5310TIP3    H137489   0.266   1.304   7.337
 5310TIP3    H237490   0.371   1.298   7.446
 5311TIP3   OH237491   4.457   1.645   0.756
 5311TIP3    H137492   4.385   1.582   0.747
 5311TIP3    H237493   4.418   1.728   0.730
 5312TIP3   OH237494   5.334   1.207   7.130
 5312TIP3    H137495   5.417   1.166   7.107
 5312TIP3    H237496   5.318   1.271   7.060
 5313TIP3   OH237497   1.439   6.271   6.245
 5313TIP3    H137498   1.353   6.280   6.203
 5313TIP3    H237499   1.456   6.177   6.245
 5314TIP3   OH237500   4.212   6.694   1.006
 5314TIP3    H137501   4.224   6.679   1.100
 5314TIP3    H237502   4.250   6.780   0.991
 5315TIP3   OH237503   1.833   5.905   1.056
 5315TIP3    H137504   1.828   6.000   1.068
 5315TIP3    H237505   1.808   5.868   1.140
 5316TIP3   OH237506   2.669   0.969   7.706
 5316TIP3    H137507   2.762   0.987   7.720
 5316TIP3    H237508   2.654   0.993   7.614
 5317TIP3   OH237509   0.637   4.403   6.848
 5317TIP3    H137510   0.674   4.469   6.790
 5317TIP3    H237511   0.545   4.396   6.820
 5318TIP3   OH237512   1.915   2.456   1.565
 5318TIP3    H137513   1.975   2.387   1.594
 5318TIP3    H237514   1.887   2.499   1.646
 5319TIP3   OH237515   2.386   5.299   7.041
 5319TIP3    H137516   2.321   5.236   7.009
 5319TIP3    H237517   2.349   5.332   7.123
 5320TIP3   OH237518   4.141   5.729   7.010
 5320TIP3    H137519   4.113   5.690   6.926
 5320TIP3    H237520   4.236   5.722   7.009
 5321TIP3   OH237521   0.139   3.369   6.995
 5321TIP3    H137522   0.052   3.388   7.031
 5321TIP3    H237523   0.124   3.294   6.937
 5322TIP3   OH237524   2.341   2.122   0.992
 5322TIP3    H137525   2.402   2.061   1.034
 5322TIP3    H237526   2.337   2.196   1.053
 5323TIP3   OH237527   4.542   5.679   0.584
 5323TIP3    H137528   4.482   5.722   0.645
 5323TIP3    H237529   4.559   5.593   0.623
 5324TIP3   OH237530   1.912   4.446   7.840
 5324TIP3    H137531   1.943   4.393   7.767
 5324TIP3    H237532   1.967   4.525   7.837
 5325TIP3   OH237533   6.559   4.412   8.619
 5325TIP3    H137534   6.577   4.382   0.046
 5325TIP3    H237535   6.534   4.504   8.629
 5326TIP3   OH237536   6.154   6.764   1.390
 5326TIP3    H137537   6.201   6.696   1.438
 5326TIP3    H237538   6.156   6.735   1.299
 5327TIP3   OH237539   1.150   4.208   7.235
 5327TIP3    H137540   1.087   4.280   7.238
 5327TIP3    H237541   1.217   4.237   7.173
 5328TIP3   OH237542   0.859   6.863   1.324
 5328TIP3    H137543   0.894   0.045   1.382
 5328TIP3    H237544   0.884   0.006   1.236
 5329TIP3   OH237545   5.462   3.880   7.444
 5329TIP3    H137546   5.403   3.841   7.379
 5329TIP3    H237547   5.403   3.927   7.504
 5330TIP3   OH237548   5.838   2.504   0.556
 5330TIP3    H137549   5.810   2.414   0.540
 5330TIP3    H237550   5.781   2.535   0.627
 5331TIP3   OH237551   4.309   0.484   8.570
 5331TIP3    H137552   4.257   0.422   8.620
 5331TIP3    H237553   4.399   0.452   8.578
 5332TIP3   OH237554   6.151   1.265   0.214
 5332TIP3    H137555   6.177   1.357   0.227
 5332TIP3    H237556   6.231   1.221   0.186
 5333TIP3   OH237557   1.010   3.531   5.812
 5333TIP3    H137558   0.958   3.505   5.888
 5333TIP3    H237559   0.947   3.573   5.753
 5334TIP3   OH237560   3.664   3.811   8.552
 5334TIP3    H137561   3.677   3.742   8.618
 5334TIP3    H237562   3.570   3.811   8.536
 5335TIP3   OH237563   3.852   5.510   1.094
 5335TIP3    H137564   3.914   5.514   1.167
 5335TIP3    H237565   3.833   5.602   1.074
 5336TIP3   OH237566   5.145   4.400   7.165
 5336TIP3    H137567   5.102   4.432   7.086
 5336TIP3    H237568   5.237   4.394   7.141
 5337TIP3   OH237569   1.767   6.397   0.154
 5337TIP3    H137570   1.833   6.364   0.215
 5337TIP3    H237571   1.803   6.480   0.122
 5338TIP3   OH237572   2.322   3.361   1.095
 5338TIP3    H137573   2.304   3.330   1.006
 5338TIP3    H237574   2.347   3.453   1.083
 5339TIP3   OH237575   2.855   2.030   2.365
 5339TIP3    H137576   2.851   2.105   2.305
 5339TIP3    H237577   2.905   1.963   2.318
 5340TIP3   OH237578   5.068   3.848   1.313
 5340TIP3    H137579   5.145   3.805   1.352
 5340TIP3    H237580   5.011   3.866   1.388
 5341TIP3   OH237581   6.320   2.426   1.215
 5341TIP3    H137582   6.323   2.373   1.294
 5341TIP3    H237583   6.236   2.471   1.219
 5342TIP3   OH237584   6.457   3.108   1.566
 5342TIP3    H137585   6.458   3.076   1.476
 5342TIP3    H237586   6.392   3.179   1.566
 5343TIP3   OH237587   0.114   2.538   1.721
 5343TIP3    H137588   0.021   2.525   1.739
 5343TIP3    H237589   0.120   2.630   1.696
 5344TIP3   OH237590   4.934   5.330   8.113
 5344TIP3    H137591   4.995   5.310   8.041
 5344TIP3    H237592   4.897   5.245   8.136
 5345TIP3   OH237593   6.361   2.025   0.045
 5345TIP3    H137594   6.291   2.073   0.089
 5345TIP3    H237595   6.440   2.077   0.062
 5346TIP3   OH237596   6.206   1.468   2.416
 5346TIP3    H137597   6.146   1.531   2.455
 5346TIP3    H237598   6.258   1.520   2.354
 5347TIP3   OH237599   4.541   1.645   0.422
 5347TIP3    H137600   4.543   1.635   0.518
 5347TIP3    H237601   4.524   1.556   0.390
 5348TIP3   OH237602   6.728   4.144   6.318
 5348TIP3    H137603   6.806   4.103   6.355
 5348TIP3    H237604   6.755   4.235   6.301
 5349TIP3   OH237605   0.892   0.796   0.202
 5349TIP3    H137606   0.903   0.730   0.133
 5349TIP3    H237607   0.806   0.776   0.240
 5350TIP3   OH237608   1.014   6.058   7.592
 5350TIP3    H137609   1.035   5.978   7.640
 5350TIP3    H237610   1.082   6.064   7.525
 5351TIP3   OH237611   6.499   4.025   1.738
 5351TIP3    H137612   6.591   4.050   1.736
 5351TIP3    H237613   6.470   4.045   1.826
 5352TIP3   OH237614   2.200   1.759   8.284
 5352TIP3    H137615   2.179   1.776   8.376
 5352TIP3    H237616   2.125   1.794   8.236
 5353TIP3   OH237617   3.428   2.825   7.610
 5353TIP3    H137618   3.476   2.863   7.537
 5353TIP3    H237619   3.493   2.815   7.679
 5354TIP3   OH237620   1.314   0.820   8.118
 5354TIP3    H137621   1.340   0.732   8.090
 5354TIP3    H237622   1.225   0.831   8.084
 5355TIP3   OH237623   6.598   3.536   0.948
 5355TIP3    H137624   6.624   3.603   1.011
 5355TIP3    H237625   6.523   3.492   0.988
 5356TIP3   OH237626   5.907   3.203   0.585
 5356TIP3    H137627   5.902   3.297   0.601
 5356TIP3    H237628   5.842   3.187   0.517
 5357TIP3   OH237629   5.461   6.129   8.109
 5357TIP3    H137630   5.465   6.193   8.180
 5357TIP3    H237631   5.539   6.148   8.056
 5358TIP3   OH237632   0.740   3.657   8.204
 5358TIP3    H137633   0.647   3.642   8.186
 5358TIP3    H237634   0.779   3.570   8.205
 5359TIP3   OH237635   4.790   4.589   7.299
 5359TIP3    H137636   4.857   4.657   7.299
 5359TIP3    H237637   4.824   4.521   7.357
 5360TIP3   OH237638   0.968   3.427   6.713
 5360TIP3    H137639   1.001   3.368   6.645
 5360TIP3    H237640   0.983   3.379   6.795
 5361TIP3   OH237641   6.618   0.754   7.630
 5361TIP3    H137642   6.607   0.673   7.579
 5361TIP3    H237643   6.710   0.754   7.656
 5362TIP3   OH237644   1.403   2.382   7.823
 5362TIP3    H137645   1.383   2.435   7.746
 5362TIP3    H237646   1.333   2.316   7.825
 5363TIP3   OH237647   4.104   3.717   7.046
 5363TIP3    H137648   4.073   3.637   7.003
 5363TIP3    H237649   4.140   3.770   6.974
 5364TIP3   OH237650   3.002   6.013   0.192
 5364TIP3    H137651   2.920   5.986   0.233
 5364TIP3    H237652   3.067   5.951   0.224
 5365TIP3   OH237653   1.114   2.393   1.519
 5365TIP3    H137654   1.195   2.399   1.469
 5365TIP3    H237655   1.079   2.482   1.520
 5366TIP3   OH237656   3.428   5.879   8.503
 5366TIP3    H137657   3.454   5.788   8.519
 5366TIP3    H237658   3.506   5.920   8.466
 5367TIP3   OH237659   3.615   3.544   0.920
 5367TIP3    H137660   3.691   3.508   0.875
 5367TIP3    H237661   3.573   3.468   0.961
 5368TIP3   OH237662   4.523   6.423   8.618
 5368TIP3    H137663   4.582   6.494   8.595
 5368TIP3    H237664   4.438   6.448   8.580
 5369TIP3   OH237665   6.287   5.673   1.275
 5369TIP3    H137666   6.207   5.621   1.272
 5369TIP3    H237667   6.358   5.609   1.280
 5370TIP3   OH237668   5.789   6.883   6.436
 5370TIP3    H137669   5.831   0.032   6.358
 5370TIP3    H237670   5.857   6.834   6.481
 5371TIP3   OH237671   1.139   2.040   7.629
 5371TIP3    H137672   1.097   2.120   7.596
 5371TIP3    H237673   1.150   2.055   7.723
 5372TIP3   OH237674   4.894   5.412   0.052
 5372TIP3    H137675   4.937   5.497   0.061
 5372TIP3    H237676   4.930   5.375   8.633
 5373TIP3   OH237677   1.996   4.107   1.392
 5373TIP3    H137678   1.928   4.042   1.409
 5373TIP3    H237679   1.980   4.135   1.302
 5374TIP3   OH237680   0.287   0.478   0.859
 5374TIP3    H137681   0.373   0.518   0.845
 5374TIP3    H237682   0.293   0.439   0.946
 5375TIP3   OH237683   6.845   6.084   0.521
 5375TIP3    H137684   6.844   6.180   0.529
 5375TIP3    H237685   0.025   6.056   0.584
 5376TIP3   OH237686   0.131   0.127   0.295
 5376TIP3    H137687   0.165   0.206   0.336
 5376TIP3    H237688   0.082   0.083   0.364
 5377TIP3   OH237689   3.381   4.156   6.802
 5377TIP3    H137690   3.444   4.092   6.770
 5377TIP3    H237691   3.311   4.155   6.737
 5378TIP3   OH237692   2.742   2.400   7.621
 5378TIP3    H137693   2.712   2.311   7.640
 5378TIP3    H237694   2.707   2.453   7.693
 5379TIP3   OH237695   3.091   2.138   8.012
 5379TIP3    H137696   3.056   2.079   7.946
 5379TIP3    H237697   3.162   2.184   7.968
 5380TIP3   OH237698   1.983   4.694   1.785
 5380TIP3    H137699   2.026   4.696   1.870
 5380TIP3    H237700   1.899   4.738   1.800
 5381TIP3   OH237701   5.681   2.063   8.150
 5381TIP3    H137702   5.698   2.105   8.065
 5381TIP3    H237703   5.658   1.972   8.128
 5382TIP3   OH237704   4.188   4.827   8.574
 5382TIP3    H137705   4.115   4.848   8.516
 5382TIP3    H237706   4.150   4.767   8.639
 5383TIP3   OH237707   4.415   6.717   2.403
 5383TIP3    H137708   4.363   6.731   2.483
 5383TIP3    H237709   4.351   6.722   2.332
 5384TIP3   OH237710   4.233   2.264   2.710
 5384TIP3    H137711   4.216   2.311   2.792
 5384TIP3    H237712   4.196   2.320   2.642
 5385TIP3   OH237713   5.899   2.615   1.998
 5385TIP3    H137714   5.907   2.689   2.060
 5385TIP3    H237715   5.904   2.656   1.912
 5386TIP3   OH237716   3.180   0.493   1.076
 5386TIP3    H137717   3.273   0.474   1.064
 5386TIP3    H237718   3.138   0.407   1.076
 5387TIP3   OH237719   3.962   1.740   7.363
 5387TIP3    H137720   3.873   1.725   7.332
 5387TIP3    H237721   3.981   1.831   7.337
 5388TIP3   OH237722   0.807   5.028   1.900
 5388TIP3    H137723   0.859   5.106   1.885
 5388TIP3    H237724   0.859   4.977   1.963
 5389TIP3   OH237725   2.932   0.980   7.215
 5389TIP3    H137726   2.902   0.930   7.292
 5389TIP3    H237727   3.000   0.925   7.176
 5390TIP3   OH237728   0.548   0.147   2.509
 5390TIP3    H137729   0.614   0.210   2.480
 5390TIP3    H237730   0.499   0.193   2.577
 5391TIP3   OH237731   0.460   3.523   2.519
 5391TIP3    H137732   0.441   3.517   2.426
 5391TIP3    H237733   0.395   3.584   2.553
 5392TIP3   OH237734   0.558   6.453   7.629
 5392TIP3    H137735   0.611   6.506   7.569
 5392TIP3    H237736   0.549   6.508   7.707
 5393TIP3   OH237737   4.085   2.555   2.195
 5393TIP3    H137738   3.997   2.560   2.158
 5393TIP3    H237739   4.107   2.645   2.216
 5394TIP3   OH237740   0.953   0.288   0.541
 5394TIP3    H137741   0.885   0.297   0.607
 5394TIP3    H237742   1.023   0.347   0.569
 5395TIP3   OH237743   5.753   0.684   2.244
 5395TIP3    H137744   5.802   0.651   2.319
 5395TIP3    H237745   5.817   0.686   2.173
 5396TIP3   OH237746   6.646   1.197   0.466
 5396TIP3    H137747   6.653   1.171   0.374
 5396TIP3    H237748   6.666   1.118   0.515
 5397TIP3   OH237749   1.517   0.909   6.910
 5397TIP3    H137750   1.504   0.833   6.854
 5397TIP3    H237751   1.429   0.931   6.940
 5398TIP3   OH237752   2.896   2.893   7.715
 5398TIP3    H137753   2.923   2.984   7.731
 5398TIP3    H237754   2.955   2.863   7.646
 5399TIP3   OH237755   3.153   5.317   8.074
 5399TIP3    H137756   3.065   5.354   8.081
 5399TIP3    H237757   3.156   5.282   7.985
 5400TIP3   OH237758   1.331   3.881   7.432
 5400TIP3    H137759   1.340   3.802   7.486
 5400TIP3    H237760   1.393   3.943   7.469
 5401TIP3   OH237761   1.545   4.893   0.544
 5401TIP3    H137762   1.614   4.870   0.606
 5401TIP3    H237763   1.486   4.950   0.594
 5402TIP3   OH237764   0.011   4.476   2.001
 5402TIP3    H137765   0.091   4.442   2.040
 5402TIP3    H237766   0.006   4.567   2.032
 5403TIP3   OH237767   2.565   0.309   0.150
 5403TIP3    H137768   2.522   0.250   0.088
 5403TIP3    H237769   2.642   0.261   0.181
 5404TIP3   OH237770   6.868   0.637   8.405
 5404TIP3    H137771   6.774   0.618   8.395
 5404TIP3    H237772   0.009   0.583   8.479
 5405TIP3   OH237773   0.305   1.742   0.217
 5405TIP3    H137774   0.364   1.667   0.219
 5405TIP3    H237775   0.304   1.770   0.125
 5406TIP3   OH237776   2.434   1.584   7.090
 5406TIP3    H137777   2.499   1.646   7.056
 5406TIP3    H237778   2.486   1.511   7.124
 5407TIP3   OH237779   2.245   2.940   8.048
 5407TIP3    H137780   2.196   2.922   7.968
 5407TIP3    H237781   2.233   2.862   8.102
 5408TIP3   OH237782   1.541   6.003   1.591
 5408TIP3    H137783   1.578   6.087   1.563
 5408TIP3    H237784   1.543   5.948   1.513
 5409TIP3   OH237785   0.604   4.263   8.298
 5409TIP3    H137786   0.612   4.331   8.231
 5409TIP3    H237787   0.585   4.310   8.379
 5410TIP3   OH237788   0.757   6.277   7.746
 5410TIP3    H137789   0.806   6.200   7.776
 5410TIP3    H237790   0.666   6.247   7.744
 5411TIP3   OH237791   6.060   3.946   0.738
 5411TIP3    H137792   6.147   3.923   0.705
 5411TIP3    H237793   6.050   3.893   0.817
 5412TIP3   OH237794   5.358   4.768   7.797
 5412TIP3    H137795   5.444   4.726   7.800
 5412TIP3    H237796   5.364   4.838   7.862
 5413TIP3   OH237797   5.746   6.560   1.439
 5413TIP3    H137798   5.770   6.470   1.463
 5413TIP3    H237799   5.650   6.557   1.429
 5414TIP3   OH237800   6.691   4.520   8.216
 5414TIP3    H137801   6.746   4.567   8.279
 5414TIP3    H237802   6.622   4.582   8.193
 5415TIP3   OH237803   6.318   4.562   0.851
 5415TIP3    H137804   6.329   4.474   0.815
 5415TIP3    H237805   6.379   4.616   0.800
 5416TIP3   OH237806   0.193   4.639   0.566
 5416TIP3    H137807   0.253   4.684   0.625
 5416TIP3    H237808   0.247   4.615   0.491
 5417TIP3   OH237809   0.047   5.537   0.735
 5417TIP3    H137810   0.012   5.455   0.702
 5417TIP3    H237811   0.057   5.523   0.829
 5418TIP3   OH237812   0.889   5.663   0.243
 5418TIP3    H137813   0.794   5.671   0.235
 5418TIP3    H237814   0.918   5.749   0.273
 5419TIP3   OH237815   2.900   0.141   8.273
 5419TIP3    H137816   2.893   0.047   8.259
 5419TIP3    H237817   2.895   0.152   8.368
 5420TIP3   OH237818   1.568   0.048   1.645
 5420TIP3    H137819   1.523   6.869   1.593
 5420TIP3    H237820   1.660   0.018   1.646
 5421TIP3   OH237821   1.947   4.730   1.493
 5421TIP3    H137822   1.985   4.731   1.581
 5421TIP3    H237823   1.857   4.760   1.506
 5422TIP3   OH237824   3.173   6.876   2.211
 5422TIP3    H137825   3.155   0.079   2.242
 5422TIP3    H237826   3.087   6.842   2.184
 5423TIP3   OH237827   2.854   4.959   6.502
 5423TIP3    H137828   2.901   4.961   6.585
 5423TIP3    H237829   2.817   5.047   6.494
 5424TIP3   OH237830   1.343   0.307   8.158
 5424TIP3    H137831   1.374   0.260   8.080
 5424TIP3    H237832   1.372   0.398   8.144
 5425TIP3   OH237833   4.330   2.418   7.981
 5425TIP3    H137834   4.353   2.483   8.048
 5425TIP3    H237835   4.380   2.444   7.904
 5426TIP3   OH237836   2.055   1.022   7.563
 5426TIP3    H137837   2.059   1.106   7.518
 5426TIP3    H237838   2.128   1.025   7.625
 5427TIP3   OH237839   2.019   3.560   1.603
 5427TIP3    H137840   2.019   3.654   1.586
 5427TIP3    H237841   2.073   3.550   1.682
 5428TIP3   OH237842   1.480   2.959   6.751
 5428TIP3    H137843   1.386   2.959   6.733
 5428TIP3    H237844   1.521   2.935   6.669
 5429TIP3   OH237845   0.264   4.099   8.526
 5429TIP3    H137846   0.298   4.097   8.437
 5429TIP3    H237847   0.171   4.117   8.515
 5430TIP3   OH237848   5.736   0.093   7.815
 5430TIP3    H137849   5.687   0.139   7.747
 5430TIP3    H237850   5.696   0.007   7.820
 5431TIP3   OH237851   6.830   0.629   6.339
 5431TIP3    H137852   6.756   0.573   6.313
 5431TIP3    H237853   6.873   0.580   6.409
 5432TIP3   OH237854   0.069   1.559   6.778
 5432TIP3    H137855   0.043   1.616   6.705
 5432TIP3    H237856   0.155   1.526   6.752
 5433TIP3   OH237857   5.102   3.692   0.224
 5433TIP3    H137858   5.007   3.700   0.237
 5433TIP3    H237859   5.139   3.699   0.312
 5434TIP3   OH237860   3.702   3.024   1.685
 5434TIP3    H137861   3.631   3.057   1.631
 5434TIP3    H237862   3.776   3.081   1.664
 5435TIP3   OH237863   1.574   3.847   0.702
 5435TIP3    H137864   1.619   3.765   0.685
 5435TIP3    H237865   1.572   3.891   0.617
 5436TIP3   OH237866   5.589   4.130   7.465
 5436TIP3    H137867   5.681   4.118   7.489
 5436TIP3    H237868   5.557   4.042   7.448
 5437TIP3   OH237869   3.214   6.406   8.266
 5437TIP3    H137870   3.259   6.488   8.248
 5437TIP3    H237871   3.277   6.338   8.240
 5438TIP3   OH237872   4.378   3.020   8.534
 5438TIP3    H137873   4.326   3.089   8.492
 5438TIP3    H237874   4.443   3.068   8.585
 5439TIP3   OH237875   5.941   1.825   8.355
 5439TIP3    H137876   6.035   1.819   8.335
 5439TIP3    H237877   5.931   1.911   8.396
 5440TIP3   OH237878   5.070   1.469   1.413
 5440TIP3    H137879   5.070   1.394   1.353
 5440TIP3    H237880   5.002   1.527   1.378
 5441TIP3   OH237881   2.649   2.153   0.661
 5441TIP3    H137882   2.553   2.152   0.670
 5441TIP3    H237883   2.666   2.103   0.581
 5442TIP3   OH237884   2.441   4.793   1.741
 5442TIP3    H137885   2.377   4.835   1.799
 5442TIP3    H237886   2.507   4.756   1.800
 5443TIP3   OH237887   3.770   6.643   0.273
 5443TIP3    H137888   3.836   6.705   0.241
 5443TIP3    H237889   3.785   6.564   0.221
 5444TIP3   OH237890   5.295   3.657   7.550
 5444TIP3    H137891   5.377   3.705   7.561
 5444TIP3    H237892   5.285   3.608   7.632
 5445TIP3   OH237893   1.212   4.050   2.025
 5445TIP3    H137894   1.245   3.971   1.983
 5445TIP3    H237895   1.236   4.121   1.966
 5446TIP3   OH237896   4.524   1.821   8.260
 5446TIP3    H137897   4.504   1.733   8.292
 5446TIP3    H237898   4.605   1.845   8.304
 5447TIP3   OH237899   4.308   1.833   7.936
 5447TIP3    H137900   4.304   1.913   7.989
 5447TIP3    H237901   4.229   1.835   7.883
 5448TIP3   OH237902   5.296   3.925   1.803
 5448TIP3    H137903   5.324   3.967   1.722
 5448TIP3    H237904   5.345   3.968   1.872
 5449TIP3   OH237905   1.158   6.025   6.144
 5449TIP3    H137906   1.198   6.109   6.119
 5449TIP3    H237907   1.231   5.963   6.145
 5450TIP3   OH237908   4.915   5.265   1.115
 5450TIP3    H137909   5.006   5.296   1.121
 5450TIP3    H237910   4.908   5.200   1.185
 5451TIP3   OH237911   5.733   3.415   7.231
 5451TIP3    H137912   5.739   3.331   7.277
 5451TIP3    H237913   5.796   3.407   7.159
 5452TIP3   OH237914   0.831   0.574   8.374
 5452TIP3    H137915   0.854   0.582   8.467
 5452TIP3    H237916   0.749   0.524   8.374
 5453TIP3   OH237917   2.223   4.968   0.975
 5453TIP3    H137918   2.251   4.946   1.064
 5453TIP3    H237919   2.210   4.883   0.933
 5454TIP3   OH237920   4.887   3.160   7.168
 5454TIP3    H137921   4.908   3.069   7.185
 5454TIP3    H237922   4.906   3.205   7.250
 5455TIP3   OH237923   4.849   1.984   0.915
 5455TIP3    H137924   4.803   1.919   0.863
 5455TIP3    H237925   4.904   1.934   0.975
 5456TIP3   OH237926   1.324   3.069   8.568
 5456TIP3    H137927   1.286   3.106   8.488
 5456TIP3    H237928   1.381   2.999   8.538
 5457TIP3   OH237929   1.489   0.509   8.534
 5457TIP3    H137930   1.495   0.604   8.547
 5457TIP3    H237931   1.555   0.472   8.592
 5458TIP3   OH237932   5.764   4.145   0.547
 5458TIP3    H137933   5.756   4.197   0.627
 5458TIP3    H237934   5.732   4.203   0.478
 5459TIP3   OH237935   0.714   2.873   7.285
 5459TIP3    H137936   0.720   2.864   7.380
 5459TIP3    H237937   0.710   2.783   7.252
 5460TIP3   OH237938   5.170   0.059   6.361
 5460TIP3    H137939   5.230   0.059   6.436
 5460TIP3    H237940   5.083   0.047   6.400
 5461TIP3   OH237941   1.200   4.774   1.136
 5461TIP3    H137942   1.166   4.730   1.058
 5461TIP3    H237943   1.131   4.764   1.201
 5462TIP3   OH237944   6.104   6.358   0.234
 5462TIP3    H137945   6.026   6.339   0.285
 5462TIP3    H237946   6.118   6.279   0.182
 5463TIP3   OH237947   4.376   4.144   7.020
 5463TIP3    H137948   4.423   4.063   7.037
 5463TIP3    H237949   4.413   4.176   6.937
 5464TIP3   OH237950   0.925   3.016   0.948
 5464TIP3    H137951   0.989   3.084   0.968
 5464TIP3    H237952   0.943   2.947   1.011
 5465TIP3   OH237953   3.846   2.027   1.713
 5465TIP3    H137954   3.819   2.044   1.804
 5465TIP3    H237955   3.786   1.959   1.683
 5466TIP3   OH237956   3.579   1.968   1.679
 5466TIP3    H137957   3.532   1.983   1.761
 5466TIP3    H237958   3.532   2.021   1.614
 5467TIP3   OH237959   0.215   3.997   1.255
 5467TIP3    H137960   0.172   4.026   1.174
 5467TIP3    H237961   0.251   3.911   1.234
 5468TIP3   OH237962   6.689   2.478   7.432
 5468TIP3    H137963   6.638   2.397   7.425
 5468TIP3    H237964   6.740   2.482   7.351
 5469TIP3   OH237965   2.000   1.537   8.070
 5469TIP3    H137966   2.021   1.574   7.984
 5469TIP3    H237967   1.950   1.458   8.050
 5470TIP3   OH237968   2.742   5.383   1.086
 5470TIP3    H137969   2.685   5.440   1.139
 5470TIP3    H237970   2.714   5.399   0.996
 5471TIP3   OH237971   3.735   1.762   1.061
 5471TIP3    H137972   3.827   1.784   1.049
 5471TIP3    H237973   3.714   1.793   1.149
 5472TIP3   OH237974   5.573   3.937   0.715
 5472TIP3    H137975   5.543   3.966   0.629
 5472TIP3    H237976   5.668   3.934   0.708
 5473TIP3   OH237977   6.397   2.911   7.376
 5473TIP3    H137978   6.367   3.000   7.359
 5473TIP3    H237979   6.492   2.915   7.360
 5474TIP3   OH237980   1.925   1.797   0.181
 5474TIP3    H137981   1.973   1.808   0.099
 5474TIP3    H237982   1.847   1.852   0.171
 5475TIP3   OH237983   4.164   0.527   1.373
 5475TIP3    H137984   4.156   0.470   1.297
 5475TIP3    H237985   4.193   0.611   1.338
 5476TIP3   OH237986   5.313   6.837   1.825
 5476TIP3    H137987   5.232   6.809   1.867
 5476TIP3    H237988   5.320   0.044   1.845
 5477TIP3   OH237989   4.332   3.674   6.693
 5477TIP3    H137990   4.335   3.579   6.705
 5477TIP3    H237991   4.327   3.685   6.598
 5478TIP3   OH237992   2.468   1.806   0.884
 5478TIP3    H137993   2.387   1.844   0.850
 5478TIP3    H237994   2.459   1.712   0.867
 5479TIP3   OH237995   5.100   3.160   7.973
 5479TIP3    H137996   5.179   3.158   8.028
 5479TIP3    H237997   5.047   3.230   8.011
 5480TIP3   OH237998   4.723   0.185   7.305
 5480TIP3    H137999   4.751   0.188   7.214
 5480TIP3    H238000   4.643   0.132   7.304
 5481TIP3   OH238001   4.378   1.387   1.566
 5481TIP3    H138002   4.349   1.352   1.483
 5481TIP3    H238003   4.439   1.322   1.601
 5482TIP3   OH238004   1.048   3.351   6.977
 5482TIP3    H138005   1.042   3.412   7.051
 5482TIP3    H238006   0.998   3.275   7.004
 5483TIP3   OH238007   6.608   5.227   7.837
 5483TIP3    H138008   6.681   5.196   7.891
 5483TIP3    H238009   6.623   5.321   7.827
 5484TIP3   OH238010   1.021   3.990   7.996
 5484TIP3    H138011   1.050   3.998   8.087
 5484TIP3    H238012   0.932   4.028   7.996
 5485TIP3   OH238013   3.495   1.495   6.767
 5485TIP3    H138014   3.509   1.488   6.672
 5485TIP3    H238015   3.566   1.445   6.806
 5486TIP3   OH238016   5.126   4.217   0.608
 5486TIP3    H138017   5.081   4.280   0.552
 5486TIP3    H238018   5.070   4.209   0.685
 5487TIP3   OH238019   0.794   6.255   1.760
 5487TIP3    H138020   0.708   6.256   1.803
 5487TIP3    H238021   0.857   6.252   1.831
 5488TIP3   OH238022   3.019   1.836   1.437
 5488TIP3    H138023   2.974   1.759   1.472
 5488TIP3    H238024   3.111   1.811   1.434
 5489TIP3   OH238025   6.615   1.406   8.246
 5489TIP3    H138026   6.618   1.372   8.157
 5489TIP3    H238027   6.620   1.328   8.301
 5490TIP3   OH238028   5.660   0.560   7.840
 5490TIP3    H138029   5.572   0.529   7.860
 5490TIP3    H238030   5.715   0.482   7.848
 5491TIP3   OH238031   4.228   6.202   2.032
 5491TIP3    H138032   4.229   6.166   2.121
 5491TIP3    H238033   4.273   6.136   1.979
 5492TIP3   OH238034   2.456   0.699   6.273
 5492TIP3    H138035   2.408   0.672   6.194
 5492TIP3    H238036   2.399   0.673   6.345
 5493TIP3   OH238037   3.359   1.365   0.945
 5493TIP3    H138038   3.280   1.344   0.895
 5493TIP3    H238039   3.426   1.382   0.879
 5494TIP3   OH238040   0.684   2.575   7.170
 5494TIP3    H138041   0.644   2.584   7.083
 5494TIP3    H238042   0.769   2.535   7.153
 5495TIP3   OH238043   5.842   0.638   7.368
 5495TIP3    H138044   5.803   0.555   7.394
 5495TIP3    H238045   5.869   0.625   7.277
 5496TIP3   OH238046   2.903   1.957   8.493
 5496TIP3    H138047   2.908   2.013   8.416
 5496TIP3    H238048   2.968   1.888   8.477
 5497TIP3   OH238049   5.080   1.198   8.221
 5497TIP3    H138050   5.167   1.237   8.210
 5497TIP3    H238051   5.042   1.244   8.295
 5498TIP3   OH238052   1.159   5.858   7.191
 5498TIP3    H138053   1.088   5.848   7.128
 5498TIP3    H238054   1.215   5.781   7.177
 5499TIP3   OH238055   6.400   3.400   1.400
 5499TIP3    H138056   6.348   3.363   1.471
 5499TIP3    H238057   6.415   3.491   1.425
 5500TIP3   OH238058   5.996   1.742   8.046
 5500TIP3    H138059   6.005   1.695   8.129
 5500TIP3    H238060   6.084   1.774   8.027
 5501TIP3   OH238061   3.436   3.441   0.330
 5501TIP3    H138062   3.500   3.374   0.307
 5501TIP3    H238063   3.407   3.418   0.418
 5502TIP3   OH238064   0.153   1.456   7.615
 5502TIP3    H138065   0.126   1.450   7.524
 5502TIP3    H238066   0.237   1.410   7.618
 5503TIP3   OH238067   5.076   0.897   1.252
 5503TIP3    H138068   5.170   0.879   1.263
 5503TIP3    H238069   5.046   0.918   1.341
 5504TIP3   OH238070   4.570   3.205   0.230
 5504TIP3    H138071   4.521   3.126   0.207
 5504TIP3    H238072   4.630   3.219   0.157
 5505TIP3   OH238073   2.507   0.442   7.596
 5505TIP3    H138074   2.528   0.431   7.689
 5505TIP3    H238075   2.592   0.457   7.554
 5506TIP3   OH238076   3.195   5.504   7.202
 5506TIP3    H138077   3.162   5.593   7.189
 5506TIP3    H238078   3.290   5.515   7.212
 5507TIP3   OH238079   3.083   0.012   8.068
 5507TIP3    H138080   3.159   0.019   8.126
 5507TIP3    H238081   3.037   0.095   8.078
 5508TIP3   OH238082   5.177   1.577   7.755
 5508TIP3    H138083   5.128   1.568   7.673
 5508TIP3    H238084   5.115   1.616   7.816
 5509TIP3   OH238085   3.210   3.488   6.456
 5509TIP3    H138086   3.178   3.398   6.463
 5509TIP3    H238087   3.133   3.542   6.472
 5510TIP3   OH238088   6.094   6.594   1.874
 5510TIP3    H138089   6.155   6.660   1.906
 5510TIP3    H238090   6.021   6.597   1.937
 5511TIP3   OH238091   6.456   3.954   7.806
 5511TIP3    H138092   6.479   3.963   7.714
 5511TIP3    H238093   6.406   4.033   7.827
 5512TIP3   OH238094   0.361   4.412   7.340
 5512TIP3    H138095   0.400   4.353   7.275
 5512TIP3    H238096   0.269   4.418   7.314
 5513TIP3   OH238097   0.736   3.827   0.395
 5513TIP3    H138098   0.810   3.844   0.453
 5513TIP3    H238099   0.764   3.752   0.342
 5514TIP3   OH238100   4.506   2.529   2.959
 5514TIP3    H138101   4.543   2.477   2.888
 5514TIP3    H238102   4.474   2.464   3.022
 5515TIP3   OH238103   5.325   6.540   7.961
 5515TIP3    H138104   5.405   6.538   8.014
 5515TIP3    H238105   5.332   6.620   7.909
 5516TIP3   OH238106   6.456   5.385   1.125
 5516TIP3    H138107   6.496   5.298   1.129
 5516TIP3    H238108   6.519   5.443   1.168
 5517TIP3   OH238109   4.102   0.546   6.849
 5517TIP3    H138110   4.142   0.579   6.769
 5517TIP3    H238111   4.039   0.613   6.874
 5518TIP3   OH238112   3.456   2.661   1.074
 5518TIP3    H138113   3.393   2.590   1.068
 5518TIP3    H238114   3.508   2.655   0.994
 5519TIP3   OH238115   5.655   4.961   0.659
 5519TIP3    H138116   5.710   5.015   0.715
 5519TIP3    H238117   5.604   4.907   0.719
 5520TIP3   OH238118   5.880   4.292   1.075
 5520TIP3    H138119   5.870   4.320   1.166
 5520TIP3    H238120   5.964   4.329   1.048
 5521TIP3   OH238121   1.185   0.622   7.032
 5521TIP3    H138122   1.129   0.545   7.018
 5521TIP3    H238123   1.267   0.600   6.988
 5522TIP3   OH238124   1.982   5.621   0.349
 5522TIP3    H138125   2.036   5.591   0.276
 5522TIP3    H238126   1.930   5.544   0.374
 5523TIP3   OH238127   4.563   5.852   8.301
 5523TIP3    H138128   4.617   5.773   8.294
 5523TIP3    H238129   4.606   5.915   8.244
 5524TIP3   OH238130   5.312   1.377   1.100
 5524TIP3    H138131   5.370   1.373   1.024
 5524TIP3    H238132   5.354   1.441   1.158
 5525TIP3   OH238133   1.903   1.041   0.504
 5525TIP3    H138134   1.959   1.002   0.571
 5525TIP3    H238135   1.927   0.995   0.423
 5526TIP3   OH238136   3.482   4.219   1.244
 5526TIP3    H138137   3.483   4.285   1.314
 5526TIP3    H238138   3.390   4.195   1.235
 5527TIP3   OH238139   3.713   3.833   8.139
 5527TIP3    H138140   3.801   3.841   8.103
 5527TIP3    H238141   3.690   3.923   8.165
 5528TIP3   OH238142   4.430   4.828   7.360
 5528TIP3    H138143   4.356   4.770   7.351
 5528TIP3    H238144   4.394   4.907   7.401
 5529TIP3   OH238145   6.155   1.082   7.342
 5529TIP3    H138146   6.078   1.113   7.295
 5529TIP3    H238147   6.155   0.987   7.329
 5530TIP3   OH238148   5.761   5.915   0.671
 5530TIP3    H138149   5.735   5.989   0.615
 5530TIP3    H238150   5.681   5.865   0.684
 5531TIP3   OH238151   3.475   1.726   0.920
 5531TIP3    H138152   3.570   1.730   0.916
 5531TIP3    H238153   3.454   1.730   1.013
 5532TIP3   OH238154   0.561   2.228   0.056
 5532TIP3    H138155   0.497   2.213   0.126
 5532TIP3    H238156   0.573   2.323   0.054
 5533TIP3   OH238157   1.000   4.231   0.268
 5533TIP3    H138158   0.923   4.178   0.284
 5533TIP3    H238159   1.045   4.187   0.195
 5534TIP3   OH238160   3.509   4.519   7.416
 5534TIP3    H138161   3.590   4.534   7.366
 5534TIP3    H238162   3.505   4.424   7.427
 5535TIP3   OH238163   6.769   1.333   1.521
 5535TIP3    H138164   6.714   1.349   1.598
 5535TIP3    H238165   6.782   1.420   1.482
 5536TIP3   OH238166   0.667   1.164   0.653
 5536TIP3    H138167   0.581   1.190   0.686
 5536TIP3    H238168   0.725   1.237   0.676
 5537TIP3   OH238169   2.294   3.601   1.832
 5537TIP3    H138170   2.366   3.594   1.894
 5537TIP3    H238171   2.329   3.561   1.751
 5538TIP3   OH238172   5.057   1.601   6.596
 5538TIP3    H138173   5.065   1.691   6.628
 5538TIP3    H238174   4.979   1.603   6.540
 5539TIP3   OH238175   2.157   2.391   8.513
 5539TIP3    H138176   2.172   2.444   8.434
 5539TIP3    H238177   2.138   2.454   8.581
 5540TIP3   OH238178   4.283   6.616   7.767
 5540TIP3    H138179   4.188   6.620   7.771
 5540TIP3    H238180   4.312   6.616   7.858
 5541TIP3   OH238181   5.093   2.020   2.155
 5541TIP3    H138182   5.112   2.039   2.063
 5541TIP3    H238183   5.070   1.928   2.156
 5542TIP3   OH238184   5.000   2.523   0.486
 5542TIP3    H138185   4.934   2.549   0.423
 5542TIP3    H238186   4.992   2.587   0.557
 5543TIP3   OH238187   4.666   6.004   8.095
 5543TIP3    H138188   4.758   6.007   8.070
 5543TIP3    H238189   4.618   6.024   8.015
 5544TIP3   OH238190   1.331   3.874   0.061
 5544TIP3    H138191   1.350   3.816   0.135
 5544TIP3    H238192   1.414   3.918   0.044
 5545TIP3   OH238193   6.390   0.977   7.921
 5545TIP3    H138194   6.403   1.043   7.853
 5545TIP3    H238195   6.478   0.946   7.941
 5546TIP3   OH238196   3.611   6.325   6.093
 5546TIP3    H138197   3.603   6.234   6.064
 5546TIP3    H238198   3.543   6.334   6.160
 5547TIP3   OH238199   0.410   5.999   1.965
 5547TIP3    H138200   0.317   6.001   1.940
 5547TIP3    H238201   0.413   5.937   2.038
 5548TIP3   OH238202   1.680   1.465   2.647
 5548TIP3    H138203   1.692   1.538   2.587
 5548TIP3    H238204   1.760   1.412   2.638
 5549TIP3   OH238205   1.035   4.674   1.597
 5549TIP3    H138206   1.125   4.648   1.617
 5549TIP3    H238207   0.981   4.612   1.645
 5550TIP3   OH238208   4.770   1.047   6.735
 5550TIP3    H138209   4.719   1.085   6.806
 5550TIP3    H238210   4.711   0.983   6.695
 5551TIP3   OH238211   5.108   3.459   7.488
 5551TIP3    H138212   5.134   3.548   7.464
 5551TIP3    H238213   5.183   3.424   7.535
 5552TIP3   OH238214   0.542   3.208   8.387
 5552TIP3    H138215   0.619   3.196   8.332
 5552TIP3    H238216   0.492   3.277   8.343
 5553TIP3   OH238217   3.236   4.498   7.880
 5553TIP3    H138218   3.167   4.493   7.814
 5553TIP3    H238219   3.269   4.587   7.873
 5554TIP3   OH238220   0.145   0.926   7.418
 5554TIP3    H138221   0.228   0.918   7.465
 5554TIP3    H238222   0.169   0.971   7.337
 5555TIP3   OH238223   4.650   3.051   7.963
 5555TIP3    H138224   4.599   3.082   8.038
 5555TIP3    H238225   4.739   3.044   7.996
 5556TIP3   OH238226   1.225   2.786   7.976
 5556TIP3    H138227   1.254   2.792   7.885
 5556TIP3    H238228   1.306   2.786   8.027
 5557TIP3   OH238229   3.162   1.888   6.905
 5557TIP3    H138230   3.069   1.907   6.923
 5557TIP3    H238231   3.160   1.826   6.832
 5558TIP3   OH238232   4.075   6.358   0.568
 5558TIP3    H138233   4.001   6.343   0.510
 5558TIP3    H238234   4.093   6.452   0.560
 5559TIP3   OH238235   3.441   6.789   7.909
 5559TIP3    H138236   3.439   6.702   7.948
 5559TIP3    H238237   3.457   6.848   7.984
 5560TIP3   OH238238   3.893   5.839   8.249
 5560TIP3    H138239   3.869   5.829   8.157
 5560TIP3    H238240   3.944   5.761   8.270
 5561TIP3   OH238241   0.625   3.649   1.494
 5561TIP3    H138242   0.567   3.701   1.549
 5561TIP3    H238243   0.657   3.579   1.552
 5562TIP3   OH238244   5.320   5.558   6.974
 5562TIP3    H138245   5.344   5.576   6.884
 5562TIP3    H238246   5.394   5.508   7.009
 5563TIP3   OH238247   4.255   3.494   2.034
 5563TIP3    H138248   4.162   3.495   2.059
 5563TIP3    H238249   4.281   3.586   2.036
 5564TIP3   OH238250   4.166   6.578   7.488
 5564TIP3    H138251   4.215   6.535   7.417
 5564TIP3    H238252   4.231   6.591   7.557
 5565TIP3   OH238253   4.902   4.481   6.738
 5565TIP3    H138254   4.918   4.418   6.667
 5565TIP3    H238255   4.811   4.507   6.727
 5566TIP3   OH238256   4.487   0.684   0.848
 5566TIP3    H138257   4.561   0.713   0.795
 5566TIP3    H238258   4.518   0.603   0.890
 5567TIP3   OH238259   0.519   4.225   7.236
 5567TIP3    H138260   0.511   4.130   7.248
 5567TIP3    H238261   0.607   4.238   7.200
 5568TIP3   OH238262   0.897   6.373   1.463
 5568TIP3    H138263   0.923   6.435   1.394
 5568TIP3    H238264   0.928   6.414   1.544
 5569TIP3   OH238265   2.129   0.239   8.090
 5569TIP3    H138266   2.138   0.284   8.006
 5569TIP3    H238267   2.194   0.281   8.147
 5570TIP3   OH238268   2.935   5.732   7.890
 5570TIP3    H138269   2.910   5.652   7.844
 5570TIP3    H238270   2.860   5.791   7.878
 5571TIP3   OH238271   5.096   6.367   7.924
 5571TIP3    H138272   5.155   6.431   7.885
 5571TIP3    H238273   5.031   6.348   7.856
 5572TIP3   OH238274   3.697   0.691   7.406
 5572TIP3    H138275   3.629   0.675   7.471
 5572TIP3    H238276   3.652   0.682   7.322
 5573TIP3   OH238277   1.822   0.624   7.702
 5573TIP3    H138278   1.881   0.656   7.634
 5573TIP3    H238279   1.876   0.565   7.755
 5574TIP3   OH238280   4.848   4.382   8.346
 5574TIP3    H138281   4.778   4.447   8.340
 5574TIP3    H238282   4.817   4.309   8.292
 5575TIP3   OH238283   6.412   1.633   0.452
 5575TIP3    H138284   6.443   1.560   0.505
 5575TIP3    H238285   6.492   1.670   0.414
 5576TIP3   OH238286   6.647   2.214   2.491
 5576TIP3    H138287   6.629   2.258   2.407
 5576TIP3    H238288   6.607   2.271   2.557
 5577TIP3   OH238289   0.522   0.593   1.327
 5577TIP3    H138290   0.608   0.551   1.331
 5577TIP3    H238291   0.520   0.651   1.403
 5578TIP3   OH238292   3.293   0.028   0.078
 5578TIP3    H138293   3.380   0.059   0.107
 5578TIP3    H238294   3.284   6.829   0.120
 5579TIP3   OH238295   2.759   4.700   1.156
 5579TIP3    H138296   2.768   4.766   1.087
 5579TIP3    H238297   2.728   4.748   1.232
 5580TIP3   OH238298   6.609   5.904   1.848
 5580TIP3    H138299   6.700   5.880   1.864
 5580TIP3    H238300   6.614   5.974   1.782
 5581TIP3   OH238301   1.126   3.332   2.449
 5581TIP3    H138302   1.035   3.361   2.459
 5581TIP3    H238303   1.173   3.410   2.419
 5582TIP3   OH238304   1.913   1.394   7.643
 5582TIP3    H138305   1.944   1.391   7.733
 5582TIP3    H238306   1.889   1.304   7.622
 5583TIP3   OH238307   6.206   3.691   8.258
 5583TIP3    H138308   6.199   3.727   8.346
 5583TIP3    H238309   6.272   3.622   8.265
 5584TIP3   OH238310   6.024   5.785   0.747
 5584TIP3    H138311   6.015   5.723   0.820
 5584TIP3    H238312   5.934   5.801   0.719
 5585TIP3   OH238313   6.329   5.542   0.945
 5585TIP3    H138314   6.234   5.553   0.937
 5585TIP3    H238315   6.342   5.508   1.034
 5586TIP3   OH238316   0.103   5.676   7.704
 5586TIP3    H138317   0.054   5.711   7.778
 5586TIP3    H238318   0.190   5.658   7.740
 5587TIP3   OH238319   5.613   5.671   8.248
 5587TIP3    H138320   5.590   5.600   8.308
 5587TIP3    H238321   5.692   5.641   8.204
 5588TIP3   OH238322   1.128   3.797   1.752
 5588TIP3    H138323   1.198   3.745   1.793
 5588TIP3    H238324   1.175   3.858   1.695
 5589TIP3   OH238325   6.648   3.689   1.207
 5589TIP3    H138326   6.621   3.780   1.199
 5589TIP3    H238327   6.614   3.662   1.293
 5590TIP3   OH238328   5.116   6.562   0.225
 5590TIP3    H138329   5.022   6.577   0.224
 5590TIP3    H238330   5.126   6.473   0.258
 5591TIP3   OH238331   4.223   2.882   8.120
 5591TIP3    H138332   4.282   2.878   8.195
 5591TIP3    H238333   4.276   2.918   8.049
 5592TIP3   OH238334   5.827   3.797   0.704
 5592TIP3    H138335   5.803   3.772   0.793
 5592TIP3    H238336   5.919   3.825   0.712
 5593TIP3   OH238337   4.489   2.541   1.152
 5593TIP3    H138338   4.430   2.597   1.103
 5593TIP3    H238339   4.495   2.581   1.239
 5594TIP3   OH238340   5.325   5.120   6.964
 5594TIP3    H138341   5.281   5.159   6.889
 5594TIP3    H238342   5.272   5.145   7.040
 5595TIP3   OH238343   5.665   0.877   1.932
 5595TIP3    H138344   5.745   0.912   1.972
 5595TIP3    H238345   5.652   0.932   1.855
 5596TIP3   OH238346   0.325   3.528   0.076
 5596TIP3    H138347   0.308   3.437   0.097
 5596TIP3    H238348   0.408   3.548   0.119
 5597TIP3   OH238349   1.218   4.812   8.254
 5597TIP3    H138350   1.247   4.791   8.343
 5597TIP3    H238351   1.165   4.738   8.227
 5598TIP3   OH238352   5.908   3.431   0.919
 5598TIP3    H138353   5.832   3.483   0.948
 5598TIP3    H238354   5.871   3.345   0.898
 5599TIP3   OH238355   0.304   6.573   0.520
 5599TIP3    H138356   0.225   6.615   0.552
 5599TIP3    H238357   0.278   6.483   0.500
 5600TIP3   OH238358   5.241   1.850   7.212
 5600TIP3    H138359   5.200   1.765   7.195
 5600TIP3    H238360   5.316   1.829   7.268
 5601TIP3   OH238361   1.968   4.434   1.428
 5601TIP3    H138362   2.063   4.418   1.423
 5601TIP3    H238363   1.960   4.529   1.418
 5602TIP3   OH238364   4.767   3.343   1.623
 5602TIP3    H138365   4.706   3.387   1.681
 5602TIP3    H238366   4.751   3.381   1.537
 5603TIP3   OH238367   2.595   4.025   8.084
 5603TIP3    H138368   2.618   4.118   8.088
 5603TIP3    H238369   2.580   4.000   8.175
 5604TIP3   OH238370   5.958   0.719   7.667
 5604TIP3    H138371   5.925   0.765   7.590
 5604TIP3    H238372   5.911   0.758   7.741
 5605TIP3   OH238373   6.634   2.251   7.912
 5605TIP3    H138374   6.545   2.217   7.904
 5605TIP3    H238375   6.638   2.323   7.850
 5606TIP3   OH238376   4.055   5.701   0.125
 5606TIP3    H138377   4.061   5.764   0.197
 5606TIP3    H238378   4.026   5.620   0.166
 5607TIP3   OH238379   5.881   6.044   6.355
 5607TIP3    H138380   5.957   5.985   6.361
 5607TIP3    H238381   5.805   5.987   6.363
 5608TIP3   OH238382   0.354   0.146   0.565
 5608TIP3    H138383   0.408   0.129   0.488
 5608TIP3    H238384   0.377   0.077   0.627
 5609TIP3   OH238385   1.547   2.015   7.755
 5609TIP3    H138386   1.490   2.034   7.681
 5609TIP3    H238387   1.613   2.084   7.755
 5610TIP3   OH238388   0.439   5.569   7.424
 5610TIP3    H138389   0.467   5.504   7.359
 5610TIP3    H238390   0.362   5.530   7.465
 5611TIP3   OH238391   6.096   5.953   1.830
 5611TIP3    H138392   6.112   6.020   1.764
 5611TIP3    H238393   6.154   5.881   1.806
 5612TIP3   OH238394   1.623   5.782   8.316
 5612TIP3    H138395   1.642   5.783   8.222
 5612TIP3    H238396   1.666   5.704   8.349
 5613TIP3   OH238397   0.701   2.739   1.869
 5613TIP3    H138398   0.691   2.708   1.959
 5613TIP3    H238399   0.695   2.660   1.815
 5614TIP3   OH238400   6.150   3.461   1.823
 5614TIP3    H138401   6.208   3.385   1.814
 5614TIP3    H238402   6.102   3.445   1.905
 5615TIP3   OH238403   5.040   1.790   8.434
 5615TIP3    H138404   5.050   1.695   8.435
 5615TIP3    H238405   5.032   1.814   8.527
 5616TIP3   OH238406   1.108   5.113   8.146
 5616TIP3    H138407   1.017   5.113   8.176
 5616TIP3    H238408   1.140   5.026   8.170
 5617TIP3   OH238409   5.596   3.242   7.578
 5617TIP3    H138410   5.643   3.324   7.595
 5617TIP3    H238411   5.625   3.215   7.491
 5618TIP3   OH238412   4.896   6.684   7.346
 5618TIP3    H138413   4.834   6.722   7.284
 5618TIP3    H238414   4.889   6.738   7.424
 5619TIP3   OH238415   0.189   1.020   7.158
 5619TIP3    H138416   0.172   0.938   7.113
 5619TIP3    H238417   0.103   1.062   7.167
 5620TIP3   OH238418   1.230   2.165   1.183
 5620TIP3    H138419   1.164   2.235   1.182
 5620TIP3    H238420   1.209   2.113   1.105
 5621TIP3   OH238421   0.481   1.202   6.720
 5621TIP3    H138422   0.403   1.151   6.697
 5621TIP3    H238423   0.536   1.140   6.768
 5622TIP3   OH238424   5.751   0.957   1.700
 5622TIP3    H138425   5.775   1.022   1.634
 5622TIP3    H238426   5.827   0.899   1.705
 5623TIP3   OH238427   5.293   4.758   0.323
 5623TIP3    H138428   5.379   4.739   0.361
 5623TIP3    H238429   5.312   4.784   0.233
 5624TIP3   OH238430   3.700   3.317   0.288
 5624TIP3    H138431   3.772   3.368   0.325
 5624TIP3    H238432   3.660   3.273   0.363
 5625TIP3   OH238433   0.309   2.803   8.116
 5625TIP3    H138434   0.325   2.880   8.062
 5625TIP3    H238435   0.235   2.828   8.172
 5626TIP3   OH238436   1.723   0.876   1.037
 5626TIP3    H138437   1.704   0.799   0.983
 5626TIP3    H238438   1.714   0.950   0.976
 5627TIP3   OH238439   5.099   3.001   0.110
 5627TIP3    H138440   5.054   3.059   0.049
 5627TIP3    H238441   5.032   2.978   0.175
 5628TIP3   OH238442   4.812   1.486   7.530
 5628TIP3    H138443   4.729   1.511   7.489
 5628TIP3    H238444   4.797   1.502   7.624
 5629TIP3   OH238445   3.691   1.654   7.376
 5629TIP3    H138446   3.621   1.672   7.313
 5629TIP3    H238447   3.650   1.597   7.442
 5630TIP3   OH238448   0.185   2.991   6.246
 5630TIP3    H138449   0.134   3.062   6.285
 5630TIP3    H238450   0.265   3.033   6.214
 5631TIP3   OH238451   0.623   2.283   1.369
 5631TIP3    H138452   0.627   2.194   1.334
 5631TIP3    H238453   0.617   2.339   1.291
 5632TIP3   OH238454   2.333   2.984   1.407
 5632TIP3    H138455   2.382   3.061   1.435
 5632TIP3    H238456   2.399   2.917   1.390
 5633TIP3   OH238457   3.923   3.566   1.359
 5633TIP3    H138458   3.917   3.471   1.370
 5633TIP3    H238459   3.917   3.579   1.264
 5634TIP3   OH238460   1.418   3.883   7.170
 5634TIP3    H138461   1.438   3.803   7.121
 5634TIP3    H238462   1.393   3.853   7.257
 5635TIP3   OH238463   4.478   3.095   7.579
 5635TIP3    H138464   4.565   3.136   7.584
 5635TIP3    H238465   4.453   3.104   7.487
 5636TIP3   OH238466   5.406   4.396   0.187
 5636TIP3    H138467   5.426   4.303   0.196
 5636TIP3    H238468   5.329   4.399   0.130
 5637TIP3   OH238469   3.696   4.532   0.669
 5637TIP3    H138470   3.642   4.453   0.670
 5637TIP3    H238471   3.648   4.596   0.722
 5638TIP3   OH238472   0.307   0.113   1.220
 5638TIP3    H138473   0.298   0.194   1.269
 5638TIP3    H238474   0.372   0.062   1.269
 5639TIP3   OH238475   5.662   6.823   1.537
 5639TIP3    H138476   5.613   6.794   1.460
 5639TIP3    H238477   5.596   6.867   1.592
 5640TIP3   OH238478   1.768   2.165   0.109
 5640TIP3    H138479   1.765   2.069   0.100
 5640TIP3    H238480   1.688   2.195   0.065
 5641TIP3   OH238481   4.471   3.053   0.647
 5641TIP3    H138482   4.398   3.074   0.588
 5641TIP3    H238483   4.435   3.066   0.735
 5642TIP3   OH238484   2.242   5.418   1.343
 5642TIP3    H138485   2.232   5.324   1.327
 5642TIP3    H238486   2.184   5.459   1.278
 5643TIP3   OH238487   1.183   1.430   0.362
 5643TIP3    H138488   1.245   1.477   0.418
 5643TIP3    H238489   1.171   1.488   0.286
 5644TIP3   OH238490   0.346   2.787   0.353
 5644TIP3    H138491   0.353   2.693   0.333
 5644TIP3    H238492   0.394   2.830   0.283
 5645TIP3   OH238493   1.242   6.341   0.833
 5645TIP3    H138494   1.271   6.287   0.907
 5645TIP3    H238495   1.316   6.399   0.814
 5646TIP3   OH238496   1.047   2.751   0.386
 5646TIP3    H138497   1.063   2.836   0.428
 5646TIP3    H238498   1.028   2.773   0.295
 5647TIP3   OH238499   6.297   1.869   0.247
 5647TIP3    H138500   6.328   1.902   0.162
 5647TIP3    H238501   6.354   1.911   0.311
 5648TIP3   OH238502   4.299   1.471   0.254
 5648TIP3    H138503   4.236   1.500   0.319
 5648TIP3    H238504   4.363   1.420   0.303
 5649TIP3   OH238505   3.200   1.919   0.827
 5649TIP3    H138506   3.179   1.976   0.901
 5649TIP3    H238507   3.217   1.834   0.866
 5650TIP3   OH238508   2.580   6.552   2.455
 5650TIP3    H138509   2.561   6.526   2.365
 5650TIP3    H238510   2.578   6.471   2.505
 5651TIP3   OH238511   0.912   6.143   8.176
 5651TIP3    H138512   0.825   6.177   8.157
 5651TIP3    H238513   0.944   6.111   8.092
 5652TIP3   OH238514   0.484   3.399   7.414
 5652TIP3    H138515   0.580   3.394   7.420
 5652TIP3    H238516   0.467   3.476   7.359
 5653TIP3   OH238517   4.521   6.569   1.864
 5653TIP3    H138518   4.465   6.612   1.928
 5653TIP3    H238519   4.466   6.558   1.787
 5654TIP3   OH238520   1.416   0.739   7.657
 5654TIP3    H138521   1.405   0.685   7.579
 5654TIP3    H238522   1.346   0.805   7.650
 5655TIP3   OH238523   6.290   0.344   0.473
 5655TIP3    H138524   6.342   0.278   0.426
 5655TIP3    H238525   6.334   0.427   0.455
 5656TIP3   OH238526   6.582   5.302   2.224
 5656TIP3    H138527   6.670   5.340   2.229
 5656TIP3    H238528   6.529   5.368   2.181
 5657TIP3   OH238529   6.266   4.150   1.310
 5657TIP3    H138530   6.240   4.242   1.322
 5657TIP3    H238531   6.220   4.104   1.380
 5658TIP3   OH238532   4.643   2.086   2.218
 5658TIP3    H138533   4.638   2.001   2.262
 5658TIP3    H238534   4.600   2.147   2.279
 5659TIP3   OH238535   3.621   4.927   0.685
 5659TIP3    H138536   3.661   4.977   0.756
 5659TIP3    H238537   3.595   4.844   0.726
 5660TIP3   OH238538   2.560   5.451   6.878
 5660TIP3    H138539   2.497   5.390   6.917
 5660TIP3    H238540   2.645   5.410   6.893
 5661TIP3   OH238541   4.305   3.405   7.877
 5661TIP3    H138542   4.294   3.467   7.805
 5661TIP3    H238543   4.254   3.328   7.850
 5662TIP3   OH238544   0.810   5.192   0.610
 5662TIP3    H138545   0.747   5.231   0.549
 5662TIP3    H238546   0.868   5.264   0.634
 5663TIP3   OH238547   4.008   6.763   8.060
 5663TIP3    H138548   4.065   6.693   8.090
 5663TIP3    H238549   4.062   6.842   8.064
 5664TIP3   OH238550   2.296   1.500   7.425
 5664TIP3    H138551   2.389   1.501   7.405
 5664TIP3    H238552   2.260   1.574   7.377
 5665TIP3   OH238553   2.910   0.103   0.476
 5665TIP3    H138554   2.833   0.070   0.431
 5665TIP3    H238555   2.983   0.056   0.436
 5666TIP3   OH238556   0.049   1.007   0.781
 5666TIP3    H138557   0.070   1.035   0.870
 5666TIP3    H238558   0.111   0.936   0.763
 5667TIP3   OH238559   3.848   0.494   1.364
 5667TIP3    H138560   3.872   0.586   1.371
 5667TIP3    H238561   3.761   0.495   1.324
 5668TIP3   OH238562   4.847   1.913   8.058
 5668TIP3    H138563   4.771   1.935   8.112
 5668TIP3    H238564   4.917   1.896   8.122
 5669TIP3   OH238565   3.362   2.536   1.955
 5669TIP3    H138566   3.345   2.515   2.046
 5669TIP3    H238567   3.454   2.562   1.953
 5670TIP3   OH238568   6.149   4.086   0.255
 5670TIP3    H138569   6.141   4.180   0.271
 5670TIP3    H238570   6.079   4.047   0.308
 5671TIP3   OH238571   5.233   4.559   1.358
 5671TIP3    H138572   5.274   4.641   1.330
 5671TIP3    H238573   5.306   4.504   1.387
 5672TIP3   OH238574   3.209   1.643   0.970
 5672TIP3    H138575   3.235   1.693   1.047
 5672TIP3    H238576   3.285   1.589   0.949
 5673TIP3   OH238577   1.298   5.644   6.411
 5673TIP3    H138578   1.282   5.621   6.320
 5673TIP3    H238579   1.381   5.691   6.411
 5674TIP3   OH238580   3.951   5.996   6.899
 5674TIP3    H138581   3.955   5.914   6.850
 5674TIP3    H238582   3.886   5.980   6.967
 5675TIP3   OH238583   3.595   4.827   2.160
 5675TIP3    H138584   3.502   4.850   2.166
 5675TIP3    H238585   3.613   4.780   2.241
 5676TIP3   OH238586   3.968   6.782   0.139
 5676TIP3    H138587   3.952   6.818   0.052
 5676TIP3    H238588   4.044   6.724   0.128
 5677TIP3   OH238589   2.271   4.253   8.425
 5677TIP3    H138590   2.292   4.339   8.390
 5677TIP3    H238591   2.176   4.244   8.412
 5678TIP3   OH238592   6.825   2.401   7.139
 5678TIP3    H138593   6.803   2.345   7.214
 5678TIP3    H238594   6.884   2.347   7.086
 5679TIP3   OH238595   0.295   6.505   7.774
 5679TIP3    H138596   0.284   6.440   7.843
 5679TIP3    H238597   0.275   6.458   7.693
 5680TIP3   OH238598   2.983   2.562   0.271
 5680TIP3    H138599   3.054   2.499   0.261
 5680TIP3    H238600   2.912   2.528   0.217
 5681TIP3   OH238601   2.435   1.915   1.949
 5681TIP3    H138602   2.448   1.998   1.996
 5681TIP3    H238603   2.360   1.874   1.992
 5682TIP3   OH238604   5.842   4.495   1.948
 5682TIP3    H138605   5.788   4.536   1.880
 5682TIP3    H238606   5.885   4.568   1.992
 5683TIP3   OH238607   5.993   1.295   1.022
 5683TIP3    H138608   5.910   1.339   1.041
 5683TIP3    H238609   5.986   1.268   0.931
 5684TIP3   OH238610   1.434   4.840   1.691
 5684TIP3    H138611   1.379   4.905   1.733
 5684TIP3    H238612   1.425   4.762   1.746
 5685TIP3   OH238613   6.819   5.825   6.649
 5685TIP3    H138614   6.870   5.779   6.582
 5685TIP3    H238615   6.844   5.917   6.640
 5686TIP3   OH238616   1.172   4.469   1.295
 5686TIP3    H138617   1.124   4.410   1.354
 5686TIP3    H238618   1.138   4.556   1.317
 5687TIP3   OH238619   0.210   6.289   6.505
 5687TIP3    H138620   0.116   6.273   6.516
 5687TIP3    H238621   0.220   6.312   6.413
 5688TIP3   OH238622   2.457   5.911   7.146
 5688TIP3    H138623   2.369   5.938   7.173
 5688TIP3    H238624   2.514   5.943   7.217
 5689TIP3   OH238625   2.837   0.169   7.696
 5689TIP3    H138626   2.805   0.119   7.771
 5689TIP3    H238627   2.914   0.215   7.729
 5690TIP3   OH238628   0.138   1.938   8.370
 5690TIP3    H138629   0.095   1.906   8.291
 5690TIP3    H238630   0.138   2.034   8.361
 5691TIP3   OH238631   1.629   6.454   6.392
 5691TIP3    H138632   1.553   6.412   6.352
 5691TIP3    H238633   1.690   6.466   6.320
 5692TIP3   OH238634   0.374   4.285   1.009
 5692TIP3    H138635   0.281   4.308   1.003
 5692TIP3    H238636   0.420   4.369   1.010
 5693TIP3   OH238637   2.656   0.512   1.112
 5693TIP3    H138638   2.644   0.450   1.040
 5693TIP3    H238639   2.745   0.544   1.102
 5694TIP3   OH238640   4.247   0.967   7.663
 5694TIP3    H138641   4.278   0.996   7.577
 5694TIP3    H238642   4.163   1.012   7.675
 5695TIP3   OH238643   1.112   2.220   6.958
 5695TIP3    H138644   1.086   2.287   6.895
 5695TIP3    H238645   1.072   2.140   6.926
 5696TIP3   OH238646   3.195   2.851   1.036
 5696TIP3    H138647   3.246   2.811   0.966
 5696TIP3    H238648   3.228   2.941   1.041
 5697TIP3   OH238649   4.153   0.738   0.819
 5697TIP3    H138650   4.165   0.693   0.735
 5697TIP3    H238651   4.221   0.806   0.820
 5698TIP3   OH238652   2.405   3.521   1.593
 5698TIP3    H138653   2.493   3.523   1.557
 5698TIP3    H238654   2.349   3.557   1.524
 5699TIP3   OH238655   1.786   3.913   1.489
 5699TIP3    H138656   1.759   4.004   1.496
 5699TIP3    H238657   1.787   3.881   1.579
 5700TIP3   OH238658   4.936   2.706   2.595
 5700TIP3    H138659   5.017   2.660   2.574
 5700TIP3    H238660   4.930   2.775   2.529
 5701TIP3   OH238661   4.496   3.142   1.632
 5701TIP3    H138662   4.572   3.192   1.664
 5701TIP3    H238663   4.424   3.169   1.688
 5702TIP3   OH238664   3.593   4.892   8.314
 5702TIP3    H138665   3.605   4.831   8.241
 5702TIP3    H238666   3.551   4.840   8.382
 5703TIP3   OH238667   0.896   2.426   7.046
 5703TIP3    H138668   0.971   2.376   7.079
 5703TIP3    H238669   0.910   2.431   6.951
 5704TIP3   OH238670   6.494   3.997   6.260
 5704TIP3    H138671   6.456   3.993   6.348
 5704TIP3    H238672   6.570   4.054   6.270
 5705TIP3   OH238673   5.793   3.473   7.588
 5705TIP3    H138674   5.737   3.542   7.623
 5705TIP3    H238675   5.796   3.489   7.494
 5706TIP3   OH238676   6.015   2.120   7.790
 5706TIP3    H138677   5.975   2.127   7.703
 5706TIP3    H238678   5.945   2.141   7.851
 5707TIP3   OH238679   1.130   5.575   1.661
 5707TIP3    H138680   1.213   5.583   1.614
 5707TIP3    H238681   1.154   5.550   1.750
 5708TIP3   OH238682   0.918   1.281   1.342
 5708TIP3    H138683   0.970   1.213   1.387
 5708TIP3    H238684   0.907   1.349   1.409
 5709TIP3   OH238685   1.887   6.104   1.577
 5709TIP3    H138686   1.939   6.030   1.610
 5709TIP3    H238687   1.835   6.132   1.653
 5710TIP3   OH238688   3.883   5.857   8.641
 5710TIP3    H138689   3.805   5.820   8.598
 5710TIP3    H238690   3.926   5.781   0.018
 5711TIP3   OH238691   1.153   6.186   1.070
 5711TIP3    H138692   1.149   6.267   1.122
 5711TIP3    H238693   1.062   6.167   1.048
 5712TIP3   OH238694   5.554   2.788   1.286
 5712TIP3    H138695   5.519   2.840   1.359
 5712TIP3    H238696   5.483   2.788   1.221
 5713TIP3   OH238697   4.298   1.027   6.643
 5713TIP3    H138698   4.260   1.082   6.575
 5713TIP3    H238699   4.335   1.088   6.706
 5714TIP3   OH238700   3.736   2.126   1.954
 5714TIP3    H138701   3.793   2.190   1.997
 5714TIP3    H238702   3.733   2.052   2.013
 5715TIP3   OH238703   6.241   6.074   0.818
 5715TIP3    H138704   6.198   6.095   0.735
 5715TIP3    H238705   6.281   5.988   0.803
 5716TIP3   OH238706   0.554   1.769   1.252
 5716TIP3    H138707   0.494   1.824   1.302
 5716TIP3    H238708   0.638   1.816   1.255
 5717TIP3   OH238709   2.919   4.344   0.314
 5717TIP3    H138710   2.826   4.369   0.311
 5717TIP3    H238711   2.962   4.408   0.257
 5718TIP3   OH238712   2.267   1.132   1.527
 5718TIP3    H138713   2.201   1.193   1.562
 5718TIP3    H238714   2.254   1.051   1.575
 5719TIP3   OH238715   0.546   2.020   2.135
 5719TIP3    H138716   0.540   1.937   2.088
 5719TIP3    H238717   0.640   2.035   2.145
 5720TIP3   OH238718   3.128   1.831   8.357
 5720TIP3    H138719   3.074   1.805   8.283
 5720TIP3    H238720   3.205   1.872   8.318
 5721TIP3   OH238721   5.560   4.359   0.505
 5721TIP3    H138722   5.491   4.303   0.469
 5721TIP3    H238723   5.528   4.382   0.592
 5722TIP3   OH238724   6.728   1.546   0.482
 5722TIP3    H138725   6.759   1.508   0.400
 5722TIP3    H238726   6.760   1.637   0.479
 5723TIP3   OH238727   3.655   2.686   8.244
 5723TIP3    H138728   3.635   2.641   8.326
 5723TIP3    H238729   3.748   2.671   8.230
 5724TIP3   OH238730   3.917   5.370   8.608
 5724TIP3    H138731   3.893   5.307   0.014
 5724TIP3    H238732   3.951   5.317   8.536
 5725TIP3   OH238733   0.277   2.930   7.500
 5725TIP3    H138734   0.306   2.950   7.411
 5725TIP3    H238735   0.326   2.852   7.525
 5726TIP3   OH238736   5.969   4.368   8.149
 5726TIP3    H138737   5.875   4.359   8.135
 5726TIP3    H238738   5.978   4.445   8.206
 5727TIP3   OH238739   4.589   0.445   6.107
 5727TIP3    H138740   4.676   0.412   6.082
 5727TIP3    H238741   4.549   0.372   6.154
 5728TIP3   OH238742   2.378   3.598   7.311
 5728TIP3    H138743   2.304   3.650   7.343
 5728TIP3    H238744   2.382   3.523   7.370
 5729TIP3   OH238745   4.575   6.286   6.910
 5729TIP3    H138746   4.574   6.371   6.865
 5729TIP3    H238747   4.483   6.267   6.928
 5730TIP3   OH238748   5.679   1.777   6.731
 5730TIP3    H138749   5.592   1.740   6.715
 5730TIP3    H238750   5.701   1.825   6.651
 5731TIP3   OH238751   5.231   2.345   6.619
 5731TIP3    H138752   5.220   2.252   6.638
 5731TIP3    H238753   5.287   2.378   6.689
 5732TIP3   OH238754   2.731   1.734   1.393
 5732TIP3    H138755   2.760   1.668   1.330
 5732TIP3    H238756   2.663   1.690   1.444
 5733TIP3   OH238757   4.882   5.011   7.308
 5733TIP3    H138758   4.852   5.045   7.392
 5733TIP3    H238759   4.804   4.971   7.269
 5734TIP3   OH238760   5.154   4.138   8.239
 5734TIP3    H138761   5.137   4.081   8.164
 5734TIP3    H238762   5.174   4.223   8.200
 5735TIP3   OH238763   0.846   5.012   0.835
 5735TIP3    H138764   0.852   4.921   0.807
 5735TIP3    H238765   0.798   5.055   0.764
 5736TIP3   OH238766   5.911   1.104   1.537
 5736TIP3    H138767   5.919   1.177   1.598
 5736TIP3    H238768   5.985   1.114   1.477
 5737TIP3   OH238769   1.409   0.261   0.681
 5737TIP3    H138770   1.470   0.326   0.716
 5737TIP3    H238771   1.372   0.219   0.758
 5738TIP3   OH238772   6.422   6.820   1.542
 5738TIP3    H138773   6.433   6.877   1.466
 5738TIP3    H238774   6.490   6.847   1.603
 5739TIP3   OH238775   3.145   4.722   8.474
 5739TIP3    H138776   3.124   4.778   8.550
 5739TIP3    H238777   3.087   4.647   8.484
 5740TIP3   OH238778   1.852   4.949   7.775
 5740TIP3    H138779   1.799   4.896   7.835
 5740TIP3    H238780   1.841   5.039   7.806
 5741TIP3   OH238781   2.678   0.009   7.464
 5741TIP3    H138782   2.634   0.043   7.542
 5741TIP3    H238783   2.754   6.848   7.497
 5742TIP3   OH238784   6.157   0.585   1.298
 5742TIP3    H138785   6.198   0.670   1.282
 5742TIP3    H238786   6.074   0.606   1.341
 5743TIP3   OH238787   4.439   0.178   2.012
 5743TIP3    H138788   4.527   0.197   2.042
 5743TIP3    H238789   4.385   0.184   2.091
 5744TIP3   OH238790   3.599   6.265   6.414
 5744TIP3    H138791   3.587   6.318   6.493
 5744TIP3    H238792   3.531   6.297   6.354
 5745TIP3   OH238793   4.898   6.828   7.980
 5745TIP3    H138794   4.821   6.826   8.037
 5745TIP3    H238795   4.871   6.779   7.902
 5746TIP3   OH238796   3.371   0.925   6.983
 5746TIP3    H138797   3.322   0.990   6.933
 5746TIP3    H238798   3.454   0.916   6.937
 5747TIP3   OH238799   6.290   6.261   8.532
 5747TIP3    H138800   6.282   6.262   8.436
 5747TIP3    H238801   6.277   6.352   8.558
 5748TIP3   OH238802   3.142   4.477   7.628
 5748TIP3    H138803   3.093   4.403   7.592
 5748TIP3    H238804   3.134   4.546   7.562
 5749TIP3   OH238805   0.135   5.154   8.161
 5749TIP3    H138806   0.085   5.234   8.178
 5749TIP3    H238807   0.207   5.182   8.105
 5750TIP3   OH238808   2.539   1.799   8.471
 5750TIP3    H138809   2.480   1.729   8.501
 5750TIP3    H238810   2.512   1.876   8.520
 5751TIP3   OH238811   1.034   1.347   7.293
 5751TIP3    H138812   1.008   1.347   7.201
 5751TIP3    H238813   1.126   1.374   7.291
 5752TIP3   OH238814   6.837   5.418   7.226
 5752TIP3    H138815   6.785   5.368   7.289
 5752TIP3    H238816   0.004   5.352   7.181
 5753TIP3   OH238817   1.350   4.921   6.704
 5753TIP3    H138818   1.334   4.977   6.628
 5753TIP3    H238819   1.367   4.834   6.667
 5754TIP3   OH238820   5.983   1.070   7.782
 5754TIP3    H138821   6.015   1.049   7.870
 5754TIP3    H238822   6.059   1.107   7.737
 5755TIP3   OH238823   2.423   0.225   8.034
 5755TIP3    H138824   2.446   0.133   8.043
 5755TIP3    H238825   2.354   0.239   8.099
 5756TIP3   OH238826   5.738   6.374   7.284
 5756TIP3    H138827   5.786   6.353   7.205
 5756TIP3    H238828   5.733   6.470   7.284
 5757TIP3   OH238829   5.128   3.813   0.760
 5757TIP3    H138830   5.050   3.835   0.811
 5757TIP3    H238831   5.202   3.834   0.817
 5758TIP3   OH238832   1.678   3.503   7.171
 5758TIP3    H138833   1.742   3.470   7.233
 5758TIP3    H238834   1.598   3.455   7.190
 5759TIP3   OH238835   1.925   0.383   1.799
 5759TIP3    H138836   1.920   0.301   1.749
 5759TIP3    H238837   2.000   0.429   1.762
 5760TIP3   OH238838   6.549   4.793   8.087
 5760TIP3    H138839   6.530   4.829   8.174
 5760TIP3    H238840   6.610   4.855   8.048
 5761TIP3   OH238841   6.310   3.471   6.922
 5761TIP3    H138842   6.314   3.566   6.932
 5761TIP3    H238843   6.400   3.441   6.940
 5762TIP3   OH238844   5.153   6.200   7.065
 5762TIP3    H138845   5.120   6.220   6.978
 5762TIP3    H238846   5.081   6.154   7.108
 5763TIP3   OH238847   6.861   5.474   0.992
 5763TIP3    H138848   0.020   5.474   1.076
 5763TIP3    H238849   6.787   5.533   1.004
 5764TIP3   OH238850   5.468   2.452   6.756
 5764TIP3    H138851   5.482   2.449   6.851
 5764TIP3    H238852   5.556   2.468   6.720
 5765TIP3   OH238853   5.507   5.590   1.472
 5765TIP3    H138854   5.437   5.611   1.411
 5765TIP3    H238855   5.546   5.510   1.437
 5766TIP3   OH238856   4.923   0.360   2.023
 5766TIP3    H138857   4.904   0.301   2.096
 5766TIP3    H238858   4.855   0.341   1.958
 5767TIP3   OH238859   5.386   4.791   6.761
 5767TIP3    H138860   5.356   4.874   6.724
 5767TIP3    H238861   5.307   4.738   6.771
 5768TIP3   OH238862   0.566   5.827   0.092
 5768TIP3    H138863   0.593   5.916   0.114
 5768TIP3    H238864   0.541   5.788   0.176
 5769TIP3   OH238865   3.824   6.207   2.233
 5769TIP3    H138866   3.887   6.266   2.275
 5769TIP3    H238867   3.760   6.265   2.193
 5770TIP3   OH238868   6.347   5.376   8.223
 5770TIP3    H138869   6.400   5.440   8.271
 5770TIP3    H238870   6.257   5.394   8.249
 5771TIP3   OH238871   4.105   1.596   0.387
 5771TIP3    H138872   4.116   1.630   0.475
 5771TIP3    H238873   4.011   1.588   0.376
 5772TIP3   OH238874   1.080   0.880   1.460
 5772TIP3    H138875   1.097   0.975   1.461
 5772TIP3    H238876   1.101   0.851   1.548
 5773TIP3   OH238877   4.172   5.205   7.321
 5773TIP3    H138878   4.249   5.239   7.276
 5773TIP3    H238879   4.208   5.154   7.394
 5774TIP3   OH238880   3.610   3.618   0.098
 5774TIP3    H138881   3.554   3.611   0.175
 5774TIP3    H238882   3.565   3.566   0.031
 5775TIP3   OH238883   2.238   3.635   7.646
 5775TIP3    H138884   2.278   3.563   7.695
 5775TIP3    H238885   2.155   3.651   7.690
 5776TIP3   OH238886   2.753   0.598   0.383
 5776TIP3    H138887   2.742   0.503   0.392
 5776TIP3    H238888   2.680   0.636   0.430
 5777TIP3   OH238889   0.315   3.750   7.576
 5777TIP3    H138890   0.235   3.700   7.556
 5777TIP3    H238891   0.297   3.838   7.542
 5778TIP3   OH238892   0.164   4.626   1.005
 5778TIP3    H138893   0.110   4.557   0.967
 5778TIP3    H238894   0.184   4.684   0.931
 5779TIP3   OH238895   2.939   0.538   7.516
 5779TIP3    H138896   2.957   0.532   7.422
 5779TIP3    H238897   2.871   0.473   7.531
 5780TIP3   OH238898   2.571   1.340   7.083
 5780TIP3    H138899   2.519   1.263   7.108
 5780TIP3    H238900   2.632   1.352   7.155
 5781TIP3   OH238901   5.365   1.650   1.734
 5781TIP3    H138902   5.363   1.734   1.779
 5781TIP3    H238903   5.458   1.631   1.722
 5782TIP3   OH238904   3.370   6.601   1.277
 5782TIP3    H138905   3.453   6.597   1.325
 5782TIP3    H238906   3.394   6.634   1.191
 5783TIP3   OH238907   3.769   4.638   1.034
 5783TIP3    H138908   3.731   4.553   1.014
 5783TIP3    H238909   3.853   4.638   0.989
 5784TIP3   OH238910   4.984   0.645   1.655
 5784TIP3    H138911   4.960   0.559   1.619
 5784TIP3    H238912   4.991   0.631   1.749
 5785TIP3   OH238913   3.398   2.027   6.953
 5785TIP3    H138914   3.329   1.969   6.923
 5785TIP3    H238915   3.433   2.066   6.873
 5786TIP3   OH238916   0.671   1.494   1.445
 5786TIP3    H138917   0.636   1.414   1.483
 5786TIP3    H238918   0.615   1.510   1.368
 5787TIP3   OH238919   4.456   3.966   0.599
 5787TIP3    H138920   4.477   3.968   0.692
 5787TIP3    H238921   4.361   3.966   0.596
 5788TIP3   OH238922   3.596   5.217   0.347
 5788TIP3    H138923   3.544   5.241   0.270
 5788TIP3    H238924   3.580   5.288   0.410
 5789TIP3   OH238925   1.309   2.820   1.071
 5789TIP3    H138926   1.218   2.841   1.092
 5789TIP3    H238927   1.305   2.729   1.039
 5790TIP3   OH238928   5.501   5.658   6.223
 5790TIP3    H138929   5.521   5.635   6.314
 5790TIP3    H238930   5.423   5.606   6.202
 5791TIP3   OH238931   4.180   4.799   7.692
 5791TIP3    H138932   4.108   4.819   7.752
 5791TIP3    H238933   4.221   4.884   7.675
 5792TIP3   OH238934   5.461   3.306   6.426
 5792TIP3    H138935   5.510   3.380   6.390
 5792TIP3    H238936   5.478   3.234   6.364
 5793TIP3   OH238937   3.591   1.071   1.469
 5793TIP3    H138938   3.532   1.108   1.403
 5793TIP3    H238939   3.536   1.010   1.519
 5794TIP3   OH238940   3.910   2.098   2.393
 5794TIP3    H138941   3.959   2.068   2.469
 5794TIP3    H238942   3.964   2.168   2.356
 5795TIP3   OH238943   2.667   5.058   7.094
 5795TIP3    H138944   2.704   5.123   7.034
 5795TIP3    H238945   2.676   5.097   7.181
 5796TIP3   OH238946   2.000   2.659   1.409
 5796TIP3    H138947   2.076   2.697   1.454
 5796TIP3    H238948   1.979   2.580   1.460
 5797TIP3   OH238949   2.946   1.551   7.726
 5797TIP3    H138950   2.883   1.572   7.795
 5797TIP3    H238951   2.991   1.473   7.758
 5798TIP3   OH238952   5.791   0.630   8.493
 5798TIP3    H138953   5.760   0.674   8.414
 5798TIP3    H238954   5.820   0.544   8.462
 5799TIP3   OH238955   0.477   1.180   0.863
 5799TIP3    H138956   0.432   1.252   0.820
 5799TIP3    H238957   0.412   1.141   0.921
 5800TIP3   OH238958   1.442   5.079   0.012
 5800TIP3    H138959   1.446   5.171   0.040
 5800TIP3    H238960   1.449   5.083   8.578
 5801TIP3   OH238961   6.707   0.958   7.955
 5801TIP3    H138962   6.783   0.998   7.997
 5801TIP3    H238963   6.721   0.864   7.962
 5802TIP3   OH238964   1.915   1.482   7.008
 5802TIP3    H138965   1.824   1.509   6.999
 5802TIP3    H238966   1.910   1.393   7.043
 5803TIP3   OH238967   5.156   4.933   0.066
 5803TIP3    H138968   5.221   4.881   0.019
 5803TIP3    H238969   5.198   5.018   0.078
 5804TIP3   OH238970   0.228   5.345   1.250
 5804TIP3    H138971   0.278   5.374   1.174
 5804TIP3    H238972   0.166   5.416   1.267
 5805TIP3   OH238973   3.345   2.995   0.665
 5805TIP3    H138974   3.400   3.053   0.719
 5805TIP3    H238975   3.407   2.951   0.606
 5806TIP3   OH238976   0.988   2.442   0.634
 5806TIP3    H138977   0.906   2.487   0.612
 5806TIP3    H238978   0.985   2.360   0.585
 5807TIP3   OH238979   3.902   1.044   2.359
 5807TIP3    H138980   3.879   1.127   2.401
 5807TIP3    H238981   3.836   1.032   2.290
 5808TIP3   OH238982   3.376   0.377   7.123
 5808TIP3    H138983   3.413   0.386   7.211
 5808TIP3    H238984   3.447   0.405   7.065
 5809TIP3   OH238985   0.832   3.829   1.389
 5809TIP3    H138986   0.891   3.903   1.402
 5809TIP3    H238987   0.744   3.866   1.402
 5810TIP3   OH238988   1.341   5.484   8.306
 5810TIP3    H138989   1.342   5.467   8.212
 5810TIP3    H238990   1.249   5.493   8.328
 5811TIP3   OH238991   2.101   6.773   0.664
 5811TIP3    H138992   2.072   6.685   0.690
 5811TIP3    H238993   2.075   6.780   0.572
 5812TIP3   OH238994   3.875   0.003   0.415
 5812TIP3    H138995   3.782   0.025   0.418
 5812TIP3    H238996   3.909   0.048   0.338
 5813TIP3   OH238997   5.093   1.463   7.229
 5813TIP3    H138998   5.153   1.502   7.164
 5813TIP3    H238999   5.091   1.370   7.206
 5814TIP3   OH239000   6.148   6.775   0.830
 5814TIP3    H139001   6.080   6.772   0.763
 5814TIP3    H239002   6.185   6.863   0.823
 5815TIP3   OH239003   3.593   5.438   7.768
 5815TIP3    H139004   3.515   5.494   7.763
 5815TIP3    H239005   3.558   5.351   7.786
 5816TIP3   OH239006   2.109   6.326   1.966
 5816TIP3    H139007   2.086   6.237   1.993
 5816TIP3    H239008   2.201   6.336   1.990
 5817TIP3   OH239009   0.214   4.929   1.541
 5817TIP3    H139010   0.250   5.016   1.558
 5817TIP3    H239011   0.168   4.938   1.457
 5818TIP3   OH239012   4.453   3.593   7.073
 5818TIP3    H139013   4.371   3.556   7.040
 5818TIP3    H239014   4.514   3.586   7.000
 5819TIP3   OH239015   6.822   3.770   0.428
 5819TIP3    H139016   0.026   3.744   0.407
 5819TIP3    H239017   6.810   3.745   0.519
 5820TIP3   OH239018   4.255   2.422   0.635
 5820TIP3    H139019   4.268   2.515   0.618
 5820TIP3    H239020   4.186   2.397   0.573
 5821TIP3   OH239021   4.872   3.222   0.183
 5821TIP3    H139022   4.876   3.293   0.247
 5821TIP3    H239023   4.892   3.143   0.232
 5822TIP3   OH239024   1.728   0.449   1.247
 5822TIP3    H139025   1.766   0.535   1.230
 5822TIP3    H239026   1.776   0.417   1.323
 5823TIP3   OH239027   1.752   3.248   7.836
 5823TIP3    H139028   1.790   3.281   7.755
 5823TIP3    H239029   1.717   3.162   7.812
 5824TIP3   OH239030   2.406   6.385   7.334
 5824TIP3    H139031   2.459   6.464   7.337
 5824TIP3    H239032   2.454   6.326   7.277
 5825TIP3   OH239033   2.544   0.964   7.432
 5825TIP3    H139034   2.480   0.934   7.369
 5825TIP3    H239035   2.623   0.913   7.413
 5826TIP3   OH239036   1.078   3.099   0.079
 5826TIP3    H139037   1.149   3.102   0.016
 5826TIP3    H239038   0.998   3.104   0.025
 5827TIP3   OH239039   5.411   5.815   7.860
 5827TIP3    H139040   5.501   5.848   7.856
 5827TIP3    H239041   5.361   5.874   7.802
 5828TIP3   OH239042   2.140   6.529   1.479
 5828TIP3    H139043   2.184   6.611   1.456
 5828TIP3    H239044   2.047   6.550   1.478
 5829TIP3   OH239045   6.252   4.440   1.814
 5829TIP3    H139046   6.253   4.354   1.856
 5829TIP3    H239047   6.296   4.426   1.730
 5830TIP3   OH239048   4.284   3.247   1.817
 5830TIP3    H139049   4.210   3.187   1.818
 5830TIP3    H239050   4.254   3.323   1.866
 5831TIP3   OH239051   5.630   1.019   0.033
 5831TIP3    H139052   5.637   1.005   8.601
 5831TIP3    H239053   5.558   0.962   0.061
 5832TIP3   OH239054   0.661   5.645   0.665
 5832TIP3    H139055   0.623   5.558   0.670
 5832TIP3    H239056   0.588   5.702   0.642
 5833TIP3   OH239057   5.664   0.827   1.093
 5833TIP3    H139058   5.750   0.788   1.075
 5833TIP3    H239059   5.683   0.920   1.103
 5834TIP3   OH239060   0.326   1.326   1.403
 5834TIP3    H139061   0.404   1.280   1.372
 5834TIP3    H239062   0.286   1.361   1.323
 5835TIP3   OH239063   0.344   2.395   1.244
 5835TIP3    H139064   0.392   2.312   1.241
 5835TIP3    H239065   0.296   2.392   1.327
 5836TIP3   OH239066   4.048   5.450   1.719
 5836TIP3    H139067   4.123   5.391   1.723
 5836TIP3    H239068   3.971   5.393   1.719
 5837TIP3   OH239069   5.656   2.867   0.511
 5837TIP3    H139070   5.597   2.933   0.548
 5837TIP3    H239071   5.600   2.816   0.453
 5838TIP3   OH239072   4.870   5.783   6.222
 5838TIP3    H139073   4.835   5.802   6.135
 5838TIP3    H239074   4.806   5.722   6.260
 5839TIP3   OH239075   6.328   5.851   6.767
 5839TIP3    H139076   6.419   5.847   6.795
 5839TIP3    H239077   6.326   5.807   6.682
 5840TIP3   OH239078   5.370   0.417   1.075
 5840TIP3    H139079   5.439   0.358   1.106
 5840TIP3    H239080   5.400   0.505   1.100
 5841TIP3   OH239081   5.051   5.151   7.122
 5841TIP3    H139082   4.995   5.114   7.191
 5841TIP3    H239083   5.076   5.237   7.155
 5842TIP3   OH239084   5.235   0.587   0.884
 5842TIP3    H139085   5.291   0.528   0.935
 5842TIP3    H239086   5.255   0.674   0.917
 5843TIP3   OH239087   0.102   6.676   8.354
 5843TIP3    H139088   0.138   6.740   8.415
 5843TIP3    H239089   0.008   6.695   8.351
 5844TIP3   OH239090   6.083   0.719   0.577
 5844TIP3    H139091   6.126   0.804   0.581
 5844TIP3    H239092   6.105   0.685   0.491
 5845TIP3   OH239093   4.348   1.638   1.682
 5845TIP3    H139094   4.392   1.562   1.643
 5845TIP3    H239095   4.260   1.637   1.645
 5846TIP3   OH239096   6.020   6.385   6.401
 5846TIP3    H139097   6.107   6.348   6.414
 5846TIP3    H239098   6.036   6.471   6.361
 5847TIP3   OH239099   3.430   4.272   7.961
 5847TIP3    H139100   3.431   4.210   7.888
 5847TIP3    H239101   3.407   4.356   7.922
 5848TIP3   OH239102   1.267   6.306   7.270
 5848TIP3    H139103   1.210   6.237   7.302
 5848TIP3    H239104   1.252   6.379   7.330
 5849TIP3   OH239105   1.166   0.397   6.832
 5849TIP3    H139106   1.255   0.427   6.846
 5849TIP3    H239107   1.139   0.438   6.749
 5850TIP3   OH239108   2.503   2.230   7.201
 5850TIP3    H139109   2.523   2.239   7.108
 5850TIP3    H239110   2.549   2.150   7.228
 5851TIP3   OH239111   0.527   1.870   8.077
 5851TIP3    H139112   0.521   1.891   7.984
 5851TIP3    H239113   0.506   1.952   8.122
 5852TIP3   OH239114   1.685   3.943   7.739
 5852TIP3    H139115   1.639   3.956   7.656
 5852TIP3    H239116   1.639   3.869   7.780
 5853TIP3   OH239117   3.491   2.714   7.266
 5853TIP3    H139118   3.543   2.699   7.187
 5853TIP3    H239119   3.532   2.790   7.308
 5854TIP3   OH239120   6.381   4.860   7.511
 5854TIP3    H139121   6.475   4.859   7.492
 5854TIP3    H239122   6.373   4.919   7.586
 5855TIP3   OH239123   4.437   6.875   1.192
 5855TIP3    H139124   4.446   0.063   1.252
 5855TIP3    H239125   4.396   6.807   1.245
 5856TIP3   OH239126   1.717   1.826   7.544
 5856TIP3    H139127   1.768   1.786   7.615
 5856TIP3    H239128   1.700   1.915   7.575
 5857TIP3   OH239129   1.830   5.743   0.538
 5857TIP3    H139130   1.885   5.685   0.485
 5857TIP3    H239131   1.835   5.707   0.626
 5858TIP3   OH239132   2.964   5.038   7.276
 5858TIP3    H139133   2.994   5.124   7.246
 5858TIP3    H239134   2.869   5.048   7.286
 5859TIP3   OH239135   5.565   3.647   1.169
 5859TIP3    H139136   5.483   3.670   1.212
 5859TIP3    H239137   5.622   3.722   1.184
 5860TIP3   OH239138   0.125   5.747   1.452
 5860TIP3    H139139   0.050   5.706   1.495
 5860TIP3    H239140   0.168   5.798   1.521
 5861TIP3   OH239141   6.481   4.675   2.480
 5861TIP3    H139142   6.398   4.637   2.510
 5861TIP3    H239143   6.490   4.755   2.531
 5862TIP3   OH239144   2.716   5.691   1.039
 5862TIP3    H139145   2.662   5.761   1.001
 5862TIP3    H239146   2.734   5.721   1.128
 5863TIP3   OH239147   2.959   4.487   8.406
 5863TIP3    H139148   2.988   4.396   8.410
 5863TIP3    H239149   2.973   4.514   8.316
 5864TIP3   OH239150   6.623   3.536   7.297
 5864TIP3    H139151   6.647   3.603   7.232
 5864TIP3    H239152   6.667   3.565   7.377
 5865TIP3   OH239153   3.925   2.111   7.867
 5865TIP3    H139154   3.863   2.149   7.805
 5865TIP3    H239155   3.995   2.175   7.874
 5866TIP3   OH239156   6.578   2.472   7.753
 5866TIP3    H139157   6.483   2.479   7.745
 5866TIP3    H239158   6.612   2.499   7.667
 5867TIP3   OH239159   5.442   6.198   0.887
 5867TIP3    H139160   5.368   6.258   0.887
 5867TIP3    H239161   5.491   6.220   0.808
 5868TIP3   OH239162   3.372   4.403   0.726
 5868TIP3    H139163   3.332   4.317   0.739
 5868TIP3    H239164   3.465   4.384   0.712
 5869TIP3   OH239165   3.075   6.489   6.709
 5869TIP3    H139166   2.996   6.521   6.666
 5869TIP3    H239167   3.092   6.404   6.668
 5870TIP3   OH239168   2.404   5.523   0.100
 5870TIP3    H139169   2.446   5.587   0.042
 5870TIP3    H239170   2.458   5.523   0.179
 5871TIP3   OH239171   5.733   6.817   8.372
 5871TIP3    H139172   5.687   6.885   8.322
 5871TIP3    H239173   5.730   6.740   8.315
 5872TIP3   OH239174   5.620   2.989   2.316
 5872TIP3    H139175   5.551   2.936   2.275
 5872TIP3    H239176   5.575   3.035   2.387
 5873TIP3   OH239177   2.076   2.939   7.814
 5873TIP3    H139178   2.012   2.976   7.875
 5873TIP3    H239179   2.089   3.007   7.748
 5874TIP3   OH239180   6.086   6.036   7.675
 5874TIP3    H139181   6.019   5.993   7.621
 5874TIP3    H239182   6.150   6.070   7.611
 5875TIP3   OH239183   3.390   4.733   6.605
 5875TIP3    H139184   3.314   4.677   6.619
 5875TIP3    H239185   3.367   4.786   6.528
 5876TIP3   OH239186   1.752   4.475   8.328
 5876TIP3    H139187   1.779   4.559   8.292
 5876TIP3    H239188   1.748   4.417   8.252
 5877TIP3   OH239189   6.212   5.855   0.565
 5877TIP3    H139190   6.292   5.822   0.605
 5877TIP3    H239191   6.149   5.859   0.636
 5878TIP3   OH239192   2.823   2.470   1.702
 5878TIP3    H139193   2.905   2.473   1.653
 5878TIP3    H239194   2.846   2.429   1.785
 5879TIP3   OH239195   6.675   5.990   7.777
 5879TIP3    H139196   6.686   6.030   7.691
 5879TIP3    H239197   6.637   5.904   7.759
 5880TIP3   OH239198   6.656   1.506   7.508
 5880TIP3    H139199   6.709   1.584   7.488
 5880TIP3    H239200   6.636   1.469   7.422
 5881TIP3   OH239201   4.297   0.716   7.833
 5881TIP3    H139202   4.311   0.787   7.771
 5881TIP3    H239203   4.247   0.756   7.905
 5882TIP3   OH239204   2.807   5.951   1.724
 5882TIP3    H139205   2.844   5.864   1.735
 5882TIP3    H239206   2.724   5.937   1.678
 5883TIP3   OH239207   6.811   5.050   2.219
 5883TIP3    H139208   6.869   4.997   2.274
 5883TIP3    H239209   6.735   5.068   2.275
 5884TIP3   OH239210   1.675   1.195   0.514
 5884TIP3    H139211   1.751   1.136   0.512
 5884TIP3    H239212   1.636   1.187   0.427
 5885TIP3   OH239213   6.251   0.629   7.012
 5885TIP3    H139214   6.307   0.569   6.963
 5885TIP3    H239215   6.259   0.600   7.103
 5886TIP3   OH239216   6.462   3.662   1.491
 5886TIP3    H139217   6.411   3.743   1.484
 5886TIP3    H239218   6.545   3.689   1.531
 5887TIP3   OH239219   2.628   1.612   1.102
 5887TIP3    H139220   2.692   1.564   1.154
 5887TIP3    H239221   2.548   1.611   1.154
 5888TIP3   OH239222   2.336   4.854   1.994
 5888TIP3    H139223   2.247   4.848   1.960
 5888TIP3    H239224   2.330   4.820   2.083
 5889TIP3   OH239225   1.360   1.122   1.506
 5889TIP3    H139226   1.362   1.106   1.412
 5889TIP3    H239227   1.449   1.100   1.536
 5890TIP3   OH239228   3.029   1.193   8.487
 5890TIP3    H139229   2.956   1.196   8.549
 5890TIP3    H239230   3.100   1.240   8.530
 5891TIP3   OH239231   3.095   4.693   7.437
 5891TIP3    H139232   3.013   4.726   7.472
 5891TIP3    H239233   3.162   4.750   7.475
 5892TIP3   OH239234   0.520   2.662   0.727
 5892TIP3    H139235   0.534   2.692   0.816
 5892TIP3    H239236   0.608   2.643   0.694
 5893TIP3   OH239237   3.406   1.107   2.034
 5893TIP3    H139238   3.387   1.068   1.949
 5893TIP3    H239239   3.329   1.088   2.087
 5894TIP3   OH239240   1.683   1.509   1.112
 5894TIP3    H139241   1.590   1.487   1.112
 5894TIP3    H239242   1.720   1.452   1.044
 5895TIP3   OH239243   1.939   2.285   0.919
 5895TIP3    H139244   1.897   2.216   0.970
 5895TIP3    H239245   2.007   2.320   0.976
 5896TIP3   OH239246   1.875   5.958   8.661
 5896TIP3    H139247   1.801   5.979   8.604
 5896TIP3    H239248   1.864   5.865   0.019
 5897TIP3   OH239249   4.906   2.890   7.712
 5897TIP3    H139250   4.823   2.902   7.666
 5897TIP3    H239251   4.955   2.969   7.692
 5898TIP3   OH239252   1.144   0.267   7.531
 5898TIP3    H139253   1.054   0.295   7.548
 5898TIP3    H239254   1.178   0.333   7.471
 5899TIP3   OH239255   6.270   4.617   7.293
 5899TIP3    H139256   6.180   4.605   7.260
 5899TIP3    H239257   6.259   4.661   7.377
 5900TIP3   OH239258   3.792   0.692   6.879
 5900TIP3    H139259   3.832   0.762   6.827
 5900TIP3    H239260   3.756   0.632   6.814
 5901TIP3   OH239261   6.666   0.696   6.577
 5901TIP3    H139262   6.604   0.761   6.544
 5901TIP3    H239263   6.669   0.629   6.508
 5902TIP3   OH239264   2.885   5.249   7.499
 5902TIP3    H139265   2.930   5.253   7.583
 5902TIP3    H239266   2.909   5.331   7.455
 5903TIP3   OH239267   5.148   1.188   1.757
 5903TIP3    H139268   5.113   1.170   1.844
 5903TIP3    H239269   5.103   1.126   1.700
 5904TIP3   OH239270   5.652   2.107   7.818
 5904TIP3    H139271   5.639   2.136   7.728
 5904TIP3    H239272   5.658   2.012   7.812
 5905TIP3   OH239273   1.330   4.410   8.354
 5905TIP3    H139274   1.255   4.435   8.300
 5905TIP3    H239275   1.313   4.451   8.439
 5906TIP3   OH239276   3.447   3.964   7.361
 5906TIP3    H139277   3.504   3.913   7.417
 5906TIP3    H239278   3.402   4.024   7.422
 5907TIP3   OH239279   0.757   0.319   0.347
 5907TIP3    H139280   0.822   0.291   0.412
 5907TIP3    H239281   0.807   0.335   0.267
 5908TIP3   OH239282   6.571   1.540   0.827
 5908TIP3    H139283   6.559   1.506   0.738
 5908TIP3    H239284   6.487   1.579   0.850
 5909TIP3   OH239285   1.416   1.437   2.546
 5909TIP3    H139286   1.503   1.458   2.581
 5909TIP3    H239287   1.360   1.430   2.623
 5910TIP3   OH239288   1.511   4.395   0.255
 5910TIP3    H139289   1.578   4.399   0.186
 5910TIP3    H239290   1.443   4.455   0.225
 5911TIP3   OH239291   2.732   6.476   7.032
 5911TIP3    H139292   2.644   6.478   6.995
 5911TIP3    H239293   2.766   6.390   7.009
 5912TIP3   OH239294   5.695   5.280   2.136
 5912TIP3    H139295   5.741   5.302   2.217
 5912TIP3    H239296   5.627   5.218   2.163
 5913TIP3   OH239297   2.653   6.342   7.634
 5913TIP3    H139298   2.713   6.381   7.571
 5913TIP3    H239299   2.574   6.396   7.629
 5914TIP3   OH239300   1.986   5.933   0.689
 5914TIP3    H139301   1.926   5.974   0.752
 5914TIP3    H239302   1.930   5.880   0.633
 5915TIP3   OH239303   4.130   6.125   2.298
 5915TIP3    H139304   4.057   6.183   2.277
 5915TIP3    H239305   4.170   6.165   2.376
 5916TIP3   OH239306   5.389   4.318   7.519
 5916TIP3    H139307   5.445   4.259   7.467
 5916TIP3    H239308   5.345   4.260   7.582
 5917TIP3   OH239309   4.405   0.782   1.513
 5917TIP3    H139310   4.489   0.747   1.544
 5917TIP3    H239311   4.416   0.790   1.418
 5918TIP3   OH239312   1.856   4.187   1.176
 5918TIP3    H139313   1.775   4.135   1.173
 5918TIP3    H239314   1.843   4.255   1.111
 5919TIP3   OH239315   1.859   6.361   2.155
 5919TIP3    H139316   1.915   6.358   2.232
 5919TIP3    H239317   1.906   6.417   2.093
 5920TIP3   OH239318   0.694   2.632   0.938
 5920TIP3    H139319   0.693   2.720   0.977
 5920TIP3    H239320   0.787   2.613   0.926
 5921TIP3   OH239321   5.479   2.934   7.219
 5921TIP3    H139322   5.445   2.864   7.163
 5921TIP3    H239323   5.571   2.942   7.194
 5922TIP3   OH239324   6.857   3.497   7.824
 5922TIP3    H139325   0.038   3.525   7.761
 5922TIP3    H239326   6.886   3.410   7.852
 5923TIP3   OH239327   6.702   5.260   7.415
 5923TIP3    H139328   6.632   5.238   7.477
 5923TIP3    H239329   6.782   5.235   7.461
 5924TIP3   OH239330   2.618   3.767   7.279
 5924TIP3    H139331   2.571   3.684   7.274
 5924TIP3    H239332   2.627   3.785   7.372
 5925TIP3   OH239333   6.650   0.315   8.463
 5925TIP3    H139334   6.610   0.373   8.398
 5925TIP3    H239335   6.650   0.366   8.544
 5926TIP3   OH239336   0.693   6.503   1.715
 5926TIP3    H139337   0.668   6.515   1.623
 5926TIP3    H239338   0.723   6.412   1.720
 5927TIP3   OH239339   2.064   6.474   0.627
 5927TIP3    H139340   1.976   6.439   0.643
 5927TIP3    H239341   2.116   6.399   0.599
 5928TIP3   OH239342   1.303   5.098   7.463
 5928TIP3    H139343   1.252   5.018   7.479
 5928TIP3    H239344   1.260   5.165   7.516
 5929TIP3   OH239345   4.385   3.430   1.022
 5929TIP3    H139346   4.316   3.438   1.088
 5929TIP3    H239347   4.341   3.396   0.945
 5930TIP3   OH239348   6.598   3.952   1.315
 5930TIP3    H139349   6.632   4.041   1.312
 5930TIP3    H239350   6.568   3.940   1.405
 5931TIP3   OH239351   3.637   3.441   5.919
 5931TIP3    H139352   3.664   3.512   5.861
 5931TIP3    H239353   3.718   3.409   5.958
 5932TIP3   OH239354   0.469   1.852   7.774
 5932TIP3    H139355   0.385   1.812   7.798
 5932TIP3    H239356   0.445   1.937   7.737
 5933TIP3   OH239357   3.942   5.597   2.017
 5933TIP3    H139358   3.875   5.596   1.949
 5933TIP3    H239359   3.899   5.636   2.093
 5934TIP3   OH239360   1.369   5.524   7.982
 5934TIP3    H139361   1.433   5.557   7.918
 5934TIP3    H239362   1.295   5.585   7.976
 5935TIP3   OH239363   5.877   5.923   7.140
 5935TIP3    H139364   5.951   5.864   7.150
 5935TIP3    H239365   5.845   5.909   7.051
 5936TIP3   OH239366   1.190   3.588   0.737
 5936TIP3    H139367   1.222   3.554   0.653
 5936TIP3    H239368   1.170   3.510   0.789
 5937TIP3   OH239369   0.206   2.403   1.483
 5937TIP3    H139370   0.261   2.479   1.504
 5937TIP3    H239371   0.140   2.402   1.552
 5938TIP3   OH239372   4.004   3.690   7.703
 5938TIP3    H139373   3.979   3.635   7.777
 5938TIP3    H239374   3.956   3.771   7.717
 5939TIP3   OH239375   5.577   3.819   1.872
 5939TIP3    H139376   5.541   3.903   1.903
 5939TIP3    H239377   5.503   3.758   1.878
 5940TIP3   OH239378   3.426   2.308   7.345
 5940TIP3    H139379   3.429   2.314   7.250
 5940TIP3    H239380   3.388   2.222   7.363
 5941TIP3   OH239381   1.832   3.692   6.602
 5941TIP3    H139382   1.737   3.705   6.610
 5941TIP3    H239383   1.868   3.780   6.593
 5942TIP3   OH239384   5.840   0.817   0.252
 5942TIP3    H139385   5.820   0.760   0.326
 5942TIP3    H239386   5.832   0.906   0.288
 5943TIP3   OH239387   5.351   2.316   2.247
 5943TIP3    H139388   5.318   2.243   2.299
 5943TIP3    H239389   5.311   2.393   2.287
 5944TIP3   OH239390   3.784   3.257   0.013
 5944TIP3    H139391   3.813   3.187   0.072
 5944TIP3    H239392   3.753   3.326   0.071
 5945TIP3   OH239393   5.532   2.333   8.132
 5945TIP3    H139394   5.489   2.249   8.148
 5945TIP3    H239395   5.608   2.332   8.191
 5946TIP3   OH239396   4.743   5.294   7.265
 5946TIP3    H139397   4.744   5.381   7.226
 5946TIP3    H239398   4.755   5.235   7.190
 5947TIP3   OH239399   4.638   3.785   6.682
 5947TIP3    H139400   4.678   3.827   6.758
 5947TIP3    H239401   4.566   3.733   6.718
 5948TIP3   OH239402   2.002   0.517   0.430
 5948TIP3    H139403   1.986   0.505   0.337
 5948TIP3    H239404   1.982   0.432   0.469
 5949TIP3   OH239405   6.871   4.790   0.458
 5949TIP3    H139406   0.004   4.748   0.374
 5949TIP3    H239407   0.043   4.748   0.520
 5950TIP3   OH239408   3.759   3.949   0.108
 5950TIP3    H139409   3.801   4.033   0.091
 5950TIP3    H239410   3.750   3.908   0.022
 5951TIP3   OH239411   1.311   1.804   8.579
 5951TIP3    H139412   1.277   1.714   8.573
 5951TIP3    H239413   1.234   1.859   8.566
 5952TIP3   OH239414   1.648   2.874   6.525
 5952TIP3    H139415   1.605   2.928   6.459
 5952TIP3    H239416   1.729   2.920   6.545
 5953TIP3   OH239417   3.413   2.773   1.686
 5953TIP3    H139418   3.459   2.689   1.698
 5953TIP3    H239419   3.324   2.755   1.716
 5954TIP3   OH239420   6.536   5.745   7.730
 5954TIP3    H139421   6.463   5.712   7.678
 5954TIP3    H239422   6.505   5.743   7.821
 5955TIP3   OH239423   4.949   5.649   1.405
 5955TIP3    H139424   4.991   5.727   1.369
 5955TIP3    H239425   4.990   5.637   1.490
 5956TIP3   OH239426   0.926   5.710   0.675
 5956TIP3    H139427   0.840   5.677   0.651
 5956TIP3    H239428   0.977   5.632   0.698
 5957TIP3   OH239429   0.391   2.898   0.625
 5957TIP3    H139430   0.438   2.817   0.646
 5957TIP3    H239431   0.346   2.878   0.543
 5958TIP3   OH239432   3.477   1.012   6.180
 5958TIP3    H139433   3.476   1.038   6.272
 5958TIP3    H239434   3.506   0.920   6.182
 5959TIP3   OH239435   4.457   5.321   7.714
 5959TIP3    H139436   4.478   5.412   7.734
 5959TIP3    H239437   4.377   5.304   7.763
 5960TIP3   OH239438   1.660   6.370   7.334
 5960TIP3    H139439   1.583   6.426   7.321
 5960TIP3    H239440   1.732   6.431   7.349
 5961TIP3   OH239441   1.270   0.592   0.990
 5961TIP3    H139442   1.298   0.679   1.019
 5961TIP3    H239443   1.344   0.535   1.009
 5962TIP3   OH239444   1.790   6.884   1.935
 5962TIP3    H139445   1.846   6.814   1.903
 5962TIP3    H239446   1.729   6.840   1.995
 5963TIP3   OH239447   6.356   0.579   1.611
 5963TIP3    H139448   6.344   0.660   1.561
 5963TIP3    H239449   6.378   0.514   1.545
 5964TIP3   OH239450   3.746   1.287   8.414
 5964TIP3    H139451   3.763   1.197   8.441
 5964TIP3    H239452   3.674   1.280   8.351
 5965TIP3   OH239453   5.877   5.227   1.923
 5965TIP3    H139454   5.823   5.241   2.001
 5965TIP3    H239455   5.922   5.144   1.940
 5966TIP3   OH239456   5.111   6.253   0.680
 5966TIP3    H139457   5.044   6.235   0.614
 5966TIP3    H239458   5.138   6.344   0.663
 5967TIP3   OH239459   5.623   0.311   0.867
 5967TIP3    H139460   5.698   0.298   0.809
 5967TIP3    H239461   5.657   0.365   0.939
 5968TIP3   OH239462   2.313   2.637   7.407
 5968TIP3    H139463   2.360   2.598   7.333
 5968TIP3    H239464   2.308   2.730   7.385
 5969TIP3   OH239465   3.385   5.203   0.158
 5969TIP3    H139466   3.376   5.154   0.240
 5969TIP3    H239467   3.313   5.266   0.160
 5970TIP3   OH239468   1.386   4.733   2.175
 5970TIP3    H139469   1.378   4.828   2.164
 5970TIP3    H239470   1.469   4.710   2.134
 5971TIP3   OH239471   2.598   3.513   6.942
 5971TIP3    H139472   2.539   3.495   6.868
 5971TIP3    H239473   2.619   3.606   6.934
 5972TIP3   OH239474   0.553   2.391   0.852
 5972TIP3    H139475   0.621   2.457   0.867
 5972TIP3    H239476   0.475   2.425   0.894
 5973TIP3   OH239477   0.072   1.238   0.369
 5973TIP3    H139478   0.051   1.148   0.343
 5973TIP3    H239479   6.881   1.288   0.345
 5974TIP3   OH239480   0.127   0.910   8.100
 5974TIP3    H139481   0.169   0.826   8.081
 5974TIP3    H239482   0.113   0.950   8.015
 5975TIP3   OH239483   6.513   4.321   1.457
 5975TIP3    H139484   6.445   4.267   1.496
 5975TIP3    H239485   6.481   4.411   1.467
 5976TIP3   OH239486   3.020   5.509   0.789
 5976TIP3    H139487   2.935   5.550   0.806
 5976TIP3    H239488   3.023   5.496   0.695
 5977TIP3   OH239489   6.460   5.105   0.082
 5977TIP3    H139490   6.417   5.083   8.661
 5977TIP3    H239491   6.552   5.117   0.058
 5978TIP3   OH239492   6.687   6.537   8.416
 5978TIP3    H139493   6.753   6.500   8.476
 5978TIP3    H239494   6.679   6.628   8.444
 5979TIP3   OH239495   2.413   1.594   8.588
 5979TIP3    H139496   2.475   1.526   8.614
 5979TIP3    H239497   2.328   1.550   8.583
 5980TIP3   OH239498   3.772   4.467   8.451
 5980TIP3    H139499   3.769   4.551   8.496
 5980TIP3    H239500   3.690   4.424   8.475
 5981TIP3   OH239501   4.696   1.355   8.376
 5981TIP3    H139502   4.700   1.390   8.287
 5981TIP3    H239503   4.635   1.414   8.422
 5982TIP3   OH239504   0.107   3.006   7.720
 5982TIP3    H139505   0.137   2.991   7.630
 5982TIP3    H239506   0.125   2.924   7.766
 5983TIP3   OH239507   0.274   1.210   0.179
 5983TIP3    H139508   0.198   1.235   0.232
 5983TIP3    H239509   0.239   1.206   0.090
 5984TIP3   OH239510   3.275   5.987   6.706
 5984TIP3    H139511   3.236   5.917   6.654
 5984TIP3    H239512   3.368   5.983   6.687
 5985TIP3   OH239513   2.294   6.850   7.175
 5985TIP3    H139514   2.350   6.884   7.105
 5985TIP3    H239515   2.352   6.797   7.229
 5986TIP3   OH239516   2.209   2.703   8.215
 5986TIP3    H139517   2.172   2.616   8.195
 5986TIP3    H239518   2.224   2.701   8.310
 5987TIP3   OH239519   3.513   2.058   0.754
 5987TIP3    H139520   3.490   2.016   0.837
 5987TIP3    H239521   3.446   2.027   0.692
 5988TIP3   OH239522   4.942   5.645   8.010
 5988TIP3    H139523   4.894   5.629   8.092
 5988TIP3    H239524   5.003   5.716   8.031
 5989TIP3   OH239525   0.560   3.949   7.789
 5989TIP3    H139526   0.519   3.877   7.837
 5989TIP3    H239527   0.558   4.022   7.851
 5990TIP3   OH239528   1.703   1.628   0.457
 5990TIP3    H139529   1.684   1.625   0.551
 5990TIP3    H239530   1.763   1.702   0.447
 5991TIP3   OH239531   3.380   6.345   6.238
 5991TIP3    H139532   3.295   6.304   6.223
 5991TIP3    H239533   3.360   6.426   6.283
 5992TIP3   OH239534   1.201   4.768   7.016
 5992TIP3    H139535   1.272   4.744   6.956
 5992TIP3    H239536   1.242   4.825   7.080
 5993TIP3   OH239537   0.768   5.055   6.761
 5993TIP3    H139538   0.746   5.078   6.671
 5993TIP3    H239539   0.804   4.967   6.755
 5994TIP3   OH239540   4.757   3.087   1.910
 5994TIP3    H139541   4.748   3.021   1.841
 5994TIP3    H239542   4.848   3.077   1.940
 5995TIP3   OH239543   4.466   3.563   0.692
 5995TIP3    H139544   4.415   3.564   0.611
 5995TIP3    H239545   4.408   3.601   0.758
 5996TIP3   OH239546   5.469   4.746   1.673
 5996TIP3    H139547   5.377   4.759   1.695
 5996TIP3    H239548   5.497   4.832   1.639
 5997TIP3   OH239549   6.458   5.517   2.060
 5997TIP3    H139550   6.376   5.549   2.021
 5997TIP3    H239551   6.526   5.543   1.997
 5998TIP3   OH239552   0.311   6.214   6.928
 5998TIP3    H139553   0.277   6.286   6.875
 5998TIP3    H239554   0.399   6.199   6.893
 5999TIP3   OH239555   4.982   0.886   1.530
 5999TIP3    H139556   5.006   0.811   1.585
 5999TIP3    H239557   4.924   0.938   1.585
 6000TIP3   OH239558   1.318   4.759   6.245
 6000TIP3    H139559   1.357   4.810   6.175
 6000TIP3    H239560   1.378   4.770   6.319
 6001TIP3   OH239561   0.474   5.831   1.593
 6001TIP3    H139562   0.488   5.828   1.498
 6001TIP3    H239563   0.461   5.923   1.613
 6002TIP3   OH239564   4.633   4.259   7.840
 6002TIP3    H139565   4.614   4.211   7.760
 6002TIP3    H239566   4.728   4.252   7.851
 6003TIP3   OH239567   3.320   2.899   0.177
 6003TIP3    H139568   3.281   2.949   0.105
 6003TIP3    H239569   3.399   2.947   0.200
 6004TIP3   OH239570   5.829   0.328   0.665
 6004TIP3    H139571   5.923   0.322   0.679
 6004TIP3    H239572   5.819   0.335   0.570
 6005TIP3   OH239573   0.914   2.830   1.719
 6005TIP3    H139574   0.987   2.799   1.772
 6005TIP3    H239575   0.838   2.823   1.776
 6006TIP3   OH239576   5.426   1.669   6.524
 6006TIP3    H139577   5.362   1.635   6.461
 6006TIP3    H239578   5.386   1.750   6.558
 6007TIP3   OH239579   6.235   5.275   7.515
 6007TIP3    H139580   6.159   5.270   7.458
 6007TIP3    H239581   6.198   5.287   7.603
 6008TIP3   OH239582   4.632   5.190   2.359
 6008TIP3    H139583   4.715   5.220   2.397
 6008TIP3    H239584   4.646   5.098   2.340
 6009TIP3   OH239585   3.527   0.813   7.955
 6009TIP3    H139586   3.544   0.750   7.884
 6009TIP3    H239587   3.613   0.847   7.978
 6010TIP3   OH239588   4.668   3.590   6.928
 6010TIP3    H139589   4.693   3.573   6.838
 6010TIP3    H239590   4.749   3.615   6.972
 6011TIP3   OH239591   3.649   6.065   1.500
 6011TIP3    H139592   3.683   5.977   1.515
 6011TIP3    H239593   3.588   6.079   1.573
 6012TIP3   OH239594   4.536   0.359   1.584
 6012TIP3    H139595   4.442   0.372   1.569
 6012TIP3    H239596   4.579   0.421   1.525
 6013TIP3   OH239597   6.845   2.109   0.784
 6013TIP3    H139598   6.815   2.199   0.793
 6013TIP3    H239599   6.819   2.066   0.865
 6014TIP3   OH239600   1.402   6.535   2.128
 6014TIP3    H139601   1.336   6.468   2.110
 6014TIP3    H239602   1.476   6.487   2.165
 6015TIP3   OH239603   4.595   6.407   7.554
 6015TIP3    H139604   4.681   6.381   7.587
 6015TIP3    H239605   4.534   6.342   7.591
 6016TIP3   OH239606   3.422   2.407   1.565
 6016TIP3    H139607   3.450   2.414   1.656
 6016TIP3    H239608   3.499   2.430   1.514
 6017TIP3   OH239609   3.737   3.464   7.365
 6017TIP3    H139610   3.666   3.510   7.321
 6017TIP3    H239611   3.815   3.482   7.312
 6018TIP3   OH239612   1.076   6.039   6.392
 6018TIP3    H139613   1.068   6.014   6.300
 6018TIP3    H239614   1.081   6.135   6.390
 6019TIP3   OH239615   0.588   3.510   5.910
 6019TIP3    H139616   0.599   3.588   5.856
 6019TIP3    H239617   0.677   3.486   5.936
 6020TIP3   OH239618   0.136   5.615   7.402
 6020TIP3    H139619   0.119   5.622   7.496
 6020TIP3    H239620   0.079   5.545   7.372
 6021TIP3   OH239621   6.602   1.774   0.267
 6021TIP3    H139622   6.592   1.860   0.307
 6021TIP3    H239623   6.663   1.788   0.194
 6022TIP3   OH239624   4.937   6.085   2.007
 6022TIP3    H139625   4.906   6.175   1.994
 6022TIP3    H239626   4.919   6.066   2.099
 6023TIP3   OH239627   6.792   5.100   0.891
 6023TIP3    H139628   6.873   5.141   0.920
 6023TIP3    H239629   6.821   5.028   0.835
 6024TIP3   OH239630   1.773   5.646   6.021
 6024TIP3    H139631   1.729   5.576   5.971
 6024TIP3    H239632   1.705   5.711   6.036
 6025TIP3   OH239633   0.700   3.144   0.939
 6025TIP3    H139634   0.716   3.224   0.888
 6025TIP3    H239635   0.783   3.096   0.934
 6026TIP3   OH239636   1.329   6.611   1.689
 6026TIP3    H139637   1.397   6.666   1.729
 6026TIP3    H239638   1.377   6.538   1.651
 6027TIP3   OH239639   1.902   0.599   7.040
 6027TIP3    H139640   1.906   0.683   6.995
 6027TIP3    H239641   1.817   0.563   7.015
 6028TIP3   OH239642   2.864   5.348   1.377
 6028TIP3    H139643   2.931   5.326   1.312
 6028TIP3    H239644   2.854   5.268   1.429
 6029TIP3   OH239645   3.155   2.390   7.605
 6029TIP3    H139646   3.229   2.440   7.573
 6029TIP3    H239647   3.137   2.326   7.536
 6030TIP3   OH239648   4.636   3.654   1.967
 6030TIP3    H139649   4.708   3.715   1.949
 6030TIP3    H239650   4.654   3.621   2.055
 6031TIP3   OH239651   3.534   2.859   0.495
 6031TIP3    H139652   3.616   2.852   0.445
 6031TIP3    H239653   3.509   2.769   0.514
 6032TIP3   OH239654   5.643   5.793   0.318
 6032TIP3    H139655   5.729   5.808   0.356
 6032TIP3    H239656   5.650   5.708   0.273
 6033TIP3   OH239657   3.245   2.026   1.220
 6033TIP3    H139658   3.233   2.091   1.289
 6033TIP3    H239659   3.243   1.942   1.265
 6034TIP3   OH239660   6.223   0.027   7.573
 6034TIP3    H139661   6.162   0.097   7.547
 6034TIP3    H239662   6.231   0.036   7.668
 6035TIP3   OH239663   0.117   5.493   0.036
 6035TIP3    H139664   0.180   5.554   8.660
 6035TIP3    H239665   0.098   5.529   0.122
 6036TIP3   OH239666   0.007   1.383   7.851
 6036TIP3    H139667   0.047   1.429   7.777
 6036TIP3    H239668   0.012   1.445   7.923
 6037TIP3   OH239669   6.553   4.547   7.484
 6037TIP3    H139670   6.635   4.558   7.437
 6037TIP3    H239671   6.528   4.456   7.468
 6038TIP3   OH239672   5.521   4.695   0.478
 6038TIP3    H139673   5.563   4.620   0.436
 6038TIP3    H239674   5.552   4.691   0.569
 6039TIP3   OH239675   3.210   2.384   0.301
 6039TIP3    H139676   3.241   2.311   0.355
 6039TIP3    H239677   3.285   2.407   0.246
 6040TIP3   OH239678   0.335   1.765   7.441
 6040TIP3    H139679   0.268   1.734   7.380
 6040TIP3    H239680   0.316   1.720   7.523
 6041TIP3   OH239681   5.678   6.340   0.285
 6041TIP3    H139682   5.639   6.412   0.236
 6041TIP3    H239683   5.633   6.262   0.255
 6042TIP3   OH239684   5.706   5.772   8.498
 6042TIP3    H139685   5.644   5.828   8.545
 6042TIP3    H239686   5.673   5.769   8.408
 6043TIP3   OH239687   5.673   1.778   8.637
 6043TIP3    H139688   5.650   1.834   0.049
 6043TIP3    H239689   5.748   1.822   8.596
 6044TIP3   OH239690   4.106   6.120   7.835
 6044TIP3    H139691   4.183   6.084   7.792
 6044TIP3    H239692   4.105   6.212   7.808
 6045TIP3   OH239693   0.679   3.667   7.668
 6045TIP3    H139694   0.675   3.758   7.637
 6045TIP3    H239695   0.591   3.650   7.702
 6046TIP3   OH239696   3.976   4.905   1.592
 6046TIP3    H139697   3.884   4.881   1.601
 6046TIP3    H239698   4.020   4.823   1.567
 6047TIP3   OH239699   2.287   0.435   7.225
 6047TIP3    H139700   2.193   0.415   7.225
 6047TIP3    H239701   2.296   0.507   7.288
 6048TIP3   OH239702   6.088   3.391   7.283
 6048TIP3    H139703   6.047   3.437   7.210
 6048TIP3    H239704   6.181   3.385   7.259
 6049TIP3   OH239705   2.720   5.277   0.640
 6049TIP3    H139706   2.726   5.334   0.717
 6049TIP3    H239707   2.774   5.321   0.574
 6050TIP3   OH239708   4.544   6.349   7.847
 6050TIP3    H139709   4.587   6.422   7.892
 6050TIP3    H239710   4.604   6.276   7.859
 6051TIP3   OH239711   0.473   0.694   7.481
 6051TIP3    H139712   0.566   0.682   7.501
 6051TIP3    H239713   0.430   0.617   7.519
 6052TIP3   OH239714   1.253   1.017   6.980
 6052TIP3    H139715   1.305   1.082   7.028
 6052TIP3    H239716   1.224   0.955   7.047
 6053TIP3   OH239717   0.154   0.737   7.090
 6053TIP3    H139718   0.064   0.705   7.085
 6053TIP3    H239719   0.184   0.711   7.177
 6054TIP3   OH239720   4.997   2.512   8.232
 6054TIP3    H139721   4.987   2.422   8.201
 6054TIP3    H239722   5.036   2.503   8.320
 6055TIP3   OH239723   5.019   4.591   7.957
 6055TIP3    H139724   5.032   4.537   7.879
 6055TIP3    H239725   5.006   4.679   7.923
 6056TIP3   OH239726   1.120   4.449   7.946
 6056TIP3    H139727   1.105   4.432   7.853
 6056TIP3    H239728   1.108   4.364   7.988
 6057TIP3   OH239729   0.309   6.787   7.746
 6057TIP3    H139730   0.288   6.700   7.778
 6057TIP3    H239731   0.325   6.775   7.652
 6058TIP3   OH239732   5.296   2.840   8.134
 6058TIP3    H139733   5.204   2.820   8.118
 6058TIP3    H239734   5.331   2.761   8.176
 6059TIP3   OH239735   4.433   4.025   7.787
 6059TIP3    H139736   4.465   4.008   7.699
 6059TIP3    H239737   4.338   4.029   7.777
 6060TIP3   OH239738   0.872   4.049   7.280
 6060TIP3    H139739   0.850   4.131   7.325
 6060TIP3    H239740   0.906   4.076   7.195
 6061TIP3   OH239741   4.394   6.586   6.797
 6061TIP3    H139742   4.477   6.603   6.754
 6061TIP3    H239743   4.344   6.533   6.734
 6062TIP3   OH239744   1.009   4.716   1.334
 6062TIP3    H139745   0.920   4.706   1.300
 6062TIP3    H239746   0.999   4.713   1.429
 6063TIP3   OH239747   3.520   0.904   6.741
 6063TIP3    H139748   3.569   0.986   6.749
 6063TIP3    H239749   3.496   0.899   6.648
 6064TIP3   OH239750   3.418   1.597   7.121
 6064TIP3    H139751   3.463   1.663   7.068
 6064TIP3    H239752   3.337   1.640   7.149
 6065TIP3   OH239753   0.577   5.607   0.353
 6065TIP3    H139754   0.540   5.686   0.391
 6065TIP3    H239755   0.584   5.545   0.426
 6066TIP3   OH239756   1.676   2.086   0.920
 6066TIP3    H139757   1.654   2.000   0.955
 6066TIP3    H239758   1.608   2.145   0.954
 6067TIP3   OH239759   3.298   6.081   6.369
 6067TIP3    H139760   3.335   5.995   6.389
 6067TIP3    H239761   3.322   6.096   6.278
 6068TIP3   OH239762   2.598   2.976   6.922
 6068TIP3    H139763   2.606   2.914   6.850
 6068TIP3    H239764   2.689   3.002   6.941
 6069TIP3   OH239765   2.008   4.222   8.454
 6069TIP3    H139766   1.966   4.161   8.515
 6069TIP3    H239767   1.948   4.228   8.380
 6070TIP3   OH239768   3.059   5.623   8.522
 6070TIP3    H139769   3.146   5.613   8.561
 6070TIP3    H239770   3.045   5.718   8.521
 6071TIP3   OH239771   1.312   0.221   2.320
 6071TIP3    H139772   1.226   0.179   2.323
 6071TIP3    H239773   1.357   0.179   2.246
 6072TIP3   OH239774   0.118   0.300   7.583
 6072TIP3    H139775   0.066   0.380   7.583
 6072TIP3    H239776   0.062   0.235   7.624
 6073TIP3   OH239777   1.827   0.609   0.992
 6073TIP3    H139778   1.877   0.642   1.066
 6073TIP3    H239779   1.848   0.668   0.920
 6074TIP3   OH239780   2.983   2.130   1.360
 6074TIP3    H139781   3.019   2.141   1.449
 6074TIP3    H239782   2.992   2.036   1.343
 6075TIP3   OH239783   6.117   2.692   6.833
 6075TIP3    H139784   6.154   2.685   6.745
 6075TIP3    H239785   6.138   2.608   6.874
 6076TIP3   OH239786   6.688   1.068   1.004
 6076TIP3    H139787   6.770   1.025   1.029
 6076TIP3    H239788   6.708   1.161   1.006
 6077TIP3   OH239789   5.225   6.400   0.920
 6077TIP3    H139790   5.272   6.473   0.961
 6077TIP3    H239791   5.210   6.429   0.830
 6078TIP3   OH239792   1.935   4.963   7.511
 6078TIP3    H139793   1.921   4.968   7.605
 6078TIP3    H239794   2.010   4.904   7.501
 6079TIP3   OH239795   5.117   3.490   1.606
 6079TIP3    H139796   5.165   3.408   1.597
 6079TIP3    H239797   5.184   3.556   1.621
 6080TIP3   OH239798   1.971   1.572   7.250
 6080TIP3    H139799   1.956   1.544   7.160
 6080TIP3    H239800   2.059   1.608   7.250
 6081TIP3   OH239801   3.118   3.641   8.189
 6081TIP3    H139802   3.069   3.559   8.196
 6081TIP3    H239803   3.095   3.690   8.268
 6082TIP3   OH239804   5.490   1.696   2.390
 6082TIP3    H139805   5.463   1.604   2.385
 6082TIP3    H239806   5.582   1.693   2.416
 6083TIP3   OH239807   2.708   4.774   7.888
 6083TIP3    H139808   2.735   4.713   7.819
 6083TIP3    H239809   2.614   4.762   7.895
 6084TIP3   OH239810   0.557   5.486   1.199
 6084TIP3    H139811   0.538   5.448   1.285
 6084TIP3    H239812   0.612   5.562   1.218
 6085TIP3   OH239813   5.745   2.611   7.263
 6085TIP3    H139814   5.694   2.539   7.227
 6085TIP3    H239815   5.707   2.626   7.350
 6086TIP3   OH239816   0.350   6.275   7.977
 6086TIP3    H139817   0.371   6.183   7.966
 6086TIP3    H239818   0.380   6.297   8.065
 6087TIP3   OH239819   0.100   1.258   0.647
 6087TIP3    H139820   0.093   1.177   0.698
 6087TIP3    H239821   0.066   1.235   0.561
 6088TIP3   OH239822   5.269   2.297   7.690
 6088TIP3    H139823   5.237   2.384   7.713
 6088TIP3    H239824   5.318   2.309   7.609
 6089TIP3   OH239825   2.670   4.589   7.132
 6089TIP3    H139826   2.684   4.616   7.223
 6089TIP3    H239827   2.687   4.668   7.081
 6090TIP3   OH239828   4.226   5.600   1.206
 6090TIP3    H139829   4.193   5.511   1.188
 6090TIP3    H239830   4.297   5.612   1.143
 6091TIP3   OH239831   5.982   6.717   8.079
 6091TIP3    H139832   6.050   6.707   8.012
 6091TIP3    H239833   5.978   6.811   8.096
 6092TIP3   OH239834   6.599   6.333   6.352
 6092TIP3    H139835   6.589   6.247   6.311
 6092TIP3    H239836   6.548   6.393   6.297
 6093TIP3   OH239837   5.623   0.300   0.320
 6093TIP3    H139838   5.641   0.268   0.232
 6093TIP3    H239839   5.701   0.351   0.343
 6094TIP3   OH239840   3.115   0.277   7.796
 6094TIP3    H139841   3.087   0.260   7.886
 6094TIP3    H239842   3.162   0.197   7.771
 6095TIP3   OH239843   0.910   5.335   6.219
 6095TIP3    H139844   0.817   5.354   6.216
 6095TIP3    H239845   0.916   5.246   6.253
 6096TIP3   OH239846   2.586   1.453   7.402
 6096TIP3    H139847   2.566   1.368   7.442
 6096TIP3    H239848   2.664   1.484   7.447
 6097TIP3   OH239849   3.241   5.953   7.262
 6097TIP3    H139850   3.324   5.949   7.216
 6097TIP3    H239851   3.175   5.936   7.195
 6098TIP3   OH239852   0.892   6.268   7.150
 6098TIP3    H139853   0.882   6.246   7.242
 6098TIP3    H239854   0.928   6.189   7.110
 6099TIP3   OH239855   6.877   4.088   1.076
 6099TIP3    H139856   6.828   4.031   1.017
 6099TIP3    H239857   6.820   4.095   1.154
 6100TIP3   OH239858   3.131   2.576   8.477
 6100TIP3    H139859   3.078   2.656   8.477
 6100TIP3    H239860   3.211   2.600   8.525
 6101TIP3   OH239861   3.595   2.777   7.834
 6101TIP3    H139862   3.554   2.822   7.908
 6101TIP3    H239863   3.571   2.685   7.845
 6102TIP3   OH239864   6.530   4.304   6.486
 6102TIP3    H139865   6.567   4.266   6.566
 6102TIP3    H239866   6.437   4.312   6.504
 6103TIP3   OH239867   6.435   3.089   0.470
 6103TIP3    H139868   6.372   3.017   0.475
 6103TIP3    H239869   6.464   3.102   0.560
 6104TIP3   OH239870   5.843   6.605   0.990
 6104TIP3    H139871   5.759   6.560   1.001
 6104TIP3    H239872   5.820   6.689   0.951
 6105TIP3   OH239873   0.410   3.894   8.128
 6105TIP3    H139874   0.409   3.865   8.219
 6105TIP3    H239875   0.468   3.832   8.083
 6106TIP3   OH239876   3.620   2.462   6.783
 6106TIP3    H139877   3.633   2.557   6.777
 6106TIP3    H239878   3.709   2.426   6.775
 6107TIP3   OH239879   0.829   3.034   7.082
 6107TIP3    H139880   0.739   3.045   7.051
 6107TIP3    H239881   0.820   2.983   7.163
 6108TIP3   OH239882   1.034   5.215   7.109
 6108TIP3    H139883   1.079   5.273   7.171
 6108TIP3    H239884   1.002   5.273   7.040
 6109TIP3   OH239885   1.787   6.017   8.079
 6109TIP3    H139886   1.835   5.988   8.156
 6109TIP3    H239887   1.776   6.111   8.091
 6110TIP3   OH239888   0.615   1.372   1.720
 6110TIP3    H139889   0.645   1.281   1.717
 6110TIP3    H239890   0.597   1.388   1.813
 6111TIP3   OH239891   3.836   0.024   0.733
 6111TIP3    H139892   3.845   0.025   0.637
 6111TIP3    H239893   3.894   0.093   0.763
 6112TIP3   OH239894   1.035   0.574   1.207
 6112TIP3    H139895   1.086   0.522   1.269
 6112TIP3    H239896   1.094   0.590   1.134
 6113TIP3   OH239897   5.042   2.887   6.722
 6113TIP3    H139898   5.138   2.880   6.715
 6113TIP3    H239899   5.009   2.820   6.662
 6114TIP3   OH239900   1.783   4.111   7.307
 6114TIP3    H139901   1.848   4.179   7.290
 6114TIP3    H239902   1.707   4.138   7.256
 6115TIP3   OH239903   0.390   3.279   6.757
 6115TIP3    H139904   0.341   3.289   6.675
 6115TIP3    H239905   0.461   3.219   6.735
 6116TIP3   OH239906   6.341   2.406   7.612
 6116TIP3    H139907   6.343   2.493   7.571
 6116TIP3    H239908   6.268   2.409   7.673
 6117TIP3   OH239909   2.758   0.312   7.474
 6117TIP3    H139910   2.778   0.242   7.536
 6117TIP3    H239911   2.716   0.268   7.400
 6118TIP3   OH239912   5.505   0.274   1.404
 6118TIP3    H139913   5.558   0.270   1.325
 6118TIP3    H239914   5.538   0.350   1.452
 6119TIP3   OH239915   0.524   5.394   7.808
 6119TIP3    H139916   0.593   5.459   7.821
 6119TIP3    H239917   0.557   5.336   7.740
 6120TIP3   OH239918   0.245   5.826   1.182
 6120TIP3    H139919   0.322   5.837   1.237
 6120TIP3    H239920   0.182   5.779   1.237
 6121TIP3   OH239921   4.079   1.904   1.618
 6121TIP3    H139922   4.025   1.981   1.634
 6121TIP3    H239923   4.145   1.933   1.556
 6122TIP3   OH239924   4.483   5.601   7.736
 6122TIP3    H139925   4.493   5.637   7.649
 6122TIP3    H239926   4.539   5.654   7.792
 6123TIP3   OH239927   1.509   1.154   2.149
 6123TIP3    H139928   1.423   1.150   2.191
 6123TIP3    H239929   1.540   1.064   2.150
 6124TIP3   OH239930   4.765   4.109   0.203
 6124TIP3    H139931   4.676   4.076   0.214
 6124TIP3    H239932   4.760   4.166   0.126
 6125TIP3   OH239933   4.067   6.731   7.171
 6125TIP3    H139934   4.025   6.697   7.250
 6125TIP3    H239935   4.050   6.825   7.174
 6126TIP3   OH239936   6.874   4.706   2.224
 6126TIP3    H139937   0.024   4.728   2.309
 6126TIP3    H239938   6.782   4.732   2.229
 6127TIP3   OH239939   4.872   0.404   1.628
 6127TIP3    H139940   4.802   0.405   1.693
 6127TIP3    H239941   4.828   0.379   1.546
 6128TIP3   OH239942   3.377   4.843   0.985
 6128TIP3    H139943   3.413   4.907   1.046
 6128TIP3    H239944   3.282   4.851   0.995
 6129TIP3   OH239945   4.055   1.681   8.081
 6129TIP3    H139946   4.075   1.602   8.030
 6129TIP3    H239947   4.050   1.751   8.016
 6130TIP3   OH239948   6.559   2.777   0.649
 6130TIP3    H139949   6.464   2.787   0.653
 6130TIP3    H239950   6.573   2.685   0.626
 6131TIP3   OH239951   5.015   2.173   7.644
 6131TIP3    H139952   5.109   2.179   7.665
 6131TIP3    H239953   4.985   2.264   7.644
 6132TIP3   OH239954   4.183   4.153   8.644
 6132TIP3    H139955   4.157   4.064   0.007
 6132TIP3    H239956   4.213   4.144   8.554
 6133TIP3   OH239957   0.663   4.489   2.080
 6133TIP3    H139958   0.711   4.426   2.134
 6133TIP3    H239959   0.597   4.436   2.035
 6134TIP3   OH239960   4.546   1.057   6.937
 6134TIP3    H139961   4.493   1.129   6.903
 6134TIP3    H239962   4.485   0.984   6.944
 6135TIP3   OH239963   6.186   3.717   8.540
 6135TIP3    H139964   6.235   3.635   8.547
 6135TIP3    H239965   6.223   3.773   8.609
 6136TIP3   OH239966   4.625   5.196   0.896
 6136TIP3    H139967   4.589   5.166   0.980
 6136TIP3    H239968   4.694   5.258   0.921
 6137TIP3   OH239969   4.783   2.140   6.271
 6137TIP3    H139970   4.764   2.232   6.286
 6137TIP3    H239971   4.843   2.115   6.341
 6138TIP3   OH239972   6.849   0.314   2.036
 6138TIP3    H139973   6.797   0.292   1.959
 6138TIP3    H239974   6.843   0.236   2.091
 6139TIP3   OH239975   3.125   5.657   1.305
 6139TIP3    H139976   3.214   5.627   1.289
 6139TIP3    H239977   3.075   5.624   1.230
 6140TIP3   OH239978   5.156   0.181   2.140
 6140TIP3    H139979   5.139   0.160   2.049
 6140TIP3    H239980   5.240   0.227   2.139
 6141TIP3   OH239981   3.785   4.649   1.405
 6141TIP3    H139982   3.784   4.696   1.488
 6141TIP3    H239983   3.853   4.693   1.353
 6142TIP3   OH239984   1.294   4.130   0.771
 6142TIP3    H139985   1.231   4.064   0.743
 6142TIP3    H239986   1.326   4.169   0.690
 6143TIP3   OH239987   3.067   3.086   7.433
 6143TIP3    H139988   3.015   3.145   7.487
 6143TIP3    H239989   3.155   3.124   7.434
 6144TIP3   OH239990   0.882   3.162   8.551
 6144TIP3    H139991   0.952   3.128   8.496
 6144TIP3    H239992   0.836   3.225   8.496
 6145TIP3   OH239993   0.288   4.880   6.787
 6145TIP3    H139994   0.303   4.787   6.772
 6145TIP3    H239995   0.193   4.889   6.792
 6146TIP3   OH239996   3.666   4.229   7.428
 6146TIP3    H139997   3.755   4.199   7.409
 6146TIP3    H239998   3.625   4.240   7.342
 6147TIP3   OH239999   1.171   1.935   1.014
 6147TIP3    H140000   1.254   1.907   1.053
 6147TIP3    H240001   1.125   1.854   0.994
 6148TIP3   OH240002   5.798   4.862   7.757
 6148TIP3    H140003   5.768   4.921   7.826
 6148TIP3    H240004   5.890   4.885   7.744
 6149TIP3   OH240005   2.905   6.022   1.980
 6149TIP3    H140006   2.986   5.969   1.981
 6149TIP3    H240007   2.877   6.020   1.888
 6150TIP3   OH240008   0.831   0.704   0.622
 6150TIP3    H140009   0.764   0.637   0.609
 6150TIP3    H240010   0.806   0.774   0.563
 6151TIP3   OH240011   2.356   3.403   7.777
 6151TIP3    H140012   2.434   3.352   7.755
 6151TIP3    H240013   2.348   3.396   7.872
 6152TIP3   OH240014   3.194   6.145   1.985
 6152TIP3    H140015   3.208   6.051   1.993
 6152TIP3    H240016   3.099   6.155   1.975
 6153TIP3   OH240017   3.102   1.107   7.954
 6153TIP3    H140018   3.031   1.046   7.933
 6153TIP3    H240019   3.091   1.126   8.047
 6154TIP3   OH240020   6.686   3.996   6.616
 6154TIP3    H140021   6.724   3.945   6.545
 6154TIP3    H240022   6.605   4.032   6.578
 6155TIP3   OH240023   5.465   6.533   1.471
 6155TIP3    H140024   5.425   6.447   1.479
 6155TIP3    H240025   5.408   6.581   1.411
 6156TIP3   OH240026   6.568   2.704   1.704
 6156TIP3    H140027   6.662   2.720   1.690
 6156TIP3    H240028   6.559   2.609   1.702
 6157TIP3   OH240029   4.906   6.456   6.723
 6157TIP3    H140030   4.893   6.480   6.815
 6157TIP3    H240031   4.876   6.365   6.718
 6158TIP3   OH240032   6.502   2.741   0.011
 6158TIP3    H140033   6.532   2.681   0.080
 6158TIP3    H240034   6.517   2.828   0.047
 6159TIP3   OH240035   6.003   4.542   8.317
 6159TIP3    H140036   6.028   4.630   8.343
 6159TIP3    H240037   5.970   4.502   8.397
 6160TIP3   OH240038   4.737   4.291   0.654
 6160TIP3    H140039   4.817   4.344   0.657
 6160TIP3    H240040   4.758   4.215   0.709
 6161TIP3   OH240041   4.384   2.237   1.625
 6161TIP3    H140042   4.477   2.244   1.603
 6161TIP3    H240043   4.367   2.311   1.684
 6162TIP3   OH240044   1.930   5.751   1.426
 6162TIP3    H140045   1.966   5.835   1.399
 6162TIP3    H240046   1.847   5.743   1.379
 6163TIP3   OH240047   3.140   2.843   7.570
 6163TIP3    H140048   3.122   2.908   7.502
 6163TIP3    H240049   3.228   2.811   7.548
 6164TIP3   OH240050   0.757   2.488   7.711
 6164TIP3    H140051   0.673   2.488   7.757
 6164TIP3    H240052   0.811   2.427   7.760
 6165TIP3   OH240053   0.288   5.643   0.597
 6165TIP3    H140054   0.206   5.604   0.628
 6165TIP3    H240055   0.306   5.713   0.660
 6166TIP3   OH240056   3.444   3.311   0.967
 6166TIP3    H140057   3.376   3.376   0.985
 6166TIP3    H240058   3.420   3.236   1.021
 6167TIP3   OH240059   4.666   2.141   0.551
 6167TIP3    H140060   4.627   2.068   0.599
 6167TIP3    H240061   4.630   2.219   0.593
 6168TIP3   OH240062   4.442   4.002   1.216
 6168TIP3    H140063   4.530   3.991   1.251
 6168TIP3    H240064   4.417   3.914   1.187
 6169TIP3   OH240065   2.378   3.302   2.427
 6169TIP3    H140066   2.322   3.234   2.465
 6169TIP3    H240067   2.466   3.263   2.428
 6170TIP3   OH240068   6.271   2.235   8.250
 6170TIP3    H140069   6.296   2.321   8.283
 6170TIP3    H240070   6.175   2.236   8.252
 6171TIP3   OH240071   6.098   1.247   2.314
 6171TIP3    H140072   6.130   1.315   2.373
 6171TIP3    H240073   6.021   1.286   2.273
 6172TIP3   OH240074   4.699   5.083   8.523
 6172TIP3    H140075   4.788   5.063   8.553
 6172TIP3    H240076   4.644   5.018   8.567
 6173TIP3   OH240077   4.222   5.346   0.834
 6173TIP3    H140078   4.272   5.302   0.765
 6173TIP3    H240079   4.136   5.362   0.795
 6174TIP3   OH240080   5.154   2.108   1.897
 6174TIP3    H140081   5.249   2.121   1.897
 6174TIP3    H240082   5.134   2.080   1.808
 6175TIP3   OH240083   2.845   0.001   6.393
 6175TIP3    H140084   2.756   0.026   6.417
 6175TIP3    H240085   2.901   0.070   6.431
 6176TIP3   OH240086   5.823   1.832   7.860
 6176TIP3    H140087   5.878   1.827   7.782
 6176TIP3    H240088   5.874   1.790   7.929
 6177TIP3   OH240089   4.404   6.149   7.489
 6177TIP3    H140090   4.404   6.112   7.577
 6177TIP3    H240091   4.317   6.130   7.454
 6178TIP3   OH240092   0.129   2.824   0.515
 6178TIP3    H140093   0.131   2.752   0.578
 6178TIP3    H240094   0.193   2.800   0.449
 6179TIP3   OH240095   1.602   6.660   0.651
 6179TIP3    H140096   1.684   6.679   0.696
 6179TIP3    H240097   1.598   6.724   0.580
 6180TIP3   OH240098   5.786   6.019   1.248
 6180TIP3    H140099   5.869   5.972   1.246
 6180TIP3    H240100   5.728   5.963   1.300
 6181TIP3   OH240101   1.429   2.959   0.492
 6181TIP3    H140102   1.434   2.924   0.403
 6181TIP3    H240103   1.519   2.953   0.525
 6182TIP3   OH240104   0.571   4.779   0.017
 6182TIP3    H140105   0.510   4.778   8.605
 6182TIP3    H240106   0.637   4.714   8.656
 6183TIP3   OH240107   3.933   4.167   7.326
 6183TIP3    H140108   4.022   4.180   7.293
 6183TIP3    H240109   3.926   4.072   7.337
 6184TIP3   OH240110   3.378   1.663   0.673
 6184TIP3    H140111   3.449   1.669   0.609
 6184TIP3    H240112   3.420   1.682   0.757
 6185TIP3   OH240113   2.592   1.328   0.876
 6185TIP3    H140114   2.595   1.284   0.961
 6185TIP3    H240115   2.573   1.259   0.813
 6186TIP3   OH240116   4.514   5.786   1.186
 6186TIP3    H140117   4.580   5.728   1.225
 6186TIP3    H240118   4.524   5.774   1.092
 6187TIP3   OH240119   2.941   6.119   1.561
 6187TIP3    H140120   2.869   6.062   1.589
 6187TIP3    H240121   2.902   6.206   1.556
 6188TIP3   OH240122   2.431   4.728   7.573
 6188TIP3    H140123   2.348   4.705   7.532
 6188TIP3    H240124   2.480   4.646   7.576
 6189TIP3   OH240125   3.284   5.121   0.448
 6189TIP3    H140126   3.364   5.112   0.501
 6189TIP3    H240127   3.232   5.185   0.496
 6190TIP3   OH240128   2.742   3.041   8.273
 6190TIP3    H140129   2.703   2.968   8.321
 6190TIP3    H240130   2.804   3.080   8.335
 6191TIP3   OH240131   2.026   0.421   7.511
 6191TIP3    H140132   2.069   0.428   7.425
 6191TIP3    H240133   2.084   0.468   7.570
 6192TIP3   OH240134   3.053   2.213   7.412
 6192TIP3    H140135   2.960   2.236   7.416
 6192TIP3    H240136   3.082   2.245   7.326
 6193TIP3   OH240137   4.956   4.410   0.504
 6193TIP3    H140138   5.026   4.435   0.444
 6193TIP3    H240139   4.876   4.414   0.451
 6194TIP3   OH240140   6.271   1.037   2.216
 6194TIP3    H140141   6.228   1.096   2.279
 6194TIP3    H240142   6.278   1.089   2.136
 6195TIP3   OH240143   1.731   5.705   1.250
 6195TIP3    H140144   1.641   5.679   1.231
 6195TIP3    H240145   1.784   5.658   1.185
 6196TIP3   OH240146   1.219   0.586   1.494
 6196TIP3    H140147   1.220   0.643   1.572
 6196TIP3    H240148   1.298   0.609   1.446
 6197TIP3   OH240149   4.123   5.988   0.672
 6197TIP3    H140150   4.183   5.925   0.710
 6197TIP3    H240151   4.089   5.945   0.593
 6198TIP3   OH240152   1.229   6.146   6.853
 6198TIP3    H140153   1.279   6.196   6.917
 6198TIP3    H240154   1.207   6.209   6.784
 6199TIP3   OH240155   3.388   3.947   0.177
 6199TIP3    H140156   3.365   3.985   0.262
 6199TIP3    H240157   3.478   3.915   0.189
 6200TIP3   OH240158   1.055   6.875   0.772
 6200TIP3    H140159   0.962   6.855   0.762
 6200TIP3    H240160   1.099   6.795   0.745
 6201TIP3   OH240161   4.703   5.630   1.277
 6201TIP3    H140162   4.786   5.620   1.325
 6201TIP3    H240163   4.653   5.552   1.299
 6202TIP3   OH240164   1.157   2.911   7.170
 6202TIP3    H140165   1.113   2.852   7.108
 6202TIP3    H240166   1.194   2.980   7.115
 6203TIP3   OH240167   0.177   4.167   6.837
 6203TIP3    H140168   0.086   4.178   6.810
 6203TIP3    H240169   0.227   4.174   6.755
 6204TIP3   OH240170   5.347   1.706   2.126
 6204TIP3    H140171   5.409   1.718   2.198
 6204TIP3    H240172   5.399   1.720   2.047
 6205TIP3   OH240173   3.444   3.425   7.504
 6205TIP3    H140174   3.498   3.428   7.583
 6205TIP3    H240175   3.447   3.514   7.469
 6206TIP3   OH240176   5.450   6.311   1.177
 6206TIP3    H140177   5.389   6.267   1.118
 6206TIP3    H240178   5.447   6.260   1.258
 6207TIP3   OH240179   1.927   1.069   2.443
 6207TIP3    H140180   1.922   0.982   2.481
 6207TIP3    H240181   2.017   1.076   2.411
 6208TIP3   OH240182   4.787   2.531   1.031
 6208TIP3    H140183   4.697   2.500   1.038
 6208TIP3    H240184   4.832   2.463   0.981
 6209TIP3   OH240185   3.228   0.023   0.766
 6209TIP3    H140186   3.196   0.100   0.719
 6209TIP3    H240187   3.193   6.835   0.717
 6210TIP3   OH240188   5.384   5.949   6.617
 6210TIP3    H140189   5.477   5.924   6.624
 6210TIP3    H240190   5.383   6.021   6.555
 6211TIP3   OH240191   6.580   6.510   0.519
 6211TIP3    H140192   6.513   6.502   0.586
 6211TIP3    H240193   6.576   6.428   0.470
 6212TIP3   OH240194   6.385   0.106   0.061
 6212TIP3    H140195   6.454   0.062   0.011
 6212TIP3    H240196   6.305   0.087   0.012
 6213TIP3   OH240197   5.905   3.413   1.653
 6213TIP3    H140198   5.813   3.438   1.652
 6213TIP3    H240199   5.951   3.491   1.684
 6214TIP3   OH240200   1.485   1.203   7.669
 6214TIP3    H140201   1.410   1.200   7.610
 6214TIP3    H240202   1.479   1.290   7.710
 6215TIP3   OH240203   1.075   3.147   7.756
 6215TIP3    H140204   1.098   3.216   7.818
 6215TIP3    H240205   1.121   3.171   7.676
 6216TIP3   OH240206   2.519   3.380   6.139
 6216TIP3    H140207   2.551   3.340   6.059
 6216TIP3    H240208   2.478   3.462   6.110
 6217TIP3   OH240209   2.324   2.457   6.310
 6217TIP3    H140210   2.310   2.483   6.401
 6217TIP3    H240211   2.363   2.370   6.316
 6218TIP3   OH240212   1.739   3.858   1.756
 6218TIP3    H140213   1.687   3.920   1.808
 6218TIP3    H240214   1.681   3.784   1.742
 6219TIP3   OH240215   1.683   2.976   7.788
 6219TIP3    H140216   1.744   2.913   7.748
 6219TIP3    H240217   1.598   2.932   7.785
 6220TIP3   OH240218   3.826   5.856   0.390
 6220TIP3    H140219   3.795   5.934   0.344
 6220TIP3    H240220   3.777   5.784   0.351
 6221TIP3   OH240221   0.219   3.999   7.548
 6221TIP3    H140222   0.265   4.065   7.599
 6221TIP3    H240223   0.162   4.049   7.490
 6222TIP3   OH240224   1.727   4.309   6.564
 6222TIP3    H140225   1.714   4.315   6.469
 6222TIP3    H240226   1.691   4.223   6.587
 6223TIP3   OH240227   2.223   0.957   1.768
 6223TIP3    H140228   2.290   0.890   1.783
 6223TIP3    H240229   2.147   0.926   1.818
 6224TIP3   OH240230   4.052   0.072   7.553
 6224TIP3    H140231   4.026   0.125   7.629
 6224TIP3    H240232   4.145   0.054   7.566
 6225TIP3   OH240233   4.839   4.953   8.063
 6225TIP3    H140234   4.861   5.007   8.139
 6225TIP3    H240235   4.795   4.876   8.100
 6226TIP3   OH240236   0.053   0.117   7.160
 6226TIP3    H140237   0.042   0.034   7.114
 6226TIP3    H240238   0.056   0.182   7.090
 6227TIP3   OH240239   2.432   6.523   7.712
 6227TIP3    H140240   2.479   6.550   7.792
 6227TIP3    H240241   2.378   6.599   7.691
 6228TIP3   OH240242   2.166   5.873   7.150
 6228TIP3    H140243   2.092   5.830   7.107
 6228TIP3    H240244   2.127   5.948   7.196
 6229TIP3   OH240245   0.103   6.325   0.457
 6229TIP3    H140246   0.072   6.415   0.459
 6229TIP3    H240247   0.125   6.309   0.365
 6230TIP3   OH240248   0.363   4.773   0.184
 6230TIP3    H140249   0.447   4.786   0.139
 6230TIP3    H240250   0.298   4.797   0.119
 6231TIP3   OH240251   6.528   2.841   8.187
 6231TIP3    H140252   6.621   2.825   8.171
 6231TIP3    H240253   6.484   2.778   8.130
 6232TIP3   OH240254   6.220   4.447   8.049
 6232TIP3    H140255   6.133   4.449   8.090
 6232TIP3    H240256   6.234   4.537   8.020
 6233TIP3   OH240257   5.773   3.299   7.965
 6233TIP3    H140258   5.828   3.253   8.028
 6233TIP3    H240259   5.726   3.229   7.918
 6234TIP3   OH240260   2.743   3.354   0.103
 6234TIP3    H140261   2.831   3.339   0.138
 6234TIP3    H240262   2.758   3.389   0.016
 6235TIP3   OH240263   3.569   4.066   8.369
 6235TIP3    H140264   3.648   4.097   8.413
 6235TIP3    H240265   3.528   4.008   8.433
 6236TIP3   OH240266   0.568   3.511   6.607
 6236TIP3    H140267   0.582   3.417   6.601
 6236TIP3    H240268   0.579   3.542   6.517
 6237TIP3   OH240269   2.836   3.474   8.064
 6237TIP3    H140270   2.897   3.543   8.040
 6237TIP3    H240271   2.760   3.521   8.099
 6238TIP3   OH240272   0.456   5.158   1.906
 6238TIP3    H140273   0.532   5.216   1.900
 6238TIP3    H240274   0.487   5.083   1.957
 6239TIP3   OH240275   3.934   1.901   8.586
 6239TIP3    H140276   3.939   1.837   8.514
 6239TIP3    H240277   3.935   1.848   0.003
 6240TIP3   OH240278   4.019   5.167   0.545
 6240TIP3    H140279   4.096   5.224   0.551
 6240TIP3    H240280   3.995   5.149   0.635
 6241TIP3   OH240281   0.611   2.664   6.662
 6241TIP3    H140282   0.679   2.704   6.608
 6241TIP3    H240283   0.580   2.590   6.610
 6242TIP3   OH240284   4.385   5.342   7.188
 6242TIP3    H140285   4.429   5.361   7.106
 6242TIP3    H240286   4.438   5.274   7.229
 6243TIP3   OH240287   2.131   2.577   0.057
 6243TIP3    H140288   2.139   2.652   0.117
 6243TIP3    H240289   2.064   2.604   8.657
 6244TIP3   OH240290   5.639   1.051   8.405
 6244TIP3    H140291   5.629   0.996   8.328
 6244TIP3    H240292   5.579   1.124   8.391
 6245TIP3   OH240293   0.600   5.133   7.414
 6245TIP3    H140294   0.674   5.149   7.357
 6245TIP3    H240295   0.523   5.136   7.356
 6246TIP3   OH240296   3.929   2.278   2.073
 6246TIP3    H140297   3.946   2.243   2.160
 6246TIP3    H240298   3.924   2.373   2.086
 6247TIP3   OH240299   1.389   1.916   1.194
 6247TIP3    H140300   1.347   1.990   1.238
 6247TIP3    H240301   1.439   1.872   1.262
 6248TIP3   OH240302   6.504   2.348   7.114
 6248TIP3    H140303   6.513   2.276   7.176
 6248TIP3    H240304   6.457   2.416   7.162
 6249TIP3   OH240305   2.688   6.496   0.136
 6249TIP3    H140306   2.691   6.465   0.046
 6249TIP3    H240307   2.766   6.551   0.145
 6250TIP3   OH240308   1.038   3.170   1.680
 6250TIP3    H140309   1.117   3.133   1.639
 6250TIP3    H240310   1.055   3.264   1.686
 6251TIP3   OH240311   5.566   1.369   8.649
 6251TIP3    H140312   5.648   1.411   0.013
 6251TIP3    H240313   5.588   1.276   8.642
 6252TIP3   OH240314   1.193   2.353   8.556
 6252TIP3    H140315   1.106   2.350   8.596
 6252TIP3    H240316   1.250   2.385   8.625
 6253TIP3   OH240317   0.944   4.098   2.104
 6253TIP3    H140318   0.915   4.009   2.126
 6253TIP3    H240319   1.017   4.085   2.044
 6254TIP3   OH240320   6.328   5.682   7.005
 6254TIP3    H140321   6.308   5.656   6.915
 6254TIP3    H240322   6.316   5.602   7.056
 6255TIP3   OH240323   2.568   2.135   2.509
 6255TIP3    H140324   2.531   2.185   2.581
 6255TIP3    H240325   2.570   2.196   2.435
 6256TIP3   OH240326   4.278   2.723   6.956
 6256TIP3    H140327   4.201   2.695   6.907
 6256TIP3    H240328   4.243   2.770   7.032
 6257TIP3   OH240329   1.756   3.809   1.230
 6257TIP3    H140330   1.706   3.728   1.223
 6257TIP3    H240331   1.759   3.827   1.324
 6258TIP3   OH240332   1.937   6.566   0.980
 6258TIP3    H140333   1.962   6.649   0.939
 6258TIP3    H240334   1.842   6.570   0.987
 6259TIP3   OH240335   0.559   3.069   8.633
 6259TIP3    H140336   0.626   3.056   8.566
 6259TIP3    H240337   0.486   3.109   8.586
 6260TIP3   OH240338   1.199   4.459   8.631
 6260TIP3    H140339   1.244   4.377   8.650
 6260TIP3    H240340   1.111   4.432   8.602
 6261TIP3   OH240341   6.220   6.364   6.929
 6261TIP3    H140342   6.166   6.365   6.850
 6261TIP3    H240343   6.226   6.271   6.952
 6262TIP3   OH240344   2.561   4.286   8.339
 6262TIP3    H140345   2.603   4.362   8.380
 6262TIP3    H240346   2.483   4.270   8.392
 6263TIP3   OH240347   5.431   0.783   8.602
 6263TIP3    H140348   5.381   0.701   8.609
 6263TIP3    H240349   5.517   0.761   8.638
 6264TIP3   OH240350   6.767   0.181   1.058
 6264TIP3    H140351   6.680   0.143   1.048
 6264TIP3    H240352   6.805   0.137   1.134
 6265TIP3   OH240353   5.815   5.412   7.490
 6265TIP3    H140354   5.827   5.380   7.401
 6265TIP3    H240355   5.755   5.486   7.482
 6266TIP3   OH240356   1.662   1.478   1.498
 6266TIP3    H140357   1.609   1.445   1.425
 6266TIP3    H240358   1.646   1.415   1.569
 6267TIP3   OH240359   3.731   0.223   6.904
 6267TIP3    H140360   3.822   0.233   6.930
 6267TIP3    H240361   3.687   0.300   6.940
 6268TIP3   OH240362   0.897   0.334   7.597
 6268TIP3    H140363   0.929   0.397   7.662
 6268TIP3    H240364   0.808   0.364   7.578
 6269TIP3   OH240365   2.238   0.149   0.412
 6269TIP3    H140366   2.248   0.075   0.352
 6269TIP3    H240367   2.239   0.226   0.355
 6270TIP3   OH240368   4.286   1.315   2.305
 6270TIP3    H140369   4.274   1.236   2.357
 6270TIP3    H240370   4.276   1.387   2.368
 6271TIP3   OH240371   4.166   2.034   0.778
 6271TIP3    H140372   4.107   2.106   0.801
 6271TIP3    H240373   4.217   2.067   0.705
 6272TIP3   OH240374   3.308   0.624   1.607
 6272TIP3    H140375   3.328   0.665   1.691
 6272TIP3    H240376   3.213   0.626   1.602
 6273TIP3   OH240377   0.654   6.595   2.605
 6273TIP3    H140378   0.561   6.617   2.607
 6273TIP3    H240379   0.699   6.678   2.615
 6274TIP3   OH240380   0.823   2.373   1.515
 6274TIP3    H140381   0.768   2.310   1.469
 6274TIP3    H240382   0.907   2.369   1.468
 6275TIP3   OH240383   5.667   2.380   7.915
 6275TIP3    H140384   5.610   2.358   7.989
 6275TIP3    H240385   5.663   2.303   7.858
 6276TIP3   OH240386   0.704   0.149   7.379
 6276TIP3    H140387   0.753   0.072   7.409
 6276TIP3    H240388   0.632   0.158   7.441
 6277TIP3   OH240389   5.476   3.125   1.299
 6277TIP3    H140390   5.537   3.179   1.350
 6277TIP3    H240391   5.443   3.061   1.361
 6278TIP3   OH240392   3.601   6.192   7.723
 6278TIP3    H140393   3.554   6.133   7.664
 6278TIP3    H240394   3.651   6.133   7.780
 6279TIP3   OH240395   5.359   3.657   1.355
 6279TIP3    H140396   5.307   3.578   1.367
 6279TIP3    H240397   5.386   3.682   1.444
 6280TIP3   OH240398   4.652   2.656   7.120
 6280TIP3    H140399   4.598   2.680   7.045
 6280TIP3    H240400   4.683   2.568   7.100
 6281TIP3   OH240401   3.894   2.171   1.243
 6281TIP3    H140402   3.879   2.111   1.316
 6281TIP3    H240403   3.807   2.201   1.218
 6282TIP3   OH240404   4.923   6.791   7.030
 6282TIP3    H140405   4.885   6.827   6.950
 6282TIP3    H240406   4.854   6.737   7.068
 6283TIP3   OH240407   3.329   3.157   7.505
 6283TIP3    H140408   3.380   3.116   7.574
 6283TIP3    H240409   3.349   3.250   7.513
 6284TIP3   OH240410   0.440   6.556   6.544
 6284TIP3    H140411   0.364   6.584   6.493
 6284TIP3    H240412   0.467   6.473   6.504
 6285TIP3   OH240413   2.960   4.976   1.804
 6285TIP3    H140414   2.906   4.908   1.845
 6285TIP3    H240415   3.050   4.953   1.829
 6286TIP3   OH240416   6.784   0.208   1.385
 6286TIP3    H140417   6.734   0.238   1.460
 6286TIP3    H240418   6.798   0.115   1.401
 6287TIP3   OH240419   6.620   5.607   0.927
 6287TIP3    H140420   6.596   5.515   0.922
 6287TIP3    H240421   6.544   5.649   0.967
 6288TIP3   OH240422   3.616   4.215   1.490
 6288TIP3    H140423   3.705   4.239   1.466
 6288TIP3    H240424   3.617   4.120   1.495
 6289TIP3   OH240425   2.771   2.437   0.068
 6289TIP3    H140426   2.721   2.396   8.660
 6289TIP3    H240427   2.775   2.371   0.137
 6290TIP3   OH240428   5.843   3.136   1.311
 6290TIP3    H140429   5.885   3.071   1.256
 6290TIP3    H240430   5.856   3.104   1.401
 6291TIP3   OH240431   0.053   5.080   0.486
 6291TIP3    H140432   0.137   5.034   0.488
 6291TIP3    H240433   6.880   5.024   0.535
 6292TIP3   OH240434   2.002   6.082   0.321
 6292TIP3    H140435   2.033   6.051   0.235
 6292TIP3    H240436   2.066   6.045   0.383
 6293TIP3   OH240437   4.731   2.256   7.982
 6293TIP3    H140438   4.819   2.294   7.979
 6293TIP3    H240439   4.731   2.203   8.061
 6294TIP3   OH240440   2.531   0.745   6.566
 6294TIP3    H140441   2.525   0.658   6.604
 6294TIP3    H240442   2.474   0.799   6.621
 6295TIP3   OH240443   0.338   1.443   1.058
 6295TIP3    H140444   0.267   1.389   1.093
 6295TIP3    H240445   0.297   1.493   0.987
 6296TIP3   OH240446   6.589   1.960   7.076
 6296TIP3    H140447   6.674   1.920   7.093
 6296TIP3    H240448   6.609   2.041   7.030
 6297TIP3   OH240449   1.391   3.725   0.907
 6297TIP3    H140450   1.398   3.799   0.848
 6297TIP3    H240451   1.363   3.652   0.851
 6298TIP3   OH240452   3.985   4.433   7.334
 6298TIP3    H140453   3.947   4.345   7.338
 6298TIP3    H240454   4.037   4.440   7.414
 6299TIP3   OH240455   3.393   6.533   8.071
 6299TIP3    H140456   3.451   6.533   8.148
 6299TIP3    H240457   3.431   6.467   8.013
 6300TIP3   OH240458   0.337   5.137   0.277
 6300TIP3    H140459   0.427   5.114   0.300
 6300TIP3    H240460   0.283   5.073   0.323
 6301TIP3   OH240461   1.637   0.145   8.365
 6301TIP3    H140462   1.626   0.063   8.412
 6301TIP3    H240463   1.554   0.191   8.377
 6302TIP3   OH240464   0.122   1.852   2.758
 6302TIP3    H140465   0.119   1.757   2.763
 6302TIP3    H240466   0.200   1.871   2.706
 6303TIP3   OH240467   3.622   6.571   1.374
 6303TIP3    H140468   3.671   6.623   1.311
 6303TIP3    H240469   3.654   6.482   1.362
 6304TIP3   OH240470   3.936   6.228   8.369
 6304TIP3    H140471   3.945   6.205   8.462
 6304TIP3    H240472   3.999   6.172   8.324
 6305TIP3   OH240473   2.395   6.765   6.462
 6305TIP3    H140474   2.339   6.758   6.385
 6305TIP3    H240475   2.466   6.823   6.435
 6306TIP3   OH240476   0.316   2.449   0.962
 6306TIP3    H140477   0.258   2.388   0.916
 6306TIP3    H240478   0.298   2.435   1.055
 6307TIP3   OH240479   6.744   2.975   0.678
 6307TIP3    H140480   6.681   2.908   0.652
 6307TIP3    H240481   6.829   2.936   0.656
 6308TIP3   OH240482   6.298   0.989   0.011
 6308TIP3    H140483   6.302   0.952   0.099
 6308TIP3    H240484   6.313   1.082   0.023
 6309TIP3   OH240485   5.767   0.787   7.952
 6309TIP3    H140486   5.707   0.856   7.924
 6309TIP3    H240487   5.726   0.706   7.922
 6310TIP3   OH240488   2.015   2.334   6.816
 6310TIP3    H140489   2.002   2.427   6.833
 6310TIP3    H240490   1.999   2.325   6.722
 6311TIP3   OH240491   4.777   3.706   8.231
 6311TIP3    H140492   4.822   3.786   8.257
 6311TIP3    H240493   4.768   3.712   8.136
 6312TIP3   OH240494   6.852   6.540   0.346
 6312TIP3    H140495   6.814   6.509   0.264
 6312TIP3    H240496   6.778   6.552   0.405
 6313TIP3   OH240497   3.944   6.144   8.636
 6313TIP3    H140498   3.950   6.169   0.066
 6313TIP3    H240499   3.951   6.048   8.636
 6314TIP3   OH240500   2.993   2.424   1.285
 6314TIP3    H140501   2.965   2.345   1.332
 6314TIP3    H240502   2.942   2.422   1.204
 6315TIP3   OH240503   2.442   0.552   0.442
 6315TIP3    H140504   2.395   0.548   0.525
 6315TIP3    H240505   2.379   0.590   0.380
 6316TIP3   OH240506   3.859   4.159   8.647
 6316TIP3    H140507   3.805   4.234   0.012
 6316TIP3    H240508   3.949   4.191   8.654
 6317TIP3   OH240509   3.502   0.690   0.537
 6317TIP3    H140510   3.560   0.634   0.485
 6317TIP3    H240511   3.448   0.736   0.473
 6318TIP3   OH240512   1.045   5.545   6.577
 6318TIP3    H140513   1.118   5.589   6.533
 6318TIP3    H240514   0.967   5.579   6.535
 6319TIP3   OH240515   5.947   6.238   7.393
 6319TIP3    H140516   5.975   6.290   7.469
 6319TIP3    H240517   5.861   6.274   7.371
 6320TIP3   OH240518   6.710   6.473   7.438
 6320TIP3    H140519   6.732   6.389   7.399
 6320TIP3    H240520   6.774   6.484   7.509
 6321TIP3   OH240521   2.467   6.186   6.896
 6321TIP3    H140522   2.520   6.182   6.817
 6321TIP3    H240523   2.378   6.167   6.867
 6322TIP3   OH240524   6.674   4.347   0.482
 6322TIP3    H140525   6.735   4.320   0.550
 6322TIP3    H240526   6.687   4.441   0.474
 6323TIP3   OH240527   3.703   0.538   0.372
 6323TIP3    H140528   3.699   0.589   0.291
 6323TIP3    H240529   3.788   0.494   0.367
 6324TIP3   OH240530   2.054   5.519   7.995
 6324TIP3    H140531   2.094   5.552   7.914
 6324TIP3    H240532   2.127   5.512   8.057
 6325TIP3   OH240533   5.435   0.427   0.684
 6325TIP3    H140534   5.493   0.399   0.755
 6325TIP3    H240535   5.357   0.459   0.729
 6326TIP3   OH240536   3.213   4.235   1.909
 6326TIP3    H140537   3.192   4.192   1.992
 6326TIP3    H240538   3.305   4.215   1.894
 6327TIP3   OH240539   2.004   6.289   0.923
 6327TIP3    H140540   1.996   6.381   0.948
 6327TIP3    H240541   1.914   6.259   0.913
 6328TIP3   OH240542   1.134   0.147   1.098
 6328TIP3    H140543   1.139   0.197   1.180
 6328TIP3    H240544   1.041   0.146   1.076
 6329TIP3   OH240545   5.549   2.487   8.556
 6329TIP3    H140546   5.584   2.570   8.522
 6329TIP3    H240547   5.462   2.510   8.588
 6330TIP3   OH240548   1.621   0.978   6.531
 6330TIP3    H140549   1.602   1.051   6.590
 6330TIP3    H240550   1.630   0.902   6.589
 6331TIP3   OH240551   5.323   2.332   0.431
 6331TIP3    H140552   5.413   2.326   0.401
 6331TIP3    H240553   5.324   2.401   0.497
 6332TIP3   OH240554   2.152   4.547   0.972
 6332TIP3    H140555   2.205   4.587   0.903
 6332TIP3    H240556   2.096   4.485   0.926
 6333TIP3   OH240557   1.857   0.422   0.715
 6333TIP3    H140558   1.920   0.350   0.720
 6333TIP3    H240559   1.912   0.500   0.707
 6334TIP3   OH240560   4.049   1.058   8.454
 6334TIP3    H140561   3.966   1.031   8.415
 6334TIP3    H240562   4.069   1.142   8.413
 6335TIP3   OH240563   6.067   2.226   0.421
 6335TIP3    H140564   6.004   2.154   0.418
 6335TIP3    H240565   6.066   2.254   0.513
 6336TIP3   OH240566   0.745   6.376   0.597
 6336TIP3    H140567   0.837   6.378   0.572
 6336TIP3    H240568   0.703   6.440   0.540
 6337TIP3   OH240569   2.918   0.619   1.106
 6337TIP3    H140570   2.892   0.641   1.017
 6337TIP3    H240571   3.000   0.570   1.096
 6338TIP3   OH240572   0.626   0.166   8.222
 6338TIP3    H140573   0.670   0.200   8.144
 6338TIP3    H240574   0.533   0.171   8.201
 6339TIP3   OH240575   3.529   1.505   7.518
 6339TIP3    H140576   3.440   1.506   7.483
 6339TIP3    H240577   3.524   1.449   7.595
 6340TIP3   OH240578   1.006   5.562   1.425
 6340TIP3    H140579   1.041   5.597   1.507
 6340TIP3    H240580   1.066   5.594   1.358
 6341TIP3   OH240581   6.506   3.205   1.931
 6341TIP3    H140582   6.417   3.228   1.903
 6341TIP3    H240583   6.536   3.281   1.980
 6342TIP3   OH240584   4.774   1.121   7.752
 6342TIP3    H140585   4.686   1.084   7.739
 6342TIP3    H240586   4.824   1.049   7.791
 6343TIP3   OH240587   3.981   1.404   1.858
 6343TIP3    H140588   3.984   1.406   1.762
 6343TIP3    H240589   3.989   1.495   1.884
 6344TIP3   OH240590   2.062   5.300   7.077
 6344TIP3    H140591   2.121   5.271   7.007
 6344TIP3    H240592   2.030   5.219   7.116
 6345TIP3   OH240593   5.097   2.344   0.689
 6345TIP3    H140594   5.168   2.405   0.708
 6345TIP3    H240595   5.072   2.363   0.599
 6346TIP3   OH240596   5.635   6.343   0.749
 6346TIP3    H140597   5.727   6.333   0.772
 6346TIP3    H240598   5.599   6.400   0.818
 6347TIP3   OH240599   3.127   0.916   1.245
 6347TIP3    H140600   3.187   0.938   1.173
 6347TIP3    H240601   3.076   0.842   1.212
 6348TIP3   OH240602   6.727   3.348   2.242
 6348TIP3    H140603   6.808   3.364   2.195
 6348TIP3    H240604   6.659   3.388   2.187
 6349TIP3   OH240605   6.215   4.359   8.467
 6349TIP3    H140606   6.225   4.386   8.375
 6349TIP3    H240607   6.128   4.390   8.492
 6350TIP3   OH240608   1.911   5.219   6.321
 6350TIP3    H140609   1.824   5.191   6.293
 6350TIP3    H240610   1.912   5.313   6.304
 6351TIP3   OH240611   3.503   0.612   6.703
 6351TIP3    H140612   3.530   0.603   6.611
 6351TIP3    H240613   3.529   0.701   6.726
 6352TIP3   OH240614   5.178   2.615   7.218
 6352TIP3    H140615   5.191   2.584   7.129
 6352TIP3    H240616   5.083   2.627   7.226
 6353TIP3   OH240617   3.702   3.276   8.096
 6353TIP3    H140618   3.698   3.181   8.111
 6353TIP3    H240619   3.787   3.302   8.130
 6354TIP3   OH240620   2.838   0.985   1.592
 6354TIP3    H140621   2.767   0.966   1.531
 6354TIP3    H240622   2.912   1.009   1.536
 6355TIP3   OH240623   2.497   3.219   1.255
 6355TIP3    H140624   2.500   3.126   1.232
 6355TIP3    H240625   2.439   3.258   1.189
 6356TIP3   OH240626   6.061   2.559   1.115
 6356TIP3    H140627   6.045   2.562   1.021
 6356TIP3    H240628   5.990   2.612   1.153
 6357TIP3   OH240629   3.823   5.100   0.037
 6357TIP3    H140630   3.848   5.100   0.129
 6357TIP3    H240631   3.735   5.064   0.035
 6358TIP3   OH240632   5.719   6.257   1.400
 6358TIP3    H140633   5.637   6.239   1.355
 6358TIP3    H240634   5.783   6.201   1.355
 6359TIP3   OH240635   3.591   1.976   7.277
 6359TIP3    H140636   3.650   2.033   7.326
 6359TIP3    H240637   3.650   1.912   7.236
 6360TIP3   OH240638   3.864   1.472   8.157
 6360TIP3    H140639   3.856   1.424   8.075
 6360TIP3    H240640   3.910   1.553   8.134
 6361TIP3   OH240641   6.650   0.849   0.317
 6361TIP3    H140642   6.721   0.852   0.381
 6361TIP3    H240643   6.657   0.761   0.279
 6362TIP3   OH240644   3.070   3.938   7.776
 6362TIP3    H140645   3.115   3.984   7.847
 6362TIP3    H240646   2.993   3.992   7.758
 6363TIP3   OH240647   6.873   5.021   7.698
 6363TIP3    H140648   6.825   5.058   7.773
 6363TIP3    H240649   6.865   4.926   7.710
 6364TIP3   OH240650   3.122   4.587   1.449
 6364TIP3    H140651   3.211   4.562   1.427
 6364TIP3    H240652   3.087   4.626   1.369
 6365TIP3   OH240653   4.162   3.812   1.636
 6365TIP3    H140654   4.084   3.810   1.690
 6365TIP3    H240655   4.214   3.737   1.665
 6366TIP3   OH240656   4.036   4.905   7.441
 6366TIP3    H140657   4.124   4.925   7.474
 6366TIP3    H240658   4.050   4.839   7.373
 6367TIP3   OH240659   1.500   6.781   8.272
 6367TIP3    H140660   1.463   6.709   8.324
 6367TIP3    H240661   1.431   6.847   8.270
 6368TIP3   OH240662   6.763   0.887   6.898
 6368TIP3    H140663   6.682   0.934   6.877
 6368TIP3    H240664   6.753   0.860   6.989
 6369TIP3   OH240665   5.210   5.967   0.569
 6369TIP3    H140666   5.180   5.899   0.630
 6369TIP3    H240667   5.148   6.038   0.581
 6370TIP3   OH240668   3.505   4.658   8.156
 6370TIP3    H140669   3.560   4.591   8.115
 6370TIP3    H240670   3.450   4.690   8.085
 6371TIP3   OH240671   1.789   3.120   7.465
 6371TIP3    H140672   1.769   3.200   7.514
 6371TIP3    H240673   1.722   3.117   7.397
 6372TIP3   OH240674   6.625   3.756   7.503
 6372TIP3    H140675   6.709   3.772   7.459
 6372TIP3    H240676   6.650   3.718   7.587
 6373TIP3   OH240677   0.906   6.125   0.980
 6373TIP3    H140678   0.848   6.190   0.940
 6373TIP3    H240679   0.931   6.068   0.908
 6374TIP3   OH240680   1.603   4.083   6.644
 6374TIP3    H140681   1.569   4.042   6.564
 6374TIP3    H240682   1.571   4.027   6.715
 6375TIP3   OH240683   5.356   1.932   0.982
 6375TIP3    H140684   5.335   1.899   1.070
 6375TIP3    H240685   5.275   1.972   0.952
 6376TIP3   OH240686   6.044   4.955   7.332
 6376TIP3    H140687   6.035   4.881   7.393
 6376TIP3    H240688   6.008   5.030   7.380
 6377TIP3   OH240689   4.966   5.075   1.366
 6377TIP3    H140690   5.003   5.163   1.357
 6377TIP3    H240691   5.027   5.029   1.424
 6378TIP3   OH240692   1.534   4.655   8.282
 6378TIP3    H140693   1.522   4.582   8.343
 6378TIP3    H240694   1.462   4.646   8.219
 6379TIP3   OH240695   2.419   5.247   6.539
 6379TIP3    H140696   2.410   5.152   6.526
 6379TIP3    H240697   2.353   5.285   6.481
 6380TIP3   OH240698   4.573   5.079   1.147
 6380TIP3    H140699   4.657   5.039   1.169
 6380TIP3    H240700   4.508   5.012   1.166
 6381TIP3   OH240701   5.177   0.274   7.476
 6381TIP3    H140702   5.193   0.239   7.389
 6381TIP3    H240703   5.143   0.200   7.527
 6382TIP3   OH240704   2.358   1.217   7.976
 6382TIP3    H140705   2.419   1.207   8.048
 6382TIP3    H240706   2.346   1.312   7.967
 6383TIP3   OH240707   5.805   5.932   8.207
 6383TIP3    H140708   5.893   5.956   8.237
 6383TIP3    H240709   5.812   5.839   8.185
 6384TIP3   OH240710   2.908   2.604   7.554
 6384TIP3    H140711   2.957   2.611   7.636
 6384TIP3    H240712   2.851   2.528   7.567
 6385TIP3   OH240713   6.007   2.610   8.637
 6385TIP3    H140714   6.026   2.654   0.058
 6385TIP3    H240715   6.082   2.630   8.582
 6386TIP3   OH240716   5.150   4.354   8.078
 6386TIP3    H140717   5.142   4.329   7.986
 6386TIP3    H240718   5.080   4.417   8.092
 6387TIP3   OH240719   0.063   5.815   0.438
 6387TIP3    H140720   0.044   5.800   0.345
 6387TIP3    H240721   0.031   5.903   0.455
 6388TIP3   OH240722   0.723   6.004   7.528
 6388TIP3    H140723   0.635   6.003   7.567
 6388TIP3    H240724   0.734   6.093   7.495
 6389TIP3   OH240725   1.646   3.132   7.209
 6389TIP3    H140726   1.585   3.195   7.246
 6389TIP3    H240727   1.592   3.071   7.160
 6390TIP3   OH240728   6.865   2.296   0.264
 6390TIP3    H140729   6.773   2.271   0.267
 6390TIP3    H240730   6.865   2.391   0.282
 6391TIP3   OH240731   3.191   1.724   7.214
 6391TIP3    H140732   3.120   1.703   7.153
 6391TIP3    H240733   3.182   1.818   7.229
 6392TIP3   OH240734   6.538   6.558   0.125
 6392TIP3    H140735   6.503   6.486   0.177
 6392TIP3    H240736   6.519   6.636   0.177
 6393TIP3   OH240737   0.322   1.031   8.279
 6393TIP3    H140738   0.399   0.984   8.246
 6393TIP3    H240739   0.248   0.990   8.233
 6394TIP3   OH240740   0.950   5.867   8.218
 6394TIP3    H140741   0.927   5.842   8.307
 6394TIP3    H240742   0.955   5.963   8.220
 6395TIP3   OH240743   4.285   5.701   8.601
 6395TIP3    H140744   4.369   5.748   8.595
 6395TIP3    H240745   4.285   5.662   0.026
 6396TIP3   OH240746   3.173   2.872   7.196
 6396TIP3    H140747   3.143   2.902   7.111
 6396TIP3    H240748   3.238   2.938   7.222
 6397TIP3   OH240749   4.704   0.385   7.488
 6397TIP3    H140750   4.720   0.297   7.455
 6397TIP3    H240751   4.612   0.385   7.514
 6398TIP3   OH240752   6.796   5.441   2.139
 6398TIP3    H140753   6.881   5.399   2.155
 6398TIP3    H240754   6.818   5.527   2.103
 6399TIP3   OH240755   4.577   3.474   7.579
 6399TIP3    H140756   4.615   3.388   7.599
 6399TIP3    H240757   4.524   3.460   7.501
 6400TIP3   OH240758   6.653   0.215   7.328
 6400TIP3    H140759   6.716   0.173   7.387
 6400TIP3    H240760   6.704   0.281   7.281
 6401TIP3   OH240761   6.138   0.161   1.378
 6401TIP3    H140762   6.158   0.164   1.285
 6401TIP3    H240763   6.172   0.077   1.407
 6402TIP3   OH240764   4.368   6.578   1.618
 6402TIP3    H140765   4.344   6.557   1.527
 6402TIP3    H240766   4.360   6.495   1.664
 6403TIP3   OH240767   4.016   4.797   0.181
 6403TIP3    H140768   4.059   4.863   0.236
 6403TIP3    H240769   3.924   4.802   0.204
 6404TIP3   OH240770   1.132   0.179   0.278
 6404TIP3    H140771   1.199   0.165   0.211
 6404TIP3    H240772   1.178   0.163   0.361
 6405TIP3   OH240773   5.572   5.087   7.275
 6405TIP3    H140774   5.524   5.031   7.214
 6405TIP3    H240775   5.625   5.026   7.327
 6406TIP3   OH240776   4.947   6.753   8.410
 6406TIP3    H140777   5.009   6.750   8.483
 6406TIP3    H240778   4.995   6.716   8.336
 6407TIP3   OH240779   2.857   4.379   7.966
 6407TIP3    H140780   2.918   4.320   7.924
 6407TIP3    H240781   2.778   4.326   7.981
 6408TIP3   OH240782   6.707   6.239   2.488
 6408TIP3    H140783   6.726   6.151   2.521
 6408TIP3    H240784   6.772   6.255   2.421
 6409TIP3   OH240785   3.262   0.595   6.463
 6409TIP3    H140786   3.227   0.567   6.548
 6409TIP3    H240787   3.356   0.607   6.478
 6410TIP3   OH240788   5.583   6.149   7.719
 6410TIP3    H140789   5.635   6.227   7.699
 6410TIP3    H240790   5.503   6.183   7.758
 6411TIP3   OH240791   6.239   3.161   8.122
 6411TIP3    H140792   6.334   3.158   8.110
 6411TIP3    H240793   6.226   3.235   8.181
 6412TIP3   OH240794   3.419   3.647   6.397
 6412TIP3    H140795   3.475   3.590   6.344
 6412TIP3    H240796   3.344   3.592   6.419
 6413TIP3   OH240797   0.163   2.208   8.571
 6413TIP3    H140798   0.137   2.296   8.599
 6413TIP3    H240799   0.150   2.209   8.476
 6414TIP3   OH240800   5.900   2.317   7.211
 6414TIP3    H140801   5.877   2.382   7.145
 6414TIP3    H240802   5.885   2.233   7.167
 6415TIP3   OH240803   0.092   0.555   2.354
 6415TIP3    H140804   0.051   0.469   2.362
 6415TIP3    H240805   0.106   0.584   2.445
 6416TIP3   OH240806   1.432   0.342   1.382
 6416TIP3    H140807   1.449   0.436   1.378
 6416TIP3    H240808   1.337   0.335   1.372
 6417TIP3   OH240809   0.798   2.460   2.184
 6417TIP3    H140810   0.818   2.368   2.202
 6417TIP3    H240811   0.884   2.503   2.184
 6418TIP3   OH240812   0.070   2.233   8.316
 6418TIP3    H140813   6.863   2.231   8.294
 6418TIP3    H240814   0.114   2.235   8.231
 6419TIP3   OH240815   0.549   4.351   8.562
 6419TIP3    H140816   0.516   4.310   8.642
 6419TIP3    H240817   0.473   4.395   8.525
 6420TIP3   OH240818   6.371   3.644   0.230
 6420TIP3    H140819   6.282   3.677   0.239
 6420TIP3    H240820   6.361   3.549   0.218
 6421TIP3   OH240821   1.650   1.752   7.296
 6421TIP3    H140822   1.666   1.786   7.384
 6421TIP3    H240823   1.683   1.662   7.299
 6422TIP3   OH240824   4.853   0.220   8.227
 6422TIP3    H140825   4.864   0.143   8.284
 6422TIP3    H240826   4.918   0.207   8.158
 6423TIP3   OH240827   2.074   1.961   1.669
 6423TIP3    H140828   2.073   1.922   1.757
 6423TIP3    H240829   1.997   1.924   1.626
 6424TIP3   OH240830   0.076   2.204   6.982
 6424TIP3    H140831   0.114   2.153   6.910
 6424TIP3    H240832   0.145   2.205   7.049
 6425TIP3   OH240833   3.912   2.380   6.773
 6425TIP3    H140834   3.966   2.306   6.801
 6425TIP3    H240835   3.871   2.351   6.692
 6426TIP3   OH240836   5.599   5.950   1.681
 6426TIP3    H140837   5.595   6.043   1.701
 6426TIP3    H240838   5.652   5.912   1.750
 6427TIP3   OH240839   6.359   4.956   1.296
 6427TIP3    H140840   6.366   5.035   1.350
 6427TIP3    H240841   6.268   4.928   1.305
 6428TIP3   OH240842   3.315   6.310   1.121
 6428TIP3    H140843   3.326   6.256   1.199
 6428TIP3    H240844   3.402   6.312   1.080
 6429TIP3   OH240845   5.907   4.751   1.238
 6429TIP3    H140846   5.892   4.777   1.147
 6429TIP3    H240847   5.851   4.675   1.250
 6430TIP3   OH240848   5.613   2.656   7.482
 6430TIP3    H140849   5.519   2.646   7.473
 6430TIP3    H240850   5.626   2.681   7.574
 6431TIP3   OH240851   1.528   4.429   0.696
 6431TIP3    H140852   1.623   4.423   0.683
 6431TIP3    H240853   1.493   4.350   0.653
 6432TIP3   OH240854   3.215   4.202   8.183
 6432TIP3    H140855   3.307   4.188   8.158
 6432TIP3    H240856   3.205   4.297   8.186
 6433TIP3   OH240857   1.840   5.357   1.611
 6433TIP3    H140858   1.866   5.265   1.614
 6433TIP3    H240859   1.858   5.384   1.521
 6434TIP3   OH240860   2.944   0.551   0.131
 6434TIP3    H140861   3.013   0.561   0.196
 6434TIP3    H240862   2.871   0.512   0.180
 6435TIP3   OH240863   1.635   0.480   7.148
 6435TIP3    H140864   1.679   0.398   7.127
 6435TIP3    H240865   1.683   0.513   7.225
 6436TIP3   OH240866   3.047   4.698   2.188
 6436TIP3    H140867   3.013   4.786   2.200
 6436TIP3    H240868   2.970   4.643   2.181
 6437TIP3   OH240869   6.436   5.921   7.167
 6437TIP3    H140870   6.433   5.899   7.260
 6437TIP3    H240871   6.397   5.846   7.122
 6438TIP3   OH240872   5.376   2.476   1.942
 6438TIP3    H140873   5.462   2.509   1.969
 6438TIP3    H240874   5.384   2.464   1.847
 6439TIP3   OH240875   3.808   1.330   0.567
 6439TIP3    H140876   3.712   1.321   0.567
 6439TIP3    H240877   3.824   1.410   0.516
 6440TIP3   OH240878   1.459   1.508   7.655
 6440TIP3    H140879   1.532   1.504   7.592
 6440TIP3    H240880   1.390   1.556   7.609
 6441TIP3   OH240881   4.761   2.457   8.501
 6441TIP3    H140882   4.700   2.387   8.477
 6441TIP3    H240883   4.829   2.453   8.434
 6442TIP3   OH240884   2.597   2.186   6.924
 6442TIP3    H140885   2.625   2.255   6.865
 6442TIP3    H240886   2.626   2.105   6.882
 6443TIP3   OH240887   4.268   5.595   0.500
 6443TIP3    H140888   4.317   5.603   0.418
 6443TIP3    H240889   4.193   5.654   0.489
 6444TIP3   OH240890   5.874   1.379   7.715
 6444TIP3    H140891   5.862   1.468   7.681
 6444TIP3    H240892   5.829   1.380   7.800
 6445TIP3   OH240893   1.832   6.268   8.165
 6445TIP3    H140894   1.799   6.314   8.242
 6445TIP3    H240895   1.918   6.307   8.148
 6446TIP3   OH240896   4.349   5.459   7.474
 6446TIP3    H140897   4.411   5.485   7.405
 6446TIP3    H240898   4.392   5.386   7.519
 6447TIP3   OH240899   6.772   4.086   0.818
 6447TIP3    H140900   6.848   4.106   0.763
 6447TIP3    H240901   6.764   3.990   0.815
 6448TIP3   OH240902   6.141   1.658   0.537
 6448TIP3    H140903   6.235   1.653   0.522
 6448TIP3    H240904   6.105   1.695   0.457
 6449TIP3   OH240905   6.140   2.910   7.993
 6449TIP3    H140906   6.116   2.952   7.911
 6449TIP3    H240907   6.173   2.982   8.048
 6450TIP3   OH240908   5.584   5.118   1.069
 6450TIP3    H140909   5.642   5.065   1.013
 6450TIP3    H240910   5.517   5.056   1.099
 6451TIP3   OH240911   3.905   0.592   0.145
 6451TIP3    H140912   3.996   0.604   0.173
 6451TIP3    H240913   3.875   0.681   0.125
 6452TIP3   OH240914   4.695   3.975   1.359
 6452TIP3    H140915   4.757   3.990   1.430
 6452TIP3    H240916   4.726   3.896   1.315
 6453TIP3   OH240917   6.668   2.708   0.941
 6453TIP3    H140918   6.641   2.622   0.975
 6453TIP3    H240919   6.635   2.709   0.851
 6454TIP3   OH240920   5.073   3.821   0.478
 6454TIP3    H140921   5.100   3.853   0.565
 6454TIP3    H240922   4.978   3.819   0.482
 6455TIP3   OH240923   5.915   6.038   6.646
 6455TIP3    H140924   5.996   6.000   6.612
 6455TIP3    H240925   5.871   6.073   6.569
 6456TIP3   OH240926   2.524   5.538   0.360
 6456TIP3    H140927   2.605   5.521   0.311
 6456TIP3    H240928   2.503   5.454   0.401
 6457TIP3   OH240929   6.723   0.598   1.916
 6457TIP3    H140930   6.687   0.588   2.004
 6457TIP3    H240931   6.755   0.688   1.913
 6458TIP3   OH240932   0.096   1.706   0.403
 6458TIP3    H140933   0.136   1.625   0.372
 6458TIP3    H240934   0.153   1.775   0.370
 6459TIP3   OH240935   3.580   6.517   8.281
 6459TIP3    H140936   3.650   6.582   8.287
 6459TIP3    H240937   3.625   6.434   8.269
 6460TIP3   OH240938   6.133   1.736   1.481
 6460TIP3    H140939   6.181   1.653   1.470
 6460TIP3    H240940   6.089   1.728   1.565
 6461TIP3   OH240941   3.536   2.564   8.023
 6461TIP3    H140942   3.446   2.593   8.036
 6461TIP3    H240943   3.578   2.578   8.108
 6462TIP3   OH240944   1.625   6.847   7.277
 6462TIP3    H140945   1.682   6.825   7.351
 6462TIP3    H240946   1.662   6.798   7.203
 6463TIP3   OH240947   6.603   4.307   0.860
 6463TIP3    H140948   6.657   4.229   0.850
 6463TIP3    H240949   6.532   4.295   0.797
 6464TIP3   OH240950   5.130   2.012   0.856
 6464TIP3    H140951   5.042   2.042   0.876
 6464TIP3    H240952   5.117   1.928   0.812
 6465TIP3   OH240953   5.347   4.086   7.078
 6465TIP3    H140954   5.308   4.019   7.135
 6465TIP3    H240955   5.418   4.123   7.130
 6466TIP3   OH240956   3.774   4.866   0.251
 6466TIP3    H140957   3.807   4.949   0.285
 6466TIP3    H240958   3.702   4.843   0.309
 6467TIP3   OH240959   4.289   6.850   6.851
 6467TIP3    H140960   4.328   0.009   6.926
 6467TIP3    H240961   4.330   6.763   6.852
 6468TIP3   OH240962   6.037   2.311   2.643
 6468TIP3    H140963   6.057   2.361   2.722
 6468TIP3    H240964   5.942   2.295   2.649
 6469TIP3   OH240965   0.722   3.241   6.908
 6469TIP3    H140966   0.756   3.194   6.832
 6469TIP3    H240967   0.756   3.330   6.898
 6470TIP3   OH240968   4.153   2.067   1.188
 6470TIP3    H140969   4.080   2.087   1.247
 6470TIP3    H240970   4.149   2.138   1.123
 6471TIP3   OH240971   0.358   6.020   0.264
 6471TIP3    H140972   0.309   5.937   0.268
 6471TIP3    H240973   0.304   6.076   0.209
 6472TIP3   OH240974   2.395   3.150   7.950
 6472TIP3    H140975   2.315   3.113   7.988
 6472TIP3    H240976   2.457   3.077   7.951
 6473TIP3   OH240977   3.974   1.893   1.052
 6473TIP3    H140978   3.996   1.981   1.081
 6473TIP3    H240979   4.052   1.863   1.005
 6474TIP3   OH240980   2.187   4.847   7.443
 6474TIP3    H140981   2.247   4.914   7.409
 6474TIP3    H240982   2.130   4.826   7.369
 6475TIP3   OH240983   1.371   4.715   1.460
 6475TIP3    H140984   1.399   4.742   1.547
 6475TIP3    H240985   1.337   4.795   1.420
 6476TIP3   OH240986   1.715   2.557   1.354
 6476TIP3    H140987   1.690   2.467   1.335
 6476TIP3    H240988   1.791   2.549   1.412
 6477TIP3   OH240989   6.016   0.760   1.481
 6477TIP3    H140990   6.072   0.825   1.436
 6477TIP3    H240991   5.996   0.800   1.565
 6478TIP3   OH240992   6.844   4.225   6.634
 6478TIP3    H140993   0.004   4.197   6.555
 6478TIP3    H240994   6.804   4.144   6.667
 6479TIP3   OH240995   4.234   2.174   7.570
 6479TIP3    H140996   4.311   2.122   7.592
 6479TIP3    H240997   4.180   2.117   7.515
 6480TIP3   OH240998   4.453   0.206   7.082
 6480TIP3    H140999   4.398   0.218   7.005
 6480TIP3    H241000   4.526   0.267   7.070
 6481TIP3   OH241001   4.526   2.239   8.418
 6481TIP3    H141002   4.492   2.222   8.331
 6481TIP3    H241003   4.578   2.162   8.439
 6482TIP3   OH241004   4.328   0.439   2.245
 6482TIP3    H141005   4.309   0.345   2.248
 6482TIP3    H241006   4.397   0.452   2.309
 6483TIP3   OH241007   2.140   4.924   0.075
 6483TIP3    H141008   2.115   4.898   0.163
 6483TIP3    H241009   2.063   4.907   0.021
 6484TIP3   OH241010   3.326   2.615   2.384
 6484TIP3    H141011   3.386   2.678   2.346
 6484TIP3    H241012   3.323   2.544   2.320
 6485TIP3   OH241013   1.283   0.028   6.371
 6485TIP3    H141014   1.251   0.119   6.365
 6485TIP3    H241015   1.203   6.861   6.367
 6486TIP3   OH241016   6.470   1.636   1.867
 6486TIP3    H141017   6.484   1.692   1.943
 6486TIP3    H241018   6.502   1.550   1.895
 6487TIP3   OH241019   0.483   1.719   2.070
 6487TIP3    H141020   0.572   1.729   2.037
 6487TIP3    H241021   0.494   1.670   2.152
 6488TIP3   OH241022   4.107   3.276   7.524
 6488TIP3    H141023   4.148   3.356   7.489
 6488TIP3    H241024   4.114   3.286   7.619
 6489TIP3   OH241025   2.759   6.337   1.740
 6489TIP3    H141026   2.795   6.323   1.827
 6489TIP3    H241027   2.808   6.411   1.704
 6490TIP3   OH241028   0.789   1.870   2.658
 6490TIP3    H141029   0.785   1.929   2.582
 6490TIP3    H241030   0.736   1.913   2.724
 6491TIP3   OH241031   2.548   6.731   8.361
 6491TIP3    H141032   2.488   6.803   8.342
 6491TIP3    H241033   2.531   6.708   8.452
 6492TIP3   OH241034   3.507   1.925   8.625
 6492TIP3    H141035   3.412   1.921   8.632
 6492TIP3    H241036   3.538   1.856   0.021
 6493TIP3   OH241037   4.807   5.004   1.154
 6493TIP3    H141038   4.884   4.978   1.104
 6493TIP3    H241039   4.839   5.019   1.243
 6494TIP3   OH241040   3.142   2.165   1.621
 6494TIP3    H141041   3.220   2.196   1.666
 6494TIP3    H241042   3.086   2.132   1.691
 6495TIP3   OH241043   5.737   2.478   1.593
 6495TIP3    H141044   5.788   2.424   1.654
 6495TIP3    H241045   5.783   2.469   1.509
 6496TIP3   OH241046   1.076   0.835   7.972
 6496TIP3    H141047   1.002   0.802   8.023
 6496TIP3    H241048   1.037   0.869   7.892
 6497TIP3   OH241049   2.826   2.711   7.124
 6497TIP3    H141050   2.863   2.630   7.160
 6497TIP3    H241051   2.846   2.777   7.191
 6498TIP3   OH241052   1.758   0.819   8.412
 6498TIP3    H141053   1.805   0.831   8.329
 6498TIP3    H241054   1.696   0.891   8.416
 6499TIP3   OH241055   2.538   6.400   8.541
 6499TIP3    H141056   2.622   6.435   8.510
 6499TIP3    H241057   2.507   6.346   8.469
 6500TIP3   OH241058   5.502   0.026   8.073
 6500TIP3    H141059   5.492   6.833   8.019
 6500TIP3    H241060   5.415   0.066   8.073
 6501TIP3   OH241061   4.655   6.035   6.945
 6501TIP3    H141062   4.648   6.131   6.944
 6501TIP3    H241063   4.621   6.008   6.860
 6502TIP3   OH241064   6.114   4.777   8.448
 6502TIP3    H141065   6.115   4.756   8.541
 6502TIP3    H241066   6.206   4.787   8.425
 6503TIP3   OH241067   3.772   3.738   2.210
 6503TIP3    H141068   3.832   3.752   2.137
 6503TIP3    H241069   3.793   3.807   2.272
 6504TIP3   OH241070   6.131   0.588   8.601
 6504TIP3    H141071   6.131   0.676   8.564
 6504TIP3    H241072   6.214   0.581   8.649
 6505TIP3   OH241073   3.453   6.331   7.899
 6505TIP3    H141074   3.423   6.271   7.967
 6505TIP3    H241075   3.493   6.274   7.832
 6506TIP3   OH241076   5.562   2.291   0.291
 6506TIP3    H141077   5.629   2.287   0.359
 6506TIP3    H241078   5.552   2.200   0.262
 6507TIP3   OH241079   4.245   1.324   1.306
 6507TIP3    H141080   4.175   1.382   1.338
 6507TIP3    H241081   4.199   1.258   1.255
 6508TIP3   OH241082   3.151   6.341   0.856
 6508TIP3    H141083   3.212   6.413   0.842
 6508TIP3    H241084   3.171   6.310   0.945
 6509TIP3   OH241085   4.629   1.825   6.575
 6509TIP3    H141086   4.627   1.743   6.625
 6509TIP3    H241087   4.556   1.876   6.609
 6510TIP3   OH241088   6.594   6.667   7.740
 6510TIP3    H141089   6.550   6.680   7.824
 6510TIP3    H241090   6.581   6.575   7.720
 6511TIP3   OH241091   4.631   1.962   6.884
 6511TIP3    H141092   4.714   1.965   6.837
 6511TIP3    H241093   4.656   1.946   6.975
 6512TIP3   OH241094   2.254   0.337   0.221
 6512TIP3    H141095   2.347   0.359   0.221
 6512TIP3    H241096   2.211   0.414   0.183
 6513TIP3   OH241097   5.850   2.835   8.036
 6513TIP3    H141098   5.862   2.740   8.034
 6513TIP3    H241099   5.933   2.870   8.003
 6514TIP3   OH241100   5.497   0.904   7.316
 6514TIP3    H141101   5.480   0.933   7.406
 6514TIP3    H241102   5.584   0.939   7.296
 6515TIP3   OH241103   2.956   1.708   8.168
 6515TIP3    H141104   2.921   1.781   8.119
 6515TIP3    H241105   2.880   1.668   8.210
 6516TIP3   OH241106   4.148   0.909   6.145
 6516TIP3    H141107   4.231   0.913   6.097
 6516TIP3    H241108   4.145   0.820   6.181
 6517TIP3   OH241109   5.146   1.265   8.512
 6517TIP3    H141110   5.101   1.269   8.596
 6517TIP3    H241111   5.225   1.317   8.525
 6518TIP3   OH241112   4.590   2.080   8.178
 6518TIP3    H141113   4.554   1.991   8.175
 6518TIP3    H241114   4.541   2.128   8.111
 6519TIP3   OH241115   3.687   3.773   7.135
 6519TIP3    H141116   3.694   3.718   7.057
 6519TIP3    H241117   3.642   3.718   7.199
 6520TIP3   OH241118   2.927   0.988   1.884
 6520TIP3    H141119   2.952   0.955   1.797
 6520TIP3    H241120   2.906   0.909   1.934
 6521TIP3   OH241121   1.217   0.082   1.575
 6521TIP3    H141122   1.176   6.883   1.566
 6521TIP3    H241123   1.255   0.081   1.663
 6522TIP3   OH241124   3.181   5.774   6.549
 6522TIP3    H141125   3.217   5.691   6.517
 6522TIP3    H241126   3.086   5.764   6.540
 6523TIP3   OH241127   5.599   0.410   8.129
 6523TIP3    H141128   5.639   0.490   8.096
 6523TIP3    H241129   5.550   0.375   8.054
 6524TIP3   OH241130   1.949   1.929   6.560
 6524TIP3    H141131   1.996   1.925   6.476
 6524TIP3    H241132   1.857   1.934   6.536
 6525TIP3   OH241133   2.641   6.340   0.759
 6525TIP3    H141134   2.566   6.377   0.712
 6525TIP3    H241135   2.675   6.272   0.700
 6526TIP3   OH241136   6.726   2.996   0.997
 6526TIP3    H141137   6.760   3.028   0.913
 6526TIP3    H241138   6.666   2.926   0.973
 6527TIP3   OH241139   3.424   5.852   1.295
 6527TIP3    H141140   3.429   5.809   1.210
 6527TIP3    H241141   3.452   5.785   1.357
 6528TIP3   OH241142   5.671   6.824   7.136
 6528TIP3    H141143   5.713   0.014   7.097
 6528TIP3    H241144   5.618   6.860   7.207
 6529TIP3   OH241145   2.579   3.895   0.541
 6529TIP3    H141146   2.523   3.837   0.592
 6529TIP3    H241147   2.662   3.897   0.589
 6530TIP3   OH241148   4.142   4.480   8.516
 6530TIP3    H141149   4.187   4.505   8.436
 6530TIP3    H241150   4.093   4.401   8.493
 6531TIP3   OH241151   6.000   6.817   0.608
 6531TIP3    H141152   6.062   0.002   0.593
 6531TIP3    H241153   5.914   6.856   0.589
 6532TIP3   OH241154   3.219   4.037   6.993
 6532TIP3    H141155   3.283   3.976   7.029
 6532TIP3    H241156   3.270   4.096   6.937
 6533TIP3   OH241157   6.267   2.417   0.369
 6533TIP3    H141158   6.212   2.341   0.388
 6533TIP3    H241159   6.265   2.468   0.450
 6534TIP3   OH241160   3.277   1.306   8.536
 6534TIP3    H141161   3.310   1.296   8.446
 6534TIP3    H241162   3.322   1.384   8.569
 6535TIP3   OH241163   1.834   6.585   1.385
 6535TIP3    H141164   1.866   6.508   1.339
 6535TIP3    H241165   1.856   6.658   1.328
 6536TIP3   OH241166   2.891   0.836   2.208
 6536TIP3    H141167   2.836   0.820   2.131
 6536TIP3    H241168   2.967   0.882   2.173
 6537TIP3   OH241169   5.691   0.218   2.612
 6537TIP3    H141170   5.647   0.177   2.686
 6537TIP3    H241171   5.760   0.156   2.587
 6538TIP3   OH241172   0.792   3.774   8.573
 6538TIP3    H141173   0.758   3.687   8.593
 6538TIP3    H241174   0.884   3.772   8.599
 6539TIP3   OH241175   4.958   1.017   0.339
 6539TIP3    H141176   5.032   0.967   0.306
 6539TIP3    H241177   4.991   1.107   0.343
 6540TIP3   OH241178   4.726   4.065   6.301
 6540TIP3    H141179   4.773   4.113   6.233
 6540TIP3    H241180   4.778   4.079   6.380
 6541TIP3   OH241181   1.514   1.415   8.535
 6541TIP3    H141182   1.461   1.461   8.600
 6541TIP3    H241183   1.597   1.398   8.579
 6542TIP3   OH241184   2.457   1.299   8.450
 6542TIP3    H141185   2.388   1.304   8.516
 6542TIP3    H241186   2.456   1.384   8.407
 6543TIP3   OH241187   6.407   1.786   1.663
 6543TIP3    H141188   6.409   1.725   1.737
 6543TIP3    H241189   6.317   1.819   1.661
 6544TIP3   OH241190   5.082   6.205   2.269
 6544TIP3    H141191   5.103   6.297   2.256
 6544TIP3    H241192   4.987   6.200   2.261
 6545TIP3   OH241193   0.980   5.894   0.354
 6545TIP3    H141194   0.904   5.917   0.408
 6545TIP3    H241195   1.048   5.954   0.383
 6546TIP3   OH241196   3.361   6.094   1.355
 6546TIP3    H141197   3.394   6.101   1.445
 6546TIP3    H241198   3.395   6.010   1.323
 6547TIP3   OH241199   2.349   0.560   0.697
 6547TIP3    H141200   2.276   0.583   0.755
 6547TIP3    H241201   2.417   0.625   0.717
 6548TIP3   OH241202   3.898   2.465   1.169
 6548TIP3    H141203   3.895   2.370   1.176
 6548TIP3    H241204   3.866   2.484   1.081
 6549TIP3   OH241205   4.295   4.455   7.197
 6549TIP3    H141206   4.282   4.371   7.241
 6549TIP3    H241207   4.293   4.520   7.267
 6550TIP3   OH241208   4.313   4.731   1.357
 6550TIP3    H141209   4.337   4.801   1.296
 6550TIP3    H241210   4.230   4.697   1.323
 6551TIP3   OH241211   5.198   3.554   8.612
 6551TIP3    H141212   5.225   3.580   0.038
 6551TIP3    H241213   5.234   3.466   8.600
 6552TIP3   OH241214   4.574   2.032   1.431
 6552TIP3    H141215   4.561   2.018   1.337
 6552TIP3    H241216   4.505   1.979   1.473
 6553TIP3   OH241217   1.482   6.702   7.832
 6553TIP3    H141218   1.413   6.763   7.859
 6553TIP3    H241219   1.540   6.754   7.777
 6554TIP3   OH241220   0.469   4.539   1.100
 6554TIP3    H141221   0.386   4.585   1.091
 6554TIP3    H241222   0.531   4.590   1.048
 6555TIP3   OH241223   0.784   0.462   1.285
 6555TIP3    H141224   0.870   0.489   1.253
 6555TIP3    H241225   0.731   0.452   1.207
 6556TIP3   OH241226   1.866   0.678   8.645
 6556TIP3    H141227   1.832   0.724   8.568
 6556TIP3    H241228   1.891   0.592   8.612
 6557TIP3   OH241229   4.425   3.865   7.060
 6557TIP3    H141230   4.347   3.861   7.003
 6557TIP3    H241231   4.429   3.778   7.100
 6558TIP3   OH241232   6.030   1.858   1.711
 6558TIP3    H141233   6.090   1.927   1.683
 6558TIP3    H241234   6.031   1.862   1.807
 6559TIP3   OH241235   2.455   3.328   7.448
 6559TIP3    H141236   2.516   3.272   7.401
 6559TIP3    H241237   2.495   3.339   7.535
 6560TIP3   OH241238   5.802   4.206   8.589
 6560TIP3    H141239   5.815   4.115   8.616
 6560TIP3    H241240   5.765   4.249   0.004
 6561TIP3   OH241241   5.484   3.330   1.034
 6561TIP3    H141242   5.572   3.341   1.069
 6561TIP3    H241243   5.427   3.357   1.106
 6562TIP3   OH241244   1.729   4.188   1.488
 6562TIP3    H141245   1.664   4.255   1.468
 6562TIP3    H241246   1.796   4.197   1.420
 6563TIP3   OH241247   4.348   6.000   7.116
 6563TIP3    H141248   4.415   5.932   7.126
 6563TIP3    H241249   4.266   5.956   7.137
 6564TIP3   OH241250   1.996   0.008   7.151
 6564TIP3    H141251   2.082   6.874   7.190
 6564TIP3    H241252   2.013   0.085   7.097
 6565TIP3   OH241253   1.820   3.580   0.280
 6565TIP3    H141254   1.798   3.664   0.241
 6565TIP3    H241255   1.916   3.579   0.284
 6566TIP3   OH241256   2.828   3.812   8.633
 6566TIP3    H141257   2.855   3.898   8.601
 6566TIP3    H241258   2.796   3.766   8.555
 6567TIP3   OH241259   3.673   5.544   1.435
 6567TIP3    H141260   3.628   5.459   1.430
 6567TIP3    H241261   3.765   5.524   1.414
 6568TIP3   OH241262   5.811   3.970   7.549
 6568TIP3    H141263   5.778   3.931   7.630
 6568TIP3    H241264   5.905   3.959   7.554
 6569TIP3   OH241265   6.664   3.139   7.195
 6569TIP3    H141266   6.718   3.091   7.258
 6569TIP3    H241267   6.713   3.135   7.113
 6570TIP3   OH241268   1.116   3.926   7.137
 6570TIP3    H141269   1.116   4.009   7.090
 6570TIP3    H241270   1.120   3.860   7.068
 6571TIP3   OH241271   4.274   6.071   8.615
 6571TIP3    H141272   4.348   6.012   8.600
 6571TIP3    H241273   4.207   6.041   8.554
 6572TIP3   OH241274   0.491   2.527   2.671
 6572TIP3    H141275   0.397   2.508   2.668
 6572TIP3    H241276   0.504   2.592   2.602
 6573TIP3   OH241277   4.815   1.674   0.194
 6573TIP3    H141278   4.744   1.736   0.176
 6573TIP3    H241279   4.825   1.677   0.289
 6574TIP3   OH241280   2.636   4.249   6.662
 6574TIP3    H141281   2.638   4.154   6.668
 6574TIP3    H241282   2.557   4.268   6.611
 6575TIP3   OH241283   4.017   0.876   7.248
 6575TIP3    H141284   3.985   0.888   7.338
 6575TIP3    H241285   4.112   0.877   7.256
 6576TIP3   OH241286   2.887   5.858   8.433
 6576TIP3    H141287   2.837   5.778   8.447
 6576TIP3    H241288   2.848   5.921   8.494
 6577TIP3   OH241289   2.781   0.924   8.550
 6577TIP3    H141290   2.704   0.979   8.565
 6577TIP3    H241291   2.782   0.864   8.624
 6578TIP3   OH241292   2.477   2.202   0.155
 6578TIP3    H141293   2.562   2.220   0.196
 6578TIP3    H241294   2.457   2.282   0.107
 6579TIP3   OH241295   2.874   0.470   8.547
 6579TIP3    H141296   2.959   0.481   8.505
 6579TIP3    H241297   2.888   0.498   8.638
 6580TIP3   OH241298   3.112   0.207   0.614
 6580TIP3    H141299   3.092   0.277   0.676
 6580TIP3    H241300   3.041   0.210   0.550
 6581TIP3   OH241301   5.440   3.130   2.002
 6581TIP3    H141302   5.393   3.213   2.010
 6581TIP3    H241303   5.478   3.131   1.914
 6582TIP3   OH241304   2.414   6.046   8.640
 6582TIP3    H141305   2.413   6.063   8.546
 6582TIP3    H241306   2.330   6.002   8.657
 6583TIP3   OH241307   1.045   1.085   0.690
 6583TIP3    H141308   0.991   1.152   0.648
 6583TIP3    H241309   0.986   1.010   0.702
 6584TIP3   OH241310   4.472   4.596   1.081
 6584TIP3    H141311   4.562   4.584   1.052
 6584TIP3    H241312   4.423   4.527   1.037
 6585TIP3   OH241313   4.171   0.149   0.006
 6585TIP3    H141314   4.184   0.054   0.002
 6585TIP3    H241315   4.116   0.169   8.592
 6586TIP3   OH241316   1.574   3.731   6.624
 6586TIP3    H141317   1.535   3.758   6.541
 6586TIP3    H241318   1.521   3.657   6.653
 6587TIP3   OH241319   1.448   2.014   7.243
 6587TIP3    H141320   1.496   1.995   7.324
 6587TIP3    H241321   1.356   2.015   7.270
 6588TIP3   OH241322   1.714   3.703   7.414
 6588TIP3    H141323   1.626   3.738   7.425
 6588TIP3    H241324   1.752   3.755   7.343
 6589TIP3   OH241325   3.266   3.177   2.083
 6589TIP3    H141326   3.172   3.173   2.098
 6589TIP3    H241327   3.294   3.085   2.083
 6590TIP3   OH241328   6.127   2.322   6.561
 6590TIP3    H141329   6.075   2.390   6.519
 6590TIP3    H241330   6.071   2.289   6.631
 6591TIP3   OH241331   3.997   6.361   2.378
 6591TIP3    H141332   4.064   6.411   2.332
 6591TIP3    H241333   3.960   6.423   2.442
 6592TIP3   OH241334   4.387   2.340   6.414
 6592TIP3    H141335   4.325   2.394   6.364
 6592TIP3    H241336   4.434   2.403   6.468
 6593TIP3   OH241337   5.386   3.148   0.871
 6593TIP3    H141338   5.315   3.111   0.923
 6593TIP3    H241339   5.441   3.193   0.935
 6594TIP3   OH241340   0.080   1.998   7.556
 6594TIP3    H141341   0.032   1.953   7.625
 6594TIP3    H241342   0.129   2.067   7.601
 6595TIP3   OH241343   2.635   0.248   7.009
 6595TIP3    H141344   2.719   0.248   7.054
 6595TIP3    H241345   2.657   0.253   6.916
 6596TIP3   OH241346   1.197   3.634   1.117
 6596TIP3    H141347   1.289   3.639   1.092
 6596TIP3    H241348   1.169   3.726   1.124
 6597TIP3   OH241349   5.629   4.288   8.392
 6597TIP3    H141350   5.546   4.303   8.438
 6597TIP3    H241351   5.674   4.223   8.446
 6598TIP3   OH241352   3.921   2.256   0.778
 6598TIP3    H141353   3.940   2.290   0.691
 6598TIP3    H241354   3.835   2.293   0.800
 6599TIP3   OH241355   6.582   3.884   0.600
 6599TIP3    H141356   6.639   3.885   0.523
 6599TIP3    H241357   6.540   3.798   0.598
 6600TIP3   OH241358   6.788   0.610   7.042
 6600TIP3    H141359   6.768   0.583   6.953
 6600TIP3    H241360   6.714   0.665   7.068
 6601TIP3   OH241361   6.447   0.312   7.609
 6601TIP3    H141362   6.498   0.285   7.686
 6601TIP3    H241363   6.376   0.248   7.604
 6602TIP3   OH241364   6.548   6.352   7.195
 6602TIP3    H141365   6.526   6.324   7.106
 6602TIP3    H241366   6.634   6.314   7.211
 6603TIP3   OH241367   2.687   5.663   8.440
 6603TIP3    H141368   2.651   5.663   8.351
 6603TIP3    H241369   2.611   5.676   8.496
 6604TIP3   OH241370   6.623   0.107   0.631
 6604TIP3    H141371   6.677   0.069   0.700
 6604TIP3    H241372   6.539   0.125   0.673
 6605TIP3   OH241373   3.639   4.376   0.959
 6605TIP3    H141374   3.713   4.340   1.008
 6605TIP3    H241375   3.593   4.299   0.925
 6606TIP3   OH241376   3.204   2.061   7.171
 6606TIP3    H141377   3.188   2.154   7.155
 6606TIP3    H241378   3.274   2.038   7.110
 6607TIP3   OH241379   0.948   2.601   0.866
 6607TIP3    H141380   0.953   2.671   0.800
 6607TIP3    H241381   0.994   2.528   0.825
 6608TIP3   OH241382   2.751   4.273   7.689
 6608TIP3    H141383   2.673   4.219   7.704
 6608TIP3    H241384   2.819   4.232   7.742
 6609TIP3   OH241385   4.557   5.306   0.043
 6609TIP3    H141386   4.594   5.360   8.635
 6609TIP3    H241387   4.633   5.260   0.080
 6610TIP3   OH241388   2.881   3.391   6.761
 6610TIP3    H141389   2.824   3.319   6.737
 6610TIP3    H241390   2.858   3.411   6.852
 6611TIP3   OH241391   3.809   3.283   6.091
 6611TIP3    H141392   3.895   3.245   6.076
 6611TIP3    H241393   3.811   3.312   6.183
 6612TIP3   OH241394   3.889   1.895   8.244
 6612TIP3    H141395   3.958   1.832   8.226
 6612TIP3    H241396   3.833   1.852   8.308
 6613TIP3   OH241397   0.724   6.783   7.123
 6613TIP3    H141398   0.679   6.794   7.039
 6613TIP3    H241399   0.653   6.780   7.187
 6614TIP3   OH241400   1.129   0.351   2.102
 6614TIP3    H141401   1.123   0.261   2.133
 6614TIP3    H241402   1.181   0.396   2.169
 6615TIP3   OH241403   2.846   1.450   0.892
 6615TIP3    H141404   2.880   1.413   0.810
 6615TIP3    H241405   2.752   1.434   0.888
 6616TIP3   OH241406   0.624   5.217   1.132
 6616TIP3    H141407   0.601   5.309   1.120
 6616TIP3    H241408   0.711   5.219   1.172
 6617TIP3   OH241409   6.228   3.657   0.828
 6617TIP3    H141410   6.160   3.654   0.894
 6617TIP3    H241411   6.284   3.729   0.854
 6618TIP3   OH241412   3.554   6.825   6.644
 6618TIP3    H141413   3.633   6.808   6.593
 6618TIP3    H241414   3.494   6.865   6.580
 6619TIP3   OH241415   1.808   2.078   1.511
 6619TIP3    H141416   1.835   2.127   1.589
 6619TIP3    H241417   1.774   1.995   1.546
 6620TIP3   OH241418   0.134   4.092   6.452
 6620TIP3    H141419   0.216   4.108   6.500
 6620TIP3    H241420   0.156   4.022   6.391
 6621TIP3   OH241421   5.688   2.003   8.436
 6621TIP3    H141422   5.647   2.069   8.492
 6621TIP3    H241423   5.700   2.046   8.352
 6622TIP3   OH241424   6.158   0.838   8.474
 6622TIP3    H141425   6.074   0.882   8.459
 6622TIP3    H241426   6.208   0.901   8.526
 6623TIP3   OH241427   0.929   3.644   7.816
 6623TIP3    H141428   0.849   3.631   7.765
 6623TIP3    H241429   0.944   3.739   7.813
 6624TIP3   OH241430   6.246   6.570   6.149
 6624TIP3    H141431   6.324   6.604   6.193
 6624TIP3    H241432   6.173   6.610   6.195
 6625TIP3   OH241433   0.661   6.633   8.363
 6625TIP3    H141434   0.734   6.693   8.376
 6625TIP3    H241435   0.622   6.660   8.280
 6626TIP3   OH241436   2.742   0.330   0.428
 6626TIP3    H141437   2.672   0.282   0.473
 6626TIP3    H241438   2.808   0.263   0.409
 6627TIP3   OH241439   3.676   2.110   2.567
 6627TIP3    H141440   3.737   2.093   2.495
 6627TIP3    H241441   3.723   2.171   2.625
 6628TIP3   OH241442   4.260   6.312   0.100
 6628TIP3    H141443   4.281   6.296   0.192
 6628TIP3    H241444   4.289   6.232   0.055
 6629TIP3   OH241445   1.810   5.447   0.489
 6629TIP3    H141446   1.785   5.468   0.579
 6629TIP3    H241447   1.783   5.356   0.477
 6630TIP3   OH241448   4.998   0.576   7.748
 6630TIP3    H141449   5.024   0.647   7.691
 6630TIP3    H241450   4.961   0.619   7.825
 6631TIP3   OH241451   1.552   6.502   1.380
 6631TIP3    H141452   1.622   6.495   1.445
 6631TIP3    H241453   1.592   6.473   1.298
 6632TIP3   OH241454   0.230   5.817   6.858
 6632TIP3    H141455   0.224   5.864   6.941
 6632TIP3    H241456   0.153   5.760   6.858
 6633TIP3   OH241457   6.297   2.404   0.051
 6633TIP3    H141458   6.385   2.438   0.065
 6633TIP3    H241459   6.273   2.365   0.136
 6634TIP3   OH241460   1.749   4.978   2.496
 6634TIP3    H141461   1.662   5.007   2.522
 6634TIP3    H241462   1.808   5.046   2.528
 6635TIP3   OH241463   4.895   0.682   0.963
 6635TIP3    H141464   4.881   0.761   0.912
 6635TIP3    H241465   4.979   0.648   0.932
 6636TIP3   OH241466   6.670   5.757   8.631
 6636TIP3    H141467   6.615   5.757   8.553
 6636TIP3    H241468   6.666   5.847   0.001
 6637TIP3   OH241469   4.177   4.017   0.563
 6637TIP3    H141470   4.129   4.069   0.628
 6637TIP3    H241471   4.175   4.070   0.484
 6638TIP3   OH241472   4.264   1.058   7.186
 6638TIP3    H141473   4.317   0.985   7.153
 6638TIP3    H241474   4.259   1.042   7.281
 6639TIP3   OH241475   2.524   2.833   6.691
 6639TIP3    H141476   2.434   2.808   6.711
 6639TIP3    H241477   2.561   2.756   6.647
 6640TIP3   OH241478   2.542   3.951   8.350
 6640TIP3    H141479   2.462   3.913   8.314
 6640TIP3    H241480   2.530   3.945   8.445
 6641TIP3   OH241481   5.448   1.254   6.706
 6641TIP3    H141482   5.457   1.253   6.611
 6641TIP3    H241483   5.479   1.341   6.732
 6642TIP3   OH241484   6.857   3.038   1.252
 6642TIP3    H141485   6.783   3.078   1.297
 6642TIP3    H241486   6.824   3.018   1.164
 6643TIP3   OH241487   0.847   3.408   2.383
 6643TIP3    H141488   0.787   3.424   2.456
 6643TIP3    H241489   0.817   3.467   2.314
 6644TIP3   OH241490   3.546   3.278   8.354
 6644TIP3    H141491   3.524   3.359   8.310
 6644TIP3    H241492   3.588   3.225   8.287
 6645TIP3   OH241493   5.110   0.352   1.113
 6645TIP3    H141494   5.195   0.392   1.094
 6645TIP3    H241495   5.073   0.407   1.183
 6646TIP3   OH241496   1.328   5.817   1.775
 6646TIP3    H141497   1.336   5.807   1.870
 6646TIP3    H241498   1.409   5.780   1.740
 6647TIP3   OH241499   5.725   4.066   1.049
 6647TIP3    H141500   5.781   4.001   1.006
 6647TIP3    H241501   5.771   4.149   1.035
 6648TIP3   OH241502   3.572   6.331   1.056
 6648TIP3    H141503   3.643   6.284   1.013
 6648TIP3    H241504   3.595   6.423   1.047
 6649TIP3   OH241505   0.390   1.991   0.336
 6649TIP3    H141506   0.343   1.916   0.300
 6649TIP3    H241507   0.449   1.953   0.402
 6650TIP3   OH241508   5.914   1.960   6.851
 6650TIP3    H141509   5.955   1.892   6.798
 6650TIP3    H241510   5.883   2.024   6.787
 6651TIP3   OH241511   3.844   3.979   6.868
 6651TIP3    H141512   3.869   3.953   6.957
 6651TIP3    H241513   3.926   3.975   6.819
 6652TIP3   OH241514   2.604   5.460   6.602
 6652TIP3    H141515   2.576   5.463   6.694
 6652TIP3    H241516   2.538   5.406   6.559
 6653TIP3   OH241517   6.617   5.141   1.906
 6653TIP3    H141518   6.701   5.115   1.944
 6653TIP3    H241519   6.565   5.170   1.981
 6654TIP3   OH241520   2.590   4.259   1.477
 6654TIP3    H141521   2.504   4.219   1.487
 6654TIP3    H241522   2.623   4.227   1.393
 6655TIP3   OH241523   1.592   4.083   7.120
 6655TIP3    H141524   1.594   4.120   7.031
 6655TIP3    H241525   1.522   4.019   7.118
 6656TIP3   OH241526   2.287   4.916   8.451
 6656TIP3    H141527   2.234   4.873   8.519
 6656TIP3    H241528   2.300   5.005   8.484
 6657TIP3   OH241529   0.590   6.474   7.984
 6657TIP3    H141530   0.517   6.434   7.937
 6657TIP3    H241531   0.586   6.567   7.961
 6658TIP3   OH241532   6.367   6.639   1.192
 6658TIP3    H141533   6.386   6.629   1.285
 6658TIP3    H241534   6.419   6.714   1.165
 6659TIP3   OH241535   1.080   0.143   6.583
 6659TIP3    H141536   1.136   0.073   6.615
 6659TIP3    H241537   1.133   0.190   6.519
 6660TIP3   OH241538   4.531   2.782   6.911
 6660TIP3    H141539   4.436   2.789   6.901
 6660TIP3    H241540   4.564   2.766   6.823
 6661TIP3   OH241541   3.160   5.793   7.695
 6661TIP3    H141542   3.170   5.704   7.661
 6661TIP3    H241543   3.089   5.786   7.759
 6662TIP3   OH241544   5.775   5.985   5.966
 6662TIP3    H141545   5.703   5.925   5.989
 6662TIP3    H241546   5.828   5.935   5.903
 6663TIP3   OH241547   6.007   2.856   0.934
 6663TIP3    H141548   6.004   2.929   0.873
 6663TIP3    H241549   5.923   2.812   0.923
 6664TIP3   OH241550   3.571   5.119   7.902
 6664TIP3    H141551   3.565   5.026   7.924
 6664TIP3    H241552   3.496   5.135   7.845
 6665TIP3   OH241553   2.821   3.371   7.021
 6665TIP3    H141554   2.736   3.406   6.994
 6665TIP3    H241555   2.843   3.420   7.100
 6666TIP3   OH241556   1.320   6.803   2.148
 6666TIP3    H141557   1.328   6.708   2.160
 6666TIP3    H241558   1.226   6.819   2.146
 6667TIP3   OH241559   4.064   4.222   1.105
 6667TIP3    H141560   3.970   4.226   1.089
 6667TIP3    H241561   4.103   4.223   1.018
 6668TIP3   OH241562   5.611   0.472   7.505
 6668TIP3    H141563   5.610   0.544   7.568
 6668TIP3    H241564   5.562   0.402   7.548
 6669TIP3   OH241565   6.213   5.007   7.877
 6669TIP3    H141566   6.219   5.096   7.913
 6669TIP3    H241567   6.206   4.951   7.954
 6670TIP3   OH241568   6.369   4.907   1.028
 6670TIP3    H141569   6.464   4.892   1.025
 6670TIP3    H241570   6.347   4.904   1.121
 6671TIP3   OH241571   1.567   3.142   1.265
 6671TIP3    H141572   1.502   3.182   1.207
 6671TIP3    H241573   1.529   3.057   1.289
 6672TIP3   OH241574   6.745   0.575   1.472
 6672TIP3    H141575   6.693   0.648   1.440
 6672TIP3    H241576   6.693   0.538   1.543
 6673TIP3   OH241577   4.752   6.196   0.336
 6673TIP3    H141578   4.782   6.233   0.253
 6673TIP3    H241579   4.662   6.227   0.344
 6674TIP3   OH241580   3.652   2.548   1.664
 6674TIP3    H141581   3.711   2.542   1.589
 6674TIP3    H241582   3.676   2.474   1.720
 6675TIP3   OH241583   3.220   1.759   7.952
 6675TIP3    H141584   3.285   1.821   7.985
 6675TIP3    H241585   3.247   1.743   7.862
 6676TIP3   OH241586   1.020   3.397   7.281
 6676TIP3    H141587   1.033   3.304   7.297
 6676TIP3    H241588   0.932   3.402   7.243
 6677TIP3   OH241589   2.530   1.027   6.393
 6677TIP3    H141590   2.538   1.082   6.315
 6677TIP3    H241591   2.615   1.033   6.436
 6678TIP3   OH241592   3.429   5.625   1.536
 6678TIP3    H141593   3.448   5.666   1.621
 6678TIP3    H241594   3.514   5.592   1.506
 6679TIP3   OH241595   5.001   2.843   8.423
 6679TIP3    H141596   5.055   2.808   8.351
 6679TIP3    H241597   4.916   2.860   8.383
 6680TIP3   OH241598   3.898   6.224   0.247
 6680TIP3    H141599   3.838   6.255   0.315
 6680TIP3    H241600   3.974   6.190   0.295
 6681TIP3   OH241601   0.691   4.013   0.833
 6681TIP3    H141602   0.707   3.950   0.904
 6681TIP3    H241603   0.777   4.027   0.793
 6682TIP3   OH241604   3.376   2.773   8.369
 6682TIP3    H141605   3.362   2.680   8.352
 6682TIP3    H241606   3.459   2.776   8.417
 6683TIP3   OH241607   6.560   3.384   6.966
 6683TIP3    H141608   6.635   3.421   7.012
 6683TIP3    H241609   6.588   3.375   6.875
 6684TIP3   OH241610   4.170   6.804   1.676
 6684TIP3    H141611   4.236   6.735   1.683
 6684TIP3    H241612   4.149   6.826   1.767
 6685TIP3   OH241613   1.052   4.530   7.450
 6685TIP3    H141614   1.087   4.612   7.414
 6685TIP3    H241615   1.047   4.471   7.374
 6686TIP3   OH241616   2.596   0.486   1.404
 6686TIP3    H141617   2.569   0.483   1.313
 6686TIP3    H241618   2.532   0.432   1.451
 6687TIP3   OH241619   4.402   0.938   0.823
 6687TIP3    H141620   4.430   0.848   0.806
 6687TIP3    H241621   4.482   0.984   0.847
 6688TIP3   OH241622   4.742   6.422   1.073
 6688TIP3    H141623   4.825   6.380   1.096
 6688TIP3    H241624   4.724   6.391   0.984
 6689TIP3   OH241625   1.070   3.647   7.036
 6689TIP3    H141626   1.020   3.631   6.955
 6689TIP3    H241627   1.003   3.655   7.104
 6690TIP3   OH241628   5.089   2.108   7.144
 6690TIP3    H141629   5.113   2.022   7.178
 6690TIP3    H241630   4.993   2.109   7.146
 6691TIP3   OH241631   3.022   1.307   7.803
 6691TIP3    H141632   2.948   1.336   7.857
 6691TIP3    H241633   3.054   1.228   7.848
 6692TIP3   OH241634   3.490   2.317   8.214
 6692TIP3    H141635   3.464   2.249   8.276
 6692TIP3    H241636   3.469   2.399   8.259
 6693TIP3   OH241637   3.009   2.356   1.871
 6693TIP3    H141638   3.065   2.285   1.901
 6693TIP3    H241639   3.041   2.378   1.784
 6694TIP3   OH241640   0.203   3.005   0.022
 6694TIP3    H141641   0.256   2.987   8.607
 6694TIP3    H241642   0.185   2.918   0.059
 6695TIP3   OH241643   2.510   4.159   7.727
 6695TIP3    H141644   2.480   4.076   7.763
 6695TIP3    H241645   2.440   4.186   7.668
 6696TIP3   OH241646   3.915   4.084   1.411
 6696TIP3    H141647   4.009   4.087   1.390
 6696TIP3    H241648   3.892   3.992   1.400
 6697TIP3   OH241649   1.340   3.468   7.735
 6697TIP3    H141650   1.305   3.389   7.694
 6697TIP3    H241651   1.266   3.529   7.738
 6698TIP3   OH241652   2.199   3.381   7.416
 6698TIP3    H141653   2.287   3.377   7.453
 6698TIP3    H241654   2.213   3.380   7.321
 6699TIP3   OH241655   4.196   3.412   1.225
 6699TIP3    H141656   4.109   3.374   1.235
 6699TIP3    H241657   4.206   3.469   1.301
 6700TIP3   OH241658   6.091   6.345   8.057
 6700TIP3    H141659   6.068   6.438   8.054
 6700TIP3    H241660   6.032   6.304   7.995
 6701TIP3   OH241661   6.287   6.810   8.377
 6701TIP3    H141662   6.199   6.819   8.413
 6701TIP3    H241663   6.332   6.750   8.438
 6702TIP3   OH241664   0.798   4.587   8.346
 6702TIP3    H141665   0.709   4.601   8.313
 6702TIP3    H241666   0.785   4.560   8.437
 6703TIP3   OH241667   0.480   4.664   6.712
 6703TIP3    H141668   0.458   4.572   6.699
 6703TIP3    H241669   0.576   4.667   6.704
 6704TIP3   OH241670   1.564   1.840   1.002
 6704TIP3    H141671   1.583   1.750   1.029
 6704TIP3    H241672   1.492   1.868   1.058
 6705TIP3   OH241673   1.227   3.916   0.578
 6705TIP3    H141674   1.210   3.930   0.484
 6705TIP3    H241675   1.141   3.898   0.616
 6706TIP3   OH241676   5.123   6.049   0.228
 6706TIP3    H141677   5.074   6.098   0.294
 6706TIP3    H241678   5.056   6.014   0.170
 6707TIP3   OH241679   5.268   5.344   8.315
 6707TIP3    H141680   5.205   5.320   8.383
 6707TIP3    H241681   5.251   5.283   8.244
 6708TIP3   OH241682   0.614   4.085   1.940
 6708TIP3    H141683   0.600   4.049   1.852
 6708TIP3    H241684   0.573   4.020   1.998
 6709TIP3   OH241685   5.649   2.606   7.756
 6709TIP3    H141686   5.677   2.549   7.684
 6709TIP3    H241687   5.650   2.548   7.833
 6710TIP3   OH241688   2.830   4.802   0.029
 6710TIP3    H141689   2.761   4.850   8.645
 6710TIP3    H241690   2.912   4.840   8.657
 6711TIP3   OH241691   2.331   4.967   1.522
 6711TIP3    H141692   2.358   4.890   1.570
 6711TIP3    H241693   2.300   5.028   1.589
 6712TIP3   OH241694   1.747   5.221   7.731
 6712TIP3    H141695   1.817   5.263   7.682
 6712TIP3    H241696   1.682   5.199   7.664
 6713TIP3   OH241697   4.547   5.524   6.655
 6713TIP3    H141698   4.560   5.470   6.577
 6713TIP3    H241699   4.545   5.614   6.622
 6714TIP3   OH241700   4.524   0.285   0.834
 6714TIP3    H141701   4.597   0.339   0.865
 6714TIP3    H241702   4.504   0.319   0.746
 6715TIP3   OH241703   1.548   2.708   0.852
 6715TIP3    H141704   1.539   2.802   0.868
 6715TIP3    H241705   1.627   2.684   0.901
 6716TIP3   OH241706   2.929   4.959   1.181
 6716TIP3    H141707   2.986   4.967   1.258
 6716TIP3    H241708   2.874   5.037   1.184
 6717TIP3   OH241709   0.659   0.031   6.669
 6717TIP3    H141710   0.664   6.839   6.615
 6717TIP3    H241711   0.722   0.092   6.630
 6718TIP3   OH241712   4.184   2.548   6.192
 6718TIP3    H141713   4.104   2.601   6.193
 6718TIP3    H241714   4.252   2.609   6.162
 6719TIP3   OH241715   0.315   1.644   8.263
 6719TIP3    H141716   0.362   1.720   8.228
 6719TIP3    H241717   0.362   1.568   8.228
 6720TIP3   OH241718   5.404   5.792   1.088
 6720TIP3    H141719   5.356   5.861   1.132
 6720TIP3    H241720   5.448   5.836   1.015
 6721TIP3   OH241721   2.680   3.858   7.889
 6721TIP3    H141722   2.626   3.907   7.951
 6721TIP3    H241723   2.635   3.775   7.878
 6722TIP3   OH241724   0.774   6.877   0.839
 6722TIP3    H141725   0.794   0.065   0.897
 6722TIP3    H241726   0.705   0.024   0.781
 6723TIP3   OH241727   2.244   5.735   0.457
 6723TIP3    H141728   2.149   5.727   0.454
 6723TIP3    H241729   2.277   5.647   0.442
 6724TIP3   OH241730   0.110   5.126   1.358
 6724TIP3    H141731   0.065   5.167   1.432
 6724TIP3    H241732   0.156   5.198   1.315
 6725TIP3   OH241733   6.298   5.148   1.484
 6725TIP3    H141734   6.224   5.207   1.470
 6725TIP3    H241735   6.307   5.144   1.579
 6726TIP3   OH241736   3.902   2.559   1.442
 6726TIP3    H141737   3.890   2.474   1.399
 6726TIP3    H241738   3.881   2.623   1.373
 6727TIP3   OH241739   6.829   4.865   0.730
 6727TIP3    H141740   6.782   4.834   0.653
 6727TIP3    H241741   6.801   4.807   0.801
 6728TIP3   OH241742   3.060   0.091   7.188
 6728TIP3    H141743   3.000   0.075   7.262
 6728TIP3    H241744   3.144   0.056   7.217
 6729TIP3   OH241745   2.515   4.144   0.689
 6729TIP3    H141746   2.605   4.143   0.722
 6729TIP3    H241747   2.523   4.118   0.597
 6730TIP3   OH241748   6.182   2.110   1.793
 6730TIP3    H141749   6.224   2.172   1.853
 6730TIP3    H241750   6.147   2.042   1.851
 6731TIP3   OH241751   4.698   4.326   7.525
 6731TIP3    H141752   4.683   4.235   7.498
 6731TIP3    H241753   4.794   4.334   7.526
 6732TIP3   OH241754   5.795   0.896   0.799
 6732TIP3    H141755   5.886   0.920   0.816
 6732TIP3    H241756   5.772   0.944   0.720
 6733TIP3   OH241757   1.632   1.007   0.268
 6733TIP3    H141758   1.635   0.913   0.247
 6733TIP3    H241759   1.539   1.027   0.278
 6734TIP3   OH241760   4.369   0.818   0.346
 6734TIP3    H141761   4.371   0.848   0.437
 6734TIP3    H241762   4.400   0.727   0.350
 6735TIP3   OH241763   0.524   6.769   0.157
 6735TIP3    H141764   0.460   6.840   0.150
 6735TIP3    H241765   0.477   6.690   0.131
 6736TIP3   OH241766   6.377   4.830   1.615
 6736TIP3    H141767   6.359   4.895   1.683
 6736TIP3    H241768   6.424   4.879   1.547
 6737TIP3   OH241769   6.100   3.593   7.574
 6737TIP3    H141770   6.196   3.593   7.585
 6737TIP3    H241771   6.067   3.562   7.659
 6738TIP3   OH241772   2.524   1.929   1.396
 6738TIP3    H141773   2.593   1.863   1.392
 6738TIP3    H241774   2.452   1.887   1.442
 6739TIP3   OH241775   1.804   5.763   7.762
 6739TIP3    H141776   1.732   5.798   7.814
 6739TIP3    H241777   1.873   5.829   7.769
 6740TIP3   OH241778   0.116   3.945   8.102
 6740TIP3    H141779   0.094   4.019   8.044
 6740TIP3    H241780   0.212   3.939   8.096
 6741TIP3   OH241781   1.755   5.726   0.842
 6741TIP3    H141782   1.796   5.785   0.906
 6741TIP3    H241783   1.666   5.760   0.832
 6742TIP3   OH241784   4.852   5.426   1.647
 6742TIP3    H141785   4.871   5.409   1.739
 6742TIP3    H241786   4.839   5.521   1.643
 6743TIP3   OH241787   0.239   3.638   7.859
 6743TIP3    H141788   0.242   3.656   7.765
 6743TIP3    H241789   0.165   3.689   7.892
 6744TIP3   OH241790   6.409   4.170   8.600
 6744TIP3    H141791   6.459   4.250   8.615
 6744TIP3    H241792   6.327   4.199   8.560
 6745TIP3   OH241793   2.745   2.233   1.252
 6745TIP3    H141794   2.722   2.299   1.319
 6745TIP3    H241795   2.826   2.194   1.285
 6746TIP3   OH241796   6.031   3.622   6.184
 6746TIP3    H141797   6.041   3.569   6.263
 6746TIP3    H241798   6.079   3.702   6.202
 6747TIP3   OH241799   4.130   5.249   7.622
 6747TIP3    H141800   4.072   5.286   7.556
 6747TIP3    H241801   4.107   5.293   7.703
 6748TIP3   OH241802   1.207   2.769   1.388
 6748TIP3    H141803   1.140   2.735   1.448
 6748TIP3    H241804   1.290   2.741   1.426
 6749TIP3   OH241805   3.446   3.218   6.037
 6749TIP3    H141806   3.433   3.209   6.131
 6749TIP3    H241807   3.496   3.299   6.027
 6750TIP3   OH241808   5.228   1.295   7.577
 6750TIP3    H141809   5.253   1.266   7.664
 6750TIP3    H241810   5.173   1.372   7.592
 6751TIP3   OH241811   0.906   2.753   8.347
 6751TIP3    H141812   0.977   2.816   8.359
 6751TIP3    H241813   0.906   2.735   8.253
 6752TIP3   OH241814   3.638   3.785   7.535
 6752TIP3    H141815   3.583   3.707   7.538
 6752TIP3    H241816   3.648   3.811   7.627
 6753TIP3   OH241817   5.405   4.973   7.979
 6753TIP3    H141818   5.498   4.992   7.995
 6753TIP3    H241819   5.358   5.042   8.025
 6754TIP3   OH241820   3.453   1.704   8.450
 6754TIP3    H141821   3.472   1.792   8.483
 6754TIP3    H241822   3.369   1.681   8.490
 6755TIP3   OH241823   2.468   6.849   8.021
 6755TIP3    H141824   2.518   6.779   7.979
 6755TIP3    H241825   2.384   6.809   8.044
 6756TIP3   OH241826   5.466   3.443   7.163
 6756TIP3    H141827   5.550   3.435   7.208
 6756TIP3    H241828   5.411   3.375   7.202
 6757TIP3   OH241829   0.215   5.697   8.347
 6757TIP3    H141830   0.211   5.635   8.420
 6757TIP3    H241831   0.256   5.775   8.383
 6758TIP3   OH241832   0.933   0.207   1.461
 6758TIP3    H141833   0.849   0.242   1.492
 6758TIP3    H241834   0.974   0.172   1.540
 6759TIP3   OH241835   0.203   2.491   8.403
 6759TIP3    H141836   0.281   2.435   8.393
 6759TIP3    H241837   0.192   2.498   8.498
 6760TIP3   OH241838   0.168   6.106   1.097
 6760TIP3    H141839   0.162   6.089   1.002
 6760TIP3    H241840   0.186   6.020   1.135
 6761TIP3   OH241841   6.363   2.186   0.867
 6761TIP3    H141842   6.424   2.172   0.939
 6761TIP3    H241843   6.288   2.129   0.887
 6762TIP3   OH241844   5.338   5.665   0.195
 6762TIP3    H141845   5.334   5.580   0.237
 6762TIP3    H241846   5.265   5.715   0.233
 6763TIP3   OH241847   3.979   3.063   0.637
 6763TIP3    H141848   4.031   2.984   0.623
 6763TIP3    H241849   3.911   3.037   0.699
 6764TIP3   OH241850   3.262   6.452   7.631
 6764TIP3    H141851   3.196   6.447   7.561
 6764TIP3    H241852   3.331   6.392   7.602
 6765TIP3   OH241853   3.364   5.850   8.220
 6765TIP3    H141854   3.340   5.887   8.305
 6765TIP3    H241855   3.281   5.833   8.176
 6766TIP3   OH241856   1.185   5.910   7.802
 6766TIP3    H141857   1.228   5.982   7.848
 6766TIP3    H241858   1.157   5.850   7.871
 6767TIP3   OH241859   1.757   2.643   6.547
 6767TIP3    H141860   1.712   2.726   6.536
 6767TIP3    H241861   1.749   2.624   6.641
 6768TIP3   OH241862   0.776   1.741   6.624
 6768TIP3    H141863   0.681   1.739   6.630
 6768TIP3    H241864   0.797   1.831   6.598
 6769TIP3   OH241865   1.240   1.777   0.230
 6769TIP3    H141866   1.314   1.738   0.278
 6769TIP3    H241867   1.200   1.703   0.185
 6770TIP3   OH241868   0.492   1.560   2.310
 6770TIP3    H141869   0.411   1.534   2.353
 6770TIP3    H241870   0.543   1.479   2.303
 6771TIP3   OH241871   1.392   0.682   0.697
 6771TIP3    H141872   1.335   0.618   0.654
 6771TIP3    H241873   1.456   0.629   0.745
 6772TIP3   OH241874   4.241   6.311   0.877
 6772TIP3    H141875   4.275   6.281   0.961
 6772TIP3    H241876   4.172   6.247   0.856
 6773TIP3   OH241877   2.695   1.561   0.280
 6773TIP3    H141878   2.712   1.617   0.204
 6773TIP3    H241879   2.704   1.619   0.355
 6774TIP3   OH241880   4.324   3.627   0.459
 6774TIP3    H141881   4.363   3.541   0.443
 6774TIP3    H241882   4.350   3.680   0.384
 6775TIP3   OH241883   5.499   5.853   8.650
 6775TIP3    H141884   5.422   5.801   8.629
 6775TIP3    H241885   5.473   5.907   0.063
 6776TIP3   OH241886   0.170   4.676   7.515
 6776TIP3    H141887   0.216   4.743   7.564
 6776TIP3    H241888   0.110   4.637   7.578
 6777TIP3   OH241889   5.689   5.058   8.554
 6777TIP3    H141890   5.737   4.977   8.569
 6777TIP3    H241891   5.703   5.109   8.634
 6778TIP3   OH241892   2.271   2.739   6.767
 6778TIP3    H141893   2.187   2.781   6.747
 6778TIP3    H241894   2.258   2.701   6.854
 6779TIP3   OH241895   4.715   3.881   6.945
 6779TIP3    H141896   4.635   3.889   6.997
 6779TIP3    H241897   4.771   3.823   6.996
 6780TIP3   OH241898   0.923   5.285   1.850
 6780TIP3    H141899   0.961   5.361   1.893
 6780TIP3    H241900   0.989   5.216   1.860
 6781TIP3   OH241901   3.226   2.766   0.724
 6781TIP3    H141902   3.295   2.708   0.692
 6781TIP3    H241903   3.255   2.854   0.699
 6782TIP3   OH241904   3.550   6.016   7.525
 6782TIP3    H141905   3.508   5.989   7.607
 6782TIP3    H241906   3.482   6.064   7.478
 6783TIP3   OH241907   2.188   0.157   1.958
 6783TIP3    H141908   2.164   0.072   1.920
 6783TIP3    H241909   2.174   0.146   2.052
 6784TIP3   OH241910   0.919   3.675   6.814
 6784TIP3    H141911   0.939   3.591   6.773
 6784TIP3    H241912   0.823   3.676   6.819
 6785TIP3   OH241913   0.361   4.582   0.363
 6785TIP3    H141914   0.441   4.533   0.346
 6785TIP3    H241915   0.365   4.656   0.303
 6786TIP3   OH241916   6.795   2.014   1.036
 6786TIP3    H141917   6.757   1.928   1.018
 6786TIP3    H241918   6.853   2.000   1.110
 6787TIP3   OH241919   3.847   3.165   0.977
 6787TIP3    H141920   3.848   3.205   1.064
 6787TIP3    H241921   3.929   3.115   0.972
 6788TIP3   OH241922   3.689   2.211   7.397
 6788TIP3    H141923   3.756   2.247   7.339
 6788TIP3    H241924   3.611   2.264   7.379
 6789TIP3   OH241925   6.302   1.575   7.446
 6789TIP3    H141926   6.343   1.495   7.414
 6789TIP3    H241927   6.340   1.645   7.393
 6790TIP3   OH241928   3.121   0.383   6.993
 6790TIP3    H141929   3.163   0.312   7.040
 6790TIP3    H241930   3.184   0.455   6.997
 6791TIP3   OH241931   3.769   1.195   1.670
 6791TIP3    H141932   3.709   1.180   1.596
 6791TIP3    H241933   3.851   1.155   1.643
 6792TIP3   OH241934   4.598   1.669   7.390
 6792TIP3    H141935   4.547   1.699   7.315
 6792TIP3    H241936   4.675   1.725   7.392
 6793TIP3   OH241937   6.613   5.367   1.747
 6793TIP3    H141938   6.637   5.438   1.805
 6793TIP3    H241939   6.672   5.295   1.771
 6794TIP3   OH241940   0.686   2.445   6.508
 6794TIP3    H141941   0.612   2.423   6.452
 6794TIP3    H241942   0.717   2.529   6.476
 6795TIP3   OH241943   5.723   2.599   6.741
 6795TIP3    H141944   5.788   2.624   6.806
 6795TIP3    H241945   5.658   2.670   6.745
 6796TIP3   OH241946   3.075   1.658   0.633
 6796TIP3    H141947   3.096   1.719   0.562
 6796TIP3    H241948   3.155   1.654   0.685
 6797TIP3   OH241949   3.603   1.912   0.366
 6797TIP3    H141950   3.644   1.828   0.343
 6797TIP3    H241951   3.513   1.888   0.392
 6798TIP3   OH241952   5.428   2.745   8.418
 6798TIP3    H141953   5.397   2.672   8.364
 6798TIP3    H241954   5.348   2.783   8.454
 6799TIP3   OH241955   4.114   0.895   1.416
 6799TIP3    H141956   4.171   0.942   1.477
 6799TIP3    H241957   4.117   0.947   1.335
 6800TIP3   OH241958   0.857   4.846   0.257
 6800TIP3    H141959   0.770   4.807   0.254
 6800TIP3    H241960   0.916   4.775   0.231
 6801TIP3   OH241961   4.422   4.188   7.384
 6801TIP3    H141962   4.410   4.250   7.456
 6801TIP3    H241963   4.502   4.216   7.341
 6802TIP3   OH241964   2.457   5.820   0.275
 6802TIP3    H141965   2.521   5.755   0.301
 6802TIP3    H241966   2.374   5.788   0.309
 6803TIP3   OH241967   0.380   2.646   1.550
 6803TIP3    H141968   0.412   2.667   1.462
 6803TIP3    H241969   0.404   2.722   1.603
 6804TIP3   OH241970   1.078   3.570   0.246
 6804TIP3    H141971   0.984   3.576   0.263
 6804TIP3    H241972   1.103   3.484   0.281
 6805TIP3   OH241973   2.417   6.432   0.582
 6805TIP3    H141974   2.371   6.437   0.498
 6805TIP3    H241975   2.439   6.523   0.603
 6806TIP3   OH241976   4.151   3.564   7.514
 6806TIP3    H141977   4.155   3.640   7.457
 6806TIP3    H241978   4.083   3.585   7.578
 6807TIP3   OH241979   5.696   6.511   6.566
 6807TIP3    H141980   5.708   6.487   6.475
 6807TIP3    H241981   5.659   6.600   6.563
 6808TIP3   OH241982   0.600   5.478   0.116
 6808TIP3    H141983   0.546   5.399   0.116
 6808TIP3    H241984   0.584   5.518   0.201
 6809TIP3   OH241985   5.473   3.813   0.043
 6809TIP3    H141986   5.529   3.813   8.627
 6809TIP3    H241987   5.476   3.722   0.074
 6810TIP3   OH241988   0.312   4.881   7.657
 6810TIP3    H141989   0.275   4.969   7.668
 6810TIP3    H241990   0.407   4.894   7.666
 6811TIP3   OH241991   5.579   5.076   6.937
 6811TIP3    H141992   5.572   5.080   6.841
 6811TIP3    H241993   5.490   5.091   6.968
 6812TIP3   OH241994   6.111   3.626   0.587
 6812TIP3    H141995   6.140   3.708   0.547
 6812TIP3    H241996   6.128   3.637   0.681
 6813TIP3   OH241997   1.469   2.832   8.561
 6813TIP3    H141998   1.558   2.844   8.592
 6813TIP3    H241999   1.476   2.766   8.492
 6814TIP3   OH242000   1.403   5.588   1.535
 6814TIP3    H142001   1.415   5.543   1.451
 6814TIP3    H242002   1.484   5.638   1.546
 6815TIP3   OH242003   2.298   0.814   0.435
 6815TIP3    H142004   2.333   0.896   0.399
 6815TIP3    H242005   2.319   0.817   0.528
 6816TIP3   OH242006   2.263   5.591   7.234
 6816TIP3    H142007   2.327   5.638   7.286
 6816TIP3    H242008   2.230   5.656   7.172
 6817TIP3   OH242009   0.731   0.426   8.611
 6817TIP3    H142010   0.700   0.347   8.655
 6817TIP3    H242011   0.823   0.409   8.592
 6818TIP3   OH242012   6.857   1.643   8.395
 6818TIP3    H142013   0.025   1.695   8.454
 6818TIP3    H242014   6.861   1.690   8.311
 6819TIP3   OH242015   0.203   5.682   8.074
 6819TIP3    H142016   0.287   5.636   8.069
 6819TIP3    H242017   0.197   5.710   8.165
 6820TIP3   OH242018   3.479   4.189   0.092
 6820TIP3    H142019   3.477   4.235   0.176
 6820TIP3    H242020   3.421   4.114   0.104
 6821TIP3   OH242021   1.034   1.110   7.838
 6821TIP3    H142022   0.978   1.184   7.862
 6821TIP3    H242023   0.973   1.037   7.824
 6822TIP3   OH242024   6.402   0.378   8.284
 6822TIP3    H142025   6.364   0.371   8.371
 6822TIP3    H242026   6.327   0.397   8.227
 6823TIP3   OH242027   4.824   5.878   1.211
 6823TIP3    H142028   4.829   5.950   1.273
 6823TIP3    H242029   4.778   5.808   1.258
 6824TIP3   OH242030   0.398   0.437   7.612
 6824TIP3    H142031   0.390   0.459   7.704
 6824TIP3    H242032   0.321   0.383   7.593
 6825TIP3   OH242033   4.909   3.316   8.122
 6825TIP3    H142034   4.901   3.400   8.168
 6825TIP3    H242035   4.874   3.251   8.183
 6826TIP3   OH242036   4.121   5.880   8.473
 6826TIP3    H142037   4.153   5.802   8.519
 6826TIP3    H242038   4.027   5.883   8.494
 6827TIP3   OH242039   5.648   4.801   6.855
 6827TIP3    H142040   5.556   4.792   6.831
 6827TIP3    H242041   5.653   4.886   6.899
 6828TIP3   OH242042   4.060   5.538   8.092
 6828TIP3    H142043   3.970   5.530   8.059
 6828TIP3    H242044   4.097   5.451   8.081
 6829TIP3   OH242045   5.764   6.598   8.200
 6829TIP3    H142046   5.829   6.640   8.144
 6829TIP3    H242047   5.720   6.535   8.143
 6830TIP3   OH242048   6.190   2.953   0.434
 6830TIP3    H142049   6.230   2.880   0.385
 6830TIP3    H242050   6.154   3.010   0.366
 6831TIP3   OH242051   1.904   1.201   7.129
 6831TIP3    H142052   1.849   1.124   7.137
 6831TIP3    H242053   1.941   1.196   7.040
 6832TIP3   OH242054   2.463   1.528   7.793
 6832TIP3    H142055   2.471   1.605   7.737
 6832TIP3    H242056   2.538   1.473   7.769
 6833TIP3   OH242057   0.396   1.193   7.062
 6833TIP3    H142058   0.447   1.147   6.996
 6833TIP3    H242059   0.324   1.133   7.084
 6834TIP3   OH242060   3.496   1.008   7.593
 6834TIP3    H142061   3.450   1.025   7.675
 6834TIP3    H242062   3.520   0.915   7.598
 6835TIP3   OH242063   1.371   1.229   8.027
 6835TIP3    H142064   1.292   1.255   7.980
 6835TIP3    H242065   1.340   1.171   8.096
 6836TIP3   OH242066   5.441   4.639   6.364
 6836TIP3    H142067   5.411   4.583   6.293
 6836TIP3    H242068   5.367   4.699   6.381
 6837TIP3   OH242069   6.358   5.892   1.071
 6837TIP3    H142070   6.323   5.818   1.120
 6837TIP3    H242071   6.321   5.969   1.112
 6838TIP3   OH242072   6.779   2.973   0.004
 6838TIP3    H142073   6.842   3.045   0.009
 6838TIP3    H242074   6.833   2.894   0.006
 6839TIP3   OH242075   3.487   5.749   6.957
 6839TIP3    H142076   3.457   5.828   7.002
 6839TIP3    H242077   3.407   5.705   6.930
 6840TIP3   OH242078   5.362   1.992   1.642
 6840TIP3    H142079   5.372   1.921   1.579
 6840TIP3    H242080   5.271   2.021   1.633
 6841TIP3   OH242081   0.369   0.757   7.261
 6841TIP3    H142082   0.430   0.766   7.188
 6841TIP3    H242083   0.424   0.748   7.338
 6842TIP3   OH242084   1.331   5.950   7.561
 6842TIP3    H142085   1.417   5.987   7.580
 6842TIP3    H242086   1.308   5.903   7.641
 6843TIP3   OH242087   5.446   6.443   7.508
 6843TIP3    H142088   5.447   6.449   7.412
 6843TIP3    H242089   5.360   6.407   7.529
 6844TIP3   OH242090   4.139   0.083   0.754
 6844TIP3    H142091   4.186   0.129   0.684
 6844TIP3    H242092   4.208   0.044   0.807
 6845TIP3   OH242093   2.561   2.604   7.857
 6845TIP3    H142094   2.648   2.644   7.868
 6845TIP3    H242095   2.507   2.676   7.823
 6846TIP3   OH242096   1.891   5.634   8.222
 6846TIP3    H142097   1.926   5.600   8.139
 6846TIP3    H242098   1.835   5.564   8.255
 6847TIP3   OH242099   3.346   1.425   0.504
 6847TIP3    H142100   3.370   1.488   0.572
 6847TIP3    H242101   3.356   1.340   0.545
 6848TIP3   OH242102   6.051   0.395   8.100
 6848TIP3    H142103   6.105   0.453   8.047
 6848TIP3    H242104   6.068   0.422   8.190
 6849TIP3   OH242105   5.289   3.057   6.461
 6849TIP3    H142106   5.358   3.035   6.524
 6849TIP3    H242107   5.285   2.982   6.403
 6850TIP3   OH242108   3.467   5.993   7.108
 6850TIP3    H142109   3.420   6.048   7.046
 6850TIP3    H242110   3.542   6.046   7.135
 6851TIP3   OH242111   1.803   2.535   8.177
 6851TIP3    H142112   1.807   2.619   8.222
 6851TIP3    H242113   1.872   2.540   8.111
 6852TIP3   OH242114   2.473   5.687   7.903
 6852TIP3    H142115   2.486   5.660   7.813
 6852TIP3    H242116   2.421   5.616   7.942
 6853TIP3   OH242117   4.897   5.012   6.390
 6853TIP3    H142118   4.964   5.063   6.344
 6853TIP3    H242119   4.924   4.921   6.378
 6854TIP3   OH242120   0.205   6.429   8.399
 6854TIP3    H142121   0.283   6.462   8.443
 6854TIP3    H242122   0.160   6.508   8.369
 6855TIP3   OH242123   2.720   5.581   2.082
 6855TIP3    H142124   2.744   5.546   2.168
 6855TIP3    H242125   2.632   5.548   2.067
 6856TIP3   OH242126   5.070   0.501   1.343
 6856TIP3    H142127   5.126   0.427   1.367
 6856TIP3    H242128   5.127   0.577   1.347
 6857TIP3   OH242129   5.454   2.781   0.327
 6857TIP3    H142130   5.472   2.837   0.251
 6857TIP3    H242131   5.405   2.707   0.291
 6858TIP3   OH242132   3.771   1.460   8.622
 6858TIP3    H142133   3.763   1.385   8.563
 6858TIP3    H242134   3.832   1.431   0.028
 6859TIP3   OH242135   2.208   3.872   1.016
 6859TIP3    H142136   2.223   3.930   0.941
 6859TIP3    H242137   2.123   3.832   0.999
 6860TIP3   OH242138   2.532   1.711   0.631
 6860TIP3    H142139   2.448   1.680   0.597
 6860TIP3    H242140   2.508   1.786   0.686
 6861TIP3   OH242141   6.362   2.137   2.275
 6861TIP3    H142142   6.289   2.135   2.338
 6861TIP3    H242143   6.384   2.044   2.262
 6862TIP3   OH242144   3.189   5.900   6.968
 6862TIP3    H142145   3.228   5.952   6.897
 6862TIP3    H242146   3.095   5.918   6.961
 6863TIP3   OH242147   6.781   1.432   8.555
 6863TIP3    H142148   6.693   1.404   8.532
 6863TIP3    H242149   6.806   1.493   8.486
 6864TIP3   OH242150   5.030   1.320   0.100
 6864TIP3    H142151   4.949   1.322   0.152
 6864TIP3    H242152   5.072   1.404   0.118
 6865TIP3   OH242153   6.128   4.781   7.539
 6865TIP3    H142154   6.151   4.701   7.586
 6865TIP3    H242155   6.212   4.825   7.525
 6866TIP3   OH242156   0.452   5.438   8.458
 6866TIP3    H142157   0.422   5.503   8.521
 6866TIP3    H242158   0.374   5.413   8.409
 6867TIP3   OH242159   1.621   0.566   8.299
 6867TIP3    H142160   1.680   0.642   8.307
 6867TIP3    H242161   1.577   0.561   8.384
 6868TIP3   OH242162   4.655   4.225   7.250
 6868TIP3    H142163   4.673   4.312   7.284
 6868TIP3    H242164   4.723   4.211   7.184
 6869TIP3   OH242165   4.496   6.617   6.174
 6869TIP3    H142166   4.556   6.568   6.230
 6869TIP3    H242167   4.537   6.615   6.088
 6870TIP3   OH242168   5.436   4.433   6.570
 6870TIP3    H142169   5.503   4.377   6.529
 6870TIP3    H242170   5.459   4.522   6.542
 6871TIP3   OH242171   6.200   2.386   7.953
 6871TIP3    H142172   6.114   2.351   7.977
 6871TIP3    H242173   6.196   2.479   7.976
 6872TIP3   OH242174   0.573   3.974   1.385
 6872TIP3    H142175   0.561   3.941   1.474
 6872TIP3    H242176   0.511   3.924   1.332
 6873TIP3   OH242177   4.553   6.019   1.340
 6873TIP3    H142178   4.553   5.953   1.270
 6873TIP3    H242179   4.609   5.982   1.408
 6874TIP3   OH242180   4.148   0.656   7.540
 6874TIP3    H142181   4.226   0.616   7.581
 6874TIP3    H242182   4.097   0.689   7.614
 6875TIP3   OH242183   0.674   0.262   6.881
 6875TIP3    H142184   0.659   0.357   6.880
 6875TIP3    H242185   0.619   0.229   6.810
 6876TIP3   OH242186   6.579   0.905   1.556
 6876TIP3    H142187   6.616   0.961   1.487
 6876TIP3    H242188   6.628   0.929   1.635
 6877TIP3   OH242189   2.597   0.714   0.754
 6877TIP3    H142190   2.582   0.799   0.797
 6877TIP3    H242191   2.584   0.731   0.661
 6878TIP3   OH242192   3.000   6.048   8.213
 6878TIP3    H142193   2.948   6.119   8.251
 6878TIP3    H242194   2.993   5.977   8.278
 6879TIP3   OH242195   4.860   5.736   6.999
 6879TIP3    H142196   4.954   5.738   7.017
 6879TIP3    H242197   4.826   5.816   7.040
 6880TIP3   OH242198   4.749   6.230   6.691
 6880TIP3    H142199   4.688   6.202   6.624
 6880TIP3    H242200   4.698   6.233   6.772
 6881TIP3   OH242201   4.316   2.233   0.154
 6881TIP3    H142202   4.227   2.198   0.160
 6881TIP3    H242203   4.310   2.322   0.188
 6882TIP3   OH242204   6.137   1.384   8.034
 6882TIP3    H142205   6.129   1.430   7.950
 6882TIP3    H242206   6.128   1.292   8.012
 6883TIP3   OH242207   5.065   1.398   6.237
 6883TIP3    H142208   5.041   1.387   6.144
 6883TIP3    H242209   4.985   1.376   6.284
 6884TIP3   OH242210   5.495   5.049   8.314
 6884TIP3    H142211   5.520   4.957   8.318
 6884TIP3    H242212   5.578   5.097   8.313
 6885TIP3   OH242213   4.609   1.580   7.060
 6885TIP3    H142214   4.663   1.644   7.013
 6885TIP3    H242215   4.643   1.495   7.033
 6886TIP3   OH242216   5.304   0.951   6.823
 6886TIP3    H142217   5.294   0.984   6.734
 6886TIP3    H242218   5.382   0.995   6.857
 6887TIP3   OH242219   3.651   0.721   1.934
 6887TIP3    H142220   3.606   0.702   2.017
 6887TIP3    H242221   3.654   0.636   1.889
 6888TIP3   OH242222   0.764   5.062   1.601
 6888TIP3    H142223   0.814   5.042   1.680
 6888TIP3    H242224   0.829   5.065   1.531
 6889TIP3   OH242225   4.960   2.040   2.600
 6889TIP3    H142226   5.028   1.995   2.650
 6889TIP3    H242227   4.881   1.988   2.616
 6890TIP3   OH242228   0.279   2.201   1.656
 6890TIP3    H142229   0.255   2.248   1.576
 6890TIP3    H242230   0.196   2.183   1.699
 6891TIP3   OH242231   2.840   6.248   6.902
 6891TIP3    H142232   2.751   6.219   6.884
 6891TIP3    H242233   2.892   6.213   6.830
 6892TIP3   OH242234   1.367   5.249   8.098
 6892TIP3    H142235   1.299   5.181   8.098
 6892TIP3    H242236   1.438   5.212   8.150
 6893TIP3   OH242237   6.503   4.285   7.389
 6893TIP3    H142238   6.503   4.224   7.463
 6893TIP3    H242239   6.448   4.242   7.323
 6894TIP3   OH242240   3.722   0.961   8.594
 6894TIP3    H142241   3.721   0.913   8.512
 6894TIP3    H242242   3.720   0.893   8.662
 6895TIP3   OH242243   3.346   3.695   6.861
 6895TIP3    H142244   3.368   3.769   6.918
 6895TIP3    H242245   3.311   3.629   6.921
 6896TIP3   OH242246   1.017   2.633   7.686
 6896TIP3    H142247   0.936   2.589   7.711
 6896TIP3    H242248   1.016   2.714   7.737
 6897TIP3   OH242249   6.172   0.205   0.831
 6897TIP3    H142250   6.115   0.217   0.755
 6897TIP3    H242251   6.132   0.259   0.900
 6898TIP3   OH242252   4.254   0.324   7.956
 6898TIP3    H142253   4.248   0.415   7.984
 6898TIP3    H242254   4.263   0.329   7.860
 6899TIP3   OH242255   5.283   0.233   1.856
 6899TIP3    H142256   5.337   0.301   1.897
 6899TIP3    H242257   5.243   0.276   1.781
 6900TIP3   OH242258   5.882   6.886   6.775
 6900TIP3    H142259   5.874   6.797   6.808
 6900TIP3    H242260   5.901   6.876   6.682
 6901TIP3   OH242261   4.931   5.940   8.040
 6901TIP3    H142262   5.008   5.992   8.063
 6901TIP3    H242263   4.941   5.924   7.946
 6902TIP3   OH242264   0.210   2.227   0.560
 6902TIP3    H142265   0.124   2.267   0.569
 6902TIP3    H242266   0.209   2.186   0.473
 6903TIP3   OH242267   0.064   3.930   7.797
 6903TIP3    H142268   0.154   3.936   7.830
 6903TIP3    H242269   0.064   3.984   7.718
 6904TIP3   OH242270   5.357   0.941   0.419
 6904TIP3    H142271   5.264   0.935   0.401
 6904TIP3    H242272   5.394   0.860   0.384
 6905TIP3   OH242273   3.110   4.250   7.865
 6905TIP3    H142274   3.193   4.296   7.878
 6905TIP3    H242275   3.094   4.205   7.948
 6906TIP3   OH242276   0.083   0.726   1.955
 6906TIP3    H142277   0.129   0.800   1.993
 6906TIP3    H242278   0.122   0.649   1.996
 6907TIP3   OH242279   4.658   2.473   7.575
 6907TIP3    H142280   4.636   2.542   7.512
 6907TIP3    H242281   4.631   2.392   7.532
 6908TIP3   OH242282   3.365   1.613   8.189
 6908TIP3    H142283   3.390   1.635   8.279
 6908TIP3    H242284   3.444   1.628   8.137
 6909TIP3   OH242285   1.003   5.616   2.249
 6909TIP3    H142286   1.045   5.583   2.328
 6909TIP3    H242287   0.933   5.553   2.230
 6910TIP3   OH242288   5.757   2.253   1.925
 6910TIP3    H142289   5.773   2.287   1.837
 6910TIP3    H242290   5.826   2.291   1.979
 6911TIP3   OH242291   6.157   4.664   0.602
 6911TIP3    H142292   6.179   4.607   0.675
 6911TIP3    H242293   6.097   4.729   0.638
 6912TIP3   OH242294   1.352   2.120   6.671
 6912TIP3    H142295   1.399   2.042   6.643
 6912TIP3    H242296   1.261   2.104   6.647
 6913TIP3   OH242297   0.957   0.238   7.311
 6913TIP3    H142298   0.871   0.258   7.347
 6913TIP3    H242299   0.939   0.176   7.240
 6914TIP3   OH242300   6.356   1.310   7.267
 6914TIP3    H142301   6.292   1.252   7.309
 6914TIP3    H242302   6.305   1.359   7.203
 6915TIP3   OH242303   3.851   4.403   1.491
 6915TIP3    H142304   3.832   4.496   1.483
 6915TIP3    H242305   3.939   4.394   1.454
 6916TIP3   OH242306   1.113   1.558   0.122
 6916TIP3    H142307   1.113   1.533   0.030
 6916TIP3    H242308   1.022   1.551   0.149
 6917TIP3   OH242309   1.100   0.283   1.720
 6917TIP3    H142310   1.062   0.202   1.754
 6917TIP3    H242311   1.152   0.255   1.645
 6918TIP3   OH242312   1.751   1.093   8.079
 6918TIP3    H142313   1.663   1.120   8.105
 6918TIP3    H242314   1.802   1.174   8.081
 6919TIP3   OH242315   2.460   3.071   8.443
 6919TIP3    H142316   2.501   3.155   8.424
 6919TIP3    H242317   2.457   3.066   8.538
 6920TIP3   OH242318   6.412   5.758   8.458
 6920TIP3    H142319   6.390   5.831   8.400
 6920TIP3    H242320   6.371   5.780   8.542
 6921TIP3   OH242321   1.563   3.413   0.920
 6921TIP3    H142322   1.645   3.462   0.927
 6921TIP3    H242323   1.571   3.364   0.839
 6922TIP3   OH242324   0.769   6.158   1.369
 6922TIP3    H142325   0.812   6.232   1.411
 6922TIP3    H242326   0.686   6.194   1.338
 6923TIP3   OH242327   2.903   6.257   7.187
 6923TIP3    H142328   2.940   6.222   7.106
 6923TIP3    H242329   2.826   6.307   7.159
 6924TIP3   OH242330   1.564   1.830   1.694
 6924TIP3    H142331   1.587   1.858   1.783
 6924TIP3    H242332   1.591   1.904   1.639
 6925TIP3   OH242333   1.669   5.504   7.863
 6925TIP3    H142334   1.684   5.456   7.781
 6925TIP3    H242335   1.722   5.583   7.854
 6926TIP3   OH242336   1.692   2.372   6.152
 6926TIP3    H142337   1.745   2.332   6.082
 6926TIP3    H242338   1.741   2.353   6.232
 6927TIP3   OH242339   5.990   2.540   7.357
 6927TIP3    H142340   5.990   2.452   7.319
 6927TIP3    H242341   5.938   2.592   7.296
 6928TIP3   OH242342   0.545   2.239   1.623
 6928TIP3    H142343   0.462   2.248   1.670
 6928TIP3    H242344   0.521   2.240   1.531
 6929TIP3   OH242345   0.376   1.026   1.071
 6929TIP3    H142346   0.329   0.956   1.115
 6929TIP3    H242347   0.459   1.034   1.119
 6930TIP3   OH242348   1.186   4.819   0.337
 6930TIP3    H142349   1.197   4.875   0.414
 6930TIP3    H242350   1.199   4.877   0.263
 6931TIP3   OH242351   3.577   3.583   2.134
 6931TIP3    H142352   3.572   3.501   2.182
 6931TIP3    H242353   3.636   3.638   2.185
 6932TIP3   OH242354   5.408   5.520   7.283
 6932TIP3    H142355   5.465   5.463   7.232
 6932TIP3    H242356   5.410   5.483   7.372
 6933TIP3   OH242357   5.388   4.485   7.030
 6933TIP3    H142358   5.456   4.419   7.016
 6933TIP3    H242359   5.336   4.483   6.950
 6934TIP3   OH242360   2.499   1.217   7.512
 6934TIP3    H142361   2.518   1.125   7.492
 6934TIP3    H242362   2.405   1.218   7.532
 6935TIP3   OH242363   5.707   6.644   7.347
 6935TIP3    H142364   5.619   6.608   7.356
 6935TIP3    H242365   5.706   6.690   7.263
 6936TIP3   OH242366   5.114   4.104   7.320
 6936TIP3    H142367   5.073   4.049   7.252
 6936TIP3    H242368   5.120   4.191   7.280
 6937TIP3   OH242369   5.416   3.766   0.871
 6937TIP3    H142370   5.480   3.833   0.844
 6937TIP3    H242371   5.374   3.803   0.949
 6938TIP3   OH242372   1.927   3.274   0.753
 6938TIP3    H142373   1.923   3.179   0.759
 6938TIP3    H242374   1.907   3.293   0.661
 6939TIP3   OH242375   6.393   1.198   8.163
 6939TIP3    H142376   6.389   1.209   8.068
 6939TIP3    H242377   6.378   1.286   8.198
 6940TIP3   OH242378   4.931   1.424   2.239
 6940TIP3    H142379   5.014   1.377   2.229
 6940TIP3    H242380   4.865   1.355   2.246
 6941TIP3   OH242381   0.112   2.968   6.563
 6941TIP3    H142382   0.114   2.896   6.499
 6941TIP3    H242383   0.070   3.040   6.517
 6942TIP3   OH242384   3.252   0.321   1.850
 6942TIP3    H142385   3.167   0.291   1.818
 6942TIP3    H242386   3.298   0.241   1.876
 6943TIP3   OH242387   4.438   2.276   1.039
 6943TIP3    H142388   4.343   2.271   1.050
 6943TIP3    H242389   4.460   2.363   1.072
 6944TIP3   OH242390   3.547   5.557   8.588
 6944TIP3    H142391   3.609   5.628   8.603
 6944TIP3    H242392   3.599   5.486   8.551
 6945TIP3   OH242393   1.492   5.028   6.929
 6945TIP3    H142394   1.440   4.988   6.859
 6945TIP3    H242395   1.524   5.110   6.892
 6946TIP3   OH242396   2.342   2.897   1.100
 6946TIP3    H142397   2.293   2.827   1.144
 6946TIP3    H242398   2.277   2.965   1.085
 6947TIP3   OH242399   4.726   2.406   1.906
 6947TIP3    H142400   4.802   2.418   1.962
 6947TIP3    H242401   4.651   2.429   1.962
 6948TIP3   OH242402   1.097   0.676   0.573
 6948TIP3    H142403   1.002   0.682   0.581
 6948TIP3    H242404   1.116   0.583   0.584
 6949TIP3   OH242405   4.688   1.259   1.205
 6949TIP3    H142406   4.709   1.259   1.299
 6949TIP3    H242407   4.655   1.171   1.188
 6950TIP3   OH242408   4.123   5.848   0.951
 6950TIP3    H142409   4.074   5.776   0.912
 6950TIP3    H242410   4.078   5.866   1.033
 6951TIP3   OH242411   1.004   0.434   7.092
 6951TIP3    H142412   0.945   0.509   7.091
 6951TIP3    H242413   0.998   0.400   7.181
 6952TIP3   OH242414   6.780   3.417   7.114
 6952TIP3    H142415   6.830   3.499   7.123
 6952TIP3    H242416   6.708   3.426   7.176
 6953TIP3   OH242417   0.544   4.611   7.638
 6953TIP3    H142418   0.507   4.692   7.674
 6953TIP3    H242419   0.483   4.542   7.666
 6954TIP3   OH242420   3.415   4.512   1.117
 6954TIP3    H142421   3.441   4.475   1.201
 6954TIP3    H242422   3.465   4.462   1.052
 6955TIP3   OH242423   4.339   4.335   0.396
 6955TIP3    H142424   4.304   4.246   0.403
 6955TIP3    H242425   4.309   4.366   0.311
 6956TIP3   OH242426   1.897   5.271   1.944
 6956TIP3    H142427   1.915   5.269   1.850
 6956TIP3    H242428   1.870   5.362   1.960
 6957TIP3   OH242429   4.603   2.563   0.186
 6957TIP3    H142430   4.688   2.604   0.202
 6957TIP3    H242431   4.568   2.608   0.109
 6958TIP3   OH242432   0.567   2.250   0.367
 6958TIP3    H142433   0.596   2.219   0.453
 6958TIP3    H242434   0.500   2.187   0.340
 6959TIP3   OH242435   2.292   3.909   7.009
 6959TIP3    H142436   2.229   3.877   6.946
 6959TIP3    H242437   2.366   3.940   6.957
 6960TIP3   OH242438   6.589   5.968   0.653
 6960TIP3    H142439   6.625   5.887   0.689
 6960TIP3    H242440   6.631   5.978   0.568
 6961TIP3   OH242441   3.129   6.539   1.192
 6961TIP3    H142442   3.165   6.494   1.115
 6961TIP3    H242443   3.205   6.553   1.249
 6962TIP3   OH242444   3.024   1.475   1.085
 6962TIP3    H142445   2.960   1.477   1.014
 6962TIP3    H242446   3.084   1.547   1.066
 6963TIP3   OH242447   1.442   4.670   7.179
 6963TIP3    H142448   1.537   4.680   7.173
 6963TIP3    H242449   1.413   4.651   7.090
 6964TIP3   OH242450   6.134   3.865   7.213
 6964TIP3    H142451   6.223   3.845   7.240
 6964TIP3    H242452   6.083   3.788   7.240
 6965TIP3   OH242453   6.388   5.215   1.735
 6965TIP3    H142454   6.458   5.275   1.762
 6965TIP3    H242455   6.419   5.129   1.763
 6966TIP3   OH242456   1.976   3.004   6.928
 6966TIP3    H142457   2.026   3.028   6.850
 6966TIP3    H242458   1.917   2.934   6.899
 6967TIP3   OH242459   5.776   2.672   8.536
 6967TIP3    H142460   5.845   2.635   8.591
 6967TIP3    H242461   5.766   2.762   8.567
 6968TIP3   OH242462   3.475   5.065   6.765
 6968TIP3    H142463   3.501   5.001   6.698
 6968TIP3    H242464   3.390   5.034   6.796
 6969TIP3   OH242465   6.536   2.386   2.677
 6969TIP3    H142466   6.448   2.382   2.640
 6969TIP3    H242467   6.522   2.413   2.768
 6970TIP3   OH242468   3.340   4.618   1.866
 6970TIP3    H142469   3.369   4.560   1.936
 6970TIP3    H242470   3.420   4.654   1.830
 6971TIP3   OH242471   0.009   5.108   1.962
 6971TIP3    H142472   0.008   5.061   2.045
 6971TIP3    H242473   0.017   5.039   1.896
 6972TIP3   OH242474   1.598   5.961   8.547
 6972TIP3    H142475   1.619   5.906   8.470
 6972TIP3    H242476   1.571   5.898   8.614
 6973TIP3   OH242477   2.760   6.643   7.236
 6973TIP3    H142478   2.737   6.593   7.158
 6973TIP3    H242479   2.723   6.730   7.220
 6974TIP3   OH242480   1.945   6.405   1.754
 6974TIP3    H142481   1.927   6.488   1.797
 6974TIP3    H242482   2.011   6.363   1.808
 6975TIP3   OH242483   1.468   3.744   7.737
 6975TIP3    H142484   1.376   3.721   7.750
 6975TIP3    H242485   1.509   3.664   7.706
 6976TIP3   OH242486   3.603   5.711   0.568
 6976TIP3    H142487   3.581   5.624   0.535
 6976TIP3    H242488   3.674   5.741   0.512
 6977TIP3   OH242489   4.312   3.214   7.070
 6977TIP3    H142490   4.352   3.127   7.077
 6977TIP3    H242491   4.383   3.269   7.037
 6978TIP3   OH242492   0.179   4.804   8.609
 6978TIP3    H142493   0.252   4.781   8.552
 6978TIP3    H242494   0.154   4.892   8.581
 6979TIP3   OH242495   2.455   2.531   7.204
 6979TIP3    H142496   2.433   2.539   7.111
 6979TIP3    H242497   2.522   2.463   7.208
 6980TIP3   OH242498   6.453   4.519   1.083
 6980TIP3    H142499   6.427   4.501   0.992
 6980TIP3    H242500   6.387   4.581   1.115
 6981TIP3   OH242501   5.266   1.364   0.767
 6981TIP3    H142502   5.174   1.391   0.769
 6981TIP3    H242503   5.279   1.320   0.850
 6982TIP3   OH242504   5.197   2.203   1.051
 6982TIP3    H142505   5.133   2.171   0.987
 6982TIP3    H242506   5.146   2.259   1.110
 6983TIP3   OH242507   1.931   0.157   1.627
 6983TIP3    H142508   1.974   0.096   1.685
 6983TIP3    H242509   1.866   0.105   1.580
 6984TIP3   OH242510   6.657   2.445   1.165
 6984TIP3    H142511   6.641   2.412   1.253
 6984TIP3    H242512   6.748   2.422   1.147
 6985TIP3   OH242513   5.927   0.502   1.544
 6985TIP3    H142514   5.955   0.471   1.630
 6985TIP3    H242515   5.965   0.590   1.537
 6986TIP3   OH242516   0.258   6.640   0.217
 6986TIP3    H142517   0.284   6.633   0.309
 6986TIP3    H242518   0.242   6.550   0.190
 6987TIP3   OH242519   5.926   3.227   7.738
 6987TIP3    H142520   5.958   3.261   7.654
 6987TIP3    H242521   5.957   3.290   7.803
 6988TIP3   OH242522   2.325   2.467   7.616
 6988TIP3    H142523   2.322   2.542   7.557
 6988TIP3    H242524   2.343   2.392   7.559
 6989TIP3   OH242525   4.367   4.856   1.117
 6989TIP3    H142526   4.374   4.910   1.038
 6989TIP3    H242527   4.386   4.767   1.087
 6990TIP3   OH242528   6.591   2.637   8.421
 6990TIP3    H142529   6.561   2.696   8.490
 6990TIP3    H242530   6.552   2.673   8.341
 6991TIP3   OH242531   3.649   3.036   6.054
 6991TIP3    H142532   3.707   3.100   6.094
 6991TIP3    H242533   3.563   3.078   6.054
 6992TIP3   OH242534   0.293   3.389   7.960
 6992TIP3    H142535   0.219   3.339   7.925
 6992TIP3    H242536   0.277   3.479   7.932
 6993TIP3   OH242537   5.264   5.335   7.158
 6993TIP3    H142538   5.274   5.322   7.252
 6993TIP3    H242539   5.288   5.426   7.143
 6994TIP3   OH242540   2.819   3.098   6.991
 6994TIP3    H142541   2.803   3.192   6.995
 6994TIP3    H242542   2.838   3.073   7.081
 6995TIP3   OH242543   5.010   4.320   6.931
 6995TIP3    H142544   4.940   4.273   6.975
 6995TIP3    H242545   4.966   4.369   6.861
 6996TIP3   OH242546   4.678   1.141   0.415
 6996TIP3    H142547   4.604   1.113   0.469
 6996TIP3    H242548   4.742   1.070   0.424
 6997TIP3   OH242549   0.085   6.501   8.109
 6997TIP3    H142550   0.131   6.506   8.193
 6997TIP3    H242551   0.074   6.407   8.094
 6998TIP3   OH242552   5.683   1.551   6.538
 6998TIP3    H142553   5.598   1.561   6.497
 6998TIP3    H242554   5.666   1.557   6.632
 6999TIP3   OH242555   2.695   1.169   1.086
 6999TIP3    H142556   2.782   1.143   1.117
 6999TIP3    H242557   2.640   1.168   1.164
 7000TIP3   OH242558   5.638   2.018   2.176
 7000TIP3    H142559   5.661   2.003   2.084
 7000TIP3    H242560   5.548   2.053   2.173
 7001TIP3   OH242561   5.863   5.469   0.808
 7001TIP3    H142562   5.852   5.522   0.729
 7001TIP3    H242563   5.819   5.387   0.789
 7002TIP3   OH242564   3.864   6.066   7.343
 7002TIP3    H142565   3.776   6.087   7.309
 7002TIP3    H242566   3.857   5.976   7.373
 7003TIP3   OH242567   1.081   5.927   6.779
 7003TIP3    H142568   1.159   5.972   6.812
 7003TIP3    H242569   1.114   5.874   6.706
 7004TIP3   OH242570   3.520   6.020   6.593
 7004TIP3    H142571   3.537   6.042   6.502
 7004TIP3    H242572   3.529   6.102   6.641
 7005TIP3   OH242573   0.498   3.697   7.949
 7005TIP3    H142574   0.409   3.688   7.915
 7005TIP3    H242575   0.507   3.625   8.012
 7006TIP3   OH242576   1.528   1.043   7.871
 7006TIP3    H142577   1.444   1.068   7.910
 7006TIP3    H242578   1.531   1.090   7.788
 7007TIP3   OH242579   4.257   1.851   2.338
 7007TIP3    H142580   4.202   1.827   2.263
 7007TIP3    H242581   4.221   1.934   2.368
 7008TIP3   OH242582   6.819   1.760   1.728
 7008TIP3    H142583   6.816   1.674   1.686
 7008TIP3    H242584   0.018   1.762   1.771
 7009TIP3   OH242585   0.312   0.882   6.214
 7009TIP3    H142586   0.293   0.814   6.149
 7009TIP3    H242587   0.226   0.915   6.240
 7010TIP3   OH242588   2.172   3.648   8.223
 7010TIP3    H142589   2.246   3.606   8.267
 7010TIP3    H242590   2.110   3.667   8.294
 7011TIP3   OH242591   4.542   4.739   1.732
 7011TIP3    H142592   4.469   4.691   1.774
 7011TIP3    H242593   4.549   4.820   1.782
 7012TIP3   OH242594   3.050   6.154   6.729
 7012TIP3    H142595   3.119   6.090   6.745
 7012TIP3    H242596   3.087   6.213   6.663
 7013TIP3   OH242597   5.517   3.659   0.618
 7013TIP3    H142598   5.478   3.687   0.701
 7013TIP3    H242599   5.539   3.567   0.632
 7014TIP3   OH242600   0.103   2.797   1.031
 7014TIP3    H142601   0.010   2.776   1.045
 7014TIP3    H242602   0.104   2.893   1.021
 7015TIP3   OH242603   4.380   5.486   6.854
 7015TIP3    H142604   4.297   5.535   6.849
 7015TIP3    H242605   4.429   5.516   6.778
 7016TIP3   OH242606   0.105   5.264   2.191
 7016TIP3    H142607   0.031   5.208   2.168
 7016TIP3    H242608   0.164   5.206   2.241
 7017TIP3   OH242609   1.935   1.848   7.354
 7017TIP3    H142610   1.843   1.875   7.361
 7017TIP3    H242611   1.932   1.764   7.308
 7018TIP3   OH242612   2.046   0.858   0.062
 7018TIP3    H142613   2.069   0.895   8.638
 7018TIP3    H242614   1.970   0.802   0.044
 7019TIP3   OH242615   4.483   3.989   0.886
 7019TIP3    H142616   4.507   3.921   0.948
 7019TIP3    H242617   4.392   4.011   0.908
 7020TIP3   OH242618   0.226   1.482   8.450
 7020TIP3    H142619   0.169   1.435   8.389
 7020TIP3    H242620   0.246   1.565   8.407
 7021TIP3   OH242621   3.105   5.858   1.474
 7021TIP3    H142622   3.020   5.819   1.493
 7021TIP3    H242623   3.152   5.792   1.424
 7022TIP3   OH242624   2.628   6.199   0.086
 7022TIP3    H142625   2.629   6.292   0.061
 7022TIP3    H242626   2.544   6.166   0.053
 7023TIP3   OH242627   5.916   6.260   7.861
 7023TIP3    H142628   5.864   6.314   7.802
 7023TIP3    H242629   5.860   6.186   7.882
 7024TIP3   OH242630   2.942   2.180   0.616
 7024TIP3    H142631   2.986   2.246   0.563
 7024TIP3    H242632   2.877   2.229   0.667
 7025TIP3   OH242633   2.043   3.530   1.098
 7025TIP3    H142634   2.121   3.476   1.084
 7025TIP3    H242635   2.024   3.522   1.191
 7026TIP3   OH242636   6.593   6.260   0.419
 7026TIP3    H142637   6.513   6.209   0.406
 7026TIP3    H242638   6.660   6.211   0.373
 7027TIP3   OH242639   3.500   4.393   6.767
 7027TIP3    H142640   3.542   4.410   6.851
 7027TIP3    H242641   3.455   4.309   6.779
 7028TIP3   OH242642   4.735   5.590   7.195
 7028TIP3    H142643   4.821   5.602   7.237
 7028TIP3    H242644   4.747   5.624   7.107
 7029TIP3   OH242645   0.870   3.413   8.169
 7029TIP3    H142646   0.874   3.386   8.077
 7029TIP3    H242647   0.811   3.350   8.209
 7030TIP3   OH242648   3.495   3.678   6.038
 7030TIP3    H142649   3.506   3.614   6.109
 7030TIP3    H242650   3.487   3.625   5.959
 7031TIP3   OH242651   3.013   0.436   6.562
 7031TIP3    H142652   3.084   0.459   6.622
 7031TIP3    H242653   3.057   0.415   6.480
 7032TIP3   OH242654   5.802   5.604   0.584
 7032TIP3    H142655   5.848   5.672   0.534
 7032TIP3    H242656   5.722   5.588   0.534
 7033TIP3   OH242657   5.932   0.949   2.032
 7033TIP3    H142658   5.930   0.860   2.068
 7033TIP3    H242659   6.019   0.958   1.994
 7034TIP3   OH242660   5.761   4.538   1.265
 7034TIP3    H142661   5.684   4.503   1.220
 7034TIP3    H242662   5.752   4.507   1.355
 7035TIP3   OH242663   4.611   4.744   1.400
 7035TIP3    H142664   4.702   4.769   1.417
 7035TIP3    H242665   4.617   4.679   1.330
 7036TIP3   OH242666   2.431   6.732   7.385
 7036TIP3    H142667   2.498   6.770   7.442
 7036TIP3    H242668   2.357   6.714   7.443
 7037TIP3   OH242669   4.780   2.762   2.150
 7037TIP3    H142670   4.833   2.767   2.230
 7037TIP3    H242671   4.693   2.740   2.181
 7038TIP3   OH242672   5.533   1.284   7.678
 7038TIP3    H142673   5.580   1.364   7.655
 7038TIP3    H242674   5.601   1.224   7.709
 7039TIP3   OH242675   6.399   5.464   8.500
 7039TIP3    H142676   6.398   5.559   8.510
 7039TIP3    H242677   6.387   5.430   8.589
 7040TIP3   OH242678   1.715   4.332   0.088
 7040TIP3    H142679   1.800   4.289   0.091
 7040TIP3    H242680   1.688   4.326   8.658
 7041TIP3   OH242681   0.038   6.879   1.218
 7041TIP3    H142682   0.105   0.053   1.253
 7041TIP3    H242683   0.082   6.836   1.144
 7042TIP3   OH242684   2.109   3.027   7.508
 7042TIP3    H142685   2.197   3.012   7.474
 7042TIP3    H242686   2.121   3.089   7.580
 7043TIP3   OH242687   1.422   2.072   0.123
 7043TIP3    H142688   1.445   2.040   0.210
 7043TIP3    H242689   1.372   2.001   0.083
 7044TIP3   OH242690   2.634   4.289   8.072
 7044TIP3    H142691   2.633   4.291   8.168
 7044TIP3    H242692   2.568   4.354   8.046
 7045TIP3   OH242693   2.979   4.099   8.102
 7045TIP3    H142694   3.049   4.132   8.158
 7045TIP3    H242695   2.901   4.101   8.158
 7046TIP3   OH242696   1.057   4.704   7.925
 7046TIP3    H142697   1.119   4.726   7.854
 7046TIP3    H242698   1.061   4.609   7.931
 7047TIP3   OH242699   0.374   5.849   0.747
 7047TIP3    H142700   0.387   5.939   0.778
 7047TIP3    H242701   0.359   5.798   0.827
 7048TIP3   OH242702   3.030   2.699   1.214
 7048TIP3    H142703   3.102   2.689   1.151
 7048TIP3    H242704   3.024   2.613   1.257
 7049TIP3   OH242705   1.752   1.832   7.995
 7049TIP3    H142706   1.741   1.927   7.999
 7049TIP3    H242707   1.669   1.797   8.026
 7050TIP3   OH242708   2.206   0.182   1.323
 7050TIP3    H142709   2.192   0.104   1.378
 7050TIP3    H242710   2.301   0.185   1.311
 7051TIP3   OH242711   3.011   1.972   7.787
 7051TIP3    H142712   3.060   1.890   7.793
 7051TIP3    H242713   2.950   1.969   7.861
 7052TIP3   OH242714   6.423   0.807   6.878
 7052TIP3    H142715   6.439   0.788   6.786
 7052TIP3    H242716   6.343   0.759   6.899
 7053TIP3   OH242717   5.212   5.826   2.107
 7053TIP3    H142718   5.159   5.750   2.085
 7053TIP3    H242719   5.302   5.796   2.099
 7054TIP3   OH242720   3.081   0.444   7.281
 7054TIP3    H142721   3.166   0.443   7.237
 7054TIP3    H242722   3.096   0.397   7.363
 7055TIP3   OH242723   0.970   3.472   8.474
 7055TIP3    H142724   0.971   3.523   8.393
 7055TIP3    H242725   0.881   3.440   8.481
 7056TIP3   OH242726   2.223   6.351   7.843
 7056TIP3    H142727   2.275   6.404   7.782
 7056TIP3    H242728   2.208   6.269   7.796
 7057TIP3   OH242729   6.861   3.064   2.059
 7057TIP3    H142730   6.847   2.970   2.075
 7057TIP3    H242731   6.780   3.105   2.089
 7058TIP3   OH242732   6.194   0.059   1.953
 7058TIP3    H142733   6.107   0.021   1.942
 7058TIP3    H242734   6.244   6.879   2.001
 7059TIP3   OH242735   3.624   4.876   6.597
 7059TIP3    H142736   3.703   4.829   6.571
 7059TIP3    H242737   3.552   4.824   6.563
 7060TIP3   OH242738   2.679   3.750   6.826
 7060TIP3    H142739   2.770   3.779   6.817
 7060TIP3    H242740   2.629   3.831   6.835
 7061TIP3   OH242741   5.127   6.518   2.299
 7061TIP3    H142742   5.035   6.538   2.278
 7061TIP3    H242743   5.139   6.550   2.388
 7062TIP3   OH242744   5.311   6.040   2.247
 7062TIP3    H142745   5.280   5.955   2.217
 7062TIP3    H242746   5.234   6.097   2.244
 7063TIP3   OH242747   3.065   2.683   2.320
 7063TIP3    H142748   3.024   2.606   2.279
 7063TIP3    H242749   3.142   2.647   2.364
 7064TIP3   OH242750   1.269   2.575   0.854
 7064TIP3    H142751   1.288   2.510   0.787
 7064TIP3    H242752   1.221   2.644   0.809
 7065TIP3   OH242753   4.787   1.330   0.249
 7065TIP3    H142754   4.823   1.403   0.299
 7065TIP3    H242755   4.754   1.269   0.315
 7066TIP3   OH242756   5.015   4.516   1.520
 7066TIP3    H142757   5.063   4.508   1.437
 7066TIP3    H242758   5.080   4.551   1.581
 7067TIP3   OH242759   0.633   0.874   1.219
 7067TIP3    H142760   0.717   0.832   1.235
 7067TIP3    H242761   0.573   0.834   1.282
 7068TIP3   OH242762   5.114   4.405   7.779
 7068TIP3    H142763   5.116   4.478   7.717
 7068TIP3    H242764   5.104   4.327   7.725
 7069TIP3   OH242765   5.213   2.614   0.287
 7069TIP3    H142766   5.195   2.558   0.362
 7069TIP3    H242767   5.183   2.701   0.314
 7070TIP3   OH242768   1.672   5.919   0.395
 7070TIP3    H142769   1.720   5.927   0.313
 7070TIP3    H242770   1.729   5.866   0.451
 7071TIP3   OH242771   2.507   1.436   2.322
 7071TIP3    H142772   2.588   1.387   2.336
 7071TIP3    H242773   2.446   1.401   2.387
 7072LIG      O42774   2.506   6.078   3.365
 7072LIG     C142775   2.515   6.172   3.476
 7072LIG     C242776   2.649   6.245   3.473
 7072LIG     C342777   2.387   6.260   3.468
 7072LIG     H142778   2.517   6.119   3.574
 7072LIG     H242779   2.748   6.196   3.470
 7072LIG     H342780   2.641   6.306   3.565
 7072LIG     H442781   2.645   6.314   3.386
 7072LIG     H542782   2.295   6.197   3.470
 7072LIG     H642783   2.390   6.327   3.380
 7072LIG     H742784   2.382   6.329   3.555
 7072LIG     H842785   2.571   6.008   3.374
   6.88623   6.88623   8.66210
