Title t= 4200.00000 step= 2100000
42785
    1SAPS     N    1   4.514   3.389   6.738
    1SAPS   HN1    2   4.601   3.359   6.786
    1SAPS   HN2    3   4.460   3.303   6.759
    1SAPS   HN3    4   4.526   3.400   6.635
    1SAPS   C12    5   4.456   3.500   6.810
    1SAPS  H12A    6   4.435   3.472   6.912
    1SAPS   C13    7   4.540   3.623   6.813
    1SAPS  O13A    8   4.658   3.621   6.766
    1SAPS  O13B    9   4.504   3.719   6.883
    1SAPS   C11   10   4.314   3.539   6.751
    1SAPS  H11A   11   4.337   3.563   6.645
    1SAPS  H11B   12   4.272   3.628   6.802
    1SAPS     P   13   4.120   3.392   6.647
    1SAPS   O13   14   4.095   3.250   6.651
    1SAPS   O14   15   4.003   3.485   6.667
    1SAPS   O12   16   4.228   3.424   6.759
    1SAPS   O11   17   4.197   3.439   6.511
    1SAPS    C1   18   4.196   3.349   6.396
    1SAPS    HA   19   4.299   3.331   6.358
    1SAPS    HB   20   4.143   3.253   6.412
    1SAPS    C2   21   4.121   3.419   6.281
    1SAPS    HS   22   4.124   3.341   6.202
    1SAPS   O21   23   4.184   3.544   6.243
    1SAPS   C21   24   4.319   3.540   6.209
    1SAPS   O22   25   4.384   3.440   6.192
    1SAPS   C22   26   4.369   3.682   6.186
    1SAPS   H2R   27   4.363   3.756   6.269
    1SAPS   H2S   28   4.479   3.666   6.184
    1SAPS    C3   29   3.965   3.435   6.301
    1SAPS    HX   30   3.957   3.507   6.386
    1SAPS    HY   31   3.910   3.352   6.351
    1SAPS   O31   32   3.914   3.472   6.176
    1SAPS   C31   33   3.865   3.595   6.162
    1SAPS   O32   34   3.871   3.683   6.248
    1SAPS   C32   35   3.824   3.629   6.020
    1SAPS   H2X   36   3.780   3.728   6.045
    1SAPS   H2Y   37   3.748   3.554   5.988
    1SAPS   C23   38   4.303   3.750   6.065
    1SAPS   H3R   39   4.193   3.738   6.057
    1SAPS   H3S   40   4.326   3.686   5.978
    1SAPS   C24   41   4.355   3.892   6.038
    1SAPS   H4R   42   4.348   3.959   6.126
    1SAPS   H4S   43   4.293   3.937   5.958
    1SAPS   C25   44   4.499   3.906   6.004
    1SAPS   H5R   45   4.566   3.939   6.084
    1SAPS   C26   46   4.555   3.911   5.881
    1SAPS   H6R   47   4.664   3.926   5.873
    1SAPS   C27   48   4.495   3.865   5.751
    1SAPS   H7R   49   4.396   3.915   5.749
    1SAPS   H7S   50   4.489   3.754   5.753
    1SAPS   C28   51   4.569   3.923   5.631
    1SAPS   H8R   52   4.598   4.029   5.631
    1SAPS   C29   53   4.576   3.860   5.510
    1SAPS   H9R   54   4.632   3.913   5.432
    1SAPS  C210   55   4.541   3.720   5.473
    1SAPS  H10R   56   4.454   3.730   5.404
    1SAPS  H10S   57   4.494   3.664   5.557
    1SAPS  C211   58   4.655   3.646   5.402
    1SAPS  H11R   59   4.734   3.608   5.469
    1SAPS  C212   60   4.683   3.621   5.276
    1SAPS  H12R   61   4.768   3.554   5.259
    1SAPS  C213   62   4.614   3.668   5.148
    1SAPS  H13R   63   4.587   3.775   5.165
    1SAPS  H13S   64   4.518   3.615   5.131
    1SAPS  C214   65   4.704   3.670   5.032
    1SAPS  H14R   66   4.811   3.657   5.054
    1SAPS  C215   67   4.659   3.669   4.902
    1SAPS  H15R   68   4.732   3.641   4.825
    1SAPS  C216   69   4.519   3.678   4.847
    1SAPS  H16R   70   4.439   3.709   4.918
    1SAPS  H16S   71   4.480   3.578   4.817
    1SAPS  C217   72   4.517   3.774   4.726
    1SAPS  H17R   73   4.413   3.782   4.690
    1SAPS  H17S   74   4.582   3.741   4.642
    1SAPS  C218   75   4.548   3.916   4.778
    1SAPS  H18R   76   4.656   3.914   4.803
    1SAPS  H18S   77   4.483   3.920   4.868
    1SAPS  C219   78   4.528   4.029   4.676
    1SAPS  H19R   79   4.421   4.060   4.678
    1SAPS  H19S   80   4.558   4.003   4.573
    1SAPS  C220   81   4.610   4.148   4.707
    1SAPS  H20R   82   4.597   4.150   4.818
    1SAPS  H20S   83   4.571   4.244   4.669
    1SAPS  H20T   84   4.715   4.125   4.680
    1SAPS   C33   85   3.941   3.637   5.921
    1SAPS   H3X   86   4.018   3.695   5.977
    1SAPS   H3Y   87   3.913   3.695   5.831
    1SAPS   C34   88   4.000   3.504   5.878
    1SAPS   H4X   89   3.919   3.433   5.851
    1SAPS   H4Y   90   4.069   3.454   5.950
    1SAPS   C35   91   4.085   3.547   5.753
    1SAPS   H5X   92   4.175   3.601   5.791
    1SAPS   H5Y   93   4.025   3.620   5.694
    1SAPS   C36   94   4.142   3.428   5.666
    1SAPS   H6X   95   4.058   3.388   5.606
    1SAPS   H6Y   96   4.179   3.347   5.732
    1SAPS   C37   97   4.246   3.469   5.565
    1SAPS   H7X   98   4.279   3.380   5.508
    1SAPS   H7Y   99   4.337   3.511   5.614
    1SAPS   C38  100   4.197   3.576   5.466
    1SAPS   H8X  101   4.285   3.634   5.433
    1SAPS   H8Y  102   4.131   3.649   5.517
    1SAPS   C39  103   4.129   3.519   5.348
    1SAPS   H9X  104   4.043   3.453   5.375
    1SAPS   H9Y  105   4.196   3.454   5.288
    1SAPS  C310  106   4.091   3.629   5.242
    1SAPS  H10X  107   4.044   3.705   5.309
    1SAPS  H10Y  108   4.017   3.590   5.169
    1SAPS  C311  109   4.216   3.673   5.157
    1SAPS  H11X  110   4.272   3.600   5.095
    1SAPS  H11Y  111   4.285   3.714   5.234
    1SAPS  C312  112   4.191   3.788   5.054
    1SAPS  H12X  113   4.289   3.827   5.019
    1SAPS  H12Y  114   4.142   3.878   5.097
    1SAPS  C313  115   4.131   3.727   4.920
    1SAPS  H13X  116   4.037   3.676   4.948
    1SAPS  H13Y  117   4.201   3.651   4.879
    1SAPS  C314  118   4.094   3.826   4.803
    1SAPS  H14X  119   4.152   3.919   4.820
    1SAPS  H14Y  120   3.989   3.860   4.804
    1SAPS  C315  121   4.108   3.761   4.666
    1SAPS  H15X  122   4.034   3.680   4.650
    1SAPS  H15Y  123   4.204   3.706   4.674
    1SAPS  C316  124   4.114   3.860   4.551
    1SAPS  H16X  125   4.208   3.919   4.557
    1SAPS  H16Y  126   4.035   3.938   4.554
    1SAPS  C317  127   4.101   3.787   4.414
    1SAPS  H17X  128   4.087   3.864   4.335
    1SAPS  H17Y  129   4.020   3.712   4.414
    1SAPS  C318  130   4.234   3.721   4.373
    1SAPS  H18X  131   4.279   3.676   4.464
    1SAPS  H18Y  132   4.310   3.795   4.343
    1SAPS  H18Z  133   4.227   3.646   4.292
    2SAPS     N  134   4.531   6.556   6.989
    2SAPS   HN1  135   4.581   6.479   7.039
    2SAPS   HN2  136   4.562   6.562   6.890
    2SAPS   HN3  137   4.553   6.642   7.044
    2SAPS   C12  138   4.389   6.530   6.988
    2SAPS  H12A  139   4.361   6.487   7.083
    2SAPS   C13  140   4.309   6.653   6.953
    2SAPS  O13A  141   4.356   6.768   6.965
    2SAPS  O13B  142   4.187   6.627   6.937
    2SAPS   C11  143   4.363   6.413   6.876
    2SAPS  H11A  144   4.385   6.448   6.773
    2SAPS  H11B  145   4.256   6.387   6.883
    2SAPS     P  146   4.491   6.202   6.794
    2SAPS   O13  147   4.619   6.254   6.738
    2SAPS   O14  148   4.499   6.069   6.853
    2SAPS   O12  149   4.441   6.303   6.916
    2SAPS   O11  150   4.376   6.217   6.688
    2SAPS    C1  151   4.259   6.130   6.685
    2SAPS    HA  152   4.219   6.119   6.788
    2SAPS    HB  153   4.186   6.195   6.632
    2SAPS    C2  154   4.280   6.004   6.606
    2SAPS    HS  155   4.337   5.936   6.673
    2SAPS   O21  156   4.358   6.025   6.482
    2SAPS   C21  157   4.412   5.917   6.431
    2SAPS   O22  158   4.397   5.808   6.487
    2SAPS   C22  159   4.474   5.952   6.305
    2SAPS   H2R  160   4.536   5.872   6.260
    2SAPS   H2S  161   4.403   5.983   6.226
    2SAPS    C3  162   4.140   5.929   6.580
    2SAPS    HX  163   4.096   5.900   6.677
    2SAPS    HY  164   4.169   5.835   6.528
    2SAPS   O31  165   4.042   5.997   6.503
    2SAPS   C31  166   4.050   5.996   6.366
    2SAPS   O32  167   4.084   5.900   6.303
    2SAPS   C32  168   3.980   6.121   6.308
    2SAPS   H2X  169   3.982   6.186   6.398
    2SAPS   H2Y  170   3.876   6.102   6.273
    2SAPS   C23  171   4.573   6.073   6.315
    2SAPS   H3R  172   4.676   6.042   6.343
    2SAPS   H3S  173   4.542   6.155   6.382
    2SAPS   C24  174   4.567   6.147   6.181
    2SAPS   H4R  175   4.621   6.242   6.201
    2SAPS   H4S  176   4.463   6.180   6.158
    2SAPS   C25  177   4.643   6.074   6.073
    2SAPS   H5R  178   4.749   6.053   6.096
    2SAPS   C26  179   4.594   6.031   5.949
    2SAPS   H6R  180   4.655   5.968   5.882
    2SAPS   C27  181   4.447   6.039   5.913
    2SAPS   H7R  182   4.404   6.130   5.960
    2SAPS   H7S  183   4.396   5.946   5.946
    2SAPS   C28  184   4.431   6.052   5.761
    2SAPS   H8R  185   4.500   6.124   5.714
    2SAPS   C29  186   4.348   5.986   5.671
    2SAPS   H9R  187   4.357   6.015   5.566
    2SAPS  C210  188   4.242   5.886   5.707
    2SAPS  H10R  189   4.150   5.934   5.666
    2SAPS  H10S  190   4.238   5.880   5.817
    2SAPS  C211  191   4.259   5.750   5.643
    2SAPS  H11R  192   4.308   5.681   5.713
    2SAPS  C212  193   4.230   5.703   5.520
    2SAPS  H12R  194   4.250   5.595   5.507
    2SAPS  C213  195   4.163   5.784   5.408
    2SAPS  H13R  196   4.182   5.893   5.418
    2SAPS  H13S  197   4.053   5.770   5.411
    2SAPS  C214  198   4.207   5.729   5.272
    2SAPS  H14R  199   4.284   5.651   5.277
    2SAPS  C215  200   4.163   5.778   5.153
    2SAPS  H15R  201   4.205   5.733   5.062
    2SAPS  C216  202   4.070   5.898   5.132
    2SAPS  H16R  203   4.032   5.935   5.229
    2SAPS  H16S  204   3.989   5.866   5.063
    2SAPS  C217  205   4.148   6.006   5.060
    2SAPS  H17R  206   4.240   6.033   5.117
    2SAPS  H17S  207   4.081   6.093   5.040
    2SAPS  C218  208   4.168   5.968   4.914
    2SAPS  H18R  209   4.069   5.925   4.888
    2SAPS  H18S  210   4.246   5.892   4.898
    2SAPS  C219  211   4.209   6.080   4.818
    2SAPS  H19R  212   4.145   6.171   4.828
    2SAPS  H19S  213   4.180   6.032   4.722
    2SAPS  C220  214   4.357   6.122   4.834
    2SAPS  H20R  215   4.415   6.027   4.831
    2SAPS  H20S  216   4.372   6.177   4.929
    2SAPS  H20T  217   4.393   6.194   4.758
    2SAPS   C33  218   4.057   6.182   6.186
    2SAPS   H3X  219   4.045   6.112   6.101
    2SAPS   H3Y  220   4.165   6.166   6.205
    2SAPS   C34  221   4.035   6.323   6.151
    2SAPS   H4X  222   4.025   6.388   6.240
    2SAPS   H4Y  223   3.936   6.341   6.103
    2SAPS   C35  224   4.149   6.384   6.070
    2SAPS   H5X  225   4.250   6.368   6.114
    2SAPS   H5Y  226   4.128   6.491   6.050
    2SAPS   C36  227   4.163   6.326   5.923
    2SAPS   H6X  228   4.158   6.216   5.939
    2SAPS   H6Y  229   4.262   6.356   5.883
    2SAPS   C37  230   4.053   6.375   5.829
    2SAPS   H7X  231   4.056   6.486   5.824
    2SAPS   H7Y  232   3.956   6.340   5.869
    2SAPS   C38  233   4.072   6.324   5.682
    2SAPS   H8X  234   4.111   6.220   5.682
    2SAPS   H8Y  235   4.164   6.373   5.642
    2SAPS   C39  236   3.957   6.357   5.583
    2SAPS   H9X  237   3.938   6.466   5.577
    2SAPS   H9Y  238   3.871   6.308   5.634
    2SAPS  C310  239   3.985   6.289   5.448
    2SAPS  H10X  240   3.994   6.178   5.451
    2SAPS  H10Y  241   4.085   6.330   5.423
    2SAPS  C311  242   3.896   6.336   5.331
    2SAPS  H11X  243   3.908   6.447   5.327
    2SAPS  H11Y  244   3.788   6.318   5.345
    2SAPS  C312  245   3.932   6.273   5.196
    2SAPS  H12X  246   3.932   6.162   5.200
    2SAPS  H12Y  247   4.032   6.311   5.168
    2SAPS  C313  248   3.837   6.307   5.082
    2SAPS  H13X  249   3.828   6.417   5.075
    2SAPS  H13Y  250   3.736   6.270   5.110
    2SAPS  C314  251   3.870   6.240   4.947
    2SAPS  H14X  252   3.883   6.130   4.956
    2SAPS  H14Y  253   3.969   6.273   4.909
    2SAPS  C315  254   3.769   6.274   4.837
    2SAPS  H15X  255   3.755   6.384   4.833
    2SAPS  H15Y  256   3.671   6.229   4.863
    2SAPS  C316  257   3.810   6.215   4.698
    2SAPS  H16X  258   3.796   6.105   4.690
    2SAPS  H16Y  259   3.915   6.232   4.668
    2SAPS  C317  260   3.706   6.259   4.593
    2SAPS  H17X  261   3.715   6.369   4.580
    2SAPS  H17Y  262   3.600   6.249   4.626
    2SAPS  C318  263   3.736   6.178   4.463
    2SAPS  H18X  264   3.732   6.072   4.496
    2SAPS  H18Y  265   3.838   6.195   4.421
    2SAPS  H18Z  266   3.668   6.205   4.379
    3SAPS     N  267   4.192   4.022   6.574
    3SAPS   HN1  268   4.277   4.048   6.520
    3SAPS   HN2  269   4.230   3.988   6.665
    3SAPS   HN3  270   4.152   3.937   6.530
    3SAPS   C12  271   4.090   4.131   6.590
    3SAPS  H12A  272   4.055   4.168   6.494
    3SAPS   C13  273   3.956   4.093   6.648
    3SAPS  O13A  274   3.926   3.973   6.678
    3SAPS  O13B  275   3.869   4.186   6.637
    3SAPS   C11  276   4.159   4.242   6.677
    3SAPS  H11A  277   4.164   4.210   6.783
    3SAPS  H11B  278   4.094   4.331   6.685
    3SAPS     P  279   4.394   4.343   6.719
    3SAPS   O13  280   4.329   4.452   6.798
    3SAPS   O14  281   4.461   4.242   6.808
    3SAPS   O12  282   4.289   4.272   6.622
    3SAPS   O11  283   4.489   4.413   6.617
    3SAPS    C1  284   4.511   4.361   6.481
    3SAPS    HA  285   4.584   4.278   6.476
    3SAPS    HB  286   4.416   4.335   6.428
    3SAPS    C2  287   4.581   4.471   6.403
    3SAPS    HS  288   4.509   4.543   6.358
    3SAPS   O21  289   4.660   4.407   6.296
    3SAPS   C21  290   4.594   4.376   6.187
    3SAPS   O22  291   4.474   4.391   6.168
    3SAPS   C22  292   4.689   4.314   6.085
    3SAPS   H2R  293   4.742   4.398   6.035
    3SAPS   H2S  294   4.768   4.262   6.143
    3SAPS    C3  295   4.674   4.556   6.497
    3SAPS    HX  296   4.716   4.493   6.578
    3SAPS    HY  297   4.609   4.629   6.550
    3SAPS   O31  298   4.781   4.620   6.428
    3SAPS   C31  299   4.742   4.717   6.347
    3SAPS   O32  300   4.624   4.749   6.326
    3SAPS   C32  301   4.856   4.784   6.270
    3SAPS   H2X  302   4.896   4.707   6.200
    3SAPS   H2Y  303   4.947   4.807   6.329
    3SAPS   C23  304   4.618   4.233   5.978
    3SAPS   H3R  305   4.509   4.221   5.996
    3SAPS   H3S  306   4.662   4.131   5.983
    3SAPS   C24  307   4.630   4.286   5.832
    3SAPS   H4R  308   4.599   4.393   5.838
    3SAPS   H4S  309   4.551   4.232   5.776
    3SAPS   C25  310   4.768   4.266   5.766
    3SAPS   H5R  311   4.842   4.230   5.839
    3SAPS   C26  312   4.794   4.291   5.637
    3SAPS   H6R  313   4.896   4.274   5.599
    3SAPS   C27  314   4.701   4.340   5.537
    3SAPS   H7R  315   4.597   4.314   5.563
    3SAPS   H7S  316   4.704   4.273   5.448
    3SAPS   C28  317   4.722   4.486   5.500
    3SAPS   H8R  318   4.676   4.552   5.575
    3SAPS   C29  319   4.771   4.531   5.381
    3SAPS   H9R  320   4.795   4.637   5.368
    3SAPS  C210  321   4.825   4.432   5.281
    3SAPS  H10R  322   4.847   4.330   5.320
    3SAPS  H10S  323   4.922   4.474   5.247
    3SAPS  C211  324   4.735   4.426   5.156
    3SAPS  H11R  325   4.652   4.499   5.148
    3SAPS  C212  326   4.759   4.337   5.055
    3SAPS  H12R  327   4.689   4.325   4.971
    3SAPS  C213  328   4.871   4.236   5.052
    3SAPS  H13R  329   4.962   4.260   5.111
    3SAPS  H13S  330   4.915   4.221   4.950
    3SAPS  C214  331   4.800   4.107   5.092
    3SAPS  H14R  332   4.701   4.094   5.048
    3SAPS  C215  333   4.843   4.022   5.183
    3SAPS  H15R  334   4.778   3.939   5.214
    3SAPS  C216  335   4.968   4.034   5.270
    3SAPS  H16R  336   4.965   4.132   5.322
    3SAPS  H16S  337   5.057   4.016   5.206
    3SAPS  C217  338   4.964   3.939   5.389
    3SAPS  H17R  339   4.973   3.836   5.351
    3SAPS  H17S  340   4.868   3.951   5.445
    3SAPS  C218  341   5.076   3.972   5.489
    3SAPS  H18R  342   5.062   4.068   5.544
    3SAPS  H18S  343   5.170   3.963   5.430
    3SAPS  C219  344   5.083   3.868   5.603
    3SAPS  H19R  345   5.088   3.768   5.555
    3SAPS  H19S  346   5.179   3.882   5.657
    3SAPS  C220  347   4.966   3.870   5.700
    3SAPS  H20R  348   4.984   3.802   5.787
    3SAPS  H20S  349   4.876   3.833   5.647
    3SAPS  H20T  350   4.956   3.970   5.747
    3SAPS   C33  351   4.809   4.893   6.170
    3SAPS   H3X  352   4.734   4.964   6.212
    3SAPS   H3Y  353   4.739   4.841   6.102
    3SAPS   C34  354   4.928   4.963   6.101
    3SAPS   H4X  355   4.997   4.884   6.064
    3SAPS   H4Y  356   4.982   5.020   6.179
    3SAPS   C35  357   4.882   5.056   5.987
    3SAPS   H5X  358   4.813   5.132   6.029
    3SAPS   H5Y  359   4.966   5.097   5.927
    3SAPS   C36  360   4.808   4.974   5.881
    3SAPS   H6X  361   4.706   4.947   5.917
    3SAPS   H6Y  362   4.859   4.875   5.872
    3SAPS   C37  363   4.793   5.041   5.746
    3SAPS   H7X  364   4.891   5.067   5.701
    3SAPS   H7Y  365   4.731   5.132   5.754
    3SAPS   C38  366   4.720   4.939   5.651
    3SAPS   H8X  367   4.621   4.912   5.693
    3SAPS   H8Y  368   4.785   4.849   5.645
    3SAPS   C39  369   4.695   4.987   5.508
    3SAPS   H9X  370   4.681   5.097   5.507
    3SAPS   H9Y  371   4.603   4.944   5.465
    3SAPS  C310  372   4.817   4.961   5.424
    3SAPS  H10X  373   4.833   4.851   5.427
    3SAPS  H10Y  374   4.901   5.019   5.467
    3SAPS  C311  375   4.803   5.011   5.274
    3SAPS  H11X  376   4.907   5.026   5.239
    3SAPS  H11Y  377   4.758   5.113   5.278
    3SAPS  C312  378   4.740   4.916   5.185
    3SAPS  H12X  379   4.631   4.906   5.205
    3SAPS  H12Y  380   4.787   4.816   5.191
    3SAPS  C313  381   4.760   4.959   5.037
    3SAPS  H13X  382   4.751   4.873   4.967
    3SAPS  H13Y  383   4.857   5.012   5.027
    3SAPS  C314  384   4.647   5.053   4.984
    3SAPS  H14X  385   4.643   5.151   5.036
    3SAPS  H14Y  386   4.549   5.006   5.007
    3SAPS  C315  387   4.672   5.078   4.832
    3SAPS  H15X  388   4.717   4.988   4.786
    3SAPS  H15Y  389   4.744   5.159   4.809
    3SAPS  C316  390   4.543   5.126   4.768
    3SAPS  H16X  391   4.490   5.203   4.828
    3SAPS  H16Y  392   4.485   5.033   4.748
    3SAPS  C317  393   4.559   5.204   4.635
    3SAPS  H17X  394   4.603   5.304   4.657
    3SAPS  H17Y  395   4.456   5.218   4.596
    3SAPS  C318  396   4.649   5.142   4.525
    3SAPS  H18X  397   4.658   5.032   4.537
    3SAPS  H18Y  398   4.746   5.196   4.520
    3SAPS  H18Z  399   4.599   5.169   4.429
    4SAPS     N  400   1.655   2.304   7.034
    4SAPS   HN1  401   1.603   2.260   6.955
    4SAPS   HN2  402   1.744   2.253   7.047
    4SAPS   HN3  403   1.598   2.286   7.119
    4SAPS   C12  404   1.664   2.441   7.005
    4SAPS  H12A  405   1.597   2.485   7.077
    4SAPS   C13  406   1.809   2.488   7.018
    4SAPS  O13A  407   1.903   2.406   7.023
    4SAPS  O13B  408   1.828   2.615   7.021
    4SAPS   C11  409   1.603   2.477   6.869
    4SAPS  H11A  410   1.679   2.451   6.792
    4SAPS  H11B  411   1.586   2.587   6.878
    4SAPS     P  412   1.381   2.457   6.743
    4SAPS   O13  413   1.277   2.358   6.709
    4SAPS   O14  414   1.331   2.588   6.791
    4SAPS   O12  415   1.485   2.400   6.844
    4SAPS   O11  416   1.460   2.482   6.609
    4SAPS    C1  417   1.533   2.364   6.554
    4SAPS    HA  418   1.640   2.360   6.583
    4SAPS    HB  419   1.483   2.267   6.574
    4SAPS    C2  420   1.511   2.351   6.401
    4SAPS    HS  421   1.542   2.249   6.373
    4SAPS   O21  422   1.588   2.442   6.319
    4SAPS   C21  423   1.721   2.417   6.330
    4SAPS   O22  424   1.784   2.332   6.387
    4SAPS   C22  425   1.791   2.533   6.257
    4SAPS   H2R  426   1.767   2.618   6.324
    4SAPS   H2S  427   1.898   2.508   6.273
    4SAPS    C3  428   1.362   2.349   6.358
    4SAPS    HX  429   1.324   2.451   6.381
    4SAPS    HY  430   1.296   2.286   6.421
    4SAPS   O31  431   1.335   2.316   6.217
    4SAPS   C31  432   1.353   2.413   6.129
    4SAPS   O32  433   1.366   2.532   6.154
    4SAPS   C32  434   1.350   2.364   5.983
    4SAPS   H2X  435   1.248   2.327   5.962
    4SAPS   H2Y  436   1.420   2.277   5.982
    4SAPS   C23  437   1.766   2.532   6.106
    4SAPS   H3R  438   1.657   2.539   6.084
    4SAPS   H3S  439   1.785   2.434   6.058
    4SAPS   C24  440   1.839   2.641   6.020
    4SAPS   H4R  441   1.946   2.637   6.048
    4SAPS   H4S  442   1.812   2.743   6.055
    4SAPS   C25  443   1.813   2.630   5.871
    4SAPS   H5R  444   1.888   2.567   5.822
    4SAPS   C26  445   1.717   2.697   5.809
    4SAPS   H6R  446   1.708   2.678   5.701
    4SAPS   C27  447   1.617   2.788   5.877
    4SAPS   H7R  448   1.605   2.758   5.983
    4SAPS   H7S  449   1.515   2.776   5.833
    4SAPS   C28  450   1.669   2.928   5.872
    4SAPS   H8R  451   1.739   2.960   5.951
    4SAPS   C29  452   1.638   3.016   5.772
    4SAPS   H9R  453   1.689   3.113   5.775
    4SAPS  C210  454   1.551   2.988   5.648
    4SAPS  H10R  455   1.449   2.973   5.688
    4SAPS  H10S  456   1.563   2.892   5.595
    4SAPS  C211  457   1.559   3.102   5.553
    4SAPS  H11R  458   1.523   3.198   5.593
    4SAPS  C212  459   1.616   3.099   5.433
    4SAPS  H12R  460   1.605   3.189   5.371
    4SAPS  C213  461   1.694   2.988   5.372
    4SAPS  H13R  462   1.724   2.920   5.454
    4SAPS  H13S  463   1.788   3.037   5.340
    4SAPS  C214  464   1.614   2.926   5.265
    4SAPS  H14R  465   1.562   2.833   5.293
    4SAPS  C215  466   1.625   2.947   5.127
    4SAPS  H15R  467   1.570   2.880   5.059
    4SAPS  C216  468   1.704   3.054   5.052
    4SAPS  H16R  469   1.761   3.120   5.121
    4SAPS  H16S  470   1.637   3.120   4.994
    4SAPS  C217  471   1.815   2.986   4.961
    4SAPS  H17R  472   1.764   2.922   4.885
    4SAPS  H17S  473   1.874   2.915   5.022
    4SAPS  C218  474   1.919   3.085   4.899
    4SAPS  H18R  475   1.959   3.151   4.978
    4SAPS  H18S  476   1.871   3.148   4.821
    4SAPS  C219  477   2.042   3.016   4.839
    4SAPS  H19R  478   1.998   2.938   4.773
    4SAPS  H19S  479   2.097   2.976   4.927
    4SAPS  C220  480   2.134   3.114   4.757
    4SAPS  H20R  481   2.223   3.139   4.819
    4SAPS  H20S  482   2.086   3.208   4.722
    4SAPS  H20T  483   2.175   3.057   4.671
    4SAPS   C33  484   1.387   2.477   5.887
    4SAPS   H3X  485   1.491   2.507   5.910
    4SAPS   H3Y  486   1.320   2.563   5.905
    4SAPS   C34  487   1.351   2.435   5.744
    4SAPS   H4X  488   1.243   2.452   5.726
    4SAPS   H4Y  489   1.367   2.326   5.733
    4SAPS   C35  490   1.436   2.511   5.639
    4SAPS   H5X  491   1.541   2.476   5.647
    4SAPS   H5Y  492   1.441   2.620   5.657
    4SAPS   C36  493   1.372   2.494   5.500
    4SAPS   H6X  494   1.274   2.545   5.496
    4SAPS   H6Y  495   1.350   2.387   5.479
    4SAPS   C37  496   1.475   2.551   5.394
    4SAPS   H7X  497   1.575   2.512   5.424
    4SAPS   H7Y  498   1.465   2.661   5.392
    4SAPS   C38  499   1.448   2.508   5.251
    4SAPS   H8X  500   1.344   2.540   5.231
    4SAPS   H8Y  501   1.460   2.399   5.233
    4SAPS   C39  502   1.542   2.583   5.152
    4SAPS   H9X  503   1.650   2.570   5.173
    4SAPS   H9Y  504   1.522   2.692   5.163
    4SAPS  C310  505   1.506   2.551   5.005
    4SAPS  H10X  506   1.405   2.596   4.992
    4SAPS  H10Y  507   1.510   2.441   4.995
    4SAPS  C311  508   1.610   2.621   4.921
    4SAPS  H11X  509   1.707   2.632   4.974
    4SAPS  H11Y  510   1.576   2.725   4.900
    4SAPS  C312  511   1.619   2.559   4.775
    4SAPS  H12X  512   1.531   2.589   4.714
    4SAPS  H12Y  513   1.627   2.448   4.782
    4SAPS  C313  514   1.750   2.590   4.696
    4SAPS  H13X  515   1.830   2.514   4.712
    4SAPS  H13Y  516   1.794   2.686   4.730
    4SAPS  C314  517   1.734   2.600   4.544
    4SAPS  H14X  518   1.658   2.679   4.527
    4SAPS  H14Y  519   1.690   2.503   4.513
    4SAPS  C315  520   1.877   2.614   4.481
    4SAPS  H15X  521   1.945   2.533   4.515
    4SAPS  H15Y  522   1.923   2.712   4.508
    4SAPS  C316  523   1.877   2.601   4.325
    4SAPS  H16X  524   1.837   2.500   4.301
    4SAPS  H16Y  525   1.980   2.599   4.283
    4SAPS  C317  526   1.792   2.717   4.261
    4SAPS  H17X  527   1.692   2.689   4.300
    4SAPS  H17Y  528   1.794   2.717   4.150
    4SAPS  C318  529   1.831   2.857   4.315
    4SAPS  H18X  530   1.938   2.878   4.294
    4SAPS  H18Y  531   1.801   2.867   4.421
    4SAPS  H18Z  532   1.775   2.936   4.259
    5SAPS     N  533   5.247   4.850   6.732
    5SAPS   HN1  534   5.265   4.903   6.820
    5SAPS   HN2  535   5.312   4.769   6.736
    5SAPS   HN3  536   5.271   4.914   6.653
    5SAPS   C12  537   5.104   4.807   6.706
    5SAPS  H12A  538   5.082   4.730   6.779
    5SAPS   C13  539   4.996   4.915   6.717
    5SAPS  O13A  540   5.028   5.038   6.720
    5SAPS  O13B  541   4.884   4.882   6.668
    5SAPS   C11  542   5.099   4.743   6.566
    5SAPS  H11A  543   5.119   4.826   6.494
    5SAPS  H11B  544   4.995   4.709   6.551
    5SAPS     P  545   5.140   4.480   6.601
    5SAPS   O13  546   5.255   4.419   6.678
    5SAPS   O14  547   5.012   4.480   6.670
    5SAPS   O12  548   5.187   4.626   6.564
    5SAPS   O11  549   5.137   4.410   6.460
    5SAPS    C1  550   5.051   4.440   6.349
    5SAPS    HA  551   4.946   4.405   6.351
    5SAPS    HB  552   5.035   4.549   6.339
    5SAPS    C2  553   5.128   4.381   6.230
    5SAPS    HS  554   5.228   4.428   6.224
    5SAPS   O21  555   5.057   4.411   6.110
    5SAPS   C21  556   5.069   4.535   6.067
    5SAPS   O22  557   5.136   4.621   6.121
    5SAPS   C22  558   4.977   4.563   5.946
    5SAPS   H2R  559   4.942   4.473   5.891
    5SAPS   H2S  560   4.886   4.620   5.976
    5SAPS    C3  561   5.150   4.224   6.247
    5SAPS    HX  562   5.056   4.177   6.283
    5SAPS    HY  563   5.234   4.213   6.318
    5SAPS   O31  564   5.180   4.158   6.118
    5SAPS   C31  565   5.295   4.183   6.063
    5SAPS   O32  566   5.370   4.276   6.098
    5SAPS   C32  567   5.320   4.101   5.940
    5SAPS   H2X  568   5.276   4.000   5.951
    5SAPS   H2Y  569   5.427   4.074   5.947
    5SAPS   C23  570   5.052   4.663   5.855
    5SAPS   H3R  571   5.162   4.649   5.854
    5SAPS   H3S  572   5.030   4.762   5.902
    5SAPS   C24  573   4.996   4.670   5.711
    5SAPS   H4R  574   4.888   4.684   5.732
    5SAPS   H4S  575   5.011   4.572   5.661
    5SAPS   C25  576   5.052   4.782   5.632
    5SAPS   H5R  577   5.013   4.877   5.673
    5SAPS   C26  578   5.126   4.771   5.517
    5SAPS   H6R  579   5.170   4.861   5.471
    5SAPS   C27  580   5.159   4.637   5.445
    5SAPS   H7R  581   5.100   4.551   5.484
    5SAPS   H7S  582   5.267   4.615   5.463
    5SAPS   C28  583   5.130   4.653   5.297
    5SAPS   H8R  584   5.024   4.671   5.275
    5SAPS   C29  585   5.224   4.676   5.202
    5SAPS   H9R  586   5.190   4.684   5.098
    5SAPS  C210  587   5.376   4.666   5.229
    5SAPS  H10R  588   5.395   4.573   5.286
    5SAPS  H10S  589   5.405   4.758   5.283
    5SAPS  C211  590   5.465   4.663   5.106
    5SAPS  H11R  591   5.401   4.676   5.018
    5SAPS  C212  592   5.596   4.646   5.111
    5SAPS  H12R  593   5.656   4.639   5.018
    5SAPS  C213  594   5.681   4.632   5.238
    5SAPS  H13R  595   5.615   4.594   5.319
    5SAPS  H13S  596   5.726   4.731   5.261
    5SAPS  C214  597   5.795   4.535   5.222
    5SAPS  H14R  598   5.777   4.454   5.150
    5SAPS  C215  599   5.925   4.551   5.254
    5SAPS  H15R  600   5.992   4.468   5.227
    5SAPS  C216  601   5.984   4.660   5.338
    5SAPS  H16R  602   6.075   4.617   5.386
    5SAPS  H16S  603   5.908   4.697   5.409
    5SAPS  C217  604   6.036   4.774   5.255
    5SAPS  H17R  605   6.088   4.841   5.327
    5SAPS  H17S  606   5.960   4.834   5.200
    5SAPS  C218  607   6.149   4.731   5.161
    5SAPS  H18R  608   6.101   4.657   5.093
    5SAPS  H18S  609   6.235   4.683   5.211
    5SAPS  C219  610   6.200   4.852   5.077
    5SAPS  H19R  611   6.223   4.936   5.147
    5SAPS  H19S  612   6.118   4.884   5.009
    5SAPS  C220  613   6.322   4.831   4.991
    5SAPS  H20R  614   6.336   4.908   4.912
    5SAPS  H20S  615   6.318   4.730   4.946
    5SAPS  H20T  616   6.410   4.841   5.057
    5SAPS   C33  617   5.268   4.161   5.807
    5SAPS   H3X  618   5.158   4.172   5.808
    5SAPS   H3Y  619   5.292   4.095   5.721
    5SAPS   C34  620   5.339   4.293   5.765
    5SAPS   H4X  621   5.448   4.276   5.751
    5SAPS   H4Y  622   5.326   4.360   5.852
    5SAPS   C35  623   5.302   4.345   5.626
    5SAPS   H5X  624   5.361   4.436   5.606
    5SAPS   H5Y  625   5.198   4.379   5.606
    5SAPS   C36  626   5.341   4.246   5.509
    5SAPS   H6X  627   5.254   4.176   5.512
    5SAPS   H6Y  628   5.439   4.199   5.531
    5SAPS   C37  629   5.331   4.308   5.363
    5SAPS   H7X  630   5.422   4.372   5.360
    5SAPS   H7Y  631   5.236   4.363   5.343
    5SAPS   C38  632   5.356   4.203   5.258
    5SAPS   H8X  633   5.277   4.125   5.253
    5SAPS   H8Y  634   5.453   4.154   5.284
    5SAPS   C39  635   5.341   4.265   5.118
    5SAPS   H9X  636   5.420   4.343   5.123
    5SAPS   H9Y  637   5.239   4.309   5.106
    5SAPS  C310  638   5.352   4.173   5.000
    5SAPS  H10X  639   5.284   4.085   4.990
    5SAPS  H10Y  640   5.449   4.119   5.002
    5SAPS  C311  641   5.339   4.265   4.875
    5SAPS  H11X  642   5.405   4.222   4.797
    5SAPS  H11Y  643   5.379   4.365   4.904
    5SAPS  C312  644   5.201   4.273   4.806
    5SAPS  H12X  645   5.120   4.304   4.876
    5SAPS  H12Y  646   5.177   4.171   4.769
    5SAPS  C313  647   5.203   4.370   4.683
    5SAPS  H13X  648   5.298   4.354   4.630
    5SAPS  H13Y  649   5.205   4.473   4.726
    5SAPS  C314  650   5.084   4.358   4.587
    5SAPS  H14X  651   4.991   4.350   4.646
    5SAPS  H14Y  652   5.082   4.283   4.505
    5SAPS  C315  653   5.072   4.495   4.513
    5SAPS  H15X  654   5.171   4.514   4.468
    5SAPS  H15Y  655   5.049   4.580   4.581
    5SAPS  C316  656   4.957   4.482   4.411
    5SAPS  H16X  657   4.857   4.479   4.459
    5SAPS  H16Y  658   4.964   4.388   4.353
    5SAPS  C317  659   4.950   4.602   4.316
    5SAPS  H17X  660   4.879   4.578   4.235
    5SAPS  H17Y  661   5.045   4.617   4.261
    5SAPS  C318  662   4.915   4.738   4.372
    5SAPS  H18X  663   4.919   4.822   4.300
    5SAPS  H18Y  664   4.980   4.759   4.460
    5SAPS  H18Z  665   4.812   4.742   4.413
    6SAPS     N  666   3.346   4.489   6.441
    6SAPS   HN1  667   3.302   4.550   6.370
    6SAPS   HN2  668   3.410   4.548   6.499
    6SAPS   HN3  669   3.412   4.420   6.401
    6SAPS   C12  670   3.242   4.422   6.528
    6SAPS  H12A  671   3.289   4.347   6.589
    6SAPS   C13  672   3.166   4.534   6.606
    6SAPS  O13A  673   3.197   4.655   6.590
    6SAPS  O13B  674   3.081   4.508   6.699
    6SAPS   C11  675   3.138   4.349   6.437
    6SAPS  H11A  676   3.107   4.424   6.360
    6SAPS  H11B  677   3.045   4.321   6.491
    6SAPS     P  678   3.117   4.090   6.398
    6SAPS   O13  679   3.185   3.990   6.315
    6SAPS   O14  680   3.103   4.066   6.543
    6SAPS   O12  681   3.186   4.230   6.379
    6SAPS   O11  682   2.977   4.118   6.333
    6SAPS    C1  683   2.938   4.205   6.231
    6SAPS    HA  684   2.837   4.243   6.259
    6SAPS    HB  685   2.994   4.301   6.232
    6SAPS    C2  686   2.949   4.154   6.086
    6SAPS    HS  687   3.054   4.149   6.048
    6SAPS   O21  688   2.867   4.230   5.999
    6SAPS   C21  689   2.904   4.359   5.981
    6SAPS   O22  690   2.992   4.420   6.046
    6SAPS   C22  691   2.812   4.419   5.885
    6SAPS   H2R  692   2.789   4.350   5.801
    6SAPS   H2S  693   2.710   4.442   5.921
    6SAPS    C3  694   2.895   4.002   6.078
    6SAPS    HX  695   2.802   4.006   6.138
    6SAPS    HY  696   2.967   3.936   6.131
    6SAPS   O31  697   2.869   3.956   5.947
    6SAPS   C31  698   2.961   3.895   5.871
    6SAPS   O32  699   3.077   3.876   5.904
    6SAPS   C32  700   2.911   3.861   5.736
    6SAPS   H2X  701   2.824   3.929   5.722
    6SAPS   H2Y  702   2.872   3.757   5.725
    6SAPS   C23  703   2.869   4.554   5.815
    6SAPS   H3R  704   2.820   4.559   5.715
    6SAPS   H3S  705   2.977   4.539   5.797
    6SAPS   C24  706   2.839   4.685   5.882
    6SAPS   H4R  707   2.899   4.767   5.837
    6SAPS   H4S  708   2.879   4.698   5.985
    6SAPS   C25  709   2.689   4.711   5.880
    6SAPS   H5R  710   2.636   4.660   5.961
    6SAPS   C26  711   2.624   4.784   5.781
    6SAPS   H6R  712   2.520   4.818   5.795
    6SAPS   C27  713   2.703   4.851   5.669
    6SAPS   H7R  714   2.790   4.793   5.632
    6SAPS   H7S  715   2.759   4.938   5.711
    6SAPS   C28  716   2.622   4.907   5.555
    6SAPS   H8R  717   2.533   4.962   5.589
    6SAPS   C29  718   2.641   4.890   5.420
    6SAPS   H9R  719   2.579   4.943   5.345
    6SAPS  C210  720   2.750   4.808   5.354
    6SAPS  H10R  721   2.706   4.708   5.330
    6SAPS  H10S  722   2.839   4.798   5.419
    6SAPS  C211  723   2.807   4.880   5.231
    6SAPS  H11R  724   2.893   4.946   5.251
    6SAPS  C212  725   2.768   4.878   5.098
    6SAPS  H12R  726   2.828   4.934   5.025
    6SAPS  C213  727   2.650   4.799   5.042
    6SAPS  H13R  728   2.570   4.872   5.016
    6SAPS  H13S  729   2.606   4.750   5.132
    6SAPS  C214  730   2.686   4.711   4.930
    6SAPS  H14R  731   2.681   4.605   4.959
    6SAPS  C215  732   2.726   4.750   4.810
    6SAPS  H15R  733   2.743   4.674   4.733
    6SAPS  C216  734   2.742   4.895   4.760
    6SAPS  H16R  735   2.694   4.975   4.822
    6SAPS  H16S  736   2.679   4.902   4.669
    6SAPS  C217  737   2.893   4.926   4.746
    6SAPS  H17R  738   2.964   4.846   4.713
    6SAPS  H17S  739   2.932   4.953   4.847
    6SAPS  C218  740   2.911   5.039   4.645
    6SAPS  H18R  741   3.006   5.085   4.679
    6SAPS  H18S  742   2.831   5.115   4.650
    6SAPS  C219  743   2.919   4.993   4.506
    6SAPS  H19R  744   2.829   4.938   4.472
    6SAPS  H19S  745   3.014   4.936   4.500
    6SAPS  C220  746   2.937   5.108   4.406
    6SAPS  H20R  747   2.846   5.172   4.405
    6SAPS  H20S  748   2.930   5.068   4.302
    6SAPS  H20T  749   3.028   5.171   4.420
    6SAPS   C33  750   3.025   3.894   5.642
    6SAPS   H3X  751   3.116   3.830   5.648
    6SAPS   H3Y  752   3.056   4.000   5.639
    6SAPS   C34  753   2.972   3.868   5.502
    6SAPS   H4X  754   2.877   3.921   5.482
    6SAPS   H4Y  755   2.950   3.759   5.494
    6SAPS   C35  756   3.079   3.913   5.396
    6SAPS   H5X  757   3.184   3.879   5.406
    6SAPS   H5Y  758   3.086   4.022   5.413
    6SAPS   C36  759   3.017   3.887   5.257
    6SAPS   H6X  760   2.932   3.959   5.257
    6SAPS   H6Y  761   2.980   3.784   5.240
    6SAPS   C37  762   3.115   3.903   5.145
    6SAPS   H7X  763   3.177   3.814   5.120
    6SAPS   H7Y  764   3.178   3.994   5.146
    6SAPS   C38  765   3.043   3.936   5.012
    6SAPS   H8X  766   2.986   4.031   5.005
    6SAPS   H8Y  767   2.986   3.845   4.984
    6SAPS   C39  768   3.143   3.948   4.897
    6SAPS   H9X  769   3.194   3.852   4.877
    6SAPS   H9Y  770   3.216   4.029   4.918
    6SAPS  C310  771   3.060   3.990   4.776
    6SAPS  H10X  772   3.008   4.081   4.812
    6SAPS  H10Y  773   2.977   3.917   4.762
    6SAPS  C311  774   3.139   4.011   4.650
    6SAPS  H11X  775   3.220   3.937   4.631
    6SAPS  H11Y  776   3.197   4.105   4.659
    6SAPS  C312  777   3.048   3.992   4.527
    6SAPS  H12X  778   2.959   4.059   4.532
    6SAPS  H12Y  779   3.022   3.884   4.528
    6SAPS  C313  780   3.126   4.035   4.398
    6SAPS  H13X  781   3.214   3.969   4.402
    6SAPS  H13Y  782   3.159   4.141   4.405
    6SAPS  C314  783   3.047   3.993   4.272
    6SAPS  H14X  784   2.953   4.054   4.277
    6SAPS  H14Y  785   3.015   3.889   4.293
    6SAPS  C315  786   3.123   4.004   4.139
    6SAPS  H15X  787   3.082   3.918   4.084
    6SAPS  H15Y  788   3.233   3.988   4.145
    6SAPS  C316  789   3.094   4.136   4.074
    6SAPS  H16X  790   3.140   4.220   4.131
    6SAPS  H16Y  791   2.989   4.167   4.089
    6SAPS  C317  792   3.139   4.141   3.928
    6SAPS  H17X  793   3.077   4.068   3.872
    6SAPS  H17Y  794   3.248   4.121   3.927
    6SAPS  C318  795   3.123   4.274   3.865
    6SAPS  H18X  796   3.212   4.340   3.869
    6SAPS  H18Y  797   3.043   4.319   3.927
    6SAPS  H18Z  798   3.097   4.264   3.758
    7SAPS     N  799   2.535   0.909   6.532
    7SAPS   HN1  800   2.439   0.878   6.508
    7SAPS   HN2  801   2.525   1.011   6.552
    7SAPS   HN3  802   2.597   0.907   6.449
    7SAPS   C12  803   2.590   0.826   6.645
    7SAPS  H12A  804   2.690   0.862   6.665
    7SAPS   C13  805   2.517   0.859   6.780
    7SAPS  O13A  806   2.455   0.970   6.787
    7SAPS  O13B  807   2.549   0.794   6.887
    7SAPS   C11  808   2.575   0.673   6.624
    7SAPS  H11A  809   2.467   0.647   6.622
    7SAPS  H11B  810   2.625   0.625   6.711
    7SAPS     P  811   2.656   0.488   6.446
    7SAPS   O13  812   2.749   0.477   6.335
    7SAPS   O14  813   2.691   0.399   6.563
    7SAPS   O12  814   2.643   0.639   6.501
    7SAPS   O11  815   2.508   0.450   6.398
    7SAPS    C1  816   2.462   0.542   6.302
    7SAPS    HA  817   2.387   0.601   6.357
    7SAPS    HB  818   2.533   0.616   6.260
    7SAPS    C2  819   2.395   0.474   6.190
    7SAPS    HS  820   2.330   0.391   6.226
    7SAPS   O21  821   2.502   0.418   6.104
    7SAPS   C21  822   2.460   0.318   6.029
    7SAPS   O22  823   2.353   0.262   6.052
    7SAPS   C22  824   2.573   0.281   5.935
    7SAPS   H2R  825   2.570   0.350   5.848
    7SAPS   H2S  826   2.676   0.285   5.977
    7SAPS    C3  827   2.296   0.560   6.099
    7SAPS    HX  828   2.223   0.599   6.172
    7SAPS    HY  829   2.243   0.491   6.030
    7SAPS   O31  830   2.349   0.677   6.039
    7SAPS   C31  831   2.394   0.666   5.910
    7SAPS   O32  832   2.388   0.565   5.847
    7SAPS   C32  833   2.443   0.802   5.870
    7SAPS   H2X  834   2.534   0.827   5.928
    7SAPS   H2Y  835   2.378   0.888   5.898
    7SAPS   C23  836   2.550   0.140   5.887
    7SAPS   H3R  837   2.455   0.134   5.831
    7SAPS   H3S  838   2.536   0.069   5.972
    7SAPS   C24  839   2.656   0.074   5.803
    7SAPS   H4R  840   2.678   0.144   5.720
    7SAPS   H4S  841   2.618   6.820   5.763
    7SAPS   C25  842   2.788   0.056   5.884
    7SAPS   H5R  843   2.782   6.832   5.970
    7SAPS   C26  844   2.900   0.110   5.851
    7SAPS   H6R  845   2.984   0.077   5.914
    7SAPS   C27  846   2.935   0.216   5.743
    7SAPS   H7R  847   3.018   0.281   5.780
    7SAPS   H7S  848   2.850   0.283   5.723
    7SAPS   C28  849   2.982   0.170   5.606
    7SAPS   H8R  850   2.999   0.061   5.597
    7SAPS   C29  851   3.006   0.249   5.500
    7SAPS   H9R  852   3.046   0.200   5.410
    7SAPS  C210  853   2.987   0.401   5.491
    7SAPS  H10R  854   2.962   0.452   5.587
    7SAPS  H10S  855   2.913   0.424   5.412
    7SAPS  C211  856   3.108   0.459   5.432
    7SAPS  H11R  857   3.200   0.451   5.493
    7SAPS  C212  858   3.117   0.528   5.320
    7SAPS  H12R  859   3.215   0.571   5.293
    7SAPS  C213  860   3.005   0.560   5.222
    7SAPS  H13R  861   3.031   0.647   5.156
    7SAPS  H13S  862   2.920   0.601   5.281
    7SAPS  C214  863   2.942   0.456   5.138
    7SAPS  H14R  864   2.923   0.371   5.204
    7SAPS  C215  865   2.924   0.455   5.007
    7SAPS  H15R  866   2.862   0.372   4.969
    7SAPS  C216  867   2.954   0.561   4.911
    7SAPS  H16R  868   3.062   0.552   4.885
    7SAPS  H16S  869   2.940   0.657   4.964
    7SAPS  C217  870   2.864   0.547   4.788
    7SAPS  H17R  871   2.758   0.539   4.822
    7SAPS  H17S  872   2.895   0.448   4.749
    7SAPS  C218  873   2.891   0.654   4.682
    7SAPS  H18R  874   2.991   0.655   4.635
    7SAPS  H18S  875   2.883   0.753   4.731
    7SAPS  C219  876   2.794   0.639   4.558
    7SAPS  H19R  877   2.839   0.553   4.505
    7SAPS  H19S  878   2.801   0.710   4.473
    7SAPS  C220  879   2.641   0.631   4.592
    7SAPS  H20R  880   2.612   0.540   4.650
    7SAPS  H20S  881   2.573   0.635   4.505
    7SAPS  H20T  882   2.617   0.717   4.657
    7SAPS   C33  883   2.469   0.815   5.722
    7SAPS   H3X  884   2.460   0.918   5.681
    7SAPS   H3Y  885   2.395   0.770   5.653
    7SAPS   C34  886   2.610   0.759   5.688
    7SAPS   H4X  887   2.645   0.684   5.762
    7SAPS   H4Y  888   2.680   0.846   5.694
    7SAPS   C35  889   2.624   0.683   5.555
    7SAPS   H5X  890   2.721   0.702   5.505
    7SAPS   H5Y  891   2.541   0.713   5.486
    7SAPS   C36  892   2.614   0.528   5.583
    7SAPS   H6X  893   2.524   0.502   5.643
    7SAPS   H6Y  894   2.694   0.487   5.649
    7SAPS   C37  895   2.610   0.460   5.442
    7SAPS   H7X  896   2.714   0.475   5.406
    7SAPS   H7Y  897   2.531   0.510   5.382
    7SAPS   C38  898   2.562   0.313   5.452
    7SAPS   H8X  899   2.452   0.314   5.467
    7SAPS   H8Y  900   2.617   0.275   5.540
    7SAPS   C39  901   2.601   0.227   5.331
    7SAPS   H9X  902   2.567   0.122   5.344
    7SAPS   H9Y  903   2.712   0.224   5.319
    7SAPS  C310  904   2.547   0.273   5.191
    7SAPS  H10X  905   2.585   0.374   5.165
    7SAPS  H10Y  906   2.437   0.262   5.183
    7SAPS  C311  907   2.599   0.175   5.080
    7SAPS  H11X  908   2.565   0.071   5.102
    7SAPS  H11Y  909   2.710   0.173   5.085
    7SAPS  C312  910   2.558   0.225   4.941
    7SAPS  H12X  911   2.598   0.327   4.920
    7SAPS  H12Y  912   2.447   0.235   4.941
    7SAPS  C313  913   2.609   0.135   4.826
    7SAPS  H13X  914   2.549   0.042   4.819
    7SAPS  H13Y  915   2.711   0.113   4.863
    7SAPS  C314  916   2.621   0.209   4.689
    7SAPS  H14X  917   2.634   0.317   4.712
    7SAPS  H14Y  918   2.521   0.195   4.643
    7SAPS  C315  919   2.731   0.177   4.595
    7SAPS  H15X  920   2.749   0.070   4.570
    7SAPS  H15Y  921   2.826   0.222   4.630
    7SAPS  C316  922   2.715   0.230   4.454
    7SAPS  H16X  923   2.700   0.341   4.451
    7SAPS  H16Y  924   2.613   0.204   4.417
    7SAPS  C317  925   2.822   0.178   4.354
    7SAPS  H17X  926   2.770   0.169   4.256
    7SAPS  H17Y  927   2.863   0.082   4.392
    7SAPS  C318  928   2.934   0.286   4.327
    7SAPS  H18X  929   3.020   0.250   4.266
    7SAPS  H18Y  930   2.962   0.332   4.424
    7SAPS  H18Z  931   2.888   0.370   4.270
    8SAPS     N  932   1.510   1.588   6.715
    8SAPS   HN1  933   1.450   1.667   6.685
    8SAPS   HN2  934   1.575   1.575   6.635
    8SAPS   HN3  935   1.461   1.497   6.720
    8SAPS   C12  936   1.592   1.619   6.841
    8SAPS  H12A  937   1.627   1.718   6.818
    8SAPS   C13  938   1.501   1.612   6.973
    8SAPS  O13A  939   1.379   1.577   6.983
    8SAPS  O13B  940   1.561   1.639   7.084
    8SAPS   C11  941   1.710   1.511   6.838
    8SAPS  H11A  942   1.668   1.408   6.832
    8SAPS  H11B  943   1.770   1.528   6.930
    8SAPS     P  944   1.919   1.447   6.685
    8SAPS   O13  945   1.980   1.410   6.813
    8SAPS   O14  946   1.880   1.332   6.608
    8SAPS   O12  947   1.793   1.536   6.719
    8SAPS   O11  948   2.007   1.541   6.604
    8SAPS    C1  949   2.101   1.639   6.660
    8SAPS    HA  950   2.047   1.710   6.727
    8SAPS    HB  951   2.180   1.581   6.711
    8SAPS    C2  952   2.175   1.720   6.550
    8SAPS    HS  953   2.096   1.786   6.506
    8SAPS   O21  954   2.226   1.615   6.462
    8SAPS   C21  955   2.262   1.666   6.346
    8SAPS   O22  956   2.230   1.772   6.299
    8SAPS   C22  957   2.338   1.555   6.270
    8SAPS   H2R  958   2.427   1.548   6.336
    8SAPS   H2S  959   2.291   1.455   6.274
    8SAPS    C3  960   2.294   1.803   6.613
    8SAPS    HX  961   2.372   1.734   6.651
    8SAPS    HY  962   2.252   1.845   6.707
    8SAPS   O31  963   2.355   1.893   6.518
    8SAPS   C31  964   2.326   2.019   6.525
    8SAPS   O32  965   2.243   2.079   6.588
    8SAPS   C32  966   2.428   2.089   6.433
    8SAPS   H2X  967   2.443   2.190   6.476
    8SAPS   H2Y  968   2.376   2.102   6.336
    8SAPS   C23  969   2.391   1.601   6.126
    8SAPS   H3R  970   2.441   1.700   6.135
    8SAPS   H3S  971   2.305   1.612   6.057
    8SAPS   C24  972   2.499   1.503   6.080
    8SAPS   H4R  973   2.584   1.512   6.151
    8SAPS   H4S  974   2.550   1.539   5.988
    8SAPS   C25  975   2.451   1.362   6.064
    8SAPS   H5R  976   2.426   1.307   6.156
    8SAPS   C26  977   2.431   1.292   5.947
    8SAPS   H6R  978   2.415   1.183   5.950
    8SAPS   C27  979   2.470   1.357   5.817
    8SAPS   H7R  980   2.491   1.466   5.825
    8SAPS   H7S  981   2.381   1.352   5.751
    8SAPS   C28  982   2.587   1.276   5.763
    8SAPS   H8R  983   2.647   1.230   5.843
    8SAPS   C29  984   2.622   1.238   5.637
    8SAPS   H9R  985   2.722   1.194   5.621
    8SAPS  C210  986   2.545   1.269   5.510
    8SAPS  H10R  987   2.621   1.308   5.439
    8SAPS  H10S  988   2.483   1.360   5.523
    8SAPS  C211  989   2.458   1.157   5.455
    8SAPS  H11R  990   2.456   1.068   5.519
    8SAPS  C212  991   2.394   1.153   5.336
    8SAPS  H12R  992   2.332   1.067   5.309
    8SAPS  C213  993   2.404   1.270   5.236
    8SAPS  H13R  994   2.481   1.240   5.161
    8SAPS  H13S  995   2.432   1.366   5.285
    8SAPS  C214  996   2.272   1.299   5.162
    8SAPS  H14R  997   2.186   1.347   5.212
    8SAPS  C215  998   2.249   1.259   5.032
    8SAPS  H15R  999   2.156   1.296   4.987
    8SAPS  C216 1000   2.329   1.167   4.949
    8SAPS  H16R 1001   2.265   1.083   4.916
    8SAPS  H16S 1002   2.411   1.121   5.008
    8SAPS  C217 1003   2.387   1.232   4.827
    8SAPS  H17R 1004   2.468   1.161   4.796
    8SAPS  H17S 1005   2.443   1.321   4.863
    8SAPS  C218 1006   2.300   1.265   4.710
    8SAPS  H18R 1007   2.195   1.254   4.746
    8SAPS  H18S 1008   2.323   1.182   4.640
    8SAPS  C219 1009   2.333   1.397   4.653
    8SAPS  H19R 1010   2.440   1.394   4.626
    8SAPS  H19S 1011   2.319   1.478   4.727
    8SAPS  C220 1012   2.242   1.418   4.531
    8SAPS  H20R 1013   2.136   1.413   4.562
    8SAPS  H20S 1014   2.260   1.336   4.458
    8SAPS  H20T 1015   2.258   1.519   4.487
    8SAPS   C33 1016   2.565   2.023   6.404
    8SAPS   H3X 1017   2.554   1.922   6.358
    8SAPS   H3Y 1018   2.622   2.000   6.497
    8SAPS   C34 1019   2.654   2.111   6.323
    8SAPS   H4X 1020   2.671   2.208   6.375
    8SAPS   H4Y 1021   2.600   2.135   6.229
    8SAPS   C35 1022   2.795   2.047   6.290
    8SAPS   H5X 1023   2.832   1.995   6.381
    8SAPS   H5Y 1024   2.859   2.129   6.252
    8SAPS   C36 1025   2.798   1.928   6.188
    8SAPS   H6X 1026   2.735   1.840   6.215
    8SAPS   H6Y 1027   2.904   1.893   6.192
    8SAPS   C37 1028   2.762   1.970   6.044
    8SAPS   H7X 1029   2.826   2.057   6.016
    8SAPS   H7Y 1030   2.656   2.000   6.039
    8SAPS   C38 1031   2.783   1.860   5.942
    8SAPS   H8X 1032   2.717   1.774   5.967
    8SAPS   H8Y 1033   2.887   1.823   5.954
    8SAPS   C39 1034   2.774   1.912   5.794
    8SAPS   H9X 1035   2.774   1.827   5.722
    8SAPS   H9Y 1036   2.862   1.974   5.765
    8SAPS  C310 1037   2.641   1.984   5.757
    8SAPS  H10X 1038   2.639   2.011   5.649
    8SAPS  H10Y 1039   2.627   2.085   5.800
    8SAPS  C311 1040   2.510   1.901   5.778
    8SAPS  H11X 1041   2.426   1.974   5.773
    8SAPS  H11Y 1042   2.494   1.866   5.882
    8SAPS  C312 1043   2.482   1.786   5.672
    8SAPS  H12X 1044   2.386   1.739   5.703
    8SAPS  H12Y 1045   2.564   1.712   5.684
    8SAPS  C313 1046   2.495   1.813   5.520
    8SAPS  H13X 1047   2.600   1.849   5.513
    8SAPS  H13Y 1048   2.443   1.901   5.475
    8SAPS  C314 1049   2.459   1.683   5.431
    8SAPS  H14X 1050   2.351   1.661   5.446
    8SAPS  H14Y 1051   2.507   1.599   5.486
    8SAPS  C315 1052   2.501   1.673   5.284
    8SAPS  H15X 1053   2.520   1.567   5.257
    8SAPS  H15Y 1054   2.585   1.743   5.264
    8SAPS  C316 1055   2.384   1.707   5.188
    8SAPS  H16X 1056   2.364   1.815   5.205
    8SAPS  H16Y 1057   2.295   1.641   5.192
    8SAPS  C317 1058   2.424   1.698   5.035
    8SAPS  H17X 1059   2.438   1.596   4.992
    8SAPS  H17Y 1060   2.524   1.745   5.035
    8SAPS  C318 1061   2.316   1.767   4.956
    8SAPS  H18X 1062   2.287   1.859   5.012
    8SAPS  H18Y 1063   2.223   1.708   4.951
    8SAPS  H18Z 1064   2.341   1.803   4.854
    9SAPS     N 1065   1.314   5.435   6.445
    9SAPS   HN1 1066   1.235   5.456   6.381
    9SAPS   HN2 1067   1.344   5.531   6.473
    9SAPS   HN3 1068   1.393   5.386   6.399
    9SAPS   C12 1069   1.292   5.377   6.581
    9SAPS  H12A 1070   1.376   5.309   6.589
    9SAPS   C13 1071   1.298   5.476   6.698
    9SAPS  O13A 1072   1.334   5.594   6.672
    9SAPS  O13B 1073   1.283   5.429   6.813
    9SAPS   C11 1074   1.159   5.295   6.585
    9SAPS  H11A 1075   1.069   5.359   6.595
    9SAPS  H11B 1076   1.160   5.246   6.684
    9SAPS     P 1077   1.052   5.074   6.505
    9SAPS   O13 1078   1.100   5.028   6.637
    9SAPS   O14 1079   0.910   5.114   6.482
    9SAPS   O12 1080   1.143   5.202   6.477
    9SAPS   O11 1081   1.094   4.979   6.395
    9SAPS    C1 1082   1.175   4.866   6.405
    9SAPS    HA 1083   1.204   4.829   6.505
    9SAPS    HB 1084   1.121   4.776   6.369
    9SAPS    C2 1085   1.305   4.889   6.320
    9SAPS    HS 1086   1.364   4.969   6.371
    9SAPS   O21 1087   1.271   4.913   6.180
    9SAPS   C21 1088   1.342   5.005   6.115
    9SAPS   O22 1089   1.427   5.080   6.159
    9SAPS   C22 1090   1.284   4.995   5.975
    9SAPS   H2R 1091   1.329   4.915   5.911
    9SAPS   H2S 1092   1.183   4.950   5.983
    9SAPS    C3 1093   1.397   4.754   6.329
    9SAPS    HX 1094   1.338   4.661   6.320
    9SAPS    HY 1095   1.441   4.749   6.431
    9SAPS   O31 1096   1.507   4.763   6.235
    9SAPS   C31 1097   1.538   4.656   6.171
    9SAPS   O32 1098   1.486   4.547   6.178
    9SAPS   C32 1099   1.672   4.685   6.094
    9SAPS   H2X 1100   1.717   4.588   6.064
    9SAPS   H2Y 1101   1.742   4.727   6.170
    9SAPS   C23 1102   1.262   5.124   5.893
    9SAPS   H3R 1103   1.192   5.198   5.938
    9SAPS   H3S 1104   1.216   5.100   5.795
    9SAPS   C24 1105   1.399   5.174   5.859
    9SAPS   H4R 1106   1.451   5.105   5.790
    9SAPS   H4S 1107   1.473   5.182   5.941
    9SAPS   C25 1108   1.403   5.308   5.786
    9SAPS   H5R 1109   1.409   5.395   5.853
    9SAPS   C26 1110   1.391   5.333   5.661
    9SAPS   H6R 1111   1.422   5.432   5.625
    9SAPS   C27 1112   1.359   5.229   5.554
    9SAPS   H7R 1113   1.303   5.143   5.597
    9SAPS   H7S 1114   1.457   5.187   5.524
    9SAPS   C28 1115   1.289   5.289   5.438
    9SAPS   H8R 1116   1.224   5.376   5.453
    9SAPS   C29 1117   1.318   5.258   5.312
    9SAPS   H9R 1118   1.267   5.303   5.225
    9SAPS  C210 1119   1.419   5.150   5.266
    9SAPS  H10R 1120   1.506   5.160   5.335
    9SAPS  H10S 1121   1.458   5.169   5.163
    9SAPS  C211 1122   1.357   5.009   5.266
    9SAPS  H11R 1123   1.328   4.965   5.362
    9SAPS  C212 1124   1.317   4.944   5.157
    9SAPS  H12R 1125   1.274   4.846   5.182
    9SAPS  C213 1126   1.335   4.980   5.013
    9SAPS  H13R 1127   1.416   4.920   4.966
    9SAPS  H13S 1128   1.359   5.088   5.002
    9SAPS  C214 1129   1.209   4.970   4.942
    9SAPS  H14R 1130   1.123   5.030   4.977
    9SAPS  C215 1131   1.193   4.899   4.826
    9SAPS  H15R 1132   1.098   4.905   4.771
    9SAPS  C216 1133   1.287   4.825   4.741
    9SAPS  H16R 1134   1.389   4.870   4.745
    9SAPS  H16S 1135   1.266   4.830   4.632
    9SAPS  C217 1136   1.294   4.674   4.790
    9SAPS  H17R 1137   1.204   4.611   4.774
    9SAPS  H17S 1138   1.331   4.662   4.894
    9SAPS  C218 1139   1.388   4.585   4.708
    9SAPS  H18R 1140   1.485   4.637   4.693
    9SAPS  H18S 1141   1.351   4.578   4.603
    9SAPS  C219 1142   1.412   4.442   4.758
    9SAPS  H19R 1143   1.311   4.405   4.784
    9SAPS  H19S 1144   1.468   4.458   4.853
    9SAPS  C220 1145   1.494   4.350   4.667
    9SAPS  H20R 1146   1.497   4.245   4.703
    9SAPS  H20S 1147   1.601   4.378   4.652
    9SAPS  H20T 1148   1.458   4.331   4.563
    9SAPS   C33 1149   1.654   4.768   5.974
    9SAPS   H3X 1150   1.581   4.851   5.984
    9SAPS   H3Y 1151   1.642   4.706   5.882
    9SAPS   C34 1152   1.788   4.840   5.957
    9SAPS   H4X 1153   1.875   4.770   5.954
    9SAPS   H4Y 1154   1.806   4.891   6.054
    9SAPS   C35 1155   1.788   4.939   5.843
    9SAPS   H5X 1156   1.893   4.973   5.838
    9SAPS   H5Y 1157   1.717   5.021   5.869
    9SAPS   C36 1158   1.744   4.870   5.708
    9SAPS   H6X 1159   1.648   4.815   5.724
    9SAPS   H6Y 1160   1.822   4.794   5.688
    9SAPS   C37 1161   1.741   4.977   5.594
    9SAPS   H7X 1162   1.841   5.022   5.611
    9SAPS   H7Y 1163   1.668   5.060   5.605
    9SAPS   C38 1164   1.735   4.924   5.444
    9SAPS   H8X 1165   1.627   4.898   5.437
    9SAPS   H8Y 1166   1.785   4.826   5.425
    9SAPS   C39 1167   1.777   5.026   5.339
    9SAPS   H9X 1168   1.888   5.030   5.348
    9SAPS   H9Y 1169   1.722   5.120   5.362
    9SAPS  C310 1170   1.760   5.002   5.182
    9SAPS  H10X 1171   1.652   4.993   5.157
    9SAPS  H10Y 1172   1.811   4.905   5.162
    9SAPS  C311 1173   1.832   5.097   5.092
    9SAPS  H11X 1174   1.821   5.068   4.986
    9SAPS  H11Y 1175   1.941   5.090   5.112
    9SAPS  C312 1176   1.772   5.233   5.106
    9SAPS  H12X 1177   1.756   5.256   5.214
    9SAPS  H12Y 1178   1.676   5.225   5.051
    9SAPS  C313 1179   1.860   5.346   5.044
    9SAPS  H13X 1180   1.966   5.341   5.078
    9SAPS  H13Y 1181   1.816   5.437   5.091
    9SAPS  C314 1182   1.861   5.384   4.897
    9SAPS  H14X 1183   1.915   5.480   4.886
    9SAPS  H14Y 1184   1.756   5.403   4.867
    9SAPS  C315 1185   1.932   5.294   4.800
    9SAPS  H15X 1186   1.889   5.191   4.796
    9SAPS  H15Y 1187   2.038   5.293   4.833
    9SAPS  C316 1188   1.923   5.341   4.655
    9SAPS  H16X 1189   1.968   5.260   4.594
    9SAPS  H16Y 1190   1.982   5.434   4.638
    9SAPS  C317 1191   1.776   5.370   4.622
    9SAPS  H17X 1192   1.756   5.471   4.663
    9SAPS  H17Y 1193   1.716   5.295   4.679
    9SAPS  C318 1194   1.741   5.357   4.474
    9SAPS  H18X 1195   1.655   5.425   4.455
    9SAPS  H18Y 1196   1.724   5.253   4.438
    9SAPS  H18Z 1197   1.819   5.406   4.411
   10SAPS     N 1198   2.739   4.150   6.772
   10SAPS   HN1 1199   2.681   4.236   6.767
   10SAPS   HN2 1200   2.836   4.176   6.801
   10SAPS   HN3 1201   2.734   4.104   6.679
   10SAPS   C12 1202   2.666   4.059   6.860
   10SAPS  H12A 1203   2.579   4.034   6.802
   10SAPS   C13 1204   2.732   3.933   6.913
   10SAPS  O13A 1205   2.849   3.908   6.880
   10SAPS  O13B 1206   2.658   3.842   6.945
   10SAPS   C11 1207   2.606   4.139   6.979
   10SAPS  H11A 1208   2.691   4.172   7.042
   10SAPS  H11B 1209   2.541   4.070   7.036
   10SAPS     P 1210   2.404   4.314   6.992
   10SAPS   O13 1211   2.318   4.199   7.023
   10SAPS   O14 1212   2.451   4.414   7.094
   10SAPS   O12 1213   2.533   4.250   6.919
   10SAPS   O11 1214   2.332   4.393   6.870
   10SAPS    C1 1215   2.415   4.494   6.814
   10SAPS    HA 1216   2.402   4.593   6.862
   10SAPS    HB 1217   2.523   4.473   6.801
   10SAPS    C2 1218   2.356   4.517   6.674
   10SAPS    HS 1219   2.255   4.560   6.693
   10SAPS   O21 1220   2.327   4.399   6.592
   10SAPS   C21 1221   2.426   4.314   6.578
   10SAPS   O22 1222   2.540   4.334   6.615
   10SAPS   C22 1223   2.379   4.191   6.508
   10SAPS   H2R 1224   2.366   4.098   6.568
   10SAPS   H2S 1225   2.277   4.210   6.467
   10SAPS    C3 1226   2.426   4.633   6.590
   10SAPS    HX 1227   2.535   4.619   6.607
   10SAPS    HY 1228   2.415   4.740   6.616
   10SAPS   O31 1229   2.398   4.620   6.450
   10SAPS   C31 1230   2.278   4.667   6.420
   10SAPS   O32 1231   2.191   4.700   6.501
   10SAPS   C32 1232   2.260   4.641   6.266
   10SAPS   H2X 1233   2.306   4.541   6.251
   10SAPS   H2Y 1234   2.322   4.713   6.209
   10SAPS   C23 1235   2.472   4.152   6.390
   10SAPS   H3R 1236   2.438   4.054   6.351
   10SAPS   H3S 1237   2.577   4.137   6.424
   10SAPS   C24 1238   2.463   4.260   6.279
   10SAPS   H4R 1239   2.504   4.361   6.299
   10SAPS   H4S 1240   2.353   4.273   6.270
   10SAPS   C25 1241   2.543   4.211   6.161
   10SAPS   H5R 1242   2.629   4.146   6.184
   10SAPS   C26 1243   2.522   4.228   6.031
   10SAPS   H6R 1244   2.585   4.183   5.953
   10SAPS   C27 1245   2.395   4.292   5.977
   10SAPS   H7R 1246   2.314   4.311   6.051
   10SAPS   H7S 1247   2.351   4.215   5.909
   10SAPS   C28 1248   2.439   4.411   5.902
   10SAPS   H8R 1249   2.435   4.505   5.960
   10SAPS   C29 1250   2.462   4.418   5.767
   10SAPS   H9R 1251   2.496   4.517   5.732
   10SAPS  C210 1252   2.469   4.305   5.666
   10SAPS  H10R 1253   2.442   4.336   5.563
   10SAPS  H10S 1254   2.386   4.235   5.692
   10SAPS  C211 1255   2.596   4.230   5.674
   10SAPS  H11R 1256   2.628   4.205   5.777
   10SAPS  C212 1257   2.671   4.189   5.570
   10SAPS  H12R 1258   2.767   4.141   5.596
   10SAPS  C213 1259   2.633   4.201   5.422
   10SAPS  H13R 1260   2.597   4.305   5.406
   10SAPS  H13S 1261   2.549   4.131   5.404
   10SAPS  C214 1262   2.745   4.159   5.319
   10SAPS  H14R 1263   2.837   4.108   5.353
   10SAPS  C215 1264   2.755   4.201   5.198
   10SAPS  H15R 1265   2.849   4.167   5.152
   10SAPS  C216 1266   2.662   4.299   5.129
   10SAPS  H16R 1267   2.682   4.404   5.157
   10SAPS  H16S 1268   2.560   4.279   5.169
   10SAPS  C217 1269   2.660   4.292   4.979
   10SAPS  H17R 1270   2.581   4.364   4.950
   10SAPS  H17S 1271   2.630   4.192   4.940
   10SAPS  C218 1272   2.790   4.339   4.915
   10SAPS  H18R 1273   2.871   4.264   4.928
   10SAPS  H18S 1274   2.839   4.427   4.960
   10SAPS  C219 1275   2.772   4.377   4.765
   10SAPS  H19R 1276   2.858   4.444   4.745
   10SAPS  H19S 1277   2.677   4.431   4.745
   10SAPS  C220 1278   2.773   4.256   4.674
   10SAPS  H20R 1279   2.876   4.214   4.672
   10SAPS  H20S 1280   2.755   4.291   4.570
   10SAPS  H20T 1281   2.703   4.184   4.721
   10SAPS   C33 1282   2.117   4.619   6.216
   10SAPS   H3X 1283   2.049   4.705   6.231
   10SAPS   H3Y 1284   2.070   4.540   6.278
   10SAPS   C34 1285   2.109   4.582   6.070
   10SAPS   H4X 1286   2.006   4.553   6.038
   10SAPS   H4Y 1287   2.173   4.495   6.048
   10SAPS   C35 1288   2.169   4.681   5.963
   10SAPS   H5X 1289   2.280   4.677   5.970
   10SAPS   H5Y 1290   2.151   4.785   5.998
   10SAPS   C36 1291   2.112   4.650   5.818
   10SAPS   H6X 1292   2.014   4.700   5.800
   10SAPS   H6Y 1293   2.083   4.543   5.803
   10SAPS   C37 1294   2.208   4.699   5.715
   10SAPS   H7X 1295   2.301   4.638   5.706
   10SAPS   H7Y 1296   2.227   4.806   5.740
   10SAPS   C38 1297   2.149   4.717   5.578
   10SAPS   H8X 1298   2.056   4.778   5.584
   10SAPS   H8Y 1299   2.116   4.619   5.537
   10SAPS   C39 1300   2.242   4.771   5.474
   10SAPS   H9X 1301   2.332   4.709   5.490
   10SAPS   H9Y 1302   2.281   4.873   5.497
   10SAPS  C310 1303   2.199   4.767   5.323
   10SAPS  H10X 1304   2.136   4.855   5.299
   10SAPS  H10Y 1305   2.140   4.673   5.314
   10SAPS  C311 1306   2.311   4.749   5.224
   10SAPS  H11X 1307   2.360   4.655   5.259
   10SAPS  H11Y 1308   2.391   4.824   5.239
   10SAPS  C312 1309   2.264   4.737   5.080
   10SAPS  H12X 1310   2.184   4.661   5.076
   10SAPS  H12Y 1311   2.347   4.689   5.024
   10SAPS  C313 1312   2.210   4.861   4.996
   10SAPS  H13X 1313   2.291   4.935   4.979
   10SAPS  H13Y 1314   2.136   4.919   5.055
   10SAPS  C314 1315   2.157   4.820   4.860
   10SAPS  H14X 1316   2.065   4.768   4.893
   10SAPS  H14Y 1317   2.219   4.737   4.819
   10SAPS  C315 1318   2.132   4.925   4.744
   10SAPS  H15X 1319   2.063   5.001   4.787
   10SAPS  H15Y 1320   2.072   4.870   4.669
   10SAPS  C316 1321   2.262   4.988   4.682
   10SAPS  H16X 1322   2.332   4.911   4.644
   10SAPS  H16Y 1323   2.317   5.049   4.756
   10SAPS  C317 1324   2.221   5.083   4.573
   10SAPS  H17X 1325   2.177   5.176   4.614
   10SAPS  H17Y 1326   2.158   5.036   4.495
   10SAPS  C318 1327   2.347   5.125   4.501
   10SAPS  H18X 1328   2.385   5.041   4.439
   10SAPS  H18Y 1329   2.415   5.168   4.578
   10SAPS  H18Z 1330   2.337   5.211   4.431
   11SAPS     N 1331   3.600   3.146   1.734
   11SAPS   HN1 1332   3.544   3.171   1.650
   11SAPS   HN2 1333   3.532   3.172   1.808
   11SAPS   HN3 1334   3.684   3.208   1.735
   11SAPS   C12 1335   3.636   3.001   1.728
   11SAPS  H12A 1336   3.547   2.941   1.714
   11SAPS   C13 1337   3.732   2.969   1.615
   11SAPS  O13A 1338   3.790   3.064   1.561
   11SAPS  O13B 1339   3.777   2.853   1.614
   11SAPS   C11 1340   3.699   2.955   1.857
   11SAPS  H11A 1341   3.798   3.002   1.873
   11SAPS  H11B 1342   3.709   2.844   1.858
   11SAPS     P 1343   3.628   2.971   2.111
   11SAPS   O13 1344   3.773   2.973   2.142
   11SAPS   O14 1345   3.545   3.067   2.194
   11SAPS   O12 1346   3.603   2.988   1.958
   11SAPS   O11 1347   3.573   2.828   2.136
   11SAPS    C1 1348   3.620   2.739   2.233
   11SAPS    HA 1349   3.625   2.635   2.194
   11SAPS    HB 1350   3.728   2.755   2.256
   11SAPS    C2 1351   3.534   2.736   2.362
   11SAPS    HS 1352   3.428   2.742   2.327
   11SAPS   O21 1353   3.569   2.850   2.443
   11SAPS   C21 1354   3.481   2.945   2.454
   11SAPS   O22 1355   3.363   2.937   2.421
   11SAPS   C22 1356   3.537   3.079   2.511
   11SAPS   H2R 1357   3.507   3.157   2.437
   11SAPS   H2S 1358   3.483   3.102   2.605
   11SAPS    C3 1359   3.557   2.604   2.438
   11SAPS    HX 1360   3.665   2.581   2.448
   11SAPS    HY 1361   3.514   2.528   2.370
   11SAPS   O31 1362   3.495   2.613   2.568
   11SAPS   C31 1363   3.456   2.494   2.619
   11SAPS   O32 1364   3.470   2.387   2.567
   11SAPS   C32 1365   3.380   2.531   2.744
   11SAPS   H2X 1366   3.281   2.560   2.701
   11SAPS   H2Y 1367   3.423   2.624   2.787
   11SAPS   C23 1368   3.693   3.085   2.534
   11SAPS   H3R 1369   3.749   3.075   2.439
   11SAPS   H3S 1370   3.721   3.005   2.607
   11SAPS   C24 1371   3.743   3.216   2.606
   11SAPS   H4R 1372   3.697   3.218   2.707
   11SAPS   H4S 1373   3.702   3.306   2.553
   11SAPS   C25 1374   3.888   3.233   2.616
   11SAPS   H5R 1375   3.942   3.223   2.521
   11SAPS   C26 1376   3.957   3.281   2.723
   11SAPS   H6R 1377   4.067   3.287   2.716
   11SAPS   C27 1378   3.906   3.310   2.862
   11SAPS   H7R 1379   3.805   3.268   2.878
   11SAPS   H7S 1380   3.899   3.421   2.861
   11SAPS   C28 1381   3.998   3.265   2.972
   11SAPS   H8R 1382   4.101   3.230   2.951
   11SAPS   C29 1383   3.964   3.256   3.099
   11SAPS   H9R 1384   4.034   3.222   3.177
   11SAPS  C210 1385   3.834   3.302   3.160
   11SAPS  H10R 1386   3.790   3.212   3.207
   11SAPS  H10S 1387   3.759   3.304   3.077
   11SAPS  C211 1388   3.843   3.434   3.233
   11SAPS  H11R 1389   3.828   3.526   3.174
   11SAPS  C212 1390   3.873   3.440   3.366
   11SAPS  H12R 1391   3.875   3.542   3.408
   11SAPS  C213 1392   3.899   3.330   3.463
   11SAPS  H13R 1393   3.869   3.227   3.432
   11SAPS  H13S 1394   3.837   3.348   3.553
   11SAPS  C214 1395   4.042   3.323   3.500
   11SAPS  H14R 1396   4.111   3.404   3.473
   11SAPS  C215 1397   4.099   3.225   3.571
   11SAPS  H15R 1398   4.202   3.247   3.604
   11SAPS  C216 1399   4.034   3.104   3.634
   11SAPS  H16R 1400   4.076   3.024   3.570
   11SAPS  H16S 1401   3.924   3.099   3.616
   11SAPS  C217 1402   4.075   3.077   3.777
   11SAPS  H17R 1403   4.186   3.077   3.775
   11SAPS  H17S 1404   4.036   2.978   3.807
   11SAPS  C218 1405   4.023   3.178   3.887
   11SAPS  H18R 1406   3.912   3.174   3.898
   11SAPS  H18S 1407   4.044   3.281   3.853
   11SAPS  C219 1408   4.090   3.156   4.028
   11SAPS  H19R 1409   4.072   3.049   4.053
   11SAPS  H19S 1410   4.032   3.226   4.092
   11SAPS  C220 1411   4.241   3.188   4.034
   11SAPS  H20R 1412   4.294   3.114   3.970
   11SAPS  H20S 1413   4.273   3.182   4.140
   11SAPS  H20T 1414   4.263   3.291   4.000
   11SAPS   C33 1415   3.352   2.421   2.835
   11SAPS   H3X 1416   3.358   2.324   2.781
   11SAPS   H3Y 1417   3.248   2.431   2.873
   11SAPS   C34 1418   3.430   2.426   2.968
   11SAPS   H4X 1419   3.418   2.525   3.018
   11SAPS   H4Y 1420   3.540   2.412   2.958
   11SAPS   C35 1421   3.383   2.319   3.065
   11SAPS   H5X 1422   3.406   2.216   3.030
   11SAPS   H5Y 1423   3.273   2.321   3.079
   11SAPS   C36 1424   3.454   2.342   3.202
   11SAPS   H6X 1425   3.418   2.443   3.231
   11SAPS   H6Y 1426   3.563   2.351   3.181
   11SAPS   C37 1427   3.416   2.243   3.309
   11SAPS   H7X 1428   3.473   2.150   3.288
   11SAPS   H7Y 1429   3.308   2.219   3.299
   11SAPS   C38 1430   3.444   2.303   3.452
   11SAPS   H8X 1431   3.383   2.388   3.489
   11SAPS   H8Y 1432   3.551   2.332   3.450
   11SAPS   C39 1433   3.434   2.192   3.555
   11SAPS   H9X 1434   3.515   2.118   3.536
   11SAPS   H9Y 1435   3.339   2.134   3.553
   11SAPS  C310 1436   3.470   2.241   3.692
   11SAPS  H10X 1437   3.553   2.314   3.692
   11SAPS  H10Y 1438   3.514   2.155   3.746
   11SAPS  C311 1439   3.356   2.295   3.778
   11SAPS  H11X 1440   3.272   2.223   3.769
   11SAPS  H11Y 1441   3.333   2.393   3.731
   11SAPS  C312 1442   3.386   2.314   3.930
   11SAPS  H12X 1443   3.456   2.398   3.948
   11SAPS  H12Y 1444   3.436   2.219   3.960
   11SAPS  C313 1445   3.251   2.319   4.009
   11SAPS  H13X 1446   3.172   2.253   3.968
   11SAPS  H13Y 1447   3.213   2.423   4.010
   11SAPS  C314 1448   3.280   2.288   4.160
   11SAPS  H14X 1449   3.350   2.203   4.171
   11SAPS  H14Y 1450   3.179   2.268   4.202
   11SAPS  C315 1451   3.339   2.415   4.232
   11SAPS  H15X 1452   3.269   2.497   4.205
   11SAPS  H15Y 1453   3.439   2.437   4.186
   11SAPS  C316 1454   3.353   2.403   4.383
   11SAPS  H16X 1455   3.255   2.409   4.435
   11SAPS  H16Y 1456   3.417   2.486   4.419
   11SAPS  C317 1457   3.430   2.282   4.435
   11SAPS  H17X 1458   3.529   2.289   4.385
   11SAPS  H17Y 1459   3.373   2.196   4.394
   11SAPS  C318 1460   3.456   2.278   4.585
   11SAPS  H18X 1461   3.361   2.313   4.631
   11SAPS  H18Y 1462   3.544   2.338   4.616
   11SAPS  H18Z 1463   3.463   2.184   4.643
   12SAPS     N 1464   2.816   2.010   2.154
   12SAPS   HN1 1465   2.717   1.988   2.177
   12SAPS   HN2 1466   2.881   1.998   2.235
   12SAPS   HN3 1467   2.809   2.112   2.137
   12SAPS   C12 1468   2.856   1.937   2.032
   12SAPS  H12A 1469   2.768   1.929   1.971
   12SAPS   C13 1470   2.958   1.997   1.941
   12SAPS  O13A 1471   3.023   2.100   1.965
   12SAPS  O13B 1472   2.952   1.953   1.821
   12SAPS   C11 1473   2.900   1.797   2.090
   12SAPS  H11A 1474   2.985   1.821   2.156
   12SAPS  H11B 1475   2.941   1.724   2.015
   12SAPS     P 1476   2.798   1.605   2.240
   12SAPS   O13 1477   2.705   1.506   2.183
   12SAPS   O14 1478   2.937   1.569   2.261
   12SAPS   O12 1479   2.786   1.739   2.162
   12SAPS   O11 1480   2.731   1.644   2.379
   12SAPS    C1 1481   2.621   1.736   2.403
   12SAPS    HA 1482   2.651   1.842   2.389
   12SAPS    HB 1483   2.532   1.712   2.341
   12SAPS    C2 1484   2.579   1.723   2.551
   12SAPS    HS 1485   2.524   1.816   2.578
   12SAPS   O21 1486   2.695   1.701   2.637
   12SAPS   C21 1487   2.797   1.789   2.628
   12SAPS   O22 1488   2.796   1.898   2.579
   12SAPS   C22 1489   2.918   1.718   2.695
   12SAPS   H2R 1490   2.908   1.613   2.658
   12SAPS   H2S 1491   3.018   1.753   2.664
   12SAPS    C3 1492   2.492   1.595   2.567
   12SAPS    HX 1493   2.546   1.503   2.535
   12SAPS    HY 1494   2.417   1.611   2.486
   12SAPS   O31 1495   2.431   1.585   2.694
   12SAPS   C31 1496   2.330   1.505   2.697
   12SAPS   O32 1497   2.280   1.443   2.604
   12SAPS   C32 1498   2.295   1.481   2.845
   12SAPS   H2X 1499   2.204   1.418   2.838
   12SAPS   H2Y 1500   2.256   1.577   2.885
   12SAPS   C23 1501   2.911   1.702   2.851
   12SAPS   H3R 1502   3.011   1.664   2.882
   12SAPS   H3S 1503   2.830   1.633   2.881
   12SAPS   C24 1504   2.908   1.830   2.931
   12SAPS   H4R 1505   2.989   1.892   2.887
   12SAPS   H4S 1506   2.944   1.801   3.033
   12SAPS   C25 1507   2.770   1.902   2.948
   12SAPS   H5R 1508   2.715   1.890   2.854
   12SAPS   C26 1509   2.687   1.927   3.057
   12SAPS   H6R 1510   2.593   1.980   3.036
   12SAPS   C27 1511   2.739   1.911   3.199
   12SAPS   H7R 1512   2.701   1.994   3.262
   12SAPS   H7S 1513   2.849   1.925   3.195
   12SAPS   C28 1514   2.718   1.775   3.268
   12SAPS   H8R 1515   2.692   1.695   3.197
   12SAPS   C29 1516   2.747   1.749   3.395
   12SAPS   H9R 1517   2.737   1.647   3.434
   12SAPS  C210 1518   2.796   1.850   3.496
   12SAPS  H10R 1519   2.719   1.880   3.570
   12SAPS  H10S 1520   2.823   1.946   3.447
   12SAPS  C211 1521   2.921   1.818   3.578
   12SAPS  H11R 1522   2.975   1.734   3.531
   12SAPS  C212 1523   2.952   1.853   3.705
   12SAPS  H12R 1524   3.050   1.812   3.735
   12SAPS  C213 1525   2.877   1.949   3.790
   12SAPS  H13R 1526   2.804   1.904   3.860
   12SAPS  H13S 1527   2.823   2.022   3.727
   12SAPS  C214 1528   2.973   2.031   3.880
   12SAPS  H14R 1529   2.996   2.134   3.848
   12SAPS  C215 1530   3.027   1.987   3.995
   12SAPS  H15R 1531   3.095   2.051   4.054
   12SAPS  C216 1532   3.008   1.849   4.058
   12SAPS  H16R 1533   3.093   1.780   4.040
   12SAPS  H16S 1534   2.922   1.802   4.005
   12SAPS  C217 1535   2.983   1.858   4.205
   12SAPS  H17R 1536   2.970   1.749   4.227
   12SAPS  H17S 1537   2.884   1.901   4.232
   12SAPS  C218 1538   3.102   1.910   4.286
   12SAPS  H18R 1539   3.114   2.020   4.279
   12SAPS  H18S 1540   3.189   1.852   4.249
   12SAPS  C219 1541   3.086   1.893   4.436
   12SAPS  H19R 1542   3.104   1.783   4.441
   12SAPS  H19S 1543   2.988   1.913   4.485
   12SAPS  C220 1544   3.193   1.969   4.513
   12SAPS  H20R 1545   3.169   2.077   4.516
   12SAPS  H20S 1546   3.289   1.969   4.457
   12SAPS  H20T 1547   3.209   1.942   4.620
   12SAPS   C33 1548   2.416   1.428   2.929
   12SAPS   H3X 1549   2.507   1.491   2.921
   12SAPS   H3Y 1550   2.441   1.327   2.891
   12SAPS   C34 1551   2.374   1.403   3.074
   12SAPS   H4X 1552   2.447   1.331   3.116
   12SAPS   H4Y 1553   2.272   1.359   3.082
   12SAPS   C35 1554   2.385   1.534   3.165
   12SAPS   H5X 1555   2.288   1.588   3.153
   12SAPS   H5Y 1556   2.473   1.584   3.120
   12SAPS   C36 1557   2.399   1.522   3.318
   12SAPS   H6X 1558   2.303   1.474   3.350
   12SAPS   H6Y 1559   2.415   1.623   3.363
   12SAPS   C37 1560   2.516   1.431   3.374
   12SAPS   H7X 1561   2.619   1.471   3.359
   12SAPS   H7Y 1562   2.520   1.336   3.317
   12SAPS   C38 1563   2.498   1.411   3.527
   12SAPS   H8X 1564   2.592   1.364   3.564
   12SAPS   H8Y 1565   2.421   1.333   3.544
   12SAPS   C39 1566   2.485   1.542   3.611
   12SAPS   H9X 1567   2.377   1.569   3.603
   12SAPS   H9Y 1568   2.550   1.625   3.577
   12SAPS  C310 1569   2.511   1.522   3.766
   12SAPS  H10X 1570   2.468   1.427   3.802
   12SAPS  H10Y 1571   2.458   1.606   3.816
   12SAPS  C311 1572   2.659   1.524   3.807
   12SAPS  H11X 1573   2.691   1.627   3.780
   12SAPS  H11Y 1574   2.729   1.465   3.745
   12SAPS  C312 1575   2.695   1.497   3.960
   12SAPS  H12X 1576   2.668   1.589   4.017
   12SAPS  H12Y 1577   2.805   1.491   3.970
   12SAPS  C313 1578   2.632   1.370   4.009
   12SAPS  H13X 1579   2.688   1.282   3.970
   12SAPS  H13Y 1580   2.525   1.359   3.984
   12SAPS  C314 1581   2.643   1.362   4.157
   12SAPS  H14X 1582   2.600   1.447   4.214
   12SAPS  H14Y 1583   2.747   1.344   4.191
   12SAPS  C315 1584   2.570   1.227   4.207
   12SAPS  H15X 1585   2.462   1.229   4.180
   12SAPS  H15Y 1586   2.565   1.229   4.318
   12SAPS  C316 1587   2.647   1.095   4.170
   12SAPS  H16X 1588   2.745   1.117   4.217
   12SAPS  H16Y 1589   2.650   1.095   4.059
   12SAPS  C317 1590   2.581   0.968   4.225
   12SAPS  H17X 1591   2.487   0.941   4.172
   12SAPS  H17Y 1592   2.555   0.987   4.332
   12SAPS  C318 1593   2.669   0.844   4.215
   12SAPS  H18X 1594   2.765   0.862   4.268
   12SAPS  H18Y 1595   2.675   0.811   4.109
   12SAPS  H18Z 1596   2.626   0.762   4.277
   13SAPS     N 1597   4.745   1.608   2.276
   13SAPS   HN1 1598   4.786   1.696   2.239
   13SAPS   HN2 1599   4.683   1.627   2.358
   13SAPS   HN3 1600   4.818   1.547   2.317
   13SAPS   C12 1601   4.671   1.556   2.158
   13SAPS  H12A 1602   4.598   1.633   2.136
   13SAPS   C13 1603   4.765   1.536   2.033
   13SAPS  O13A 1604   4.881   1.575   2.035
   13SAPS  O13B 1605   4.713   1.495   1.928
   13SAPS   C11 1606   4.591   1.423   2.188
   13SAPS  H11A 1607   4.673   1.350   2.208
   13SAPS  H11B 1608   4.544   1.390   2.093
   13SAPS     P 1609   4.417   1.300   2.332
   13SAPS   O13 1610   4.313   1.343   2.430
   13SAPS   O14 1611   4.377   1.227   2.211
   13SAPS   O12 1612   4.499   1.438   2.296
   13SAPS   O11 1613   4.525   1.227   2.412
   13SAPS    C1 1614   4.607   1.297   2.506
   13SAPS    HA 1615   4.701   1.334   2.460
   13SAPS    HB 1616   4.550   1.384   2.545
   13SAPS    C2 1617   4.631   1.212   2.631
   13SAPS    HS 1618   4.656   1.108   2.604
   13SAPS   O21 1619   4.508   1.205   2.704
   13SAPS   C21 1620   4.485   1.088   2.764
   13SAPS   O22 1621   4.545   0.979   2.749
   13SAPS   C22 1622   4.367   1.108   2.864
   13SAPS   H2R 1623   4.367   1.204   2.919
   13SAPS   H2S 1624   4.287   1.129   2.790
   13SAPS    C3 1625   4.750   1.271   2.714
   13SAPS    HX 1626   4.720   1.376   2.734
   13SAPS    HY 1627   4.848   1.262   2.662
   13SAPS   O31 1628   4.773   1.215   2.845
   13SAPS   C31 1629   4.843   1.104   2.846
   13SAPS   O32 1630   4.885   1.043   2.744
   13SAPS   C32 1631   4.864   1.049   2.992
   13SAPS   H2X 1632   4.816   1.117   3.067
   13SAPS   H2Y 1633   4.972   1.052   3.018
   13SAPS   C23 1634   4.340   0.980   2.934
   13SAPS   H3R 1635   4.385   0.885   2.898
   13SAPS   H3S 1636   4.231   0.955   2.937
   13SAPS   C24 1637   4.369   0.974   3.087
   13SAPS   H4R 1638   4.478   0.980   3.106
   13SAPS   H4S 1639   4.339   0.874   3.126
   13SAPS   C25 1640   4.306   1.090   3.164
   13SAPS   H5R 1641   4.289   1.185   3.111
   13SAPS   C26 1642   4.270   1.076   3.297
   13SAPS   H6R 1643   4.218   1.159   3.345
   13SAPS   C27 1644   4.283   0.951   3.377
   13SAPS   H7R 1645   4.378   0.898   3.356
   13SAPS   H7S 1646   4.201   0.880   3.352
   13SAPS   C28 1647   4.279   0.983   3.528
   13SAPS   H8R 1648   4.214   1.070   3.546
   13SAPS   C29 1649   4.354   0.925   3.618
   13SAPS   H9R 1650   4.341   0.954   3.723
   13SAPS  C210 1651   4.460   0.819   3.594
   13SAPS  H10R 1652   4.429   0.760   3.506
   13SAPS  H10S 1653   4.451   0.737   3.668
   13SAPS  C211 1654   4.597   0.883   3.584
   13SAPS  H11R 1655   4.609   0.947   3.496
   13SAPS  C212 1656   4.702   0.855   3.669
   13SAPS  H12R 1657   4.798   0.909   3.666
   13SAPS  C213 1658   4.710   0.743   3.769
   13SAPS  H13R 1659   4.639   0.667   3.732
   13SAPS  H13S 1660   4.684   0.779   3.871
   13SAPS  C214 1661   4.849   0.679   3.767
   13SAPS  H14R 1662   4.883   0.664   3.663
   13SAPS  C215 1663   4.918   0.617   3.868
   13SAPS  H15R 1664   5.016   0.569   3.855
   13SAPS  C216 1665   4.876   0.615   4.012
   13SAPS  H16R 1666   4.863   0.510   4.044
   13SAPS  H16S 1667   4.780   0.669   4.026
   13SAPS  C217 1668   4.972   0.665   4.123
   13SAPS  H17R 1669   4.979   0.774   4.140
   13SAPS  H17S 1670   5.073   0.643   4.081
   13SAPS  C218 1671   4.939   0.614   4.260
   13SAPS  H18R 1672   4.909   0.508   4.247
   13SAPS  H18S 1673   4.846   0.667   4.289
   13SAPS  C219 1674   5.057   0.627   4.354
   13SAPS  H19R 1675   5.099   0.728   4.337
   13SAPS  H19S 1676   5.131   0.556   4.313
   13SAPS  C220 1677   5.036   0.592   4.502
   13SAPS  H20R 1678   4.990   0.494   4.525
   13SAPS  H20S 1679   4.966   0.667   4.545
   13SAPS  H20T 1680   5.137   0.605   4.548
   13SAPS   C33 1681   4.807   0.906   3.013
   13SAPS   H3X 1682   4.862   0.831   2.952
   13SAPS   H3Y 1683   4.698   0.893   2.997
   13SAPS   C34 1684   4.832   0.859   3.163
   13SAPS   H4X 1685   4.758   0.779   3.183
   13SAPS   H4Y 1686   4.790   0.935   3.233
   13SAPS   C35 1687   4.977   0.837   3.199
   13SAPS   H5X 1688   5.041   0.914   3.151
   13SAPS   H5Y 1689   4.995   0.730   3.174
   13SAPS   C36 1690   4.983   0.846   3.352
   13SAPS   H6X 1691   4.889   0.806   3.395
   13SAPS   H6Y 1692   4.986   0.955   3.371
   13SAPS   C37 1693   5.106   0.776   3.410
   13SAPS   H7X 1694   5.185   0.793   3.334
   13SAPS   H7Y 1695   5.087   0.667   3.421
   13SAPS   C38 1696   5.146   0.828   3.552
   13SAPS   H8X 1697   5.049   0.856   3.598
   13SAPS   H8Y 1698   5.207   0.921   3.550
   13SAPS   C39 1699   5.222   0.735   3.645
   13SAPS   H9X 1700   5.328   0.749   3.614
   13SAPS   H9Y 1701   5.183   0.632   3.636
   13SAPS  C310 1702   5.206   0.779   3.792
   13SAPS  H10X 1703   5.217   0.691   3.859
   13SAPS  H10Y 1704   5.109   0.824   3.823
   13SAPS  C311 1705   5.311   0.876   3.843
   13SAPS  H11X 1706   5.294   0.975   3.796
   13SAPS  H11Y 1707   5.406   0.833   3.806
   13SAPS  C312 1708   5.318   0.885   3.995
   13SAPS  H12X 1709   5.330   0.789   4.049
   13SAPS  H12Y 1710   5.219   0.926   4.024
   13SAPS  C313 1711   5.434   0.972   4.051
   13SAPS  H13X 1712   5.431   1.072   4.003
   13SAPS  H13Y 1713   5.529   0.917   4.032
   13SAPS  C314 1714   5.421   0.993   4.201
   13SAPS  H14X 1715   5.433   0.890   4.243
   13SAPS  H14Y 1716   5.318   1.021   4.232
   13SAPS  C315 1717   5.523   1.093   4.266
   13SAPS  H15X 1718   5.622   1.047   4.286
   13SAPS  H15Y 1719   5.485   1.111   4.369
   13SAPS  C316 1720   5.551   1.224   4.196
   13SAPS  H16X 1721   5.456   1.280   4.179
   13SAPS  H16Y 1722   5.578   1.194   4.092
   13SAPS  C317 1723   5.653   1.314   4.262
   13SAPS  H17X 1724   5.756   1.277   4.241
   13SAPS  H17Y 1725   5.620   1.329   4.367
   13SAPS  C318 1726   5.648   1.448   4.190
   13SAPS  H18X 1727   5.632   1.441   4.080
   13SAPS  H18Y 1728   5.732   1.517   4.212
   13SAPS  H18Z 1729   5.558   1.500   4.226
   14SAPS     N 1730   5.479   2.924   2.021
   14SAPS   HN1 1731   5.458   2.927   1.919
   14SAPS   HN2 1732   5.495   2.825   2.046
   14SAPS   HN3 1733   5.395   2.965   2.069
   14SAPS   C12 1734   5.599   3.016   2.048
   14SAPS  H12A 1735   5.604   3.006   2.156
   14SAPS   C13 1736   5.738   2.975   1.995
   14SAPS  O13A 1737   5.764   2.868   1.930
   14SAPS  O13B 1738   5.830   3.055   2.018
   14SAPS   C11 1739   5.559   3.157   1.998
   14SAPS  H11A 1740   5.525   3.157   1.892
   14SAPS  H11B 1741   5.643   3.229   1.995
   14SAPS     P 1742   5.444   3.345   2.140
   14SAPS   O13 1743   5.560   3.369   2.228
   14SAPS   O14 1744   5.434   3.428   2.018
   14SAPS   O12 1745   5.451   3.194   2.087
   14SAPS   O11 1746   5.309   3.342   2.221
   14SAPS    C1 1747   5.261   3.232   2.295
   14SAPS    HA 1748   5.156   3.222   2.263
   14SAPS    HB 1749   5.315   3.140   2.264
   14SAPS    C2 1750   5.261   3.244   2.450
   14SAPS    HS 1751   5.197   3.174   2.509
   14SAPS   O21 1752   5.227   3.374   2.491
   14SAPS   C21 1753   5.085   3.392   2.478
   14SAPS   O22 1754   5.011   3.313   2.421
   14SAPS   C22 1755   5.039   3.526   2.552
   14SAPS   H2R 1756   5.120   3.545   2.627
   14SAPS   H2S 1757   5.042   3.610   2.479
   14SAPS    C3 1758   5.405   3.205   2.499
   14SAPS    HX 1759   5.468   3.282   2.451
   14SAPS    HY 1760   5.445   3.106   2.467
   14SAPS   O31 1761   5.412   3.200   2.648
   14SAPS   C31 1762   5.501   3.273   2.707
   14SAPS   O32 1763   5.567   3.361   2.658
   14SAPS   C32 1764   5.505   3.232   2.858
   14SAPS   H2X 1765   5.603   3.278   2.884
   14SAPS   H2Y 1766   5.511   3.121   2.859
   14SAPS   C23 1767   4.898   3.508   2.610
   14SAPS   H3R 1768   4.821   3.490   2.531
   14SAPS   H3S 1769   4.883   3.608   2.655
   14SAPS   C24 1770   4.881   3.398   2.716
   14SAPS   H4R 1771   4.916   3.298   2.682
   14SAPS   H4S 1772   4.771   3.399   2.734
   14SAPS   C25 1773   4.944   3.435   2.849
   14SAPS   H5R 1774   5.050   3.465   2.842
   14SAPS   C26 1775   4.884   3.417   2.969
   14SAPS   H6R 1776   4.940   3.465   3.050
   14SAPS   C27 1777   4.747   3.360   3.005
   14SAPS   H7R 1778   4.741   3.256   2.965
   14SAPS   H7S 1779   4.675   3.419   2.944
   14SAPS   C28 1780   4.711   3.373   3.145
   14SAPS   H8R 1781   4.635   3.445   3.178
   14SAPS   C29 1782   4.766   3.303   3.250
   14SAPS   H9R 1783   4.737   3.328   3.353
   14SAPS  C210 1784   4.864   3.192   3.245
   14SAPS  H10R 1785   4.947   3.212   3.316
   14SAPS  H10S 1786   4.909   3.182   3.144
   14SAPS  C211 1787   4.810   3.056   3.281
   14SAPS  H11R 1788   4.720   3.032   3.223
   14SAPS  C212 1789   4.857   2.963   3.365
   14SAPS  H12R 1790   4.807   2.865   3.358
   14SAPS  C213 1791   4.982   2.963   3.452
   14SAPS  H13R 1792   5.070   2.983   3.387
   14SAPS  H13S 1793   4.989   2.857   3.483
   14SAPS  C214 1794   4.986   3.055   3.572
   14SAPS  H14R 1795   4.914   3.137   3.560
   14SAPS  C215 1796   5.069   3.047   3.682
   14SAPS  H15R 1797   5.059   3.118   3.766
   14SAPS  C216 1798   5.179   2.948   3.699
   14SAPS  H16R 1799   5.269   2.965   3.637
   14SAPS  H16S 1800   5.144   2.844   3.681
   14SAPS  C217 1801   5.232   2.956   3.846
   14SAPS  H17R 1802   5.299   2.870   3.863
   14SAPS  H17S 1803   5.153   2.940   3.923
   14SAPS  C218 1804   5.330   3.073   3.881
   14SAPS  H18R 1805   5.274   3.167   3.897
   14SAPS  H18S 1806   5.394   3.087   3.791
   14SAPS  C219 1807   5.411   3.053   4.008
   14SAPS  H19R 1808   5.480   3.139   4.017
   14SAPS  H19S 1809   5.468   2.957   4.011
   14SAPS  C220 1810   5.322   3.064   4.132
   14SAPS  H20R 1811   5.298   3.170   4.158
   14SAPS  H20S 1812   5.373   3.017   4.218
   14SAPS  H20T 1813   5.226   3.007   4.132
   14SAPS   C33 1814   5.409   3.290   2.959
   14SAPS   H3X 1815   5.315   3.231   2.954
   14SAPS   H3Y 1816   5.393   3.398   2.940
   14SAPS   C34 1817   5.452   3.268   3.107
   14SAPS   H4X 1818   5.535   3.339   3.128
   14SAPS   H4Y 1819   5.474   3.161   3.127
   14SAPS   C35 1820   5.331   3.309   3.202
   14SAPS   H5X 1821   5.238   3.250   3.184
   14SAPS   H5Y 1822   5.318   3.416   3.174
   14SAPS   C36 1823   5.374   3.313   3.350
   14SAPS   H6X 1824   5.453   3.391   3.356
   14SAPS   H6Y 1825   5.414   3.215   3.382
   14SAPS   C37 1826   5.264   3.366   3.437
   14SAPS   H7X 1827   5.199   3.281   3.468
   14SAPS   H7Y 1828   5.199   3.438   3.384
   14SAPS   C38 1829   5.330   3.425   3.561
   14SAPS   H8X 1830   5.378   3.520   3.532
   14SAPS   H8Y 1831   5.408   3.358   3.603
   14SAPS   C39 1832   5.229   3.460   3.678
   14SAPS   H9X 1833   5.158   3.376   3.695
   14SAPS   H9Y 1834   5.175   3.548   3.637
   14SAPS  C310 1835   5.280   3.515   3.805
   14SAPS  H10X 1836   5.360   3.588   3.782
   14SAPS  H10Y 1837   5.332   3.432   3.858
   14SAPS  C311 1838   5.166   3.583   3.889
   14SAPS  H11X 1839   5.078   3.519   3.912
   14SAPS  H11Y 1840   5.115   3.663   3.831
   14SAPS  C312 1841   5.210   3.651   4.018
   14SAPS  H12X 1842   5.265   3.582   4.085
   14SAPS  H12Y 1843   5.122   3.685   4.077
   14SAPS  C313 1844   5.300   3.771   3.995
   14SAPS  H13X 1845   5.248   3.853   3.941
   14SAPS  H13Y 1846   5.387   3.736   3.936
   14SAPS  C314 1847   5.358   3.824   4.122
   14SAPS  H14X 1848   5.395   3.737   4.180
   14SAPS  H14Y 1849   5.276   3.877   4.175
   14SAPS  C315 1850   5.475   3.926   4.103
   14SAPS  H15X 1851   5.444   4.017   4.048
   14SAPS  H15Y 1852   5.533   3.871   4.026
   14SAPS  C316 1853   5.550   3.974   4.232
   14SAPS  H16X 1854   5.472   4.026   4.292
   14SAPS  H16Y 1855   5.637   4.035   4.199
   14SAPS  C317 1856   5.610   3.850   4.297
   14SAPS  H17X 1857   5.666   3.791   4.222
   14SAPS  H17Y 1858   5.524   3.801   4.347
   14SAPS  C318 1859   5.716   3.883   4.403
   14SAPS  H18X 1860   5.667   3.931   4.491
   14SAPS  H18Y 1861   5.807   3.936   4.368
   14SAPS  H18Z 1862   5.752   3.790   4.452
   15SAPS     N 1863   4.061   3.409   1.663
   15SAPS   HN1 1864   4.066   3.312   1.625
   15SAPS   HN2 1865   3.960   3.435   1.659
   15SAPS   HN3 1866   4.121   3.478   1.612
   15SAPS   C12 1867   4.096   3.410   1.813
   15SAPS  H12A 1868   4.070   3.314   1.856
   15SAPS   C13 1869   4.249   3.414   1.831
   15SAPS  O13A 1870   4.327   3.371   1.741
   15SAPS  O13B 1871   4.287   3.420   1.951
   15SAPS   C11 1872   4.017   3.525   1.888
   15SAPS  H11A 1873   4.070   3.622   1.876
   15SAPS  H11B 1874   4.028   3.489   1.992
   15SAPS     P 1875   3.763   3.421   1.855
   15SAPS   O13 1876   3.629   3.489   1.868
   15SAPS   O14 1877   3.774   3.339   1.735
   15SAPS   O12 1878   3.874   3.538   1.856
   15SAPS   O11 1879   3.790   3.349   1.992
   15SAPS    C1 1880   3.726   3.382   2.115
   15SAPS    HA 1881   3.622   3.421   2.104
   15SAPS    HB 1882   3.719   3.289   2.175
   15SAPS    C2 1883   3.816   3.471   2.204
   15SAPS    HS 1884   3.853   3.557   2.144
   15SAPS   O21 1885   3.939   3.392   2.228
   15SAPS   C21 1886   4.042   3.459   2.263
   15SAPS   O22 1887   4.046   3.580   2.282
   15SAPS   C22 1888   4.160   3.367   2.295
   15SAPS   H2R 1889   4.120   3.267   2.320
   15SAPS   H2S 1890   4.216   3.360   2.199
   15SAPS    C3 1891   3.732   3.502   2.329
   15SAPS    HX 1892   3.663   3.418   2.354
   15SAPS    HY 1893   3.677   3.594   2.301
   15SAPS   O31 1894   3.818   3.539   2.436
   15SAPS   C31 1895   3.764   3.625   2.517
   15SAPS   O32 1896   3.644   3.652   2.516
   15SAPS   C32 1897   3.867   3.675   2.622
   15SAPS   H2X 1898   3.963   3.694   2.570
   15SAPS   H2Y 1899   3.892   3.589   2.687
   15SAPS   C23 1900   4.248   3.413   2.409
   15SAPS   H3R 1901   4.186   3.414   2.502
   15SAPS   H3S 1902   4.291   3.514   2.390
   15SAPS   C24 1903   4.370   3.322   2.427
   15SAPS   H4R 1904   4.437   3.367   2.504
   15SAPS   H4S 1905   4.424   3.333   2.331
   15SAPS   C25 1906   4.352   3.181   2.470
   15SAPS   H5R 1907   4.313   3.116   2.391
   15SAPS   C26 1908   4.365   3.121   2.591
   15SAPS   H6R 1909   4.359   3.011   2.587
   15SAPS   C27 1910   4.399   3.176   2.724
   15SAPS   H7R 1911   4.301   3.176   2.777
   15SAPS   H7S 1912   4.430   3.283   2.724
   15SAPS   C28 1913   4.490   3.093   2.810
   15SAPS   H8R 1914   4.552   3.021   2.754
   15SAPS   C29 1915   4.503   3.100   2.943
   15SAPS   H9R 1916   4.581   3.044   2.997
   15SAPS  C210 1917   4.424   3.189   3.026
   15SAPS  H10R 1918   4.372   3.270   2.971
   15SAPS  H10S 1919   4.486   3.244   3.101
   15SAPS  C211 1920   4.316   3.120   3.101
   15SAPS  H11R 1921   4.227   3.108   3.036
   15SAPS  C212 1922   4.313   3.070   3.226
   15SAPS  H12R 1923   4.216   3.030   3.258
   15SAPS  C213 1924   4.426   3.080   3.332
   15SAPS  H13R 1925   4.449   3.180   3.374
   15SAPS  H13S 1926   4.516   3.049   3.274
   15SAPS  C214 1927   4.411   2.980   3.447
   15SAPS  H14R 1928   4.378   2.881   3.412
   15SAPS  C215 1929   4.419   2.998   3.583
   15SAPS  H15R 1930   4.410   2.905   3.642
   15SAPS  C216 1931   4.456   3.125   3.659
   15SAPS  H16R 1932   4.378   3.149   3.736
   15SAPS  H16S 1933   4.462   3.214   3.593
   15SAPS  C217 1934   4.592   3.112   3.733
   15SAPS  H17R 1935   4.669   3.096   3.655
   15SAPS  H17S 1936   4.580   3.021   3.794
   15SAPS  C218 1937   4.614   3.235   3.819
   15SAPS  H18R 1938   4.544   3.253   3.903
   15SAPS  H18S 1939   4.614   3.321   3.749
   15SAPS  C219 1940   4.748   3.219   3.890
   15SAPS  H19R 1941   4.817   3.193   3.807
   15SAPS  H19S 1942   4.757   3.135   3.963
   15SAPS  C220 1943   4.789   3.340   3.973
   15SAPS  H20R 1944   4.700   3.375   4.030
   15SAPS  H20S 1945   4.833   3.419   3.909
   15SAPS  H20T 1946   4.864   3.308   4.049
   15SAPS   C33 1947   3.821   3.801   2.703
   15SAPS   H3X 1948   3.717   3.785   2.738
   15SAPS   H3Y 1949   3.830   3.875   2.620
   15SAPS   C34 1950   3.911   3.838   2.822
   15SAPS   H4X 1951   3.922   3.948   2.826
   15SAPS   H4Y 1952   4.013   3.797   2.802
   15SAPS   C35 1953   3.853   3.795   2.962
   15SAPS   H5X 1954   3.849   3.684   2.960
   15SAPS   H5Y 1955   3.751   3.833   2.984
   15SAPS   C36 1956   3.939   3.859   3.070
   15SAPS   H6X 1957   3.948   3.969   3.057
   15SAPS   H6Y 1958   4.041   3.816   3.074
   15SAPS   C37 1959   3.873   3.832   3.205
   15SAPS   H7X 1960   3.878   3.723   3.226
   15SAPS   H7Y 1961   3.765   3.851   3.187
   15SAPS   C38 1962   3.928   3.902   3.332
   15SAPS   H8X 1963   3.910   4.009   3.308
   15SAPS   H8Y 1964   4.036   3.879   3.346
   15SAPS   C39 1965   3.830   3.870   3.447
   15SAPS   H9X 1966   3.860   3.772   3.491
   15SAPS   H9Y 1967   3.725   3.867   3.412
   15SAPS  C310 1968   3.820   3.980   3.551
   15SAPS  H10X 1969   3.729   3.964   3.613
   15SAPS  H10Y 1970   3.806   4.075   3.496
   15SAPS  C311 1971   3.938   3.986   3.643
   15SAPS  H11X 1972   4.027   4.020   3.585
   15SAPS  H11Y 1973   3.957   3.887   3.690
   15SAPS  C312 1974   3.925   4.103   3.754
   15SAPS  H12X 1975   3.839   4.080   3.820
   15SAPS  H12Y 1976   3.907   4.196   3.695
   15SAPS  C313 1977   4.049   4.112   3.836
   15SAPS  H13X 1978   4.132   4.110   3.763
   15SAPS  H13Y 1979   4.057   4.016   3.891
   15SAPS  C314 1980   4.048   4.226   3.937
   15SAPS  H14X 1981   4.121   4.209   4.019
   15SAPS  H14Y 1982   3.948   4.238   3.983
   15SAPS  C315 1983   4.090   4.360   3.875
   15SAPS  H15X 1984   4.023   4.380   3.789
   15SAPS  H15Y 1985   4.192   4.352   3.834
   15SAPS  C316 1986   4.077   4.481   3.976
   15SAPS  H16X 1987   4.137   4.453   4.066
   15SAPS  H16Y 1988   3.970   4.474   4.008
   15SAPS  C317 1989   4.116   4.618   3.924
   15SAPS  H17X 1990   4.058   4.647   3.833
   15SAPS  H17Y 1991   4.218   4.602   3.884
   15SAPS  C318 1992   4.124   4.738   4.022
   15SAPS  H18X 1993   4.203   4.809   3.991
   15SAPS  H18Y 1994   4.149   4.715   4.128
   15SAPS  H18Z 1995   4.022   4.782   4.023
   16SAPS     N 1996   6.111   4.254   2.269
   16SAPS   HN1 1997   6.207   4.221   2.293
   16SAPS   HN2 1998   6.130   4.349   2.232
   16SAPS   HN3 1999   6.049   4.257   2.352
   16SAPS   C12 2000   6.064   4.158   2.161
   16SAPS  H12A 2001   5.958   4.171   2.145
   16SAPS   C13 2002   6.138   4.165   2.026
   16SAPS  O13A 2003   6.230   4.237   2.002
   16SAPS  O13B 2004   6.081   4.112   1.923
   16SAPS   C11 2005   6.077   4.007   2.210
   16SAPS  H11A 2006   6.183   3.976   2.199
   16SAPS  H11B 2007   5.998   3.971   2.141
   16SAPS     P 2008   6.008   3.854   2.412
   16SAPS   O13 2009   5.967   3.764   2.304
   16SAPS   O14 2010   6.125   3.830   2.500
   16SAPS   O12 2011   6.035   3.991   2.346
   16SAPS   O11 2012   5.875   3.876   2.499
   16SAPS    C1 2013   5.780   3.970   2.446
   16SAPS    HA 2014   5.808   4.018   2.350
   16SAPS    HB 2015   5.684   3.914   2.440
   16SAPS    C2 2016   5.770   4.084   2.544
   16SAPS    HS 2017   5.866   4.117   2.588
   16SAPS   O21 2018   5.684   4.043   2.652
   16SAPS   C21 2019   5.701   4.105   2.767
   16SAPS   O22 2020   5.784   4.190   2.793
   16SAPS   C22 2021   5.592   4.056   2.865
   16SAPS   H2R 2022   5.496   4.030   2.816
   16SAPS   H2S 2023   5.634   3.962   2.905
   16SAPS    C3 2024   5.709   4.207   2.473
   16SAPS    HX 2025   5.600   4.187   2.462
   16SAPS    HY 2026   5.760   4.208   2.375
   16SAPS   O31 2027   5.728   4.332   2.544
   16SAPS   C31 2028   5.848   4.386   2.553
   16SAPS   O32 2029   5.951   4.335   2.510
   16SAPS   C32 2030   5.829   4.532   2.600
   16SAPS   H2X 2031   5.776   4.589   2.521
   16SAPS   H2Y 2032   5.933   4.570   2.612
   16SAPS   C23 2033   5.569   4.160   2.975
   16SAPS   H3R 2034   5.531   4.257   2.934
   16SAPS   H3S 2035   5.668   4.172   3.024
   16SAPS   C24 2036   5.472   4.099   3.079
   16SAPS   H4R 2037   5.516   3.999   3.097
   16SAPS   H4S 2038   5.372   4.091   3.031
   16SAPS   C25 2039   5.458   4.166   3.213
   16SAPS   H5R 2040   5.446   4.090   3.292
   16SAPS   C26 2041   5.467   4.298   3.244
   16SAPS   H6R 2042   5.461   4.331   3.348
   16SAPS   C27 2043   5.484   4.411   3.146
   16SAPS   H7R 2044   5.432   4.496   3.194
   16SAPS   H7S 2045   5.417   4.396   3.058
   16SAPS   C28 2046   5.631   4.453   3.123
   16SAPS   H8R 2047   5.678   4.427   3.028
   16SAPS   C29 2048   5.693   4.544   3.206
   16SAPS   H9R 2049   5.795   4.574   3.179
   16SAPS  C210 2050   5.631   4.598   3.334
   16SAPS  H10R 2051   5.534   4.552   3.363
   16SAPS  H10S 2052   5.602   4.704   3.319
   16SAPS  C211 2053   5.733   4.592   3.446
   16SAPS  H11R 2054   5.813   4.667   3.440
   16SAPS  C212 2055   5.741   4.516   3.551
   16SAPS  H12R 2056   5.823   4.538   3.621
   16SAPS  C213 2057   5.649   4.396   3.579
   16SAPS  H13R 2058   5.547   4.406   3.537
   16SAPS  H13S 2059   5.626   4.392   3.688
   16SAPS  C214 2060   5.711   4.263   3.533
   16SAPS  H14R 2061   5.759   4.274   3.435
   16SAPS  C215 2062   5.748   4.163   3.615
   16SAPS  H15R 2063   5.815   4.088   3.570
   16SAPS  C216 2064   5.705   4.143   3.759
   16SAPS  H16R 2065   5.718   4.036   3.787
   16SAPS  H16S 2066   5.600   4.162   3.793
   16SAPS  C217 2067   5.802   4.227   3.838
   16SAPS  H17R 2068   5.794   4.335   3.813
   16SAPS  H17S 2069   5.903   4.187   3.813
   16SAPS  C218 2070   5.787   4.196   3.990
   16SAPS  H18R 2071   5.795   4.086   4.003
   16SAPS  H18S 2072   5.686   4.228   4.023
   16SAPS  C219 2073   5.878   4.270   4.088
   16SAPS  H19R 2074   5.835   4.368   4.118
   16SAPS  H19S 2075   5.964   4.307   4.027
   16SAPS  C220 2076   5.913   4.192   4.206
   16SAPS  H20R 2077   5.969   4.262   4.271
   16SAPS  H20S 2078   5.974   4.106   4.171
   16SAPS  H20T 2079   5.820   4.159   4.258
   16SAPS   C33 2080   5.756   4.534   2.735
   16SAPS   H3X 2081   5.801   4.471   2.814
   16SAPS   H3Y 2082   5.654   4.494   2.719
   16SAPS   C34 2083   5.747   4.674   2.790
   16SAPS   H4X 2084   5.809   4.739   2.724
   16SAPS   H4Y 2085   5.772   4.676   2.898
   16SAPS   C35 2086   5.603   4.733   2.785
   16SAPS   H5X 2087   5.554   4.699   2.691
   16SAPS   H5Y 2088   5.619   4.843   2.783
   16SAPS   C36 2089   5.514   4.686   2.897
   16SAPS   H6X 2090   5.544   4.716   3.000
   16SAPS   H6Y 2091   5.510   4.575   2.900
   16SAPS   C37 2092   5.365   4.712   2.859
   16SAPS   H7X 2093   5.335   4.651   2.770
   16SAPS   H7Y 2094   5.369   4.819   2.828
   16SAPS   C38 2095   5.255   4.689   2.965
   16SAPS   H8X 2096   5.279   4.596   3.020
   16SAPS   H8Y 2097   5.151   4.683   2.926
   16SAPS   C39 2098   5.265   4.789   3.083
   16SAPS   H9X 2099   5.273   4.886   3.030
   16SAPS   H9Y 2100   5.357   4.763   3.139
   16SAPS  C310 2101   5.135   4.796   3.175
   16SAPS  H10X 2102   5.045   4.788   3.111
   16SAPS  H10Y 2103   5.128   4.894   3.228
   16SAPS  C311 2104   5.137   4.684   3.285
   16SAPS  H11X 2105   5.160   4.583   3.246
   16SAPS  H11Y 2106   5.033   4.683   3.323
   16SAPS  C312 2107   5.241   4.719   3.393
   16SAPS  H12X 2108   5.224   4.818   3.439
   16SAPS  H12Y 2109   5.339   4.731   3.343
   16SAPS  C313 2110   5.247   4.603   3.497
   16SAPS  H13X 2111   5.306   4.518   3.455
   16SAPS  H13Y 2112   5.147   4.576   3.538
   16SAPS  C314 2113   5.318   4.640   3.627
   16SAPS  H14X 2114   5.261   4.725   3.670
   16SAPS  H14Y 2115   5.424   4.669   3.611
   16SAPS  C315 2116   5.327   4.534   3.733
   16SAPS  H15X 2117   5.384   4.451   3.688
   16SAPS  H15Y 2118   5.231   4.485   3.759
   16SAPS  C316 2119   5.395   4.585   3.865
   16SAPS  H16X 2120   5.324   4.653   3.916
   16SAPS  H16Y 2121   5.484   4.641   3.830
   16SAPS  C317 2122   5.435   4.477   3.970
   16SAPS  H17X 2123   5.531   4.441   3.927
   16SAPS  H17Y 2124   5.368   4.388   3.972
   16SAPS  C318 2125   5.448   4.535   4.116
   16SAPS  H18X 2126   5.347   4.545   4.162
   16SAPS  H18Y 2127   5.489   4.638   4.107
   16SAPS  H18Z 2128   5.510   4.468   4.179
   17SAPS     N 2129   1.734   1.639   1.736
   17SAPS   HN1 2130   1.800   1.643   1.817
   17SAPS   HN2 2131   1.791   1.588   1.665
   17SAPS   HN3 2132   1.725   1.731   1.689
   17SAPS   C12 2133   1.608   1.576   1.766
   17SAPS  H12A 2134   1.552   1.585   1.674
   17SAPS   C13 2135   1.625   1.428   1.800
   17SAPS  O13A 2136   1.744   1.381   1.797
   17SAPS  O13B 2137   1.538   1.365   1.867
   17SAPS   C11 2138   1.533   1.655   1.884
   17SAPS  H11A 2139   1.593   1.655   1.978
   17SAPS  H11B 2140   1.437   1.604   1.903
   17SAPS     P 2141   1.369   1.870   1.865
   17SAPS   O13 2142   1.390   2.014   1.845
   17SAPS   O14 2143   1.263   1.801   1.795
   17SAPS   O12 2144   1.504   1.789   1.846
   17SAPS   O11 2145   1.345   1.836   2.012
   17SAPS    C1 2146   1.440   1.882   2.104
   17SAPS    HA 2147   1.545   1.850   2.090
   17SAPS    HB 2148   1.433   1.993   2.104
   17SAPS    C2 2149   1.395   1.851   2.244
   17SAPS    HS 2150   1.468   1.898   2.313
   17SAPS   O21 2151   1.402   1.709   2.262
   17SAPS   C21 2152   1.418   1.668   2.389
   17SAPS   O22 2153   1.424   1.739   2.486
   17SAPS   C22 2154   1.419   1.514   2.398
   17SAPS   H2R 2155   1.407   1.496   2.507
   17SAPS   H2S 2156   1.323   1.472   2.359
   17SAPS    C3 2157   1.255   1.909   2.263
   17SAPS    HX 2158   1.191   1.861   2.186
   17SAPS    HY 2159   1.270   2.015   2.235
   17SAPS   O31 2160   1.202   1.896   2.398
   17SAPS   C31 2161   1.117   1.797   2.422
   17SAPS   O32 2162   1.102   1.700   2.351
   17SAPS   C32 2163   1.048   1.812   2.560
   17SAPS   H2X 2164   0.945   1.771   2.553
   17SAPS   H2Y 2165   1.042   1.921   2.576
   17SAPS   C23 2166   1.544   1.440   2.340
   17SAPS   H3R 2167   1.638   1.478   2.385
   17SAPS   H3S 2168   1.542   1.446   2.229
   17SAPS   C24 2169   1.541   1.289   2.371
   17SAPS   H4R 2170   1.612   1.229   2.311
   17SAPS   H4S 2171   1.443   1.251   2.334
   17SAPS   C25 2172   1.548   1.259   2.520
   17SAPS   H5R 2173   1.455   1.239   2.577
   17SAPS   C26 2174   1.668   1.235   2.585
   17SAPS   H6R 2175   1.678   1.196   2.687
   17SAPS   C27 2176   1.800   1.256   2.519
   17SAPS   H7R 2177   1.797   1.229   2.412
   17SAPS   H7S 2178   1.865   1.177   2.562
   17SAPS   C28 2179   1.858   1.395   2.535
   17SAPS   H8R 2180   1.860   1.446   2.438
   17SAPS   C29 2181   1.901   1.456   2.644
   17SAPS   H9R 2182   1.947   1.555   2.628
   17SAPS  C210 2183   1.892   1.403   2.783
   17SAPS  H10R 2184   1.983   1.425   2.844
   17SAPS  H10S 2185   1.896   1.292   2.779
   17SAPS  C211 2186   1.764   1.438   2.855
   17SAPS  H11R 2187   1.683   1.440   2.781
   17SAPS  C212 2188   1.742   1.459   2.990
   17SAPS  H12R 2189   1.640   1.487   3.021
   17SAPS  C213 2190   1.856   1.480   3.092
   17SAPS  H13R 2191   1.834   1.576   3.143
   17SAPS  H13S 2192   1.956   1.488   3.043
   17SAPS  C214 2193   1.863   1.362   3.181
   17SAPS  H14R 2194   1.821   1.276   3.127
   17SAPS  C215 2195   1.934   1.346   3.291
   17SAPS  H15R 2196   1.943   1.246   3.335
   17SAPS  C216 2197   2.015   1.455   3.364
   17SAPS  H16R 2198   2.017   1.552   3.309
   17SAPS  H16S 2199   2.110   1.398   3.371
   17SAPS  C217 2200   1.978   1.481   3.515
   17SAPS  H17R 2201   1.949   1.387   3.568
   17SAPS  H17S 2202   1.889   1.546   3.513
   17SAPS  C218 2203   2.096   1.552   3.580
   17SAPS  H18R 2204   2.138   1.603   3.490
   17SAPS  H18S 2205   2.160   1.466   3.609
   17SAPS  C219 2206   2.055   1.656   3.684
   17SAPS  H19R 2207   1.995   1.607   3.763
   17SAPS  H19S 2208   1.999   1.738   3.635
   17SAPS  C220 2209   2.184   1.713   3.743
   17SAPS  H20R 2210   2.165   1.799   3.812
   17SAPS  H20S 2211   2.243   1.755   3.659
   17SAPS  H20T 2212   2.242   1.632   3.790
   17SAPS   C33 2213   1.126   1.739   2.671
   17SAPS   H3X 2214   1.080   1.778   2.765
   17SAPS   H3Y 2215   1.234   1.764   2.671
   17SAPS   C34 2216   1.096   1.588   2.670
   17SAPS   H4X 2217   1.155   1.531   2.595
   17SAPS   H4Y 2218   0.987   1.589   2.646
   17SAPS   C35 2219   1.107   1.521   2.815
   17SAPS   H5X 2220   1.209   1.547   2.853
   17SAPS   H5Y 2221   1.105   1.411   2.804
   17SAPS   C36 2222   1.006   1.569   2.912
   17SAPS   H6X 2223   0.910   1.545   2.863
   17SAPS   H6Y 2224   1.021   1.679   2.925
   17SAPS   C37 2225   1.017   1.509   3.051
   17SAPS   H7X 2226   1.108   1.543   3.104
   17SAPS   H7Y 2227   1.052   1.405   3.037
   17SAPS   C38 2228   0.892   1.514   3.139
   17SAPS   H8X 2229   0.825   1.439   3.093
   17SAPS   H8Y 2230   0.848   1.616   3.132
   17SAPS   C39 2231   0.916   1.475   3.288
   17SAPS   H9X 2232   0.997   1.399   3.296
   17SAPS   H9Y 2233   0.822   1.422   3.316
   17SAPS  C310 2234   0.943   1.605   3.364
   17SAPS  H10X 2235   0.876   1.691   3.341
   17SAPS  H10Y 2236   1.043   1.635   3.327
   17SAPS  C311 2237   0.920   1.587   3.511
   17SAPS  H11X 2238   0.975   1.496   3.544
   17SAPS  H11Y 2239   0.814   1.572   3.538
   17SAPS  C312 2240   0.976   1.705   3.596
   17SAPS  H12X 2241   0.902   1.788   3.598
   17SAPS  H12Y 2242   1.075   1.732   3.555
   17SAPS  C313 2243   0.991   1.666   3.744
   17SAPS  H13X 2244   0.900   1.639   3.801
   17SAPS  H13Y 2245   1.033   1.759   3.787
   17SAPS  C314 2246   1.103   1.566   3.769
   17SAPS  H14X 2247   1.203   1.592   3.729
   17SAPS  H14Y 2248   1.061   1.471   3.730
   17SAPS  C315 2249   1.111   1.554   3.921
   17SAPS  H15X 2250   1.014   1.530   3.969
   17SAPS  H15Y 2251   1.146   1.648   3.969
   17SAPS  C316 2252   1.212   1.440   3.956
   17SAPS  H16X 2253   1.304   1.447   3.894
   17SAPS  H16Y 2254   1.168   1.342   3.929
   17SAPS  C317 2255   1.264   1.440   4.109
   17SAPS  H17X 2256   1.187   1.463   4.186
   17SAPS  H17Y 2257   1.337   1.524   4.108
   17SAPS  C318 2258   1.343   1.315   4.158
   17SAPS  H18X 2259   1.431   1.284   4.098
   17SAPS  H18Y 2260   1.272   1.229   4.164
   17SAPS  H18Z 2261   1.368   1.338   4.264
   18SAPS     N 2262   5.073   2.206   1.810
   18SAPS   HN1 2263   5.084   2.167   1.714
   18SAPS   HN2 2264   5.052   2.307   1.803
   18SAPS   HN3 2265   5.157   2.181   1.866
   18SAPS   C12 2266   4.956   2.131   1.868
   18SAPS  H12A 2267   4.867   2.150   1.811
   18SAPS   C13 2268   4.985   1.979   1.866
   18SAPS  O13A 2269   5.091   1.930   1.826
   18SAPS  O13B 2270   4.902   1.910   1.928
   18SAPS   C11 2271   4.929   2.180   2.020
   18SAPS  H11A 2272   5.016   2.154   2.083
   18SAPS  H11B 2273   4.839   2.126   2.055
   18SAPS     P 2274   4.764   2.385   2.016
   18SAPS   O13 2275   4.781   2.530   2.023
   18SAPS   O14 2276   4.695   2.327   1.895
   18SAPS   O12 2277   4.915   2.324   2.024
   18SAPS   O11 2278   4.697   2.341   2.150
   18SAPS    C1 2279   4.779   2.343   2.266
   18SAPS    HA 2280   4.835   2.247   2.272
   18SAPS    HB 2281   4.865   2.413   2.255
   18SAPS    C2 2282   4.697   2.355   2.396
   18SAPS    HS 2283   4.765   2.350   2.484
   18SAPS   O21 2284   4.597   2.253   2.407
   18SAPS   C21 2285   4.642   2.146   2.471
   18SAPS   O22 2286   4.759   2.124   2.487
   18SAPS   C22 2287   4.525   2.043   2.507
   18SAPS   H2R 2288   4.432   2.100   2.531
   18SAPS   H2S 2289   4.516   1.993   2.409
   18SAPS    C3 2290   4.633   2.492   2.398
   18SAPS    HX 2291   4.562   2.498   2.313
   18SAPS    HY 2292   4.708   2.572   2.379
   18SAPS   O31 2293   4.554   2.510   2.523
   18SAPS   C31 2294   4.633   2.546   2.626
   18SAPS   O32 2295   4.755   2.552   2.624
   18SAPS   C32 2296   4.549   2.576   2.753
   18SAPS   H2X 2297   4.578   2.504   2.833
   18SAPS   H2Y 2298   4.439   2.567   2.742
   18SAPS   C23 2299   4.559   1.940   2.612
   18SAPS   H3R 2300   4.666   1.910   2.619
   18SAPS   H3S 2301   4.509   1.842   2.593
   18SAPS   C24 2302   4.516   1.968   2.759
   18SAPS   H4R 2303   4.560   2.065   2.791
   18SAPS   H4S 2304   4.554   1.883   2.820
   18SAPS   C25 2305   4.369   1.977   2.764
   18SAPS   H5R 2306   4.316   1.895   2.714
   18SAPS   C26 2307   4.302   2.094   2.800
   18SAPS   H6R 2308   4.193   2.092   2.786
   18SAPS   C27 2309   4.370   2.204   2.876
   18SAPS   H7R 2310   4.456   2.227   2.810
   18SAPS   H7S 2311   4.402   2.148   2.967
   18SAPS   C28 2312   4.289   2.331   2.904
   18SAPS   H8R 2313   4.265   2.389   2.814
   18SAPS   C29 2314   4.248   2.382   3.017
   18SAPS   H9R 2315   4.176   2.466   3.015
   18SAPS  C210 2316   4.271   2.320   3.152
   18SAPS  H10R 2317   4.261   2.401   3.227
   18SAPS  H10S 2318   4.372   2.275   3.153
   18SAPS  C211 2319   4.172   2.208   3.187
   18SAPS  H11R 2320   4.136   2.147   3.103
   18SAPS  C212 2321   4.113   2.187   3.306
   18SAPS  H12R 2322   4.028   2.118   3.316
   18SAPS  C213 2323   4.149   2.249   3.436
   18SAPS  H13R 2324   4.097   2.347   3.437
   18SAPS  H13S 2325   4.254   2.284   3.435
   18SAPS  C214 2326   4.134   2.171   3.563
   18SAPS  H14R 2327   4.077   2.077   3.562
   18SAPS  C215 2328   4.188   2.210   3.682
   18SAPS  H15R 2329   4.172   2.143   3.769
   18SAPS  C216 2330   4.270   2.328   3.710
   18SAPS  H16R 2331   4.271   2.398   3.623
   18SAPS  H16S 2332   4.376   2.302   3.728
   18SAPS  C217 2333   4.220   2.414   3.828
   18SAPS  H17R 2334   4.244   2.351   3.916
   18SAPS  H17S 2335   4.112   2.430   3.811
   18SAPS  C218 2336   4.302   2.549   3.839
   18SAPS  H18R 2337   4.329   2.581   3.736
   18SAPS  H18S 2338   4.399   2.522   3.887
   18SAPS  C219 2339   4.230   2.661   3.914
   18SAPS  H19R 2340   4.196   2.624   4.013
   18SAPS  H19S 2341   4.133   2.694   3.873
   18SAPS  C220 2342   4.323   2.781   3.920
   18SAPS  H20R 2343   4.425   2.752   3.953
   18SAPS  H20S 2344   4.280   2.851   3.995
   18SAPS  H20T 2345   4.325   2.828   3.819
   18SAPS   C33 2346   4.600   2.710   2.806
   18SAPS   H3X 2347   4.575   2.793   2.736
   18SAPS   H3Y 2348   4.709   2.706   2.828
   18SAPS   C34 2349   4.531   2.754   2.936
   18SAPS   H4X 2350   4.435   2.800   2.903
   18SAPS   H4Y 2351   4.598   2.828   2.984
   18SAPS   C35 2352   4.510   2.652   3.047
   18SAPS   H5X 2353   4.451   2.563   3.015
   18SAPS   H5Y 2354   4.452   2.711   3.121
   18SAPS   C36 2355   4.635   2.600   3.111
   18SAPS   H6X 2356   4.691   2.693   3.136
   18SAPS   H6Y 2357   4.705   2.543   3.047
   18SAPS   C37 2358   4.617   2.526   3.239
   18SAPS   H7X 2359   4.719   2.508   3.279
   18SAPS   H7Y 2360   4.573   2.427   3.213
   18SAPS   C38 2361   4.526   2.596   3.343
   18SAPS   H8X 2362   4.423   2.595   3.301
   18SAPS   H8Y 2363   4.562   2.698   3.368
   18SAPS   C39 2364   4.501   2.528   3.474
   18SAPS   H9X 2365   4.468   2.425   3.451
   18SAPS   H9Y 2366   4.418   2.578   3.528
   18SAPS  C310 2367   4.623   2.528   3.572
   18SAPS  H10X 2368   4.710   2.499   3.510
   18SAPS  H10Y 2369   4.613   2.455   3.655
   18SAPS  C311 2370   4.647   2.665   3.640
   18SAPS  H11X 2371   4.554   2.678   3.699
   18SAPS  H11Y 2372   4.638   2.741   3.560
   18SAPS  C312 2373   4.778   2.671   3.718
   18SAPS  H12X 2374   4.863   2.663   3.647
   18SAPS  H12Y 2375   4.775   2.576   3.776
   18SAPS  C313 2376   4.808   2.789   3.805
   18SAPS  H13X 2377   4.717   2.800   3.868
   18SAPS  H13Y 2378   4.819   2.878   3.740
   18SAPS  C314 2379   4.930   2.766   3.889
   18SAPS  H14X 2380   4.961   2.869   3.916
   18SAPS  H14Y 2381   5.002   2.731   3.813
   18SAPS  C315 2382   4.900   2.664   4.008
   18SAPS  H15X 2383   4.871   2.562   3.974
   18SAPS  H15Y 2384   4.804   2.691   4.057
   18SAPS  C316 2385   5.013   2.668   4.107
   18SAPS  H16X 2386   5.024   2.770   4.150
   18SAPS  H16Y 2387   5.101   2.639   4.045
   18SAPS  C317 2388   4.989   2.582   4.233
   18SAPS  H17X 2389   4.951   2.481   4.208
   18SAPS  H17Y 2390   4.904   2.628   4.287
   18SAPS  C318 2391   5.112   2.561   4.314
   18SAPS  H18X 2392   5.138   2.658   4.362
   18SAPS  H18Y 2393   5.193   2.538   4.241
   18SAPS  H18Z 2394   5.094   2.478   4.385
   19SAPS     N 2395   4.276   5.006   2.106
   19SAPS   HN1 2396   4.212   4.938   2.061
   19SAPS   HN2 2397   4.375   4.974   2.107
   19SAPS   HN3 2398   4.261   5.013   2.208
   19SAPS   C12 2399   4.285   5.138   2.042
   19SAPS  H12A 2400   4.296   5.213   2.119
   19SAPS   C13 2401   4.408   5.159   1.947
   19SAPS  O13A 2402   4.494   5.068   1.929
   19SAPS  O13B 2403   4.440   5.278   1.928
   19SAPS   C11 2404   4.162   5.170   1.957
   19SAPS  H11A 2405   4.170   5.089   1.881
   19SAPS  H11B 2406   4.176   5.263   1.898
   19SAPS     P 2407   3.909   5.210   1.958
   19SAPS   O13 2408   3.922   5.357   1.963
   19SAPS   O14 2409   3.896   5.144   1.825
   19SAPS   O12 2410   4.039   5.150   2.028
   19SAPS   O11 2411   3.798   5.172   2.059
   19SAPS    C1 2412   3.798   5.042   2.111
   19SAPS    HA 2413   3.780   4.963   2.035
   19SAPS    HB 2414   3.896   5.016   2.157
   19SAPS    C2 2415   3.694   5.028   2.220
   19SAPS    HS 2416   3.597   5.053   2.173
   19SAPS   O21 2417   3.733   5.115   2.324
   19SAPS   C21 2418   3.645   5.128   2.427
   19SAPS   O22 2419   3.529   5.090   2.423
   19SAPS   C22 2420   3.717   5.204   2.538
   19SAPS   H2R 2421   3.803   5.140   2.565
   19SAPS   H2S 2422   3.752   5.305   2.507
   19SAPS    C3 2423   3.664   4.880   2.274
   19SAPS    HX 2424   3.666   4.809   2.189
   19SAPS    HY 2425   3.576   4.884   2.343
   19SAPS   O31 2426   3.779   4.840   2.351
   19SAPS   C31 2427   3.751   4.735   2.426
   19SAPS   O32 2428   3.645   4.679   2.438
   19SAPS   C32 2429   3.865   4.712   2.517
   19SAPS   H2X 2430   3.954   4.720   2.451
   19SAPS   H2Y 2431   3.856   4.611   2.562
   19SAPS   C23 2432   3.617   5.211   2.664
   19SAPS   H3R 2433   3.585   5.106   2.680
   19SAPS   H3S 2434   3.533   5.278   2.636
   19SAPS   C24 2435   3.701   5.281   2.779
   19SAPS   H4R 2436   3.736   5.381   2.745
   19SAPS   H4S 2437   3.792   5.217   2.786
   19SAPS   C25 2438   3.633   5.286   2.912
   19SAPS   H5R 2439   3.565   5.371   2.927
   19SAPS   C26 2440   3.655   5.214   3.024
   19SAPS   H6R 2441   3.577   5.238   3.098
   19SAPS   C27 2442   3.765   5.109   3.051
   19SAPS   H7R 2443   3.819   5.088   2.956
   19SAPS   H7S 2444   3.717   5.013   3.079
   19SAPS   C28 2445   3.849   5.147   3.171
   19SAPS   H8R 2446   3.949   5.190   3.153
   19SAPS   C29 2447   3.817   5.133   3.298
   19SAPS   H9R 2448   3.881   5.180   3.374
   19SAPS  C210 2449   3.682   5.095   3.362
   19SAPS  H10R 2450   3.712   5.019   3.438
   19SAPS  H10S 2451   3.618   5.037   3.292
   19SAPS  C211 2452   3.606   5.204   3.412
   19SAPS  H11R 2453   3.609   5.294   3.349
   19SAPS  C212 2454   3.520   5.203   3.516
   19SAPS  H12R 2455   3.463   5.295   3.536
   19SAPS  C213 2456   3.501   5.096   3.620
   19SAPS  H13R 2457   3.569   5.116   3.706
   19SAPS  H13S 2458   3.533   4.995   3.587
   19SAPS  C214 2459   3.359   5.086   3.677
   19SAPS  H14R 2460   3.275   5.100   3.608
   19SAPS  C215 2461   3.324   5.042   3.802
   19SAPS  H15R 2462   3.219   5.056   3.830
   19SAPS  C216 2463   3.422   4.986   3.902
   19SAPS  H16R 2464   3.438   5.074   3.968
   19SAPS  H16S 2465   3.519   4.961   3.853
   19SAPS  C217 2466   3.391   4.868   3.988
   19SAPS  H17R 2467   3.462   4.854   4.072
   19SAPS  H17S 2468   3.394   4.778   3.923
   19SAPS  C218 2469   3.255   4.889   4.060
   19SAPS  H18R 2470   3.218   4.790   4.091
   19SAPS  H18S 2471   3.182   4.919   3.981
   19SAPS  C219 2472   3.268   4.987   4.177
   19SAPS  H19R 2473   3.179   5.053   4.168
   19SAPS  H19S 2474   3.355   5.055   4.164
   19SAPS  C220 2475   3.271   4.924   4.316
   19SAPS  H20R 2476   3.349   4.845   4.321
   19SAPS  H20S 2477   3.177   4.870   4.338
   19SAPS  H20T 2478   3.296   5.007   4.385
   19SAPS   C33 2479   3.870   4.808   2.640
   19SAPS   H3X 2480   3.768   4.816   2.682
   19SAPS   H3Y 2481   3.889   4.910   2.601
   19SAPS   C34 2482   3.967   4.744   2.741
   19SAPS   H4X 2483   4.060   4.708   2.691
   19SAPS   H4Y 2484   3.927   4.644   2.767
   19SAPS   C35 2485   3.998   4.827   2.871
   19SAPS   H5X 2486   3.900   4.834   2.923
   19SAPS   H5Y 2487   4.014   4.936   2.855
   19SAPS   C36 2488   4.106   4.760   2.954
   19SAPS   H6X 2489   4.212   4.778   2.925
   19SAPS   H6Y 2490   4.092   4.650   2.945
   19SAPS   C37 2491   4.096   4.795   3.101
   19SAPS   H7X 2492   4.007   4.744   3.142
   19SAPS   H7Y 2493   4.098   4.905   3.118
   19SAPS   C38 2494   4.212   4.737   3.174
   19SAPS   H8X 2495   4.305   4.765   3.121
   19SAPS   H8Y 2496   4.202   4.627   3.160
   19SAPS   C39 2497   4.212   4.790   3.321
   19SAPS   H9X 2498   4.117   4.771   3.375
   19SAPS   H9Y 2499   4.226   4.900   3.327
   19SAPS  C310 2500   4.317   4.728   3.419
   19SAPS  H10X 2501   4.416   4.763   3.382
   19SAPS  H10Y 2502   4.300   4.619   3.405
   19SAPS  C311 2503   4.292   4.788   3.560
   19SAPS  H11X 2504   4.195   4.760   3.607
   19SAPS  H11Y 2505   4.294   4.898   3.549
   19SAPS  C312 2506   4.412   4.765   3.649
   19SAPS  H12X 2507   4.503   4.791   3.591
   19SAPS  H12Y 2508   4.408   4.659   3.682
   19SAPS  C313 2509   4.423   4.847   3.776
   19SAPS  H13X 2510   4.348   4.814   3.851
   19SAPS  H13Y 2511   4.399   4.952   3.747
   19SAPS  C314 2512   4.552   4.820   3.856
   19SAPS  H14X 2513   4.637   4.835   3.787
   19SAPS  H14Y 2514   4.557   4.713   3.884
   19SAPS  C315 2515   4.569   4.897   3.983
   19SAPS  H15X 2516   4.540   5.002   3.962
   19SAPS  H15Y 2517   4.677   4.884   4.009
   19SAPS  C316 2518   4.490   4.840   4.099
   19SAPS  H16X 2519   4.511   4.731   4.100
   19SAPS  H16Y 2520   4.383   4.853   4.073
   19SAPS  C317 2521   4.506   4.913   4.234
   19SAPS  H17X 2522   4.481   5.021   4.225
   19SAPS  H17Y 2523   4.616   4.912   4.250
   19SAPS  C318 2524   4.419   4.872   4.351
   19SAPS  H18X 2525   4.423   4.763   4.376
   19SAPS  H18Y 2526   4.315   4.904   4.329
   19SAPS  H18Z 2527   4.452   4.916   4.447
   20SAPS     N 2528   4.339   5.518   1.922
   20SAPS   HN1 2529   4.386   5.426   1.910
   20SAPS   HN2 2530   4.303   5.516   2.020
   20SAPS   HN3 2531   4.253   5.517   1.864
   20SAPS   C12 2532   4.421   5.634   1.877
   20SAPS  H12A 2533   4.499   5.649   1.950
   20SAPS   C13 2534   4.492   5.620   1.740
   20SAPS  O13A 2535   4.470   5.517   1.669
   20SAPS  O13B 2536   4.602   5.680   1.731
   20SAPS   C11 2537   4.342   5.767   1.870
   20SAPS  H11A 2538   4.260   5.746   1.798
   20SAPS  H11B 2539   4.402   5.841   1.812
   20SAPS     P 2540   4.339   5.960   2.062
   20SAPS   O13 2541   4.355   6.057   1.953
   20SAPS   O14 2542   4.254   5.991   2.180
   20SAPS   O12 2543   4.293   5.817   1.996
   20SAPS   O11 2544   4.486   5.921   2.098
   20SAPS    C1 2545   4.504   5.821   2.198
   20SAPS    HA 2546   4.432   5.738   2.184
   20SAPS    HB 2547   4.606   5.777   2.194
   20SAPS    C2 2548   4.494   5.885   2.344
   20SAPS    HS 2549   4.414   5.960   2.360
   20SAPS   O21 2550   4.626   5.935   2.387
   20SAPS   C21 2551   4.640   6.066   2.369
   20SAPS   O22 2552   4.554   6.140   2.324
   20SAPS   C22 2553   4.775   6.115   2.413
   20SAPS   H2R 2554   4.829   6.023   2.443
   20SAPS   H2S 2555   4.831   6.144   2.322
   20SAPS    C3 2556   4.466   5.765   2.433
   20SAPS    HX 2557   4.473   5.805   2.536
   20SAPS    HY 2558   4.551   5.695   2.420
   20SAPS   O31 2559   4.348   5.694   2.413
   20SAPS   C31 2560   4.236   5.752   2.463
   20SAPS   O32 2561   4.233   5.853   2.531
   20SAPS   C32 2562   4.110   5.665   2.440
   20SAPS   H2X 2563   4.133   5.557   2.454
   20SAPS   H2Y 2564   4.076   5.675   2.335
   20SAPS   C23 2565   4.774   6.230   2.515
   20SAPS   H3R 2566   4.727   6.325   2.480
   20SAPS   H3S 2567   4.879   6.255   2.539
   20SAPS   C24 2568   4.711   6.179   2.646
   20SAPS   H4R 2569   4.766   6.095   2.695
   20SAPS   H4S 2570   4.608   6.143   2.625
   20SAPS   C25 2571   4.716   6.299   2.742
   20SAPS   H5R 2572   4.657   6.389   2.716
   20SAPS   C26 2573   4.770   6.300   2.864
   20SAPS   H6R 2574   4.762   6.395   2.918
   20SAPS   C27 2575   4.841   6.188   2.940
   20SAPS   H7R 2576   4.820   6.086   2.903
   20SAPS   H7S 2577   4.798   6.179   3.042
   20SAPS   C28 2578   4.988   6.211   2.923
   20SAPS   H8R 2579   5.031   6.219   2.823
   20SAPS   C29 2580   5.076   6.207   3.026
   20SAPS   H9R 2581   5.176   6.247   3.006
   20SAPS  C210 2582   5.045   6.197   3.176
   20SAPS  H10R 2583   5.137   6.160   3.224
   20SAPS  H10S 2584   4.961   6.125   3.189
   20SAPS  C211 2585   4.991   6.325   3.233
   20SAPS  H11R 2586   4.945   6.394   3.161
   20SAPS  C212 2587   4.990   6.339   3.368
   20SAPS  H12R 2588   4.938   6.423   3.417
   20SAPS  C213 2589   5.035   6.246   3.480
   20SAPS  H13R 2590   5.072   6.313   3.561
   20SAPS  H13S 2591   5.111   6.170   3.452
   20SAPS  C214 2592   4.925   6.154   3.533
   20SAPS  H14R 2593   4.841   6.148   3.462
   20SAPS  C215 2594   4.899   6.122   3.663
   20SAPS  H15R 2595   4.819   6.053   3.694
   20SAPS  C216 2596   4.999   6.136   3.774
   20SAPS  H16R 2597   5.098   6.168   3.735
   20SAPS  H16S 2598   5.014   6.038   3.823
   20SAPS  C217 2599   4.962   6.231   3.889
   20SAPS  H17R 2600   4.856   6.217   3.920
   20SAPS  H17S 2601   4.978   6.336   3.855
   20SAPS  C218 2602   5.029   6.195   4.024
   20SAPS  H18R 2603   5.139   6.204   4.011
   20SAPS  H18S 2604   5.003   6.089   4.046
   20SAPS  C219 2605   5.000   6.298   4.134
   20SAPS  H19R 2606   4.899   6.343   4.140
   20SAPS  H19S 2607   5.068   6.385   4.120
   20SAPS  C220 2608   5.040   6.244   4.276
   20SAPS  H20R 2609   4.970   6.159   4.290
   20SAPS  H20S 2610   5.024   6.317   4.358
   20SAPS  H20T 2611   5.142   6.201   4.273
   20SAPS   C33 2612   3.987   5.692   2.539
   20SAPS   H3X 2613   3.893   5.660   2.490
   20SAPS   H3Y 2614   3.987   5.798   2.573
   20SAPS   C34 2615   4.000   5.611   2.669
   20SAPS   H4X 2616   4.102   5.627   2.712
   20SAPS   H4Y 2617   3.992   5.500   2.665
   20SAPS   C35 2618   3.901   5.643   2.780
   20SAPS   H5X 2619   3.803   5.606   2.742
   20SAPS   H5Y 2620   3.894   5.753   2.792
   20SAPS   C36 2621   3.940   5.579   2.915
   20SAPS   H6X 2622   4.048   5.594   2.933
   20SAPS   H6Y 2623   3.909   5.472   2.914
   20SAPS   C37 2624   3.865   5.649   3.030
   20SAPS   H7X 2625   3.760   5.660   2.998
   20SAPS   H7Y 2626   3.913   5.746   3.054
   20SAPS   C38 2627   3.882   5.577   3.164
   20SAPS   H8X 2628   3.988   5.558   3.190
   20SAPS   H8Y 2629   3.836   5.477   3.148
   20SAPS   C39 2630   3.818   5.639   3.287
   20SAPS   H9X 2631   3.708   5.645   3.272
   20SAPS   H9Y 2632   3.853   5.740   3.318
   20SAPS  C310 2633   3.834   5.549   3.409
   20SAPS  H10X 2634   3.941   5.519   3.415
   20SAPS  H10Y 2635   3.780   5.453   3.392
   20SAPS  C311 2636   3.799   5.608   3.549
   20SAPS  H11X 2637   3.691   5.633   3.555
   20SAPS  H11Y 2638   3.858   5.702   3.554
   20SAPS  C312 2639   3.836   5.521   3.664
   20SAPS  H12X 2640   3.938   5.478   3.651
   20SAPS  H12Y 2641   3.767   5.434   3.665
   20SAPS  C313 2642   3.826   5.600   3.795
   20SAPS  H13X 2643   3.729   5.653   3.812
   20SAPS  H13Y 2644   3.894   5.685   3.814
   20SAPS  C314 2645   3.844   5.502   3.914
   20SAPS  H14X 2646   3.951   5.476   3.924
   20SAPS  H14Y 2647   3.792   5.404   3.909
   20SAPS  C315 2648   3.803   5.561   4.049
   20SAPS  H15X 2649   3.694   5.582   4.054
   20SAPS  H15Y 2650   3.858   5.656   4.068
   20SAPS  C316 2651   3.823   5.471   4.169
   20SAPS  H16X 2652   3.927   5.433   4.170
   20SAPS  H16Y 2653   3.759   5.381   4.157
   20SAPS  C317 2654   3.777   5.540   4.294
   20SAPS  H17X 2655   3.673   5.579   4.284
   20SAPS  H17Y 2656   3.826   5.639   4.308
   20SAPS  C318 2657   3.775   5.468   4.426
   20SAPS  H18X 2658   3.694   5.392   4.417
   20SAPS  H18Y 2659   3.750   5.529   4.516
   20SAPS  H18Z 2660   3.877   5.426   4.439
   21CHL1    C3 2661   1.510   3.882   6.129
   21CHL1    H3 2662   1.603   3.942   6.122
   21CHL1    O3 2663   1.479   3.858   6.270
   21CHL1   H3' 2664   1.394   3.814   6.274
   21CHL1    C4 2665   1.404   3.977   6.058
   21CHL1   H4A 2666   1.303   3.931   6.070
   21CHL1   H4B 2667   1.395   4.069   6.119
   21CHL1    C5 2668   1.435   4.000   5.912
   21CHL1    C6 2669   1.455   4.128   5.864
   21CHL1    H6 2670   1.449   4.211   5.937
   21CHL1    C7 2671   1.476   4.152   5.720
   21CHL1   H7A 2672   1.412   4.235   5.682
   21CHL1   H7B 2673   1.577   4.196   5.709
   21CHL1    C8 2674   1.465   4.023   5.625
   21CHL1    H8 2675   1.357   4.009   5.604
   21CHL1   C14 2676   1.530   4.058   5.493
   21CHL1   H14 2677   1.639   4.066   5.515
   21CHL1   C15 2678   1.502   4.188   5.413
   21CHL1  H15A 2679   1.393   4.203   5.399
   21CHL1  H15B 2680   1.545   4.280   5.458
   21CHL1   C16 2681   1.550   4.155   5.268
   21CHL1  H16A 2682   1.463   4.161   5.199
   21CHL1  H16B 2683   1.633   4.219   5.229
   21CHL1   C17 2684   1.594   4.006   5.270
   21CHL1   H17 2685   1.700   4.019   5.302
   21CHL1   C13 2686   1.528   3.939   5.395
   21CHL1   C18 2687   1.385   3.884   5.362
   21CHL1  H18A 2688   1.326   3.852   5.451
   21CHL1  H18B 2689   1.325   3.960   5.310
   21CHL1  H18C 2690   1.382   3.793   5.298
   21CHL1   C12 2691   1.603   3.823   5.457
   21CHL1  H12A 2692   1.610   3.743   5.380
   21CHL1  H12B 2693   1.709   3.850   5.477
   21CHL1   C11 2694   1.531   3.777   5.584
   21CHL1  H11A 2695   1.433   3.725   5.575
   21CHL1  H11B 2696   1.594   3.700   5.633
   21CHL1    C9 2697   1.523   3.898   5.688
   21CHL1    H9 2698   1.630   3.920   5.709
   21CHL1   C10 2699   1.462   3.872   5.830
   21CHL1   C19 2700   1.325   3.795   5.799
   21CHL1  H19A 2701   1.339   3.695   5.751
   21CHL1  H19B 2702   1.281   3.780   5.900
   21CHL1  H19C 2703   1.251   3.855   5.741
   21CHL1    C1 2704   1.563   3.778   5.907
   21CHL1   H1A 2705   1.571   3.683   5.852
   21CHL1   H1B 2706   1.663   3.828   5.901
   21CHL1    C2 2707   1.521   3.752   6.054
   21CHL1   H2A 2708   1.606   3.699   6.100
   21CHL1   H2B 2709   1.428   3.692   6.055
   21CHL1   C20 2710   1.595   3.926   5.137
   21CHL1   H20 2711   1.555   3.824   5.153
   21CHL1   C21 2712   1.746   3.915   5.112
   21CHL1  H21A 2713   1.759   3.864   5.014
   21CHL1  H21B 2714   1.789   3.854   5.194
   21CHL1  H21C 2715   1.798   4.013   5.111
   21CHL1   C22 2716   1.515   3.989   5.024
   21CHL1  H22A 2717   1.420   4.033   5.063
   21CHL1  H22B 2718   1.570   4.076   4.983
   21CHL1   C23 2719   1.483   3.889   4.909
   21CHL1  H23A 2720   1.570   3.829   4.874
   21CHL1  H23B 2721   1.402   3.823   4.946
   21CHL1   C24 2722   1.433   3.971   4.786
   21CHL1  H24A 2723   1.341   4.024   4.819
   21CHL1  H24B 2724   1.509   4.050   4.764
   21CHL1   C25 2725   1.409   3.886   4.660
   21CHL1   H25 2726   1.352   3.795   4.689
   21CHL1   C26 2727   1.337   3.959   4.546
   21CHL1  H26A 2728   1.392   4.053   4.525
   21CHL1  H26B 2729   1.341   3.894   4.456
   21CHL1  H26C 2730   1.234   3.987   4.577
   21CHL1   C27 2731   1.540   3.830   4.603
   21CHL1  H27A 2732   1.611   3.914   4.588
   21CHL1  H27B 2733   1.585   3.760   4.676
   21CHL1  H27C 2734   1.535   3.787   4.501
   22CHL1    C3 2735   2.098   2.066   6.094
   22CHL1    H3 2736   2.125   2.173   6.079
   22CHL1    O3 2737   2.126   2.030   6.228
   22CHL1   H3' 2738   2.143   1.935   6.220
   22CHL1    C4 2739   1.946   2.062   6.072
   22CHL1   H4A 2740   1.927   1.957   6.105
   22CHL1   H4B 2741   1.903   2.128   6.150
   22CHL1    C5 2742   1.919   2.085   5.923
   22CHL1    C6 2743   1.838   2.189   5.890
   22CHL1    H6 2744   1.780   2.243   5.967
   22CHL1    C7 2745   1.796   2.224   5.747
   22CHL1   H7A 2746   1.689   2.252   5.743
   22CHL1   H7B 2747   1.855   2.306   5.699
   22CHL1    C8 2748   1.823   2.103   5.651
   22CHL1    H8 2749   1.743   2.026   5.659
   22CHL1   C14 2750   1.809   2.148   5.500
   22CHL1   H14 2751   1.879   2.234   5.502
   22CHL1   C15 2752   1.680   2.200   5.457
   22CHL1  H15A 2753   1.608   2.116   5.467
   22CHL1  H15B 2754   1.637   2.288   5.508
   22CHL1   C16 2755   1.693   2.206   5.300
   22CHL1  H16A 2756   1.615   2.139   5.257
   22CHL1  H16B 2757   1.686   2.311   5.264
   22CHL1   C17 2758   1.828   2.143   5.268
   22CHL1   H17 2759   1.890   2.235   5.267
   22CHL1   C13 2760   1.855   2.054   5.390
   22CHL1   C18 2761   1.761   1.925   5.383
   22CHL1  H18A 2762   1.743   1.871   5.478
   22CHL1  H18B 2763   1.663   1.967   5.353
   22CHL1  H18C 2764   1.797   1.854   5.306
   22CHL1   C12 2765   1.996   2.004   5.425
   22CHL1  H12A 2766   2.036   1.934   5.347
   22CHL1  H12B 2767   2.062   2.093   5.416
   22CHL1   C11 2768   2.009   1.948   5.568
   22CHL1  H11A 2769   1.963   1.847   5.576
   22CHL1  H11B 2770   2.120   1.939   5.575
   22CHL1    C9 2771   1.965   2.051   5.673
   22CHL1    H9 2772   2.027   2.142   5.662
   22CHL1   C10 2773   1.991   1.997   5.824
   22CHL1   C19 2774   1.931   1.856   5.844
   22CHL1  H19A 2775   1.945   1.817   5.947
   22CHL1  H19B 2776   1.825   1.848   5.813
   22CHL1  H19C 2777   1.980   1.781   5.779
   22CHL1    C1 2778   2.147   1.998   5.854
   22CHL1   H1A 2779   2.195   1.922   5.789
   22CHL1   H1B 2780   2.192   2.096   5.827
   22CHL1    C2 2781   2.173   1.976   6.000
   22CHL1   H2A 2782   2.281   1.997   6.018
   22CHL1   H2B 2783   2.161   1.868   6.021
   22CHL1   C20 2784   1.835   2.076   5.125
   22CHL1   H20 2785   1.791   1.974   5.133
   22CHL1   C21 2786   1.981   2.064   5.084
   22CHL1  H21A 2787   2.048   2.008   5.153
   22CHL1  H21B 2788   2.019   2.168   5.071
   22CHL1  H21C 2789   1.976   2.001   4.993
   22CHL1   C22 2790   1.770   2.151   5.010
   22CHL1  H22A 2791   1.665   2.177   5.034
   22CHL1  H22B 2792   1.822   2.249   5.004
   22CHL1   C23 2793   1.780   2.081   4.871
   22CHL1  H23A 2794   1.885   2.076   4.836
   22CHL1  H23B 2795   1.736   1.982   4.896
   22CHL1   C24 2796   1.700   2.164   4.766
   22CHL1  H24A 2797   1.599   2.195   4.803
   22CHL1  H24B 2798   1.752   2.262   4.759
   22CHL1   C25 2799   1.692   2.100   4.630
   22CHL1   H25 2800   1.795   2.070   4.599
   22CHL1   C26 2801   1.602   1.985   4.641
   22CHL1  H26A 2802   1.635   1.912   4.719
   22CHL1  H26B 2803   1.502   2.022   4.672
   22CHL1  H26C 2804   1.593   1.928   4.547
   22CHL1   C27 2805   1.643   2.189   4.516
   22CHL1  H27A 2806   1.703   2.282   4.513
   22CHL1  H27B 2807   1.636   2.142   4.415
   22CHL1  H27C 2808   1.540   2.223   4.540
   23CHL1    C3 2809   0.791   3.848   6.182
   23CHL1    H3 2810   0.819   3.955   6.192
   23CHL1    O3 2811   0.745   3.818   6.317
   23CHL1   H3' 2812   0.652   3.835   6.301
   23CHL1    C4 2813   0.668   3.840   6.084
   23CHL1   H4A 2814   0.623   3.742   6.113
   23CHL1   H4B 2815   0.595   3.916   6.119
   23CHL1    C5 2816   0.692   3.839   5.933
   23CHL1    C6 2817   0.620   3.917   5.852
   23CHL1    H6 2818   0.540   3.977   5.896
   23CHL1    C7 2819   0.641   3.922   5.705
   23CHL1   H7A 2820   0.542   3.920   5.654
   23CHL1   H7B 2821   0.708   4.007   5.681
   23CHL1    C8 2822   0.731   3.799   5.658
   23CHL1    H8 2823   0.655   3.718   5.661
   23CHL1   C14 2824   0.783   3.822   5.522
   23CHL1   H14 2825   0.846   3.913   5.531
   23CHL1   C15 2826   0.686   3.866   5.413
   23CHL1  H15A 2827   0.596   3.801   5.417
   23CHL1  H15B 2828   0.661   3.974   5.425
   23CHL1   C16 2829   0.771   3.849   5.295
   23CHL1  H16A 2830   0.712   3.778   5.233
   23CHL1  H16B 2831   0.785   3.942   5.235
   23CHL1   C17 2832   0.910   3.790   5.325
   23CHL1   H17 2833   0.974   3.876   5.353
   23CHL1   C13 2834   0.879   3.720   5.459
   23CHL1   C18 2835   0.800   3.590   5.421
   23CHL1  H18A 2836   0.702   3.609   5.372
   23CHL1  H18B 2837   0.865   3.513   5.374
   23CHL1  H18C 2838   0.769   3.543   5.516
   23CHL1   C12 2839   0.992   3.696   5.561
   23CHL1  H12A 2840   1.059   3.614   5.527
   23CHL1  H12B 2841   1.057   3.784   5.580
   23CHL1   C11 2842   0.935   3.653   5.700
   23CHL1  H11A 2843   0.867   3.567   5.679
   23CHL1  H11B 2844   1.018   3.624   5.768
   23CHL1    C9 2845   0.846   3.765   5.759
   23CHL1    H9 2846   0.913   3.854   5.765
   23CHL1   C10 2847   0.803   3.734   5.899
   23CHL1   C19 2848   0.742   3.591   5.908
   23CHL1  H19A 2849   0.821   3.518   5.881
   23CHL1  H19B 2850   0.731   3.573   6.018
   23CHL1  H19C 2851   0.649   3.568   5.852
   23CHL1    C1 2852   0.929   3.760   5.991
   23CHL1   H1A 2853   1.002   3.679   5.971
   23CHL1   H1B 2854   0.962   3.864   5.971
   23CHL1    C2 2855   0.893   3.747   6.143
   23CHL1   H2A 2856   0.989   3.764   6.196
   23CHL1   H2B 2857   0.868   3.641   6.166
   23CHL1   C20 2858   0.967   3.708   5.203
   23CHL1   H20 2859   0.908   3.615   5.191
   23CHL1   C21 2860   1.117   3.669   5.239
   23CHL1  H21A 2861   1.158   3.603   5.159
   23CHL1  H21B 2862   1.122   3.609   5.332
   23CHL1  H21C 2863   1.160   3.772   5.241
   23CHL1   C22 2864   0.944   3.791   5.067
   23CHL1  H22A 2865   0.835   3.789   5.045
   23CHL1  H22B 2866   0.981   3.894   5.086
   23CHL1   C23 2867   1.022   3.724   4.950
   23CHL1  H23A 2868   1.129   3.737   4.976
   23CHL1  H23B 2869   0.997   3.616   4.960
   23CHL1   C24 2870   0.974   3.781   4.812
   23CHL1  H24A 2871   0.865   3.758   4.801
   23CHL1  H24B 2872   0.990   3.891   4.812
   23CHL1   C25 2873   1.054   3.724   4.692
   23CHL1   H25 2874   1.158   3.761   4.709
   23CHL1   C26 2875   1.057   3.568   4.679
   23CHL1  H26A 2876   0.960   3.523   4.649
   23CHL1  H26B 2877   1.136   3.546   4.604
   23CHL1  H26C 2878   1.095   3.532   4.777
   23CHL1   C27 2879   1.004   3.787   4.557
   23CHL1  H27A 2880   1.001   3.898   4.565
   23CHL1  H27B 2881   1.075   3.753   4.478
   23CHL1  H27C 2882   0.902   3.749   4.535
   24CHL1    C3 2883   3.465   4.471   5.840
   24CHL1    H3 2884   3.531   4.547   5.791
   24CHL1    O3 2885   3.489   4.463   5.982
   24CHL1   H3' 2886   3.464   4.372   5.997
   24CHL1    C4 2887   3.317   4.509   5.817
   24CHL1   H4A 2888   3.259   4.433   5.874
   24CHL1   H4B 2889   3.290   4.602   5.872
   24CHL1    C5 2890   3.281   4.523   5.669
   24CHL1    C6 2891   3.226   4.638   5.613
   24CHL1    H6 2892   3.207   4.725   5.676
   24CHL1    C7 2893   3.177   4.661   5.470
   24CHL1   H7A 2894   3.068   4.682   5.473
   24CHL1   H7B 2895   3.223   4.747   5.417
   24CHL1    C8 2896   3.183   4.526   5.388
   24CHL1    H8 2897   3.099   4.454   5.394
   24CHL1   C14 2898   3.188   4.556   5.241
   24CHL1   H14 2899   3.280   4.615   5.221
   24CHL1   C15 2900   3.072   4.638   5.178
   24CHL1  H15A 2901   2.983   4.591   5.225
   24CHL1  H15B 2902   3.072   4.746   5.204
   24CHL1   C16 2903   3.082   4.620   5.025
   24CHL1  H16A 2904   2.994   4.567   4.982
   24CHL1  H16B 2905   3.102   4.712   4.967
   24CHL1   C17 2906   3.200   4.511   5.009
   24CHL1   H17 2907   3.289   4.577   5.006
   24CHL1   C13 2908   3.210   4.437   5.150
   24CHL1   C18 2909   3.093   4.334   5.150
   24CHL1  H18A 2910   2.996   4.383   5.127
   24CHL1  H18B 2911   3.104   4.256   5.072
   24CHL1  H18C 2912   3.085   4.293   5.253
   24CHL1   C12 2913   3.339   4.366   5.180
   24CHL1  H12A 2914   3.336   4.270   5.123
   24CHL1  H12B 2915   3.419   4.434   5.142
   24CHL1   C11 2916   3.348   4.328   5.324
   24CHL1  H11A 2917   3.292   4.234   5.343
   24CHL1  H11B 2918   3.450   4.289   5.343
   24CHL1    C9 2919   3.311   4.446   5.426
   24CHL1    H9 2920   3.395   4.518   5.413
   24CHL1   C10 2921   3.319   4.402   5.580
   24CHL1   C19 2922   3.220   4.285   5.607
   24CHL1  H19A 2923   3.253   4.193   5.553
   24CHL1  H19B 2924   3.221   4.274   5.717
   24CHL1  H19C 2925   3.119   4.308   5.566
   24CHL1    C1 2926   3.455   4.349   5.618
   24CHL1   H1A 2927   3.476   4.257   5.558
   24CHL1   H1B 2928   3.537   4.416   5.586
   24CHL1    C2 2929   3.489   4.337   5.772
   24CHL1   H2A 2930   3.597   4.313   5.781
   24CHL1   H2B 2931   3.416   4.264   5.814
   24CHL1   C20 2932   3.195   4.436   4.878
   24CHL1   H20 2933   3.128   4.348   4.889
   24CHL1   C21 2934   3.335   4.371   4.856
   24CHL1  H21A 2935   3.353   4.325   4.756
   24CHL1  H21B 2936   3.355   4.278   4.914
   24CHL1  H21C 2937   3.417   4.443   4.877
   24CHL1   C22 2938   3.135   4.509   4.752
   24CHL1  H22A 2939   3.029   4.538   4.769
   24CHL1  H22B 2940   3.199   4.597   4.727
   24CHL1   C23 2941   3.132   4.421   4.621
   24CHL1  H23A 2942   3.241   4.410   4.599
   24CHL1  H23B 2943   3.073   4.331   4.649
   24CHL1   C24 2944   3.049   4.501   4.516
   24CHL1  H24A 2945   2.944   4.497   4.553
   24CHL1  H24B 2946   3.080   4.605   4.494
   24CHL1   C25 2947   3.053   4.457   4.367
   24CHL1   H25 2948   3.028   4.349   4.363
   24CHL1   C26 2949   2.952   4.541   4.286
   24CHL1  H26A 2950   2.934   4.489   4.190
   24CHL1  H26B 2951   2.856   4.528   4.342
   24CHL1  H26C 2952   2.982   4.645   4.259
   24CHL1   C27 2953   3.194   4.462   4.305
   24CHL1  H27A 2954   3.266   4.393   4.355
   24CHL1  H27B 2955   3.191   4.435   4.198
   24CHL1  H27C 2956   3.229   4.568   4.308
   25CHL1    C3 2957   6.121   5.920   6.063
   25CHL1    H3 2958   6.173   6.009   6.022
   25CHL1    O3 2959   6.157   5.910   6.200
   25CHL1   H3' 2960   6.104   5.833   6.223
   25CHL1    C4 2961   5.976   5.929   6.044
   25CHL1   H4A 2962   5.920   5.852   6.102
   25CHL1   H4B 2963   5.946   6.025   6.090
   25CHL1    C5 2964   5.936   5.913   5.904
   25CHL1    C6 2965   5.851   5.994   5.842
   25CHL1    H6 2966   5.805   6.077   5.897
   25CHL1    C7 2967   5.796   5.983   5.701
   25CHL1   H7A 2968   5.685   5.992   5.699
   25CHL1   H7B 2969   5.830   6.058   5.627
   25CHL1    C8 2970   5.844   5.850   5.627
   25CHL1    H8 2971   5.774   5.776   5.671
   25CHL1   C14 2972   5.841   5.874   5.477
   25CHL1   H14 2973   5.915   5.954   5.452
   25CHL1   C15 2974   5.711   5.922   5.415
   25CHL1  H15A 2975   5.617   5.871   5.445
   25CHL1  H15B 2976   5.704   6.031   5.437
   25CHL1   C16 2977   5.738   5.884   5.268
   25CHL1  H16A 2978   5.660   5.813   5.235
   25CHL1  H16B 2979   5.735   5.962   5.189
   25CHL1   C17 2980   5.874   5.806   5.256
   25CHL1   H17 2981   5.946   5.885   5.227
   25CHL1   C13 2982   5.899   5.757   5.399
   25CHL1   C18 2983   5.805   5.634   5.431
   25CHL1  H18A 2984   5.844   5.550   5.371
   25CHL1  H18B 2985   5.803   5.603   5.538
   25CHL1  H18C 2986   5.701   5.641   5.394
   25CHL1   C12 2987   6.045   5.728   5.441
   25CHL1  H12A 2988   6.099   5.643   5.396
   25CHL1  H12B 2989   6.100   5.824   5.425
   25CHL1   C11 2990   6.054   5.701   5.590
   25CHL1  H11A 2991   6.007   5.601   5.602
   25CHL1  H11B 2992   6.160   5.696   5.621
   25CHL1    C9 2993   5.982   5.816   5.672
   25CHL1    H9 2994   6.047   5.903   5.651
   25CHL1   C10 2995   6.000   5.795   5.821
   25CHL1   C19 2996   5.925   5.664   5.867
   25CHL1  H19A 2997   5.977   5.584   5.811
   25CHL1  H19B 2998   5.934   5.657   5.977
   25CHL1  H19C 2999   5.816   5.668   5.845
   25CHL1    C1 3000   6.149   5.779   5.857
   25CHL1   H1A 3001   6.179   5.676   5.826
   25CHL1   H1B 3002   6.208   5.856   5.803
   25CHL1    C2 3003   6.176   5.792   6.005
   25CHL1   H2A 3004   6.286   5.788   6.023
   25CHL1   H2B 3005   6.132   5.698   6.045
   25CHL1   C20 3006   5.873   5.702   5.142
   25CHL1   H20 3007   5.815   5.612   5.170
   25CHL1   C21 3008   6.023   5.668   5.113
   25CHL1  H21A 3009   6.047   5.660   5.005
   25CHL1  H21B 3010   6.056   5.578   5.168
   25CHL1  H21C 3011   6.087   5.752   5.149
   25CHL1   C22 3012   5.801   5.754   5.011
   25CHL1  H22A 3013   5.806   5.673   4.935
   25CHL1  H22B 3014   5.695   5.785   5.018
   25CHL1   C23 3015   5.870   5.881   4.953
   25CHL1  H23A 3016   5.869   5.969   5.021
   25CHL1  H23B 3017   5.976   5.857   4.933
   25CHL1   C24 3018   5.813   5.932   4.817
   25CHL1  H24A 3019   5.838   5.856   4.740
   25CHL1  H24B 3020   5.702   5.934   4.813
   25CHL1   C25 3021   5.862   6.071   4.765
   25CHL1   H25 3022   5.812   6.153   4.822
   25CHL1   C26 3023   6.009   6.090   4.784
   25CHL1  H26A 3024   6.040   6.122   4.885
   25CHL1  H26B 3025   6.060   5.997   4.750
   25CHL1  H26C 3026   6.049   6.175   4.724
   25CHL1   C27 3027   5.818   6.102   4.626
   25CHL1  H27A 3028   5.853   6.015   4.566
   25CHL1  H27B 3029   5.708   6.109   4.612
   25CHL1  H27C 3030   5.873   6.188   4.583
   26CHL1    C3 3031   4.207   3.099   6.004
   26CHL1    H3 3032   4.212   3.209   5.988
   26CHL1    O3 3033   4.232   3.072   6.145
   26CHL1   H3' 3034   4.308   3.127   6.163
   26CHL1    C4 3035   4.071   3.040   5.966
   26CHL1   H4A 3036   4.057   2.938   6.008
   26CHL1   H4B 3037   3.992   3.095   6.022
   26CHL1    C5 3038   4.043   3.052   5.817
   26CHL1    C6 3039   3.929   3.114   5.765
   26CHL1    H6 3040   3.862   3.153   5.843
   26CHL1    C7 3041   3.892   3.114   5.623
   26CHL1   H7A 3042   3.782   3.096   5.621
   26CHL1   H7B 3043   3.913   3.220   5.599
   26CHL1    C8 3044   3.981   3.022   5.534
   26CHL1    H8 3045   3.951   2.918   5.558
   26CHL1   C14 3046   3.965   3.050   5.387
   26CHL1   H14 3047   4.008   3.152   5.378
   26CHL1   C15 3048   3.826   3.065   5.317
   26CHL1  H15A 3049   3.757   2.986   5.354
   26CHL1  H15B 3050   3.796   3.171   5.325
   26CHL1   C16 3051   3.855   3.028   5.168
   26CHL1  H16A 3052   3.784   2.947   5.140
   26CHL1  H16B 3053   3.848   3.117   5.102
   26CHL1   C17 3054   4.008   2.996   5.157
   26CHL1   H17 3055   4.055   3.094   5.137
   26CHL1   C13 3056   4.055   2.958   5.297
   26CHL1   C18 3057   4.023   2.811   5.327
   26CHL1  H18A 3058   3.918   2.794   5.295
   26CHL1  H18B 3059   4.096   2.747   5.273
   26CHL1  H18C 3060   4.030   2.784   5.434
   26CHL1   C12 3061   4.198   2.994   5.329
   26CHL1  H12A 3062   4.261   2.938   5.257
   26CHL1  H12B 3063   4.205   3.103   5.308
   26CHL1   C11 3064   4.227   2.969   5.477
   26CHL1  H11A 3065   4.231   2.859   5.492
   26CHL1  H11B 3066   4.332   2.996   5.501
   26CHL1    C9 3067   4.128   3.036   5.578
   26CHL1    H9 3068   4.147   3.145   5.586
   26CHL1   C10 3069   4.152   2.989   5.727
   26CHL1   C19 3070   4.140   2.840   5.747
   26CHL1  H19A 3071   4.161   2.800   5.848
   26CHL1  H19B 3072   4.034   2.815   5.727
   26CHL1  H19C 3073   4.194   2.779   5.671
   26CHL1    C1 3074   4.296   3.032   5.766
   26CHL1   H1A 3075   4.371   2.965   5.718
   26CHL1   H1B 3076   4.315   3.137   5.735
   26CHL1    C2 3077   4.320   3.028   5.918
   26CHL1   H2A 3078   4.423   3.068   5.928
   26CHL1   H2B 3079   4.319   2.922   5.953
   26CHL1   C20 3080   4.030   2.898   5.035
   26CHL1   H20 3081   4.005   2.800   5.080
   26CHL1   C21 3082   4.178   2.886   4.995
   26CHL1  H21A 3083   4.231   2.814   5.060
   26CHL1  H21B 3084   4.217   2.986   5.023
   26CHL1  H21C 3085   4.187   2.865   4.886
   26CHL1   C22 3086   3.943   2.917   4.911
   26CHL1  H22A 3087   3.839   2.949   4.929
   26CHL1  H22B 3088   3.973   2.997   4.840
   26CHL1   C23 3089   3.936   2.783   4.829
   26CHL1  H23A 3090   4.026   2.753   4.772
   26CHL1  H23B 3091   3.900   2.703   4.897
   26CHL1   C24 3092   3.829   2.790   4.718
   26CHL1  H24A 3093   3.728   2.816   4.757
   26CHL1  H24B 3094   3.852   2.877   4.652
   26CHL1   C25 3095   3.821   2.669   4.620
   26CHL1   H25 3096   3.817   2.581   4.689
   26CHL1   C26 3097   3.699   2.675   4.535
   26CHL1  H26A 3098   3.684   2.593   4.462
   26CHL1  H26B 3099   3.616   2.685   4.608
   26CHL1  H26C 3100   3.703   2.771   4.479
   26CHL1   C27 3101   3.952   2.665   4.540
   26CHL1  H27A 3102   4.040   2.698   4.599
   26CHL1  H27B 3103   3.980   2.568   4.494
   26CHL1  H27C 3104   3.950   2.740   4.459
   27CHL1    C3 3105   0.366   2.421   6.204
   27CHL1    H3 3106   0.270   2.376   6.172
   27CHL1    O3 3107   0.388   2.395   6.345
   27CHL1   H3' 3108   0.311   2.435   6.386
   27CHL1    C4 3109   0.489   2.354   6.126
   27CHL1   H4A 3110   0.578   2.385   6.185
   27CHL1   H4B 3111   0.485   2.243   6.130
   27CHL1    C5 3112   0.488   2.393   5.974
   27CHL1    C6 3113   0.491   2.294   5.884
   27CHL1    H6 3114   0.506   2.190   5.917
   27CHL1    C7 3115   0.472   2.316   5.736
   27CHL1   H7A 3116   0.538   2.241   5.687
   27CHL1   H7B 3117   0.368   2.303   5.701
   27CHL1    C8 3118   0.511   2.462   5.700
   27CHL1    H8 3119   0.620   2.476   5.713
   27CHL1   C14 3120   0.489   2.500   5.559
   27CHL1   H14 3121   0.382   2.488   5.533
   27CHL1   C15 3122   0.553   2.408   5.454
   27CHL1  H15A 3123   0.659   2.384   5.474
   27CHL1  H15B 3124   0.497   2.313   5.440
   27CHL1   C16 3125   0.540   2.487   5.319
   27CHL1  H16A 3126   0.638   2.505   5.269
   27CHL1  H16B 3127   0.471   2.432   5.251
   27CHL1   C17 3128   0.480   2.624   5.358
   27CHL1   H17 3129   0.372   2.600   5.352
   27CHL1   C13 3130   0.508   2.645   5.511
   27CHL1   C18 3131   0.663   2.677   5.531
   27CHL1  H18A 3132   0.678   2.775   5.481
   27CHL1  H18B 3133   0.685   2.677   5.640
   27CHL1  H18C 3134   0.722   2.598   5.480
   27CHL1   C12 3135   0.423   2.732   5.599
   27CHL1  H12A 3136   0.439   2.837   5.566
   27CHL1  H12B 3137   0.317   2.714   5.571
   27CHL1   C11 3138   0.448   2.716   5.747
   27CHL1  H11A 3139   0.550   2.750   5.773
   27CHL1  H11B 3140   0.378   2.781   5.804
   27CHL1    C9 3141   0.441   2.568   5.797
   27CHL1    H9 3142   0.336   2.537   5.777
   27CHL1   C10 3143   0.468   2.546   5.953
   27CHL1   C19 3144   0.607   2.612   5.978
   27CHL1  H19A 3145   0.688   2.570   5.914
   27CHL1  H19B 3146   0.588   2.721   5.976
   27CHL1  H19C 3147   0.639   2.597   6.083
   27CHL1    C1 3148   0.362   2.614   6.038
   27CHL1   H1A 3149   0.383   2.723   6.030
   27CHL1   H1B 3150   0.262   2.602   5.991
   27CHL1    C2 3151   0.352   2.577   6.187
   27CHL1   H2A 3152   0.269   2.622   6.244
   27CHL1   H2B 3153   0.441   2.624   6.235
   27CHL1   C20 3154   0.520   2.726   5.254
   27CHL1   H20 3155   0.630   2.736   5.260
   27CHL1   C21 3156   0.461   2.872   5.274
   27CHL1  H21A 3157   0.458   2.913   5.377
   27CHL1  H21B 3158   0.356   2.874   5.237
   27CHL1  H21C 3159   0.508   2.946   5.205
   27CHL1   C22 3160   0.495   2.684   5.109
   27CHL1  H22A 3161   0.546   2.588   5.084
   27CHL1  H22B 3162   0.387   2.656   5.111
   27CHL1   C23 3163   0.525   2.782   4.991
   27CHL1  H23A 3164   0.479   2.731   4.903
   27CHL1  H23B 3165   0.468   2.877   4.998
   27CHL1   C24 3166   0.670   2.814   4.973
   27CHL1  H24A 3167   0.706   2.872   5.061
   27CHL1  H24B 3168   0.726   2.719   4.976
   27CHL1   C25 3169   0.699   2.891   4.840
   27CHL1   H25 3170   0.641   2.849   4.756
   27CHL1   C26 3171   0.669   3.045   4.852
   27CHL1  H26A 3172   0.753   3.095   4.905
   27CHL1  H26B 3173   0.673   3.096   4.753
   27CHL1  H26C 3174   0.577   3.059   4.913
   27CHL1   C27 3175   0.849   2.879   4.809
   27CHL1  H27A 3176   0.896   2.916   4.903
   27CHL1  H27B 3177   0.879   2.945   4.725
   27CHL1  H27C 3178   0.874   2.772   4.792
   28CHL1    C3 3179   5.197   1.942   6.148
   28CHL1    H3 3180   5.296   1.893   6.158
   28CHL1    O3 3181   5.139   1.968   6.273
   28CHL1   H3' 3182   5.136   2.064   6.279
   28CHL1    C4 3183   5.203   2.072   6.073
   28CHL1   H4A 3184   5.093   2.090   6.066
   28CHL1   H4B 3185   5.247   2.161   6.123
   28CHL1    C5 3186   5.262   2.058   5.930
   28CHL1    C6 3187   5.374   2.113   5.883
   28CHL1    H6 3188   5.421   2.192   5.943
   28CHL1    C7 3189   5.415   2.111   5.738
   28CHL1   H7A 3190   5.459   2.205   5.699
   28CHL1   H7B 3191   5.488   2.028   5.726
   28CHL1    C8 3192   5.302   2.066   5.641
   28CHL1    H8 3193   5.238   2.157   5.633
   28CHL1   C14 3194   5.359   2.033   5.508
   28CHL1   H14 3195   5.435   1.953   5.514
   28CHL1   C15 3196   5.426   2.148   5.429
   28CHL1  H15A 3197   5.371   2.245   5.422
   28CHL1  H15B 3198   5.527   2.174   5.468
   28CHL1   C16 3199   5.438   2.082   5.290
   28CHL1  H16A 3200   5.385   2.147   5.218
   28CHL1  H16B 3201   5.542   2.070   5.252
   28CHL1   C17 3202   5.362   1.945   5.289
   28CHL1   H17 3203   5.436   1.868   5.319
   28CHL1   C13 3204   5.264   1.958   5.411
   28CHL1   C18 3205   5.139   2.041   5.378
   28CHL1  H18A 3206   5.082   2.076   5.467
   28CHL1  H18B 3207   5.169   2.130   5.318
   28CHL1  H18C 3208   5.076   1.979   5.311
   28CHL1   C12 3209   5.222   1.822   5.479
   28CHL1  H12A 3210   5.154   1.768   5.409
   28CHL1  H12B 3211   5.310   1.757   5.499
   28CHL1   C11 3212   5.156   1.848   5.611
   28CHL1  H11A 3213   5.052   1.883   5.598
   28CHL1  H11B 3214   5.168   1.752   5.667
   28CHL1    C9 3215   5.241   1.931   5.711
   28CHL1    H9 3216   5.330   1.866   5.727
   28CHL1   C10 3217   5.171   1.954   5.847
   28CHL1   C19 3218   5.028   2.014   5.813
   28CHL1  H19A 3219   4.962   1.929   5.785
   28CHL1  H19B 3220   4.987   2.050   5.910
   28CHL1  H19C 3221   5.031   2.097   5.739
   28CHL1    C1 3222   5.162   1.818   5.928
   28CHL1   H1A 3223   5.080   1.761   5.879
   28CHL1   H1B 3224   5.266   1.780   5.927
   28CHL1    C2 3225   5.108   1.837   6.074
   28CHL1   H2A 3226   5.117   1.742   6.132
   28CHL1   H2B 3227   5.002   1.868   6.075
   28CHL1   C20 3228   5.310   1.899   5.152
   28CHL1   H20 3229   5.210   1.947   5.141
   28CHL1   C21 3230   5.284   1.749   5.147
   28CHL1  H21A 3231   5.384   1.703   5.157
   28CHL1  H21B 3232   5.244   1.716   5.049
   28CHL1  H21C 3233   5.212   1.720   5.227
   28CHL1   C22 3234   5.403   1.941   5.037
   28CHL1  H22A 3235   5.419   2.051   5.028
   28CHL1  H22B 3236   5.497   1.884   5.050
   28CHL1   C23 3237   5.360   1.894   4.902
   28CHL1  H23A 3238   5.434   1.935   4.829
   28CHL1  H23B 3239   5.375   1.785   4.890
   28CHL1   C24 3240   5.214   1.920   4.856
   28CHL1  H24A 3241   5.141   1.891   4.934
   28CHL1  H24B 3242   5.199   2.030   4.863
   28CHL1   C25 3243   5.184   1.853   4.719
   28CHL1   H25 3244   5.221   1.748   4.729
   28CHL1   C26 3245   5.032   1.853   4.683
   28CHL1  H26A 3246   4.983   1.953   4.688
   28CHL1  H26B 3247   5.024   1.811   4.581
   28CHL1  H26C 3248   4.973   1.792   4.755
   28CHL1   C27 3249   5.266   1.916   4.605
   28CHL1  H27A 3250   5.249   1.852   4.516
   28CHL1  H27B 3251   5.243   2.022   4.584
   28CHL1  H27C 3252   5.374   1.900   4.626
   29CHL1    C3 3253   2.362   3.827   6.083
   29CHL1    H3 3254   2.301   3.917   6.061
   29CHL1    O3 3255   2.367   3.799   6.224
   29CHL1   H3' 3256   2.418   3.717   6.223
   29CHL1    C4 3257   2.291   3.719   6.003
   29CHL1   H4A 3258   2.335   3.621   6.032
   29CHL1   H4B 3259   2.186   3.729   6.038
   29CHL1    C5 3260   2.313   3.730   5.851
   29CHL1    C6 3261   2.204   3.742   5.776
   29CHL1    H6 3262   2.104   3.755   5.820
   29CHL1    C7 3263   2.206   3.753   5.624
   29CHL1   H7A 3264   2.128   3.687   5.583
   29CHL1   H7B 3265   2.185   3.857   5.590
   29CHL1    C8 3266   2.342   3.722   5.562
   29CHL1    H8 3267   2.334   3.611   5.554
   29CHL1   C14 3268   2.359   3.779   5.417
   29CHL1   H14 3269   2.374   3.888   5.433
   29CHL1   C15 3270   2.242   3.763   5.330
   29CHL1  H15A 3271   2.198   3.661   5.331
   29CHL1  H15B 3272   2.156   3.829   5.353
   29CHL1   C16 3273   2.296   3.785   5.188
   29CHL1  H16A 3274   2.281   3.696   5.123
   29CHL1  H16B 3275   2.254   3.871   5.132
   29CHL1   C17 3276   2.450   3.797   5.201
   29CHL1   H17 3277   2.474   3.904   5.213
   29CHL1   C13 3278   2.479   3.728   5.337
   29CHL1   C18 3279   2.470   3.570   5.331
   29CHL1  H18A 3280   2.477   3.518   5.429
   29CHL1  H18B 3281   2.380   3.532   5.278
   29CHL1  H18C 3282   2.559   3.531   5.277
   29CHL1   C12 3283   2.605   3.777   5.422
   29CHL1  H12A 3284   2.707   3.753   5.385
   29CHL1  H12B 3285   2.596   3.887   5.429
   29CHL1   C11 3286   2.598   3.738   5.573
   29CHL1  H11A 3287   2.596   3.627   5.576
   29CHL1  H11B 3288   2.681   3.772   5.638
   29CHL1    C9 3289   2.462   3.769   5.649
   29CHL1    H9 3290   2.462   3.880   5.644
   29CHL1   C10 3291   2.463   3.736   5.800
   29CHL1   C19 3292   2.537   3.602   5.825
   29CHL1  H19A 3293   2.639   3.594   5.781
   29CHL1  H19B 3294   2.543   3.584   5.935
   29CHL1  H19C 3295   2.472   3.521   5.786
   29CHL1    C1 3296   2.534   3.848   5.878
   29CHL1   H1A 3297   2.644   3.849   5.863
   29CHL1   H1B 3298   2.481   3.943   5.855
   29CHL1    C2 3299   2.508   3.858   6.033
   29CHL1   H2A 3300   2.552   3.950   6.076
   29CHL1   H2B 3301   2.572   3.775   6.071
   29CHL1   C20 3302   2.530   3.750   5.086
   29CHL1   H20 3303   2.510   3.642   5.070
   29CHL1   C21 3304   2.688   3.766   5.107
   29CHL1  H21A 3305   2.745   3.733   5.018
   29CHL1  H21B 3306   2.718   3.702   5.192
   29CHL1  H21C 3307   2.704   3.875   5.126
   29CHL1   C22 3308   2.494   3.836   4.958
   29CHL1  H22A 3309   2.384   3.836   4.943
   29CHL1  H22B 3310   2.518   3.941   4.983
   29CHL1   C23 3311   2.581   3.803   4.831
   29CHL1  H23A 3312   2.685   3.839   4.846
   29CHL1  H23B 3313   2.592   3.693   4.817
   29CHL1   C24 3314   2.534   3.881   4.713
   29CHL1  H24A 3315   2.434   3.837   4.691
   29CHL1  H24B 3316   2.522   3.987   4.743
   29CHL1   C25 3317   2.635   3.883   4.608
   29CHL1   H25 3318   2.722   3.943   4.641
   29CHL1   C26 3319   2.684   3.745   4.563
   29CHL1  H26A 3320   2.707   3.674   4.645
   29CHL1  H26B 3321   2.598   3.696   4.512
   29CHL1  H26C 3322   2.770   3.756   4.492
   29CHL1   C27 3323   2.585   3.951   4.476
   29CHL1  H27A 3324   2.528   4.044   4.497
   29CHL1  H27B 3325   2.673   3.976   4.414
   29CHL1  H27C 3326   2.510   3.887   4.424
   30CHL1    C3 3327   2.966   3.474   5.871
   30CHL1    H3 3328   2.927   3.575   5.845
   30CHL1    O3 3329   2.959   3.464   6.011
   30CHL1   H3' 3330   2.959   3.370   6.026
   30CHL1    C4 3331   2.896   3.358   5.790
   30CHL1   H4A 3332   2.939   3.261   5.822
   30CHL1   H4B 3333   2.789   3.349   5.819
   30CHL1    C5 3334   2.915   3.390   5.644
   30CHL1    C6 3335   2.810   3.396   5.570
   30CHL1    H6 3336   2.711   3.376   5.613
   30CHL1    C7 3337   2.821   3.420   5.421
   30CHL1   H7A 3338   2.765   3.351   5.354
   30CHL1   H7B 3339   2.790   3.524   5.396
   30CHL1    C8 3340   2.962   3.395   5.364
   30CHL1    H8 3341   2.973   3.285   5.354
   30CHL1   C14 3342   2.972   3.450   5.217
   30CHL1   H14 3343   2.968   3.561   5.224
   30CHL1   C15 3344   2.859   3.426   5.120
   30CHL1  H15A 3345   2.839   3.316   5.115
   30CHL1  H15B 3346   2.764   3.475   5.150
   30CHL1   C16 3347   2.915   3.473   4.989
   30CHL1  H16A 3348   2.881   3.408   4.905
   30CHL1  H16B 3349   2.867   3.569   4.959
   30CHL1   C17 3350   3.067   3.497   5.015
   30CHL1   H17 3351   3.075   3.605   5.038
   30CHL1   C13 3352   3.099   3.425   5.147
   30CHL1   C18 3353   3.115   3.273   5.119
   30CHL1  H18A 3354   3.037   3.230   5.054
   30CHL1  H18B 3355   3.220   3.260   5.085
   30CHL1  H18C 3356   3.113   3.220   5.217
   30CHL1   C12 3357   3.220   3.479   5.236
   30CHL1  H12A 3358   3.319   3.452   5.195
   30CHL1  H12B 3359   3.207   3.589   5.229
   30CHL1   C11 3360   3.212   3.440   5.382
   30CHL1  H11A 3361   3.238   3.333   5.396
   30CHL1  H11B 3362   3.290   3.502   5.431
   30CHL1    C9 3363   3.067   3.453   5.453
   30CHL1    H9 3364   3.049   3.561   5.474
   30CHL1   C10 3365   3.061   3.398   5.595
   30CHL1   C19 3366   3.125   3.253   5.603
   30CHL1  H19A 3367   3.234   3.254   5.583
   30CHL1  H19B 3368   3.106   3.214   5.705
   30CHL1  H19C 3369   3.078   3.191   5.524
   30CHL1    C1 3370   3.144   3.492   5.690
   30CHL1   H1A 3371   3.252   3.473   5.670
   30CHL1   H1B 3372   3.110   3.593   5.657
   30CHL1    C2 3373   3.116   3.464   5.838
   30CHL1   H2A 3374   3.175   3.532   5.902
   30CHL1   H2B 3375   3.137   3.356   5.855
   30CHL1   C20 3376   3.148   3.469   4.891
   30CHL1   H20 3377   3.130   3.361   4.873
   30CHL1   C21 3378   3.298   3.498   4.904
   30CHL1  H21A 3379   3.334   3.437   4.989
   30CHL1  H21B 3380   3.312   3.604   4.935
   30CHL1  H21C 3381   3.374   3.483   4.824
   30CHL1   C22 3382   3.093   3.551   4.765
   30CHL1  H22A 3383   2.982   3.555   4.762
   30CHL1  H22B 3384   3.128   3.656   4.772
   30CHL1   C23 3385   3.136   3.491   4.634
   30CHL1  H23A 3386   3.247   3.489   4.634
   30CHL1  H23B 3387   3.114   3.382   4.638
   30CHL1   C24 3388   3.088   3.552   4.494
   30CHL1  H24A 3389   2.980   3.526   4.490
   30CHL1  H24B 3390   3.096   3.662   4.490
   30CHL1   C25 3391   3.147   3.498   4.369
   30CHL1   H25 3392   3.256   3.516   4.368
   30CHL1   C26 3393   3.121   3.345   4.364
   30CHL1  H26A 3394   3.178   3.297   4.447
   30CHL1  H26B 3395   3.012   3.332   4.381
   30CHL1  H26C 3396   3.156   3.302   4.269
   30CHL1   C27 3397   3.074   3.563   4.247
   30CHL1  H27A 3398   3.093   3.672   4.241
   30CHL1  H27B 3399   3.115   3.511   4.158
   30CHL1  H27C 3400   2.967   3.539   4.265
   31CHL1    C3 3401   1.846   4.229   6.129
   31CHL1    H3 3402   1.902   4.325   6.137
   31CHL1    O3 3403   1.782   4.214   6.254
   31CHL1   H3' 3404   1.856   4.185   6.308
   31CHL1    C4 3405   1.743   4.237   6.018
   31CHL1   H4A 3406   1.678   4.147   6.018
   31CHL1   H4B 3407   1.677   4.325   6.037
   31CHL1    C5 3408   1.805   4.262   5.886
   31CHL1    C6 3409   1.764   4.370   5.812
   31CHL1    H6 3410   1.682   4.429   5.855
   31CHL1    C7 3411   1.815   4.407   5.673
   31CHL1   H7A 3412   1.734   4.428   5.600
   31CHL1   H7B 3413   1.878   4.497   5.684
   31CHL1    C8 3414   1.899   4.291   5.614
   31CHL1    H8 3415   1.824   4.210   5.599
   31CHL1   C14 3416   1.974   4.331   5.487
   31CHL1   H14 3417   2.047   4.407   5.522
   31CHL1   C15 3418   1.901   4.415   5.380
   31CHL1  H15A 3419   1.809   4.360   5.350
   31CHL1  H15B 3420   1.867   4.517   5.411
   31CHL1   C16 3421   2.004   4.398   5.264
   31CHL1  H16A 3422   1.954   4.338   5.185
   31CHL1  H16B 3423   2.037   4.497   5.225
   31CHL1   C17 3424   2.123   4.307   5.310
   31CHL1   H17 3425   2.191   4.377   5.362
   31CHL1   C13 3426   2.057   4.229   5.424
   31CHL1   C18 3427   1.963   4.116   5.376
   31CHL1  H18A 3428   1.888   4.081   5.450
   31CHL1  H18B 3429   1.901   4.142   5.287
   31CHL1  H18C 3430   2.034   4.035   5.351
   31CHL1   C12 3431   2.159   4.175   5.531
   31CHL1  H12A 3432   2.223   4.091   5.497
   31CHL1  H12B 3433   2.229   4.254   5.566
   31CHL1   C11 3434   2.086   4.126   5.655
   31CHL1  H11A 3435   2.016   4.043   5.631
   31CHL1  H11B 3436   2.163   4.092   5.728
   31CHL1    C9 3437   1.990   4.229   5.724
   31CHL1    H9 3438   2.056   4.313   5.755
   31CHL1   C10 3439   1.919   4.169   5.848
   31CHL1   C19 3440   1.859   4.034   5.807
   31CHL1  H19A 3441   1.935   3.956   5.790
   31CHL1  H19B 3442   1.799   3.998   5.894
   31CHL1  H19C 3443   1.786   4.036   5.723
   31CHL1    C1 3444   2.016   4.135   5.966
   31CHL1   H1A 3445   2.080   4.048   5.939
   31CHL1   H1B 3446   2.086   4.219   5.985
   31CHL1    C2 3447   1.947   4.119   6.098
   31CHL1   H2A 3448   2.022   4.113   6.180
   31CHL1   H2B 3449   1.894   4.021   6.093
   31CHL1   C20 3450   2.185   4.234   5.187
   31CHL1   H20 3451   2.105   4.170   5.144
   31CHL1   C21 3452   2.308   4.154   5.217
   31CHL1  H21A 3453   2.394   4.216   5.250
   31CHL1  H21B 3454   2.348   4.106   5.125
   31CHL1  H21C 3455   2.295   4.068   5.287
   31CHL1   C22 3456   2.213   4.339   5.080
   31CHL1  H22A 3457   2.124   4.402   5.058
   31CHL1  H22B 3458   2.289   4.405   5.127
   31CHL1   C23 3459   2.250   4.293   4.934
   31CHL1  H23A 3460   2.341   4.230   4.939
   31CHL1  H23B 3461   2.169   4.222   4.907
   31CHL1   C24 3462   2.267   4.411   4.841
   31CHL1  H24A 3463   2.186   4.486   4.843
   31CHL1  H24B 3464   2.355   4.467   4.882
   31CHL1   C25 3465   2.276   4.383   4.687
   31CHL1   H25 3466   2.177   4.333   4.673
   31CHL1   C26 3467   2.287   4.523   4.617
   31CHL1  H26A 3468   2.191   4.574   4.641
   31CHL1  H26B 3469   2.372   4.579   4.662
   31CHL1  H26C 3470   2.294   4.498   4.510
   31CHL1   C27 3471   2.401   4.300   4.656
   31CHL1  H27A 3472   2.428   4.230   4.737
   31CHL1  H27B 3473   2.380   4.242   4.564
   31CHL1  H27C 3474   2.487   4.368   4.636
   32CHL1    C3 3475   2.458   2.543   6.243
   32CHL1    H3 3476   2.565   2.536   6.213
   32CHL1    O3 3477   2.461   2.569   6.386
   32CHL1   H3' 3478   2.527   2.636   6.405
   32CHL1    C4 3479   2.386   2.657   6.156
   32CHL1   H4A 3480   2.286   2.679   6.197
   32CHL1   H4B 3481   2.443   2.751   6.171
   32CHL1    C5 3482   2.396   2.618   6.007
   32CHL1    C6 3483   2.459   2.699   5.922
   32CHL1    H6 3484   2.506   2.793   5.955
   32CHL1    C7 3485   2.469   2.678   5.774
   32CHL1   H7A 3486   2.437   2.774   5.729
   32CHL1   H7B 3487   2.575   2.661   5.747
   32CHL1    C8 3488   2.376   2.562   5.730
   32CHL1    H8 3489   2.270   2.593   5.712
   32CHL1   C14 3490   2.423   2.504   5.595
   32CHL1   H14 3491   2.524   2.462   5.615
   32CHL1   C15 3492   2.434   2.610   5.485
   32CHL1  H15A 3493   2.353   2.685   5.493
   32CHL1  H15B 3494   2.528   2.657   5.521
   32CHL1   C16 3495   2.445   2.534   5.359
   32CHL1  H16A 3496   2.372   2.568   5.282
   32CHL1  H16B 3497   2.549   2.539   5.320
   32CHL1   C17 3498   2.420   2.384   5.402
   32CHL1   H17 3499   2.519   2.338   5.422
   32CHL1   C13 3500   2.344   2.383   5.537
   32CHL1   C18 3501   2.198   2.421   5.517
   32CHL1  H18A 3502   2.201   2.487   5.427
   32CHL1  H18B 3503   2.137   2.336   5.481
   32CHL1  H18C 3504   2.143   2.458   5.606
   32CHL1   C12 3505   2.362   2.264   5.636
   32CHL1  H12A 3506   2.302   2.175   5.607
   32CHL1  H12B 3507   2.470   2.239   5.644
   32CHL1   C11 3508   2.325   2.307   5.784
   32CHL1  H11A 3509   2.214   2.312   5.772
   32CHL1  H11B 3510   2.357   2.228   5.855
   32CHL1    C9 3511   2.390   2.443   5.828
   32CHL1    H9 3512   2.498   2.418   5.838
   32CHL1   C10 3513   2.345   2.484   5.970
   32CHL1   C19 3514   2.193   2.489   5.967
   32CHL1  H19A 3515   2.138   2.393   5.958
   32CHL1  H19B 3516   2.150   2.534   6.060
   32CHL1  H19C 3517   2.166   2.551   5.879
   32CHL1    C1 3518   2.403   2.380   6.077
   32CHL1   H1A 3519   2.367   2.278   6.051
   32CHL1   H1B 3520   2.513   2.374   6.061
   32CHL1    C2 3521   2.384   2.409   6.224
   32CHL1   H2A 3522   2.428   2.334   6.292
   32CHL1   H2B 3523   2.276   2.422   6.246
   32CHL1   C20 3524   2.359   2.304   5.288
   32CHL1   H20 3525   2.268   2.359   5.255
   32CHL1   C21 3526   2.329   2.157   5.314
   32CHL1  H21A 3527   2.423   2.101   5.334
   32CHL1  H21B 3528   2.267   2.111   5.234
   32CHL1  H21C 3529   2.263   2.145   5.403
   32CHL1   C22 3530   2.441   2.311   5.157
   32CHL1  H22A 3531   2.459   2.416   5.127
   32CHL1  H22B 3532   2.541   2.278   5.193
   32CHL1   C23 3533   2.385   2.225   5.042
   32CHL1  H23A 3534   2.392   2.117   5.065
   32CHL1  H23B 3535   2.277   2.251   5.040
   32CHL1   C24 3536   2.448   2.255   4.909
   32CHL1  H24A 3537   2.473   2.363   4.906
   32CHL1  H24B 3538   2.548   2.207   4.913
   32CHL1   C25 3539   2.355   2.223   4.790
   32CHL1   H25 3540   2.269   2.293   4.793
   32CHL1   C26 3541   2.424   2.252   4.654
   32CHL1  H26A 3542   2.367   2.244   4.559
   32CHL1  H26B 3543   2.469   2.353   4.653
   32CHL1  H26C 3544   2.508   2.180   4.645
   32CHL1   C27 3545   2.303   2.077   4.804
   32CHL1  H27A 3546   2.234   2.053   4.721
   32CHL1  H27B 3547   2.393   2.013   4.812
   32CHL1  H27C 3548   2.238   2.076   4.895
   33CHL1    C3 3549   0.422   1.487   5.724
   33CHL1    H3 3550   0.368   1.581   5.749
   33CHL1    O3 3551   0.464   1.415   5.838
   33CHL1   H3' 3552   0.560   1.414   5.843
   33CHL1    C4 3553   0.322   1.389   5.653
   33CHL1   H4A 3554   0.373   1.291   5.640
   33CHL1   H4B 3555   0.229   1.369   5.710
   33CHL1    C5 3556   0.278   1.441   5.515
   33CHL1    C6 3557   0.148   1.459   5.476
   33CHL1    H6 3558   0.068   1.435   5.548
   33CHL1    C7 3559   0.100   1.512   5.337
   33CHL1   H7A 3560   0.011   1.454   5.306
   33CHL1   H7B 3561   0.080   1.620   5.353
   33CHL1    C8 3562   0.212   1.483   5.233
   33CHL1    H8 3563   0.220   1.373   5.222
   33CHL1   C14 3564   0.178   1.557   5.109
   33CHL1   H14 3565   0.189   1.666   5.129
   33CHL1   C15 3566   0.030   1.535   5.056
   33CHL1  H15A 3567   0.007   1.429   5.081
   33CHL1  H15B 3568   6.799   1.610   5.089
   33CHL1   C16 3569   0.049   1.558   4.905
   33CHL1  H16A 3570   0.013   1.463   4.858
   33CHL1  H16B 3571   6.818   1.634   4.872
   33CHL1   C17 3572   0.191   1.603   4.884
   33CHL1   H17 3573   0.195   1.709   4.918
   33CHL1   C13 3574   0.273   1.531   4.994
   33CHL1   C18 3575   0.282   1.375   4.964
   33CHL1  H18A 3576   0.179   1.334   4.957
   33CHL1  H18B 3577   0.343   1.352   4.875
   33CHL1  H18C 3578   0.340   1.319   5.040
   33CHL1   C12 3579   0.410   1.583   5.028
   33CHL1  H12A 3580   0.489   1.560   4.953
   33CHL1  H12B 3581   0.403   1.691   5.052
   33CHL1   C11 3582   0.453   1.525   5.164
   33CHL1  H11A 3583   0.487   1.422   5.136
   33CHL1  H11B 3584   0.537   1.582   5.210
   33CHL1    C9 3585   0.351   1.527   5.280
   33CHL1    H9 3586   0.340   1.633   5.310
   33CHL1   C10 3587   0.395   1.457   5.417
   33CHL1   C19 3588   0.450   1.323   5.377
   33CHL1  H19A 3589   0.385   1.278   5.298
   33CHL1  H19B 3590   0.557   1.334   5.351
   33CHL1  H19C 3591   0.453   1.252   5.462
   33CHL1    C1 3592   0.496   1.552   5.494
   33CHL1   H1A 3593   0.593   1.561   5.441
   33CHL1   H1B 3594   0.450   1.653   5.502
   33CHL1    C2 3595   0.548   1.502   5.632
   33CHL1   H2A 3596   0.628   1.567   5.673
   33CHL1   H2B 3597   0.587   1.399   5.623
   33CHL1   C20 3598   0.254   1.599   4.749
   33CHL1   H20 3599   0.314   1.509   4.722
   33CHL1   C21 3600   0.340   1.730   4.732
   33CHL1  H21A 3601   0.278   1.819   4.758
   33CHL1  H21B 3602   0.376   1.751   4.629
   33CHL1  H21C 3603   0.423   1.723   4.805
   33CHL1   C22 3604   0.137   1.589   4.643
   33CHL1  H22A 3605   0.094   1.487   4.633
   33CHL1  H22B 3606   0.054   1.660   4.663
   33CHL1   C23 3607   0.190   1.613   4.498
   33CHL1  H23A 3608   0.223   1.719   4.492
   33CHL1  H23B 3609   0.278   1.546   4.487
   33CHL1   C24 3610   0.089   1.562   4.392
   33CHL1  H24A 3611   0.085   1.456   4.423
   33CHL1  H24B 3612   6.842   1.618   4.426
   33CHL1   C25 3613   0.127   1.595   4.250
   33CHL1   H25 3614   0.145   1.703   4.271
   33CHL1   C26 3615   0.250   1.522   4.204
   33CHL1  H26A 3616   0.342   1.550   4.259
   33CHL1  H26B 3617   0.244   1.411   4.205
   33CHL1  H26C 3618   0.275   1.543   4.097
   33CHL1   C27 3619   0.014   1.574   4.151
   33CHL1  H27A 3620   0.039   1.612   4.050
   33CHL1  H27B 3621   6.838   1.466   4.138
   33CHL1  H27C 3622   6.755   1.608   4.179
   34CHL1    C3 3623   2.911   2.855   5.869
   34CHL1    H3 3624   2.946   2.758   5.911
   34CHL1    O3 3625   2.921   2.942   5.987
   34CHL1   H3' 3626   2.841   2.933   6.038
   34CHL1    C4 3627   3.004   2.909   5.769
   34CHL1   H4A 3628   2.992   3.019   5.753
   34CHL1   H4B 3629   3.110   2.908   5.802
   34CHL1    C5 3630   2.998   2.848   5.631
   34CHL1    C6 3631   3.104   2.779   5.577
   34CHL1    H6 3632   3.192   2.767   5.642
   34CHL1    C7 3633   3.108   2.717   5.441
   34CHL1   H7A 3634   3.207   2.721   5.390
   34CHL1   H7B 3635   3.093   2.610   5.467
   34CHL1    C8 3636   2.997   2.783   5.345
   34CHL1    H8 3637   3.036   2.881   5.310
   34CHL1   C14 3638   2.978   2.693   5.223
   34CHL1   H14 3639   2.938   2.594   5.256
   34CHL1   C15 3640   3.100   2.656   5.141
   34CHL1  H15A 3641   3.168   2.739   5.114
   34CHL1  H15B 3642   3.163   2.590   5.204
   34CHL1   C16 3643   3.042   2.588   5.015
   34CHL1  H16A 3644   3.093   2.634   4.928
   34CHL1  H16B 3645   3.067   2.480   5.008
   34CHL1   C17 3646   2.885   2.612   5.025
   34CHL1   H17 3647   2.851   2.527   5.087
   34CHL1   C13 3648   2.872   2.731   5.122
   34CHL1   C18 3649   2.896   2.865   5.054
   34CHL1  H18A 3650   2.892   2.937   5.138
   34CHL1  H18B 3651   2.999   2.865   5.012
   34CHL1  H18C 3652   2.820   2.885   4.975
   34CHL1   C12 3653   2.732   2.739   5.200
   34CHL1  H12A 3654   2.646   2.766   5.135
   34CHL1  H12B 3655   2.715   2.634   5.232
   34CHL1   C11 3656   2.747   2.831   5.326
   34CHL1  H11A 3657   2.756   2.938   5.296
   34CHL1  H11B 3658   2.654   2.824   5.386
   34CHL1    C9 3659   2.862   2.791   5.420
   34CHL1    H9 3660   2.845   2.686   5.453
   34CHL1   C10 3661   2.866   2.871   5.560
   34CHL1   C19 3662   2.865   3.021   5.527
   34CHL1  H19A 3663   2.877   3.095   5.609
   34CHL1  H19B 3664   2.930   3.055   5.444
   34CHL1  H19C 3665   2.768   3.054   5.485
   34CHL1    C1 3666   2.763   2.809   5.656
   34CHL1   H1A 3667   2.663   2.839   5.617
   34CHL1   H1B 3668   2.770   2.699   5.661
   34CHL1    C2 3669   2.767   2.852   5.809
   34CHL1   H2A 3670   2.701   2.786   5.869
   34CHL1   H2B 3671   2.732   2.958   5.808
   34CHL1   C20 3672   2.822   2.611   4.884
   34CHL1   H20 3673   2.866   2.695   4.827
   34CHL1   C21 3674   2.674   2.644   4.887
   34CHL1  H21A 3675   2.626   2.576   4.960
   34CHL1  H21B 3676   2.616   2.631   4.793
   34CHL1  H21C 3677   2.667   2.753   4.912
   34CHL1   C22 3678   2.837   2.475   4.814
   34CHL1  H22A 3679   2.921   2.415   4.854
   34CHL1  H22B 3680   2.744   2.426   4.849
   34CHL1   C23 3681   2.833   2.480   4.666
   34CHL1  H23A 3682   2.749   2.540   4.624
   34CHL1  H23B 3683   2.916   2.540   4.624
   34CHL1   C24 3684   2.840   2.340   4.601
   34CHL1  H24A 3685   2.925   2.282   4.643
   34CHL1  H24B 3686   2.758   2.287   4.653
   34CHL1   C25 3687   2.855   2.342   4.451
   34CHL1   H25 3688   2.778   2.413   4.414
   34CHL1   C26 3689   2.983   2.392   4.399
   34CHL1  H26A 3690   3.068   2.344   4.453
   34CHL1  H26B 3691   2.991   2.388   4.288
   34CHL1  H26C 3692   2.992   2.501   4.421
   34CHL1   C27 3693   2.820   2.207   4.380
   34CHL1  H27A 3694   2.709   2.208   4.378
   34CHL1  H27B 3695   2.856   2.199   4.275
   34CHL1  H27C 3696   2.859   2.125   4.443
   35CHL1    C3 3697   4.476   5.172   6.098
   35CHL1    H3 3698   4.556   5.106   6.058
   35CHL1    O3 3699   4.497   5.179   6.239
   35CHL1   H3' 3700   4.463   5.099   6.279
   35CHL1    C4 3701   4.495   5.308   6.026
   35CHL1   H4A 3702   4.427   5.375   6.083
   35CHL1   H4B 3703   4.600   5.345   6.033
   35CHL1    C5 3704   4.452   5.305   5.880
   35CHL1    C6 3705   4.534   5.362   5.791
   35CHL1    H6 3706   4.626   5.412   5.824
   35CHL1    C7 3707   4.505   5.363   5.646
   35CHL1   H7A 3708   4.511   5.467   5.606
   35CHL1   H7B 3709   4.582   5.302   5.595
   35CHL1    C8 3710   4.358   5.319   5.603
   35CHL1    H8 3711   4.290   5.406   5.610
   35CHL1   C14 3712   4.356   5.270   5.456
   35CHL1   H14 3713   4.412   5.174   5.465
   35CHL1   C15 3714   4.430   5.351   5.349
   35CHL1  H15A 3715   4.391   5.455   5.359
   35CHL1  H15B 3716   4.541   5.341   5.352
   35CHL1   C16 3717   4.372   5.290   5.214
   35CHL1  H16A 3718   4.326   5.367   5.148
   35CHL1  H16B 3719   4.445   5.233   5.154
   35CHL1   C17 3720   4.264   5.192   5.257
   35CHL1   H17 3721   4.320   5.096   5.266
   35CHL1   C13 3722   4.219   5.234   5.405
   35CHL1   C18 3723   4.130   5.360   5.392
   35CHL1  H18A 3724   4.177   5.433   5.323
   35CHL1  H18B 3725   4.024   5.347   5.362
   35CHL1  H18C 3726   4.119   5.407   5.492
   35CHL1   C12 3727   4.151   5.125   5.499
   35CHL1  H12A 3728   4.043   5.126   5.476
   35CHL1  H12B 3729   4.193   5.026   5.469
   35CHL1   C11 3730   4.174   5.149   5.643
   35CHL1  H11A 3731   4.094   5.218   5.678
   35CHL1  H11B 3732   4.148   5.051   5.690
   35CHL1    C9 3733   4.312   5.202   5.688
   35CHL1    H9 3734   4.386   5.126   5.656
   35CHL1   C10 3735   4.318   5.236   5.840
   35CHL1   C19 3736   4.193   5.320   5.881
   35CHL1  H19A 3737   4.205   5.358   5.985
   35CHL1  H19B 3738   4.159   5.398   5.810
   35CHL1  H19C 3739   4.102   5.257   5.873
   35CHL1    C1 3740   4.309   5.100   5.922
   35CHL1   H1A 3741   4.212   5.050   5.903
   35CHL1   H1B 3742   4.384   5.030   5.878
   35CHL1    C2 3743   4.341   5.110   6.073
   35CHL1   H2A 3744   4.353   5.006   6.109
   35CHL1   H2B 3745   4.258   5.154   6.133
   35CHL1   C20 3746   4.152   5.173   5.153
   35CHL1   H20 3747   4.088   5.263   5.144
   35CHL1   C21 3748   4.061   5.056   5.188
   35CHL1  H21A 3749   3.986   5.068   5.269
   35CHL1  H21B 3750   4.117   4.961   5.201
   35CHL1  H21C 3751   3.988   5.037   5.107
   35CHL1   C22 3752   4.217   5.148   5.010
   35CHL1  H22A 3753   4.286   5.231   4.983
   35CHL1  H22B 3754   4.278   5.057   5.028
   35CHL1   C23 3755   4.116   5.143   4.891
   35CHL1  H23A 3756   4.032   5.074   4.915
   35CHL1  H23B 3757   4.060   5.237   4.873
   35CHL1   C24 3758   4.176   5.087   4.763
   35CHL1  H24A 3759   4.237   5.167   4.716
   35CHL1  H24B 3760   4.243   5.006   4.800
   35CHL1   C25 3761   4.074   5.033   4.664
   35CHL1   H25 3762   3.999   5.113   4.645
   35CHL1   C26 3763   4.136   5.015   4.525
   35CHL1  H26A 3764   4.172   5.111   4.482
   35CHL1  H26B 3765   4.226   4.950   4.528
   35CHL1  H26C 3766   4.060   4.964   4.463
   35CHL1   C27 3767   4.016   4.892   4.711
   35CHL1  H27A 3768   4.093   4.812   4.707
   35CHL1  H27B 3769   3.999   4.900   4.821
   35CHL1  H27C 3770   3.919   4.868   4.661
   36CHL1    C3 3771   0.186   4.042   6.014
   36CHL1    H3 3772   0.291   4.056   6.047
   36CHL1    O3 3773   0.106   4.013   6.126
   36CHL1   H3' 3774   0.117   4.082   6.191
   36CHL1    C4 3775   0.126   4.172   5.950
   36CHL1   H4A 3776   0.016   4.161   5.938
   36CHL1   H4B 3777   0.150   4.258   6.016
   36CHL1    C5 3778   0.190   4.194   5.812
   36CHL1    C6 3779   0.269   4.308   5.789
   36CHL1    H6 3780   0.276   4.386   5.866
   36CHL1    C7 3781   0.332   4.338   5.654
   36CHL1   H7A 3782   0.325   4.446   5.633
   36CHL1   H7B 3783   0.441   4.319   5.662
   36CHL1    C8 3784   0.286   4.258   5.538
   36CHL1    H8 3785   0.186   4.301   5.514
   36CHL1   C14 3786   0.375   4.264   5.413
   36CHL1   H14 3787   0.473   4.220   5.440
   36CHL1   C15 3788   0.418   4.408   5.367
   36CHL1  H15A 3789   0.336   4.483   5.366
   36CHL1  H15B 3790   0.497   4.436   5.440
   36CHL1   C16 3791   0.450   4.390   5.221
   36CHL1  H16A 3792   0.383   4.440   5.148
   36CHL1  H16B 3793   0.546   4.444   5.203
   36CHL1   C17 3794   0.442   4.236   5.188
   36CHL1   H17 3795   0.540   4.194   5.221
   36CHL1   C13 3796   0.333   4.182   5.288
   36CHL1   C18 3797   0.195   4.240   5.235
   36CHL1  H18A 3798   0.118   4.242   5.316
   36CHL1  H18B 3799   0.203   4.342   5.191
   36CHL1  H18C 3800   0.167   4.171   5.153
   36CHL1   C12 3801   0.308   4.031   5.314
   36CHL1  H12A 3802   0.256   3.985   5.227
   36CHL1  H12B 3803   0.409   3.985   5.325
   36CHL1   C11 3804   0.221   4.022   5.451
   36CHL1  H11A 3805   0.121   4.055   5.414
   36CHL1  H11B 3806   0.207   3.917   5.486
   36CHL1    C9 3807   0.271   4.109   5.577
   36CHL1    H9 3808   0.373   4.065   5.586
   36CHL1   C10 3809   0.187   4.073   5.708
   36CHL1   C19 3810   0.047   4.054   5.667
   36CHL1  H19A 3811   0.007   4.129   5.595
   36CHL1  H19B 3812   0.027   3.955   5.621
   36CHL1  H19C 3813   6.822   4.050   5.755
   36CHL1    C1 3814   0.242   3.947   5.777
   36CHL1   H1A 3815   0.232   3.854   5.716
   36CHL1   H1B 3816   0.353   3.946   5.785
   36CHL1    C2 3817   0.178   3.925   5.919
   36CHL1   H2A 3818   0.238   3.845   5.966
   36CHL1   H2B 3819   0.072   3.895   5.908
   36CHL1   C20 3820   0.433   4.195   5.042
   36CHL1   H20 3821   0.335   4.225   5.000
   36CHL1   C21 3822   0.451   4.046   5.024
   36CHL1  H21A 3823   0.378   3.983   5.078
   36CHL1  H21B 3824   0.555   4.028   5.057
   36CHL1  H21C 3825   0.431   4.016   4.919
   36CHL1   C22 3826   0.533   4.280   4.957
   36CHL1  H22A 3827   0.520   4.388   4.981
   36CHL1  H22B 3828   0.636   4.253   4.988
   36CHL1   C23 3829   0.521   4.254   4.809
   36CHL1  H23A 3830   0.598   4.179   4.782
   36CHL1  H23B 3831   0.419   4.215   4.787
   36CHL1   C24 3832   0.558   4.381   4.732
   36CHL1  H24A 3833   0.631   4.435   4.795
   36CHL1  H24B 3834   0.624   4.354   4.647
   36CHL1   C25 3835   0.447   4.480   4.695
   36CHL1   H25 3836   0.366   4.418   4.651
   36CHL1   C26 3837   0.387   4.551   4.824
   36CHL1  H26A 3838   0.297   4.609   4.795
   36CHL1  H26B 3839   0.355   4.472   4.894
   36CHL1  H26C 3840   0.456   4.620   4.878
   36CHL1   C27 3841   0.493   4.588   4.596
   36CHL1  H27A 3842   0.411   4.660   4.576
   36CHL1  H27B 3843   0.583   4.643   4.631
   36CHL1  H27C 3844   0.528   4.538   4.503
   37CHL1    C3 3845   0.809   0.362   6.143
   37CHL1    H3 3846   0.910   0.321   6.122
   37CHL1    O3 3847   0.791   0.377   6.285
   37CHL1   H3' 3848   0.698   0.395   6.293
   37CHL1    C4 3849   0.809   0.502   6.079
   37CHL1   H4A 3850   0.717   0.549   6.119
   37CHL1   H4B 3851   0.892   0.563   6.123
   37CHL1    C5 3852   0.806   0.505   5.927
   37CHL1    C6 3853   0.899   0.578   5.859
   37CHL1    H6 3854   0.982   0.631   5.908
   37CHL1    C7 3855   0.899   0.584   5.706
   37CHL1   H7A 3856   0.911   0.689   5.670
   37CHL1   H7B 3857   0.984   0.516   5.683
   37CHL1    C8 3858   0.773   0.531   5.636
   37CHL1    H8 3859   0.692   0.607   5.647
   37CHL1   C14 3860   0.790   0.511   5.486
   37CHL1   H14 3861   0.877   0.442   5.482
   37CHL1   C15 3862   0.840   0.629   5.403
   37CHL1  H15A 3863   0.769   0.714   5.413
   37CHL1  H15B 3864   0.941   0.672   5.419
   37CHL1   C16 3865   0.811   0.590   5.256
   37CHL1  H16A 3866   0.746   0.663   5.202
   37CHL1  H16B 3867   0.906   0.573   5.201
   37CHL1   C17 3868   0.734   0.453   5.265
   37CHL1   H17 3869   0.819   0.382   5.260
   37CHL1   C13 3870   0.673   0.444   5.412
   37CHL1   C18 3871   0.547   0.541   5.423
   37CHL1  H18A 3872   0.518   0.561   5.528
   37CHL1  H18B 3873   0.562   0.635   5.366
   37CHL1  H18C 3874   0.457   0.492   5.378
   37CHL1   C12 3875   0.641   0.310   5.481
   37CHL1  H12A 3876   0.545   0.279   5.434
   37CHL1  H12B 3877   0.730   0.244   5.469
   37CHL1   C11 3878   0.613   0.326   5.635
   37CHL1  H11A 3879   0.521   0.384   5.659
   37CHL1  H11B 3880   0.589   0.229   5.682
   37CHL1    C9 3881   0.731   0.397   5.704
   37CHL1    H9 3882   0.820   0.331   5.690
   37CHL1   C10 3883   0.701   0.413   5.859
   37CHL1   C19 3884   0.570   0.487   5.890
   37CHL1  H19A 3885   0.490   0.410   5.894
   37CHL1  H19B 3886   0.561   0.537   5.989
   37CHL1  H19C 3887   0.536   0.553   5.807
   37CHL1    C1 3888   0.715   0.273   5.929
   37CHL1   H1A 3889   0.639   0.203   5.889
   37CHL1   H1B 3890   0.813   0.229   5.902
   37CHL1    C2 3891   0.698   0.272   6.083
   37CHL1   H2A 3892   0.719   0.169   6.118
   37CHL1   H2B 3893   0.593   0.305   6.099
   37CHL1   C20 3894   0.653   0.410   5.144
   37CHL1   H20 3895   0.595   0.318   5.168
   37CHL1   C21 3896   0.755   0.373   5.036
   37CHL1  H21A 3897   0.826   0.458   5.028
   37CHL1  H21B 3898   0.707   0.349   4.938
   37CHL1  H21C 3899   0.803   0.276   5.063
   37CHL1   C22 3900   0.554   0.511   5.080
   37CHL1  H22A 3901   0.535   0.576   5.168
   37CHL1  H22B 3902   0.607   0.569   5.001
   37CHL1   C23 3903   0.429   0.443   5.017
   37CHL1  H23A 3904   0.450   0.408   4.914
   37CHL1  H23B 3905   0.402   0.345   5.063
   37CHL1   C24 3906   0.316   0.541   5.034
   37CHL1  H24A 3907   0.309   0.566   5.142
   37CHL1  H24B 3908   0.355   0.627   4.976
   37CHL1   C25 3909   0.173   0.505   4.986
   37CHL1   H25 3910   0.182   0.508   4.875
   37CHL1   C26 3911   0.123   0.365   5.023
   37CHL1  H26A 3912   0.163   0.289   4.952
   37CHL1  H26B 3913   0.167   0.337   5.121
   37CHL1  H26C 3914   0.013   0.366   5.035
   37CHL1   C27 3915   0.075   0.618   5.036
   37CHL1  H27A 3916   6.810   0.594   5.025
   37CHL1  H27B 3917   0.096   0.636   5.144
   37CHL1  H27C 3918   0.105   0.713   4.987
   38CHL1    C3 3919   1.592   1.112   5.862
   38CHL1    H3 3920   1.541   1.016   5.885
   38CHL1    O3 3921   1.661   1.161   5.981
   38CHL1   H3' 3922   1.609   1.233   6.018
   38CHL1    C4 3923   1.698   1.071   5.754
   38CHL1   H4A 3924   1.773   1.153   5.748
   38CHL1   H4B 3925   1.753   0.976   5.769
   38CHL1    C5 3926   1.629   1.064   5.619
   38CHL1    C6 3927   1.644   0.951   5.549
   38CHL1    H6 3928   1.697   0.864   5.591
   38CHL1    C7 3929   1.580   0.935   5.411
   38CHL1   H7A 3930   1.644   0.875   5.343
   38CHL1   H7B 3931   1.502   0.856   5.409
   38CHL1    C8 3932   1.540   1.064   5.346
   38CHL1    H8 3933   1.631   1.122   5.323
   38CHL1   C14 3934   1.449   1.048   5.214
   38CHL1   H14 3935   1.346   1.015   5.238
   38CHL1   C15 3936   1.500   0.949   5.105
   38CHL1  H15A 3937   1.603   0.979   5.078
   38CHL1  H15B 3938   1.507   0.841   5.127
   38CHL1   C16 3939   1.416   0.990   4.984
   38CHL1  H16A 3940   1.469   0.994   4.886
   38CHL1  H16B 3941   1.345   0.905   4.984
   38CHL1   C17 3942   1.340   1.123   5.012
   38CHL1   H17 3943   1.244   1.092   5.059
   38CHL1   C13 3944   1.411   1.179   5.138
   38CHL1   C18 3945   1.542   1.257   5.090
   38CHL1  H18A 3946   1.517   1.363   5.067
   38CHL1  H18B 3947   1.625   1.255   5.163
   38CHL1  H18C 3948   1.583   1.212   4.997
   38CHL1   C12 3949   1.323   1.257   5.241
   38CHL1  H12A 3950   1.273   1.340   5.187
   38CHL1  H12B 3951   1.239   1.191   5.270
   38CHL1   C11 3952   1.407   1.283   5.368
   38CHL1  H11A 3953   1.488   1.352   5.336
   38CHL1  H11B 3954   1.361   1.352   5.442
   38CHL1    C9 3955   1.464   1.153   5.442
   38CHL1    H9 3956   1.369   1.101   5.468
   38CHL1   C10 3957   1.541   1.181   5.570
   38CHL1   C19 3958   1.632   1.300   5.559
   38CHL1  H19A 3959   1.709   1.283   5.480
   38CHL1  H19B 3960   1.573   1.387   5.525
   38CHL1  H19C 3961   1.686   1.335   5.650
   38CHL1    C1 3962   1.433   1.196   5.680
   38CHL1   H1A 3963   1.365   1.280   5.656
   38CHL1   H1B 3964   1.377   1.100   5.687
   38CHL1    C2 3965   1.492   1.221   5.817
   38CHL1   H2A 3966   1.408   1.223   5.890
   38CHL1   H2B 3967   1.544   1.319   5.810
   38CHL1   C20 3968   1.312   1.205   4.881
   38CHL1   H20 3969   1.411   1.227   4.834
   38CHL1   C21 3970   1.245   1.342   4.910
   38CHL1  H21A 3971   1.148   1.339   4.964
   38CHL1  H21B 3972   1.224   1.399   4.817
   38CHL1  H21C 3973   1.327   1.387   4.971
   38CHL1   C22 3974   1.235   1.122   4.781
   38CHL1  H22A 3975   1.295   1.030   4.762
   38CHL1  H22B 3976   1.139   1.090   4.827
   38CHL1   C23 3977   1.197   1.192   4.650
   38CHL1  H23A 3978   1.132   1.282   4.657
   38CHL1  H23B 3979   1.290   1.226   4.600
   38CHL1   C24 3980   1.108   1.100   4.563
   38CHL1  H24A 3981   1.152   0.998   4.561
   38CHL1  H24B 3982   1.011   1.088   4.616
   38CHL1   C25 3983   1.079   1.151   4.423
   38CHL1   H25 3984   1.175   1.191   4.384
   38CHL1   C26 3985   1.018   1.039   4.335
   38CHL1  H26A 3986   0.983   1.070   4.234
   38CHL1  H26B 3987   1.083   0.950   4.331
   38CHL1  H26C 3988   0.921   1.002   4.376
   38CHL1   C27 3989   0.973   1.257   4.416
   38CHL1  H27A 3990   1.016   1.341   4.475
   38CHL1  H27B 3991   0.950   1.296   4.314
   38CHL1  H27C 3992   0.878   1.229   4.466
   39CHL1    C3 3993   3.364   1.528   6.473
   39CHL1    H3 3994   3.360   1.418   6.460
   39CHL1    O3 3995   3.325   1.553   6.609
   39CHL1   H3' 3996   3.308   1.648   6.614
   39CHL1    C4 3997   3.507   1.577   6.463
   39CHL1   H4A 3998   3.513   1.681   6.501
   39CHL1   H4B 3999   3.558   1.513   6.538
   39CHL1    C5 4000   3.568   1.566   6.325
   39CHL1    C6 4001   3.688   1.498   6.289
   39CHL1    H6 4002   3.750   1.456   6.370
   39CHL1    C7 4003   3.735   1.493   6.149
   39CHL1   H7A 4004   3.842   1.521   6.145
   39CHL1   H7B 4005   3.723   1.391   6.106
   39CHL1    C8 4006   3.665   1.591   6.052
   39CHL1    H8 4007   3.716   1.689   6.056
   39CHL1   C14 4008   3.686   1.540   5.913
   39CHL1   H14 4009   3.630   1.445   5.905
   39CHL1   C15 4010   3.827   1.506   5.868
   39CHL1  H15A 4011   3.890   1.590   5.904
   39CHL1  H15B 4012   3.863   1.409   5.908
   39CHL1   C16 4013   3.829   1.509   5.715
   39CHL1  H16A 4014   3.923   1.558   5.682
   39CHL1  H16B 4015   3.849   1.404   5.684
   39CHL1   C17 4016   3.689   1.557   5.670
   39CHL1   H17 4017   3.626   1.467   5.651
   39CHL1   C13 4018   3.635   1.625   5.795
   39CHL1   C18 4019   3.691   1.764   5.805
   39CHL1  H18A 4020   3.667   1.805   5.905
   39CHL1  H18B 4021   3.800   1.753   5.789
   39CHL1  H18C 4022   3.648   1.825   5.723
   39CHL1   C12 4023   3.482   1.630   5.812
   39CHL1  H12A 4024   3.425   1.703   5.751
   39CHL1  H12B 4025   3.438   1.529   5.798
   39CHL1   C11 4026   3.445   1.682   5.961
   39CHL1  H11A 4027   3.458   1.792   5.966
   39CHL1  H11B 4028   3.335   1.671   5.971
   39CHL1    C9 4029   3.515   1.598   6.076
   39CHL1    H9 4030   3.474   1.495   6.067
   39CHL1   C10 4031   3.469   1.634   6.221
   39CHL1   C19 4032   3.470   1.785   6.242
   39CHL1  H19A 4033   3.389   1.823   6.177
   39CHL1  H19B 4034   3.444   1.810   6.347
   39CHL1  H19C 4035   3.563   1.833   6.207
   39CHL1    C1 4036   3.317   1.585   6.240
   39CHL1   H1A 4037   3.248   1.632   6.166
   39CHL1   H1B 4038   3.314   1.478   6.208
   39CHL1    C2 4039   3.267   1.597   6.383
   39CHL1   H2A 4040   3.164   1.554   6.391
   39CHL1   H2B 4041   3.255   1.707   6.385
   39CHL1   C20 4042   3.696   1.638   5.541
   39CHL1   H20 4043   3.737   1.740   5.560
   39CHL1   C21 4044   3.555   1.677   5.487
   39CHL1  H21A 4045   3.501   1.717   5.575
   39CHL1  H21B 4046   3.501   1.585   5.459
   39CHL1  H21C 4047   3.565   1.751   5.405
   39CHL1   C22 4048   3.785   1.571   5.431
   39CHL1  H22A 4049   3.878   1.535   5.480
   39CHL1  H22B 4050   3.733   1.482   5.388
   39CHL1   C23 4051   3.807   1.674   5.320
   39CHL1  H23A 4052   3.710   1.693   5.269
   39CHL1  H23B 4053   3.860   1.766   5.355
   39CHL1   C24 4054   3.901   1.605   5.224
   39CHL1  H24A 4055   4.002   1.576   5.260
   39CHL1  H24B 4056   3.849   1.516   5.183
   39CHL1   C25 4057   3.939   1.698   5.105
   39CHL1   H25 4058   3.959   1.795   5.154
   39CHL1   C26 4059   4.064   1.646   5.034
   39CHL1  H26A 4060   4.146   1.611   5.100
   39CHL1  H26B 4061   4.038   1.561   4.967
   39CHL1  H26C 4062   4.089   1.732   4.968
   39CHL1   C27 4063   3.810   1.706   5.007
   39CHL1  H27A 4064   3.840   1.774   4.925
   39CHL1  H27B 4065   3.805   1.604   4.962
   39CHL1  H27C 4066   3.715   1.741   5.053
   40CHL1    C3 4067   3.564   3.911   5.816
   40CHL1    H3 4068   3.498   4.000   5.804
   40CHL1    O3 4069   3.553   3.879   5.954
   40CHL1   H3' 4070   3.583   3.957   6.003
   40CHL1    C4 4071   3.525   3.800   5.718
   40CHL1   H4A 4072   3.574   3.701   5.730
   40CHL1   H4B 4073   3.419   3.780   5.746
   40CHL1    C5 4074   3.538   3.845   5.571
   40CHL1    C6 4075   3.441   3.833   5.479
   40CHL1    H6 4076   3.354   3.784   5.525
   40CHL1    C7 4077   3.441   3.862   5.331
   40CHL1   H7A 4078   3.399   3.777   5.273
   40CHL1   H7B 4079   3.374   3.949   5.311
   40CHL1    C8 4080   3.584   3.899   5.280
   40CHL1    H8 4081   3.633   3.802   5.260
   40CHL1   C14 4082   3.575   3.982   5.158
   40CHL1   H14 4083   3.511   4.070   5.181
   40CHL1   C15 4084   3.504   3.912   5.035
   40CHL1  H15A 4085   3.520   3.802   5.041
   40CHL1  H15B 4086   3.394   3.928   5.045
   40CHL1   C16 4087   3.555   3.985   4.915
   40CHL1  H16A 4088   3.591   3.903   4.848
   40CHL1  H16B 4089   3.480   4.050   4.868
   40CHL1   C17 4090   3.672   4.079   4.965
   40CHL1   H17 4091   3.627   4.178   4.984
   40CHL1   C13 4092   3.710   4.029   5.108
   40CHL1   C18 4093   3.809   3.905   5.090
   40CHL1  H18A 4094   3.766   3.838   5.012
   40CHL1  H18B 4095   3.910   3.938   5.058
   40CHL1  H18C 4096   3.813   3.849   5.186
   40CHL1   C12 4097   3.764   4.126   5.210
   40CHL1  H12A 4098   3.866   4.150   5.173
   40CHL1  H12B 4099   3.708   4.221   5.219
   40CHL1   C11 4100   3.791   4.048   5.343
   40CHL1  H11A 4101   3.876   3.977   5.331
   40CHL1  H11B 4102   3.837   4.117   5.417
   40CHL1    C9 4103   3.661   3.980   5.395
   40CHL1    H9 4104   3.596   4.068   5.412
   40CHL1   C10 4105   3.671   3.916   5.535
   40CHL1   C19 4106   3.778   3.797   5.534
   40CHL1  H19A 4107   3.791   3.754   5.636
   40CHL1  H19B 4108   3.747   3.709   5.473
   40CHL1  H19C 4109   3.873   3.836   5.493
   40CHL1    C1 4110   3.712   4.015   5.640
   40CHL1   H1A 4111   3.818   4.040   5.619
   40CHL1   H1B 4112   3.647   4.104   5.621
   40CHL1    C2 4113   3.700   3.963   5.782
   40CHL1   H2A 4114   3.723   4.049   5.849
   40CHL1   H2B 4115   3.776   3.883   5.794
   40CHL1   C20 4116   3.775   4.102   4.857
   40CHL1   H20 4117   3.831   4.006   4.855
   40CHL1   C21 4118   3.864   4.216   4.893
   40CHL1  H21A 4119   3.940   4.172   4.961
   40CHL1  H21B 4120   3.808   4.290   4.954
   40CHL1  H21C 4121   3.906   4.274   4.808
   40CHL1   C22 4122   3.712   4.136   4.720
   40CHL1  H22A 4123   3.620   4.073   4.710
   40CHL1  H22B 4124   3.691   4.245   4.715
   40CHL1   C23 4125   3.797   4.100   4.595
   40CHL1  H23A 4126   3.882   4.170   4.603
   40CHL1  H23B 4127   3.831   3.995   4.610
   40CHL1   C24 4128   3.720   4.131   4.464
   40CHL1  H24A 4129   3.631   4.065   4.469
   40CHL1  H24B 4130   3.686   4.235   4.451
   40CHL1   C25 4131   3.807   4.093   4.344
   40CHL1   H25 4132   3.805   3.983   4.328
   40CHL1   C26 4133   3.740   4.141   4.209
   40CHL1  H26A 4134   3.796   4.144   4.113
   40CHL1  H26B 4135   3.651   4.082   4.180
   40CHL1  H26C 4136   3.697   4.242   4.227
   40CHL1   C27 4137   3.954   4.148   4.347
   40CHL1  H27A 4138   3.996   4.125   4.447
   40CHL1  H27B 4139   4.012   4.109   4.260
   40CHL1  H27C 4140   3.951   4.259   4.339
   41CHL1    C3 4141   0.793   4.967   5.809
   41CHL1    H3 4142   0.728   4.899   5.750
   41CHL1    O3 4143   0.829   4.906   5.935
   41CHL1   H3' 4144   0.858   4.979   5.991
   41CHL1    C4 4145   0.931   4.995   5.748
   41CHL1   H4A 4146   1.002   5.048   5.815
   41CHL1   H4B 4147   0.977   4.894   5.742
   41CHL1    C5 4148   0.911   5.058   5.614
   41CHL1    C6 4149   0.951   5.004   5.498
   41CHL1    H6 4150   0.991   4.902   5.502
   41CHL1    C7 4151   0.934   5.076   5.365
   41CHL1   H7A 4152   1.034   5.069   5.318
   41CHL1   H7B 4153   0.857   5.019   5.308
   41CHL1    C8 4154   0.881   5.223   5.369
   41CHL1    H8 4155   0.972   5.283   5.384
   41CHL1   C14 4156   0.823   5.278   5.234
   41CHL1   H14 4157   0.721   5.237   5.218
   41CHL1   C15 4158   0.903   5.244   5.109
   41CHL1  H15A 4159   1.009   5.257   5.139
   41CHL1  H15B 4160   0.907   5.138   5.075
   41CHL1   C16 4161   0.861   5.352   5.007
   41CHL1  H16A 4162   0.954   5.403   4.974
   41CHL1  H16B 4163   0.810   5.297   4.925
   41CHL1   C17 4164   0.765   5.460   5.084
   41CHL1   H17 4165   0.662   5.420   5.069
   41CHL1   C13 4166   0.791   5.433   5.235
   41CHL1   C18 4167   0.921   5.509   5.286
   41CHL1  H18A 4168   0.911   5.618   5.265
   41CHL1  H18B 4169   0.955   5.483   5.389
   41CHL1  H18C 4170   1.006   5.465   5.230
   41CHL1   C12 4171   0.678   5.445   5.341
   41CHL1  H12A 4172   0.649   5.552   5.350
   41CHL1  H12B 4173   0.586   5.394   5.304
   41CHL1   C11 4174   0.727   5.385   5.474
   41CHL1  H11A 4175   0.802   5.457   5.515
   41CHL1  H11B 4176   0.634   5.392   5.534
   41CHL1    C9 4177   0.778   5.241   5.480
   41CHL1    H9 4178   0.693   5.173   5.456
   41CHL1   C10 4179   0.826   5.190   5.619
   41CHL1   C19 4180   0.922   5.289   5.678
   41CHL1  H19A 4181   0.880   5.388   5.708
   41CHL1  H19B 4182   0.950   5.243   5.775
   41CHL1  H19C 4183   1.020   5.306   5.628
   41CHL1    C1 4184   0.697   5.172   5.708
   41CHL1   H1A 4185   0.671   5.279   5.721
   41CHL1   H1B 4186   0.615   5.124   5.650
   41CHL1    C2 4187   0.724   5.096   5.841
   41CHL1   H2A 4188   0.635   5.080   5.906
   41CHL1   H2B 4189   0.794   5.157   5.902
   41CHL1   C20 4190   0.771   5.605   5.029
   41CHL1   H20 4191   0.868   5.648   5.061
   41CHL1   C21 4192   0.659   5.691   5.100
   41CHL1  H21A 4193   0.648   5.789   5.048
   41CHL1  H21B 4194   0.690   5.712   5.205
   41CHL1  H21C 4195   0.561   5.640   5.099
   41CHL1   C22 4196   0.762   5.613   4.871
   41CHL1  H22A 4197   0.759   5.719   4.838
   41CHL1  H22B 4198   0.852   5.572   4.820
   41CHL1   C23 4199   0.642   5.535   4.816
   41CHL1  H23A 4200   0.628   5.432   4.856
   41CHL1  H23B 4201   0.548   5.593   4.832
   41CHL1   C24 4202   0.661   5.512   4.662
   41CHL1  H24A 4203   0.667   5.605   4.601
   41CHL1  H24B 4204   0.762   5.468   4.649
   41CHL1   C25 4205   0.552   5.419   4.598
   41CHL1   H25 4206   0.513   5.347   4.673
   41CHL1   C26 4207   0.428   5.503   4.558
   41CHL1  H26A 4208   0.373   5.538   4.648
   41CHL1  H26B 4209   0.458   5.586   4.491
   41CHL1  H26C 4210   0.358   5.445   4.493
   41CHL1   C27 4211   0.601   5.345   4.477
   41CHL1  H27A 4212   0.523   5.299   4.412
   41CHL1  H27B 4213   0.648   5.412   4.402
   41CHL1  H27C 4214   0.675   5.269   4.509
   42CHL1    C3 4215   5.680   3.787   5.831
   42CHL1    H3 4216   5.718   3.887   5.800
   42CHL1    O3 4217   5.672   3.793   5.970
   42CHL1   H3' 4218   5.651   3.703   5.993
   42CHL1    C4 4219   5.537   3.768   5.773
   42CHL1   H4A 4220   5.497   3.670   5.805
   42CHL1   H4B 4221   5.467   3.848   5.807
   42CHL1    C5 4222   5.544   3.778   5.619
   42CHL1    C6 4223   5.469   3.868   5.548
   42CHL1    H6 4224   5.395   3.931   5.600
   42CHL1    C7 4225   5.478   3.871   5.396
   42CHL1   H7A 4226   5.378   3.899   5.357
   42CHL1   H7B 4227   5.541   3.960   5.376
   42CHL1    C8 4228   5.544   3.750   5.327
   42CHL1    H8 4229   5.476   3.662   5.329
   42CHL1   C14 4230   5.585   3.784   5.185
   42CHL1   H14 4231   5.655   3.868   5.197
   42CHL1   C15 4232   5.476   3.823   5.078
   42CHL1  H15A 4233   5.395   3.747   5.088
   42CHL1  H15B 4234   5.442   3.927   5.096
   42CHL1   C16 4235   5.539   3.795   4.943
   42CHL1  H16A 4236   5.486   3.713   4.891
   42CHL1  H16B 4237   5.568   3.874   4.871
   42CHL1   C17 4238   5.685   3.741   4.978
   42CHL1   H17 4239   5.748   3.830   5.002
   42CHL1   C13 4240   5.668   3.683   5.121
   42CHL1   C18 4241   5.603   3.541   5.107
   42CHL1  H18A 4242   5.685   3.469   5.084
   42CHL1  H18B 4243   5.569   3.509   5.208
   42CHL1  H18C 4244   5.515   3.545   5.039
   42CHL1   C12 4245   5.804   3.669   5.185
   42CHL1  H12A 4246   5.859   3.589   5.131
   42CHL1  H12B 4247   5.851   3.770   5.189
   42CHL1   C11 4248   5.773   3.623   5.336
   42CHL1  H11A 4249   5.742   3.517   5.347
   42CHL1  H11B 4250   5.871   3.635   5.386
   42CHL1    C9 4251   5.672   3.720   5.407
   42CHL1    H9 4252   5.722   3.819   5.411
   42CHL1   C10 4253   5.647   3.678   5.557
   42CHL1   C19 4254   5.576   3.539   5.557
   42CHL1  H19A 4255   5.645   3.460   5.520
   42CHL1  H19B 4256   5.549   3.525   5.663
   42CHL1  H19C 4257   5.481   3.535   5.501
   42CHL1    C1 4258   5.781   3.678   5.631
   42CHL1   H1A 4259   5.845   3.594   5.595
   42CHL1   H1B 4260   5.837   3.770   5.605
   42CHL1    C2 4261   5.773   3.674   5.777
   42CHL1   H2A 4262   5.872   3.705   5.817
   42CHL1   H2B 4263   5.749   3.574   5.821
   42CHL1   C20 4264   5.746   3.656   4.864
   42CHL1   H20 4265   5.805   3.579   4.919
   42CHL1   C21 4266   5.839   3.755   4.794
   42CHL1  H21A 4267   5.916   3.697   4.739
   42CHL1  H21B 4268   5.895   3.820   4.864
   42CHL1  H21C 4269   5.793   3.821   4.717
   42CHL1   C22 4270   5.652   3.592   4.755
   42CHL1  H22A 4271   5.590   3.517   4.809
   42CHL1  H22B 4272   5.584   3.667   4.709
   42CHL1   C23 4273   5.724   3.522   4.631
   42CHL1  H23A 4274   5.797   3.591   4.583
   42CHL1  H23B 4275   5.775   3.426   4.652
   42CHL1   C24 4276   5.612   3.510   4.529
   42CHL1  H24A 4277   5.516   3.485   4.579
   42CHL1  H24B 4278   5.599   3.612   4.486
   42CHL1   C25 4279   5.625   3.416   4.405
   42CHL1   H25 4280   5.724   3.427   4.356
   42CHL1   C26 4281   5.602   3.269   4.451
   42CHL1  H26A 4282   5.670   3.234   4.532
   42CHL1  H26B 4283   5.499   3.263   4.492
   42CHL1  H26C 4284   5.612   3.203   4.363
   42CHL1   C27 4285   5.510   3.450   4.304
   42CHL1  H27A 4286   5.534   3.545   4.252
   42CHL1  H27B 4287   5.499   3.369   4.229
   42CHL1  H27C 4288   5.406   3.445   4.342
   43CHL1    C3 4289   6.214   2.107   5.962
   43CHL1    H3 4290   6.131   2.163   5.914
   43CHL1    O3 4291   6.202   2.088   6.105
   43CHL1   H3' 4292   6.191   2.176   6.142
   43CHL1    C4 4293   6.235   1.971   5.888
   43CHL1   H4A 4294   6.329   1.928   5.927
   43CHL1   H4B 4295   6.152   1.901   5.912
   43CHL1    C5 4296   6.265   1.995   5.742
   43CHL1    C6 4297   6.184   1.932   5.652
   43CHL1    H6 4298   6.111   1.857   5.685
   43CHL1    C7 4299   6.180   1.953   5.501
   43CHL1   H7A 4300   6.184   1.858   5.443
   43CHL1   H7B 4301   6.088   2.006   5.466
   43CHL1    C8 4302   6.300   2.040   5.452
   43CHL1    H8 4303   6.386   1.970   5.451
   43CHL1   C14 4304   6.284   2.098   5.312
   43CHL1   H14 4305   6.203   2.174   5.323
   43CHL1   C15 4306   6.252   2.007   5.196
   43CHL1  H15A 4307   6.331   1.929   5.184
   43CHL1  H15B 4308   6.160   1.952   5.222
   43CHL1   C16 4309   6.237   2.101   5.077
   43CHL1  H16A 4310   6.295   2.053   4.995
   43CHL1  H16B 4311   6.132   2.128   5.054
   43CHL1   C17 4312   6.320   2.226   5.127
   43CHL1   H17 4313   6.248   2.309   5.146
   43CHL1   C13 4314   6.387   2.186   5.263
   43CHL1   C18 4315   6.517   2.109   5.232
   43CHL1  H18A 4316   6.531   2.043   5.320
   43CHL1  H18B 4317   6.510   2.043   5.143
   43CHL1  H18C 4318   6.601   2.183   5.230
   43CHL1   C12 4319   6.405   2.304   5.364
   43CHL1  H12A 4320   6.482   2.374   5.327
   43CHL1  H12B 4321   6.317   2.368   5.386
   43CHL1   C11 4322   6.447   2.249   5.498
   43CHL1  H11A 4323   6.532   2.179   5.483
   43CHL1  H11B 4324   6.465   2.328   5.573
   43CHL1    C9 4325   6.336   2.147   5.555
   43CHL1    H9 4326   6.243   2.208   5.566
   43CHL1   C10 4327   6.365   2.104   5.701
   43CHL1   C19 4328   6.506   2.034   5.703
   43CHL1  H19A 4329   6.510   1.989   5.804
   43CHL1  H19B 4330   6.510   1.954   5.626
   43CHL1  H19C 4331   6.589   2.103   5.678
   43CHL1    C1 4332   6.353   2.227   5.798
   43CHL1   H1A 4333   6.439   2.295   5.779
   43CHL1   H1B 4334   6.262   2.285   5.771
   43CHL1    C2 4335   6.337   2.196   5.942
   43CHL1   H2A 4336   6.312   2.291   5.993
   43CHL1   H2B 4337   6.422   2.135   5.980
   43CHL1   C20 4338   6.420   2.286   5.028
   43CHL1   H20 4339   6.504   2.214   5.016
   43CHL1   C21 4340   6.473   2.423   5.063
   43CHL1  H21A 4341   6.390   2.487   5.099
   43CHL1  H21B 4342   6.509   2.476   4.972
   43CHL1  H21C 4343   6.552   2.420   5.140
   43CHL1   C22 4344   6.363   2.286   4.880
   43CHL1  H22A 4345   6.305   2.194   4.858
   43CHL1  H22B 4346   6.290   2.367   4.858
   43CHL1   C23 4347   6.470   2.305   4.772
   43CHL1  H23A 4348   6.537   2.391   4.793
   43CHL1  H23B 4349   6.536   2.215   4.768
   43CHL1   C24 4350   6.399   2.320   4.637
   43CHL1  H24A 4351   6.319   2.244   4.622
   43CHL1  H24B 4352   6.351   2.421   4.638
   43CHL1   C25 4353   6.500   2.318   4.521
   43CHL1   H25 4354   6.543   2.217   4.506
   43CHL1   C26 4355   6.430   2.333   4.386
   43CHL1  H26A 4356   6.385   2.234   4.367
   43CHL1  H26B 4357   6.361   2.420   4.392
   43CHL1  H26C 4358   6.500   2.349   4.301
   43CHL1   C27 4359   6.614   2.413   4.538
   43CHL1  H27A 4360   6.675   2.404   4.446
   43CHL1  H27B 4361   6.577   2.516   4.557
   43CHL1  H27C 4362   6.676   2.384   4.626
   44CHL1    C3 4363   0.052   3.002   6.014
   44CHL1    H3 4364   6.784   2.991   6.004
   44CHL1    O3 4365   0.093   2.981   6.150
   44CHL1   H3' 4366   0.188   2.995   6.149
   44CHL1    C4 4367   0.126   2.901   5.920
   44CHL1   H4A 4368   0.234   2.924   5.930
   44CHL1   H4B 4369   0.108   2.795   5.947
   44CHL1    C5 4370   0.104   2.932   5.768
   44CHL1    C6 4371   0.052   2.839   5.691
   44CHL1    H6 4372   0.021   2.743   5.734
   44CHL1    C7 4373   0.030   2.857   5.548
   44CHL1   H7A 4374   0.072   2.779   5.480
   44CHL1   H7B 4375   6.765   2.853   5.521
   44CHL1    C8 4376   0.091   2.988   5.495
   44CHL1    H8 4377   0.200   2.978   5.483
   44CHL1   C14 4378   0.034   3.017   5.348
   44CHL1   H14 4379   6.770   3.034   5.373
   44CHL1   C15 4380   0.043   2.908   5.235
   44CHL1  H15A 4381   0.146   2.866   5.229
   44CHL1  H15B 4382   6.823   2.819   5.256
   44CHL1   C16 4383   0.009   2.978   5.107
   44CHL1  H16A 4384   0.097   2.969   5.039
   44CHL1  H16B 4385   6.761   2.943   5.054
   44CHL1   C17 4386   6.836   3.130   5.149
   44CHL1   H17 4387   6.730   3.140   5.181
   44CHL1   C13 4388   0.076   3.150   5.282
   44CHL1   C18 4389   0.225   3.144   5.251
   44CHL1  H18A 4390   0.255   3.045   5.209
   44CHL1  H18B 4391   0.242   3.225   5.176
   44CHL1  H18C 4392   0.289   3.172   5.337
   44CHL1   C12 4393   0.047   3.262   5.380
   44CHL1  H12A 4394   0.090   3.356   5.339
   44CHL1  H12B 4395   6.782   3.280   5.401
   44CHL1   C11 4396   0.107   3.244   5.525
   44CHL1  H11A 4397   0.218   3.246   5.522
   44CHL1  H11B 4398   0.074   3.327   5.591
   44CHL1    C9 4399   0.065   3.109   5.589
   44CHL1    H9 4400   6.797   3.109   5.589
   44CHL1   C10 4401   0.116   3.085   5.728
   44CHL1   C19 4402   0.274   3.117   5.736
   44CHL1  H19A 4403   0.296   3.221   5.705
   44CHL1  H19B 4404   0.313   3.106   5.840
   44CHL1  H19C 4405   0.336   3.049   5.673
   44CHL1    C1 4406   0.036   3.175   5.826
   44CHL1   H1A 4407   0.056   3.281   5.799
   44CHL1   H1B 4408   6.771   3.155   5.806
   44CHL1    C2 4409   0.084   3.150   5.972
   44CHL1   H2A 4410   0.021   3.217   6.034
   44CHL1   H2B 4411   0.186   3.184   5.996
   44CHL1   C20 4412   0.019   3.226   5.028
   44CHL1   H20 4413   0.121   3.218   4.987
   44CHL1   C21 4414   6.831   3.367   5.074
   44CHL1  H21A 4415   0.053   3.413   5.152
   44CHL1  H21B 4416   6.728   3.364   5.113
   44CHL1  H21C 4417   6.836   3.437   4.988
   44CHL1   C22 4418   6.767   3.196   4.912
   44CHL1  H22A 4419   6.722   3.094   4.904
   44CHL1  H22B 4420   6.679   3.264   4.911
   44CHL1   C23 4421   6.838   3.223   4.779
   44CHL1  H23A 4422   0.022   3.330   4.771
   44CHL1  H23B 4423   0.075   3.151   4.748
   44CHL1   C24 4424   6.723   3.205   4.671
   44CHL1  H24A 4425   6.725   3.096   4.653
   44CHL1  H24B 4426   6.621   3.219   4.713
   44CHL1   C25 4427   6.738   3.302   4.552
   44CHL1   H25 4428   6.739   3.404   4.596
   44CHL1   C26 4429   0.034   3.276   4.487
   44CHL1  H26A 4430   0.113   3.280   4.565
   44CHL1  H26B 4431   0.036   3.168   4.460
   44CHL1  H26C 4432   0.060   3.344   4.403
   44CHL1   C27 4433   6.632   3.277   4.441
   44CHL1  H27A 4434   6.630   3.345   4.353
   44CHL1  H27B 4435   6.656   3.171   4.414
   44CHL1  H27C 4436   6.528   3.277   4.480
   45CHL1    C3 4437   6.709   4.706   6.077
   45CHL1    H3 4438   6.779   4.780   6.033
   45CHL1    O3 4439   6.712   4.709   6.220
   45CHL1   H3' 4440   6.689   4.620   6.245
   45CHL1    C4 4441   6.563   4.710   6.017
   45CHL1   H4A 4442   6.504   4.625   6.056
   45CHL1   H4B 4443   6.514   4.804   6.051
   45CHL1    C5 4444   6.587   4.701   5.862
   45CHL1    C6 4445   6.526   4.787   5.780
   45CHL1    H6 4446   6.466   4.864   5.831
   45CHL1    C7 4447   6.531   4.790   5.632
   45CHL1   H7A 4448   6.431   4.798   5.584
   45CHL1   H7B 4449   6.593   4.879   5.606
   45CHL1    C8 4450   6.588   4.658   5.569
   45CHL1    H8 4451   6.504   4.586   5.558
   45CHL1   C14 4452   6.652   4.683   5.432
   45CHL1   H14 4453   6.728   4.763   5.445
   45CHL1   C15 4454   6.566   4.749   5.317
   45CHL1  H15A 4455   6.464   4.706   5.315
   45CHL1  H15B 4456   6.551   4.858   5.333
   45CHL1   C16 4457   6.637   4.719   5.185
   45CHL1  H16A 4458   6.560   4.661   5.130
   45CHL1  H16B 4459   6.665   4.814   5.134
   45CHL1   C17 4460   6.751   4.623   5.229
   45CHL1   H17 4461   6.837   4.690   5.251
   45CHL1   C13 4462   6.714   4.566   5.369
   45CHL1   C18 4463   6.624   4.443   5.353
   45CHL1  H18A 4464   6.673   4.358   5.301
   45CHL1  H18B 4465   6.588   4.391   5.445
   45CHL1  H18C 4466   6.532   4.471   5.297
   45CHL1   C12 4467   6.835   4.518   5.456
   45CHL1  H12A 4468   0.045   4.431   5.413
   45CHL1  H12B 4469   0.066   4.600   5.471
   45CHL1   C11 4470   6.786   4.490   5.597
   45CHL1  H11A 4471   6.717   4.404   5.603
   45CHL1  H11B 4472   0.036   4.466   5.654
   45CHL1    C9 4473   6.706   4.605   5.667
   45CHL1    H9 4474   6.777   4.690   5.667
   45CHL1   C10 4475   6.669   4.579   5.808
   45CHL1   C19 4476   6.594   4.447   5.817
   45CHL1  H19A 4477   6.665   4.366   5.789
   45CHL1  H19B 4478   6.558   4.436   5.921
   45CHL1  H19C 4479   6.505   4.447   5.751
   45CHL1    C1 4480   6.796   4.566   5.888
   45CHL1   H1A 4481   0.029   4.492   5.855
   45CHL1   H1B 4482   0.008   4.661   5.871
   45CHL1    C2 4483   6.775   4.567   6.039
   45CHL1   H2A 4484   0.026   4.539   6.092
   45CHL1   H2B 4485   6.719   4.478   6.075
   45CHL1   C20 4486   6.810   4.525   5.124
   45CHL1   H20 4487   6.839   4.433   5.179
   45CHL1   C21 4488   0.101   4.587   5.071
   45CHL1  H21A 4489   0.159   4.511   5.013
   45CHL1  H21B 4490   0.171   4.636   5.141
   45CHL1  H21C 4491   0.072   4.671   5.004
   45CHL1   C22 4492   6.720   4.475   5.008
   45CHL1  H22A 4493   6.644   4.409   5.055
   45CHL1  H22B 4494   6.666   4.551   4.948
   45CHL1   C23 4495   6.807   4.382   4.914
   45CHL1  H23A 4496   0.042   4.441   4.860
   45CHL1  H23B 4497   0.028   4.321   4.982
   45CHL1   C24 4498   6.720   4.295   4.826
   45CHL1  H24A 4499   6.653   4.219   4.871
   45CHL1  H24B 4500   6.642   4.353   4.772
   45CHL1   C25 4501   6.807   4.219   4.719
   45CHL1   H25 4502   0.027   4.292   4.663
   45CHL1   C26 4503   0.059   4.117   4.783
   45CHL1  H26A 4504   0.001   4.026   4.809
   45CHL1  H26B 4505   0.140   4.085   4.714
   45CHL1  H26C 4506   0.110   4.166   4.869
   45CHL1   C27 4507   6.719   4.146   4.613
   45CHL1  H27A 4508   6.651   4.077   4.668
   45CHL1  H27B 4509   6.666   4.224   4.555
   45CHL1  H27C 4510   6.779   4.097   4.534
   46CHL1    C3 4511   1.824   6.228   6.008
   46CHL1    H3 4512   1.759   6.147   5.968
   46CHL1    O3 4513   1.830   6.220   6.157
   46CHL1   H3' 4514   1.910   6.170   6.176
   46CHL1    C4 4515   1.969   6.210   5.944
   46CHL1   H4A 4516   2.022   6.292   5.996
   46CHL1   H4B 4517   2.009   6.119   5.992
   46CHL1    C5 4518   1.968   6.213   5.797
   46CHL1    C6 4519   2.025   6.114   5.731
   46CHL1    H6 4520   2.100   6.045   5.773
   46CHL1    C7 4521   2.019   6.113   5.580
   46CHL1   H7A 4522   2.116   6.068   5.550
   46CHL1   H7B 4523   1.948   6.036   5.542
   46CHL1    C8 4524   1.996   6.256   5.517
   46CHL1    H8 4525   2.086   6.316   5.540
   46CHL1   C14 4526   1.966   6.242   5.367
   46CHL1   H14 4527   1.869   6.188   5.357
   46CHL1   C15 4528   2.059   6.149   5.280
   46CHL1  H15A 4529   2.156   6.197   5.306
   46CHL1  H15B 4530   2.051   6.046   5.320
   46CHL1   C16 4531   2.005   6.181   5.138
   46CHL1  H16A 4532   2.088   6.219   5.074
   46CHL1  H16B 4533   1.949   6.095   5.097
   46CHL1   C17 4534   1.909   6.306   5.145
   46CHL1   H17 4535   1.803   6.273   5.147
   46CHL1   C13 4536   1.927   6.362   5.288
   46CHL1   C18 4537   2.051   6.455   5.281
   46CHL1  H18A 4538   2.124   6.423   5.204
   46CHL1  H18B 4539   2.022   6.560   5.258
   46CHL1  H18C 4540   2.109   6.448   5.375
   46CHL1   C12 4541   1.804   6.438   5.357
   46CHL1  H12A 4542   1.778   6.535   5.309
   46CHL1  H12B 4543   1.718   6.367   5.356
   46CHL1   C11 4544   1.845   6.458   5.503
   46CHL1  H11A 4545   1.931   6.529   5.506
   46CHL1  H11B 4546   1.753   6.507   5.541
   46CHL1    C9 4547   1.878   6.331   5.579
   46CHL1    H9 4548   1.790   6.264   5.574
   46CHL1   C10 4549   1.903   6.341   5.737
   46CHL1   C19 4550   1.998   6.459   5.764
   46CHL1  H19A 4551   2.089   6.435   5.704
   46CHL1  H19B 4552   1.970   6.558   5.723
   46CHL1  H19C 4553   2.029   6.461   5.871
   46CHL1    C1 4554   1.767   6.368   5.805
   46CHL1   H1A 4555   1.718   6.461   5.768
   46CHL1   H1B 4556   1.702   6.283   5.777
   46CHL1    C2 4557   1.757   6.363   5.965
   46CHL1   H2A 4558   1.652   6.371   5.998
   46CHL1   H2B 4559   1.818   6.446   6.007
   46CHL1   C20 4560   1.912   6.404   5.028
   46CHL1   H20 4561   2.010   6.457   5.030
   46CHL1   C21 4562   1.801   6.523   5.045
   46CHL1  H21A 4563   1.784   6.580   4.951
   46CHL1  H21B 4564   1.830   6.594   5.125
   46CHL1  H21C 4565   1.713   6.466   5.081
   46CHL1   C22 4566   1.901   6.333   4.896
   46CHL1  H22A 4567   1.974   6.250   4.888
   46CHL1  H22B 4568   1.808   6.273   4.883
   46CHL1   C23 4569   1.936   6.413   4.766
   46CHL1  H23A 4570   1.872   6.503   4.774
   46CHL1  H23B 4571   2.044   6.440   4.765
   46CHL1   C24 4572   1.895   6.328   4.648
   46CHL1  H24A 4573   1.960   6.238   4.653
   46CHL1  H24B 4574   1.787   6.303   4.655
   46CHL1   C25 4575   1.923   6.377   4.507
   46CHL1   H25 4576   2.032   6.399   4.501
   46CHL1   C26 4577   1.873   6.275   4.403
   46CHL1  H26A 4578   1.916   6.173   4.409
   46CHL1  H26B 4579   1.764   6.265   4.422
   46CHL1  H26C 4580   1.869   6.313   4.299
   46CHL1   C27 4581   1.846   6.503   4.484
   46CHL1  H27A 4582   1.894   6.565   4.562
   46CHL1  H27B 4583   1.865   6.544   4.382
   46CHL1  H27C 4584   1.737   6.497   4.499
   47CHL1    C3 4585   3.869   4.844   5.981
   47CHL1    H3 4586   3.869   4.954   5.965
   47CHL1    O3 4587   3.879   4.830   6.119
   47CHL1   H3' 4588   3.868   4.737   6.140
   47CHL1    C4 4589   3.728   4.795   5.939
   47CHL1   H4A 4590   3.701   4.699   5.989
   47CHL1   H4B 4591   3.654   4.868   5.978
   47CHL1    C5 4592   3.716   4.784   5.790
   47CHL1    C6 4593   3.623   4.844   5.718
   47CHL1    H6 4594   3.549   4.893   5.784
   47CHL1    C7 4595   3.608   4.851   5.572
   47CHL1   H7A 4596   3.500   4.853   5.544
   47CHL1   H7B 4597   3.652   4.945   5.533
   47CHL1    C8 4598   3.687   4.731   5.504
   47CHL1    H8 4599   3.633   4.637   5.530
   47CHL1   C14 4600   3.700   4.763   5.353
   47CHL1   H14 4601   3.768   4.850   5.343
   47CHL1   C15 4602   3.566   4.772   5.279
   47CHL1  H15A 4603   3.483   4.711   5.319
   47CHL1  H15B 4604   3.518   4.872   5.290
   47CHL1   C16 4605   3.601   4.741   5.136
   47CHL1  H16A 4606   3.535   4.657   5.107
   47CHL1  H16B 4607   3.583   4.827   5.067
   47CHL1   C17 4608   3.747   4.694   5.135
   47CHL1   H17 4609   3.805   4.787   5.122
   47CHL1   C13 4610   3.770   4.646   5.279
   47CHL1   C18 4611   3.696   4.513   5.286
   47CHL1  H18A 4612   3.675   4.486   5.392
   47CHL1  H18B 4613   3.602   4.513   5.227
   47CHL1  H18C 4614   3.760   4.432   5.245
   47CHL1   C12 4615   3.917   4.622   5.331
   47CHL1  H12A 4616   3.964   4.531   5.289
   47CHL1  H12B 4617   3.974   4.715   5.311
   47CHL1   C11 4618   3.908   4.605   5.486
   47CHL1  H11A 4619   3.856   4.509   5.503
   47CHL1  H11B 4620   4.014   4.598   5.518
   47CHL1    C9 4621   3.823   4.715   5.563
   47CHL1    H9 4622   3.868   4.811   5.532
   47CHL1   C10 4623   3.835   4.711   5.717
   47CHL1   C19 4624   3.821   4.555   5.753
   47CHL1  H19A 4625   3.920   4.508   5.733
   47CHL1  H19B 4626   3.795   4.538   5.859
   47CHL1  H19C 4627   3.746   4.508   5.686
   47CHL1    C1 4628   3.971   4.772   5.768
   47CHL1   H1A 4629   4.056   4.713   5.729
   47CHL1   H1B 4630   3.974   4.880   5.741
   47CHL1    C2 4631   3.986   4.772   5.918
   47CHL1   H2A 4632   4.074   4.834   5.946
   47CHL1   H2B 4633   4.000   4.671   5.962
   47CHL1   C20 4634   3.786   4.609   5.015
   47CHL1   H20 4635   3.730   4.513   5.011
   47CHL1   C21 4636   3.930   4.584   5.029
   47CHL1  H21A 4637   3.951   4.549   4.926
   47CHL1  H21B 4638   3.957   4.503   5.100
   47CHL1  H21C 4639   3.980   4.681   5.050
   47CHL1   C22 4640   3.746   4.678   4.882
   47CHL1  H22A 4641   3.637   4.697   4.879
   47CHL1  H22B 4642   3.798   4.776   4.873
   47CHL1   C23 4643   3.755   4.590   4.757
   47CHL1  H23A 4644   3.859   4.597   4.717
   47CHL1  H23B 4645   3.744   4.485   4.792
   47CHL1   C24 4646   3.647   4.618   4.654
   47CHL1  H24A 4647   3.544   4.616   4.695
   47CHL1  H24B 4648   3.662   4.720   4.612
   47CHL1   C25 4649   3.654   4.524   4.538
   47CHL1   H25 4650   3.609   4.425   4.560
   47CHL1   C26 4651   3.576   4.569   4.412
   47CHL1  H26A 4652   3.468   4.572   4.436
   47CHL1  H26B 4653   3.610   4.671   4.385
   47CHL1  H26C 4654   3.583   4.503   4.323
   47CHL1   C27 4655   3.799   4.507   4.485
   47CHL1  H27A 4656   3.858   4.440   4.552
   47CHL1  H27B 4657   3.798   4.458   4.385
   47CHL1  H27C 4658   3.860   4.599   4.473
   48CHL1    C3 4659   1.190   5.752   5.882
   48CHL1    H3 4660   1.238   5.847   5.912
   48CHL1    O3 4661   1.205   5.661   5.996
   48CHL1   H3' 4662   1.131   5.601   5.984
   48CHL1    C4 4663   1.042   5.771   5.836
   48CHL1   H4A 4664   0.983   5.677   5.835
   48CHL1   H4B 4665   0.990   5.831   5.913
   48CHL1    C5 4666   1.032   5.858   5.709
   48CHL1    C6 4667   0.952   5.966   5.710
   48CHL1    H6 4668   0.900   6.005   5.799
   48CHL1    C7 4669   0.934   6.050   5.588
   48CHL1   H7A 4670   0.825   6.071   5.586
   48CHL1   H7B 4671   0.988   6.146   5.600
   48CHL1    C8 4672   0.983   5.978   5.457
   48CHL1    H8 4673   0.914   5.897   5.426
   48CHL1   C14 4674   0.988   6.081   5.344
   48CHL1   H14 4675   1.068   6.151   5.374
   48CHL1   C15 4676   0.858   6.166   5.329
   48CHL1  H15A 4677   0.774   6.094   5.318
   48CHL1  H15B 4678   0.839   6.236   5.413
   48CHL1   C16 4679   0.876   6.234   5.187
   48CHL1  H16A 4680   0.782   6.224   5.130
   48CHL1  H16B 4681   0.882   6.344   5.202
   48CHL1   C17 4682   1.011   6.166   5.129
   48CHL1   H17 4683   1.099   6.226   5.160
   48CHL1   C13 4684   1.033   6.028   5.205
   48CHL1   C18 4685   0.931   5.920   5.153
   48CHL1  H18A 4686   0.976   5.874   5.063
   48CHL1  H18B 4687   0.908   5.852   5.238
   48CHL1  H18C 4688   0.838   5.974   5.126
   48CHL1   C12 4689   1.180   5.967   5.226
   48CHL1  H12A 4690   1.211   5.920   5.130
   48CHL1  H12B 4691   1.248   6.048   5.260
   48CHL1   C11 4692   1.183   5.867   5.342
   48CHL1  H11A 4693   1.123   5.779   5.311
   48CHL1  H11B 4694   1.284   5.825   5.362
   48CHL1    C9 4695   1.119   5.914   5.477
   48CHL1    H9 4696   1.190   5.994   5.509
   48CHL1   C10 4697   1.121   5.811   5.586
   48CHL1   C19 4698   1.065   5.679   5.535
   48CHL1  H19A 4699   1.066   5.610   5.622
   48CHL1  H19B 4700   0.964   5.684   5.490
   48CHL1  H19C 4701   1.141   5.635   5.467
   48CHL1    C1 4702   1.260   5.786   5.641
   48CHL1   H1A 4703   1.327   5.749   5.560
   48CHL1   H1B 4704   1.308   5.878   5.681
   48CHL1    C2 4705   1.274   5.695   5.765
   48CHL1   H2A 4706   1.378   5.679   5.802
   48CHL1   H2B 4707   1.228   5.598   5.735
   48CHL1   C20 4708   1.021   6.164   4.982
   48CHL1   H20 4709   0.938   6.108   4.934
   48CHL1   C21 4710   1.164   6.103   4.948
   48CHL1  H21A 4711   1.152   5.993   4.945
   48CHL1  H21B 4712   1.208   6.137   4.852
   48CHL1  H21C 4713   1.237   6.137   5.025
   48CHL1   C22 4714   1.020   6.316   4.918
   48CHL1  H22A 4715   0.938   6.367   4.973
   48CHL1  H22B 4716   1.116   6.364   4.947
   48CHL1   C23 4717   0.992   6.324   4.768
   48CHL1  H23A 4718   1.082   6.279   4.720
   48CHL1  H23B 4719   0.899   6.267   4.750
   48CHL1   C24 4720   0.974   6.464   4.722
   48CHL1  H24A 4721   0.878   6.489   4.772
   48CHL1  H24B 4722   1.053   6.534   4.756
   48CHL1   C25 4723   0.942   6.489   4.565
   48CHL1   H25 4724   0.917   6.597   4.557
   48CHL1   C26 4725   1.063   6.451   4.477
   48CHL1  H26A 4726   1.146   6.525   4.474
   48CHL1  H26B 4727   1.118   6.365   4.522
   48CHL1  H26C 4728   1.035   6.430   4.372
   48CHL1   C27 4729   0.814   6.418   4.519
   48CHL1  H27A 4730   0.774   6.468   4.428
   48CHL1  H27B 4731   0.841   6.313   4.494
   48CHL1  H27C 4732   0.736   6.412   4.597
   49CHL1    C3 4733   4.437   4.166   2.727
   49CHL1    H3 4734   4.500   4.075   2.740
   49CHL1    O3 4735   4.408   4.181   2.587
   49CHL1   H3' 4736   4.494   4.191   2.544
   49CHL1    C4 4737   4.304   4.140   2.796
   49CHL1   H4A 4738   4.233   4.224   2.778
   49CHL1   H4B 4739   4.264   4.046   2.753
   49CHL1    C5 4740   4.324   4.129   2.941
   49CHL1    C6 4741   4.306   4.012   3.012
   49CHL1    H6 4742   4.278   3.919   2.960
   49CHL1    C7 4743   4.317   4.002   3.159
   49CHL1   H7A 4744   4.224   3.963   3.206
   49CHL1   H7B 4745   4.406   3.937   3.167
   49CHL1    C8 4746   4.342   4.134   3.235
   49CHL1    H8 4747   4.241   4.176   3.251
   49CHL1   C14 4748   4.407   4.113   3.372
   49CHL1   H14 4749   4.509   4.073   3.356
   49CHL1   C15 4750   4.352   4.016   3.479
   49CHL1  H15A 4751   4.243   4.021   3.503
   49CHL1  H15B 4752   4.382   3.911   3.457
   49CHL1   C16 4753   4.408   4.069   3.612
   49CHL1  H16A 4754   4.319   4.103   3.669
   49CHL1  H16B 4755   4.462   3.989   3.667
   49CHL1   C17 4756   4.501   4.191   3.586
   49CHL1   H17 4757   4.603   4.153   3.565
   49CHL1   C13 4758   4.437   4.243   3.450
   49CHL1   C18 4759   4.310   4.316   3.484
   49CHL1  H18A 4760   4.350   4.397   3.548
   49CHL1  H18B 4761   4.259   4.351   3.392
   49CHL1  H18C 4762   4.237   4.252   3.537
   49CHL1   C12 4763   4.528   4.336   3.366
   49CHL1  H12A 4764   4.535   4.437   3.414
   49CHL1  H12B 4765   4.635   4.305   3.370
   49CHL1   C11 4766   4.468   4.351   3.227
   49CHL1  H11A 4767   4.373   4.405   3.245
   49CHL1  H11B 4768   4.534   4.420   3.169
   49CHL1    C9 4769   4.431   4.222   3.152
   49CHL1    H9 4770   4.526   4.166   3.140
   49CHL1   C10 4771   4.383   4.249   3.005
   49CHL1   C19 4772   4.273   4.361   3.013
   49CHL1  H19A 4773   4.188   4.335   3.079
   49CHL1  H19B 4774   4.324   4.457   3.036
   49CHL1  H19C 4775   4.226   4.375   2.913
   49CHL1    C1 4776   4.516   4.292   2.930
   49CHL1   H1A 4777   4.544   4.397   2.953
   49CHL1   H1B 4778   4.598   4.220   2.947
   49CHL1    C2 4779   4.497   4.294   2.780
   49CHL1   H2A 4780   4.595   4.315   2.732
   49CHL1   H2B 4781   4.430   4.378   2.751
   49CHL1   C20 4782   4.514   4.276   3.714
   49CHL1   H20 4783   4.411   4.306   3.741
   49CHL1   C21 4784   4.599   4.411   3.697
   49CHL1  H21A 4785   4.611   4.472   3.789
   49CHL1  H21B 4786   4.563   4.476   3.614
   49CHL1  H21C 4787   4.697   4.391   3.649
   49CHL1   C22 4788   4.588   4.191   3.819
   49CHL1  H22A 4789   4.536   4.093   3.825
   49CHL1  H22B 4790   4.687   4.174   3.772
   49CHL1   C23 4791   4.597   4.247   3.964
   49CHL1  H23A 4792   4.631   4.161   4.025
   49CHL1  H23B 4793   4.677   4.325   3.960
   49CHL1   C24 4794   4.468   4.314   4.017
   49CHL1  H24A 4795   4.459   4.412   3.966
   49CHL1  H24B 4796   4.380   4.256   3.981
   49CHL1   C25 4797   4.469   4.324   4.170
   49CHL1   H25 4798   4.377   4.376   4.202
   49CHL1   C26 4799   4.459   4.191   4.245
   49CHL1  H26A 4800   4.386   4.129   4.188
   49CHL1  H26B 4801   4.556   4.137   4.245
   49CHL1  H26C 4802   4.417   4.190   4.348
   49CHL1   C27 4803   4.589   4.406   4.234
   49CHL1  H27A 4804   4.572   4.433   4.340
   49CHL1  H27B 4805   4.682   4.348   4.220
   49CHL1  H27C 4806   4.593   4.505   4.185
   50CHL1    C3 4807   3.367   1.527   2.783
   50CHL1    H3 4808   3.373   1.621   2.841
   50CHL1    O3 4809   3.355   1.551   2.644
   50CHL1   H3' 4810   3.332   1.644   2.638
   50CHL1    C4 4811   3.496   1.442   2.803
   50CHL1   H4A 4812   3.474   1.344   2.756
   50CHL1   H4B 4813   3.578   1.488   2.743
   50CHL1    C5 4814   3.529   1.426   2.952
   50CHL1    C6 4815   3.640   1.479   3.001
   50CHL1    H6 4816   3.713   1.527   2.935
   50CHL1    C7 4817   3.679   1.465   3.145
   50CHL1   H7A 4818   3.784   1.430   3.152
   50CHL1   H7B 4819   3.669   1.562   3.198
   50CHL1    C8 4820   3.589   1.355   3.219
   50CHL1    H8 4821   3.625   1.261   3.172
   50CHL1   C14 4822   3.618   1.360   3.365
   50CHL1   H14 4823   3.595   1.463   3.401
   50CHL1   C15 4824   3.758   1.328   3.415
   50CHL1  H15A 4825   3.806   1.248   3.354
   50CHL1  H15B 4826   3.827   1.415   3.408
   50CHL1   C16 4827   3.742   1.272   3.561
   50CHL1  H16A 4828   3.784   1.172   3.584
   50CHL1  H16B 4829   3.788   1.350   3.625
   50CHL1   C17 4830   3.592   1.279   3.587
   50CHL1   H17 4831   3.572   1.382   3.622
   50CHL1   C13 4832   3.529   1.273   3.450
   50CHL1   C18 4833   3.545   1.130   3.400
   50CHL1  H18A 4834   3.467   1.066   3.446
   50CHL1  H18B 4835   3.519   1.126   3.292
   50CHL1  H18C 4836   3.638   1.082   3.436
   50CHL1   C12 4837   3.387   1.324   3.433
   50CHL1  H12A 4838   3.320   1.263   3.497
   50CHL1  H12B 4839   3.366   1.432   3.449
   50CHL1   C11 4840   3.346   1.309   3.287
   50CHL1  H11A 4841   3.335   1.201   3.267
   50CHL1  H11B 4842   3.244   1.352   3.274
   50CHL1    C9 4843   3.440   1.380   3.187
   50CHL1    H9 4844   3.417   1.489   3.193
   50CHL1   C10 4845   3.415   1.367   3.032
   50CHL1   C19 4846   3.409   1.216   3.005
   50CHL1  H19A 4847   3.328   1.169   3.064
   50CHL1  H19B 4848   3.390   1.209   2.896
   50CHL1  H19C 4849   3.509   1.168   3.015
   50CHL1    C1 4850   3.283   1.428   2.990
   50CHL1   H1A 4851   3.201   1.368   3.033
   50CHL1   H1B 4852   3.273   1.532   3.028
   50CHL1    C2 4853   3.252   1.451   2.840
   50CHL1   H2A 4854   3.154   1.501   2.828
   50CHL1   H2B 4855   3.247   1.348   2.798
   50CHL1   C20 4856   3.554   1.184   3.703
   50CHL1   H20 4857   3.565   1.081   3.665
   50CHL1   C21 4858   3.404   1.184   3.736
   50CHL1  H21A 4859   3.379   1.124   3.826
   50CHL1  H21B 4860   3.339   1.142   3.657
   50CHL1  H21C 4861   3.357   1.285   3.746
   50CHL1   C22 4862   3.640   1.192   3.832
   50CHL1  H22A 4863   3.611   1.119   3.910
   50CHL1  H22B 4864   3.744   1.166   3.804
   50CHL1   C23 4865   3.647   1.332   3.897
   50CHL1  H23A 4866   3.699   1.407   3.832
   50CHL1  H23B 4867   3.546   1.374   3.918
   50CHL1   C24 4868   3.736   1.340   4.026
   50CHL1  H24A 4869   3.686   1.290   4.112
   50CHL1  H24B 4870   3.835   1.297   3.999
   50CHL1   C25 4871   3.754   1.484   4.080
   50CHL1   H25 4872   3.654   1.529   4.095
   50CHL1   C26 4873   3.808   1.488   4.227
   50CHL1  H26A 4874   3.910   1.444   4.227
   50CHL1  H26B 4875   3.810   1.588   4.275
   50CHL1  H26C 4876   3.749   1.420   4.292
   50CHL1   C27 4877   3.840   1.581   3.996
   50CHL1  H27A 4878   3.793   1.604   3.898
   50CHL1  H27B 4879   3.843   1.680   4.048
   50CHL1  H27C 4880   3.946   1.554   4.014
   51CHL1    C3 4881   4.046   2.732   2.484
   51CHL1    H3 4882   4.004   2.629   2.480
   51CHL1    O3 4883   4.074   2.791   2.355
   51CHL1   H3' 4884   4.039   2.879   2.346
   51CHL1    C4 4885   3.928   2.818   2.548
   51CHL1   H4A 4886   3.960   2.924   2.539
   51CHL1   H4B 4887   3.844   2.808   2.477
   51CHL1    C5 4888   3.913   2.786   2.696
   51CHL1    C6 4889   3.789   2.747   2.736
   51CHL1    H6 4890   3.706   2.761   2.665
   51CHL1    C7 4891   3.756   2.694   2.875
   51CHL1   H7A 4892   3.655   2.722   2.912
   51CHL1   H7B 4893   3.773   2.584   2.873
   51CHL1    C8 4894   3.864   2.751   2.974
   51CHL1    H8 4895   3.862   2.861   2.991
   51CHL1   C14 4896   3.842   2.682   3.115
   51CHL1   H14 4897   3.855   2.572   3.106
   51CHL1   C15 4898   3.704   2.700   3.181
   51CHL1  H15A 4899   3.675   2.805   3.163
   51CHL1  H15B 4900   3.631   2.626   3.142
   51CHL1   C16 4901   3.731   2.669   3.332
   51CHL1  H16A 4902   3.682   2.750   3.390
   51CHL1  H16B 4903   3.693   2.573   3.373
   51CHL1   C17 4904   3.893   2.673   3.358
   51CHL1   H17 4905   3.933   2.569   3.351
   51CHL1   C13 4906   3.936   2.737   3.228
   51CHL1   C18 4907   3.918   2.890   3.247
   51CHL1  H18A 4908   3.822   2.913   3.297
   51CHL1  H18B 4909   3.999   2.926   3.314
   51CHL1  H18C 4910   3.929   2.953   3.156
   51CHL1   C12 4911   4.078   2.709   3.177
   51CHL1  H12A 4912   4.154   2.742   3.251
   51CHL1  H12B 4913   4.074   2.598   3.169
   51CHL1   C11 4914   4.111   2.771   3.039
   51CHL1  H11A 4915   4.121   2.880   3.061
   51CHL1  H11B 4916   4.210   2.730   3.010
   51CHL1    C9 4917   4.013   2.728   2.925
   51CHL1    H9 4918   4.028   2.618   2.927
   51CHL1   C10 4919   4.038   2.782   2.781
   51CHL1   C19 4920   4.091   2.925   2.807
   51CHL1  H19A 4921   4.100   2.981   2.712
   51CHL1  H19B 4922   4.022   2.985   2.870
   51CHL1  H19C 4923   4.193   2.916   2.851
   51CHL1    C1 4924   4.158   2.691   2.719
   51CHL1   H1A 4925   4.255   2.721   2.765
   51CHL1   H1B 4926   4.134   2.583   2.728
   51CHL1    C2 4927   4.179   2.726   2.570
   51CHL1   H2A 4928   4.246   2.654   2.518
   51CHL1   H2B 4929   4.219   2.829   2.583
   51CHL1   C20 4930   3.931   2.730   3.493
   51CHL1   H20 4931   3.907   2.838   3.507
   51CHL1   C21 4932   4.080   2.701   3.524
   51CHL1  H21A 4933   4.120   2.735   3.622
   51CHL1  H21B 4934   4.144   2.760   3.455
   51CHL1  H21C 4935   4.103   2.592   3.520
   51CHL1   C22 4936   3.845   2.661   3.604
   51CHL1  H22A 4937   3.738   2.676   3.575
   51CHL1  H22B 4938   3.867   2.553   3.600
   51CHL1   C23 4939   3.864   2.705   3.752
   51CHL1  H23A 4940   3.968   2.675   3.779
   51CHL1  H23B 4941   3.862   2.815   3.763
   51CHL1   C24 4942   3.750   2.656   3.837
   51CHL1  H24A 4943   3.654   2.686   3.790
   51CHL1  H24B 4944   3.769   2.547   3.839
   51CHL1   C25 4945   3.752   2.695   3.990
   51CHL1   H25 4946   3.715   2.800   3.990
   51CHL1   C26 4947   3.644   2.618   4.074
   51CHL1  H26A 4948   3.648   2.667   4.174
   51CHL1  H26B 4949   3.542   2.627   4.030
   51CHL1  H26C 4950   3.662   2.510   4.088
   51CHL1   C27 4951   3.880   2.681   4.063
   51CHL1  H27A 4952   3.846   2.692   4.168
   51CHL1  H27B 4953   3.909   2.574   4.055
   51CHL1  H27C 4954   3.954   2.760   4.035
   52CHL1    C3 4955   2.967   3.933   2.577
   52CHL1    H3 4956   2.865   3.966   2.604
   52CHL1    O3 4957   2.954   3.871   2.450
   52CHL1   H3' 4958   2.898   3.931   2.399
   52CHL1    C4 4959   3.085   4.036   2.575
   52CHL1   H4A 4960   3.161   3.974   2.522
   52CHL1   H4B 4961   3.044   4.121   2.516
   52CHL1    C5 4962   3.131   4.094   2.707
   52CHL1    C6 4963   3.142   4.226   2.722
   52CHL1    H6 4964   3.112   4.300   2.647
   52CHL1    C7 4965   3.195   4.285   2.856
   52CHL1   H7A 4966   3.279   4.351   2.827
   52CHL1   H7B 4967   3.108   4.334   2.904
   52CHL1    C8 4968   3.253   4.179   2.957
   52CHL1    H8 4969   3.358   4.160   2.928
   52CHL1   C14 4970   3.264   4.242   3.098
   52CHL1   H14 4971   3.158   4.270   3.112
   52CHL1   C15 4972   3.349   4.367   3.111
   52CHL1  H15A 4973   3.439   4.352   3.048
   52CHL1  H15B 4974   3.300   4.453   3.060
   52CHL1   C16 4975   3.374   4.375   3.256
   52CHL1  H16A 4976   3.484   4.376   3.274
   52CHL1  H16B 4977   3.337   4.468   3.303
   52CHL1   C17 4978   3.313   4.246   3.327
   52CHL1   H17 4979   3.208   4.270   3.356
   52CHL1   C13 4980   3.306   4.147   3.209
   52CHL1   C18 4981   3.435   4.082   3.173
   52CHL1  H18A 4982   3.517   4.157   3.184
   52CHL1  H18B 4983   3.462   4.002   3.244
   52CHL1  H18C 4984   3.441   4.029   3.075
   52CHL1   C12 4985   3.200   4.035   3.211
   52CHL1  H12A 4986   3.220   3.968   3.297
   52CHL1  H12B 4987   3.100   4.082   3.226
   52CHL1   C11 4988   3.191   3.953   3.077
   52CHL1  H11A 4989   3.276   3.885   3.055
   52CHL1  H11B 4990   3.114   3.874   3.091
   52CHL1    C9 4991   3.164   4.047   2.957
   52CHL1    H9 4992   3.064   4.089   2.977
   52CHL1   C10 4993   3.157   3.990   2.818
   52CHL1   C19 4994   3.294   3.924   2.784
   52CHL1  H19A 4995   3.324   3.841   2.852
   52CHL1  H19B 4996   3.285   3.883   2.681
   52CHL1  H19C 4997   3.379   3.996   2.791
   52CHL1    C1 4998   3.052   3.875   2.815
   52CHL1   H1A 4999   3.090   3.798   2.885
   52CHL1   H1B 5000   2.974   3.927   2.876
   52CHL1    C2 5001   3.015   3.820   2.680
   52CHL1   H2A 5002   2.928   3.752   2.682
   52CHL1   H2B 5003   3.102   3.762   2.643
   52CHL1   C20 5004   3.393   4.206   3.455
   52CHL1   H20 5005   3.496   4.172   3.433
   52CHL1   C21 5006   3.312   4.096   3.533
   52CHL1  H21A 5007   3.364   4.068   3.627
   52CHL1  H21B 5008   3.305   4.003   3.473
   52CHL1  H21C 5009   3.205   4.120   3.554
   52CHL1   C22 5010   3.421   4.333   3.551
   52CHL1  H22A 5011   3.491   4.408   3.508
   52CHL1  H22B 5012   3.320   4.377   3.566
   52CHL1   C23 5013   3.485   4.297   3.685
   52CHL1  H23A 5014   3.413   4.239   3.746
   52CHL1  H23B 5015   3.575   4.241   3.650
   52CHL1   C24 5016   3.540   4.422   3.754
   52CHL1  H24A 5017   3.618   4.475   3.695
   52CHL1  H24B 5018   3.464   4.497   3.785
   52CHL1   C25 5019   3.595   4.382   3.891
   52CHL1   H25 5020   3.659   4.292   3.875
   52CHL1   C26 5021   3.677   4.485   3.959
   52CHL1  H26A 5022   3.627   4.582   3.974
   52CHL1  H26B 5023   3.706   4.455   4.062
   52CHL1  H26C 5024   3.768   4.509   3.899
   52CHL1   C27 5025   3.478   4.329   3.993
   52CHL1  H27A 5026   3.408   4.414   4.006
   52CHL1  H27B 5027   3.425   4.245   3.944
   52CHL1  H27C 5028   3.528   4.288   4.083
   53CHL1    C3 5029   3.271   3.089   2.846
   53CHL1    H3 5030   3.249   3.192   2.883
   53CHL1    O3 5031   3.274   3.097   2.703
   53CHL1   H3' 5032   3.239   3.015   2.666
   53CHL1    C4 5033   3.407   3.032   2.898
   53CHL1   H4A 5034   3.408   2.934   2.846
   53CHL1   H4B 5035   3.483   3.103   2.858
   53CHL1    C5 5036   3.412   3.032   3.047
   53CHL1    C6 5037   3.513   3.092   3.121
   53CHL1    H6 5038   3.594   3.147   3.069
   53CHL1    C7 5039   3.539   3.071   3.275
   53CHL1   H7A 5040   3.641   3.042   3.305
   53CHL1   H7B 5041   3.497   3.160   3.326
   53CHL1    C8 5042   3.437   2.962   3.330
   53CHL1    H8 5043   3.486   2.864   3.311
   53CHL1   C14 5044   3.423   2.985   3.480
   53CHL1   H14 5045   3.377   3.086   3.482
   53CHL1   C15 5046   3.551   3.012   3.564
   53CHL1  H15A 5047   3.627   2.931   3.562
   53CHL1  H15B 5048   3.592   3.114   3.552
   53CHL1   C16 5049   3.493   3.001   3.706
   53CHL1  H16A 5050   3.550   2.929   3.768
   53CHL1  H16B 5051   3.505   3.093   3.768
   53CHL1   C17 5052   3.353   2.944   3.699
   53CHL1   H17 5053   3.283   3.030   3.694
   53CHL1   C13 5054   3.335   2.883   3.552
   53CHL1   C18 5055   3.399   2.749   3.549
   53CHL1  H18A 5056   3.418   2.708   3.448
   53CHL1  H18B 5057   3.492   2.758   3.609
   53CHL1  H18C 5058   3.339   2.674   3.604
   53CHL1   C12 5059   3.195   2.891   3.492
   53CHL1  H12A 5060   3.120   2.817   3.527
   53CHL1  H12B 5061   3.157   2.994   3.510
   53CHL1   C11 5062   3.193   2.880   3.336
   53CHL1  H11A 5063   3.218   2.772   3.326
   53CHL1  H11B 5064   3.090   2.901   3.301
   53CHL1    C9 5065   3.297   2.972   3.265
   53CHL1    H9 5066   3.259   3.076   3.274
   53CHL1   C10 5067   3.299   2.948   3.113
   53CHL1   C19 5068   3.324   2.795   3.079
   53CHL1  H19A 5069   3.325   2.777   2.970
   53CHL1  H19B 5070   3.417   2.751   3.120
   53CHL1  H19C 5071   3.240   2.734   3.119
   53CHL1    C1 5072   3.163   2.984   3.044
   53CHL1   H1A 5073   3.076   2.921   3.074
   53CHL1   H1B 5074   3.143   3.091   3.066
   53CHL1    C2 5075   3.161   2.987   2.888
   53CHL1   H2A 5076   3.065   3.021   2.846
   53CHL1   H2B 5077   3.191   2.891   2.839
   53CHL1   C20 5078   3.307   2.865   3.823
   53CHL1   H20 5079   3.388   2.791   3.843
   53CHL1   C21 5080   3.178   2.780   3.812
   53CHL1  H21A 5081   3.162   2.703   3.890
   53CHL1  H21B 5082   3.178   2.725   3.715
   53CHL1  H21C 5083   3.095   2.854   3.812
   53CHL1   C22 5084   3.314   2.955   3.953
   53CHL1  H22A 5085   3.419   2.993   3.952
   53CHL1  H22B 5086   3.251   3.046   3.936
   53CHL1   C23 5087   3.286   2.889   4.083
   53CHL1  H23A 5088   3.177   2.865   4.084
   53CHL1  H23B 5089   3.347   2.796   4.093
   53CHL1   C24 5090   3.336   2.974   4.199
   53CHL1  H24A 5091   3.446   2.981   4.185
   53CHL1  H24B 5092   3.287   3.074   4.191
   53CHL1   C25 5093   3.297   2.930   4.340
   53CHL1   H25 5094   3.334   2.995   4.423
   53CHL1   C26 5095   3.145   2.936   4.356
   53CHL1  H26A 5096   3.103   2.859   4.288
   53CHL1  H26B 5097   3.113   2.923   4.462
   53CHL1  H26C 5098   3.106   3.035   4.321
   53CHL1   C27 5099   3.345   2.789   4.378
   53CHL1  H27A 5100   3.303   2.707   4.314
   53CHL1  H27B 5101   3.455   2.780   4.379
   53CHL1  H27C 5102   3.302   2.775   4.479
   54CHL1    C3 5103   2.527   2.976   2.762
   54CHL1    H3 5104   2.421   3.009   2.763
   54CHL1    O3 5105   2.566   2.976   2.629
   54CHL1   H3' 5106   2.520   2.897   2.600
   54CHL1    C4 5107   2.623   3.073   2.839
   54CHL1   H4A 5108   2.726   3.037   2.822
   54CHL1   H4B 5109   2.617   3.175   2.794
   54CHL1    C5 5110   2.612   3.074   2.988
   54CHL1    C6 5111   2.593   3.182   3.066
   54CHL1    H6 5112   2.576   3.270   3.002
   54CHL1    C7 5113   2.585   3.187   3.214
   54CHL1   H7A 5114   2.642   3.276   3.249
   54CHL1   H7B 5115   2.478   3.203   3.237
   54CHL1    C8 5116   2.619   3.055   3.280
   54CHL1    H8 5117   2.730   3.054   3.282
   54CHL1   C14 5118   2.565   3.042   3.420
   54CHL1   H14 5119   2.454   3.040   3.416
   54CHL1   C15 5120   2.591   3.165   3.515
   54CHL1  H15A 5121   2.698   3.194   3.516
   54CHL1  H15B 5122   2.528   3.254   3.491
   54CHL1   C16 5123   2.578   3.100   3.657
   54CHL1  H16A 5124   2.681   3.113   3.695
   54CHL1  H16B 5125   2.514   3.160   3.725
   54CHL1   C17 5126   2.543   2.949   3.635
   54CHL1   H17 5127   2.434   2.934   3.619
   54CHL1   C13 5128   2.611   2.917   3.500
   54CHL1   C18 5129   2.763   2.908   3.508
   54CHL1  H18A 5130   2.814   2.923   3.410
   54CHL1  H18B 5131   2.799   2.983   3.580
   54CHL1  H18C 5132   2.794   2.808   3.546
   54CHL1   C12 5133   2.555   2.794   3.424
   54CHL1  H12A 5134   2.576   2.691   3.460
   54CHL1  H12B 5135   2.445   2.808   3.417
   54CHL1   C11 5136   2.614   2.797   3.280
   54CHL1  H11A 5137   2.725   2.793   3.288
   54CHL1  H11B 5138   2.573   2.709   3.227
   54CHL1    C9 5139   2.572   2.927   3.199
   54CHL1    H9 5140   2.462   2.924   3.194
   54CHL1   C10 5141   2.621   2.937   3.049
   54CHL1   C19 5142   2.773   2.889   3.045
   54CHL1  H19A 5143   2.783   2.782   3.075
   54CHL1  H19B 5144   2.813   2.897   2.941
   54CHL1  H19C 5145   2.837   2.946   3.115
   54CHL1    C1 5146   2.521   2.850   2.961
   54CHL1   H1A 5147   2.531   2.746   2.999
   54CHL1   H1B 5148   2.416   2.881   2.980
   54CHL1    C2 5149   2.548   2.836   2.815
   54CHL1   H2A 5150   2.484   2.765   2.757
   54CHL1   H2B 5151   2.651   2.799   2.798
   54CHL1   C20 5152   2.581   2.876   3.758
   54CHL1   H20 5153   2.691   2.865   3.762
   54CHL1   C21 5154   2.529   2.732   3.751
   54CHL1  H21A 5155   2.559   2.684   3.847
   54CHL1  H21B 5156   2.581   2.672   3.673
   54CHL1  H21C 5157   2.420   2.716   3.735
   54CHL1   C22 5158   2.509   2.924   3.883
   54CHL1  H22A 5159   2.537   2.867   3.974
   54CHL1  H22B 5160   2.540   3.024   3.922
   54CHL1   C23 5161   2.355   2.943   3.874
   54CHL1  H23A 5162   2.338   3.015   3.791
   54CHL1  H23B 5163   2.289   2.856   3.853
   54CHL1   C24 5164   2.302   2.996   4.013
   54CHL1  H24A 5165   2.317   2.914   4.086
   54CHL1  H24B 5166   2.372   3.078   4.041
   54CHL1   C25 5167   2.156   3.038   4.010
   54CHL1   H25 5168   2.153   3.099   3.917
   54CHL1   C26 5169   2.056   2.918   3.998
   54CHL1  H26A 5170   2.080   2.838   4.072
   54CHL1  H26B 5171   1.952   2.950   4.021
   54CHL1  H26C 5172   2.046   2.860   3.904
   54CHL1   C27 5173   2.129   3.120   4.137
   54CHL1  H27A 5174   2.212   3.194   4.143
   54CHL1  H27B 5175   2.036   3.180   4.125
   54CHL1  H27C 5176   2.135   3.055   4.227
   55CHL1    C3 5177   3.633   6.237   2.577
   55CHL1    H3 5178   3.529   6.274   2.566
   55CHL1    O3 5179   3.682   6.252   2.449
   55CHL1   H3' 5180   3.671   6.345   2.430
   55CHL1    C4 5181   3.720   6.322   2.679
   55CHL1   H4A 5182   3.820   6.278   2.657
   55CHL1   H4B 5183   3.710   6.428   2.647
   55CHL1    C5 5184   3.677   6.307   2.826
   55CHL1    C6 5185   3.659   6.410   2.904
   55CHL1    H6 5186   3.670   6.511   2.863
   55CHL1    C7 5187   3.649   6.402   3.051
   55CHL1   H7A 5188   3.719   6.471   3.102
   55CHL1   H7B 5189   3.547   6.432   3.083
   55CHL1    C8 5190   3.672   6.262   3.103
   55CHL1    H8 5191   3.781   6.246   3.093
   55CHL1   C14 5192   3.619   6.253   3.242
   55CHL1   H14 5193   3.511   6.276   3.232
   55CHL1   C15 5194   3.674   6.354   3.339
   55CHL1  H15A 5195   3.784   6.361   3.324
   55CHL1  H15B 5196   3.615   6.446   3.320
   55CHL1   C16 5197   3.641   6.288   3.477
   55CHL1  H16A 5198   3.733   6.282   3.538
   55CHL1  H16B 5199   3.573   6.352   3.538
   55CHL1   C17 5200   3.587   6.146   3.450
   55CHL1   H17 5201   3.477   6.135   3.438
   55CHL1   C13 5202   3.637   6.112   3.306
   55CHL1   C18 5203   3.782   6.067   3.299
   55CHL1  H18A 5204   3.789   5.966   3.345
   55CHL1  H18B 5205   3.828   6.062   3.198
   55CHL1  H18C 5206   3.854   6.130   3.355
   55CHL1   C12 5207   3.539   6.028   3.221
   55CHL1  H12A 5208   3.525   5.928   3.266
   55CHL1  H12B 5209   3.436   6.069   3.216
   55CHL1   C11 5210   3.590   6.018   3.077
   55CHL1  H11A 5211   3.688   5.964   3.076
   55CHL1  H11B 5212   3.517   5.953   3.024
   55CHL1    C9 5213   3.611   6.155   3.013
   55CHL1    H9 5214   3.503   6.179   3.007
   55CHL1   C10 5215   3.671   6.159   2.867
   55CHL1   C19 5216   3.813   6.098   2.874
   55CHL1  H19A 5217   3.878   6.171   2.927
   55CHL1  H19B 5218   3.817   5.998   2.923
   55CHL1  H19C 5219   3.854   6.080   2.773
   55CHL1    C1 5220   3.580   6.080   2.772
   55CHL1   H1A 5221   3.580   5.972   2.799
   55CHL1   H1B 5222   3.475   6.115   2.780
   55CHL1    C2 5223   3.623   6.095   2.622
   55CHL1   H2A 5224   3.549   6.045   2.557
   55CHL1   H2B 5225   3.716   6.038   2.601
   55CHL1   C20 5226   3.624   6.055   3.568
   55CHL1   H20 5227   3.734   6.053   3.585
   55CHL1   C21 5228   3.570   5.914   3.533
   55CHL1  H21A 5229   3.462   5.919   3.510
   55CHL1  H21B 5230   3.599   5.841   3.613
   55CHL1  H21C 5231   3.623   5.866   3.448
   55CHL1   C22 5232   3.558   6.105   3.701
   55CHL1  H22A 5233   3.553   6.214   3.721
   55CHL1  H22B 5234   3.452   6.070   3.703
   55CHL1   C23 5235   3.624   6.040   3.823
   55CHL1  H23A 5236   3.592   5.934   3.817
   55CHL1  H23B 5237   3.734   6.056   3.833
   55CHL1   C24 5238   3.569   6.106   3.949
   55CHL1  H24A 5239   3.607   6.210   3.948
   55CHL1  H24B 5240   3.459   6.114   3.941
   55CHL1   C25 5241   3.594   6.034   4.083
   55CHL1   H25 5242   3.531   6.082   4.161
   55CHL1   C26 5243   3.543   5.887   4.068
   55CHL1  H26A 5244   3.433   5.890   4.058
   55CHL1  H26B 5245   3.590   5.832   3.983
   55CHL1  H26C 5246   3.552   5.816   4.153
   55CHL1   C27 5247   3.741   6.037   4.124
   55CHL1  H27A 5248   3.807   5.990   4.048
   55CHL1  H27B 5249   3.783   6.135   4.154
   55CHL1  H27C 5250   3.744   5.987   4.223
   56CHL1    C3 5251   5.630   1.762   3.013
   56CHL1    H3 5252   5.563   1.851   3.013
   56CHL1    O3 5253   5.695   1.765   2.887
   56CHL1   H3' 5254   5.739   1.680   2.886
   56CHL1    C4 5255   5.736   1.765   3.123
   56CHL1   H4A 5256   5.800   1.675   3.113
   56CHL1   H4B 5257   5.798   1.858   3.118
   56CHL1    C5 5258   5.669   1.756   3.256
   56CHL1    C6 5259   5.694   1.843   3.355
   56CHL1    H6 5260   5.766   1.923   3.330
   56CHL1    C7 5261   5.647   1.840   3.497
   56CHL1   H7A 5262   5.731   1.864   3.566
   56CHL1   H7B 5263   5.574   1.923   3.506
   56CHL1    C8 5264   5.598   1.694   3.538
   56CHL1    H8 5265   5.686   1.627   3.552
   56CHL1   C14 5266   5.514   1.706   3.666
   56CHL1   H14 5267   5.441   1.777   3.622
   56CHL1   C15 5268   5.573   1.771   3.793
   56CHL1  H15A 5269   5.665   1.717   3.823
   56CHL1  H15B 5270   5.602   1.878   3.785
   56CHL1   C16 5271   5.466   1.741   3.900
   56CHL1  H16A 5272   5.510   1.733   4.002
   56CHL1  H16B 5273   5.404   1.832   3.885
   56CHL1   C17 5274   5.376   1.630   3.837
   56CHL1   H17 5275   5.284   1.673   3.791
   56CHL1   C13 5276   5.453   1.583   3.712
   56CHL1   C18 5277   5.566   1.485   3.759
   56CHL1  H18A 5278   5.518   1.388   3.783
   56CHL1  H18B 5279   5.658   1.466   3.699
   56CHL1  H18C 5280   5.602   1.526   3.856
   56CHL1   C12 5281   5.368   1.534   3.589
   56CHL1  H12A 5282   5.317   1.439   3.618
   56CHL1  H12B 5283   5.285   1.604   3.566
   56CHL1   C11 5284   5.448   1.510   3.464
   56CHL1  H11A 5285   5.519   1.431   3.497
   56CHL1  H11B 5286   5.378   1.478   3.383
   56CHL1    C9 5287   5.514   1.642   3.419
   56CHL1    H9 5288   5.447   1.729   3.399
   56CHL1   C10 5289   5.586   1.631   3.279
   56CHL1   C19 5290   5.689   1.513   3.285
   56CHL1  H19A 5291   5.637   1.417   3.305
   56CHL1  H19B 5292   5.732   1.489   3.185
   56CHL1  H19C 5293   5.774   1.519   3.356
   56CHL1    C1 5294   5.482   1.609   3.166
   56CHL1   H1A 5295   5.456   1.501   3.167
   56CHL1   H1B 5296   5.392   1.670   3.190
   56CHL1    C2 5297   5.543   1.633   3.024
   56CHL1   H2A 5298   5.464   1.652   2.949
   56CHL1   H2B 5299   5.606   1.546   2.995
   56CHL1   C20 5300   5.323   1.535   3.946
   56CHL1   H20 5301   5.416   1.498   3.995
   56CHL1   C21 5302   5.252   1.413   3.889
   56CHL1  H21A 5303   5.330   1.355   3.835
   56CHL1  H21B 5304   5.150   1.443   3.855
   56CHL1  H21C 5305   5.242   1.345   3.976
   56CHL1   C22 5306   5.250   1.606   4.073
   56CHL1  H22A 5307   5.320   1.679   4.119
   56CHL1  H22B 5308   5.161   1.662   4.040
   56CHL1   C23 5309   5.199   1.499   4.174
   56CHL1  H23A 5310   5.122   1.440   4.121
   56CHL1  H23B 5311   5.287   1.433   4.191
   56CHL1   C24 5312   5.147   1.554   4.305
   56CHL1  H24A 5313   5.225   1.614   4.357
   56CHL1  H24B 5314   5.058   1.616   4.280
   56CHL1   C25 5315   5.104   1.451   4.410
   56CHL1   H25 5316   5.016   1.406   4.357
   56CHL1   C26 5317   5.212   1.343   4.422
   56CHL1  H26A 5318   5.216   1.271   4.338
   56CHL1  H26B 5319   5.313   1.387   4.440
   56CHL1  H26C 5320   5.194   1.278   4.510
   56CHL1   C27 5321   5.069   1.509   4.545
   56CHL1  H27A 5322   5.155   1.546   4.603
   56CHL1  H27B 5323   4.999   1.595   4.538
   56CHL1  H27C 5324   5.025   1.432   4.612
   57CHL1    C3 5325   4.575   6.758   2.994
   57CHL1    H3 5326   4.526   0.013   3.015
   57CHL1    O3 5327   4.615   6.754   2.855
   57CHL1   H3' 5328   4.530   6.753   2.809
   57CHL1    C4 5329   4.694   6.726   3.086
   57CHL1   H4A 5330   4.747   6.638   3.042
   57CHL1   H4B 5331   4.762   6.813   3.076
   57CHL1    C5 5332   4.654   6.716   3.229
   57CHL1    C6 5333   4.693   6.802   3.327
   57CHL1    H6 5334   4.756   0.047   3.307
   57CHL1    C7 5335   4.658   6.773   3.470
   57CHL1   H7A 5336   4.730   6.816   3.543
   57CHL1   H7B 5337   4.566   6.829   3.498
   57CHL1    C8 5338   4.623   6.634   3.506
   57CHL1    H8 5339   4.718   6.578   3.499
   57CHL1   C14 5340   4.574   6.619   3.648
   57CHL1   H14 5341   4.479   6.675   3.653
   57CHL1   C15 5342   4.659   6.680   3.763
   57CHL1  H15A 5343   4.764   6.644   3.761
   57CHL1  H15B 5344   4.658   6.791   3.757
   57CHL1   C16 5345   4.590   6.626   3.887
   57CHL1  H16A 5346   4.658   6.587   3.966
   57CHL1  H16B 5347   4.518   6.697   3.932
   57CHL1   C17 5348   4.498   6.504   3.840
   57CHL1   H17 5349   4.398   6.551   3.830
   57CHL1   C13 5350   4.537   6.474   3.694
   57CHL1   C18 5351   4.652   6.373   3.689
   57CHL1  H18A 5352   4.723   6.385   3.605
   57CHL1  H18B 5353   4.711   6.383   3.782
   57CHL1  H18C 5354   4.619   6.267   3.677
   57CHL1   C12 5355   4.426   6.427   3.595
   57CHL1  H12A 5356   4.385   6.325   3.611
   57CHL1  H12B 5357   4.342   6.498   3.612
   57CHL1   C11 5358   4.480   6.437   3.449
   57CHL1  H11A 5359   4.564   6.364   3.444
   57CHL1  H11B 5360   4.396   6.396   3.387
   57CHL1    C9 5361   4.522   6.577   3.403
   57CHL1    H9 5362   4.435   6.641   3.426
   57CHL1   C10 5363   4.560   6.596   3.254
   57CHL1   C19 5364   4.636   6.462   3.213
   57CHL1  H19A 5365   4.707   6.472   3.129
   57CHL1  H19B 5366   4.687   6.423   3.304
   57CHL1  H19C 5367   4.560   6.386   3.184
   57CHL1    C1 5368   4.439   6.616   3.163
   57CHL1   H1A 5369   4.370   6.530   3.170
   57CHL1   H1B 5370   4.372   6.693   3.206
   57CHL1    C2 5371   4.468   6.649   3.015
   57CHL1   H2A 5372   4.376   6.670   2.956
   57CHL1   H2B 5373   4.509   6.562   2.960
   57CHL1   C20 5374   4.483   6.400   3.950
   57CHL1   H20 5375   4.584   6.356   3.963
   57CHL1   C21 5376   4.378   6.298   3.910
   57CHL1  H21A 5377   4.367   6.231   3.998
   57CHL1  H21B 5378   4.410   6.249   3.816
   57CHL1  H21C 5379   4.279   6.349   3.901
   57CHL1   C22 5380   4.448   6.457   4.092
   57CHL1  H22A 5381   4.499   6.553   4.116
   57CHL1  H22B 5382   4.342   6.492   4.087
   57CHL1   C23 5383   4.439   6.364   4.209
   57CHL1  H23A 5384   4.337   6.322   4.214
   57CHL1  H23B 5385   4.505   6.273   4.208
   57CHL1   C24 5386   4.471   6.432   4.340
   57CHL1  H24A 5387   4.529   6.527   4.336
   57CHL1  H24B 5388   4.376   6.470   4.385
   57CHL1   C25 5389   4.545   6.337   4.442
   57CHL1   H25 5390   4.569   6.379   4.542
   57CHL1   C26 5391   4.443   6.223   4.472
   57CHL1  H26A 5392   4.418   6.152   4.391
   57CHL1  H26B 5393   4.478   6.159   4.556
   57CHL1  H26C 5394   4.341   6.260   4.498
   57CHL1   C27 5395   4.676   6.272   4.392
   57CHL1  H27A 5396   4.649   6.194   4.318
   57CHL1  H27B 5397   4.742   6.354   4.354
   57CHL1  H27C 5398   4.732   6.228   4.477
   58CHL1    C3 5399   4.400   0.449   2.947
   58CHL1    H3 5400   4.478   0.371   2.937
   58CHL1    O3 5401   4.383   0.513   2.821
   58CHL1   H3' 5402   4.467   0.553   2.798
   58CHL1    C4 5403   4.267   0.391   3.000
   58CHL1   H4A 5404   4.195   0.475   2.993
   58CHL1   H4B 5405   4.225   0.314   2.932
   58CHL1    C5 5406   4.274   0.328   3.144
   58CHL1    C6 5407   4.244   0.198   3.164
   58CHL1    H6 5408   4.200   0.139   3.082
   58CHL1    C7 5409   4.249   0.144   3.302
   58CHL1   H7A 5410   4.159   0.089   3.336
   58CHL1   H7B 5411   4.331   0.069   3.299
   58CHL1    C8 5412   4.268   0.250   3.415
   58CHL1    H8 5413   4.171   0.302   3.432
   58CHL1   C14 5414   4.313   0.190   3.545
   58CHL1   H14 5415   4.422   0.172   3.531
   58CHL1   C15 5416   4.259   0.055   3.595
   58CHL1  H15A 5417   4.148   0.053   3.583
   58CHL1  H15B 5418   4.309   6.813   3.543
   58CHL1   C16 5419   4.308   0.043   3.739
   58CHL1  H16A 5420   4.220   0.026   3.805
   58CHL1  H16B 5421   4.382   6.807   3.762
   58CHL1   C17 5422   4.365   0.183   3.778
   58CHL1   H17 5423   4.475   0.188   3.762
   58CHL1   C13 5424   4.316   0.282   3.665
   58CHL1   C18 5425   4.174   0.329   3.691
   58CHL1  H18A 5426   4.107   0.242   3.703
   58CHL1  H18B 5427   4.162   0.392   3.781
   58CHL1  H18C 5428   4.136   0.392   3.607
   58CHL1   C12 5429   4.409   0.402   3.633
   58CHL1  H12A 5430   4.385   0.473   3.715
   58CHL1  H12B 5431   4.513   0.363   3.638
   58CHL1   C11 5432   4.388   0.461   3.493
   58CHL1  H11A 5433   4.297   0.516   3.524
   58CHL1  H11B 5434   4.475   0.528   3.481
   58CHL1    C9 5435   4.366   0.363   3.380
   58CHL1    H9 5436   4.466   0.317   3.368
   58CHL1   C10 5437   4.327   0.432   3.243
   58CHL1   C19 5438   4.210   0.528   3.272
   58CHL1  H19A 5439   4.221   0.612   3.344
   58CHL1  H19B 5440   4.178   0.584   3.182
   58CHL1  H19C 5441   4.125   0.460   3.298
   58CHL1    C1 5442   4.453   0.516   3.195
   58CHL1   H1A 5443   4.468   0.600   3.266
   58CHL1   H1B 5444   4.536   0.442   3.195
   58CHL1    C2 5445   4.447   0.556   3.046
   58CHL1   H2A 5446   4.550   0.581   3.014
   58CHL1   H2B 5447   4.385   0.647   3.032
   58CHL1   C20 5448   4.326   0.223   3.925
   58CHL1   H20 5449   4.216   0.231   3.934
   58CHL1   C21 5450   4.379   0.364   3.953
   58CHL1  H21A 5451   4.369   0.382   4.062
   58CHL1  H21B 5452   4.310   0.443   3.916
   58CHL1  H21C 5453   4.482   0.383   3.917
   58CHL1   C22 5454   4.372   0.114   4.025
   58CHL1  H22A 5455   4.325   0.016   4.002
   58CHL1  H22B 5456   4.480   0.104   4.003
   58CHL1   C23 5457   4.346   0.149   4.171
   58CHL1  H23A 5458   4.406   0.241   4.191
   58CHL1  H23B 5459   4.238   0.171   4.185
   58CHL1   C24 5460   4.385   0.035   4.261
   58CHL1  H24A 5461   4.342   6.784   4.221
   58CHL1  H24B 5462   4.495   0.024   4.261
   58CHL1   C25 5463   4.349   0.056   4.408
   58CHL1   H25 5464   4.405   0.140   4.453
   58CHL1   C26 5465   4.196   0.076   4.414
   58CHL1  H26A 5466   4.171   0.182   4.389
   58CHL1  H26B 5467   4.129   0.003   4.365
   58CHL1  H26C 5468   4.172   0.067   4.522
   58CHL1   C27 5469   4.408   6.781   4.493
   58CHL1  H27A 5470   4.357   6.683   4.477
   58CHL1  H27B 5471   4.516   6.766   4.474
   58CHL1  H27C 5472   4.396   6.823   4.595
   59CHL1    C3 5473   2.953   4.624   2.890
   59CHL1    H3 5474   2.974   4.521   2.856
   59CHL1    O3 5475   2.957   4.714   2.779
   59CHL1   H3' 5476   3.049   4.719   2.750
   59CHL1    C4 5477   2.810   4.640   2.942
   59CHL1   H4A 5478   2.788   4.747   2.964
   59CHL1   H4B 5479   2.741   4.605   2.863
   59CHL1    C5 5480   2.795   4.552   3.065
   59CHL1    C6 5481   2.707   4.460   3.066
   59CHL1    H6 5482   2.632   4.452   2.986
   59CHL1    C7 5483   2.683   4.358   3.166
   59CHL1   H7A 5484   2.575   4.334   3.173
   59CHL1   H7B 5485   2.750   4.272   3.148
   59CHL1    C8 5486   2.733   4.402   3.305
   59CHL1    H8 5487   2.671   4.488   3.337
   59CHL1   C14 5488   2.714   4.293   3.411
   59CHL1   H14 5489   2.757   4.199   3.368
   59CHL1   C15 5490   2.574   4.234   3.445
   59CHL1  H15A 5491   2.502   4.319   3.446
   59CHL1  H15B 5492   2.546   4.151   3.377
   59CHL1   C16 5493   2.597   4.165   3.576
   59CHL1  H16A 5494   2.512   4.164   3.648
   59CHL1  H16B 5495   2.614   4.057   3.555
   59CHL1   C17 5496   2.724   4.215   3.642
   59CHL1   H17 5497   2.795   4.132   3.625
   59CHL1   C13 5498   2.772   4.324   3.544
   59CHL1   C18 5499   2.716   4.453   3.599
   59CHL1  H18A 5500   2.736   4.543   3.537
   59CHL1  H18B 5501   2.606   4.461   3.609
   59CHL1  H18C 5502   2.765   4.474   3.697
   59CHL1   C12 5503   2.923   4.341   3.522
   59CHL1  H12A 5504   2.952   4.365   3.626
   59CHL1  H12B 5505   2.975   4.251   3.483
   59CHL1   C11 5506   2.943   4.459   3.422
   59CHL1  H11A 5507   2.923   4.559   3.467
   59CHL1  H11B 5508   3.053   4.471   3.411
   59CHL1    C9 5509   2.879   4.448   3.285
   59CHL1    H9 5510   2.926   4.359   3.238
   59CHL1   C10 5511   2.897   4.565   3.177
   59CHL1   C19 5512   2.864   4.697   3.257
   59CHL1  H19A 5513   2.868   4.773   3.176
   59CHL1  H19B 5514   2.760   4.703   3.295
   59CHL1  H19C 5515   2.941   4.716   3.335
   59CHL1    C1 5516   3.047   4.570   3.123
   59CHL1   H1A 5517   3.123   4.601   3.197
   59CHL1   H1B 5518   3.083   4.472   3.085
   59CHL1    C2 5519   3.059   4.665   2.997
   59CHL1   H2A 5520   3.163   4.665   2.957
   59CHL1   H2B 5521   3.045   4.766   3.041
   59CHL1   C20 5522   2.718   4.240   3.797
   59CHL1   H20 5523   2.801   4.308   3.825
   59CHL1   C21 5524   2.755   4.098   3.853
   59CHL1  H21A 5525   2.728   4.091   3.960
   59CHL1  H21B 5526   2.865   4.096   3.835
   59CHL1  H21C 5527   2.693   4.022   3.801
   59CHL1   C22 5528   2.589   4.292   3.861
   59CHL1  H22A 5529   2.544   4.369   3.795
   59CHL1  H22B 5530   2.535   4.196   3.873
   59CHL1   C23 5531   2.613   4.350   4.004
   59CHL1  H23A 5532   2.657   4.279   4.077
   59CHL1  H23B 5533   2.691   4.428   3.992
   59CHL1   C24 5534   2.487   4.414   4.064
   59CHL1  H24A 5535   2.452   4.487   3.988
   59CHL1  H24B 5536   2.415   4.336   4.097
   59CHL1   C25 5537   2.527   4.497   4.193
   59CHL1   H25 5538   2.607   4.564   4.156
   59CHL1   C26 5539   2.408   4.583   4.243
   59CHL1  H26A 5540   2.437   4.625   4.342
   59CHL1  H26B 5541   2.392   4.670   4.175
   59CHL1  H26C 5542   2.309   4.533   4.245
   59CHL1   C27 5543   2.573   4.403   4.312
   59CHL1  H27A 5544   2.487   4.359   4.367
   59CHL1  H27B 5545   2.651   4.329   4.284
   59CHL1  H27C 5546   2.626   4.468   4.385
   60CHL1    C3 5547   5.292   5.890   2.889
   60CHL1    H3 5548   5.259   5.995   2.906
   60CHL1    O3 5549   5.307   5.906   2.742
   60CHL1   H3' 5550   5.400   5.890   2.725
   60CHL1    C4 5551   5.422   5.852   2.963
   60CHL1   H4A 5552   5.450   5.751   2.925
   60CHL1   H4B 5553   5.503   5.924   2.941
   60CHL1    C5 5554   5.392   5.841   3.116
   60CHL1    C6 5555   5.455   5.915   3.205
   60CHL1    H6 5556   5.533   5.987   3.176
   60CHL1    C7 5557   5.433   5.909   3.361
   60CHL1   H7A 5558   5.535   5.899   3.404
   60CHL1   H7B 5559   5.396   6.003   3.408
   60CHL1    C8 5560   5.353   5.786   3.400
   60CHL1    H8 5561   5.408   5.690   3.388
   60CHL1   C14 5562   5.312   5.802   3.547
   60CHL1   H14 5563   5.249   5.893   3.557
   60CHL1   C15 5564   5.415   5.826   3.659
   60CHL1  H15A 5565   5.494   5.749   3.647
   60CHL1  H15B 5566   5.468   5.923   3.655
   60CHL1   C16 5567   5.330   5.809   3.785
   60CHL1  H16A 5568   5.382   5.739   3.854
   60CHL1  H16B 5569   5.308   5.899   3.846
   60CHL1   C17 5570   5.197   5.748   3.744
   60CHL1   H17 5571   5.124   5.832   3.738
   60CHL1   C13 5572   5.217   5.696   3.602
   60CHL1   C18 5573   5.301   5.565   3.613
   60CHL1  H18A 5574   5.224   5.489   3.637
   60CHL1  H18B 5575   5.352   5.537   3.519
   60CHL1  H18C 5576   5.377   5.563   3.695
   60CHL1   C12 5577   5.096   5.697   3.511
   60CHL1  H12A 5578   5.019   5.623   3.541
   60CHL1  H12B 5579   5.045   5.796   3.511
   60CHL1   C11 5580   5.132   5.669   3.362
   60CHL1  H11A 5581   5.180   5.569   3.357
   60CHL1  H11B 5582   5.037   5.660   3.306
   60CHL1    C9 5583   5.238   5.774   3.305
   60CHL1    H9 5584   5.182   5.870   3.304
   60CHL1   C10 5585   5.279   5.744   3.152
   60CHL1   C19 5586   5.316   5.593   3.123
   60CHL1  H19A 5587   5.389   5.559   3.200
   60CHL1  H19B 5588   5.228   5.525   3.125
   60CHL1  H19C 5589   5.362   5.584   3.022
   60CHL1    C1 5590   5.147   5.785   3.064
   60CHL1   H1A 5591   5.063   5.717   3.086
   60CHL1   H1B 5592   5.125   5.886   3.105
   60CHL1    C2 5593   5.174   5.786   2.910
   60CHL1   H2A 5594   5.087   5.835   2.862
   60CHL1   H2B 5595   5.204   5.683   2.879
   60CHL1   C20 5596   5.139   5.649   3.850
   60CHL1   H20 5597   5.201   5.558   3.860
   60CHL1   C21 5598   4.996   5.609   3.804
   60CHL1  H21A 5599   5.000   5.522   3.735
   60CHL1  H21B 5600   4.940   5.690   3.751
   60CHL1  H21C 5601   4.932   5.578   3.890
   60CHL1   C22 5602   5.131   5.713   3.992
   60CHL1  H22A 5603   5.232   5.739   4.029
   60CHL1  H22B 5604   5.076   5.809   3.994
   60CHL1   C23 5605   5.080   5.609   4.090
   60CHL1  H23A 5606   4.970   5.598   4.077
   60CHL1  H23B 5607   5.127   5.511   4.067
   60CHL1   C24 5608   5.097   5.643   4.235
   60CHL1  H24A 5609   5.055   5.745   4.247
   60CHL1  H24B 5610   5.023   5.587   4.297
   60CHL1   C25 5611   5.240   5.636   4.285
   60CHL1   H25 5612   5.311   5.688   4.216
   60CHL1   C26 5613   5.252   5.708   4.421
   60CHL1  H26A 5614   5.154   5.720   4.473
   60CHL1  H26B 5615   5.325   5.659   4.489
   60CHL1  H26C 5616   5.294   5.810   4.410
   60CHL1   C27 5617   5.285   5.496   4.293
   60CHL1  H27A 5618   5.287   5.436   4.200
   60CHL1  H27B 5619   5.390   5.496   4.329
   60CHL1  H27C 5620   5.225   5.457   4.378
   61CHL1    C3 5621   5.585   2.166   2.825
   61CHL1    H3 5622   5.625   2.062   2.818
   61CHL1    O3 5623   5.644   2.233   2.716
   61CHL1   H3' 5624   5.736   2.208   2.724
   61CHL1    C4 5625   5.432   2.159   2.804
   61CHL1   H4A 5626   5.398   2.265   2.801
   61CHL1   H4B 5627   5.430   2.104   2.708
   61CHL1    C5 5628   5.355   2.093   2.922
   61CHL1    C6 5629   5.270   1.996   2.903
   61CHL1    H6 5630   5.249   1.954   2.803
   61CHL1    C7 5631   5.198   1.918   3.012
   61CHL1   H7A 5632   5.090   1.899   2.991
   61CHL1   H7B 5633   5.247   1.819   3.025
   61CHL1    C8 5634   5.211   1.993   3.148
   61CHL1    H8 5635   5.136   2.075   3.145
   61CHL1   C14 5636   5.166   1.897   3.263
   61CHL1   H14 5637   5.242   1.817   3.279
   61CHL1   C15 5638   5.038   1.819   3.239
   61CHL1  H15A 5639   4.955   1.872   3.188
   61CHL1  H15B 5640   5.044   1.717   3.195
   61CHL1   C16 5641   4.992   1.783   3.387
   61CHL1  H16A 5642   4.885   1.809   3.400
   61CHL1  H16B 5643   5.001   1.677   3.419
   61CHL1   C17 5644   5.092   1.850   3.480
   61CHL1   H17 5645   5.178   1.780   3.492
   61CHL1   C13 5646   5.147   1.969   3.395
   61CHL1   C18 5647   5.046   2.079   3.380
   61CHL1  H18A 5648   5.078   2.159   3.310
   61CHL1  H18B 5649   4.944   2.055   3.342
   61CHL1  H18C 5650   5.027   2.125   3.479
   61CHL1   C12 5651   5.287   2.017   3.425
   61CHL1  H12A 5652   5.266   2.080   3.515
   61CHL1  H12B 5653   5.345   1.930   3.461
   61CHL1   C11 5654   5.348   2.104   3.319
   61CHL1  H11A 5655   5.284   2.195   3.314
   61CHL1  H11B 5656   5.452   2.133   3.348
   61CHL1    C9 5657   5.350   2.045   3.176
   61CHL1    H9 5658   5.412   1.953   3.180
   61CHL1   C10 5659   5.400   2.138   3.064
   61CHL1   C19 5660   5.338   2.277   3.091
   61CHL1  H19A 5661   5.372   2.350   3.015
   61CHL1  H19B 5662   5.227   2.280   3.082
   61CHL1  H19C 5663   5.369   2.320   3.188
   61CHL1    C1 5664   5.552   2.152   3.074
   61CHL1   H1A 5665   5.576   2.210   3.166
   61CHL1   H1B 5666   5.609   2.057   3.072
   61CHL1    C2 5667   5.621   2.232   2.961
   61CHL1   H2A 5668   5.730   2.219   2.975
   61CHL1   H2B 5669   5.588   2.338   2.952
   61CHL1   C20 5670   5.021   1.866   3.615
   61CHL1   H20 5671   4.932   1.931   3.600
   61CHL1   C21 5672   5.115   1.957   3.703
   61CHL1  H21A 5673   5.061   1.986   3.796
   61CHL1  H21B 5674   5.136   2.054   3.653
   61CHL1  H21C 5675   5.218   1.919   3.721
   61CHL1   C22 5676   4.974   1.731   3.683
   61CHL1  H22A 5677   4.903   1.682   3.613
   61CHL1  H22B 5678   5.070   1.678   3.703
   61CHL1   C23 5679   4.904   1.748   3.815
   61CHL1  H23A 5680   4.971   1.804   3.883
   61CHL1  H23B 5681   4.804   1.796   3.809
   61CHL1   C24 5682   4.874   1.616   3.884
   61CHL1  H24A 5683   4.822   1.553   3.808
   61CHL1  H24B 5684   4.966   1.563   3.915
   61CHL1   C25 5685   4.775   1.617   3.999
   61CHL1   H25 5686   4.809   1.701   4.063
   61CHL1   C26 5687   4.636   1.659   3.952
   61CHL1  H26A 5688   4.558   1.632   4.027
   61CHL1  H26B 5689   4.630   1.769   3.934
   61CHL1  H26C 5690   4.616   1.608   3.856
   61CHL1   C27 5691   4.756   1.478   4.073
   61CHL1  H27A 5692   4.694   1.491   4.165
   61CHL1  H27B 5693   4.687   1.416   4.012
   61CHL1  H27C 5694   4.855   1.435   4.101
   62CHL1    C3 5695   1.454   0.324   3.001
   62CHL1    H3 5696   1.371   0.397   3.000
   62CHL1    O3 5697   1.485   0.290   2.870
   62CHL1   H3' 5698   1.442   0.205   2.857
   62CHL1    C4 5699   1.572   0.406   3.067
   62CHL1   H4A 5700   1.662   0.346   3.040
   62CHL1   H4B 5701   1.577   0.506   3.020
   62CHL1    C5 5702   1.567   0.419   3.217
   62CHL1    C6 5703   1.580   0.539   3.280
   62CHL1    H6 5704   1.588   0.632   3.222
   62CHL1    C7 5705   1.573   0.559   3.427
   62CHL1   H7A 5706   1.645   0.631   3.469
   62CHL1   H7B 5707   1.471   0.602   3.440
   62CHL1    C8 5708   1.581   0.427   3.508
   62CHL1    H8 5709   1.688   0.402   3.523
   62CHL1   C14 5710   1.521   0.452   3.654
   62CHL1   H14 5711   1.414   0.479   3.642
   62CHL1   C15 5712   1.584   0.569   3.735
   62CHL1  H15A 5713   1.695   0.573   3.737
   62CHL1  H15B 5714   1.561   0.668   3.690
   62CHL1   C16 5715   1.528   0.548   3.878
   62CHL1  H16A 5716   1.611   0.557   3.952
   62CHL1  H16B 5717   1.457   0.631   3.897
   62CHL1   C17 5718   1.461   0.400   3.874
   62CHL1   H17 5719   1.351   0.409   3.860
   62CHL1   C13 5720   1.525   0.332   3.748
   62CHL1   C18 5721   1.669   0.275   3.773
   62CHL1  H18A 5722   1.717   0.250   3.676
   62CHL1  H18B 5723   1.723   0.352   3.832
   62CHL1  H18C 5724   1.666   0.184   3.836
   62CHL1   C12 5725   1.444   0.222   3.690
   62CHL1  H12A 5726   1.452   0.128   3.747
   62CHL1  H12B 5727   1.339   0.257   3.692
   62CHL1   C11 5728   1.481   0.189   3.541
   62CHL1  H11A 5729   1.580   0.139   3.544
   62CHL1  H11B 5730   1.404   0.128   3.490
   62CHL1    C9 5731   1.495   0.314   3.445
   62CHL1    H9 5732   1.391   0.354   3.446
   62CHL1   C10 5733   1.527   0.289   3.299
   62CHL1   C19 5734   1.643   0.185   3.300
   62CHL1  H19A 5735   1.710   0.214   3.385
   62CHL1  H19B 5736   1.608   0.081   3.318
   62CHL1  H19C 5737   1.699   0.190   3.204
   62CHL1    C1 5738   1.397   0.234   3.233
   62CHL1   H1A 5739   1.355   0.146   3.286
   62CHL1   H1B 5740   1.331   0.323   3.236
   62CHL1    C2 5741   1.408   0.203   3.083
   62CHL1   H2A 5742   1.311   0.160   3.051
   62CHL1   H2B 5743   1.481   0.120   3.068
   62CHL1   C20 5744   1.473   0.327   4.009
   62CHL1   H20 5745   1.578   0.294   4.026
   62CHL1   C21 5746   1.396   0.189   4.007
   62CHL1  H21A 5747   1.289   0.201   3.981
   62CHL1  H21B 5748   1.395   0.156   4.114
   62CHL1  H21C 5749   1.448   0.110   3.950
   62CHL1   C22 5750   1.407   0.407   4.122
   62CHL1  H22A 5751   1.416   0.516   4.104
   62CHL1  H22B 5752   1.299   0.385   4.127
   62CHL1   C23 5753   1.452   0.380   4.267
   62CHL1  H23A 5754   1.458   0.272   4.291
   62CHL1  H23B 5755   1.550   0.430   4.286
   62CHL1   C24 5756   1.350   0.451   4.368
   62CHL1  H24A 5757   1.349   0.561   4.352
   62CHL1  H24B 5758   1.252   0.414   4.331
   62CHL1   C25 5759   1.371   0.416   4.520
   62CHL1   H25 5760   1.367   0.305   4.520
   62CHL1   C26 5761   1.510   0.457   4.565
   62CHL1  H26A 5762   1.517   0.471   4.675
   62CHL1  H26B 5763   1.594   0.402   4.517
   62CHL1  H26C 5764   1.514   0.561   4.526
   62CHL1   C27 5765   1.270   0.490   4.609
   62CHL1  H27A 5766   1.165   0.454   4.600
   62CHL1  H27B 5767   1.284   0.487   4.719
   62CHL1  H27C 5768   1.273   0.597   4.578
   63CHL1    C3 5769   4.512   5.369   2.650
   63CHL1    H3 5770   4.612   5.400   2.688
   63CHL1    O3 5771   4.529   5.374   2.512
   63CHL1   H3' 5772   4.440   5.361   2.479
   63CHL1    C4 5773   4.483   5.224   2.702
   63CHL1   H4A 5774   4.383   5.197   2.661
   63CHL1   H4B 5775   4.557   5.154   2.659
   63CHL1    C5 5776   4.480   5.230   2.850
   63CHL1    C6 5777   4.566   5.157   2.925
   63CHL1    H6 5778   4.624   5.087   2.863
   63CHL1    C7 5779   4.547   5.134   3.074
   63CHL1   H7A 5780   4.551   5.028   3.108
   63CHL1   H7B 5781   4.632   5.191   3.118
   63CHL1    C8 5782   4.423   5.204   3.134
   63CHL1    H8 5783   4.337   5.136   3.118
   63CHL1   C14 5784   4.439   5.231   3.285
   63CHL1   H14 5785   4.517   5.309   3.299
   63CHL1   C15 5786   4.499   5.123   3.382
   63CHL1  H15A 5787   4.465   5.018   3.366
   63CHL1  H15B 5788   4.608   5.117   3.366
   63CHL1   C16 5789   4.462   5.167   3.518
   63CHL1  H16A 5790   4.399   5.097   3.576
   63CHL1  H16B 5791   4.552   5.187   3.580
   63CHL1   C17 5792   4.368   5.295   3.505
   63CHL1   H17 5793   4.439   5.380   3.500
   63CHL1   C13 5794   4.314   5.294   3.358
   63CHL1   C18 5795   4.195   5.192   3.342
   63CHL1  H18A 5796   4.221   5.088   3.370
   63CHL1  H18B 5797   4.110   5.213   3.410
   63CHL1  H18C 5798   4.162   5.180   3.237
   63CHL1   C12 5799   4.297   5.435   3.289
   63CHL1  H12A 5800   4.204   5.487   3.321
   63CHL1  H12B 5801   4.387   5.497   3.305
   63CHL1   C11 5802   4.276   5.401   3.137
   63CHL1  H11A 5803   4.176   5.355   3.122
   63CHL1  H11B 5804   4.262   5.499   3.088
   63CHL1    C9 5805   4.393   5.332   3.064
   63CHL1    H9 5806   4.480   5.400   3.070
   63CHL1   C10 5807   4.371   5.326   2.908
   63CHL1   C19 5808   4.229   5.269   2.878
   63CHL1  H19A 5809   4.150   5.347   2.889
   63CHL1  H19B 5810   4.218   5.242   2.771
   63CHL1  H19C 5811   4.217   5.172   2.929
   63CHL1    C1 5812   4.380   5.462   2.838
   63CHL1   H1A 5813   4.299   5.534   2.864
   63CHL1   H1B 5814   4.482   5.494   2.867
   63CHL1    C2 5815   4.401   5.460   2.688
   63CHL1   H2A 5816   4.433   5.559   2.647
   63CHL1   H2B 5817   4.309   5.426   2.635
   63CHL1   C20 5818   4.268   5.315   3.619
   63CHL1   H20 5819   4.203   5.225   3.624
   63CHL1   C21 5820   4.188   5.444   3.599
   63CHL1  H21A 5821   4.134   5.466   3.693
   63CHL1  H21B 5822   4.113   5.448   3.516
   63CHL1  H21C 5823   4.265   5.520   3.571
   63CHL1   C22 5824   4.348   5.318   3.754
   63CHL1  H22A 5825   4.401   5.223   3.777
   63CHL1  H22B 5826   4.424   5.399   3.756
   63CHL1   C23 5827   4.260   5.328   3.873
   63CHL1  H23A 5828   4.214   5.429   3.884
   63CHL1  H23B 5829   4.180   5.252   3.863
   63CHL1   C24 5830   4.323   5.292   4.006
   63CHL1  H24A 5831   4.334   5.182   3.995
   63CHL1  H24B 5832   4.424   5.336   4.021
   63CHL1   C25 5833   4.228   5.311   4.127
   63CHL1   H25 5834   4.126   5.276   4.102
   63CHL1   C26 5835   4.276   5.227   4.242
   63CHL1  H26A 5836   4.376   5.257   4.280
   63CHL1  H26B 5837   4.209   5.234   4.330
   63CHL1  H26C 5838   4.284   5.117   4.224
   63CHL1   C27 5839   4.221   5.456   4.174
   63CHL1  H27A 5840   4.155   5.450   4.264
   63CHL1  H27B 5841   4.323   5.493   4.198
   63CHL1  H27C 5842   4.171   5.513   4.094
   64CHL1    C3 5843   2.854   2.595   2.762
   64CHL1    H3 5844   2.844   2.688   2.821
   64CHL1    O3 5845   2.859   2.620   2.622
   64CHL1   H3' 5846   2.817   2.542   2.585
   64CHL1    C4 5847   2.976   2.519   2.808
   64CHL1   H4A 5848   2.964   2.421   2.757
   64CHL1   H4B 5849   3.068   2.558   2.759
   64CHL1    C5 5850   2.975   2.495   2.960
   64CHL1    C6 5851   3.075   2.544   3.036
   64CHL1    H6 5852   3.158   2.597   2.988
   64CHL1    C7 5853   3.083   2.521   3.185
   64CHL1   H7A 5854   3.182   2.491   3.226
   64CHL1   H7B 5855   3.075   2.621   3.234
   64CHL1    C8 5856   2.972   2.427   3.246
   64CHL1    H8 5857   3.005   2.324   3.223
   64CHL1   C14 5858   2.963   2.457   3.397
   64CHL1   H14 5859   2.939   2.565   3.403
   64CHL1   C15 5860   3.091   2.441   3.482
   64CHL1  H15A 5861   3.136   2.345   3.446
   64CHL1  H15B 5862   3.165   2.519   3.456
   64CHL1   C16 5863   3.036   2.445   3.625
   64CHL1  H16A 5864   3.079   2.362   3.686
   64CHL1  H16B 5865   3.072   2.538   3.674
   64CHL1   C17 5866   2.885   2.422   3.619
   64CHL1   H17 5867   2.841   2.523   3.633
   64CHL1   C13 5868   2.859   2.373   3.471
   64CHL1   C18 5869   2.887   2.221   3.463
   64CHL1  H18A 5870   2.788   2.171   3.467
   64CHL1  H18B 5871   2.934   2.182   3.370
   64CHL1  H18C 5872   2.957   2.209   3.548
   64CHL1   C12 5873   2.722   2.407   3.401
   64CHL1  H12A 5874   2.638   2.354   3.451
   64CHL1  H12B 5875   2.712   2.517   3.411
   64CHL1   C11 5876   2.727   2.377   3.251
   64CHL1  H11A 5877   2.739   2.268   3.235
   64CHL1  H11B 5878   2.625   2.404   3.215
   64CHL1    C9 5879   2.836   2.449   3.176
   64CHL1    H9 5880   2.805   2.554   3.193
   64CHL1   C10 5881   2.847   2.427   3.018
   64CHL1   C19 5882   2.843   2.277   2.978
   64CHL1  H19A 5883   2.744   2.241   3.014
   64CHL1  H19B 5884   2.858   2.256   2.870
   64CHL1  H19C 5885   2.925   2.219   3.026
   64CHL1    C1 5886   2.724   2.490   2.948
   64CHL1   H1A 5887   2.644   2.418   2.975
   64CHL1   H1B 5888   2.701   2.588   2.995
   64CHL1    C2 5889   2.735   2.500   2.793
   64CHL1   H2A 5890   2.651   2.561   2.753
   64CHL1   H2B 5891   2.750   2.400   2.747
   64CHL1   C20 5892   2.825   2.342   3.733
   64CHL1   H20 5893   2.864   2.238   3.726
   64CHL1   C21 5894   2.671   2.346   3.718
   64CHL1  H21A 5895   2.625   2.294   3.805
   64CHL1  H21B 5896   2.637   2.281   3.634
   64CHL1  H21C 5897   2.641   2.452   3.705
   64CHL1   C22 5898   2.868   2.386   3.877
   64CHL1  H22A 5899   2.809   2.321   3.945
   64CHL1  H22B 5900   2.976   2.369   3.898
   64CHL1   C23 5901   2.828   2.535   3.899
   64CHL1  H23A 5902   2.870   2.617   3.837
   64CHL1  H23B 5903   2.719   2.553   3.902
   64CHL1   C24 5904   2.871   2.566   4.047
   64CHL1  H24A 5905   2.840   2.480   4.111
   64CHL1  H24B 5906   2.981   2.581   4.058
   64CHL1   C25 5907   2.817   2.699   4.107
   64CHL1   H25 5908   2.708   2.688   4.089
   64CHL1   C26 5909   2.835   2.704   4.258
   64CHL1  H26A 5910   2.944   2.715   4.279
   64CHL1  H26B 5911   2.782   2.792   4.298
   64CHL1  H26C 5912   2.797   2.608   4.300
   64CHL1   C27 5913   2.872   2.827   4.046
   64CHL1  H27A 5914   2.835   2.910   4.110
   64CHL1  H27B 5915   2.982   2.833   4.059
   64CHL1  H27C 5916   2.838   2.840   3.940
   65CHL1    C3 5917   0.753   0.157   2.763
   65CHL1    H3 5918   0.839   0.223   2.742
   65CHL1    O3 5919   0.696   0.106   2.645
   65CHL1   H3' 5920   0.722   0.163   2.572
   65CHL1    C4 5921   0.810   0.046   2.857
   65CHL1   H4A 5922   0.742   6.803   2.874
   65CHL1   H4B 5923   0.898   0.001   2.809
   65CHL1    C5 5924   0.841   0.111   2.989
   65CHL1    C6 5925   0.967   0.089   3.041
   65CHL1    H6 5926   1.042   0.025   2.994
   65CHL1    C7 5927   1.011   0.138   3.174
   65CHL1   H7A 5928   1.044   0.052   3.236
   65CHL1   H7B 5929   1.098   0.207   3.177
   65CHL1    C8 5930   0.902   0.211   3.254
   65CHL1    H8 5931   0.837   0.132   3.296
   65CHL1   C14 5932   0.960   0.310   3.359
   65CHL1   H14 5933   1.017   0.393   3.310
   65CHL1   C15 5934   1.064   0.236   3.454
   65CHL1  H15A 5935   1.035   0.129   3.468
   65CHL1  H15B 5936   1.165   0.250   3.411
   65CHL1   C16 5937   1.057   0.325   3.579
   65CHL1  H16A 5938   1.020   0.263   3.663
   65CHL1  H16B 5939   1.156   0.359   3.617
   65CHL1   C17 5940   0.956   0.445   3.560
   65CHL1   H17 5941   1.009   0.530   3.511
   65CHL1   C13 5942   0.856   0.386   3.451
   65CHL1   C18 5943   0.759   0.285   3.517
   65CHL1  H18A 5944   0.660   0.329   3.543
   65CHL1  H18B 5945   0.744   0.193   3.458
   65CHL1  H18C 5946   0.800   0.250   3.614
   65CHL1   C12 5947   0.774   0.473   3.353
   65CHL1  H12A 5948   0.694   0.529   3.404
   65CHL1  H12B 5949   0.846   0.546   3.310
   65CHL1   C11 5950   0.709   0.383   3.236
   65CHL1  H11A 5951   0.628   0.320   3.280
   65CHL1  H11B 5952   0.662   0.454   3.165
   65CHL1    C9 5953   0.810   0.290   3.166
   65CHL1    H9 5954   0.879   0.359   3.113
   65CHL1   C10 5955   0.739   0.208   3.055
   65CHL1   C19 5956   0.623   0.120   3.116
   65CHL1  H19A 5957   0.656   0.050   3.196
   65CHL1  H19B 5958   0.543   0.189   3.149
   65CHL1  H19C 5959   0.569   0.059   3.040
   65CHL1    C1 5960   0.684   0.306   2.961
   65CHL1   H1A 5961   0.592   0.350   3.004
   65CHL1   H1B 5962   0.760   0.386   2.949
   65CHL1    C2 5963   0.644   0.244   2.825
   65CHL1   H2A 5964   0.619   0.329   2.757
   65CHL1   H2B 5965   0.559   0.178   2.851
   65CHL1   C20 5966   0.903   0.500   3.693
   65CHL1   H20 5967   0.852   0.420   3.751
   65CHL1   C21 5968   0.795   0.607   3.670
   65CHL1  H21A 5969   0.838   0.684   3.602
   65CHL1  H21B 5970   0.752   0.646   3.764
   65CHL1  H21C 5971   0.710   0.550   3.626
   65CHL1   C22 5972   1.015   0.555   3.772
   65CHL1  H22A 5973   1.077   0.473   3.813
   65CHL1  H22B 5974   1.068   0.622   3.701
   65CHL1   C23 5975   0.988   0.644   3.892
   65CHL1  H23A 5976   1.086   0.675   3.935
   65CHL1  H23B 5977   0.934   0.737   3.863
   65CHL1   C24 5978   0.904   0.564   4.000
   65CHL1  H24A 5979   0.805   0.523   3.972
   65CHL1  H24B 5980   0.966   0.483   4.045
   65CHL1   C25 5981   0.860   0.659   4.114
   65CHL1   H25 5982   0.954   0.710   4.145
   65CHL1   C26 5983   0.744   0.745   4.065
   65CHL1  H26A 5984   0.712   0.818   4.142
   65CHL1  H26B 5985   0.762   0.807   3.974
   65CHL1  H26C 5986   0.659   0.675   4.051
   65CHL1   C27 5987   0.816   0.582   4.234
   65CHL1  H27A 5988   0.758   0.649   4.301
   65CHL1  H27B 5989   0.754   0.494   4.207
   65CHL1  H27C 5990   0.898   0.533   4.291
   66CHL1    C3 5991   4.183   1.467   2.718
   66CHL1    H3 5992   4.232   1.369   2.738
   66CHL1    O3 5993   4.139   1.479   2.582
   66CHL1   H3' 5994   4.217   1.441   2.541
   66CHL1    C4 5995   4.061   1.469   2.810
   66CHL1   H4A 5996   3.986   1.544   2.776
   66CHL1   H4B 5997   4.013   1.369   2.803
   66CHL1    C5 5998   4.099   1.495   2.956
   66CHL1    C6 5999   4.059   1.403   3.052
   66CHL1    H6 6000   3.995   1.321   3.018
   66CHL1    C7 6001   4.077   1.420   3.199
   66CHL1   H7A 6002   3.978   1.400   3.246
   66CHL1   H7B 6003   4.151   1.350   3.243
   66CHL1    C8 6004   4.120   1.564   3.235
   66CHL1    H8 6005   4.028   1.625   3.234
   66CHL1   C14 6006   4.181   1.554   3.378
   66CHL1   H14 6007   4.273   1.492   3.380
   66CHL1   C15 6008   4.100   1.501   3.496
   66CHL1  H15A 6009   3.998   1.546   3.487
   66CHL1  H15B 6010   4.083   1.391   3.489
   66CHL1   C16 6011   4.172   1.548   3.625
   66CHL1  H16A 6012   4.108   1.580   3.710
   66CHL1  H16B 6013   4.237   1.465   3.657
   66CHL1   C17 6014   4.264   1.666   3.579
   66CHL1   H17 6015   4.362   1.616   3.571
   66CHL1   C13 6016   4.224   1.698   3.428
   66CHL1   C18 6017   4.105   1.801   3.429
   66CHL1  H18A 6018   4.156   1.899   3.420
   66CHL1  H18B 6019   4.045   1.801   3.335
   66CHL1  H18C 6020   4.044   1.801   3.522
   66CHL1   C12 6021   4.328   1.753   3.330
   66CHL1  H12A 6022   4.370   1.852   3.355
   66CHL1  H12B 6023   4.419   1.690   3.326
   66CHL1   C11 6024   4.280   1.752   3.186
   66CHL1  H11A 6025   4.201   1.830   3.188
   66CHL1  H11B 6026   4.356   1.790   3.115
   66CHL1    C9 6027   4.229   1.618   3.142
   66CHL1    H9 6028   4.312   1.545   3.154
   66CHL1   C10 6029   4.194   1.610   2.995
   66CHL1   C19 6030   4.112   1.739   2.954
   66CHL1  H19A 6031   4.183   1.823   2.969
   66CHL1  H19B 6032   4.096   1.745   2.844
   66CHL1  H19C 6033   4.018   1.749   3.013
   66CHL1    C1 6034   4.313   1.593   2.900
   66CHL1   H1A 6035   4.385   1.675   2.918
   66CHL1   H1B 6036   4.367   1.499   2.926
   66CHL1    C2 6037   4.282   1.578   2.748
   66CHL1   H2A 6038   4.378   1.551   2.699
   66CHL1   H2B 6039   4.254   1.680   2.714
   66CHL1   C20 6040   4.279   1.786   3.678
   66CHL1   H20 6041   4.188   1.850   3.672
   66CHL1   C21 6042   4.388   1.884   3.630
   66CHL1  H21A 6043   4.490   1.842   3.641
   66CHL1  H21B 6044   4.388   1.966   3.704
   66CHL1  H21C 6045   4.369   1.936   3.533
   66CHL1   C22 6046   4.296   1.744   3.819
   66CHL1  H22A 6047   4.196   1.700   3.842
   66CHL1  H22B 6048   4.374   1.667   3.834
   66CHL1   C23 6049   4.315   1.852   3.928
   66CHL1  H23A 6050   4.417   1.896   3.926
   66CHL1  H23B 6051   4.253   1.930   3.880
   66CHL1   C24 6052   4.252   1.825   4.069
   66CHL1  H24A 6053   4.150   1.783   4.057
   66CHL1  H24B 6054   4.322   1.762   4.128
   66CHL1   C25 6055   4.239   1.945   4.161
   66CHL1   H25 6056   4.180   2.027   4.115
   66CHL1   C26 6057   4.172   1.899   4.286
   66CHL1  H26A 6058   4.067   1.866   4.272
   66CHL1  H26B 6059   4.233   1.821   4.337
   66CHL1  H26C 6060   4.170   1.981   4.361
   66CHL1   C27 6061   4.377   2.008   4.198
   66CHL1  H27A 6062   4.365   2.089   4.273
   66CHL1  H27B 6063   4.422   2.040   4.101
   66CHL1  H27C 6064   4.439   1.928   4.245
   67CHL1    C3 6065   4.304   6.104   2.740
   67CHL1    H3 6066   4.302   6.214   2.754
   67CHL1    O3 6067   4.314   6.093   2.605
   67CHL1   H3' 6068   4.292   6.004   2.578
   67CHL1    C4 6069   4.419   6.036   2.811
   67CHL1   H4A 6070   4.428   5.933   2.772
   67CHL1   H4B 6071   4.513   6.087   2.781
   67CHL1    C5 6072   4.393   6.030   2.959
   67CHL1    C6 6073   4.487   6.082   3.036
   67CHL1    H6 6074   4.576   6.125   2.988
   67CHL1    C7 6075   4.475   6.095   3.187
   67CHL1   H7A 6076   4.570   6.072   3.239
   67CHL1   H7B 6077   4.450   6.201   3.211
   67CHL1    C8 6078   4.361   5.991   3.239
   67CHL1    H8 6079   4.404   5.889   3.232
   67CHL1   C14 6080   4.335   6.012   3.388
   67CHL1   H14 6081   4.316   6.119   3.409
   67CHL1   C15 6082   4.452   5.987   3.479
   67CHL1  H15A 6083   4.483   5.886   3.445
   67CHL1  H15B 6084   4.540   6.055   3.477
   67CHL1   C16 6085   4.395   5.990   3.620
   67CHL1  H16A 6086   4.414   5.894   3.672
   67CHL1  H16B 6087   4.431   6.065   3.693
   67CHL1   C17 6088   4.238   5.988   3.598
   67CHL1   H17 6089   4.206   6.094   3.612
   67CHL1   C13 6090   4.223   5.929   3.453
   67CHL1   C18 6091   4.255   5.777   3.454
   67CHL1  H18A 6092   4.164   5.722   3.488
   67CHL1  H18B 6093   4.273   5.742   3.350
   67CHL1  H18C 6094   4.336   5.751   3.525
   67CHL1   C12 6095   4.093   5.963   3.367
   67CHL1  H12A 6096   4.006   5.906   3.407
   67CHL1  H12B 6097   4.066   6.070   3.379
   67CHL1   C11 6098   4.120   5.928   3.226
   67CHL1  H11A 6099   4.143   5.820   3.209
   67CHL1  H11B 6100   4.037   5.962   3.160
   67CHL1    C9 6101   4.239   6.008   3.161
   67CHL1    H9 6102   4.207   6.115   3.168
   67CHL1   C10 6103   4.262   5.976   3.012
   67CHL1   C19 6104   4.265   5.823   2.984
   67CHL1  H19A 6105   4.340   5.769   3.045
   67CHL1  H19B 6106   4.166   5.779   3.009
   67CHL1  H19C 6107   4.293   5.792   2.881
   67CHL1    C1 6108   4.150   6.027   2.919
   67CHL1   H1A 6109   4.057   5.971   2.942
   67CHL1   H1B 6110   4.134   6.132   2.952
   67CHL1    C2 6111   4.175   6.033   2.776
   67CHL1   H2A 6112   4.090   6.071   2.716
   67CHL1   H2B 6113   4.184   5.927   2.745
   67CHL1   C20 6114   4.169   5.915   3.718
   67CHL1   H20 6115   4.205   5.810   3.719
   67CHL1   C21 6116   4.016   5.946   3.699
   67CHL1  H21A 6117   3.975   5.885   3.616
   67CHL1  H21B 6118   4.000   6.049   3.659
   67CHL1  H21C 6119   3.959   5.928   3.793
   67CHL1   C22 6120   4.204   5.953   3.861
   67CHL1  H22A 6121   4.314   5.971   3.868
   67CHL1  H22B 6122   4.175   6.058   3.884
   67CHL1   C23 6123   4.158   5.862   3.970
   67CHL1  H23A 6124   4.053   5.825   3.963
   67CHL1  H23B 6125   4.217   5.767   3.965
   67CHL1   C24 6126   4.173   5.929   4.109
   67CHL1  H24A 6127   4.281   5.928   4.136
   67CHL1  H24B 6128   4.164   6.039   4.095
   67CHL1   C25 6129   4.073   5.884   4.215
   67CHL1   H25 6130   3.971   5.863   4.175
   67CHL1   C26 6131   4.124   5.755   4.280
   67CHL1  H26A 6132   4.197   5.798   4.352
   67CHL1  H26B 6133   4.045   5.714   4.346
   67CHL1  H26C 6134   4.160   5.677   4.208
   67CHL1   C27 6135   4.067   5.995   4.319
   67CHL1  H27A 6136   4.008   5.964   4.408
   67CHL1  H27B 6137   4.170   6.023   4.350
   67CHL1  H27C 6138   4.031   6.084   4.263
   68CHL1    C3 6139   2.029   4.877   2.703
   68CHL1    H3 6140   2.135   4.872   2.732
   68CHL1    O3 6141   2.021   4.830   2.566
   68CHL1   H3' 6142   2.086   4.888   2.524
   68CHL1    C4 6143   1.937   4.786   2.785
   68CHL1   H4A 6144   1.830   4.782   2.753
   68CHL1   H4B 6145   1.974   4.681   2.781
   68CHL1    C5 6146   1.944   4.840   2.929
   68CHL1    C6 6147   1.968   4.753   3.026
   68CHL1    H6 6148   1.979   4.645   3.011
   68CHL1    C7 6149   1.969   4.784   3.176
   68CHL1   H7A 6150   1.903   4.712   3.229
   68CHL1   H7B 6151   2.074   4.774   3.211
   68CHL1    C8 6152   1.924   4.931   3.208
   68CHL1    H8 6153   1.813   4.925   3.216
   68CHL1   C14 6154   1.982   4.984   3.341
   68CHL1   H14 6155   2.091   4.989   3.324
   68CHL1   C15 6156   1.971   4.898   3.467
   68CHL1  H15A 6157   1.877   4.838   3.461
   68CHL1  H15B 6158   2.048   4.818   3.467
   68CHL1   C16 6159   1.974   5.001   3.586
   68CHL1  H16A 6160   1.875   4.982   3.633
   68CHL1  H16B 6161   2.052   4.989   3.664
   68CHL1   C17 6162   1.987   5.142   3.524
   68CHL1   H17 6163   2.096   5.163   3.521
   68CHL1   C13 6164   1.924   5.124   3.384
   68CHL1   C18 6165   1.767   5.120   3.403
   68CHL1  H18A 6166   1.720   5.221   3.414
   68CHL1  H18B 6167   1.712   5.088   3.312
   68CHL1  H18C 6168   1.739   5.063   3.494
   68CHL1   C12 6169   1.962   5.223   3.269
   68CHL1  H12A 6170   1.920   5.324   3.283
   68CHL1  H12B 6171   2.070   5.247   3.279
   68CHL1   C11 6172   1.922   5.179   3.129
   68CHL1  H11A 6173   1.811   5.189   3.135
   68CHL1  H11B 6174   1.955   5.248   3.049
   68CHL1    C9 6175   1.962   5.036   3.091
   68CHL1    H9 6176   2.072   5.042   3.082
   68CHL1   C10 6177   1.917   4.991   2.955
   68CHL1   C19 6178   1.764   4.993   2.942
   68CHL1  H19A 6179   1.724   4.953   2.846
   68CHL1  H19B 6180   1.713   4.937   3.023
   68CHL1  H19C 6181   1.733   5.099   2.933
   68CHL1    C1 6182   1.987   5.077   2.843
   68CHL1   H1A 6183   1.934   5.174   2.838
   68CHL1   H1B 6184   2.096   5.085   2.866
   68CHL1    C2 6185   1.980   5.021   2.703
   68CHL1   H2A 6186   2.024   5.097   2.635
   68CHL1   H2B 6187   1.873   5.023   2.673
   68CHL1   C20 6188   1.938   5.254   3.619
   68CHL1   H20 6189   1.828   5.258   3.632
   68CHL1   C21 6190   1.966   5.395   3.549
   68CHL1  H21A 6191   2.035   5.387   3.462
   68CHL1  H21B 6192   2.023   5.473   3.605
   68CHL1  H21C 6193   1.871   5.437   3.509
   68CHL1   C22 6194   1.997   5.245   3.765
   68CHL1  H22A 6195   1.962   5.149   3.809
   68CHL1  H22B 6196   2.108   5.240   3.758
   68CHL1   C23 6197   1.944   5.355   3.858
   68CHL1  H23A 6198   1.990   5.449   3.820
   68CHL1  H23B 6199   1.835   5.369   3.868
   68CHL1   C24 6200   1.999   5.351   4.000
   68CHL1  H24A 6201   2.108   5.366   3.986
   68CHL1  H24B 6202   1.965   5.432   4.069
   68CHL1   C25 6203   1.959   5.219   4.073
   68CHL1   H25 6204   1.988   5.128   4.017
   68CHL1   C26 6205   2.041   5.214   4.201
   68CHL1  H26A 6206   2.016   5.124   4.261
   68CHL1  H26B 6207   2.146   5.209   4.162
   68CHL1  H26C 6208   2.021   5.305   4.261
   68CHL1   C27 6209   1.809   5.209   4.101
   68CHL1  H27A 6210   1.785   5.150   4.192
   68CHL1  H27B 6211   1.763   5.308   4.124
   68CHL1  H27C 6212   1.756   5.179   4.008
   69CHL1    C3 6213   0.929   2.601   2.434
   69CHL1    H3 6214   0.965   2.496   2.443
   69CHL1    O3 6215   0.948   2.651   2.306
   69CHL1   H3' 6216   1.043   2.662   2.294
   69CHL1    C4 6217   0.779   2.601   2.468
   69CHL1   H4A 6218   0.749   2.702   2.435
   69CHL1   H4B 6219   0.727   2.528   2.402
   69CHL1    C5 6220   0.736   2.588   2.614
   69CHL1    C6 6221   0.639   2.510   2.660
   69CHL1    H6 6222   0.594   2.450   2.579
   69CHL1    C7 6223   0.589   2.510   2.802
   69CHL1   H7A 6224   0.479   2.520   2.803
   69CHL1   H7B 6225   0.601   2.408   2.844
   69CHL1    C8 6226   0.646   2.617   2.892
   69CHL1    H8 6227   0.584   2.709   2.890
   69CHL1   C14 6228   0.639   2.559   3.036
   69CHL1   H14 6229   0.710   2.472   3.037
   69CHL1   C15 6230   0.510   2.500   3.088
   69CHL1  H15A 6231   0.427   2.552   3.035
   69CHL1  H15B 6232   0.514   2.395   3.053
   69CHL1   C16 6233   0.525   2.502   3.239
   69CHL1  H16A 6234   0.443   2.566   3.277
   69CHL1  H16B 6235   0.508   2.404   3.287
   69CHL1   C17 6236   0.667   2.558   3.267
   69CHL1   H17 6237   0.741   2.475   3.271
   69CHL1   C13 6238   0.696   2.648   3.148
   69CHL1   C18 6239   0.621   2.787   3.152
   69CHL1  H18A 6240   0.664   2.860   3.223
   69CHL1  H18B 6241   0.612   2.832   3.051
   69CHL1  H18C 6242   0.519   2.771   3.194
   69CHL1   C12 6243   0.846   2.676   3.112
   69CHL1  H12A 6244   0.882   2.749   3.188
   69CHL1  H12B 6245   0.885   2.572   3.117
   69CHL1   C11 6246   0.862   2.728   2.968
   69CHL1  H11A 6247   0.825   2.832   2.967
   69CHL1  H11B 6248   0.971   2.733   2.944
   69CHL1    C9 6249   0.795   2.638   2.861
   69CHL1    H9 6250   0.846   2.540   2.870
   69CHL1   C10 6251   0.809   2.680   2.711
   69CHL1   C19 6252   0.759   2.818   2.695
   69CHL1  H19A 6253   0.785   2.848   2.591
   69CHL1  H19B 6254   0.648   2.829   2.696
   69CHL1  H19C 6255   0.817   2.889   2.757
   69CHL1    C1 6256   0.965   2.680   2.674
   69CHL1   H1A 6257   1.009   2.757   2.740
   69CHL1   H1B 6258   1.001   2.580   2.707
   69CHL1    C2 6259   1.007   2.698   2.525
   69CHL1   H2A 6260   1.116   2.679   2.529
   69CHL1   H2B 6261   0.987   2.802   2.492
   69CHL1   C20 6262   0.680   2.624   3.410
   69CHL1   H20 6263   0.635   2.725   3.405
   69CHL1   C21 6264   0.824   2.655   3.458
   69CHL1  H21A 6265   0.824   2.708   3.556
   69CHL1  H21B 6266   0.881   2.721   3.389
   69CHL1  H21C 6267   0.885   2.563   3.471
   69CHL1   C22 6268   0.609   2.539   3.522
   69CHL1  H22A 6269   0.499   2.544   3.510
   69CHL1  H22B 6270   0.631   2.431   3.504
   69CHL1   C23 6271   0.656   2.559   3.669
   69CHL1  H23A 6272   0.767   2.547   3.669
   69CHL1  H23B 6273   0.637   2.660   3.711
   69CHL1   C24 6274   0.595   2.448   3.760
   69CHL1  H24A 6275   0.485   2.457   3.758
   69CHL1  H24B 6276   0.619   2.351   3.711
   69CHL1   C25 6277   0.652   2.445   3.907
   69CHL1   H25 6278   0.758   2.414   3.894
   69CHL1   C26 6279   0.648   2.581   3.976
   69CHL1  H26A 6280   0.709   2.651   3.916
   69CHL1  H26B 6281   0.549   2.631   3.979
   69CHL1  H26C 6282   0.693   2.564   4.077
   69CHL1   C27 6283   0.583   2.335   3.984
   69CHL1  H27A 6284   0.479   2.369   4.004
   69CHL1  H27B 6285   0.578   2.236   3.934
   69CHL1  H27C 6286   0.629   2.313   4.083
   70CHL1    C3 6287   2.452   0.131   2.883
   70CHL1    H3 6288   2.515   0.041   2.899
   70CHL1    O3 6289   2.372   0.102   2.762
   70CHL1   H3' 6290   2.327   0.186   2.751
   70CHL1    C4 6291   2.353   0.137   3.002
   70CHL1   H4A 6292   2.272   0.212   2.987
   70CHL1   H4B 6293   2.285   0.051   3.025
   70CHL1    C5 6294   2.417   0.194   3.124
   70CHL1    C6 6295   2.408   0.122   3.235
   70CHL1    H6 6296   2.351   0.028   3.246
   70CHL1    C7 6297   2.464   0.160   3.363
   70CHL1   H7A 6298   2.393   0.144   3.447
   70CHL1   H7B 6299   2.547   0.089   3.381
   70CHL1    C8 6300   2.516   0.307   3.372
   70CHL1    H8 6301   2.423   0.368   3.384
   70CHL1   C14 6302   2.609   0.316   3.488
   70CHL1   H14 6303   2.692   0.243   3.476
   70CHL1   C15 6304   2.562   0.269   3.630
   70CHL1  H15A 6305   2.455   0.297   3.635
   70CHL1  H15B 6306   2.578   0.159   3.633
   70CHL1   C16 6307   2.656   0.342   3.718
   70CHL1  H16A 6308   2.594   0.411   3.780
   70CHL1  H16B 6309   2.707   0.269   3.785
   70CHL1   C17 6310   2.755   0.428   3.632
   70CHL1   H17 6311   2.844   0.364   3.610
   70CHL1   C13 6312   2.674   0.455   3.497
   70CHL1   C18 6313   2.564   0.564   3.518
   70CHL1  H18A 6314   2.484   0.562   3.441
   70CHL1  H18B 6315   2.519   0.547   3.618
   70CHL1  H18C 6316   2.609   0.666   3.516
   70CHL1   C12 6317   2.750   0.491   3.372
   70CHL1  H12A 6318   2.804   0.587   3.370
   70CHL1  H12B 6319   2.815   0.403   3.354
   70CHL1   C11 6320   2.663   0.484   3.256
   70CHL1  H11A 6321   2.592   0.570   3.254
   70CHL1  H11B 6322   2.718   0.490   3.160
   70CHL1    C9 6323   2.598   0.342   3.249
   70CHL1    H9 6324   2.678   0.267   3.238
   70CHL1   C10 6325   2.509   0.325   3.113
   70CHL1   C19 6326   2.419   0.446   3.089
   70CHL1  H19A 6327   2.477   0.537   3.065
   70CHL1  H19B 6328   2.348   0.431   3.004
   70CHL1  H19C 6329   2.348   0.455   3.174
   70CHL1    C1 6330   2.608   0.305   2.989
   70CHL1   H1A 6331   2.660   0.399   2.959
   70CHL1   H1B 6332   2.688   0.232   3.012
   70CHL1    C2 6333   2.537   0.258   2.858
   70CHL1   H2A 6334   2.614   0.232   2.782
   70CHL1   H2B 6335   2.481   0.341   2.810
   70CHL1   C20 6336   2.795   0.546   3.703
   70CHL1   H20 6337   2.708   0.615   3.713
   70CHL1   C21 6338   2.882   0.629   3.616
   70CHL1  H21A 6339   2.820   0.690   3.547
   70CHL1  H21B 6340   2.943   0.560   3.554
   70CHL1  H21C 6341   2.948   0.701   3.669
   70CHL1   C22 6342   2.866   0.506   3.837
   70CHL1  H22A 6343   2.802   0.458   3.914
   70CHL1  H22B 6344   2.945   0.431   3.816
   70CHL1   C23 6345   2.929   0.626   3.916
   70CHL1  H23A 6346   3.025   0.646   3.864
   70CHL1  H23B 6347   2.863   0.715   3.908
   70CHL1   C24 6348   2.957   0.593   4.067
   70CHL1  H24A 6349   2.859   0.625   4.109
   70CHL1  H24B 6350   2.958   0.485   4.092
   70CHL1   C25 6351   3.073   0.676   4.125
   70CHL1   H25 6352   3.150   0.686   4.045
   70CHL1   C26 6353   3.023   0.825   4.152
   70CHL1  H26A 6354   3.113   0.889   4.142
   70CHL1  H26B 6355   2.949   0.866   4.081
   70CHL1  H26C 6356   2.983   0.828   4.256
   70CHL1   C27 6357   3.128   0.620   4.260
   70CHL1  H27A 6358   3.046   0.604   4.333
   70CHL1  H27B 6359   3.189   0.527   4.247
   70CHL1  H27C 6360   3.187   0.696   4.315
   71CHL1    C3 6361   6.016   5.761   2.702
   71CHL1    H3 6362   5.908   5.734   2.708
   71CHL1    O3 6363   6.074   5.743   2.566
   71CHL1   H3' 6364   6.163   5.774   2.580
   71CHL1    C4 6365   6.020   5.912   2.739
   71CHL1   H4A 6366   6.125   5.945   2.726
   71CHL1   H4B 6367   5.954   5.972   2.672
   71CHL1    C5 6368   5.971   5.930   2.883
   71CHL1    C6 6369   5.857   5.993   2.914
   71CHL1    H6 6370   5.791   6.036   2.836
   71CHL1    C7 6371   5.804   6.013   3.050
   71CHL1   H7A 6372   5.780   6.121   3.050
   71CHL1   H7B 6373   5.711   5.955   3.068
   71CHL1    C8 6374   5.911   5.988   3.161
   71CHL1    H8 6375   5.987   6.069   3.162
   71CHL1   C14 6376   5.852   5.978   3.302
   71CHL1   H14 6377   5.782   5.893   3.293
   71CHL1   C15 6378   5.774   6.103   3.355
   71CHL1  H15A 6379   5.809   6.198   3.309
   71CHL1  H15B 6380   5.670   6.079   3.322
   71CHL1   C16 6381   5.784   6.102   3.510
   71CHL1  H16A 6382   5.838   6.187   3.557
   71CHL1  H16B 6383   5.681   6.102   3.552
   71CHL1   C17 6384   5.864   5.969   3.552
   71CHL1   H17 6385   5.786   5.891   3.538
   71CHL1   C13 6386   5.946   5.944   3.417
   71CHL1   C18 6387   6.071   6.051   3.423
   71CHL1  H18A 6388   6.107   6.066   3.319
   71CHL1  H18B 6389   6.030   6.151   3.452
   71CHL1  H18C 6390   6.147   6.028   3.501
   71CHL1   C12 6391   6.008   5.807   3.395
   71CHL1  H12A 6392   6.084   5.779   3.471
   71CHL1  H12B 6393   5.925   5.733   3.393
   71CHL1   C11 6394   6.067   5.812   3.257
   71CHL1  H11A 6395   6.152   5.881   3.274
   71CHL1  H11B 6396   6.106   5.711   3.231
   71CHL1    C9 6397   5.983   5.858   3.138
   71CHL1    H9 6398   5.891   5.797   3.123
   71CHL1   C10 6399   6.047   5.849   2.993
   71CHL1   C19 6400   6.185   5.905   3.005
   71CHL1  H19A 6401   6.243   5.904   2.910
   71CHL1  H19B 6402   6.194   6.008   3.045
   71CHL1  H19C 6403   6.248   5.838   3.068
   71CHL1    C1 6404   6.057   5.700   2.951
   71CHL1   H1A 6405   6.114   5.635   3.021
   71CHL1   H1B 6406   5.956   5.656   2.962
   71CHL1    C2 6407   6.097   5.675   2.808
   71CHL1   H2A 6408   6.077   5.567   2.793
   71CHL1   H2B 6409   6.202   5.710   2.801
   71CHL1   C20 6410   5.920   5.945   3.691
   71CHL1   H20 6411   6.002   5.872   3.677
   71CHL1   C21 6412   5.810   5.873   3.776
   71CHL1  H21A 6413   5.776   5.784   3.720
   71CHL1  H21B 6414   5.731   5.945   3.807
   71CHL1  H21C 6415   5.846   5.828   3.871
   71CHL1   C22 6416   5.971   6.071   3.765
   71CHL1  H22A 6417   6.056   6.115   3.709
   71CHL1  H22B 6418   5.887   6.141   3.783
   71CHL1   C23 6419   6.033   6.029   3.901
   71CHL1  H23A 6420   5.959   5.984   3.970
   71CHL1  H23B 6421   6.101   5.946   3.873
   71CHL1   C24 6422   6.101   6.143   3.978
   71CHL1  H24A 6423   6.203   6.153   3.935
   71CHL1  H24B 6424   6.055   6.239   3.947
   71CHL1   C25 6425   6.094   6.119   4.134
   71CHL1   H25 6426   6.149   6.025   4.156
   71CHL1   C26 6427   6.171   6.227   4.203
   71CHL1  H26A 6428   6.266   6.192   4.248
   71CHL1  H26B 6429   6.187   6.315   4.136
   71CHL1  H26C 6430   6.120   6.256   4.297
   71CHL1   C27 6431   5.951   6.122   4.183
   71CHL1  H27A 6432   5.954   6.132   4.293
   71CHL1  H27B 6433   5.892   6.207   4.143
   71CHL1  H27C 6434   5.898   6.027   4.158
   72CHL1    C3 6435   0.227   4.306   2.870
   72CHL1    H3 6436   0.251   4.207   2.915
   72CHL1    O3 6437   0.224   4.283   2.727
   72CHL1   H3' 6438   0.209   4.374   2.702
   72CHL1    C4 6439   0.086   4.351   2.921
   72CHL1   H4A 6440   0.050   4.444   2.872
   72CHL1   H4B 6441   0.013   4.272   2.893
   72CHL1    C5 6442   0.096   4.364   3.070
   72CHL1    C6 6443   0.025   4.286   3.158
   72CHL1    H6 6444   6.794   4.212   3.124
   72CHL1    C7 6445   0.023   4.305   3.305
   72CHL1   H7A 6446   6.762   4.318   3.341
   72CHL1   H7B 6447   0.064   4.213   3.353
   72CHL1    C8 6448   0.098   4.431   3.350
   72CHL1    H8 6449   0.035   4.522   3.342
   72CHL1   C14 6450   0.147   4.419   3.493
   72CHL1   H14 6451   0.213   4.330   3.497
   72CHL1   C15 6452   0.040   4.382   3.600
   72CHL1  H15A 6453   6.795   4.450   3.597
   72CHL1  H15B 6454   6.839   4.280   3.589
   72CHL1   C16 6455   0.105   4.406   3.741
   72CHL1  H16A 6456   0.038   4.475   3.796
   72CHL1  H16B 6457   0.132   4.317   3.800
   72CHL1   C17 6458   0.235   4.490   3.704
   72CHL1   H17 6459   0.315   4.413   3.705
   72CHL1   C13 6460   0.223   4.533   3.554
   72CHL1   C18 6461   0.137   4.661   3.562
   72CHL1  H18A 6462   0.117   4.688   3.456
   72CHL1  H18B 6463   0.045   4.648   3.621
   72CHL1  H18C 6464   0.199   4.738   3.612
   72CHL1   C12 6465   0.343   4.556   3.474
   72CHL1  H12A 6466   0.402   4.642   3.513
   72CHL1  H12B 6467   0.395   4.458   3.470
   72CHL1   C11 6468   0.309   4.583   3.324
   72CHL1  H11A 6469   0.245   4.674   3.317
   72CHL1  H11B 6470   0.398   4.601   3.260
   72CHL1    C9 6471   0.225   4.462   3.268
   72CHL1    H9 6472   0.286   4.370   3.282
   72CHL1   C10 6473   0.203   4.469   3.117
   72CHL1   C19 6474   0.151   4.612   3.089
   72CHL1  H19A 6475   0.225   4.689   3.122
   72CHL1  H19B 6476   0.140   4.627   2.979
   72CHL1  H19C 6477   0.059   4.638   3.145
   72CHL1    C1 6478   0.343   4.434   3.050
   72CHL1   H1A 6479   0.412   4.521   3.052
   72CHL1   H1B 6480   0.392   4.345   3.094
   72CHL1    C2 6481   0.338   4.409   2.905
   72CHL1   H2A 6482   0.438   4.387   2.864
   72CHL1   H2B 6483   0.296   4.502   2.860
   72CHL1   C20 6484   0.267   4.596   3.810
   72CHL1   H20 6485   0.191   4.677   3.818
   72CHL1   C21 6486   0.389   4.677   3.774
   72CHL1  H21A 6487   0.372   4.751   3.693
   72CHL1  H21B 6488   0.467   4.604   3.745
   72CHL1  H21C 6489   0.424   4.739   3.860
   72CHL1   C22 6490   0.280   4.535   3.951
   72CHL1  H22A 6491   0.303   4.624   4.014
   72CHL1  H22B 6492   0.183   4.493   3.985
   72CHL1   C23 6493   0.378   4.423   3.969
   72CHL1  H23A 6494   0.356   4.331   3.911
   72CHL1  H23B 6495   0.476   4.447   3.921
   72CHL1   C24 6496   0.400   4.401   4.120
   72CHL1  H24A 6497   0.493   4.341   4.134
   72CHL1  H24B 6498   0.421   4.501   4.164
   72CHL1   C25 6499   0.277   4.342   4.207
   72CHL1   H25 6500   0.187   4.400   4.176
   72CHL1   C26 6501   0.260   4.194   4.170
   72CHL1  H26A 6502   0.362   4.150   4.179
   72CHL1  H26B 6503   0.195   4.139   4.241
   72CHL1  H26C 6504   0.222   4.179   4.067
   72CHL1   C27 6505   0.293   4.354   4.355
   72CHL1  H27A 6506   0.388   4.309   4.393
   72CHL1  H27B 6507   0.294   4.456   4.398
   72CHL1  H27C 6508   0.217   4.284   4.396
   73CHL1    C3 6509   1.155   4.915   2.755
   73CHL1    H3 6510   1.178   5.024   2.750
   73CHL1    O3 6511   1.134   4.871   2.622
   73CHL1   H3' 6512   1.062   4.924   2.588
   73CHL1    C4 6513   1.270   4.834   2.823
   73CHL1   H4A 6514   1.251   4.726   2.807
   73CHL1   H4B 6515   1.360   4.853   2.760
   73CHL1    C5 6516   1.285   4.862   2.967
   73CHL1    C6 6517   1.400   4.908   3.019
   73CHL1    H6 6518   1.489   4.910   2.954
   73CHL1    C7 6519   1.423   4.918   3.166
   73CHL1   H7A 6520   1.525   4.882   3.188
   73CHL1   H7B 6521   1.415   5.025   3.194
   73CHL1    C8 6522   1.312   4.853   3.256
   73CHL1    H8 6523   1.326   4.743   3.259
   73CHL1   C14 6524   1.322   4.904   3.401
   73CHL1   H14 6525   1.304   5.013   3.390
   73CHL1   C15 6526   1.454   4.894   3.476
   73CHL1  H15A 6527   1.522   4.812   3.446
   73CHL1  H15B 6528   1.503   4.993   3.467
   73CHL1   C16 6529   1.417   4.887   3.619
   73CHL1  H16A 6530   1.441   4.783   3.649
   73CHL1  H16B 6531   1.458   4.964   3.688
   73CHL1   C17 6532   1.258   4.897   3.629
   73CHL1   H17 6533   1.232   5.004   3.637
   73CHL1   C13 6534   1.217   4.843   3.493
   73CHL1   C18 6535   1.231   4.693   3.494
   73CHL1  H18A 6536   1.193   4.664   3.394
   73CHL1  H18B 6537   1.337   4.661   3.505
   73CHL1  H18C 6538   1.150   4.638   3.546
   73CHL1   C12 6539   1.078   4.882   3.444
   73CHL1  H12A 6540   0.998   4.830   3.502
   73CHL1  H12B 6541   1.059   4.992   3.443
   73CHL1   C11 6542   1.046   4.845   3.300
   73CHL1  H11A 6543   1.034   4.734   3.297
   73CHL1  H11B 6544   0.949   4.887   3.266
   73CHL1    C9 6545   1.169   4.879   3.203
   73CHL1    H9 6546   1.169   4.991   3.204
   73CHL1   C10 6547   1.155   4.838   3.055
   73CHL1   C19 6548   1.131   4.684   3.046
   73CHL1  H19A 6549   1.047   4.658   3.113
   73CHL1  H19B 6550   1.106   4.646   2.944
   73CHL1  H19C 6551   1.218   4.624   3.080
   73CHL1    C1 6552   1.043   4.931   2.978
   73CHL1   H1A 6553   0.942   4.928   3.025
   73CHL1   H1B 6554   1.093   5.030   2.980
   73CHL1    C2 6555   1.025   4.900   2.827
   73CHL1   H2A 6556   0.947   4.970   2.789
   73CHL1   H2B 6557   0.998   4.794   2.805
   73CHL1   C20 6558   1.201   4.821   3.750
   73CHL1   H20 6559   1.180   4.716   3.719
   73CHL1   C21 6560   1.071   4.887   3.788
   73CHL1  H21A 6561   1.020   4.843   3.877
   73CHL1  H21B 6562   0.994   4.896   3.708
   73CHL1  H21C 6563   1.089   4.992   3.818
   73CHL1   C22 6564   1.291   4.819   3.879
   73CHL1  H22A 6565   1.377   4.759   3.844
   73CHL1  H22B 6566   1.327   4.919   3.912
   73CHL1   C23 6567   1.235   4.725   3.990
   73CHL1  H23A 6568   1.144   4.764   4.041
   73CHL1  H23B 6569   1.211   4.625   3.948
   73CHL1   C24 6570   1.346   4.692   4.095
   73CHL1  H24A 6571   1.432   4.642   4.045
   73CHL1  H24B 6572   1.375   4.789   4.141
   73CHL1   C25 6573   1.314   4.596   4.210
   73CHL1   H25 6574   1.298   4.494   4.169
   73CHL1   C26 6575   1.441   4.591   4.300
   73CHL1  H26A 6576   1.534   4.582   4.239
   73CHL1  H26B 6577   1.450   4.684   4.360
   73CHL1  H26C 6578   1.421   4.512   4.375
   73CHL1   C27 6579   1.195   4.641   4.299
   73CHL1  H27A 6580   1.202   4.738   4.352
   73CHL1  H27B 6581   1.103   4.638   4.237
   73CHL1  H27C 6582   1.192   4.565   4.381
   74CHL1    C3 6583   0.964   4.173   2.448
   74CHL1    H3 6584   0.921   4.273   2.472
   74CHL1    O3 6585   0.953   4.141   2.311
   74CHL1   H3' 6586   0.990   4.053   2.302
   74CHL1    C4 6587   1.111   4.182   2.475
   74CHL1   H4A 6588   1.165   4.090   2.445
   74CHL1   H4B 6589   1.153   4.270   2.420
   74CHL1    C5 6590   1.144   4.200   2.624
   74CHL1    C6 6591   1.216   4.309   2.665
   74CHL1    H6 6592   1.249   4.383   2.591
   74CHL1    C7 6593   1.243   4.345   2.811
   74CHL1   H7A 6594   1.344   4.385   2.832
   74CHL1   H7B 6595   1.169   4.417   2.852
   74CHL1    C8 6596   1.224   4.217   2.897
   74CHL1    H8 6597   1.307   4.145   2.881
   74CHL1   C14 6598   1.242   4.251   3.050
   74CHL1   H14 6599   1.170   4.334   3.067
   74CHL1   C15 6600   1.375   4.314   3.101
   74CHL1  H15A 6601   1.458   4.255   3.056
   74CHL1  H15B 6602   1.389   4.419   3.070
   74CHL1   C16 6603   1.360   4.308   3.257
   74CHL1  H16A 6604   1.451   4.268   3.308
   74CHL1  H16B 6605   1.345   4.412   3.294
   74CHL1   C17 6606   1.243   4.208   3.284
   74CHL1   H17 6607   1.152   4.261   3.320
   74CHL1   C13 6608   1.211   4.140   3.147
   74CHL1   C18 6609   1.309   4.024   3.117
   74CHL1  H18A 6610   1.269   3.943   3.181
   74CHL1  H18B 6611   1.295   3.990   3.012
   74CHL1  H18C 6612   1.415   4.049   3.138
   74CHL1   C12 6613   1.065   4.092   3.122
   74CHL1  H12A 6614   1.037   4.001   3.179
   74CHL1  H12B 6615   0.992   4.174   3.138
   74CHL1   C11 6616   1.048   4.038   2.971
   74CHL1  H11A 6617   1.110   3.946   2.969
   74CHL1  H11B 6618   0.943   4.013   2.946
   74CHL1    C9 6619   1.097   4.141   2.869
   74CHL1    H9 6620   1.021   4.221   2.884
   74CHL1   C10 6621   1.081   4.105   2.720
   74CHL1   C19 6622   1.138   3.967   2.703
   74CHL1  H19A 6623   1.245   3.974   2.735
   74CHL1  H19B 6624   1.068   3.893   2.748
   74CHL1  H19C 6625   1.145   3.932   2.598
   74CHL1    C1 6626   0.930   4.091   2.683
   74CHL1   H1A 6627   0.878   4.008   2.735
   74CHL1   H1B 6628   0.877   4.183   2.717
   74CHL1    C2 6629   0.895   4.069   2.533
   74CHL1   H2A 6630   0.785   4.069   2.516
   74CHL1   H2B 6631   0.925   3.963   2.522
   74CHL1   C20 6632   1.281   4.107   3.397
   74CHL1   H20 6633   1.370   4.054   3.355
   74CHL1   C21 6634   1.177   3.993   3.426
   74CHL1  H21A 6635   1.077   4.043   3.431
   74CHL1  H21B 6636   1.193   3.949   3.527
   74CHL1  H21C 6637   1.169   3.904   3.361
   74CHL1   C22 6638   1.313   4.179   3.529
   74CHL1  H22A 6639   1.345   4.095   3.595
   74CHL1  H22B 6640   1.403   4.244   3.525
   74CHL1   C23 6641   1.207   4.276   3.583
   74CHL1  H23A 6642   1.218   4.363   3.514
   74CHL1  H23B 6643   1.104   4.233   3.577
   74CHL1   C24 6644   1.231   4.328   3.720
   74CHL1  H24A 6645   1.341   4.338   3.736
   74CHL1  H24B 6646   1.189   4.430   3.729
   74CHL1   C25 6647   1.173   4.247   3.838
   74CHL1   H25 6648   1.242   4.160   3.848
   74CHL1   C26 6649   1.192   4.317   3.980
   74CHL1  H26A 6650   1.245   4.415   3.983
   74CHL1  H26B 6651   1.095   4.337   4.032
   74CHL1  H26C 6652   1.261   4.256   4.041
   74CHL1   C27 6653   1.026   4.200   3.827
   74CHL1  H27A 6654   1.004   4.130   3.744
   74CHL1  H27B 6655   0.978   4.156   3.918
   74CHL1  H27C 6656   0.965   4.290   3.804
   75CHL1    C3 6657   1.173   3.039   2.683
   75CHL1    H3 6658   1.114   2.945   2.671
   75CHL1    O3 6659   1.241   3.063   2.560
   75CHL1   H3' 6660   1.277   3.152   2.567
   75CHL1    C4 6661   1.075   3.157   2.706
   75CHL1   H4A 6662   1.132   3.251   2.693
   75CHL1   H4B 6663   0.998   3.154   2.626
   75CHL1    C5 6664   1.010   3.147   2.844
   75CHL1    C6 6665   0.875   3.150   2.861
   75CHL1    H6 6666   0.812   3.161   2.772
   75CHL1    C7 6667   0.809   3.148   2.993
   75CHL1   H7A 6668   0.727   3.223   2.988
   75CHL1   H7B 6669   0.753   3.052   2.996
   75CHL1    C8 6670   0.901   3.172   3.106
   75CHL1    H8 6671   0.920   3.281   3.110
   75CHL1   C14 6672   0.848   3.137   3.238
   75CHL1   H14 6673   0.836   3.026   3.241
   75CHL1   C15 6674   0.698   3.170   3.277
   75CHL1  H15A 6675   0.694   3.278   3.252
   75CHL1  H15B 6676   0.619   3.114   3.224
   75CHL1   C16 6677   0.686   3.141   3.424
   75CHL1  H16A 6678   0.644   3.228   3.478
   75CHL1  H16B 6679   0.622   3.052   3.436
   75CHL1   C17 6680   0.827   3.107   3.475
   75CHL1   H17 6681   0.839   2.997   3.464
   75CHL1   C13 6682   0.925   3.168   3.366
   75CHL1   C18 6683   0.940   3.320   3.401
   75CHL1  H18A 6684   1.005   3.371   3.327
   75CHL1  H18B 6685   0.837   3.360   3.387
   75CHL1  H18C 6686   0.971   3.348   3.504
   75CHL1   C12 6687   1.057   3.092   3.354
   75CHL1  H12A 6688   1.131   3.098   3.437
   75CHL1  H12B 6689   1.028   2.985   3.346
   75CHL1   C11 6690   1.136   3.137   3.230
   75CHL1  H11A 6691   1.175   3.239   3.251
   75CHL1  H11B 6692   1.221   3.070   3.208
   75CHL1    C9 6693   1.043   3.116   3.098
   75CHL1    H9 6694   1.025   3.007   3.096
   75CHL1   C10 6695   1.108   3.140   2.959
   75CHL1   C19 6696   1.194   3.269   2.966
   75CHL1  H19A 6697   1.291   3.246   3.016
   75CHL1  H19B 6698   1.220   3.304   2.864
   75CHL1  H19C 6699   1.137   3.347   3.021
   75CHL1    C1 6700   1.201   3.016   2.926
   75CHL1   H1A 6701   1.275   3.014   3.008
   75CHL1   H1B 6702   1.139   2.924   2.932
   75CHL1    C2 6703   1.280   3.030   2.792
   75CHL1   H2A 6704   1.353   2.949   2.771
   75CHL1   H2B 6705   1.327   3.130   2.796
   75CHL1   C20 6706   0.860   3.139   3.623
   75CHL1   H20 6707   0.970   3.148   3.631
   75CHL1   C21 6708   0.821   3.002   3.692
   75CHL1  H21A 6709   0.876   2.909   3.671
   75CHL1  H21B 6710   0.712   2.981   3.682
   75CHL1  H21C 6711   0.833   3.006   3.803
   75CHL1   C22 6712   0.790   3.264   3.679
   75CHL1  H22A 6713   0.770   3.344   3.605
   75CHL1  H22B 6714   0.686   3.235   3.704
   75CHL1   C23 6715   0.860   3.326   3.806
   75CHL1  H23A 6716   0.892   3.245   3.875
   75CHL1  H23B 6717   0.952   3.371   3.764
   75CHL1   C24 6718   0.772   3.425   3.876
   75CHL1  H24A 6719   0.760   3.522   3.823
   75CHL1  H24B 6720   0.665   3.393   3.878
   75CHL1   C25 6721   0.806   3.471   4.021
   75CHL1   H25 6722   0.915   3.494   4.019
   75CHL1   C26 6723   0.729   3.597   4.060
   75CHL1  H26A 6724   0.626   3.565   4.087
   75CHL1  H26B 6725   0.776   3.634   4.153
   75CHL1  H26C 6726   0.725   3.675   3.980
   75CHL1   C27 6727   0.782   3.362   4.130
   75CHL1  H27A 6728   0.858   3.284   4.112
   75CHL1  H27B 6729   0.791   3.409   4.230
   75CHL1  H27C 6730   0.682   3.313   4.117
   76CHL1    C3 6731   6.507   4.616   2.945
   76CHL1    H3 6732   6.615   4.643   2.942
   76CHL1    O3 6733   6.486   4.551   2.821
   76CHL1   H3' 6734   6.395   4.572   2.796
   76CHL1    C4 6735   6.462   4.521   3.058
   76CHL1   H4A 6736   6.354   4.501   3.040
   76CHL1   H4B 6737   6.511   4.423   3.042
   76CHL1    C5 6738   6.475   4.582   3.195
   76CHL1    C6 6739   6.549   4.529   3.294
   76CHL1    H6 6740   6.597   4.432   3.275
   76CHL1    C7 6741   6.572   4.596   3.431
   76CHL1   H7A 6742   6.554   4.521   3.511
   76CHL1   H7B 6743   6.679   4.624   3.444
   76CHL1    C8 6744   6.491   4.733   3.455
   76CHL1    H8 6745   6.392   4.706   3.498
   76CHL1   C14 6746   6.545   4.825   3.560
   76CHL1   H14 6747   6.645   4.855   3.520
   76CHL1   C15 6748   6.563   4.759   3.697
   76CHL1  H15A 6749   6.463   4.721   3.726
   76CHL1  H15B 6750   6.635   4.676   3.714
   76CHL1   C16 6751   6.596   4.881   3.779
   76CHL1  H16A 6752   6.540   4.888   3.875
   76CHL1  H16B 6753   6.702   4.889   3.812
   76CHL1   C17 6754   6.552   5.007   3.701
   76CHL1   H17 6755   6.648   5.043   3.660
   76CHL1   C13 6756   6.474   4.957   3.585
   76CHL1   C18 6757   6.332   4.931   3.634
   76CHL1  H18A 6758   6.294   4.856   3.562
   76CHL1  H18B 6759   6.321   4.883   3.734
   76CHL1  H18C 6760   6.267   5.021   3.625
   76CHL1   C12 6761   6.484   5.028   3.453
   76CHL1  H12A 6762   6.436   5.128   3.461
   76CHL1  H12B 6763   6.589   5.048   3.425
   76CHL1   C11 6764   6.419   4.957   3.338
   76CHL1  H11A 6765   6.309   4.967   3.356
   76CHL1  H11B 6766   6.438   5.021   3.249
   76CHL1    C9 6767   6.474   4.813   3.324
   76CHL1    H9 6768   6.582   4.817   3.297
   76CHL1   C10 6769   6.416   4.729   3.200
   76CHL1   C19 6770   6.263   4.717   3.219
   76CHL1  H19A 6771   6.221   4.818   3.242
   76CHL1  H19B 6772   6.223   4.675   3.125
   76CHL1  H19C 6773   6.225   4.646   3.297
   76CHL1    C1 6774   6.447   4.815   3.074
   76CHL1   H1A 6775   6.378   4.902   3.077
   76CHL1   H1B 6776   6.546   4.863   3.083
   76CHL1    C2 6777   6.427   4.744   2.948
   76CHL1   H2A 6778   6.462   4.810   2.866
   76CHL1   H2B 6779   6.319   4.722   2.933
   76CHL1   C20 6780   6.488   5.113   3.797
   76CHL1   H20 6781   6.398   5.065   3.841
   76CHL1   C21 6782   6.445   5.234   3.721
   76CHL1  H21A 6783   6.394   5.304   3.791
   76CHL1  H21B 6784   6.384   5.211   3.632
   76CHL1  H21C 6785   6.530   5.294   3.681
   76CHL1   C22 6786   6.584   5.152   3.908
   76CHL1  H22A 6787   6.630   5.060   3.949
   76CHL1  H22B 6788   6.677   5.200   3.870
   76CHL1   C23 6789   6.527   5.249   4.019
   76CHL1  H23A 6790   6.505   5.346   3.971
   76CHL1  H23B 6791   6.429   5.220   4.063
   76CHL1   C24 6792   6.628   5.266   4.137
   76CHL1  H24A 6793   6.631   5.174   4.200
   76CHL1  H24B 6794   6.732   5.271   4.099
   76CHL1   C25 6795   6.594   5.372   4.238
   76CHL1   H25 6796   6.597   5.471   4.188
   76CHL1   C26 6797   6.452   5.361   4.293
   76CHL1  H26A 6798   6.371   5.373   4.218
   76CHL1  H26B 6799   6.438   5.265   4.348
   76CHL1  H26C 6800   6.434   5.445   4.364
   76CHL1   C27 6801   6.687   5.364   4.358
   76CHL1  H27A 6802   6.659   5.284   4.429
   76CHL1  H27B 6803   6.791   5.351   4.321
   76CHL1  H27C 6804   6.687   5.450   4.427
   77SOPE     N 6805   3.665   2.769   6.657
   77SOPE   HN1 6806   3.710   2.848   6.708
   77SOPE   HN2 6807   3.564   2.771   6.683
   77SOPE   HN3 6808   3.705   2.681   6.695
   77SOPE   C12 6809   3.689   2.787   6.508
   77SOPE  H12A 6810   3.700   2.685   6.464
   77SOPE  H12B 6811   3.790   2.831   6.507
   77SOPE   C11 6812   3.583   2.869   6.440
   77SOPE  H11A 6813   3.483   2.833   6.472
   77SOPE  H11B 6814   3.576   2.856   6.330
   77SOPE     P 6815   3.683   3.098   6.403
   77SOPE   O13 6816   3.824   3.057   6.412
   77SOPE   O14 6817   3.651   3.235   6.439
   77SOPE   O12 6818   3.591   3.003   6.490
   77SOPE   O11 6819   3.625   3.079   6.252
   77SOPE    C1 6820   3.488   3.092   6.219
   77SOPE    HA 6821   3.443   3.169   6.286
   77SOPE    HB 6822   3.424   3.002   6.234
   77SOPE    C2 6823   3.472   3.142   6.072
   77SOPE    HS 6824   3.378   3.200   6.073
   77SOPE   O21 6825   3.471   3.028   5.976
   77SOPE   C21 6826   3.420   3.075   5.852
   77SOPE   O22 6827   3.357   3.176   5.836
   77SOPE   C22 6828   3.452   2.972   5.741
   77SOPE   H2R 6829   3.364   2.907   5.722
   77SOPE   H2S 6830   3.545   2.913   5.758
   77SOPE    C3 6831   3.585   3.244   6.045
   77SOPE    HX 6832   3.684   3.202   6.074
   77SOPE    HY 6833   3.562   3.331   6.110
   77SOPE   O31 6834   3.602   3.278   5.906
   77SOPE   C31 6835   3.547   3.392   5.867
   77SOPE   O32 6836   3.494   3.473   5.945
   77SOPE   C32 6837   3.560   3.417   5.720
   77SOPE   H2X 6838   3.492   3.503   5.699
   77SOPE   H2Y 6839   3.520   3.322   5.679
   77SOPE   C23 6840   3.474   3.048   5.601
   77SOPE   H3R 6841   3.559   3.118   5.593
   77SOPE   H3S 6842   3.384   3.110   5.580
   77SOPE   C24 6843   3.486   2.948   5.477
   77SOPE   H4R 6844   3.592   2.917   5.465
   77SOPE   H4S 6845   3.429   2.864   5.523
   77SOPE   C25 6846   3.416   3.005   5.353
   77SOPE   H5R 6847   3.309   3.029   5.369
   77SOPE   H5S 6848   3.469   3.092   5.310
   77SOPE   C26 6849   3.415   2.905   5.235
   77SOPE   H6R 6850   3.510   2.850   5.219
   77SOPE   H6S 6851   3.329   2.836   5.245
   77SOPE   C27 6852   3.378   2.971   5.098
   77SOPE   H7R 6853   3.337   2.895   5.027
   77SOPE   H7S 6854   3.301   3.042   5.135
   77SOPE   C28 6855   3.484   3.071   5.033
   77SOPE   H8R 6856   3.433   3.167   5.010
   77SOPE   H8S 6857   3.565   3.072   5.109
   77SOPE   C29 6858   3.535   3.010   4.908
   77SOPE   H91 6859   3.591   2.916   4.924
   77SOPE  C210 6860   3.534   3.068   4.783
   77SOPE  H101 6861   3.578   3.013   4.698
   77SOPE  C211 6862   3.453   3.189   4.753
   77SOPE  H11R 6863   3.498   3.275   4.807
   77SOPE  H11S 6864   3.350   3.163   4.785
   77SOPE  C212 6865   3.441   3.229   4.600
   77SOPE  H12R 6866   3.393   3.329   4.602
   77SOPE  H12S 6867   3.369   3.158   4.555
   77SOPE  C213 6868   3.576   3.236   4.527
   77SOPE  H13R 6869   3.628   3.141   4.502
   77SOPE  H13S 6870   3.637   3.292   4.601
   77SOPE  C214 6871   3.562   3.326   4.405
   77SOPE  H14R 6872   3.665   3.358   4.382
   77SOPE  H14S 6873   3.520   3.427   4.426
   77SOPE  C215 6874   3.496   3.264   4.286
   77SOPE  H15R 6875   3.393   3.226   4.304
   77SOPE  H15S 6876   3.547   3.172   4.250
   77SOPE  C216 6877   3.493   3.355   4.172
   77SOPE  H16R 6878   3.596   3.394   4.156
   77SOPE  H16S 6879   3.431   3.444   4.197
   77SOPE  C217 6880   3.459   3.279   4.049
   77SOPE  H17R 6881   3.359   3.231   4.052
   77SOPE  H17S 6882   3.539   3.205   4.030
   77SOPE  C218 6883   3.445   3.367   3.921
   77SOPE  H18R 6884   3.354   3.431   3.922
   77SOPE  H18S 6885   3.434   3.301   3.832
   77SOPE  H18T 6886   3.536   3.428   3.900
   77SOPE   C33 6887   3.707   3.439   5.665
   77SOPE   H3X 6888   3.768   3.356   5.706
   77SOPE   H3Y 6889   3.750   3.534   5.703
   77SOPE   C34 6890   3.722   3.420   5.513
   77SOPE   H4X 6891   3.741   3.313   5.491
   77SOPE   H4Y 6892   3.809   3.481   5.479
   77SOPE   C35 6893   3.600   3.453   5.432
   77SOPE   H5X 6894   3.551   3.536   5.488
   77SOPE   H5Y 6895   3.535   3.363   5.429
   77SOPE   C36 6896   3.636   3.494   5.288
   77SOPE   H6X 6897   3.726   3.560   5.293
   77SOPE   H6Y 6898   3.552   3.557   5.252
   77SOPE   C37 6899   3.653   3.387   5.183
   77SOPE   H7X 6900   3.569   3.317   5.206
   77SOPE   H7Y 6901   3.749   3.334   5.203
   77SOPE   C38 6902   3.659   3.439   5.042
   77SOPE   H8X 6903   3.565   3.497   5.027
   77SOPE   H8Y 6904   3.657   3.346   4.981
   77SOPE   C39 6905   3.781   3.515   4.995
   77SOPE   H9X 6906   3.868   3.449   5.015
   77SOPE   H9Y 6907   3.802   3.606   5.055
   77SOPE  C310 6908   3.797   3.530   4.847
   77SOPE  H10X 6909   3.799   3.440   4.781
   77SOPE  H10Y 6910   3.892   3.585   4.831
   77SOPE  C311 6911   3.702   3.617   4.775
   77SOPE  H11X 6912   3.720   3.724   4.798
   77SOPE  H11Y 6913   3.599   3.584   4.798
   77SOPE  C312 6914   3.733   3.612   4.623
   77SOPE  H12X 6915   3.735   3.508   4.585
   77SOPE  H12Y 6916   3.834   3.653   4.602
   77SOPE  C313 6917   3.641   3.700   4.540
   77SOPE  H13X 6918   3.649   3.809   4.558
   77SOPE  H13Y 6919   3.533   3.677   4.559
   77SOPE  C314 6920   3.673   3.687   4.394
   77SOPE  H14X 6921   3.684   3.585   4.353
   77SOPE  H14Y 6922   3.780   3.714   4.384
   77SOPE  C315 6923   3.598   3.789   4.310
   77SOPE  H15X 6924   3.656   3.819   4.220
   77SOPE  H15Y 6925   3.593   3.881   4.372
   77SOPE  C316 6926   3.455   3.751   4.276
   77SOPE  H16X 6927   3.386   3.835   4.299
   77SOPE  H16Y 6928   3.435   3.655   4.328
   77SOPE  C317 6929   3.432   3.745   4.125
   77SOPE  H17X 6930   3.324   3.724   4.109
   77SOPE  H17Y 6931   3.499   3.665   4.088
   77SOPE  C318 6932   3.468   3.869   4.045
   77SOPE  H18X 6933   3.410   3.957   4.080
   77SOPE  H18Y 6934   3.442   3.863   3.937
   77SOPE  H18Z 6935   3.574   3.901   4.045
   78SOPE     N 6936   2.573   3.656   6.750
   78SOPE   HN1 6937   2.517   3.596   6.813
   78SOPE   HN2 6938   2.626   3.586   6.694
   78SOPE   HN3 6939   2.634   3.709   6.815
   78SOPE   C12 6940   2.482   3.734   6.659
   78SOPE  H12A 6941   2.525   3.836   6.671
   78SOPE  H12B 6942   2.386   3.733   6.715
   78SOPE   C11 6943   2.494   3.682   6.512
   78SOPE  H11A 6944   2.566   3.749   6.459
   78SOPE  H11B 6945   2.393   3.694   6.467
   78SOPE     P 6946   2.577   3.498   6.357
   78SOPE   O13 6947   2.624   3.359   6.373
   78SOPE   O14 6948   2.675   3.591   6.296
   78SOPE   O12 6949   2.533   3.549   6.499
   78SOPE   O11 6950   2.444   3.505   6.276
   78SOPE    C1 6951   2.322   3.440   6.308
   78SOPE    HA 6952   2.230   3.496   6.280
   78SOPE    HB 6953   2.312   3.421   6.417
   78SOPE    C2 6954   2.293   3.305   6.231
   78SOPE    HS 6955   2.332   3.231   6.303
   78SOPE   O21 6956   2.353   3.309   6.100
   78SOPE   C21 6957   2.426   3.206   6.066
   78SOPE   O22 6958   2.455   3.107   6.138
   78SOPE   C22 6959   2.467   3.223   5.913
   78SOPE   H2R 6960   2.573   3.254   5.912
   78SOPE   H2S 6961   2.401   3.306   5.879
   78SOPE    C3 6962   2.141   3.286   6.218
   78SOPE    HX 6963   2.096   3.371   6.163
   78SOPE    HY 6964   2.100   3.277   6.321
   78SOPE   O31 6965   2.105   3.173   6.148
   78SOPE   C31 6966   2.109   3.052   6.207
   78SOPE   O32 6967   2.139   3.036   6.323
   78SOPE   C32 6968   2.089   2.944   6.101
   78SOPE   H2X 6969   1.999   2.886   6.129
   78SOPE   H2Y 6970   2.180   2.881   6.111
   78SOPE   C23 6971   2.461   3.094   5.828
   78SOPE   H3R 6972   2.358   3.051   5.832
   78SOPE   H3S 6973   2.528   3.017   5.871
   78SOPE   C24 6974   2.504   3.115   5.681
   78SOPE   H4R 6975   2.601   3.170   5.681
   78SOPE   H4S 6976   2.524   3.016   5.634
   78SOPE   C25 6977   2.398   3.188   5.604
   78SOPE   H5R 6978   2.303   3.133   5.618
   78SOPE   H5S 6979   2.378   3.290   5.645
   78SOPE   C26 6980   2.440   3.216   5.456
   78SOPE   H6R 6981   2.380   3.296   5.408
   78SOPE   H6S 6982   2.539   3.267   5.455
   78SOPE   C27 6983   2.446   3.089   5.368
   78SOPE   H7R 6984   2.540   3.039   5.400
   78SOPE   H7S 6985   2.364   3.020   5.396
   78SOPE   C28 6986   2.476   3.111   5.214
   78SOPE   H8R 6987   2.571   3.163   5.189
   78SOPE   H8S 6988   2.499   3.006   5.186
   78SOPE   C29 6989   2.351   3.148   5.145
   78SOPE   H91 6990   2.266   3.079   5.156
   78SOPE  C210 6991   2.343   3.260   5.071
   78SOPE  H101 6992   2.244   3.268   5.024
   78SOPE  C211 6993   2.441   3.376   5.046
   78SOPE  H11R 6994   2.525   3.358   5.116
   78SOPE  H11S 6995   2.392   3.471   5.077
   78SOPE  C212 6996   2.496   3.387   4.903
   78SOPE  H12R 6997   2.567   3.472   4.905
   78SOPE  H12S 6998   2.420   3.407   4.825
   78SOPE  C213 6999   2.586   3.274   4.851
   78SOPE  H13R 7000   2.518   3.188   4.830
   78SOPE  H13S 7001   2.660   3.258   4.932
   78SOPE  C214 7002   2.658   3.305   4.716
   78SOPE  H14R 7003   2.735   3.383   4.732
   78SOPE  H14S 7004   2.589   3.347   4.640
   78SOPE  C215 7005   2.740   3.189   4.655
   78SOPE  H15R 7006   2.784   3.218   4.558
   78SOPE  H15S 7007   2.669   3.106   4.632
   78SOPE  C216 7008   2.849   3.128   4.740
   78SOPE  H16R 7009   2.813   3.044   4.803
   78SOPE  H16S 7010   2.874   3.199   4.821
   78SOPE  C217 7011   2.970   3.081   4.650
   78SOPE  H17R 7012   2.992   3.159   4.574
   78SOPE  H17S 7013   2.934   2.984   4.607
   78SOPE  C218 7014   3.103   3.060   4.728
   78SOPE  H18R 7015   3.142   3.142   4.792
   78SOPE  H18S 7016   3.170   3.036   4.643
   78SOPE  H18T 7017   3.097   2.983   4.807
   78SOPE   C33 7018   2.064   3.004   5.967
   78SOPE   H3X 7019   2.150   3.066   5.933
   78SOPE   H3Y 7020   1.970   3.062   5.961
   78SOPE   C34 7021   2.059   2.900   5.856
   78SOPE   H4X 7022   1.991   2.813   5.864
   78SOPE   H4Y 7023   2.161   2.858   5.845
   78SOPE   C35 7024   2.027   2.970   5.720
   78SOPE   H5X 7025   2.062   3.076   5.722
   78SOPE   H5Y 7026   1.916   2.969   5.716
   78SOPE   C36 7027   2.087   2.910   5.593
   78SOPE   H6X 7028   2.197   2.894   5.603
   78SOPE   H6Y 7029   2.070   2.987   5.515
   78SOPE   C37 7030   2.027   2.776   5.551
   78SOPE   H7X 7031   1.923   2.770   5.587
   78SOPE   H7Y 7032   2.091   2.694   5.590
   78SOPE   C38 7033   2.024   2.750   5.400
   78SOPE   H8X 7034   2.128   2.745   5.360
   78SOPE   H8Y 7035   1.983   2.848   5.367
   78SOPE   C39 7036   1.938   2.635   5.358
   78SOPE   H9X 7037   1.838   2.635   5.406
   78SOPE   H9Y 7038   1.988   2.545   5.399
   78SOPE  C310 7039   1.917   2.609   5.208
   78SOPE  H10X 7040   1.856   2.692   5.166
   78SOPE  H10Y 7041   1.864   2.512   5.202
   78SOPE  C311 7042   2.046   2.571   5.125
   78SOPE  H11X 7043   2.109   2.494   5.175
   78SOPE  H11Y 7044   2.113   2.660   5.124
   78SOPE  C312 7045   2.002   2.514   4.990
   78SOPE  H12X 7046   1.916   2.568   4.944
   78SOPE  H12Y 7047   1.966   2.410   5.006
   78SOPE  C313 7048   2.126   2.515   4.898
   78SOPE  H13X 7049   2.111   2.424   4.837
   78SOPE  H13Y 7050   2.219   2.507   4.959
   78SOPE  C314 7051   2.141   2.643   4.819
   78SOPE  H14X 7052   2.180   2.725   4.884
   78SOPE  H14Y 7053   2.039   2.680   4.795
   78SOPE  C315 7054   2.234   2.638   4.691
   78SOPE  H15X 7055   2.186   2.565   4.622
   78SOPE  H15Y 7056   2.340   2.609   4.708
   78SOPE  C316 7057   2.238   2.769   4.607
   78SOPE  H16X 7058   2.299   2.849   4.653
   78SOPE  H16Y 7059   2.130   2.796   4.606
   78SOPE  C317 7060   2.285   2.739   4.467
   78SOPE  H17X 7061   2.224   2.652   4.433
   78SOPE  H17Y 7062   2.388   2.697   4.465
   78SOPE  C318 7063   2.269   2.855   4.370
   78SOPE  H18X 7064   2.166   2.886   4.344
   78SOPE  H18Y 7065   2.317   2.830   4.273
   78SOPE  H18Z 7066   2.322   2.948   4.403
   79SOPE     N 7067   4.809   1.293   6.731
   79SOPE   HN1 7068   4.711   1.305   6.764
   79SOPE   HN2 7069   4.850   1.388   6.722
   79SOPE   HN3 7070   4.799   1.242   6.641
   79SOPE   C12 7071   4.882   1.217   6.833
   79SOPE  H12A 7072   4.888   1.285   6.922
   79SOPE  H12B 7073   4.989   1.201   6.808
   79SOPE   C11 7074   4.804   1.079   6.856
   79SOPE  H11A 7075   4.870   1.019   6.923
   79SOPE  H11B 7076   4.794   1.026   6.759
   79SOPE     P 7077   4.571   0.986   6.932
   79SOPE   O13 7078   4.460   1.036   7.012
   79SOPE   O14 7079   4.632   0.863   6.990
   79SOPE   O12 7080   4.676   1.102   6.918
   79SOPE   O11 7081   4.540   0.946   6.785
   79SOPE    C1 7082   4.409   0.967   6.732
   79SOPE    HA 7083   4.373   1.071   6.749
   79SOPE    HB 7084   4.331   0.897   6.771
   79SOPE    C2 7085   4.404   0.951   6.576
   79SOPE    HS 7086   4.300   0.968   6.541
   79SOPE   O21 7087   4.461   0.821   6.549
   79SOPE   C21 7088   4.399   0.752   6.455
   79SOPE   O22 7089   4.295   0.792   6.397
   79SOPE   C22 7090   4.472   0.623   6.442
   79SOPE   H2R 7091   4.488   0.579   6.542
   79SOPE   H2S 7092   4.568   0.642   6.388
   79SOPE    C3 7093   4.493   1.061   6.515
   79SOPE    HX 7094   4.583   1.060   6.581
   79SOPE    HY 7095   4.450   1.163   6.520
   79SOPE   O31 7096   4.536   1.031   6.384
   79SOPE   C31 7097   4.445   1.062   6.283
   79SOPE   O32 7098   4.344   1.130   6.292
   79SOPE   C32 7099   4.498   1.013   6.150
   79SOPE   H2X 7100   4.519   0.905   6.165
   79SOPE   H2Y 7101   4.597   1.059   6.132
   79SOPE   C23 7102   4.398   0.526   6.350
   79SOPE   H3R 7103   4.378   0.571   6.250
   79SOPE   H3S 7104   4.299   0.505   6.394
   79SOPE   C24 7105   4.462   0.380   6.328
   79SOPE   H4R 7106   4.459   0.325   6.424
   79SOPE   H4S 7107   4.385   0.332   6.265
   79SOPE   C25 7108   4.595   0.372   6.251
   79SOPE   H5R 7109   4.664   0.440   6.306
   79SOPE   H5S 7110   4.640   0.271   6.239
   79SOPE   C26 7111   4.583   0.417   6.105
   79SOPE   H6R 7112   4.497   0.360   6.063
   79SOPE   H6S 7113   4.551   0.523   6.096
   79SOPE   C27 7114   4.712   0.391   6.024
   79SOPE   H7R 7115   4.797   0.428   6.086
   79SOPE   H7S 7116   4.716   0.280   6.028
   79SOPE   C28 7117   4.709   0.453   5.882
   79SOPE   H8R 7118   4.708   0.563   5.889
   79SOPE   H8S 7119   4.805   0.429   5.832
   79SOPE   C29 7120   4.619   0.376   5.789
   79SOPE   H91 7121   4.644   0.270   5.772
   79SOPE  C210 7122   4.497   0.422   5.753
   79SOPE  H101 7123   4.428   0.357   5.696
   79SOPE  C211 7124   4.454   0.560   5.771
   79SOPE  H11R 7125   4.527   0.620   5.713
   79SOPE  H11S 7126   4.461   0.593   5.877
   79SOPE  C212 7127   4.317   0.601   5.710
   79SOPE  H12R 7128   4.295   0.705   5.741
   79SOPE  H12S 7129   4.237   0.535   5.751
   79SOPE  C213 7130   4.312   0.588   5.561
   79SOPE  H13R 7131   4.326   0.484   5.525
   79SOPE  H13S 7132   4.397   0.648   5.521
   79SOPE  C214 7133   4.183   0.645   5.498
   79SOPE  H14R 7134   4.194   0.756   5.497
   79SOPE  H14S 7135   4.091   0.631   5.559
   79SOPE  C215 7136   4.159   0.582   5.362
   79SOPE  H15R 7137   4.178   0.473   5.376
   79SOPE  H15S 7138   4.240   0.623   5.298
   79SOPE  C216 7139   4.026   0.610   5.301
   79SOPE  H16R 7140   3.947   0.582   5.374
   79SOPE  H16S 7141   4.018   0.552   5.207
   79SOPE  C217 7142   4.001   0.759   5.282
   79SOPE  H17R 7143   4.075   0.801   5.211
   79SOPE  H17S 7144   4.012   0.805   5.382
   79SOPE  C218 7145   3.861   0.783   5.228
   79SOPE  H18R 7146   3.801   0.691   5.243
   79SOPE  H18S 7147   3.862   0.795   5.118
   79SOPE  H18T 7148   3.816   0.871   5.280
   79SOPE   C33 7149   4.396   1.013   6.035
   79SOPE   H3X 7150   4.338   1.108   6.034
   79SOPE   H3Y 7151   4.330   0.923   6.032
   79SOPE   C34 7152   4.471   1.011   5.904
   79SOPE   H4X 7153   4.528   0.916   5.913
   79SOPE   H4Y 7154   4.546   1.091   5.886
   79SOPE   C35 7155   4.385   1.007   5.781
   79SOPE   H5X 7156   4.328   1.101   5.767
   79SOPE   H5Y 7157   4.297   0.940   5.800
   79SOPE   C36 7158   4.463   0.980   5.655
   79SOPE   H6X 7159   4.508   0.878   5.647
   79SOPE   H6Y 7160   4.545   1.055   5.649
   79SOPE   C37 7161   4.385   0.996   5.528
   79SOPE   H7X 7162   4.362   1.103   5.508
   79SOPE   H7Y 7163   4.293   0.937   5.549
   79SOPE   C38 7164   4.465   0.940   5.412
   79SOPE   H8X 7165   4.485   0.830   5.416
   79SOPE   H8Y 7166   4.565   0.988   5.413
   79SOPE   C39 7167   4.388   0.966   5.281
   79SOPE   H9X 7168   4.356   1.071   5.263
   79SOPE   H9Y 7169   4.300   0.898   5.283
   79SOPE  C310 7170   4.473   0.935   5.156
   79SOPE  H10X 7171   4.582   0.958   5.163
   79SOPE  H10Y 7172   4.447   1.008   5.076
   79SOPE  C311 7173   4.461   0.792   5.099
   79SOPE  H11X 7174   4.448   0.727   5.189
   79SOPE  H11Y 7175   4.547   0.767   5.033
   79SOPE  C312 7176   4.328   0.769   5.022
   79SOPE  H12X 7177   4.345   0.820   4.926
   79SOPE  H12Y 7178   4.245   0.822   5.074
   79SOPE  C313 7179   4.307   0.620   5.001
   79SOPE  H13X 7180   4.204   0.596   4.967
   79SOPE  H13Y 7181   4.320   0.565   5.096
   79SOPE  C314 7182   4.403   0.558   4.902
   79SOPE  H14X 7183   4.402   0.448   4.897
   79SOPE  H14Y 7184   4.502   0.593   4.938
   79SOPE  C315 7185   4.384   0.608   4.756
   79SOPE  H15X 7186   4.459   0.681   4.718
   79SOPE  H15Y 7187   4.293   0.671   4.762
   79SOPE  C316 7188   4.365   0.489   4.657
   79SOPE  H16X 7189   4.340   0.529   4.556
   79SOPE  H16Y 7190   4.285   0.421   4.693
   79SOPE  C317 7191   4.489   0.397   4.653
   79SOPE  H17X 7192   4.475   0.328   4.567
   79SOPE  H17Y 7193   4.489   0.328   4.741
   79SOPE  C318 7194   4.617   0.473   4.629
   79SOPE  H18X 7195   4.654   0.546   4.703
   79SOPE  H18Y 7196   4.610   0.528   4.533
   79SOPE  H18Z 7197   4.696   0.395   4.623
   80SOPE     N 7198   1.433   2.730   6.522
   80SOPE   HN1 7199   1.335   2.698   6.536
   80SOPE   HN2 7200   1.488   2.646   6.548
   80SOPE   HN3 7201   1.446   2.799   6.599
   80SOPE   C12 7202   1.454   2.782   6.376
   80SOPE  H12A 7203   1.434   2.694   6.312
   80SOPE  H12B 7204   1.563   2.806   6.372
   80SOPE   C11 7205   1.380   2.904   6.346
   80SOPE  H11A 7206   1.277   2.862   6.341
   80SOPE  H11B 7207   1.397   2.955   6.249
   80SOPE     P 7208   1.529   3.063   6.504
   80SOPE   O13 7209   1.621   2.959   6.546
   80SOPE   O14 7210   1.498   3.168   6.603
   80SOPE   O12 7211   1.396   3.000   6.452
   80SOPE   O11 7212   1.591   3.126   6.371
   80SOPE    C1 7213   1.546   3.251   6.326
   80SOPE    HA 7214   1.580   3.337   6.388
   80SOPE    HB 7215   1.435   3.256   6.319
   80SOPE    C2 7216   1.596   3.262   6.178
   80SOPE    HS 7217   1.618   3.369   6.160
   80SOPE   O21 7218   1.512   3.205   6.071
   80SOPE   C21 7219   1.407   3.288   6.051
   80SOPE   O22 7220   1.383   3.388   6.110
   80SOPE   C22 7221   1.308   3.220   5.950
   80SOPE   H2R 7222   1.217   3.200   6.011
   80SOPE   H2S 7223   1.339   3.116   5.926
   80SOPE    C3 7224   1.736   3.198   6.168
   80SOPE    HX 7225   1.724   3.090   6.190
   80SOPE    HY 7226   1.802   3.230   6.252
   80SOPE   O31 7227   1.796   3.208   6.037
   80SOPE   C31 7228   1.834   3.328   6.005
   80SOPE   O32 7229   1.842   3.419   6.085
   80SOPE   C32 7230   1.867   3.352   5.858
   80SOPE   H2X 7231   1.776   3.390   5.808
   80SOPE   H2Y 7232   1.888   3.251   5.817
   80SOPE   C23 7233   1.281   3.313   5.826
   80SOPE   H3R 7234   1.371   3.308   5.761
   80SOPE   H3S 7235   1.258   3.415   5.862
   80SOPE   C24 7236   1.166   3.268   5.736
   80SOPE   H4R 7237   1.163   3.158   5.720
   80SOPE   H4S 7238   1.076   3.267   5.800
   80SOPE   C25 7239   1.150   3.331   5.592
   80SOPE   H5R 7240   1.052   3.315   5.543
   80SOPE   H5S 7241   1.156   3.442   5.600
   80SOPE   C26 7242   1.254   3.280   5.497
   80SOPE   H6R 7243   1.349   3.337   5.511
   80SOPE   H6S 7244   1.280   3.174   5.518
   80SOPE   C27 7245   1.202   3.293   5.353
   80SOPE   H7R 7246   1.119   3.222   5.334
   80SOPE   H7S 7247   1.164   3.398   5.353
   80SOPE   C28 7248   1.305   3.299   5.236
   80SOPE   H8R 7249   1.335   3.192   5.238
   80SOPE   H8S 7250   1.242   3.305   5.145
   80SOPE   C29 7251   1.412   3.404   5.228
   80SOPE   H91 7252   1.478   3.425   5.313
   80SOPE  C210 7253   1.427   3.491   5.119
   80SOPE  H101 7254   1.512   3.560   5.126
   80SOPE  C211 7255   1.350   3.511   4.996
   80SOPE  H11R 7256   1.315   3.616   5.001
   80SOPE  H11S 7257   1.268   3.439   4.974
   80SOPE  C212 7258   1.452   3.486   4.883
   80SOPE  H12R 7259   1.550   3.530   4.911
   80SOPE  H12S 7260   1.422   3.546   4.794
   80SOPE  C213 7261   1.461   3.337   4.844
   80SOPE  H13R 7262   1.370   3.307   4.788
   80SOPE  H13S 7263   1.460   3.274   4.936
   80SOPE  C214 7264   1.589   3.319   4.760
   80SOPE  H14R 7265   1.606   3.211   4.738
   80SOPE  H14S 7266   1.669   3.363   4.824
   80SOPE  C215 7267   1.570   3.390   4.623
   80SOPE  H15R 7268   1.574   3.501   4.632
   80SOPE  H15S 7269   1.471   3.380   4.575
   80SOPE  C216 7270   1.657   3.331   4.515
   80SOPE  H16R 7271   1.631   3.372   4.415
   80SOPE  H16S 7272   1.628   3.224   4.512
   80SOPE  C217 7273   1.806   3.333   4.535
   80SOPE  H17R 7274   1.820   3.316   4.644
   80SOPE  H17S 7275   1.850   3.433   4.513
   80SOPE  C218 7276   1.885   3.237   4.447
   80SOPE  H18R 7277   1.866   3.267   4.341
   80SOPE  H18S 7278   1.847   3.134   4.465
   80SOPE  H18T 7279   1.992   3.235   4.478
   80SOPE   C33 7280   1.989   3.445   5.826
   80SOPE   H3X 7281   2.061   3.436   5.910
   80SOPE   H3Y 7282   1.953   3.550   5.823
   80SOPE   C34 7283   2.063   3.389   5.701
   80SOPE   H4X 7284   2.089   3.284   5.724
   80SOPE   H4Y 7285   2.154   3.454   5.699
   80SOPE   C35 7286   1.984   3.388   5.572
   80SOPE   H5X 7287   1.942   3.489   5.551
   80SOPE   H5Y 7288   1.913   3.303   5.567
   80SOPE   C36 7289   2.085   3.345   5.457
   80SOPE   H6X 7290   2.164   3.278   5.498
   80SOPE   H6Y 7291   2.137   3.436   5.421
   80SOPE   C37 7292   2.016   3.270   5.340
   80SOPE   H7X 7293   1.967   3.175   5.371
   80SOPE   H7Y 7294   2.089   3.254   5.259
   80SOPE   C38 7295   1.907   3.353   5.285
   80SOPE   H8X 7296   1.827   3.369   5.361
   80SOPE   H8Y 7297   1.858   3.296   5.203
   80SOPE   C39 7298   1.959   3.489   5.247
   80SOPE   H9X 7299   2.057   3.499   5.196
   80SOPE   H9Y 7300   1.962   3.557   5.335
   80SOPE  C310 7301   1.862   3.554   5.151
   80SOPE  H10X 7302   1.902   3.655   5.124
   80SOPE  H10Y 7303   1.768   3.568   5.209
   80SOPE  C311 7304   1.824   3.485   5.023
   80SOPE  H11X 7305   1.751   3.552   4.972
   80SOPE  H11Y 7306   1.776   3.387   5.043
   80SOPE  C312 7307   1.953   3.462   4.941
   80SOPE  H12X 7308   1.936   3.410   4.844
   80SOPE  H12Y 7309   2.032   3.403   4.993
   80SOPE  C313 7310   2.019   3.595   4.902
   80SOPE  H13X 7311   2.065   3.659   4.981
   80SOPE  H13Y 7312   1.941   3.654   4.850
   80SOPE  C314 7313   2.131   3.565   4.793
   80SOPE  H14X 7314   2.158   3.458   4.803
   80SOPE  H14Y 7315   2.220   3.628   4.814
   80SOPE  C315 7316   2.082   3.575   4.647
   80SOPE  H15X 7317   2.025   3.669   4.632
   80SOPE  H15Y 7318   2.007   3.495   4.627
   80SOPE  C316 7319   2.193   3.575   4.548
   80SOPE  H16X 7320   2.264   3.653   4.582
   80SOPE  H16Y 7321   2.152   3.605   4.449
   80SOPE  C317 7322   2.262   3.438   4.538
   80SOPE  H17X 7323   2.191   3.366   4.492
   80SOPE  H17Y 7324   2.302   3.414   4.639
   80SOPE  C318 7325   2.378   3.443   4.435
   80SOPE  H18X 7326   2.443   3.354   4.455
   80SOPE  H18Y 7327   2.444   3.533   4.436
   80SOPE  H18Z 7328   2.333   3.444   4.334
   81SOPE     N 7329   4.512   0.123   6.862
   81SOPE   HN1 7330   4.449   0.046   6.891
   81SOPE   HN2 7331   4.468   0.213   6.888
   81SOPE   HN3 7332   4.524   0.130   6.759
   81SOPE   C12 7333   4.641   0.116   6.939
   81SOPE  H12A 7334   4.705   0.034   6.899
   81SOPE  H12B 7335   4.611   0.103   7.045
   81SOPE   C11 7336   4.720   0.247   6.933
   81SOPE  H11A 7337   4.810   0.246   6.997
   81SOPE  H11B 7338   4.659   0.332   6.971
   81SOPE     P 7339   4.682   0.374   6.712
   81SOPE   O13 7340   4.676   0.509   6.771
   81SOPE   O14 7341   4.554   0.309   6.666
   81SOPE   O12 7342   4.769   0.274   6.798
   81SOPE   O11 7343   4.773   0.383   6.587
   81SOPE    C1 7344   4.909   0.427   6.587
   81SOPE    HA 7345   4.972   0.352   6.640
   81SOPE    HB 7346   4.921   0.529   6.628
   81SOPE    C2 7347   4.965   0.435   6.443
   81SOPE    HS 7348   5.072   0.457   6.457
   81SOPE   O21 7349   4.905   0.550   6.367
   81SOPE   C21 7350   4.960   0.666   6.400
   81SOPE   O22 7351   5.054   0.678   6.473
   81SOPE   C22 7352   4.903   0.783   6.321
   81SOPE   H2R 7353   4.797   0.800   6.350
   81SOPE   H2S 7354   4.906   0.739   6.219
   81SOPE    C3 7355   4.952   0.310   6.363
   81SOPE    HX 7356   4.843   0.287   6.352
   81SOPE    HY 7357   5.016   0.239   6.419
   81SOPE   O31 7358   5.010   0.331   6.238
   81SOPE   C31 7359   5.009   0.233   6.160
   81SOPE   O32 7360   4.984   0.115   6.182
   81SOPE   C32 7361   5.070   0.254   6.020
   81SOPE   H2X 7362   5.180   0.253   6.031
   81SOPE   H2Y 7363   5.035   0.356   5.995
   81SOPE   C23 7364   4.986   0.909   6.327
   81SOPE   H3R 7365   5.086   0.895   6.279
   81SOPE   H3S 7366   4.989   0.932   6.436
   81SOPE   C24 7367   4.917   1.029   6.267
   81SOPE   H4R 7368   4.812   1.049   6.294
   81SOPE   H4S 7369   4.982   1.115   6.294
   81SOPE   C25 7370   4.916   1.025   6.112
   81SOPE   H5R 7371   5.020   1.008   6.080
   81SOPE   H5S 7372   4.864   0.932   6.080
   81SOPE   C26 7373   4.872   1.149   6.039
   81SOPE   H6R 7374   4.769   1.185   6.062
   81SOPE   H6S 7375   4.948   1.221   6.076
   81SOPE   C27 7376   4.886   1.136   5.882
   81SOPE   H7R 7377   4.991   1.122   5.847
   81SOPE   H7S 7378   4.822   1.047   5.862
   81SOPE   C28 7379   4.836   1.254   5.797
   81SOPE   H8R 7380   4.769   1.210   5.720
   81SOPE   H8S 7381   4.755   1.302   5.857
   81SOPE   C29 7382   4.949   1.342   5.743
   81SOPE   H91 7383   5.024   1.378   5.814
   81SOPE  C210 7384   4.955   1.381   5.615
   81SOPE  H101 7385   5.050   1.430   5.591
   81SOPE  C211 7386   4.868   1.342   5.501
   81SOPE  H11R 7387   4.842   1.433   5.443
   81SOPE  H11S 7388   4.768   1.305   5.531
   81SOPE  C212 7389   4.935   1.236   5.409
   81SOPE  H12R 7390   4.958   1.141   5.461
   81SOPE  H12S 7391   5.030   1.281   5.375
   81SOPE  C213 7392   4.832   1.196   5.297
   81SOPE  H13R 7393   4.782   1.283   5.250
   81SOPE  H13S 7394   4.764   1.118   5.338
   81SOPE  C214 7395   4.890   1.121   5.169
   81SOPE  H14R 7396   4.814   1.108   5.089
   81SOPE  H14S 7397   4.920   1.024   5.214
   81SOPE  C215 7398   5.004   1.194   5.098
   81SOPE  H15R 7399   5.044   1.132   5.015
   81SOPE  H15S 7400   5.088   1.213   5.168
   81SOPE  C216 7401   4.965   1.332   5.049
   81SOPE  H16R 7402   4.925   1.384   5.139
   81SOPE  H16S 7403   4.878   1.309   4.983
   81SOPE  C217 7404   5.081   1.416   4.976
   81SOPE  H17R 7405   5.123   1.350   4.897
   81SOPE  H17S 7406   5.156   1.442   5.054
   81SOPE  C218 7407   5.028   1.536   4.906
   81SOPE  H18R 7408   4.954   1.502   4.830
   81SOPE  H18S 7409   5.105   1.602   4.862
   81SOPE  H18T 7410   4.964   1.602   4.968
   81SOPE   C33 7411   5.020   0.156   5.911
   81SOPE   H3X 7412   4.915   0.120   5.912
   81SOPE   H3Y 7413   5.082   0.065   5.920
   81SOPE   C34 7414   5.049   0.203   5.766
   81SOPE   H4X 7415   5.155   0.233   5.751
   81SOPE   H4Y 7416   4.987   0.294   5.746
   81SOPE   C35 7417   5.007   0.093   5.667
   81SOPE   H5X 7418   4.906   0.071   5.706
   81SOPE   H5Y 7419   5.080   0.010   5.677
   81SOPE   C36 7420   5.011   0.143   5.521
   81SOPE   H6X 7421   4.921   0.209   5.514
   81SOPE   H6Y 7422   5.004   0.057   5.453
   81SOPE   C37 7423   5.128   0.241   5.486
   81SOPE   H7X 7424   5.228   0.202   5.515
   81SOPE   H7Y 7425   5.132   0.334   5.547
   81SOPE   C38 7426   5.140   0.278   5.339
   81SOPE   H8X 7427   5.045   0.332   5.317
   81SOPE   H8Y 7428   5.134   0.182   5.283
   81SOPE   C39 7429   5.267   0.356   5.309
   81SOPE   H9X 7430   5.313   0.315   5.216
   81SOPE   H9Y 7431   5.342   0.361   5.390
   81SOPE  C310 7432   5.233   0.501   5.270
   81SOPE  H10X 7433   5.190   0.551   5.359
   81SOPE  H10Y 7434   5.172   0.495   5.177
   81SOPE  C311 7435   5.363   0.583   5.240
   81SOPE  H11X 7436   5.427   0.530   5.166
   81SOPE  H11Y 7437   5.425   0.593   5.332
   81SOPE  C312 7438   5.338   0.729   5.195
   81SOPE  H12X 7439   5.281   0.787   5.270
   81SOPE  H12Y 7440   5.265   0.722   5.111
   81SOPE  C313 7441   5.464   0.804   5.152
   81SOPE  H13X 7442   5.506   0.749   5.065
   81SOPE  H13Y 7443   5.543   0.793   5.230
   81SOPE  C314 7444   5.425   0.958   5.126
   81SOPE  H14X 7445   5.519   1.017   5.131
   81SOPE  H14Y 7446   5.363   0.986   5.214
   81SOPE  C315 7447   5.342   0.994   5.012
   81SOPE  H15X 7448   5.312   1.101   5.016
   81SOPE  H15Y 7449   5.250   0.933   5.007
   81SOPE  C316 7450   5.421   0.972   4.887
   81SOPE  H16X 7451   5.453   0.865   4.882
   81SOPE  H16Y 7452   5.515   1.029   4.879
   81SOPE  C317 7453   5.340   0.988   4.757
   81SOPE  H17X 7454   5.398   0.945   4.672
   81SOPE  H17Y 7455   5.335   1.099   4.755
   81SOPE  C318 7456   5.195   0.922   4.748
   81SOPE  H18X 7457   5.195   0.812   4.737
   81SOPE  H18Y 7458   5.132   0.973   4.671
   81SOPE  H18Z 7459   5.137   0.947   4.839
   82SOPE     N 7460   2.338   1.207   6.630
   82SOPE   HN1 7461   2.342   1.225   6.732
   82SOPE   HN2 7462   2.311   1.111   6.603
   82SOPE   HN3 7463   2.430   1.224   6.584
   82SOPE   C12 7464   2.238   1.295   6.571
   82SOPE  H12A 7465   2.266   1.401   6.585
   82SOPE  H12B 7466   2.139   1.280   6.620
   82SOPE   C11 7467   2.206   1.259   6.421
   82SOPE  H11A 7468   2.296   1.245   6.358
   82SOPE  H11B 7469   2.152   1.344   6.374
   82SOPE     P 7470   2.170   0.999   6.389
   82SOPE   O13 7471   2.057   0.904   6.394
   82SOPE   O14 7472   2.270   0.978   6.503
   82SOPE   O12 7473   2.116   1.147   6.412
   82SOPE   O11 7474   2.233   1.006   6.245
   82SOPE    C1 7475   2.165   1.063   6.131
   82SOPE    HA 7476   2.246   1.107   6.069
   82SOPE    HB 7477   2.098   1.146   6.161
   82SOPE    C2 7478   2.095   0.969   6.033
   82SOPE    HS 7479   2.142   0.869   6.031
   82SOPE   O21 7480   2.116   1.023   5.897
   82SOPE   C21 7481   2.106   0.934   5.792
   82SOPE   O22 7482   2.082   0.815   5.797
   82SOPE   C22 7483   2.113   1.027   5.671
   82SOPE   H2R 7484   2.215   1.072   5.664
   82SOPE   H2S 7485   2.042   1.109   5.695
   82SOPE    C3 7486   1.947   0.943   6.077
   82SOPE    HX 7487   1.914   1.045   6.107
   82SOPE    HY 7488   1.939   0.889   6.174
   82SOPE   O31 7489   1.863   0.885   5.975
   82SOPE   C31 7490   1.865   0.750   5.969
   82SOPE   O32 7491   1.925   0.680   6.045
   82SOPE   C32 7492   1.769   0.697   5.861
   82SOPE   H2X 7493   1.811   0.606   5.813
   82SOPE   H2Y 7494   1.756   0.767   5.776
   82SOPE   C23 7495   2.071   0.963   5.537
   82SOPE   H3R 7496   1.983   0.898   5.552
   82SOPE   H3S 7497   2.154   0.899   5.498
   82SOPE   C24 7498   2.027   1.072   5.430
   82SOPE   H4R 7499   1.941   1.132   5.468
   82SOPE   H4S 7500   2.112   1.143   5.423
   82SOPE   C25 7501   1.979   1.001   5.303
   82SOPE   H5R 7502   2.066   0.955   5.252
   82SOPE   H5S 7503   1.905   0.921   5.326
   82SOPE   C26 7504   1.923   1.109   5.203
   82SOPE   H6R 7505   1.817   1.135   5.226
   82SOPE   H6S 7506   1.984   1.201   5.216
   82SOPE   C27 7507   1.923   1.060   5.055
   82SOPE   H7R 7508   2.022   1.028   5.017
   82SOPE   H7S 7509   1.849   0.978   5.045
   82SOPE   C28 7510   1.887   1.188   4.970
   82SOPE   H8R 7511   1.788   1.237   4.981
   82SOPE   H8S 7512   1.954   1.269   5.007
   82SOPE   C29 7513   1.908   1.149   4.823
   82SOPE   H91 7514   1.999   1.092   4.799
   82SOPE  C210 7515   1.833   1.180   4.719
   82SOPE  H101 7516   1.862   1.147   4.618
   82SOPE  C211 7517   1.705   1.260   4.718
   82SOPE  H11R 7518   1.702   1.335   4.800
   82SOPE  H11S 7519   1.625   1.186   4.741
   82SOPE  C212 7520   1.660   1.319   4.589
   82SOPE  H12R 7521   1.550   1.339   4.593
   82SOPE  H12S 7522   1.674   1.249   4.503
   82SOPE  C213 7523   1.727   1.448   4.557
   82SOPE  H13R 7524   1.837   1.433   4.567
   82SOPE  H13S 7525   1.697   1.519   4.637
   82SOPE  C214 7526   1.694   1.494   4.422
   82SOPE  H14R 7527   1.586   1.469   4.406
   82SOPE  H14S 7528   1.744   1.431   4.346
   82SOPE  C215 7529   1.731   1.638   4.394
   82SOPE  H15R 7530   1.842   1.639   4.398
   82SOPE  H15S 7531   1.684   1.712   4.463
   82SOPE  C216 7532   1.683   1.675   4.248
   82SOPE  H16R 7533   1.703   1.784   4.246
   82SOPE  H16S 7534   1.573   1.659   4.250
   82SOPE  C217 7535   1.745   1.599   4.129
   82SOPE  H17R 7536   1.698   1.498   4.126
   82SOPE  H17S 7537   1.853   1.591   4.153
   82SOPE  C218 7538   1.736   1.677   3.996
   82SOPE  H18R 7539   1.766   1.783   4.003
   82SOPE  H18S 7540   1.637   1.666   3.947
   82SOPE  H18T 7541   1.805   1.634   3.919
   82SOPE   C33 7542   1.625   0.659   5.912
   82SOPE   H3X 7543   1.582   0.743   5.970
   82SOPE   H3Y 7544   1.622   0.565   5.972
   82SOPE   C34 7545   1.532   0.624   5.794
   82SOPE   H4X 7546   1.543   0.516   5.773
   82SOPE   H4Y 7547   1.553   0.684   5.702
   82SOPE   C35 7548   1.386   0.652   5.828
   82SOPE   H5X 7549   1.371   0.760   5.849
   82SOPE   H5Y 7550   1.362   0.597   5.921
   82SOPE   C36 7551   1.287   0.606   5.724
   82SOPE   H6X 7552   1.186   0.632   5.762
   82SOPE   H6Y 7553   1.291   0.495   5.724
   82SOPE   C37 7554   1.304   0.654   5.580
   82SOPE   H7X 7555   1.240   0.591   5.515
   82SOPE   H7Y 7556   1.411   0.656   5.549
   82SOPE   C38 7557   1.239   0.799   5.564
   82SOPE   H8X 7558   1.305   0.884   5.588
   82SOPE   H8Y 7559   1.145   0.791   5.623
   82SOPE   C39 7560   1.199   0.824   5.415
   82SOPE   H9X 7561   1.146   0.734   5.376
   82SOPE   H9Y 7562   1.288   0.830   5.349
   82SOPE  C310 7563   1.103   0.935   5.406
   82SOPE  H10X 7564   1.148   1.030   5.442
   82SOPE  H10Y 7565   1.011   0.914   5.465
   82SOPE  C311 7566   1.048   0.946   5.263
   82SOPE  H11X 7567   0.987   0.858   5.231
   82SOPE  H11Y 7568   1.126   0.946   5.185
   82SOPE  C312 7569   0.968   1.078   5.243
   82SOPE  H12X 7570   1.036   1.164   5.263
   82SOPE  H12Y 7571   0.885   1.095   5.315
   82SOPE  C313 7572   0.914   1.102   5.095
   82SOPE  H13X 7573   0.860   1.014   5.055
   82SOPE  H13Y 7574   1.004   1.116   5.031
   82SOPE  C314 7575   0.828   1.229   5.083
   82SOPE  H14X 7576   0.863   1.326   5.124
   82SOPE  H14Y 7577   0.723   1.208   5.115
   82SOPE  C315 7578   0.820   1.254   4.928
   82SOPE  H15X 7579   0.783   1.168   4.868
   82SOPE  H15Y 7580   0.918   1.277   4.880
   82SOPE  C316 7581   0.744   1.384   4.893
   82SOPE  H16X 7582   0.764   1.456   4.976
   82SOPE  H16Y 7583   0.643   1.339   4.903
   82SOPE  C317 7584   0.759   1.431   4.741
   82SOPE  H17X 7585   0.715   1.348   4.682
   82SOPE  H17Y 7586   0.866   1.449   4.715
   82SOPE  C318 7587   0.680   1.567   4.714
   82SOPE  H18X 7588   0.713   1.596   4.612
   82SOPE  H18Y 7589   0.716   1.643   4.786
   82SOPE  H18Z 7590   0.569   1.554   4.717
   83SOPE     N 7591   1.181   2.182   1.828
   83SOPE   HN1 7592   1.160   2.203   1.729
   83SOPE   HN2 7593   1.282   2.157   1.831
   83SOPE   HN3 7594   1.129   2.098   1.859
   83SOPE   C12 7595   1.156   2.293   1.926
   83SOPE  H12A 7596   1.053   2.329   1.905
   83SOPE  H12B 7597   1.225   2.377   1.906
   83SOPE   C11 7598   1.173   2.248   2.073
   83SOPE  H11A 7599   1.116   2.155   2.093
   83SOPE  H11B 7600   1.124   2.313   2.149
   83SOPE     P 7601   1.414   2.342   2.117
   83SOPE   O13 7602   1.348   2.469   2.089
   83SOPE   O14 7603   1.532   2.300   2.035
   83SOPE   O12 7604   1.307   2.227   2.110
   83SOPE   O11 7605   1.462   2.352   2.270
   83SOPE    C1 7606   1.438   2.240   2.358
   83SOPE    HA 7607   1.528   2.176   2.348
   83SOPE    HB 7608   1.338   2.196   2.335
   83SOPE    C2 7609   1.423   2.277   2.505
   83SOPE    HS 7610   1.522   2.312   2.542
   83SOPE   O21 7611   1.367   2.171   2.582
   83SOPE   C21 7612   1.458   2.079   2.615
   83SOPE   O22 7613   1.570   2.083   2.569
   83SOPE   C22 7614   1.397   1.970   2.701
   83SOPE   H2R 7615   1.447   1.875   2.672
   83SOPE   H2S 7616   1.294   1.954   2.661
   83SOPE    C3 7617   1.333   2.399   2.502
   83SOPE    HX 7618   1.244   2.379   2.437
   83SOPE    HY 7619   1.374   2.492   2.459
   83SOPE   O31 7620   1.285   2.414   2.637
   83SOPE   C31 7621   1.346   2.498   2.714
   83SOPE   O32 7622   1.444   2.563   2.686
   83SOPE   C32 7623   1.278   2.494   2.855
   83SOPE   H2X 7624   1.327   2.401   2.893
   83SOPE   H2Y 7625   1.173   2.467   2.833
   83SOPE   C23 7626   1.411   2.001   2.852
   83SOPE   H3R 7627   1.351   2.094   2.864
   83SOPE   H3S 7628   1.517   2.016   2.878
   83SOPE   C24 7629   1.367   1.893   2.940
   83SOPE   H4R 7630   1.364   1.944   3.039
   83SOPE   H4S 7631   1.269   1.845   2.922
   83SOPE   C25 7632   1.465   1.771   2.961
   83SOPE   H5R 7633   1.438   1.709   2.873
   83SOPE   H5S 7634   1.571   1.800   2.947
   83SOPE   C26 7635   1.447   1.677   3.085
   83SOPE   H6R 7636   1.339   1.693   3.106
   83SOPE   H6S 7637   1.450   1.567   3.068
   83SOPE   C27 7638   1.529   1.731   3.204
   83SOPE   H7R 7639   1.638   1.735   3.183
   83SOPE   H7S 7640   1.496   1.834   3.228
   83SOPE   C28 7641   1.511   1.657   3.335
   83SOPE   H8R 7642   1.407   1.651   3.373
   83SOPE   H8S 7643   1.535   1.552   3.305
   83SOPE   C29 7644   1.614   1.705   3.434
   83SOPE   H91 7645   1.715   1.663   3.424
   83SOPE  C210 7646   1.609   1.809   3.523
   83SOPE  H101 7647   1.696   1.839   3.583
   83SOPE  C211 7648   1.484   1.881   3.543
   83SOPE  H11R 7649   1.405   1.862   3.468
   83SOPE  H11S 7650   1.510   1.989   3.547
   83SOPE  C212 7651   1.401   1.854   3.673
   83SOPE  H12R 7652   1.390   1.744   3.688
   83SOPE  H12S 7653   1.302   1.903   3.672
   83SOPE  C213 7654   1.463   1.902   3.803
   83SOPE  H13R 7655   1.483   2.011   3.803
   83SOPE  H13S 7656   1.567   1.869   3.823
   83SOPE  C214 7657   1.375   1.867   3.919
   83SOPE  H14R 7658   1.395   1.758   3.927
   83SOPE  H14S 7659   1.268   1.894   3.907
   83SOPE  C215 7660   1.416   1.960   4.043
   83SOPE  H15R 7661   1.400   2.067   4.019
   83SOPE  H15S 7662   1.522   1.933   4.067
   83SOPE  C216 7663   1.321   1.920   4.157
   83SOPE  H16R 7664   1.330   1.812   4.181
   83SOPE  H16S 7665   1.221   1.945   4.116
   83SOPE  C217 7666   1.342   2.001   4.288
   83SOPE  H17R 7667   1.343   2.108   4.258
   83SOPE  H17S 7668   1.447   1.983   4.320
   83SOPE  C218 7669   1.238   1.994   4.397
   83SOPE  H18R 7670   1.276   2.018   4.498
   83SOPE  H18S 7671   1.216   1.889   4.428
   83SOPE  H18T 7672   1.151   2.060   4.379
   83SOPE   C33 7673   1.293   2.606   2.956
   83SOPE   H3X 7674   1.242   2.700   2.923
   83SOPE   H3Y 7675   1.399   2.636   2.969
   83SOPE   C34 7676   1.246   2.553   3.089
   83SOPE   H4X 7677   1.319   2.481   3.130
   83SOPE   H4Y 7678   1.148   2.501   3.084
   83SOPE   C35 7679   1.234   2.675   3.187
   83SOPE   H5X 7680   1.144   2.733   3.159
   83SOPE   H5Y 7681   1.324   2.740   3.188
   83SOPE   C36 7682   1.203   2.606   3.322
   83SOPE   H6X 7683   1.289   2.535   3.332
   83SOPE   H6Y 7684   1.110   2.546   3.326
   83SOPE   C37 7685   1.212   2.705   3.430
   83SOPE   H7X 7686   1.145   2.790   3.407
   83SOPE   H7Y 7687   1.312   2.753   3.425
   83SOPE   C38 7688   1.187   2.665   3.573
   83SOPE   H8X 7689   1.245   2.574   3.597
   83SOPE   H8Y 7690   1.083   2.628   3.583
   83SOPE   C39 7691   1.226   2.779   3.670
   83SOPE   H9X 7692   1.213   2.888   3.652
   83SOPE   H9Y 7693   1.335   2.771   3.685
   83SOPE  C310 7694   1.165   2.763   3.810
   83SOPE  H10X 7695   1.224   2.684   3.861
   83SOPE  H10Y 7696   1.060   2.730   3.790
   83SOPE  C311 7697   1.161   2.881   3.900
   83SOPE  H11X 7698   1.103   2.963   3.852
   83SOPE  H11Y 7699   1.263   2.911   3.932
   83SOPE  C312 7700   1.101   2.840   4.036
   83SOPE  H12X 7701   1.164   2.763   4.083
   83SOPE  H12Y 7702   1.000   2.792   4.032
   83SOPE  C313 7703   1.090   2.969   4.123
   83SOPE  H13X 7704   1.011   3.039   4.086
   83SOPE  H13Y 7705   1.189   3.019   4.127
   83SOPE  C314 7706   1.054   2.944   4.272
   83SOPE  H14X 7707   1.109   2.863   4.323
   83SOPE  H14Y 7708   0.950   2.905   4.277
   83SOPE  C315 7709   1.065   3.077   4.346
   83SOPE  H15X 7710   0.991   3.150   4.306
   83SOPE  H15Y 7711   1.164   3.122   4.324
   83SOPE  C316 7712   1.054   3.073   4.494
   83SOPE  H16X 7713   1.131   3.009   4.543
   83SOPE  H16Y 7714   0.960   3.015   4.507
   83SOPE  C317 7715   1.061   3.201   4.573
   83SOPE  H17X 7716   0.990   3.276   4.531
   83SOPE  H17Y 7717   1.162   3.247   4.565
   83SOPE  C318 7718   1.041   3.191   4.722
   83SOPE  H18X 7719   1.119   3.131   4.773
   83SOPE  H18Y 7720   0.940   3.155   4.752
   83SOPE  H18Z 7721   1.033   3.295   4.759
   84SOPE     N 7722   6.729   0.784   2.357
   84SOPE   HN1 7723   6.634   0.793   2.399
   84SOPE   HN2 7724   6.736   0.866   2.294
   84SOPE   HN3 7725   6.730   0.706   2.288
   84SOPE   C12 7726   0.001   0.773   2.456
   84SOPE  H12A 7727   0.003   0.861   2.524
   84SOPE  H12B 7728   0.093   0.771   2.394
   84SOPE   C11 7729   6.839   0.637   2.539
   84SOPE  H11A 7730   6.741   0.653   2.589
   84SOPE  H11B 7731   0.085   0.636   2.606
   84SOPE     P 7732   0.038   0.373   2.510
   84SOPE   O13 7733   0.120   0.329   2.390
   84SOPE   O14 7734   6.781   0.283   2.564
   84SOPE   O12 7735   6.818   0.514   2.467
   84SOPE   O11 7736   0.140   0.400   2.623
   84SOPE    C1 7737   0.103   0.419   2.760
   84SOPE    HA 7738   0.027   0.343   2.790
   84SOPE    HB 7739   0.053   0.518   2.770
   84SOPE    C2 7740   0.226   0.411   2.851
   84SOPE    HS 7741   0.195   0.457   2.948
   84SOPE   O21 7742   0.341   0.485   2.800
   84SOPE   C21 7743   0.330   0.609   2.764
   84SOPE   O22 7744   0.237   0.683   2.763
   84SOPE   C22 7745   0.465   0.658   2.717
   84SOPE   H2R 7746   0.448   0.763   2.684
   84SOPE   H2S 7747   0.497   0.607   2.624
   84SOPE    C3 7748   0.261   0.263   2.884
   84SOPE    HX 7749   0.361   0.261   2.934
   84SOPE    HY 7750   0.274   0.210   2.787
   84SOPE   O31 7751   0.158   0.199   2.964
   84SOPE   C31 7752   0.188   0.064   2.977
   84SOPE   O32 7753   0.284   0.012   2.926
   84SOPE   C32 7754   0.094   6.838   3.080
   84SOPE   H2X 7755   0.035   6.762   3.025
   84SOPE   H2Y 7756   0.022   0.064   3.129
   84SOPE   C23 7757   0.576   0.652   2.823
   84SOPE   H3R 7758   0.669   0.673   2.767
   84SOPE   H3S 7759   0.591   0.552   2.869
   84SOPE   C24 7760   0.573   0.758   2.924
   84SOPE   H4R 7761   0.561   0.851   2.864
   84SOPE   H4S 7762   0.475   0.743   2.973
   84SOPE   C25 7763   0.694   0.774   3.016
   84SOPE   H5R 7764   0.699   0.686   3.083
   84SOPE   H5S 7765   0.793   0.771   2.965
   84SOPE   C26 7766   0.691   0.916   3.083
   84SOPE   H6R 7767   0.694   0.994   3.003
   84SOPE   H6S 7768   0.596   0.922   3.140
   84SOPE   C27 7769   0.807   0.946   3.189
   84SOPE   H7R 7770   0.804   0.861   3.260
   84SOPE   H7S 7771   0.905   0.934   3.138
   84SOPE   C28 7772   0.796   1.073   3.267
   84SOPE   H8R 7773   0.783   1.159   3.198
   84SOPE   H8S 7774   0.706   1.084   3.332
   84SOPE   C29 7775   0.920   1.077   3.360
   84SOPE   H91 7776   1.008   1.121   3.310
   84SOPE  C210 7777   0.923   1.029   3.483
   84SOPE  H101 7778   1.016   1.021   3.541
   84SOPE  C211 7779   0.803   0.986   3.560
   84SOPE  H11R 7780   0.795   0.878   3.534
   84SOPE  H11S 7781   0.715   1.038   3.517
   84SOPE  C212 7782   0.813   1.002   3.713
   84SOPE  H12R 7783   0.910   0.965   3.754
   84SOPE  H12S 7784   0.732   0.943   3.761
   84SOPE  C213 7785   0.802   1.147   3.765
   84SOPE  H13R 7786   0.717   1.202   3.720
   84SOPE  H13S 7787   0.890   1.207   3.734
   84SOPE  C214 7788   0.774   1.158   3.916
   84SOPE  H14R 7789   0.858   1.104   3.964
   84SOPE  H14S 7790   0.679   1.103   3.933
   84SOPE  C215 7791   0.757   1.303   3.962
   84SOPE  H15R 7792   0.679   1.342   3.893
   84SOPE  H15S 7793   0.851   1.360   3.942
   84SOPE  C216 7794   0.717   1.307   4.111
   84SOPE  H16R 7795   0.782   1.242   4.173
   84SOPE  H16S 7796   0.616   1.270   4.141
   84SOPE  C217 7797   0.728   1.448   4.159
   84SOPE  H17R 7798   0.680   1.508   4.078
   84SOPE  H17S 7799   0.833   1.484   4.157
   84SOPE  C218 7800   0.678   1.478   4.304
   84SOPE  H18R 7801   0.674   1.586   4.330
   84SOPE  H18S 7802   0.745   1.420   4.371
   84SOPE  H18T 7803   0.576   1.435   4.312
   84SOPE   C33 7804   0.165   6.767   3.188
   84SOPE   H3X 7805   0.253   6.709   3.154
   84SOPE   H3Y 7806   0.092   6.702   3.239
   84SOPE   C34 7807   0.211   0.027   3.287
   84SOPE   H4X 7808   0.130   0.099   3.309
   84SOPE   H4Y 7809   0.295   0.084   3.241
   84SOPE   C35 7810   0.273   6.813   3.416
   84SOPE   H5X 7811   0.353   6.739   3.391
   84SOPE   H5Y 7812   0.192   6.776   3.482
   84SOPE   C36 7813   0.351   0.079   3.490
   84SOPE   H6X 7814   0.421   0.125   3.417
   84SOPE   H6Y 7815   0.412   0.027   3.566
   84SOPE   C37 7816   0.264   0.195   3.537
   84SOPE   H7X 7817   0.180   0.142   3.586
   84SOPE   H7Y 7818   0.222   0.258   3.456
   84SOPE   C38 7819   0.342   0.274   3.653
   84SOPE   H8X 7820   0.429   0.328   3.610
   84SOPE   H8Y 7821   0.383   0.190   3.713
   84SOPE   C39 7822   0.248   0.362   3.730
   84SOPE   H9X 7823   0.178   0.289   3.777
   84SOPE   H9Y 7824   0.203   0.427   3.653
   84SOPE  C310 7825   0.326   0.443   3.832
   84SOPE  H10X 7826   0.408   0.495   3.777
   84SOPE  H10Y 7827   0.368   0.363   3.896
   84SOPE  C311 7828   0.246   0.535   3.922
   84SOPE  H11X 7829   0.181   0.473   3.988
   84SOPE  H11Y 7830   0.190   0.611   3.863
   84SOPE  C312 7831   0.329   0.617   4.026
   84SOPE  H12X 7832   0.377   0.698   3.966
   84SOPE  H12Y 7833   0.410   0.549   4.059
   84SOPE  C313 7834   0.260   0.671   4.150
   84SOPE  H13X 7835   0.171   0.731   4.120
   84SOPE  H13Y 7836   0.330   0.738   4.205
   84SOPE  C314 7837   0.216   0.561   4.251
   84SOPE  H14X 7838   0.172   0.471   4.204
   84SOPE  H14Y 7839   0.134   0.594   4.319
   84SOPE  C315 7840   0.327   0.506   4.337
   84SOPE  H15X 7841   0.418   0.472   4.283
   84SOPE  H15Y 7842   0.284   0.419   4.392
   84SOPE  C316 7843   0.357   0.602   4.448
   84SOPE  H16X 7844   0.259   0.628   4.494
   84SOPE  H16Y 7845   0.411   0.689   4.406
   84SOPE  C317 7846   0.438   0.535   4.566
   84SOPE  H17X 7847   0.372   0.480   4.636
   84SOPE  H17Y 7848   0.488   0.619   4.620
   84SOPE  C318 7849   0.543   0.429   4.537
   84SOPE  H18X 7850   0.514   0.332   4.492
   84SOPE  H18Y 7851   0.605   0.415   4.629
   84SOPE  H18Z 7852   0.618   0.461   4.462
   85SOPE     N 7853   5.751   4.860   2.246
   85SOPE   HN1 7854   5.766   4.922   2.163
   85SOPE   HN2 7855   5.716   4.927   2.318
   85SOPE   HN3 7856   5.839   4.821   2.284
   85SOPE   C12 7857   5.642   4.755   2.238
   85SOPE  H12A 7858   5.571   4.791   2.161
   85SOPE  H12B 7859   5.593   4.758   2.338
   85SOPE   C11 7860   5.689   4.614   2.221
   85SOPE  H11A 7861   5.599   4.563   2.261
   85SOPE  H11B 7862   5.774   4.574   2.280
   85SOPE     P 7863   5.758   4.435   2.052
   85SOPE   O13 7864   5.903   4.447   2.079
   85SOPE   O14 7865   5.715   4.398   1.915
   85SOPE   O12 7866   5.692   4.571   2.086
   85SOPE   O11 7867   5.687   4.338   2.153
   85SOPE    C1 7868   5.586   4.247   2.117
   85SOPE    HA 7869   5.567   4.182   2.205
   85SOPE    HB 7870   5.622   4.190   2.029
   85SOPE    C2 7871   5.456   4.315   2.069
   85SOPE    HS 7872   5.498   4.409   2.027
   85SOPE   O21 7873   5.362   4.333   2.177
   85SOPE   C21 7874   5.323   4.458   2.204
   85SOPE   O22 7875   5.342   4.551   2.132
   85SOPE   C22 7876   5.265   4.471   2.339
   85SOPE   H2R 7877   5.163   4.426   2.330
   85SOPE   H2S 7878   5.251   4.578   2.363
   85SOPE    C3 7879   5.388   4.243   1.950
   85SOPE    HX 7880   5.453   4.242   1.860
   85SOPE    HY 7881   5.298   4.294   1.910
   85SOPE   O31 7882   5.353   4.109   1.992
   85SOPE   C31 7883   5.231   4.094   2.046
   85SOPE   O32 7884   5.151   4.184   2.047
   85SOPE   C32 7885   5.194   3.947   2.086
   85SOPE   H2X 7886   5.169   3.894   1.992
   85SOPE   H2Y 7887   5.104   3.946   2.151
   85SOPE   C23 7888   5.350   4.411   2.456
   85SOPE   H3R 7889   5.445   4.468   2.469
   85SOPE   H3S 7890   5.382   4.305   2.456
   85SOPE   C24 7891   5.283   4.424   2.597
   85SOPE   H4R 7892   5.362   4.409   2.674
   85SOPE   H4S 7893   5.237   4.525   2.603
   85SOPE   C25 7894   5.179   4.316   2.630
   85SOPE   H5R 7895   5.129   4.293   2.533
   85SOPE   H5S 7896   5.225   4.220   2.659
   85SOPE   C26 7897   5.085   4.361   2.743
   85SOPE   H6R 7898   5.093   4.471   2.755
   85SOPE   H6S 7899   4.982   4.329   2.717
   85SOPE   C27 7900   5.135   4.303   2.875
   85SOPE   H7R 7901   5.134   4.192   2.873
   85SOPE   H7S 7902   5.242   4.330   2.883
   85SOPE   C28 7903   5.046   4.359   2.987
   85SOPE   H8R 7904   5.096   4.344   3.085
   85SOPE   H8S 7905   5.062   4.468   2.967
   85SOPE   C29 7906   4.908   4.311   3.005
   85SOPE   H91 7907   4.835   4.347   2.930
   85SOPE  C210 7908   4.865   4.225   3.103
   85SOPE  H101 7909   4.756   4.210   3.108
   85SOPE  C211 7910   4.947   4.172   3.221
   85SOPE  H11R 7911   5.054   4.160   3.195
   85SOPE  H11S 7912   4.900   4.080   3.261
   85SOPE  C212 7913   4.952   4.270   3.346
   85SOPE  H12R 7914   4.852   4.295   3.387
   85SOPE  H12S 7915   4.994   4.362   3.299
   85SOPE  C213 7916   5.031   4.220   3.465
   85SOPE  H13R 7917   5.138   4.210   3.435
   85SOPE  H13S 7918   4.996   4.116   3.481
   85SOPE  C214 7919   5.015   4.295   3.596
   85SOPE  H14R 7920   4.931   4.367   3.605
   85SOPE  H14S 7921   5.094   4.371   3.614
   85SOPE  C215 7922   5.003   4.203   3.716
   85SOPE  H15R 7923   5.097   4.143   3.719
   85SOPE  H15S 7924   4.915   4.136   3.704
   85SOPE  C216 7925   5.004   4.276   3.850
   85SOPE  H16R 7926   4.903   4.320   3.866
   85SOPE  H16S 7927   5.065   4.369   3.843
   85SOPE  C217 7928   5.048   4.187   3.971
   85SOPE  H17R 7929   5.150   4.145   3.959
   85SOPE  H17S 7930   4.975   4.104   3.982
   85SOPE  C218 7931   5.055   4.272   4.095
   85SOPE  H18R 7932   4.962   4.322   4.130
   85SOPE  H18S 7933   5.123   4.357   4.076
   85SOPE  H18T 7934   5.089   4.204   4.176
   85SOPE   C33 7935   5.310   3.865   2.148
   85SOPE   H3X 7936   5.406   3.864   2.092
   85SOPE   H3Y 7937   5.278   3.758   2.145
   85SOPE   C34 7938   5.339   3.903   2.294
   85SOPE   H4X 7939   5.241   3.889   2.346
   85SOPE   H4Y 7940   5.359   4.011   2.308
   85SOPE   C35 7941   5.425   3.801   2.369
   85SOPE   H5X 7942   5.530   3.799   2.334
   85SOPE   H5Y 7943   5.378   3.701   2.355
   85SOPE   C36 7944   5.425   3.821   2.520
   85SOPE   H6X 7945   5.324   3.857   2.547
   85SOPE   H6Y 7946   5.496   3.900   2.553
   85SOPE   C37 7947   5.449   3.682   2.588
   85SOPE   H7X 7948   5.545   3.647   2.545
   85SOPE   H7Y 7949   5.362   3.614   2.576
   85SOPE   C38 7950   5.467   3.699   2.741
   85SOPE   H8X 7951   5.537   3.785   2.755
   85SOPE   H8Y 7952   5.508   3.599   2.766
   85SOPE   C39 7953   5.329   3.743   2.808
   85SOPE   H9X 7954   5.253   3.666   2.783
   85SOPE   H9Y 7955   5.297   3.839   2.762
   85SOPE  C310 7956   5.327   3.746   2.957
   85SOPE  H10X 7957   5.350   3.850   2.989
   85SOPE  H10Y 7958   5.395   3.666   2.994
   85SOPE  C311 7959   5.184   3.721   3.004
   85SOPE  H11X 7960   5.138   3.636   2.948
   85SOPE  H11Y 7961   5.118   3.810   2.987
   85SOPE  C312 7962   5.171   3.696   3.154
   85SOPE  H12X 7963   5.257   3.627   3.170
   85SOPE  H12Y 7964   5.078   3.638   3.172
   85SOPE  C313 7965   5.193   3.811   3.250
   85SOPE  H13X 7966   5.097   3.866   3.259
   85SOPE  H13Y 7967   5.264   3.875   3.193
   85SOPE  C314 7968   5.256   3.763   3.380
   85SOPE  H14X 7969   5.352   3.707   3.375
   85SOPE  H14Y 7970   5.201   3.682   3.433
   85SOPE  C315 7971   5.249   3.869   3.490
   85SOPE  H15X 7972   5.141   3.892   3.504
   85SOPE  H15Y 7973   5.273   3.969   3.446
   85SOPE  C316 7974   5.332   3.848   3.616
   85SOPE  H16X 7975   5.436   3.823   3.585
   85SOPE  H16Y 7976   5.305   3.752   3.665
   85SOPE  C317 7977   5.328   3.965   3.715
   85SOPE  H17X 7978   5.394   3.934   3.799
   85SOPE  H17Y 7979   5.223   3.962   3.752
   85SOPE  C318 7980   5.367   4.102   3.665
   85SOPE  H18X 7981   5.288   4.150   3.604
   85SOPE  H18Y 7982   5.460   4.089   3.605
   85SOPE  H18Z 7983   5.379   4.183   3.741
   86SOPE     N 7984   5.306   1.206   2.406
   86SOPE   HN1 7985   5.244   1.163   2.478
   86SOPE   HN2 7986   5.286   1.307   2.393
   86SOPE   HN3 7987   5.275   1.171   2.313
   86SOPE   C12 7988   5.453   1.176   2.436
   86SOPE  H12A 7989   5.476   1.233   2.528
   86SOPE  H12B 7990   5.506   1.206   2.343
   86SOPE   C11 7991   5.468   1.034   2.453
   86SOPE  H11A 7992   5.418   1.013   2.550
   86SOPE  H11B 7993   5.570   1.012   2.489
   86SOPE     P 7994   5.495   0.828   2.294
   86SOPE   O13 7995   5.594   0.862   2.188
   86SOPE   O14 7996   5.387   0.740   2.255
   86SOPE   O12 7997   5.426   0.950   2.351
   86SOPE   O11 7998   5.568   0.775   2.422
   86SOPE    C1 7999   5.521   0.656   2.491
   86SOPE    HA 8000   5.592   0.630   2.572
   86SOPE    HB 8001   5.513   0.578   2.413
   86SOPE    C2 8002   5.384   0.669   2.566
   86SOPE    HS 8003   5.306   0.694   2.491
   86SOPE   O21 8004   5.386   0.760   2.683
   86SOPE   C21 8005   5.266   0.797   2.724
   86SOPE   O22 8006   5.162   0.742   2.689
   86SOPE   C22 8007   5.275   0.924   2.808
   86SOPE   H2R 8008   5.214   0.995   2.748
   86SOPE   H2S 8009   5.377   0.966   2.816
   86SOPE    C3 8010   5.351   0.520   2.607
   86SOPE    HX 8011   5.334   0.460   2.515
   86SOPE    HY 8012   5.250   0.511   2.653
   86SOPE   O31 8013   5.458   0.464   2.692
   86SOPE   C31 8014   5.427   0.488   2.818
   86SOPE   O32 8015   5.319   0.526   2.861
   86SOPE   C32 8016   5.543   0.455   2.907
   86SOPE   H2X 8017   5.636   0.491   2.858
   86SOPE   H2Y 8018   5.552   0.345   2.913
   86SOPE   C23 8019   5.212   0.898   2.950
   86SOPE   H3R 8020   5.120   0.837   2.941
   86SOPE   H3S 8021   5.186   0.996   2.994
   86SOPE   C24 8022   5.306   0.823   3.055
   86SOPE   H4R 8023   5.249   0.800   3.148
   86SOPE   H4S 8024   5.352   0.739   2.999
   86SOPE   C25 8025   5.434   0.910   3.099
   86SOPE   H5R 8026   5.503   0.840   3.151
   86SOPE   H5S 8027   5.491   0.941   3.009
   86SOPE   C26 8028   5.390   1.013   3.204
   86SOPE   H6R 8029   5.302   1.073   3.173
   86SOPE   H6S 8030   5.346   0.965   3.294
   86SOPE   C27 8031   5.489   1.119   3.231
   86SOPE   H7R 8032   5.505   1.193   3.149
   86SOPE   H7S 8033   5.458   1.169   3.325
   86SOPE   C28 8034   5.635   1.067   3.245
   86SOPE   H8R 8035   5.658   1.023   3.145
   86SOPE   H8S 8036   5.703   1.154   3.254
   86SOPE   C29 8037   5.647   0.962   3.355
   86SOPE   H91 8038   5.677   0.862   3.321
   86SOPE  C210 8039   5.618   0.975   3.485
   86SOPE  H101 8040   5.623   0.887   3.550
   86SOPE  C211 8041   5.579   1.106   3.554
   86SOPE  H11R 8042   5.476   1.099   3.595
   86SOPE  H11S 8043   5.590   1.187   3.478
   86SOPE  C212 8044   5.680   1.158   3.665
   86SOPE  H12R 8045   5.625   1.240   3.716
   86SOPE  H12S 8046   5.777   1.188   3.620
   86SOPE  C213 8047   5.721   1.060   3.780
   86SOPE  H13R 8048   5.765   0.974   3.726
   86SOPE  H13S 8049   5.641   1.019   3.846
   86SOPE  C214 8050   5.841   1.104   3.855
   86SOPE  H14R 8051   5.824   1.203   3.900
   86SOPE  H14S 8052   5.930   1.123   3.791
   86SOPE  C215 8053   5.896   0.999   3.951
   86SOPE  H15R 8054   5.922   0.912   3.887
   86SOPE  H15S 8055   5.816   0.977   4.025
   86SOPE  C216 8056   6.019   1.049   4.021
   86SOPE  H16R 8057   6.049   0.962   4.083
   86SOPE  H16S 8058   5.985   1.134   4.085
   86SOPE  C217 8059   6.144   1.077   3.930
   86SOPE  H17R 8060   6.123   1.175   3.882
   86SOPE  H17S 8061   6.145   0.999   3.851
   86SOPE  C218 8062   6.287   1.071   4.000
   86SOPE  H18R 8063   6.366   1.097   3.926
   86SOPE  H18S 8064   6.301   0.964   4.026
   86SOPE  H18T 8065   6.295   1.140   4.086
   86SOPE   C33 8066   5.520   0.514   3.051
   86SOPE   H3X 8067   5.506   0.623   3.038
   86SOPE   H3Y 8068   5.618   0.492   3.099
   86SOPE   C34 8069   5.419   0.443   3.138
   86SOPE   H4X 8070   5.434   0.333   3.131
   86SOPE   H4Y 8071   5.313   0.469   3.116
   86SOPE   C35 8072   5.437   0.486   3.290
   86SOPE   H5X 8073   5.386   0.583   3.308
   86SOPE   H5Y 8074   5.542   0.512   3.316
   86SOPE   C36 8075   5.382   0.374   3.381
   86SOPE   H6X 8076   5.417   0.271   3.358
   86SOPE   H6Y 8077   5.272   0.367   3.379
   86SOPE   C37 8078   5.430   0.396   3.528
   86SOPE   H7X 8079   5.457   0.503   3.543
   86SOPE   H7Y 8080   5.518   0.331   3.547
   86SOPE   C38 8081   5.322   0.352   3.633
   86SOPE   H8X 8082   5.307   0.242   3.631
   86SOPE   H8Y 8083   5.224   0.403   3.620
   86SOPE   C39 8084   5.368   0.373   3.779
   86SOPE   H9X 8085   5.388   0.482   3.793
   86SOPE   H9Y 8086   5.461   0.314   3.793
   86SOPE  C310 8087   5.269   0.347   3.887
   86SOPE  H10X 8088   5.217   0.251   3.866
   86SOPE  H10Y 8089   5.187   0.422   3.893
   86SOPE  C311 8090   5.339   0.344   4.021
   86SOPE  H11X 8091   5.367   0.447   4.052
   86SOPE  H11Y 8092   5.420   0.267   4.022
   86SOPE  C312 8093   5.248   0.299   4.137
   86SOPE  H12X 8094   5.172   0.230   4.093
   86SOPE  H12Y 8095   5.188   0.384   4.174
   86SOPE  C313 8096   5.331   0.217   4.245
   86SOPE  H13X 8097   5.414   0.278   4.287
   86SOPE  H13Y 8098   5.375   0.126   4.198
   86SOPE  C314 8099   5.246   0.174   4.360
   86SOPE  H14X 8100   5.302   0.125   4.443
   86SOPE  H14Y 8101   5.189   0.090   4.313
   86SOPE  C315 8102   5.152   0.273   4.429
   86SOPE  H15X 8103   5.067   0.305   4.365
   86SOPE  H15Y 8104   5.214   0.360   4.461
   86SOPE  C316 8105   5.086   0.207   4.553
   86SOPE  H16X 8106   5.051   0.282   4.627
   86SOPE  H16Y 8107   5.167   0.156   4.609
   86SOPE  C317 8108   4.968   0.115   4.522
   86SOPE  H17X 8109   5.006   0.040   4.449
   86SOPE  H17Y 8110   4.891   0.182   4.478
   86SOPE  C318 8111   4.884   0.034   4.625
   86SOPE  H18X 8112   4.777   0.042   4.598
   86SOPE  H18Y 8113   4.908   0.076   4.725
   86SOPE  H18Z 8114   4.899   6.767   4.634
   87SOPE     N 8115   6.372   0.258   2.418
   87SOPE   HN1 8116   6.286   0.315   2.414
   87SOPE   HN2 8117   6.366   0.177   2.353
   87SOPE   HN3 8118   6.384   0.231   2.518
   87SOPE   C12 8119   6.480   0.355   2.371
   87SOPE  H12A 8120   6.447   0.396   2.273
   87SOPE  H12B 8121   6.577   0.301   2.373
   87SOPE   C11 8122   6.487   0.481   2.465
   87SOPE  H11A 8123   6.583   0.529   2.434
   87SOPE  H11B 8124   6.500   0.459   2.573
   87SOPE     P 8125   6.380   0.699   2.506
   87SOPE   O13 8126   6.249   0.768   2.496
   87SOPE   O14 8127   6.496   0.771   2.455
   87SOPE   O12 8128   6.369   0.558   2.445
   87SOPE   O11 8129   6.418   0.661   2.655
   87SOPE    C1 8130   6.328   0.603   2.748
   87SOPE    HA 8131   6.286   0.508   2.708
   87SOPE    HB 8132   6.237   0.665   2.767
   87SOPE    C2 8133   6.395   0.568   2.883
   87SOPE    HS 8134   6.327   0.488   2.921
   87SOPE   O21 8135   6.394   0.679   2.971
   87SOPE   C21 8136   6.391   0.658   3.101
   87SOPE   O22 8137   6.346   0.557   3.155
   87SOPE   C22 8138   6.433   0.789   3.172
   87SOPE   H2R 8139   6.333   0.839   3.177
   87SOPE   H2S 8140   6.509   0.850   3.118
   87SOPE    C3 8141   6.538   0.507   2.861
   87SOPE    HX 8142   6.593   0.595   2.822
   87SOPE    HY 8143   6.537   0.426   2.784
   87SOPE   O31 8144   6.593   0.471   2.988
   87SOPE   C31 8145   6.593   0.339   3.023
   87SOPE   O32 8146   6.522   0.256   2.969
   87SOPE   C32 8147   6.693   0.317   3.134
   87SOPE   H2X 8148   6.706   0.411   3.193
   87SOPE   H2Y 8149   6.794   0.300   3.091
   87SOPE   C23 8150   6.478   0.763   3.316
   87SOPE   H3R 8151   6.542   0.843   3.360
   87SOPE   H3S 8152   6.533   0.667   3.328
   87SOPE   C24 8153   6.362   0.753   3.417
   87SOPE   H4R 8154   6.352   0.856   3.459
   87SOPE   H4S 8155   6.275   0.732   3.351
   87SOPE   C25 8156   6.367   0.641   3.523
   87SOPE   H5R 8157   6.399   0.549   3.470
   87SOPE   H5S 8158   6.442   0.667   3.600
   87SOPE   C26 8159   6.229   0.623   3.595
   87SOPE   H6R 8160   6.184   0.722   3.620
   87SOPE   H6S 8161   6.169   0.585   3.509
   87SOPE   C27 8162   6.242   0.543   3.721
   87SOPE   H7R 8163   6.148   0.491   3.748
   87SOPE   H7S 8164   6.327   0.472   3.709
   87SOPE   C28 8165   6.282   0.639   3.843
   87SOPE   H8R 8166   6.362   0.703   3.802
   87SOPE   H8S 8167   6.194   0.707   3.850
   87SOPE   C29 8168   6.303   0.576   3.977
   87SOPE   H91 8169   6.383   0.500   3.978
   87SOPE  C210 8170   6.231   0.584   4.088
   87SOPE  H101 8171   6.279   0.537   4.176
   87SOPE  C211 8172   6.108   0.667   4.109
   87SOPE  H11R 8173   6.022   0.596   4.102
   87SOPE  H11S 8174   6.091   0.738   4.025
   87SOPE  C212 8175   6.100   0.737   4.242
   87SOPE  H12R 8176   6.009   0.801   4.245
   87SOPE  H12S 8177   6.191   0.801   4.251
   87SOPE  C213 8178   6.076   0.650   4.363
   87SOPE  H13R 8179   6.164   0.585   4.382
   87SOPE  H13S 8180   5.979   0.600   4.345
   87SOPE  C214 8181   6.073   0.746   4.483
   87SOPE  H14R 8182   6.160   0.814   4.487
   87SOPE  H14S 8183   6.081   0.697   4.583
   87SOPE  C215 8184   5.946   0.820   4.511
   87SOPE  H15R 8185   5.875   0.741   4.545
   87SOPE  H15S 8186   5.904   0.864   4.418
   87SOPE  C216 8187   5.959   0.936   4.601
   87SOPE  H16R 8188   6.006   1.023   4.551
   87SOPE  H16S 8189   6.027   0.903   4.683
   87SOPE  C217 8190   5.819   0.991   4.664
   87SOPE  H17R 8191   5.863   1.063   4.736
   87SOPE  H17S 8192   5.772   0.907   4.720
   87SOPE  C218 8193   5.725   1.052   4.567
   87SOPE  H18R 8194   5.638   1.093   4.623
   87SOPE  H18S 8195   5.704   0.972   4.494
   87SOPE  H18T 8196   5.784   1.121   4.502
   87SOPE   C33 8197   6.629   0.218   3.237
   87SOPE   H3X 8198   6.646   0.111   3.216
   87SOPE   H3Y 8199   6.519   0.238   3.238
   87SOPE   C34 8200   6.683   0.228   3.379
   87SOPE   H4X 8201   6.791   0.246   3.361
   87SOPE   H4Y 8202   6.673   0.125   3.421
   87SOPE   C35 8203   6.616   0.323   3.477
   87SOPE   H5X 8204   6.514   0.285   3.501
   87SOPE   H5Y 8205   6.590   0.415   3.419
   87SOPE   C36 8206   6.690   0.349   3.607
   87SOPE   H6X 8207   6.788   0.399   3.588
   87SOPE   H6Y 8208   6.713   0.248   3.649
   87SOPE   C37 8209   6.625   0.426   3.719
   87SOPE   H7X 8210   6.532   0.376   3.756
   87SOPE   H7Y 8211   6.600   0.528   3.683
   87SOPE   C38 8212   6.715   0.430   3.837
   87SOPE   H8X 8213   6.812   0.471   3.803
   87SOPE   H8Y 8214   6.735   0.323   3.862
   87SOPE   C39 8215   6.652   0.505   3.953
   87SOPE   H9X 8216   6.563   0.448   3.988
   87SOPE   H9Y 8217   6.608   0.600   3.916
   87SOPE  C310 8218   6.743   0.512   4.074
   87SOPE  H10X 8219   6.835   0.569   4.050
   87SOPE  H10Y 8220   6.771   0.412   4.113
   87SOPE  C311 8221   6.678   0.592   4.190
   87SOPE  H11X 8222   6.737   0.576   4.283
   87SOPE  H11Y 8223   6.578   0.553   4.218
   87SOPE  C312 8224   6.650   0.739   4.174
   87SOPE  H12X 8225   6.583   0.765   4.089
   87SOPE  H12Y 8226   6.745   0.797   4.170
   87SOPE  C313 8227   6.562   0.794   4.290
   87SOPE  H13X 8228   6.605   0.776   4.390
   87SOPE  H13Y 8229   6.478   0.722   4.296
   87SOPE  C314 8230   6.521   0.941   4.283
   87SOPE  H14X 8231   6.481   0.964   4.181
   87SOPE  H14Y 8232   6.613   1.002   4.295
   87SOPE  C315 8233   6.426   0.974   4.399
   87SOPE  H15X 8234   6.485   0.945   4.489
   87SOPE  H15Y 8235   6.329   0.921   4.385
   87SOPE  C316 8236   6.399   1.128   4.419
   87SOPE  H16X 8237   6.372   1.167   4.319
   87SOPE  H16Y 8238   6.499   1.173   4.436
   87SOPE  C317 8239   6.297   1.157   4.534
   87SOPE  H17X 8240   6.322   1.091   4.620
   87SOPE  H17Y 8241   6.203   1.123   4.487
   87SOPE  C318 8242   6.286   1.297   4.579
   87SOPE  H18X 8243   6.206   1.313   4.654
   87SOPE  H18Y 8244   6.260   1.368   4.498
   87SOPE  H18Z 8245   6.385   1.320   4.625
   88SOPE     N 8246   1.163   5.278   2.155
   88SOPE   HN1 8247   1.251   5.332   2.163
   88SOPE   HN2 8248   1.189   5.178   2.143
   88SOPE   HN3 8249   1.125   5.308   2.063
   88SOPE   C12 8250   1.071   5.300   2.276
   88SOPE  H12A 8251   1.125   5.256   2.362
   88SOPE  H12B 8252   0.977   5.244   2.259
   88SOPE   C11 8253   1.041   5.452   2.293
   88SOPE  H11A 8254   1.134   5.504   2.324
   88SOPE  H11B 8255   0.976   5.468   2.381
   88SOPE     P 8256   0.971   5.663   2.167
   88SOPE   O13 8257   0.902   5.705   2.043
   88SOPE   O14 8258   1.101   5.733   2.199
   88SOPE   O12 8259   0.991   5.506   2.164
   88SOPE   O11 8260   0.877   5.679   2.282
   88SOPE    C1 8261   0.873   5.780   2.379
   88SOPE    HA 8262   0.767   5.812   2.395
   88SOPE    HB 8263   0.922   5.875   2.349
   88SOPE    C2 8264   0.941   5.748   2.512
   88SOPE    HS 8265   0.911   5.643   2.530
   88SOPE   O21 8266   0.889   5.823   2.628
   88SOPE   C21 8267   0.769   5.789   2.670
   88SOPE   O22 8268   0.687   5.725   2.601
   88SOPE   C22 8269   0.736   5.841   2.813
   88SOPE   H2R 8270   0.732   5.952   2.815
   88SOPE   H2S 8271   0.816   5.809   2.883
   88SOPE    C3 8272   1.093   5.760   2.510
   88SOPE    HX 8273   1.111   5.852   2.450
   88SOPE    HY 8274   1.136   5.680   2.446
   88SOPE   O31 8275   1.161   5.781   2.637
   88SOPE   C31 8276   1.164   5.671   2.706
   88SOPE   O32 8277   1.118   5.562   2.672
   88SOPE   C32 8278   1.229   5.699   2.842
   88SOPE   H2X 8279   1.267   5.803   2.851
   88SOPE   H2Y 8280   1.323   5.640   2.842
   88SOPE   C23 8281   0.609   5.766   2.866
   88SOPE   H3R 8282   0.625   5.656   2.863
   88SOPE   H3S 8283   0.521   5.795   2.806
   88SOPE   C24 8284   0.571   5.797   3.011
   88SOPE   H4R 8285   0.590   5.907   3.016
   88SOPE   H4S 8286   0.464   5.772   3.020
   88SOPE   C25 8287   0.662   5.717   3.115
   88SOPE   H5R 8288   0.612   5.619   3.095
   88SOPE   H5S 8289   0.766   5.704   3.080
   88SOPE   C26 8290   0.657   5.770   3.259
   88SOPE   H6R 8291   0.681   5.878   3.258
   88SOPE   H6S 8292   0.549   5.756   3.284
   88SOPE   C27 8293   0.742   5.685   3.352
   88SOPE   H7R 8294   0.704   5.583   3.376
   88SOPE   H7S 8295   0.839   5.673   3.300
   88SOPE   C28 8296   0.758   5.754   3.491
   88SOPE   H8R 8297   0.834   5.691   3.544
   88SOPE   H8S 8298   0.813   5.850   3.486
   88SOPE   C29 8299   0.629   5.759   3.559
   88SOPE   H91 8300   0.546   5.791   3.494
   88SOPE  C210 8301   0.608   5.734   3.690
   88SOPE  H101 8302   0.506   5.746   3.730
   88SOPE  C211 8303   0.716   5.707   3.794
   88SOPE  H11R 8304   0.820   5.733   3.766
   88SOPE  H11S 8305   0.734   5.600   3.820
   88SOPE  C212 8306   0.684   5.786   3.923
   88SOPE  H12R 8307   0.630   5.881   3.904
   88SOPE  H12S 8308   0.783   5.800   3.973
   88SOPE  C213 8309   0.598   5.704   4.022
   88SOPE  H13R 8310   0.663   5.638   4.084
   88SOPE  H13S 8311   0.519   5.646   3.970
   88SOPE  C214 8312   0.516   5.795   4.112
   88SOPE  H14R 8313   0.420   5.740   4.129
   88SOPE  H14S 8314   0.500   5.883   4.047
   88SOPE  C215 8315   0.578   5.826   4.246
   88SOPE  H15R 8316   0.685   5.851   4.228
   88SOPE  H15S 8317   0.574   5.734   4.308
   88SOPE  C216 8318   0.501   5.933   4.328
   88SOPE  H16R 8319   0.395   5.904   4.310
   88SOPE  H16S 8320   0.522   6.034   4.286
   88SOPE  C217 8321   0.536   5.931   4.480
   88SOPE  H17R 8322   0.544   5.826   4.517
   88SOPE  H17S 8323   0.463   5.981   4.546
   88SOPE  C218 8324   0.670   6.007   4.486
   88SOPE  H18R 8325   0.648   6.106   4.441
   88SOPE  H18S 8326   0.758   5.964   4.434
   88SOPE  H18T 8327   0.706   6.023   4.590
   88SOPE   C33 8328   1.133   5.673   2.962
   88SOPE   H3X 8329   1.086   5.574   2.943
   88SOPE   H3Y 8330   1.058   5.755   2.958
   88SOPE   C34 8331   1.212   5.664   3.090
   88SOPE   H4X 8332   1.304   5.725   3.082
   88SOPE   H4Y 8333   1.258   5.563   3.094
   88SOPE   C35 8334   1.122   5.686   3.210
   88SOPE   H5X 8335   1.079   5.585   3.230
   88SOPE   H5Y 8336   1.042   5.760   3.187
   88SOPE   C36 8337   1.209   5.734   3.325
   88SOPE   H6X 8338   1.234   5.836   3.290
   88SOPE   H6Y 8339   1.293   5.662   3.337
   88SOPE   C37 8340   1.138   5.733   3.462
   88SOPE   H7X 8341   1.120   5.626   3.488
   88SOPE   H7Y 8342   1.049   5.798   3.446
   88SOPE   C38 8343   1.216   5.796   3.582
   88SOPE   H8X 8344   1.261   5.894   3.556
   88SOPE   H8Y 8345   1.302   5.728   3.595
   88SOPE   C39 8346   1.130   5.822   3.711
   88SOPE   H9X 8347   1.050   5.745   3.717
   88SOPE   H9Y 8348   1.079   5.918   3.691
   88SOPE  C310 8349   1.213   5.828   3.839
   88SOPE  H10X 8350   1.299   5.898   3.831
   88SOPE  H10Y 8351   1.253   5.728   3.862
   88SOPE  C311 8352   1.140   5.878   3.972
   88SOPE  H11X 8353   1.195   5.856   4.066
   88SOPE  H11Y 8354   1.048   5.815   3.964
   88SOPE  C312 8355   1.107   6.024   3.963
   88SOPE  H12X 8356   1.055   6.046   3.867
   88SOPE  H12Y 8357   1.205   6.075   3.951
   88SOPE  C313 8358   1.028   6.066   4.086
   88SOPE  H13X 8359   0.943   5.993   4.087
   88SOPE  H13Y 8360   0.991   6.164   4.050
   88SOPE  C314 8361   1.099   6.081   4.217
   88SOPE  H14X 8362   1.157   6.174   4.204
   88SOPE  H14Y 8363   1.177   6.006   4.241
   88SOPE  C315 8364   0.999   6.073   4.339
   88SOPE  H15X 8365   0.938   5.980   4.331
   88SOPE  H15Y 8366   0.936   6.165   4.341
   88SOPE  C316 8367   1.066   6.064   4.474
   88SOPE  H16X 8368   0.986   6.086   4.548
   88SOPE  H16Y 8369   1.144   6.142   4.486
   88SOPE  C317 8370   1.120   5.927   4.508
   88SOPE  H17X 8371   1.211   5.916   4.446
   88SOPE  H17Y 8372   1.039   5.856   4.479
   88SOPE  C318 8373   1.148   5.926   4.662
   88SOPE  H18X 8374   1.235   5.988   4.692
   88SOPE  H18Y 8375   1.173   5.822   4.691
   88SOPE  H18Z 8376   1.050   5.946   4.711
   89SAPC     N 8377   5.136   2.916   6.888
   89SAPC   C12 8378   5.087   2.937   6.748
   89SAPC  H12A 8379   4.986   2.899   6.735
   89SAPC  H12B 8380   5.149   2.878   6.682
   89SAPC   C13 8381   5.138   2.767   6.912
   89SAPC  H13A 8382   5.044   2.717   6.897
   89SAPC  H13B 8383   5.206   2.716   6.845
   89SAPC  H13C 8384   5.164   2.741   7.014
   89SAPC   C14 8385   5.278   2.967   6.904
   89SAPC  H14A 8386   5.322   2.930   6.996
   89SAPC  H14B 8387   5.340   2.933   6.823
   89SAPC  H14C 8388   5.273   3.075   6.906
   89SAPC   C15 8389   5.047   2.975   6.994
   89SAPC  H15A 8390   4.955   2.918   7.001
   89SAPC  H15B 8391   5.095   2.996   7.088
   89SAPC  H15C 8392   5.016   3.070   6.952
   89SAPC   C11 8393   5.070   3.079   6.705
   89SAPC  H11A 8394   5.073   3.096   6.595
   89SAPC  H11B 8395   5.154   3.145   6.734
   89SAPC     P 8396   4.807   3.132   6.698
   89SAPC   O13 8397   4.750   2.996   6.712
   89SAPC   O14 8398   4.725   3.236   6.750
   89SAPC   O12 8399   4.953   3.131   6.769
   89SAPC   O11 8400   4.848   3.158   6.545
   89SAPC    C1 8401   4.874   3.288   6.500
   89SAPC    HA 8402   4.810   3.361   6.554
   89SAPC    HB 8403   4.980   3.316   6.518
   89SAPC    C2 8404   4.856   3.306   6.344
   89SAPC    HS 8405   4.745   3.297   6.339
   89SAPC   O21 8406   4.927   3.210   6.265
   89SAPC   C21 8407   4.870   3.175   6.156
   89SAPC   O22 8408   4.757   3.214   6.124
   89SAPC   C22 8409   4.968   3.096   6.068
   89SAPC   H2R 8410   5.010   3.168   5.994
   89SAPC   H2S 8411   5.051   3.061   6.133
   89SAPC    C3 8412   4.912   3.444   6.317
   89SAPC    HX 8413   5.022   3.442   6.330
   89SAPC    HY 8414   4.875   3.521   6.388
   89SAPC   O31 8415   4.890   3.485   6.184
   89SAPC   C31 8416   4.765   3.523   6.151
   89SAPC   O32 8417   4.672   3.526   6.230
   89SAPC   C32 8418   4.762   3.587   6.009
   89SAPC   H2X 8419   4.848   3.657   6.000
   89SAPC   H2Y 8420   4.672   3.652   6.009
   89SAPC   C23 8421   4.899   2.976   5.990
   89SAPC   H3R 8422   4.837   3.016   5.907
   89SAPC   H3S 8423   4.839   2.912   6.058
   89SAPC   C24 8424   5.007   2.883   5.920
   89SAPC   H4R 8425   4.962   2.795   5.871
   89SAPC   H4S 8426   5.064   2.844   6.007
   89SAPC   C25 8427   5.079   2.970   5.821
   89SAPC   H5R 8428   5.130   3.060   5.858
   89SAPC   C26 8429   5.075   2.950   5.690
   89SAPC   H6R 8430   5.130   3.014   5.620
   89SAPC   C27 8431   4.996   2.847   5.614
   89SAPC   H7R 8432   4.909   2.899   5.569
   89SAPC   H7S 8433   4.967   2.763   5.680
   89SAPC   C28 8434   5.070   2.792   5.490
   89SAPC   H8R 8435   5.132   2.706   5.519
   89SAPC   C29 8436   5.067   2.825   5.359
   89SAPC   H9R 8437   5.133   2.767   5.294
   89SAPC  C210 8438   4.986   2.933   5.298
   89SAPC  H10R 8439   4.961   3.010   5.373
   89SAPC  H10S 8440   4.896   2.878   5.261
   89SAPC  C211 8441   5.058   2.992   5.176
   89SAPC  H11R 8442   5.168   2.992   5.188
   89SAPC  C212 8443   5.018   3.044   5.060
   89SAPC  H12R 8444   5.097   3.067   4.986
   89SAPC  C213 8445   4.872   3.062   5.013
   89SAPC  H13R 8446   4.797   3.005   5.071
   89SAPC  H13S 8447   4.861   3.029   4.907
   89SAPC  C214 8448   4.850   3.206   5.016
   89SAPC  H14R 8449   4.901   3.267   5.092
   89SAPC  C215 8450   4.789   3.272   4.915
   89SAPC  H15R 8451   4.775   3.381   4.924
   89SAPC  C216 8452   4.738   3.220   4.784
   89SAPC  H16R 8453   4.670   3.132   4.782
   89SAPC  H16S 8454   4.817   3.185   4.713
   89SAPC  C217 8455   4.674   3.343   4.710
   89SAPC  H17R 8456   4.754   3.410   4.673
   89SAPC  H17S 8457   4.605   3.402   4.774
   89SAPC  C218 8458   4.594   3.299   4.587
   89SAPC  H18R 8459   4.503   3.245   4.619
   89SAPC  H18S 8460   4.650   3.217   4.536
   89SAPC  C219 8461   4.560   3.423   4.500
   89SAPC  H19R 8462   4.641   3.498   4.492
   89SAPC  H19S 8463   4.473   3.472   4.549
   89SAPC  C220 8464   4.519   3.373   4.356
   89SAPC  H20R 8465   4.477   3.456   4.295
   89SAPC  H20S 8466   4.441   3.294   4.357
   89SAPC  H20T 8467   4.610   3.332   4.308
   89SAPC   C33 8468   4.744   3.496   5.886
   89SAPC   H3X 8469   4.818   3.412   5.886
   89SAPC   H3Y 8470   4.758   3.560   5.796
   89SAPC   C34 8471   4.603   3.441   5.868
   89SAPC   H4X 8472   4.540   3.528   5.896
   89SAPC   H4Y 8473   4.594   3.357   5.941
   89SAPC   C35 8474   4.571   3.386   5.728
   89SAPC   H5X 8475   4.587   3.465   5.651
   89SAPC   H5Y 8476   4.461   3.367   5.726
   89SAPC   C36 8477   4.644   3.258   5.702
   89SAPC   H6X 8478   4.623   3.198   5.793
   89SAPC   H6Y 8479   4.751   3.267   5.674
   89SAPC   C37 8480   4.587   3.169   5.594
   89SAPC   H7X 8481   4.479   3.143   5.604
   89SAPC   H7Y 8482   4.638   3.070   5.589
   89SAPC   C38 8483   4.596   3.240   5.457
   89SAPC   H8X 8484   4.700   3.276   5.451
   89SAPC   H8Y 8485   4.521   3.323   5.451
   89SAPC   C39 8486   4.574   3.145   5.339
   89SAPC   H9X 8487   4.478   3.089   5.353
   89SAPC   H9Y 8488   4.655   3.069   5.342
   89SAPC  C310 8489   4.584   3.224   5.206
   89SAPC  H10X 8490   4.618   3.163   5.119
   89SAPC  H10Y 8491   4.671   3.293   5.214
   89SAPC  C311 8492   4.450   3.295   5.161
   89SAPC  H11X 8493   4.429   3.394   5.205
   89SAPC  H11Y 8494   4.366   3.229   5.192
   89SAPC  C312 8495   4.442   3.296   5.006
   89SAPC  H12X 8496   4.464   3.197   4.961
   89SAPC  H12Y 8497   4.519   3.367   4.969
   89SAPC  C313 8498   4.302   3.317   4.957
   89SAPC  H13X 8499   4.262   3.417   4.986
   89SAPC  H13Y 8500   4.228   3.253   5.009
   89SAPC  C314 8501   4.280   3.301   4.806
   89SAPC  H14X 8502   4.312   3.197   4.783
   89SAPC  H14Y 8503   4.346   3.368   4.747
   89SAPC  C315 8504   4.135   3.320   4.761
   89SAPC  H15X 8505   4.101   3.419   4.796
   89SAPC  H15Y 8506   4.071   3.244   4.811
   89SAPC  C316 8507   4.121   3.297   4.608
   89SAPC  H16X 8508   4.187   3.210   4.589
   89SAPC  H16Y 8509   4.154   3.395   4.568
   89SAPC  C317 8510   3.982   3.270   4.553
   89SAPC  H17X 8511   3.913   3.348   4.592
   89SAPC  H17Y 8512   3.957   3.174   4.603
   89SAPC  C318 8513   3.972   3.245   4.401
   89SAPC  H18X 8514   3.876   3.193   4.376
   89SAPC  H18Y 8515   4.053   3.179   4.362
   89SAPC  H18Z 8516   3.975   3.338   4.341
   90SAPC     N 8517   2.558   6.609   6.691
   90SAPC   C12 8518   2.605   6.482   6.627
   90SAPC  H12A 8519   2.527   6.457   6.556
   90SAPC  H12B 8520   2.618   6.413   6.709
   90SAPC   C13 8521   2.650   6.657   6.791
   90SAPC  H13A 8522   2.642   6.760   6.822
   90SAPC  H13B 8523   2.649   6.601   6.883
   90SAPC  H13C 8524   2.748   6.631   6.754
   90SAPC   C14 8525   2.548   6.718   6.585
   90SAPC  H14A 8526   2.464   6.704   6.519
   90SAPC  H14B 8527   2.535   6.811   6.639
   90SAPC  H14C 8528   2.632   6.728   6.517
   90SAPC   C15 8529   2.419   6.605   6.749
   90SAPC  H15A 8530   2.411   6.537   6.833
   90SAPC  H15B 8531   2.376   6.692   6.795
   90SAPC  H15C 8532   2.351   6.570   6.673
   90SAPC   C11 8533   2.743   6.491   6.552
   90SAPC  H11A 8534   2.745   6.590   6.500
   90SAPC  H11B 8535   2.736   6.417   6.470
   90SAPC     P 8536   2.898   6.351   6.718
   90SAPC   O13 8537   3.040   6.351   6.757
   90SAPC   O14 8538   2.794   6.335   6.824
   90SAPC   O12 8539   2.865   6.479   6.633
   90SAPC   O11 8540   2.880   6.228   6.615
   90SAPC    C1 8541   2.981   6.190   6.520
   90SAPC    HA 8542   3.080   6.183   6.570
   90SAPC    HB 8543   2.953   6.092   6.476
   90SAPC    C2 8544   2.998   6.286   6.406
   90SAPC    HS 8545   3.015   6.374   6.472
   90SAPC   O21 8546   2.873   6.288   6.331
   90SAPC   C21 8547   2.860   6.372   6.234
   90SAPC   O22 8548   2.940   6.461   6.204
   90SAPC   C22 8549   2.731   6.341   6.160
   90SAPC   H2R 8550   2.645   6.369   6.225
   90SAPC   H2S 8551   2.716   6.408   6.073
   90SAPC    C3 8552   3.123   6.253   6.324
   90SAPC    HX 8553   3.202   6.271   6.400
   90SAPC    HY 8554   3.138   6.332   6.247
   90SAPC   O31 8555   3.132   6.114   6.289
   90SAPC   C31 8556   3.234   6.093   6.207
   90SAPC   O32 8557   3.317   6.175   6.177
   90SAPC   C32 8558   3.231   5.952   6.148
   90SAPC   H2X 8559   3.134   5.903   6.172
   90SAPC   H2Y 8560   3.320   5.910   6.199
   90SAPC   C23 8561   2.735   6.197   6.109
   90SAPC   H3R 8562   2.634   6.172   6.069
   90SAPC   H3S 8563   2.743   6.133   6.200
   90SAPC   C24 8564   2.842   6.157   6.006
   90SAPC   H4R 8565   2.814   6.052   5.984
   90SAPC   H4S 8566   2.944   6.170   6.049
   90SAPC   C25 8567   2.837   6.237   5.879
   90SAPC   H5R 8568   2.757   6.312   5.888
   90SAPC   C26 8569   2.915   6.211   5.771
   90SAPC   H6R 8570   2.888   6.257   5.675
   90SAPC   C27 8571   3.019   6.107   5.758
   90SAPC   H7R 8572   3.084   6.112   5.848
   90SAPC   H7S 8573   3.081   6.122   5.667
   90SAPC   C28 8574   2.965   5.965   5.755
   90SAPC   H8R 8575   2.922   5.940   5.853
   90SAPC   C29 8576   2.968   5.877   5.652
   90SAPC   H9R 8577   2.932   5.774   5.659
   90SAPC  C210 8578   3.010   5.919   5.516
   90SAPC  H10R 8579   2.989   6.026   5.495
   90SAPC  H10S 8580   2.966   5.857   5.435
   90SAPC  C211 8581   3.164   5.907   5.497
   90SAPC  H11R 8582   3.223   5.990   5.539
   90SAPC  C212 8583   3.236   5.808   5.451
   90SAPC  H12R 8584   3.346   5.810   5.448
   90SAPC  C213 8585   3.178   5.675   5.403
   90SAPC  H13R 8586   3.094   5.637   5.466
   90SAPC  H13S 8587   3.253   5.593   5.402
   90SAPC  C214 8588   3.122   5.685   5.260
   90SAPC  H14R 8589   3.013   5.697   5.256
   90SAPC  C215 8590   3.188   5.655   5.146
   90SAPC  H15R 8591   3.142   5.686   5.051
   90SAPC  C216 8592   3.331   5.616   5.146
   90SAPC  H16R 8593   3.381   5.633   5.244
   90SAPC  H16S 8594   3.400   5.687   5.095
   90SAPC  C217 8595   3.352   5.470   5.100
   90SAPC  H17R 8596   3.288   5.404   5.163
   90SAPC  H17S 8597   3.460   5.448   5.110
   90SAPC  C218 8598   3.310   5.433   4.956
   90SAPC  H18R 8599   3.208   5.471   4.936
   90SAPC  H18S 8600   3.286   5.328   4.929
   90SAPC  C219 8601   3.407   5.484   4.852
   90SAPC  H19R 8602   3.507   5.438   4.868
   90SAPC  H19S 8603   3.422   5.593   4.861
   90SAPC  C220 8604   3.374   5.454   4.707
   90SAPC  H20R 8605   3.284   5.516   4.684
   90SAPC  H20S 8606   3.340   5.349   4.693
   90SAPC  H20T 8607   3.462   5.484   4.647
   90SAPC   C33 8608   3.271   5.939   6.001
   90SAPC   H3X 8609   3.361   6.002   5.987
   90SAPC   H3Y 8610   3.184   5.956   5.933
   90SAPC   C34 8611   3.305   5.787   5.965
   90SAPC   H4X 8612   3.216   5.722   5.977
   90SAPC   H4Y 8613   3.391   5.763   6.031
   90SAPC   C35 8614   3.333   5.779   5.816
   90SAPC   H5X 8615   3.412   5.856   5.808
   90SAPC   H5Y 8616   3.239   5.811   5.767
   90SAPC   C36 8617   3.378   5.642   5.765
   90SAPC   H6X 8618   3.471   5.618   5.820
   90SAPC   H6Y 8619   3.384   5.644   5.654
   90SAPC   C37 8620   3.287   5.526   5.806
   90SAPC   H7X 8621   3.282   5.508   5.915
   90SAPC   H7Y 8622   3.336   5.436   5.764
   90SAPC   C38 8623   3.147   5.532   5.752
   90SAPC   H8X 8624   3.145   5.530   5.641
   90SAPC   H8Y 8625   3.095   5.622   5.791
   90SAPC   C39 8626   3.086   5.399   5.806
   90SAPC   H9X 8627   3.102   5.412   5.915
   90SAPC   H9Y 8628   3.153   5.319   5.767
   90SAPC  C310 8629   2.947   5.358   5.753
   90SAPC  H10X 8630   2.914   5.259   5.792
   90SAPC  H10Y 8631   2.948   5.343   5.642
   90SAPC  C311 8632   2.842   5.462   5.779
   90SAPC  H11X 8633   2.871   5.563   5.743
   90SAPC  H11Y 8634   2.832   5.478   5.888
   90SAPC  C312 8635   2.705   5.425   5.714
   90SAPC  H12X 8636   2.633   5.498   5.758
   90SAPC  H12Y 8637   2.664   5.327   5.747
   90SAPC  C313 8638   2.695   5.442   5.561
   90SAPC  H13X 8639   2.602   5.397   5.519
   90SAPC  H13Y 8640   2.788   5.406   5.511
   90SAPC  C314 8641   2.695   5.593   5.514
   90SAPC  H14X 8642   2.793   5.645   5.516
   90SAPC  H14Y 8643   2.623   5.632   5.589
   90SAPC  C315 8644   2.653   5.614   5.367
   90SAPC  H15X 8645   2.554   5.568   5.347
   90SAPC  H15Y 8646   2.723   5.553   5.306
   90SAPC  C316 8647   2.653   5.764   5.333
   90SAPC  H16X 8648   2.749   5.817   5.353
   90SAPC  H16Y 8649   2.583   5.817   5.401
   90SAPC  C317 8650   2.628   5.810   5.187
   90SAPC  H17X 8651   2.680   5.739   5.119
   90SAPC  H17Y 8652   2.668   5.910   5.158
   90SAPC  C318 8653   2.479   5.844   5.162
   90SAPC  H18X 8654   2.408   5.779   5.219
   90SAPC  H18Y 8655   2.456   5.836   5.053
   90SAPC  H18Z 8656   2.446   5.946   5.190
   91SAPC     N 8657   0.171   6.215   6.662
   91SAPC   C12 8658   0.219   6.085   6.701
   91SAPC  H12A 8659   0.225   6.068   6.808
   91SAPC  H12B 8660   0.324   6.091   6.678
   91SAPC   C13 8661   0.221   6.259   6.524
   91SAPC  H13A 8662   0.181   6.198   6.444
   91SAPC  H13B 8663   0.190   6.360   6.499
   91SAPC  H13C 8664   0.326   6.245   6.506
   91SAPC   C14 8665   0.021   6.211   6.669
   91SAPC  H14A 8666   6.827   6.307   6.634
   91SAPC  H14B 8667   6.821   6.145   6.595
   91SAPC  H14C 8668   6.823   6.187   6.766
   91SAPC   C15 8669   0.228   6.322   6.752
   91SAPC  H15A 8670   0.335   6.306   6.756
   91SAPC  H15B 8671   0.221   6.424   6.717
   91SAPC  H15C 8672   0.195   6.326   6.854
   91SAPC   C11 8673   0.158   5.968   6.618
   91SAPC  H11A 8674   0.048   5.979   6.620
   91SAPC  H11B 8675   0.174   5.870   6.670
   91SAPC     P 8676   0.349   5.892   6.474
   91SAPC   O13 8677   0.443   5.979   6.555
   91SAPC   O14 8678   0.338   5.746   6.502
   91SAPC   O12 8679   0.208   5.960   6.490
   91SAPC   O11 8680   0.387   5.904   6.326
   91SAPC    C1 8681   0.378   6.037   6.266
   91SAPC    HA 8682   0.272   6.068   6.283
   91SAPC    HB 8683   0.459   6.095   6.315
   91SAPC    C2 8684   0.392   6.034   6.114
   91SAPC    HS 8685   0.493   5.994   6.094
   91SAPC   O21 8686   0.377   6.172   6.054
   91SAPC   C21 8687   0.493   6.246   6.079
   91SAPC   O22 8688   0.588   6.213   6.147
   91SAPC   C22 8689   0.486   6.363   5.991
   91SAPC   H2R 8690   0.435   6.339   5.896
   91SAPC   H2S 8691   0.437   6.451   6.039
   91SAPC    C3 8692   0.295   5.931   6.051
   91SAPC    HX 8693   0.200   5.947   6.106
   91SAPC    HY 8694   0.343   5.832   6.062
   91SAPC   O31 8695   0.280   5.963   5.908
   91SAPC   C31 8696   0.158   5.922   5.859
   91SAPC   O32 8697   0.074   5.861   5.928
   91SAPC   C32 8698   0.151   5.945   5.705
   91SAPC   H2X 8699   0.232   5.875   5.675
   91SAPC   H2Y 8700   0.182   6.051   5.694
   91SAPC   C23 8701   0.634   6.414   5.951
   91SAPC   H3R 8702   0.712   6.408   6.031
   91SAPC   H3S 8703   0.613   6.519   5.921
   91SAPC   C24 8704   0.683   6.328   5.832
   91SAPC   H4R 8705   0.622   6.329   5.740
   91SAPC   H4S 8706   0.664   6.221   5.858
   91SAPC   C25 8707   0.832   6.344   5.801
   91SAPC   H5R 8708   0.901   6.298   5.874
   91SAPC   C26 8709   0.885   6.391   5.695
   91SAPC   H6R 8710   0.993   6.386   5.679
   91SAPC   C27 8711   0.811   6.457   5.577
   91SAPC   H7R 8712   0.738   6.523   5.627
   91SAPC   H7S 8713   0.752   6.378   5.526
   91SAPC   C28 8714   0.905   6.515   5.471
   91SAPC   H8R 8715   1.002   6.464   5.462
   91SAPC   C29 8716   0.887   6.632   5.401
   91SAPC   H9R 8717   0.966   6.657   5.328
   91SAPC  C210 8718   0.758   6.720   5.397
   91SAPC  H10R 8719   0.760   6.795   5.478
   91SAPC  H10S 8720   0.668   6.656   5.406
   91SAPC  C211 8721   0.748   6.809   5.276
   91SAPC  H11R 8722   0.776   0.071   5.292
   91SAPC  C212 8723   0.700   6.771   5.156
   91SAPC  H12R 8724   0.732   6.839   5.076
   91SAPC  C213 8725   0.661   6.635   5.105
   91SAPC  H13R 8726   0.550   6.635   5.118
   91SAPC  H13S 8727   0.706   6.554   5.166
   91SAPC  C214 8728   0.672   6.609   4.958
   91SAPC  H14R 8729   0.724   6.685   4.900
   91SAPC  C215 8730   0.632   6.490   4.902
   91SAPC  H15R 8731   0.648   6.468   4.795
   91SAPC  C216 8732   0.573   6.368   4.966
   91SAPC  H16R 8733   0.552   6.394   5.072
   91SAPC  H16S 8734   0.641   6.280   4.959
   91SAPC  C217 8735   0.436   6.324   4.908
   91SAPC  H17R 8736   0.439   6.291   4.802
   91SAPC  H17S 8737   0.372   6.415   4.897
   91SAPC  C218 8738   0.372   6.217   5.000
   91SAPC  H18R 8739   0.268   6.192   4.970
   91SAPC  H18S 8740   0.365   6.268   5.099
   91SAPC  C219 8741   0.447   6.087   5.004
   91SAPC  H19R 8742   0.390   6.007   5.055
   91SAPC  H19S 8743   0.538   6.116   5.060
   91SAPC  C220 8744   0.490   6.017   4.877
   91SAPC  H20R 8745   0.557   6.076   4.813
   91SAPC  H20S 8746   0.404   5.971   4.822
   91SAPC  H20T 8747   0.567   5.946   4.915
   91SAPC   C33 8748   0.016   5.899   5.643
   91SAPC   H3X 8749   6.793   5.988   5.644
   91SAPC   H3Y 8750   6.802   5.817   5.691
   91SAPC   C34 8751   0.023   5.854   5.494
   91SAPC   H4X 8752   6.764   5.818   5.469
   91SAPC   H4Y 8753   0.090   5.767   5.481
   91SAPC   C35 8754   0.071   5.967   5.403
   91SAPC   H5X 8755   0.176   5.956   5.367
   91SAPC   H5Y 8756   0.065   6.066   5.453
   91SAPC   C36 8757   6.819   5.986   5.286
   91SAPC   H6X 8758   0.009   6.083   5.243
   91SAPC   H6Y 8759   6.717   5.998   5.328
   91SAPC   C37 8760   6.820   5.879   5.189
   91SAPC   H7X 8761   6.729   5.894   5.127
   91SAPC   H7Y 8762   6.814   5.775   5.229
   91SAPC   C38 8763   0.083   5.909   5.081
   91SAPC   H8X 8764   0.178   5.917   5.139
   91SAPC   H8Y 8765   0.065   6.005   5.028
   91SAPC   C39 8766   0.102   5.795   4.979
   91SAPC   H9X 8767   0.034   5.708   4.993
   91SAPC   H9Y 8768   0.208   5.764   4.967
   91SAPC  C310 8769   0.066   5.844   4.841
   91SAPC  H10X 8770   0.119   5.940   4.822
   91SAPC  H10Y 8771   6.802   5.874   4.833
   91SAPC  C311 8772   0.105   5.740   4.727
   91SAPC  H11X 8773   0.026   5.663   4.716
   91SAPC  H11Y 8774   0.211   5.714   4.750
   91SAPC  C312 8775   0.096   5.811   4.585
   91SAPC  H12X 8776   0.132   5.916   4.593
   91SAPC  H12Y 8777   6.830   5.826   4.565
   91SAPC  C313 8778   0.185   5.747   4.474
   91SAPC  H13X 8779   0.242   5.661   4.517
   91SAPC  H13Y 8780   0.253   5.827   4.438
   91SAPC  C314 8781   0.095   5.692   4.367
   91SAPC  H14X 8782   0.059   5.790   4.330
   91SAPC  H14Y 8783   0.000   5.639   4.391
   91SAPC  C315 8784   0.185   5.609   4.275
   91SAPC  H15X 8785   0.195   5.507   4.318
   91SAPC  H15Y 8786   0.285   5.656   4.269
   91SAPC  C316 8787   0.126   5.589   4.135
   91SAPC  H16X 8788   0.100   5.688   4.092
   91SAPC  H16Y 8789   0.030   5.534   4.140
   91SAPC  C317 8790   0.235   5.517   4.055
   91SAPC  H17X 8791   0.330   5.569   4.076
   91SAPC  H17Y 8792   0.216   5.535   3.947
   91SAPC  C318 8793   0.242   5.367   4.090
   91SAPC  H18X 8794   0.306   5.309   4.020
   91SAPC  H18Y 8795   0.139   5.329   4.073
   91SAPC  H18Z 8796   0.276   5.339   4.192
   92SAPC     N 8797   6.132   4.949   6.477
   92SAPC   C12 8798   6.139   4.987   6.327
   92SAPC  H12A 8799   6.062   4.932   6.275
   92SAPC  H12B 8800   6.233   4.951   6.288
   92SAPC   C13 8801   6.142   4.801   6.481
   92SAPC  H13A 8802   6.169   4.770   6.581
   92SAPC  H13B 8803   6.054   4.745   6.451
   92SAPC  H13C 8804   6.223   4.773   6.416
   92SAPC   C14 8805   6.251   5.013   6.556
   92SAPC  H14A 8806   6.241   4.995   6.663
   92SAPC  H14B 8807   6.334   4.957   6.514
   92SAPC  H14C 8808   6.246   5.114   6.520
   92SAPC   C15 8809   6.004   4.990   6.534
   92SAPC  H15A 8810   5.992   5.097   6.532
   92SAPC  H15B 8811   5.913   4.945   6.497
   92SAPC  H15C 8812   5.994   4.956   6.637
   92SAPC   C11 8813   6.135   5.130   6.286
   92SAPC  H11A 8814   6.033   5.165   6.314
   92SAPC  H11B 8815   6.135   5.149   6.177
   92SAPC     P 8816   6.382   5.208   6.287
   92SAPC   O13 8817   6.461   5.319   6.354
   92SAPC   O14 8818   6.434   5.069   6.313
   92SAPC   O12 8819   6.237   5.212   6.344
   92SAPC   O11 8820   6.373   5.230   6.127
   92SAPC    C1 8821   6.323   5.359   6.083
   92SAPC    HA 8822   6.219   5.347   6.047
   92SAPC    HB 8823   6.305   5.428   6.168
   92SAPC    C2 8824   6.424   5.422   5.990
   92SAPC    HS 8825   6.375   5.520   5.970
   92SAPC   O21 8826   6.441   5.345   5.871
   92SAPC   C21 8827   6.347   5.352   5.780
   92SAPC   O22 8828   6.268   5.442   5.779
   92SAPC   C22 8829   6.370   5.240   5.674
   92SAPC   H2R 8830   6.395   5.289   5.578
   92SAPC   H2S 8831   6.452   5.174   5.710
   92SAPC    C3 8832   6.563   5.446   6.057
   92SAPC    HX 8833   6.585   5.343   6.094
   92SAPC    HY 8834   6.543   5.516   6.141
   92SAPC   O31 8835   6.653   5.495   5.962
   92SAPC   C31 8836   6.776   5.458   5.982
   92SAPC   O32 8837   6.813   5.380   6.069
   92SAPC   C32 8838   0.033   5.521   5.880
   92SAPC   H2X 8839   0.136   5.515   5.921
   92SAPC   H2Y 8840   0.005   5.628   5.878
   92SAPC   C23 8841   6.238   5.169   5.641
   92SAPC   H3R 8842   6.176   5.250   5.598
   92SAPC   H3S 8843   6.206   5.138   5.743
   92SAPC   C24 8844   6.258   5.049   5.548
   92SAPC   H4R 8845   6.164   5.015   5.500
   92SAPC   H4S 8846   6.303   4.963   5.602
   92SAPC   C25 8847   6.341   5.069   5.421
   92SAPC   H5R 8848   6.445   5.034   5.426
   92SAPC   C26 8849   6.307   5.142   5.313
   92SAPC   H6R 8850   6.383   5.156   5.235
   92SAPC   C27 8851   6.172   5.212   5.290
   92SAPC   H7R 8852   6.123   5.238   5.386
   92SAPC   H7S 8853   6.103   5.146   5.232
   92SAPC   C28 8854   6.191   5.340   5.201
   92SAPC   H8R 8855   6.228   5.423   5.263
   92SAPC   C29 8856   6.156   5.365   5.068
   92SAPC   H9R 8857   6.176   5.460   5.017
   92SAPC  C210 8858   6.089   5.258   4.981
   92SAPC  H10R 8859   5.998   5.214   5.027
   92SAPC  H10S 8860   6.163   5.175   4.978
   92SAPC  C211 8861   6.069   5.290   4.838
   92SAPC  H11R 8862   6.007   5.380   4.824
   92SAPC  C212 8863   6.106   5.231   4.725
   92SAPC  H12R 8864   6.080   5.279   4.630
   92SAPC  C213 8865   6.211   5.125   4.719
   92SAPC  H13R 8866   6.187   5.048   4.644
   92SAPC  H13S 8867   6.216   5.071   4.816
   92SAPC  C214 8868   6.351   5.178   4.701
   92SAPC  H14R 8869   6.357   5.282   4.736
   92SAPC  C215 8870   6.456   5.119   4.650
   92SAPC  H15R 8871   6.546   5.181   4.639
   92SAPC  C216 8872   6.465   4.975   4.600
   92SAPC  H16R 8873   6.381   4.911   4.635
   92SAPC  H16S 8874   6.563   4.937   4.634
   92SAPC  C217 8875   6.479   4.961   4.446
   92SAPC  H17R 8876   6.506   4.854   4.432
   92SAPC  H17S 8877   6.559   5.034   4.423
   92SAPC  C218 8878   6.347   4.995   4.377
   92SAPC  H18R 8879   6.309   5.092   4.418
   92SAPC  H18S 8880   6.286   4.908   4.408
   92SAPC  C219 8881   6.370   4.975   4.226
   92SAPC  H19R 8882   6.433   4.884   4.212
   92SAPC  H19S 8883   6.442   5.052   4.190
   92SAPC  C220 8884   6.247   4.975   4.145
   92SAPC  H20R 8885   6.160   4.924   4.190
   92SAPC  H20S 8886   6.267   4.928   4.047
   92SAPC  H20T 8887   6.216   5.082   4.138
   92SAPC   C33 8888   0.023   5.468   5.736
   92SAPC   H3X 8889   6.762   5.489   5.701
   92SAPC   H3Y 8890   0.046   5.360   5.724
   92SAPC   C34 8891   0.126   5.535   5.650
   92SAPC   H4X 8892   0.225   5.523   5.699
   92SAPC   H4Y 8893   0.093   5.641   5.638
   92SAPC   C35 8894   0.148   5.474   5.515
   92SAPC   H5X 8895   0.067   5.511   5.448
   92SAPC   H5Y 8896   0.150   5.363   5.514
   92SAPC   C36 8897   0.276   5.518   5.447
   92SAPC   H6X 8898   0.367   5.493   5.504
   92SAPC   H6Y 8899   0.268   5.628   5.434
   92SAPC   C37 8900   0.296   5.452   5.304
   92SAPC   H7X 8901   0.313   5.342   5.307
   92SAPC   H7Y 8902   0.394   5.491   5.270
   92SAPC   C38 8903   0.183   5.476   5.205
   92SAPC   H8X 8904   0.167   5.583   5.177
   92SAPC   H8Y 8905   0.089   5.427   5.236
   92SAPC   C39 8906   0.231   5.402   5.078
   92SAPC   H9X 8907   0.255   5.296   5.097
   92SAPC   H9Y 8908   0.332   5.443   5.054
   92SAPC  C310 8909   0.132   5.418   4.965
   92SAPC  H10X 8910   0.111   5.525   4.945
   92SAPC  H10Y 8911   0.043   5.357   4.990
   92SAPC  C311 8912   0.175   5.355   4.839
   92SAPC  H11X 8913   0.217   5.258   4.872
   92SAPC  H11Y 8914   0.259   5.415   4.797
   92SAPC  C312 8915   0.055   5.337   4.746
   92SAPC  H12X 8916   6.838   5.430   4.731
   92SAPC  H12Y 8917   6.827   5.273   4.802
   92SAPC  C313 8918   0.090   5.281   4.609
   92SAPC  H13X 8919   0.116   5.364   4.539
   92SAPC  H13Y 8920   6.843   5.226   4.576
   92SAPC  C314 8921   0.199   5.166   4.598
   92SAPC  H14X 8922   0.180   5.073   4.657
   92SAPC  H14Y 8923   0.293   5.214   4.633
   92SAPC  C315 8924   0.238   5.124   4.454
   92SAPC  H15X 8925   0.293   5.211   4.413
   92SAPC  H15Y 8926   0.148   5.097   4.395
   92SAPC  C316 8927   0.343   5.009   4.461
   92SAPC  H16X 8928   0.303   4.925   4.522
   92SAPC  H16Y 8929   0.433   5.040   4.517
   92SAPC  C317 8930   0.372   4.959   4.320
   92SAPC  H17X 8931   0.413   5.039   4.256
   92SAPC  H17Y 8932   0.276   4.933   4.270
   92SAPC  C318 8933   0.472   4.848   4.315
   92SAPC  H18X 8934   0.551   4.854   4.393
   92SAPC  H18Y 8935   0.512   4.847   4.211
   92SAPC  H18Z 8936   0.421   4.757   4.353
   93SAPC     N 8937   1.040   5.790   6.808
   93SAPC   C12 8938   1.014   5.939   6.794
   93SAPC  H12A 8939   1.044   5.985   6.887
   93SAPC  H12B 8940   0.912   5.973   6.803
   93SAPC   C13 8941   0.999   5.707   6.695
   93SAPC  H13A 8942   1.048   5.729   6.602
   93SAPC  H13B 8943   1.025   5.604   6.717
   93SAPC  H13C 8944   0.892   5.719   6.688
   93SAPC   C14 8945   1.185   5.770   6.833
   93SAPC  H14A 8946   1.226   5.834   6.910
   93SAPC  H14B 8947   1.196   5.666   6.856
   93SAPC  H14C 8948   1.251   5.790   6.750
   93SAPC   C15 8949   0.969   5.746   6.927
   93SAPC  H15A 8950   0.862   5.751   6.912
   93SAPC  H15B 8951   0.990   5.643   6.949
   93SAPC  H15C 8952   0.986   5.806   7.015
   93SAPC   C11 8953   1.073   6.008   6.675
   93SAPC  H11A 8954   1.030   5.959   6.586
   93SAPC  H11B 8955   1.182   5.990   6.661
   93SAPC     P 8956   0.952   6.247   6.610
   93SAPC   O13 8957   0.824   6.165   6.612
   93SAPC   O14 8958   0.936   6.376   6.675
   93SAPC   O12 8959   1.067   6.156   6.680
   93SAPC   O11 8960   1.012   6.263   6.466
   93SAPC    C1 8961   0.967   6.180   6.363
   93SAPC    HA 8962   0.983   6.073   6.386
   93SAPC    HB 8963   0.863   6.203   6.332
   93SAPC    C2 8964   1.040   6.216   6.227
   93SAPC    HS 8965   1.151   6.208   6.238
   93SAPC   O21 8966   0.995   6.348   6.200
   93SAPC   C21 8967   1.076   6.453   6.193
   93SAPC   O22 8968   1.201   6.449   6.204
   93SAPC   C22 8969   0.990   6.576   6.149
   93SAPC   H2R 8970   0.906   6.537   6.088
   93SAPC   H2S 8971   0.945   6.610   6.245
   93SAPC    C3 8972   1.009   6.120   6.113
   93SAPC    HX 8973   0.900   6.097   6.110
   93SAPC    HY 8974   1.060   6.026   6.142
   93SAPC   O31 8975   1.062   6.169   5.985
   93SAPC   C31 8976   1.195   6.154   5.955
   93SAPC   O32 8977   1.265   6.085   6.027
   93SAPC   C32 8978   1.242   6.223   5.831
   93SAPC   H2X 8979   1.164   6.207   5.754
   93SAPC   H2Y 8980   1.328   6.161   5.796
   93SAPC   C23 8981   1.074   6.685   6.080
   93SAPC   H3R 8982   1.123   6.645   5.988
   93SAPC   H3S 8983   1.153   6.723   6.147
   93SAPC   C24 8984   0.991   6.808   6.038
   93SAPC   H4R 8985   1.065   0.043   6.008
   93SAPC   H4S 8986   0.931   0.012   6.119
   93SAPC   C25 8987   0.905   6.772   5.925
   93SAPC   H5R 8988   0.822   6.709   5.961
   93SAPC   C26 8989   0.911   6.812   5.796
   93SAPC   H6R 8990   0.841   6.769   5.722
   93SAPC   C27 8991   0.993   0.083   5.732
   93SAPC   H7R 8992   1.003   0.170   5.799
   93SAPC   H7S 8993   0.931   0.120   5.647
   93SAPC   C28 8994   1.127   0.036   5.680
   93SAPC   H8R 8995   1.144   6.770   5.679
   93SAPC   C29 8996   1.212   0.113   5.611
   93SAPC   H9R 8997   1.298   0.065   5.561
   93SAPC  C210 8998   1.210   0.260   5.579
   93SAPC  H10R 8999   1.310   0.304   5.561
   93SAPC  H10S 9000   1.186   0.314   5.672
   93SAPC  C211 9001   1.122   0.293   5.462
   93SAPC  H11R 9002   1.018   0.308   5.494
   93SAPC  C212 9003   1.165   0.319   5.334
   93SAPC  H12R 9004   1.098   0.346   5.251
   93SAPC  C213 9005   1.307   0.302   5.287
   93SAPC  H13R 9006   1.351   0.208   5.326
   93SAPC  H13S 9007   1.366   0.388   5.328
   93SAPC  C214 9008   1.304   0.305   5.136
   93SAPC  H14R 9009   1.279   0.204   5.100
   93SAPC  C215 9010   1.313   0.407   5.041
   93SAPC  H15R 9011   1.300   0.400   4.932
   93SAPC  C216 9012   1.319   0.548   5.087
   93SAPC  H16R 9013   1.399   0.594   5.025
   93SAPC  H16S 9014   1.354   0.559   5.192
   93SAPC  C217 9015   1.180   0.615   5.077
   93SAPC  H17R 9016   1.184   0.722   5.108
   93SAPC  H17S 9017   1.112   0.563   5.148
   93SAPC  C218 9018   1.118   0.615   4.941
   93SAPC  H18R 9019   1.064   0.520   4.918
   93SAPC  H18S 9020   1.198   0.617   4.864
   93SAPC  C219 9021   1.012   0.727   4.912
   93SAPC  H19R 9022   1.057   0.826   4.887
   93SAPC  H19S 9023   0.940   0.736   4.996
   93SAPC  C220 9024   0.925   0.696   4.785
   93SAPC  H20R 9025   0.858   0.779   4.755
   93SAPC  H20S 9026   0.866   0.604   4.804
   93SAPC  H20T 9027   0.987   0.668   4.697
   93SAPC   C33 9028   1.288   6.369   5.852
   93SAPC   H3X 9029   1.345   6.370   5.948
   93SAPC   H3Y 9030   1.204   6.441   5.849
   93SAPC   C34 9031   1.389   6.413   5.740
   93SAPC   H4X 9032   1.486   6.360   5.739
   93SAPC   H4Y 9033   1.428   6.512   5.772
   93SAPC   C35 9034   1.328   6.414   5.598
   93SAPC   H5X 9035   1.221   6.446   5.607
   93SAPC   H5Y 9036   1.316   6.316   5.548
   93SAPC   C36 9037   1.392   6.513   5.503
   93SAPC   H6X 9038   1.501   6.497   5.519
   93SAPC   H6Y 9039   1.379   6.619   5.531
   93SAPC   C37 9040   1.356   6.514   5.352
   93SAPC   H7X 9041   1.252   6.554   5.351
   93SAPC   H7Y 9042   1.353   6.414   5.303
   93SAPC   C38 9043   1.440   6.609   5.268
   93SAPC   H8X 9044   1.547   6.581   5.267
   93SAPC   H8Y 9045   1.438   6.706   5.322
   93SAPC   C39 9046   1.390   6.615   5.118
   93SAPC   H9X 9047   1.403   6.522   5.059
   93SAPC   H9Y 9048   1.457   6.690   5.070
   93SAPC  C310 9049   1.244   6.668   5.115
   93SAPC  H10X 9050   1.228   6.753   5.185
   93SAPC  H10Y 9051   1.193   6.581   5.162
   93SAPC  C311 9052   1.182   6.678   4.980
   93SAPC  H11X 9053   1.189   6.576   4.936
   93SAPC  H11Y 9054   1.237   6.758   4.926
   93SAPC  C312 9055   1.034   6.719   4.971
   93SAPC  H12X 9056   1.026   6.778   5.065
   93SAPC  H12Y 9057   0.969   6.629   4.981
   93SAPC  C313 9058   0.988   6.799   4.849
   93SAPC  H13X 9059   0.879   6.815   4.866
   93SAPC  H13Y 9060   0.986   6.749   4.749
   93SAPC  C314 9061   1.057   0.087   4.822
   93SAPC  H14X 9062   1.162   0.060   4.797
   93SAPC  H14Y 9063   1.050   0.154   4.911
   93SAPC  C315 9064   1.002   0.173   4.707
   93SAPC  H15X 9065   1.053   0.271   4.696
   93SAPC  H15Y 9066   0.896   0.200   4.726
   93SAPC  C316 9067   1.009   0.113   4.567
   93SAPC  H16X 9068   0.930   0.036   4.564
   93SAPC  H16Y 9069   1.106   0.059   4.556
   93SAPC  C317 9070   0.998   0.226   4.459
   93SAPC  H17X 9071   1.086   0.292   4.472
   93SAPC  H17Y 9072   0.907   0.290   4.467
   93SAPC  C318 9073   1.006   0.163   4.316
   93SAPC  H18X 9074   1.047   0.231   4.239
   93SAPC  H18Y 9075   0.909   0.117   4.285
   93SAPC  H18Z 9076   1.075   0.076   4.316
   94SAPC     N 9077   0.001   5.509   6.456
   94SAPC   C12 9078   0.043   5.405   6.558
   94SAPC  H12A 9079   0.150   5.412   6.571
   94SAPC  H12B 9080   0.034   5.306   6.518
   94SAPC   C13 9081   6.694   5.498   6.423
   94SAPC  H13A 9082   6.665   5.581   6.360
   94SAPC  H13B 9083   6.664   5.412   6.365
   94SAPC  H13C 9084   6.640   5.501   6.517
   94SAPC   C14 9085   0.027   5.647   6.490
   94SAPC  H14A 9086   0.132   5.667   6.505
   94SAPC  H14B 9087   6.842   5.711   6.407
   94SAPC  H14C 9088   6.815   5.677   6.578
   94SAPC   C15 9089   0.074   5.490   6.328
   94SAPC  H15A 9090   0.079   5.387   6.297
   94SAPC  H15B 9091   0.038   5.550   6.246
   94SAPC  H15C 9092   0.178   5.515   6.345
   94SAPC   C11 9093   6.825   5.400   6.700
   94SAPC  H11A 9094   6.809   5.501   6.742
   94SAPC  H11B 9095   0.059   5.344   6.757
   94SAPC     P 9096   6.691   5.168   6.721
   94SAPC   O13 9097   6.746   5.131   6.853
   94SAPC   O14 9098   6.545   5.129   6.704
   94SAPC   O12 9099   6.706   5.324   6.698
   94SAPC   O11 9100   6.778   5.103   6.606
   94SAPC    C1 9101   6.720   5.111   6.479
   94SAPC    HA 9102   6.647   5.027   6.481
   94SAPC    HB 9103   6.674   5.209   6.453
   94SAPC    C2 9104   6.825   5.069   6.368
   94SAPC    HS 9105   0.005   4.962   6.386
   94SAPC   O21 9106   0.097   5.155   6.383
   94SAPC   C21 9107   0.198   5.108   6.314
   94SAPC   O22 9108   0.209   5.003   6.258
   94SAPC   C22 9109   0.313   5.214   6.319
   94SAPC   H2R 9110   0.270   5.316   6.325
   94SAPC   H2S 9111   0.389   5.189   6.396
   94SAPC    C3 9112   6.758   5.072   6.226
   94SAPC    HX 9113   6.724   5.178   6.221
   94SAPC    HY 9114   6.666   5.010   6.232
   94SAPC   O31 9115   6.831   5.036   6.112
   94SAPC   C31 9116   6.758   5.044   6.002
   94SAPC   O32 9117   6.635   5.052   6.004
   94SAPC   C32 9118   6.840   5.034   5.882
   94SAPC   H2X 9119   0.034   4.933   5.857
   94SAPC   H2Y 9120   0.086   5.099   5.897
   94SAPC   C23 9121   0.388   5.212   6.178
   94SAPC   H3R 9122   0.434   5.113   6.154
   94SAPC   H3S 9123   0.473   5.283   6.183
   94SAPC   C24 9124   0.288   5.260   6.069
   94SAPC   H4R 9125   0.263   5.361   6.109
   94SAPC   H4S 9126   0.195   5.200   6.075
   94SAPC   C25 9127   0.347   5.265   5.929
   94SAPC   H5R 9128   0.322   5.180   5.865
   94SAPC   C26 9129   0.423   5.362   5.879
   94SAPC   H6R 9130   0.466   5.361   5.777
   94SAPC   C27 9131   0.477   5.474   5.964
   94SAPC   H7R 9132   0.587   5.475   5.950
   94SAPC   H7S 9133   0.465   5.470   6.075
   94SAPC   C28 9134   0.415   5.606   5.934
   94SAPC   H8R 9135   0.320   5.632   5.985
   94SAPC   C29 9136   0.457   5.676   5.828
   94SAPC   H9R 9137   0.406   5.769   5.802
   94SAPC  C210 9138   0.569   5.639   5.728
   94SAPC  H10R 9139   0.533   5.581   5.640
   94SAPC  H10S 9140   0.649   5.581   5.778
   94SAPC  C211 9141   0.635   5.765   5.691
   94SAPC  H11R 9142   0.716   5.791   5.761
   94SAPC  C212 9143   0.599   5.850   5.599
   94SAPC  H12R 9144   0.644   5.950   5.600
   94SAPC  C213 9145   0.481   5.827   5.502
   94SAPC  H13R 9146   0.391   5.828   5.567
   94SAPC  H13S 9147   0.472   5.720   5.473
   94SAPC  C214 9148   0.460   5.908   5.383
   94SAPC  H14R 9149   0.479   5.862   5.285
   94SAPC  C215 9150   0.431   6.041   5.381
   94SAPC  H15R 9151   0.423   6.099   5.288
   94SAPC  C216 9152   0.407   6.129   5.501
   94SAPC  H16R 9153   0.431   6.073   5.594
   94SAPC  H16S 9154   0.300   6.159   5.509
   94SAPC  C217 9155   0.489   6.264   5.497
   94SAPC  H17R 9156   0.596   6.239   5.477
   94SAPC  H17S 9157   0.491   6.317   5.595
   94SAPC  C218 9158   0.429   6.361   5.389
   94SAPC  H18R 9159   0.443   6.308   5.293
   94SAPC  H18S 9160   0.490   6.454   5.397
   94SAPC  C219 9161   0.284   6.405   5.409
   94SAPC  H19R 9162   0.267   6.432   5.516
   94SAPC  H19S 9163   0.219   6.327   5.366
   94SAPC  C220 9164   0.256   6.530   5.335
   94SAPC  H20R 9165   0.329   6.610   5.359
   94SAPC  H20S 9166   0.153   6.572   5.343
   94SAPC  H20T 9167   0.265   6.516   5.225
   94SAPC   C33 9168   6.771   5.090   5.763
   94SAPC   H3X 9169   6.761   5.200   5.774
   94SAPC   H3Y 9170   6.667   5.050   5.751
   94SAPC   C34 9171   0.004   5.068   5.633
   94SAPC   H4X 9172   0.001   4.962   5.603
   94SAPC   H4Y 9173   0.110   5.099   5.647
   94SAPC   C35 9174   6.767   5.138   5.515
   94SAPC   H5X 9175   6.761   5.248   5.519
   94SAPC   H5Y 9176   6.662   5.100   5.523
   94SAPC   C36 9177   6.829   5.090   5.383
   94SAPC   H6X 9178   6.842   4.979   5.385
   94SAPC   H6Y 9179   0.092   5.122   5.376
   94SAPC   C37 9180   6.746   5.111   5.258
   94SAPC   H7X 9181   6.732   5.221   5.245
   94SAPC   H7Y 9182   6.649   5.060   5.275
   94SAPC   C38 9183   6.822   5.065   5.128
   94SAPC   H8X 9184   0.002   4.956   5.137
   94SAPC   H8Y 9185   0.073   5.121   5.114
   94SAPC   C39 9186   6.723   5.080   5.016
   94SAPC   H9X 9187   6.705   5.190   5.014
   94SAPC   H9Y 9188   6.620   5.041   5.033
   94SAPC  C310 9189   6.764   5.044   4.878
   94SAPC  H10X 9190   0.025   5.080   4.863
   94SAPC  H10Y 9191   6.700   5.095   4.803
   94SAPC  C311 9192   6.760   4.893   4.850
   94SAPC  H11X 9193   6.650   4.877   4.846
   94SAPC  H11Y 9194   6.818   4.850   4.934
   94SAPC  C312 9195   0.000   4.853   4.723
   94SAPC  H12X 9196   0.104   4.892   4.725
   94SAPC  H12Y 9197   6.806   4.912   4.636
   94SAPC  C313 9198   6.824   4.701   4.691
   94SAPC  H13X 9199   6.713   4.687   4.696
   94SAPC  H13Y 9200   0.005   4.636   4.778
   94SAPC  C314 9201   0.067   4.658   4.565
   94SAPC  H14X 9202   0.055   4.548   4.562
   94SAPC  H14Y 9203   0.174   4.687   4.567
   94SAPC  C315 9204   0.008   4.715   4.435
   94SAPC  H15X 9205   0.004   4.825   4.449
   94SAPC  H15Y 9206   6.751   4.668   4.423
   94SAPC  C316 9207   0.086   4.661   4.316
   94SAPC  H16X 9208   0.087   4.550   4.310
   94SAPC  H16Y 9209   0.195   4.672   4.333
   94SAPC  C317 9210   0.042   4.712   4.177
   94SAPC  H17X 9211   0.090   4.657   4.094
   94SAPC  H17Y 9212   0.077   4.817   4.162
   94SAPC  C318 9213   6.733   4.705   4.157
   94SAPC  H18X 9214   6.705   4.745   4.058
   94SAPC  H18Y 9215   6.672   4.754   4.236
   94SAPC  H18Z 9216   6.702   4.598   4.160
   95SAPC     N 9217   3.542   5.442   1.993
   95SAPC   C12 9218   3.409   5.521   2.020
   95SAPC  H12A 9219   3.331   5.461   1.976
   95SAPC  H12B 9220   3.415   5.609   1.957
   95SAPC   C13 9221   3.546   5.320   2.077
   95SAPC  H13A 9222   3.473   5.248   2.044
   95SAPC  H13B 9223   3.641   5.269   2.067
   95SAPC  H13C 9224   3.543   5.335   2.184
   95SAPC   C14 9225   3.546   5.401   1.844
   95SAPC  H14A 9226   3.547   5.487   1.779
   95SAPC  H14B 9227   3.629   5.333   1.827
   95SAPC  H14C 9228   3.458   5.345   1.817
   95SAPC   C15 9229   3.667   5.527   2.016
   95SAPC  H15A 9230   3.658   5.619   1.959
   95SAPC  H15B 9231   3.689   5.562   2.115
   95SAPC  H15C 9232   3.758   5.471   2.000
   95SAPC   C11 9233   3.373   5.553   2.168
   95SAPC  H11A 9234   3.369   5.458   2.225
   95SAPC  H11B 9235   3.267   5.583   2.181
   95SAPC     P 9236   3.445   5.791   2.235
   95SAPC   O13 9237   3.578   5.847   2.197
   95SAPC   O14 9238   3.329   5.828   2.153
   95SAPC   O12 9239   3.467   5.635   2.231
   95SAPC   O11 9240   3.426   5.822   2.387
   95SAPC    C1 9241   3.484   5.743   2.487
   95SAPC    HA 9242   3.582   5.701   2.453
   95SAPC    HB 9243   3.511   5.799   2.579
   95SAPC    C2 9244   3.387   5.626   2.537
   95SAPC    HS 9245   3.376   5.553   2.454
   95SAPC   O21 9246   3.255   5.679   2.571
   95SAPC   C21 9247   3.162   5.597   2.541
   95SAPC   O22 9248   3.176   5.489   2.484
   95SAPC   C22 9249   3.027   5.659   2.584
   95SAPC   H2R 9250   2.941   5.588   2.581
   95SAPC   H2S 9251   3.035   5.674   2.694
   95SAPC    C3 9252   3.451   5.554   2.662
   95SAPC    HX 9253   3.551   5.548   2.615
   95SAPC    HY 9254   3.397   5.457   2.670
   95SAPC   O31 9255   3.468   5.639   2.776
   95SAPC   C31 9256   3.379   5.622   2.868
   95SAPC   O32 9257   3.287   5.541   2.858
   95SAPC   C32 9258   3.387   5.730   2.973
   95SAPC   H2X 9259   3.323   5.815   2.942
   95SAPC   H2Y 9260   3.491   5.762   2.997
   95SAPC   C23 9261   2.998   5.793   2.516
   95SAPC   H3R 9262   2.990   5.766   2.408
   95SAPC   H3S 9263   3.088   5.859   2.516
   95SAPC   C24 9264   2.870   5.862   2.559
   95SAPC   H4R 9265   2.786   5.791   2.550
   95SAPC   H4S 9266   2.852   5.938   2.479
   95SAPC   C25 9267   2.881   5.915   2.698
   95SAPC   H5R 9268   2.942   5.860   2.771
   95SAPC   C26 9269   2.811   6.020   2.752
   95SAPC   H6R 9270   2.820   6.039   2.860
   95SAPC   C27 9271   2.704   6.097   2.680
   95SAPC   H7R 9272   2.731   6.102   2.573
   95SAPC   H7S 9273   2.727   6.201   2.711
   95SAPC   C28 9274   2.559   6.060   2.693
   95SAPC   H8R 9275   2.530   6.006   2.601
   95SAPC   C29 9276   2.484   6.113   2.788
   95SAPC   H9R 9277   2.378   6.090   2.802
   95SAPC  C210 9278   2.526   6.212   2.895
   95SAPC  H10R 9279   2.543   6.312   2.848
   95SAPC  H10S 9280   2.630   6.183   2.922
   95SAPC  C211 9281   2.442   6.207   3.017
   95SAPC  H11R 9282   2.374   6.122   3.028
   95SAPC  C212 9283   2.448   6.296   3.120
   95SAPC  H12R 9284   2.416   6.267   3.222
   95SAPC  C213 9285   2.538   6.417   3.120
   95SAPC  H13R 9286   2.575   6.431   3.016
   95SAPC  H13S 9287   2.629   6.386   3.174
   95SAPC  C214 9288   2.476   6.546   3.169
   95SAPC  H14R 9289   2.470   6.629   3.097
   95SAPC  C215 9290   2.454   6.568   3.302
   95SAPC  H15R 9291   2.402   6.662   3.324
   95SAPC  C216 9292   2.484   6.467   3.414
   95SAPC  H16R 9293   2.560   6.509   3.483
   95SAPC  H16S 9294   2.538   6.382   3.367
   95SAPC  C217 9295   2.354   6.431   3.486
   95SAPC  H17R 9296   2.379   6.351   3.559
   95SAPC  H17S 9297   2.290   6.376   3.414
   95SAPC  C218 9298   2.284   6.547   3.568
   95SAPC  H18R 9299   2.190   6.506   3.611
   95SAPC  H18S 9300   2.246   6.618   3.492
   95SAPC  C219 9301   2.373   6.635   3.661
   95SAPC  H19R 9302   2.308   6.701   3.724
   95SAPC  H19S 9303   2.430   6.708   3.599
   95SAPC  C220 9304   2.448   6.538   3.750
   95SAPC  H20R 9305   2.395   6.444   3.773
   95SAPC  H20S 9306   2.462   6.587   3.849
   95SAPC  H20T 9307   2.552   6.521   3.714
   95SAPC   C33 9308   3.324   5.681   3.106
   95SAPC   H3X 9309   3.232   5.623   3.086
   95SAPC   H3Y 9310   3.286   5.776   3.151
   95SAPC   C34 9311   3.424   5.610   3.194
   95SAPC   H4X 9312   3.518   5.668   3.205
   95SAPC   H4Y 9313   3.457   5.512   3.152
   95SAPC   C35 9314   3.371   5.585   3.331
   95SAPC   H5X 9315   3.313   5.671   3.370
   95SAPC   H5Y 9316   3.454   5.558   3.401
   95SAPC   C36 9317   3.266   5.469   3.333
   95SAPC   H6X 9318   3.332   5.384   3.362
   95SAPC   H6Y 9319   3.235   5.450   3.228
   95SAPC   C37 9320   3.154   5.461   3.441
   95SAPC   H7X 9321   3.202   5.482   3.539
   95SAPC   H7Y 9322   3.117   5.356   3.431
   95SAPC   C38 9323   3.034   5.553   3.414
   95SAPC   H8X 9324   2.966   5.504   3.341
   95SAPC   H8Y 9325   3.071   5.653   3.380
   95SAPC   C39 9326   2.940   5.583   3.529
   95SAPC   H9X 9327   2.993   5.640   3.608
   95SAPC   H9Y 9328   2.896   5.494   3.579
   95SAPC  C310 9329   2.820   5.677   3.491
   95SAPC  H10X 9330   2.771   5.635   3.401
   95SAPC  H10Y 9331   2.871   5.772   3.464
   95SAPC  C311 9332   2.704   5.692   3.593
   95SAPC  H11X 9333   2.631   5.609   3.577
   95SAPC  H11Y 9334   2.650   5.787   3.574
   95SAPC  C312 9335   2.754   5.699   3.736
   95SAPC  H12X 9336   2.825   5.784   3.743
   95SAPC  H12Y 9337   2.809   5.605   3.757
   95SAPC  C313 9338   2.641   5.708   3.842
   95SAPC  H13X 9339   2.577   5.619   3.825
   95SAPC  H13Y 9340   2.577   5.797   3.824
   95SAPC  C314 9341   2.709   5.731   3.988
   95SAPC  H14X 9342   2.787   5.655   4.009
   95SAPC  H14Y 9343   2.631   5.706   4.063
   95SAPC  C315 9344   2.772   5.866   3.999
   95SAPC  H15X 9345   2.694   5.933   3.956
   95SAPC  H15Y 9346   2.869   5.880   3.947
   95SAPC  C316 9347   2.815   5.899   4.148
   95SAPC  H16X 9348   2.877   5.814   4.183
   95SAPC  H16Y 9349   2.718   5.885   4.200
   95SAPC  C317 9350   2.875   6.034   4.173
   95SAPC  H17X 9351   2.824   6.111   4.112
   95SAPC  H17Y 9352   2.980   6.029   4.136
   95SAPC  C318 9353   2.859   6.071   4.321
   95SAPC  H18X 9354   2.906   5.995   4.387
   95SAPC  H18Y 9355   2.753   6.067   4.356
   95SAPC  H18Z 9356   2.901   6.172   4.337
   96SAPC     N 9357   4.411   2.026   1.832
   96SAPC   C12 9358   4.362   2.073   1.968
   96SAPC  H12A 9359   4.385   2.179   1.962
   96SAPC  H12B 9360   4.423   2.030   2.046
   96SAPC   C13 9361   4.337   2.096   1.723
   96SAPC  H13A 9362   4.356   2.056   1.625
   96SAPC  H13B 9363   4.231   2.081   1.734
   96SAPC  H13C 9364   4.356   2.203   1.726
   96SAPC   C14 9365   4.558   2.056   1.834
   96SAPC  H14A 9366   4.607   2.008   1.917
   96SAPC  H14B 9367   4.612   2.023   1.746
   96SAPC  H14C 9368   4.577   2.161   1.852
   96SAPC   C15 9369   4.389   1.877   1.815
   96SAPC  H15A 9370   4.411   1.851   1.713
   96SAPC  H15B 9371   4.462   1.821   1.872
   96SAPC  H15C 9372   4.296   1.843   1.859
   96SAPC   C11 9373   4.216   2.045   2.002
   96SAPC  H11A 9374   4.156   2.067   1.910
   96SAPC  H11B 9375   4.170   2.111   2.078
   96SAPC     P 9376   4.245   1.861   2.179
   96SAPC   O13 9377   4.221   1.711   2.197
   96SAPC   O14 9378   4.379   1.913   2.203
   96SAPC   O12 9379   4.189   1.906   2.035
   96SAPC   O11 9380   4.150   1.931   2.282
   96SAPC    C1 9381   4.008   1.919   2.289
   96SAPC    HA 9382   3.948   1.971   2.211
   96SAPC    HB 9383   3.978   1.812   2.288
   96SAPC    C2 9384   3.939   1.963   2.418
   96SAPC    HS 9385   3.836   1.922   2.410
   96SAPC   O21 9386   3.956   2.107   2.436
   96SAPC   C21 9387   3.859   2.162   2.510
   96SAPC   O22 9388   3.755   2.109   2.542
   96SAPC   C22 9389   3.908   2.301   2.555
   96SAPC   H2R 9390   4.019   2.302   2.552
   96SAPC   H2S 9391   3.870   2.380   2.488
   96SAPC    C3 9392   4.001   1.896   2.538
   96SAPC    HX 9393   4.094   1.951   2.561
   96SAPC    HY 9394   4.033   1.795   2.504
   96SAPC   O31 9395   3.910   1.880   2.651
   96SAPC   C31 9396   3.809   1.794   2.632
   96SAPC   O32 9397   3.779   1.734   2.533
   96SAPC   C32 9398   3.737   1.777   2.767
   96SAPC   H2X 9399   3.806   1.804   2.850
   96SAPC   H2Y 9400   3.735   1.667   2.775
   96SAPC   C23 9401   3.859   2.346   2.698
   96SAPC   H3R 9402   3.751   2.367   2.690
   96SAPC   H3S 9403   3.907   2.446   2.709
   96SAPC   C24 9404   3.891   2.255   2.815
   96SAPC   H4R 9405   3.997   2.229   2.797
   96SAPC   H4S 9406   3.834   2.160   2.808
   96SAPC   C25 9407   3.884   2.325   2.954
   96SAPC   H5R 9408   3.941   2.418   2.966
   96SAPC   C26 9409   3.824   2.274   3.060
   96SAPC   H6R 9410   3.832   2.322   3.159
   96SAPC   C27 9411   3.743   2.147   3.058
   96SAPC   H7R 9412   3.695   2.129   2.960
   96SAPC   H7S 9413   3.653   2.146   3.124
   96SAPC   C28 9414   3.838   2.035   3.096
   96SAPC   H8R 9415   3.921   2.023   3.025
   96SAPC   C29 9416   3.844   1.955   3.208
   96SAPC   H9R 9417   3.932   1.890   3.218
   96SAPC  C210 9418   3.756   1.963   3.328
   96SAPC  H10R 9419   3.736   1.869   3.384
   96SAPC  H10S 9420   3.651   1.986   3.300
   96SAPC  C211 9421   3.788   2.077   3.426
   96SAPC  H11R 9422   3.784   2.179   3.387
   96SAPC  C212 9423   3.803   2.069   3.557
   96SAPC  H12R 9424   3.815   2.168   3.603
   96SAPC  C213 9425   3.787   1.947   3.647
   96SAPC  H13R 9426   3.765   1.854   3.591
   96SAPC  H13S 9427   3.685   1.948   3.690
   96SAPC  C214 9428   3.894   1.912   3.751
   96SAPC  H14R 9429   3.946   1.818   3.726
   96SAPC  C215 9430   3.932   1.993   3.850
   96SAPC  H15R 9431   4.018   1.966   3.912
   96SAPC  C216 9432   3.869   2.116   3.893
   96SAPC  H16R 9433   3.761   2.096   3.879
   96SAPC  H16S 9434   3.908   2.198   3.828
   96SAPC  C217 9435   3.909   2.144   4.042
   96SAPC  H17R 9436   4.019   2.155   4.033
   96SAPC  H17S 9437   3.885   2.051   4.097
   96SAPC  C218 9438   3.844   2.262   4.109
   96SAPC  H18R 9439   3.735   2.245   4.103
   96SAPC  H18S 9440   3.851   2.358   4.054
   96SAPC  C219 9441   3.876   2.282   4.258
   96SAPC  H19R 9442   3.877   2.184   4.310
   96SAPC  H19S 9443   3.807   2.349   4.314
   96SAPC  C220 9444   4.022   2.337   4.289
   96SAPC  H20R 9445   4.030   2.336   4.400
   96SAPC  H20S 9446   4.029   2.444   4.261
   96SAPC  H20T 9447   4.102   2.274   4.246
   96SAPC   C33 9448   3.598   1.825   2.775
   96SAPC   H3X 9449   3.525   1.761   2.721
   96SAPC   H3Y 9450   3.588   1.920   2.719
   96SAPC   C34 9451   3.547   1.839   2.924
   96SAPC   H4X 9452   3.616   1.908   2.977
   96SAPC   H4Y 9453   3.543   1.743   2.981
   96SAPC   C35 9454   3.407   1.909   2.928
   96SAPC   H5X 9455   3.334   1.839   2.881
   96SAPC   H5Y 9456   3.402   2.007   2.876
   96SAPC   C36 9457   3.349   1.929   3.079
   96SAPC   H6X 9458   3.244   1.967   3.074
   96SAPC   H6Y 9459   3.418   2.006   3.119
   96SAPC   C37 9460   3.355   1.801   3.166
   96SAPC   H7X 9461   3.464   1.784   3.181
   96SAPC   H7Y 9462   3.323   1.708   3.113
   96SAPC   C38 9463   3.282   1.811   3.301
   96SAPC   H8X 9464   3.173   1.820   3.287
   96SAPC   H8Y 9465   3.311   1.907   3.350
   96SAPC   C39 9466   3.308   1.687   3.388
   96SAPC   H9X 9467   3.410   1.646   3.381
   96SAPC   H9Y 9468   3.239   1.609   3.351
   96SAPC  C310 9469   3.281   1.704   3.542
   96SAPC  H10X 9470   3.289   1.603   3.589
   96SAPC  H10Y 9471   3.181   1.748   3.559
   96SAPC  C311 9472   3.366   1.807   3.633
   96SAPC  H11X 9473   3.322   1.907   3.610
   96SAPC  H11Y 9474   3.472   1.803   3.602
   96SAPC  C312 9475   3.355   1.774   3.782
   96SAPC  H12X 9476   3.412   1.678   3.789
   96SAPC  H12Y 9477   3.249   1.766   3.812
   96SAPC  C313 9478   3.430   1.884   3.868
   96SAPC  H13X 9479   3.397   1.986   3.840
   96SAPC  H13Y 9480   3.538   1.858   3.859
   96SAPC  C314 9481   3.410   1.876   4.013
   96SAPC  H14X 9482   3.306   1.876   4.051
   96SAPC  H14Y 9483   3.442   1.975   4.053
   96SAPC  C315 9484   3.499   1.768   4.082
   96SAPC  H15X 9485   3.599   1.766   4.032
   96SAPC  H15Y 9486   3.437   1.679   4.059
   96SAPC  C316 9487   3.530   1.790   4.230
   96SAPC  H16X 9488   3.592   1.710   4.275
   96SAPC  H16Y 9489   3.433   1.793   4.284
   96SAPC  C317 9490   3.605   1.915   4.267
   96SAPC  H17X 9491   3.539   2.004   4.253
   96SAPC  H17Y 9492   3.699   1.923   4.209
   96SAPC  C318 9493   3.628   1.913   4.420
   96SAPC  H18X 9494   3.703   1.837   4.452
   96SAPC  H18Y 9495   3.533   1.908   4.477
   96SAPC  H18Z 9496   3.680   2.009   4.439
   97SAPC     N 9497   2.937   0.619   1.907
   97SAPC   C12 9498   2.930   0.577   2.051
   97SAPC  H12A 9499   2.881   0.654   2.108
   97SAPC  H12B 9500   3.027   0.582   2.099
   97SAPC   C13 9501   2.972   0.761   1.908
   97SAPC  H13A 9502   3.071   0.784   1.942
   97SAPC  H13B 9503   2.959   0.800   1.808
   97SAPC  H13C 9504   2.905   0.808   1.978
   97SAPC   C14 9505   3.045   0.544   1.831
   97SAPC  H14A 9506   3.141   0.569   1.872
   97SAPC  H14B 9507   3.029   0.438   1.843
   97SAPC  H14C 9508   3.035   0.563   1.725
   97SAPC   C15 9509   2.809   0.595   1.835
   97SAPC  H15A 9510   2.731   0.669   1.849
   97SAPC  H15B 9511   2.836   0.585   1.731
   97SAPC  H15C 9512   2.764   0.499   1.849
   97SAPC   C11 9513   2.853   0.448   2.102
   97SAPC  H11A 9514   2.751   0.451   2.059
   97SAPC  H11B 9515   2.854   0.441   2.213
   97SAPC     P 9516   2.869   0.193   2.067
   97SAPC   O13 9517   2.754   0.176   1.970
   97SAPC   O14 9518   2.976   0.091   2.061
   97SAPC   O12 9519   2.924   0.336   2.053
   97SAPC   O11 9520   2.819   0.192   2.212
   97SAPC    C1 9521   2.897   0.207   2.328
   97SAPC    HA 9522   2.993   0.259   2.305
   97SAPC    HB 9523   2.836   0.264   2.401
   97SAPC    C2 9524   2.922   0.073   2.403
   97SAPC    HS 9525   2.967   0.008   2.325
   97SAPC   O21 9526   2.802   0.019   2.454
   97SAPC   C21 9527   2.814   6.740   2.511
   97SAPC   O22 9528   2.919   6.671   2.512
   97SAPC   C22 9529   2.670   6.704   2.566
   97SAPC   H2R 9530   2.653   6.784   2.641
   97SAPC   H2S 9531   2.592   6.723   2.490
   97SAPC    C3 9532   3.019   0.102   2.522
   97SAPC    HX 9533   3.105   0.157   2.477
   97SAPC    HY 9534   3.057   0.012   2.575
   97SAPC   O31 9535   2.955   0.195   2.612
   97SAPC   C31 9536   3.023   0.243   2.716
   97SAPC   O32 9537   3.139   0.220   2.744
   97SAPC   C32 9538   2.941   0.361   2.762
   97SAPC   H2X 9539   2.833   0.343   2.743
   97SAPC   H2Y 9540   2.973   0.447   2.698
   97SAPC   C23 9541   2.652   6.569   2.638
   97SAPC   H3R 9542   2.705   6.485   2.588
   97SAPC   H3S 9543   2.544   6.542   2.635
   97SAPC   C24 9544   2.688   6.569   2.787
   97SAPC   H4R 9545   2.648   6.476   2.833
   97SAPC   H4S 9546   2.642   6.665   2.822
   97SAPC   C25 9547   2.827   6.546   2.811
   97SAPC   H5R 9548   2.872   6.459   2.762
   97SAPC   C26 9549   2.904   6.633   2.890
   97SAPC   H6R 9550   3.009   6.606   2.907
   97SAPC   C27 9551   2.850   6.761   2.952
   97SAPC   H7R 9552   2.752   6.738   2.998
   97SAPC   H7S 9553   2.835   6.821   2.860
   97SAPC   C28 9554   2.954   6.834   3.032
   97SAPC   H8R 9555   3.050   0.010   2.981
   97SAPC   C29 9556   2.925   0.043   3.150
   97SAPC   H9R 9557   3.005   0.101   3.199
   97SAPC  C210 9558   2.800   0.021   3.225
   97SAPC  H10R 9559   2.708   0.047   3.169
   97SAPC  H10S 9560   2.785   0.107   3.295
   97SAPC  C211 9561   2.787   6.742   3.312
   97SAPC  H11R 9562   2.773   6.649   3.255
   97SAPC  C212 9563   2.800   6.722   3.442
   97SAPC  H12R 9564   2.797   6.623   3.488
   97SAPC  C213 9565   2.847   6.831   3.541
   97SAPC  H13R 9566   2.756   0.005   3.603
   97SAPC  H13S 9567   2.886   0.081   3.494
   97SAPC  C214 9568   2.960   6.787   3.630
   97SAPC  H14R 9569   3.062   6.786   3.589
   97SAPC  C215 9570   2.944   6.740   3.757
   97SAPC  H15R 9571   3.037   6.718   3.812
   97SAPC  C216 9572   2.810   6.726   3.834
   97SAPC  H16R 9573   2.797   6.624   3.875
   97SAPC  H16S 9574   2.722   6.745   3.769
   97SAPC  C217 9575   2.808   6.832   3.945
   97SAPC  H17R 9576   2.714   6.829   4.005
   97SAPC  H17S 9577   2.821   0.084   3.888
   97SAPC  C218 9578   2.920   6.804   4.051
   97SAPC  H18R 9579   2.898   0.034   4.132
   97SAPC  H18S 9580   3.012   6.824   3.991
   97SAPC  C219 9581   2.931   6.664   4.097
   97SAPC  H19R 9582   2.954   6.592   4.016
   97SAPC  H19S 9583   2.825   6.641   4.121
   97SAPC  C220 9584   3.029   6.657   4.211
   97SAPC  H20R 9585   3.130   6.666   4.167
   97SAPC  H20S 9586   3.021   6.565   4.272
   97SAPC  H20T 9587   3.021   6.754   4.265
   97SAPC   C33 9588   2.951   0.413   2.908
   97SAPC   H3X 9589   2.947   0.319   2.966
   97SAPC   H3Y 9590   2.879   0.494   2.931
   97SAPC   C34 9591   3.083   0.481   2.948
   97SAPC   H4X 9592   3.120   0.544   2.864
   97SAPC   H4Y 9593   3.151   0.394   2.939
   97SAPC   C35 9594   3.100   0.541   3.093
   97SAPC   H5X 9595   3.015   0.609   3.118
   97SAPC   H5Y 9596   3.199   0.593   3.094
   97SAPC   C36 9597   3.101   0.432   3.196
   97SAPC   H6X 9598   3.182   0.359   3.175
   97SAPC   H6Y 9599   3.001   0.384   3.188
   97SAPC   C37 9600   3.141   0.486   3.333
   97SAPC   H7X 9601   3.072   0.569   3.357
   97SAPC   H7Y 9602   3.243   0.530   3.337
   97SAPC   C38 9603   3.138   0.372   3.435
   97SAPC   H8X 9604   3.175   0.286   3.376
   97SAPC   H8Y 9605   3.034   0.339   3.459
   97SAPC   C39 9606   3.212   0.399   3.561
   97SAPC   H9X 9607   3.162   0.490   3.603
   97SAPC   H9Y 9608   3.320   0.424   3.551
   97SAPC  C310 9609   3.187   0.286   3.662
   97SAPC  H10X 9610   3.209   0.186   3.620
   97SAPC  H10Y 9611   3.079   0.286   3.686
   97SAPC  C311 9612   3.271   0.293   3.793
   97SAPC  H11X 9613   3.209   0.369   3.846
   97SAPC  H11Y 9614   3.372   0.335   3.773
   97SAPC  C312 9615   3.268   0.148   3.863
   97SAPC  H12X 9616   3.326   0.080   3.797
   97SAPC  H12Y 9617   3.161   0.119   3.869
   97SAPC  C313 9618   3.326   0.151   4.007
   97SAPC  H13X 9619   3.426   0.199   3.998
   97SAPC  H13Y 9620   3.345   0.046   4.039
   97SAPC  C314 9621   3.234   0.223   4.105
   97SAPC  H14X 9622   3.141   0.163   4.116
   97SAPC  H14Y 9623   3.202   0.318   4.059
   97SAPC  C315 9624   3.302   0.239   4.244
   97SAPC  H15X 9625   3.351   0.140   4.258
   97SAPC  H15Y 9626   3.224   0.258   4.321
   97SAPC  C316 9627   3.405   0.349   4.241
   97SAPC  H16X 9628   3.372   0.425   4.167
   97SAPC  H16Y 9629   3.503   0.316   4.201
   97SAPC  C317 9630   3.433   0.421   4.377
   97SAPC  H17X 9631   3.355   0.497   4.396
   97SAPC  H17Y 9632   3.528   0.475   4.356
   97SAPC  C318 9633   3.434   0.318   4.488
   97SAPC  H18X 9634   3.478   0.357   4.582
   97SAPC  H18Y 9635   3.496   0.233   4.454
   97SAPC  H18Z 9636   3.332   0.280   4.510
   98SAPC     N 9637   5.998   1.537   2.302
   98SAPC   C12 9638   6.014   1.515   2.455
   98SAPC  H12A 9639   5.916   1.513   2.501
   98SAPC  H12B 9640   6.074   1.599   2.487
   98SAPC   C13 9641   5.938   1.426   2.235
   98SAPC  H13A 9642   5.966   1.333   2.280
   98SAPC  H13B 9643   5.831   1.431   2.251
   98SAPC  H13C 9644   5.972   1.428   2.132
   98SAPC   C14 9645   5.928   1.659   2.261
   98SAPC  H14A 9646   5.821   1.643   2.259
   98SAPC  H14B 9647   5.945   1.746   2.322
   98SAPC  H14C 9648   5.963   1.684   2.161
   98SAPC   C15 9649   6.138   1.549   2.245
   98SAPC  H15A 9650   6.186   1.629   2.301
   98SAPC  H15B 9651   6.187   1.456   2.267
   98SAPC  H15C 9652   6.134   1.561   2.138
   98SAPC   C11 9653   6.076   1.378   2.502
   98SAPC  H11A 9654   6.114   1.401   2.604
   98SAPC  H11B 9655   6.168   1.346   2.448
   98SAPC     P 9656   5.878   1.246   2.603
   98SAPC   O13 9657   5.797   1.367   2.625
   98SAPC   O14 9658   5.799   1.128   2.573
   98SAPC   O12 9659   5.986   1.265   2.485
   98SAPC   O11 9660   5.963   1.217   2.736
   98SAPC    C1 9661   6.062   1.121   2.759
   98SAPC    HA 9662   6.057   1.035   2.688
   98SAPC    HB 9663   6.162   1.168   2.744
   98SAPC    C2 9664   6.050   1.048   2.898
   98SAPC    HS 9665   5.945   1.012   2.900
   98SAPC   O21 9666   6.096   1.137   3.008
   98SAPC   C21 9667   6.001   1.225   3.051
   98SAPC   O22 9668   5.884   1.211   3.028
   98SAPC   C22 9669   6.067   1.321   3.156
   98SAPC   H2R 9670   6.031   1.299   3.258
   98SAPC   H2S 9671   6.178   1.311   3.153
   98SAPC    C3 9672   6.132   0.913   2.892
   98SAPC    HX 9673   6.233   0.957   2.905
   98SAPC    HY 9674   6.129   0.861   2.794
   98SAPC   O31 9675   6.088   0.840   3.014
   98SAPC   C31 9676   6.003   0.740   2.987
   98SAPC   O32 9677   5.961   0.718   2.873
   98SAPC   C32 9678   5.977   0.662   3.114
   98SAPC   H2X 9679   5.911   0.729   3.173
   98SAPC   H2Y 9680   6.072   0.644   3.167
   98SAPC   C23 9681   6.021   1.464   3.142
   98SAPC   H3R 9682   5.989   1.503   3.240
   98SAPC   H3S 9683   5.937   1.472   3.070
   98SAPC   C24 9684   6.122   1.563   3.089
   98SAPC   H4R 9685   6.211   1.554   3.155
   98SAPC   H4S 9686   6.071   1.661   3.100
   98SAPC   C25 9687   6.167   1.540   2.942
   98SAPC   H5R 9688   6.081   1.545   2.874
   98SAPC   C26 9689   6.279   1.491   2.893
   98SAPC   H6R 9690   6.295   1.480   2.785
   98SAPC   C27 9691   6.401   1.465   2.979
   98SAPC   H7R 9692   6.384   1.370   3.033
   98SAPC   H7S 9693   6.410   1.537   3.063
   98SAPC   C28 9694   6.533   1.445   2.901
   98SAPC   H8R 9695   6.530   1.489   2.801
   98SAPC   C29 9696   6.644   1.380   2.937
   98SAPC   H9R 9697   6.724   1.368   2.862
   98SAPC  C210 9698   6.684   1.322   3.075
   98SAPC  H10R 9699   6.704   1.406   3.145
   98SAPC  H10S 9700   6.782   1.271   3.062
   98SAPC  C211 9701   6.589   1.226   3.139
   98SAPC  H11R 9702   6.579   1.135   3.079
   98SAPC  C212 9703   6.524   1.232   3.259
   98SAPC  H12R 9704   6.472   1.145   3.300
   98SAPC  C213 9705   6.527   1.347   3.351
   98SAPC  H13R 9706   6.605   1.418   3.318
   98SAPC  H13S 9707   6.577   1.313   3.444
   98SAPC  C214 9708   6.389   1.408   3.383
   98SAPC  H14R 9709   6.357   1.485   3.311
   98SAPC  C215 9710   6.302   1.370   3.479
   98SAPC  H15R 9711   6.211   1.430   3.490
   98SAPC  C216 9712   6.316   1.254   3.572
   98SAPC  H16R 9713   6.262   1.281   3.665
   98SAPC  H16S 9714   6.424   1.236   3.593
   98SAPC  C217 9715   6.245   1.127   3.523
   98SAPC  H17R 9716   6.282   1.040   3.581
   98SAPC  H17S 9717   6.285   1.108   3.421
   98SAPC  C218 9718   6.089   1.139   3.520
   98SAPC  H18R 9719   6.076   1.210   3.435
   98SAPC  H18S 9720   6.052   1.167   3.621
   98SAPC  C219 9721   6.022   1.009   3.481
   98SAPC  H19R 9722   5.913   1.024   3.465
   98SAPC  H19S 9723   6.032   0.934   3.562
   98SAPC  C220 9724   6.070   0.940   3.362
   98SAPC  H20R 9725   6.149   0.870   3.395
   98SAPC  H20S 9726   6.091   1.011   3.278
   98SAPC  H20T 9727   5.987   0.875   3.327
   98SAPC   C33 9728   5.911   0.521   3.097
   98SAPC   H3X 9729   5.987   0.449   3.061
   98SAPC   H3Y 9730   5.840   0.531   3.012
   98SAPC   C34 9731   5.830   0.478   3.213
   98SAPC   H4X 9732   5.770   0.391   3.180
   98SAPC   H4Y 9733   5.757   0.555   3.248
   98SAPC   C35 9734   5.919   0.427   3.325
   98SAPC   H5X 9735   5.991   0.508   3.349
   98SAPC   H5Y 9736   5.970   0.333   3.297
   98SAPC   C36 9737   5.846   0.396   3.454
   98SAPC   H6X 9738   5.909   0.336   3.523
   98SAPC   H6Y 9739   5.753   0.337   3.438
   98SAPC   C37 9740   5.801   0.526   3.519
   98SAPC   H7X 9741   5.698   0.552   3.486
   98SAPC   H7Y 9742   5.860   0.618   3.496
   98SAPC   C38 9743   5.791   0.526   3.674
   98SAPC   H8X 9744   5.891   0.508   3.719
   98SAPC   H8Y 9745   5.718   0.448   3.706
   98SAPC   C39 9746   5.738   0.663   3.731
   98SAPC   H9X 9747   5.628   0.672   3.716
   98SAPC   H9Y 9748   5.778   0.748   3.672
   98SAPC  C310 9749   5.753   0.676   3.881
   98SAPC  H10X 9750   5.733   0.782   3.907
   98SAPC  H10Y 9751   5.859   0.660   3.907
   98SAPC  C311 9752   5.659   0.596   3.973
   98SAPC  H11X 9753   5.677   0.487   3.960
   98SAPC  H11Y 9754   5.551   0.613   3.952
   98SAPC  C312 9755   5.674   0.637   4.115
   98SAPC  H12X 9756   5.668   0.747   4.126
   98SAPC  H12Y 9757   5.772   0.596   4.147
   98SAPC  C313 9758   5.572   0.567   4.204
   98SAPC  H13X 9759   5.579   0.456   4.206
   98SAPC  H13Y 9760   5.468   0.605   4.191
   98SAPC  C314 9761   5.602   0.603   4.359
   98SAPC  H14X 9762   5.601   0.713   4.377
   98SAPC  H14Y 9763   5.703   0.567   4.385
   98SAPC  C315 9764   5.496   0.534   4.445
   98SAPC  H15X 9765   5.503   0.424   4.437
   98SAPC  H15Y 9766   5.392   0.556   4.412
   98SAPC  C316 9767   5.514   0.577   4.587
   98SAPC  H16X 9768   5.487   0.682   4.610
   98SAPC  H16Y 9769   5.618   0.556   4.622
   98SAPC  C317 9770   5.424   0.495   4.679
   98SAPC  H17X 9771   5.460   0.391   4.661
   98SAPC  H17Y 9772   5.321   0.501   4.640
   98SAPC  C318 9773   5.451   0.542   4.821
   98SAPC  H18X 9774   5.414   0.643   4.849
   98SAPC  H18Y 9775   5.559   0.537   4.849
   98SAPC  H18Z 9776   5.406   0.472   4.894
   99SAPC     N 9777   3.243   4.601   1.764
   99SAPC   C12 9778   3.146   4.714   1.748
   99SAPC  H12A 9779   3.061   4.697   1.813
   99SAPC  H12B 9780   3.106   4.709   1.648
   99SAPC   C13 9781   3.364   4.630   1.683
   99SAPC  H13A 9782   3.444   4.558   1.695
   99SAPC  H13B 9783   3.345   4.639   1.578
   99SAPC  H13C 9784   3.404   4.722   1.722
   99SAPC   C14 9785   3.286   4.594   1.906
   99SAPC  H14A 9786   3.199   4.585   1.970
   99SAPC  H14B 9787   3.346   4.505   1.918
   99SAPC  H14C 9788   3.335   4.681   1.949
   99SAPC   C15 9789   3.179   4.473   1.721
   99SAPC  H15A 9790   3.089   4.462   1.780
   99SAPC  H15B 9791   3.146   4.465   1.619
   99SAPC  H15C 9792   3.238   4.383   1.731
   99SAPC   C11 9793   3.200   4.855   1.781
   99SAPC  H11A 9794   3.115   4.925   1.763
   99SAPC  H11B 9795   3.280   4.898   1.718
   99SAPC     P 9796   3.141   4.899   2.028
   99SAPC   O13 9797   3.076   5.033   2.018
   99SAPC   O14 9798   3.055   4.784   2.053
   99SAPC   O12 9799   3.251   4.871   1.914
   99SAPC   O11 9800   3.253   4.912   2.140
   99SAPC    C1 9801   3.276   4.800   2.217
   99SAPC    HA 9802   3.283   4.704   2.162
   99SAPC    HB 9803   3.376   4.815   2.263
   99SAPC    C2 9804   3.170   4.791   2.337
   99SAPC    HS 9805   3.069   4.779   2.293
   99SAPC   O21 9806   3.182   4.909   2.419
   99SAPC   C21 9807   3.076   4.932   2.490
   99SAPC   O22 9808   2.970   4.872   2.490
   99SAPC   C22 9809   3.107   5.060   2.573
   99SAPC   H2R 9810   3.155   5.132   2.503
   99SAPC   H2S 9811   3.005   5.098   2.596
   99SAPC    C3 9812   3.177   4.663   2.427
   99SAPC    HX 9813   3.179   4.591   2.342
   99SAPC    HY 9814   3.086   4.656   2.490
   99SAPC   O31 9815   3.303   4.651   2.496
   99SAPC   C31 9816   3.303   4.680   2.624
   99SAPC   O32 9817   3.209   4.699   2.700
   99SAPC   C32 9818   3.446   4.691   2.672
   99SAPC   H2X 9819   3.478   4.792   2.640
   99SAPC   H2Y 9820   3.513   4.610   2.637
   99SAPC   C23 9821   3.200   5.035   2.698
   99SAPC   H3R 9822   3.287   4.973   2.668
   99SAPC   H3S 9823   3.148   4.969   2.771
   99SAPC   C24 9824   3.235   5.157   2.771
   99SAPC   H4R 9825   3.145   5.212   2.808
   99SAPC   H4S 9826   3.275   5.230   2.699
   99SAPC   C25 9827   3.323   5.126   2.882
   99SAPC   H5R 9828   3.425   5.104   2.848
   99SAPC   C26 9829   3.290   5.112   3.012
   99SAPC   H6R 9830   3.363   5.073   3.085
   99SAPC   C27 9831   3.156   5.150   3.078
   99SAPC   H7R 9832   3.132   5.254   3.046
   99SAPC   H7S 9833   3.165   5.153   3.188
   99SAPC   C28 9834   3.043   5.063   3.046
   99SAPC   H8R 9835   3.041   4.993   2.961
   99SAPC   C29 9836   2.937   5.040   3.131
   99SAPC   H9R 9837   2.864   4.967   3.093
   99SAPC  C210 9838   2.908   5.097   3.268
   99SAPC  H10R 9839   2.802   5.118   3.292
   99SAPC  H10S 9840   2.958   5.196   3.264
   99SAPC  C211 9841   2.950   5.006   3.386
   99SAPC  H11R 9842   2.985   4.905   3.360
   99SAPC  C212 9843   2.991   5.035   3.510
   99SAPC  H12R 9844   3.006   4.951   3.579
   99SAPC  C213 9845   2.942   5.161   3.571
   99SAPC  H13R 9846   2.899   5.227   3.493
   99SAPC  H13S 9847   3.025   5.220   3.616
   99SAPC  C214 9848   2.830   5.140   3.679
   99SAPC  H14R 9849   2.763   5.058   3.649
   99SAPC  C215 9850   2.819   5.209   3.788
   99SAPC  H15R 9851   2.745   5.183   3.865
   99SAPC  C216 9852   2.915   5.315   3.842
   99SAPC  H16R 9853   2.848   5.386   3.895
   99SAPC  H16S 9854   2.968   5.368   3.760
   99SAPC  C217 9855   3.010   5.272   3.953
   99SAPC  H17R 9856   3.085   5.199   3.917
   99SAPC  H17S 9857   2.948   5.215   4.025
   99SAPC  C218 9858   3.093   5.388   4.009
   99SAPC  H18R 9859   3.151   5.438   3.927
   99SAPC  H18S 9860   3.174   5.345   4.071
   99SAPC  C219 9861   3.016   5.483   4.099
   99SAPC  H19R 9862   2.944   5.423   4.158
   99SAPC  H19S 9863   2.947   5.546   4.038
   99SAPC  C220 9864   3.103   5.565   4.187
   99SAPC  H20R 9865   3.038   5.626   4.254
   99SAPC  H20S 9866   3.163   5.646   4.138
   99SAPC  H20T 9867   3.170   5.496   4.243
   99SAPC   C33 9868   3.445   4.678   2.827
   99SAPC   H3X 9869   3.415   4.575   2.855
   99SAPC   H3Y 9870   3.374   4.753   2.869
   99SAPC   C34 9871   3.577   4.716   2.883
   99SAPC   H4X 9872   3.612   4.812   2.839
   99SAPC   H4Y 9873   3.650   4.644   2.840
   99SAPC   C35 9874   3.590   4.708   3.038
   99SAPC   H5X 9875   3.678   4.763   3.076
   99SAPC   H5Y 9876   3.603   4.601   3.066
   99SAPC   C36 9877   3.468   4.759   3.112
   99SAPC   H6X 9878   3.383   4.692   3.088
   99SAPC   H6Y 9879   3.435   4.857   3.071
   99SAPC   C37 9880   3.474   4.752   3.265
   99SAPC   H7X 9881   3.532   4.841   3.298
   99SAPC   H7Y 9882   3.527   4.662   3.303
   99SAPC   C38 9883   3.338   4.765   3.334
   99SAPC   H8X 9884   3.256   4.704   3.290
   99SAPC   H8Y 9885   3.301   4.869   3.325
   99SAPC   C39 9886   3.342   4.733   3.488
   99SAPC   H9X 9887   3.405   4.810   3.538
   99SAPC   H9Y 9888   3.385   4.631   3.493
   99SAPC  C310 9889   3.204   4.741   3.556
   99SAPC  H10X 9890   3.119   4.699   3.497
   99SAPC  H10Y 9891   3.192   4.848   3.581
   99SAPC  C311 9892   3.214   4.661   3.690
   99SAPC  H11X 9893   3.320   4.659   3.726
   99SAPC  H11Y 9894   3.201   4.554   3.662
   99SAPC  C312 9895   3.105   4.695   3.797
   99SAPC  H12X 9896   3.110   4.804   3.818
   99SAPC  H12Y 9897   3.140   4.650   3.893
   99SAPC  C313 9898   2.961   4.650   3.768
   99SAPC  H13X 9899   2.956   4.539   3.759
   99SAPC  H13Y 9900   2.934   4.698   3.672
   99SAPC  C314 9901   2.867   4.694   3.881
   99SAPC  H14X 9902   2.898   4.643   3.975
   99SAPC  H14Y 9903   2.764   4.657   3.861
   99SAPC  C315 9904   2.845   4.845   3.898
   99SAPC  H15X 9905   2.804   4.890   3.805
   99SAPC  H15Y 9906   2.933   4.907   3.924
   99SAPC  C316 9907   2.732   4.895   4.000
   99SAPC  H16X 9908   2.641   4.836   3.976
   99SAPC  H16Y 9909   2.725   5.005   3.995
   99SAPC  C317 9910   2.775   4.853   4.140
   99SAPC  H17X 9911   2.862   4.912   4.175
   99SAPC  H17Y 9912   2.809   4.747   4.143
   99SAPC  C318 9913   2.654   4.872   4.240
   99SAPC  H18X 9914   2.679   4.847   4.345
   99SAPC  H18Y 9915   2.560   4.823   4.206
   99SAPC  H18Z 9916   2.636   4.982   4.238
  100SAPC     N 9917   1.792   4.392   1.360
  100SAPC   C12 9918   1.808   4.417   1.505
  100SAPC  H12A 9919   1.721   4.469   1.543
  100SAPC  H12B 9920   1.891   4.478   1.537
  100SAPC   C13 9921   1.908   4.307   1.316
  100SAPC  H13A 9922   2.000   4.361   1.333
  100SAPC  H13B 9923   1.920   4.215   1.372
  100SAPC  H13C 9924   1.901   4.292   1.209
  100SAPC   C14 9925   1.661   4.326   1.332
  100SAPC  H14A 9926   1.572   4.384   1.350
  100SAPC  H14B 9927   1.656   4.299   1.227
  100SAPC  H14C 9928   1.655   4.236   1.391
  100SAPC   C15 9929   1.798   4.514   1.283
  100SAPC  H15A 9930   1.895   4.561   1.295
  100SAPC  H15B 9931   1.784   4.494   1.178
  100SAPC  H15C 9932   1.733   4.595   1.312
  100SAPC   C11 9933   1.809   4.295   1.611
  100SAPC  H11A 9934   1.818   4.354   1.705
  100SAPC  H11B 9935   1.901   4.234   1.601
  100SAPC     P 9936   1.570   4.249   1.702
  100SAPC   O13 9937   1.549   4.396   1.673
  100SAPC   O14 9938   1.457   4.162   1.677
  100SAPC   O12 9939   1.693   4.211   1.611
  100SAPC   O11 9940   1.630   4.224   1.848
  100SAPC    C1 9941   1.680   4.093   1.877
  100SAPC    HA 9942   1.648   4.022   1.799
  100SAPC    HB 9943   1.790   4.088   1.894
  100SAPC    C2 9944   1.610   4.036   2.003
  100SAPC    HS 9945   1.502   4.045   1.977
  100SAPC   O21 9946   1.662   4.107   2.116
  100SAPC   C21 9947   1.568   4.145   2.203
  100SAPC   O22 9948   1.446   4.139   2.183
  100SAPC   C22 9949   1.635   4.183   2.330
  100SAPC   H2R 9950   1.731   4.129   2.338
  100SAPC   H2S 9951   1.664   4.290   2.328
  100SAPC    C3 9952   1.647   3.885   2.017
  100SAPC    HX 9953   1.758   3.876   2.020
  100SAPC    HY 9954   1.597   3.823   1.940
  100SAPC   O31 9955   1.593   3.826   2.143
  100SAPC   C31 9956   1.678   3.770   2.226
  100SAPC   O32 9957   1.802   3.753   2.212
  100SAPC   C32 9958   1.598   3.734   2.351
  100SAPC   H2X 9959   1.587   3.624   2.358
  100SAPC   H2Y 9960   1.494   3.774   2.351
  100SAPC   C23 9961   1.552   4.146   2.452
  100SAPC   H3R 9962   1.505   4.046   2.437
  100SAPC   H3S 9963   1.470   4.220   2.465
  100SAPC   C24 9964   1.638   4.143   2.583
  100SAPC   H4R 9965   1.667   4.250   2.598
  100SAPC   H4S 9966   1.718   4.068   2.566
  100SAPC   C25 9967   1.547   4.108   2.701
  100SAPC   H5R 9968   1.438   4.102   2.684
  100SAPC   C26 9969   1.590   4.077   2.825
  100SAPC   H6R 9970   1.525   4.050   2.910
  100SAPC   C27 9971   1.735   4.094   2.863
  100SAPC   H7R 9972   1.796   4.131   2.778
  100SAPC   H7S 9973   1.792   4.002   2.890
  100SAPC   C28 9974   1.758   4.191   2.976
  100SAPC   H8R 9975   1.733   4.296   2.955
  100SAPC   C29 9976   1.777   4.156   3.107
  100SAPC   H9R 9977   1.782   4.230   3.188
  100SAPC  C210 9978   1.793   4.018   3.172
  100SAPC  H10R 9979   1.894   4.014   3.219
  100SAPC  H10S 9980   1.808   3.930   3.106
  100SAPC  C211 9981   1.681   3.999   3.269
  100SAPC  H11R 9982   1.585   3.974   3.220
  100SAPC  C212 9983   1.684   4.012   3.399
  100SAPC  H12R 9984   1.588   4.006   3.453
  100SAPC  C213 9985   1.801   4.058   3.484
  100SAPC  H13R 9986   1.770   4.158   3.520
  100SAPC  H13S 9987   1.886   4.066   3.413
  100SAPC  C214 9988   1.840   3.954   3.586
  100SAPC  H14R 9989   1.855   3.851   3.551
  100SAPC  C215 9990   1.867   3.969   3.714
  100SAPC  H15R 9991   1.898   3.888   3.782
  100SAPC  C216 9992   1.861   4.100   3.788
  100SAPC  H16R 9993   1.855   4.191   3.724
  100SAPC  H16S 9994   1.955   4.113   3.847
  100SAPC  C217 9995   1.744   4.115   3.888
  100SAPC  H17R 9996   1.647   4.128   3.835
  100SAPC  H17S 9997   1.751   4.218   3.928
  100SAPC  C218 9998   1.732   4.019   4.004
  100SAPC  H18R 9999   1.821   4.022   4.071
  100SAPC  H18S10000   1.750   3.915   3.969
  100SAPC  C21910001   1.607   4.041   4.087
  100SAPC  H19R10002   1.602   4.146   4.123
  100SAPC  H19S10003   1.594   3.958   4.160
  100SAPC  C22010004   1.482   4.026   3.997
  100SAPC  H20R10005   1.486   3.933   3.936
  100SAPC  H20S10006   1.473   4.119   3.936
  100SAPC  H20T10007   1.389   4.018   4.056
  100SAPC   C3310008   1.673   3.785   2.474
  100SAPC   H3X10009   1.598   3.789   2.556
  100SAPC   H3Y10010   1.724   3.882   2.455
  100SAPC   C3410011   1.775   3.685   2.520
  100SAPC   H4X10012   1.869   3.708   2.465
  100SAPC   H4Y10013   1.750   3.576   2.512
  100SAPC   C3510014   1.810   3.705   2.670
  100SAPC   H5X10015   1.708   3.705   2.713
  100SAPC   H5Y10016   1.852   3.807   2.682
  100SAPC   C3610017   1.909   3.598   2.721
  100SAPC   H6X10018   1.997   3.586   2.654
  100SAPC   H6Y10019   1.851   3.504   2.727
  100SAPC   C3710020   1.964   3.617   2.867
  100SAPC   H7X10021   2.001   3.721   2.861
  100SAPC   H7Y10022   2.047   3.548   2.894
  100SAPC   C3810023   1.854   3.605   2.973
  100SAPC   H8X10024   1.802   3.511   2.945
  100SAPC   H8Y10025   1.778   3.685   2.961
  100SAPC   C3910026   1.903   3.593   3.121
  100SAPC   H9X10027   1.966   3.675   3.161
  100SAPC   H9Y10028   1.966   3.505   3.143
  100SAPC  C31010029   1.776   3.593   3.211
  100SAPC  H10X10030   1.727   3.496   3.186
  100SAPC  H10Y10031   1.713   3.681   3.187
  100SAPC  C31110032   1.802   3.591   3.364
  100SAPC  H11X10033   1.706   3.603   3.420
  100SAPC  H11Y10034   1.859   3.682   3.392
  100SAPC  C31210035   1.871   3.469   3.411
  100SAPC  H12X10036   1.967   3.473   3.354
  100SAPC  H12Y10037   1.813   3.381   3.375
  100SAPC  C31310038   1.897   3.443   3.559
  100SAPC  H13X10039   1.959   3.351   3.557
  100SAPC  H13Y10040   1.804   3.415   3.613
  100SAPC  C31410041   1.988   3.552   3.621
  100SAPC  H14X10042   1.931   3.646   3.639
  100SAPC  H14Y10043   2.078   3.579   3.562
  100SAPC  C31510044   2.033   3.496   3.762
  100SAPC  H15X10045   2.129   3.441   3.747
  100SAPC  H15Y10046   1.961   3.425   3.809
  100SAPC  C31610047   2.078   3.617   3.840
  100SAPC  H16X10048   2.001   3.697   3.853
  100SAPC  H16Y10049   2.154   3.670   3.779
  100SAPC  C31710050   2.140   3.583   3.986
  100SAPC  H17X10051   2.058   3.574   4.061
  100SAPC  H17Y10052   2.205   3.669   4.009
  100SAPC  C31810053   2.218   3.456   3.997
  100SAPC  H18X10054   2.290   3.448   3.913
  100SAPC  H18Y10055   2.165   3.358   4.002
  100SAPC  H18Z10056   2.280   3.458   4.089
  101OSM      N10057   3.987   2.828   7.101
  101OSM    C1510058   4.114   2.761   7.135
  101OSM   H15A10059   4.127   2.684   7.061
  101OSM   H15B10060   4.119   2.727   7.238
  101OSM   H15C10061   4.195   2.829   7.113
  101OSM    C1410062   3.867   2.746   7.135
  101OSM   H14A10063   3.854   2.673   7.056
  101OSM   H14B10064   3.777   2.806   7.129
  101OSM   H14C10065   3.867   2.694   7.230
  101OSM    C1310066   3.995   2.949   7.191
  101OSM   H13A10067   3.971   2.923   7.293
  101OSM   H13B10068   3.935   3.031   7.154
  101OSM   H13C10069   4.095   2.990   7.190
  101OSM    C1210070   4.003   2.871   6.955
  101OSM   H12A10071   4.084   2.941   6.939
  101OSM   H12B10072   3.910   2.920   6.930
  101OSM    C1110073   4.039   2.758   6.857
  101OSM   H11A10074   4.006   2.793   6.757
  101OSM   H11B10075   3.984   2.663   6.873
  101OSM      P10076   4.249   2.599   6.821
  101OSM    O1310077   4.392   2.625   6.858
  101OSM    O1410078   4.183   2.489   6.889
  101OSM    O1110079   4.228   2.574   6.668
  101OSM    O1210080   4.179   2.733   6.852
  101OSM    C1S10081   4.249   2.674   6.563
  101OSM    H1S10082   4.357   2.681   6.537
  101OSM    H1T10083   4.215   2.777   6.588
  101OSM     NF10084   4.236   2.695   6.308
  101OSM    HNF10085   4.179   2.766   6.269
  101OSM    C2S10086   4.175   2.630   6.429
  101OSM    H2S10087   4.197   2.522   6.418
  101OSM    C3S10088   4.025   2.652   6.440
  101OSM    H3S10089   4.006   2.761   6.456
  101OSM     O310090   3.963   2.579   6.544
  101OSM    HO310091   4.033   2.556   6.606
  101OSM    C4S10092   3.947   2.619   6.309
  101OSM    H4S10093   3.916   2.514   6.304
  101OSM    C5S10094   3.913   2.707   6.214
  101OSM    H5S10095   3.950   2.810   6.222
  101OSM    C6S10096   3.825   2.654   6.100
  101OSM    H6S10097   3.727   2.706   6.101
  101OSM    H6T10098   3.817   2.543   6.093
  101OSM    C7S10099   3.880   2.685   5.956
  101OSM    H7S10100   3.985   2.648   5.958
  101OSM    H7T10101   3.863   2.793   5.940
  101OSM    C8S10102   3.800   2.609   5.856
  101OSM    H8S10103   3.696   2.626   5.889
  101OSM    H8T10104   3.810   2.499   5.875
  101OSM    C9S10105   3.813   2.657   5.715
  101OSM    H9S10106   3.907   2.609   5.678
  101OSM    H9T10107   3.825   2.767   5.715
  101OSM   C10S10108   3.699   2.600   5.624
  101OSM   H10S10109   3.607   2.654   5.656
  101OSM   H10T10110   3.680   2.492   5.637
  101OSM   C11S10111   3.727   2.638   5.476
  101OSM   H11S10112   3.822   2.588   5.449
  101OSM   H11T10113   3.750   2.747   5.483
  101OSM   C12S10114   3.619   2.598   5.373
  101OSM   H12S10115   3.543   2.679   5.382
  101OSM   H12T10116   3.583   2.495   5.395
  101OSM   C13S10117   3.692   2.599   5.239
  101OSM   H13S10118   3.772   2.522   5.237
  101OSM   H13T10119   3.739   2.698   5.220
  101OSM   C14S10120   3.588   2.569   5.130
  101OSM   H14S10121   3.509   2.645   5.149
  101OSM   H14T10122   3.543   2.472   5.157
  101OSM   C15S10123   3.641   2.564   4.983
  101OSM   H15S10124   3.727   2.495   4.991
  101OSM   H15T10125   3.688   2.663   4.963
  101OSM   C16S10126   3.535   2.523   4.871
  101OSM   H16S10127   3.509   2.419   4.900
  101OSM   H16T10128   3.587   2.512   4.774
  101OSM   C17S10129   3.408   2.609   4.862
  101OSM   H17S10130   3.440   2.715   4.874
  101OSM   H17T10131   3.345   2.600   4.953
  101OSM   C18S10132   3.322   2.575   4.743
  101OSM   H18S10133   3.275   2.474   4.750
  101OSM   H18T10134   3.389   2.567   4.654
  101OSM   H18U10135   3.240   2.647   4.724
  101OSM    C1F10136   4.348   2.655   6.248
  101OSM     OF10137   4.411   2.552   6.282
  101OSM    C2F10138   4.390   2.740   6.123
  101OSM    H2F10139   4.406   2.847   6.150
  101OSM    H2G10140   4.304   2.729   6.053
  101OSM    C3F10141   4.498   2.665   6.036
  101OSM    H3F10142   4.491   2.554   6.024
  101OSM    H3G10143   4.597   2.671   6.088
  101OSM    C4F10144   4.508   2.739   5.908
  101OSM    H4F10145   4.517   2.849   5.923
  101OSM    H4G10146   4.418   2.721   5.846
  101OSM    C5F10147   4.614   2.677   5.817
  101OSM    H5F10148   4.580   2.573   5.795
  101OSM    H5G10149   4.707   2.672   5.877
  101OSM    C6F10150   4.633   2.752   5.680
  101OSM    H6F10151   4.739   2.732   5.655
  101OSM    H6G10152   4.617   2.859   5.705
  101OSM    C7F10153   4.537   2.703   5.568
  101OSM    H7F10154   4.433   2.728   5.599
  101OSM    H7G10155   4.542   2.592   5.561
  101OSM    C8F10156   4.557   2.767   5.425
  101OSM    H8F10157   4.665   2.774   5.401
  101OSM    H8G10158   4.522   2.873   5.421
  101OSM    C9F10159   4.472   2.701   5.318
  101OSM    H9F10160   4.385   2.643   5.351
  101OSM   C10F10161   4.496   2.706   5.185
  101OSM   H10F10162   4.419   2.659   5.122
  101OSM   C11F10163   4.603   2.780   5.115
  101OSM   H11F10164   4.681   2.715   5.070
  101OSM   H11G10165   4.656   2.848   5.185
  101OSM   C12F10166   4.552   2.867   4.997
  101OSM   H12F10167   4.632   2.938   4.967
  101OSM   H12G10168   4.469   2.929   5.039
  101OSM   C13F10169   4.504   2.794   4.868
  101OSM   H13F10170   4.412   2.738   4.894
  101OSM   H13G10171   4.587   2.730   4.832
  101OSM   C14F10172   4.463   2.896   4.762
  101OSM   H14F10173   4.560   2.943   4.738
  101OSM   H14G10174   4.397   2.974   4.806
  101OSM   C15F10175   4.399   2.826   4.641
  101OSM   H15F10176   4.302   2.777   4.662
  101OSM   H15G10177   4.473   2.749   4.608
  101OSM   C16F10178   4.356   2.928   4.535
  101OSM   H16F10179   4.431   3.006   4.509
  101OSM   H16G10180   4.278   2.987   4.588
  101OSM   C17F10181   4.285   2.862   4.417
  101OSM   H17F10182   4.223   2.777   4.451
  101OSM   H17G10183   4.364   2.819   4.352
  101OSM   C18F10184   4.182   2.943   4.323
  101OSM   H18F10185   4.166   2.895   4.225
  101OSM   H18G10186   4.212   3.049   4.304
  101OSM   H18H10187   4.087   2.953   4.380
  102OSM      N10188   4.606   2.367   6.858
  102OSM    C1510189   4.651   2.501   6.899
  102OSM   H15A10190   4.729   2.544   6.839
  102OSM   H15B10191   4.692   2.487   6.998
  102OSM   H15C10192   4.571   2.573   6.900
  102OSM    C1410193   4.723   2.279   6.840
  102OSM   H14A10194   4.697   2.176   6.820
  102OSM   H14B10195   4.776   2.267   6.934
  102OSM   H14C10196   4.792   2.316   6.766
  102OSM    C1310197   4.520   2.322   6.968
  102OSM   H13A10198   4.439   2.388   6.995
  102OSM   H13B10199   4.574   2.301   7.058
  102OSM   H13C10200   4.476   2.228   6.937
  102OSM    C1210201   4.526   2.378   6.732
  102OSM   H12A10202   4.599   2.397   6.655
  102OSM   H12B10203   4.452   2.456   6.744
  102OSM    C1110204   4.435   2.249   6.693
  102OSM   H11A10205   4.368   2.282   6.611
  102OSM   H11B10206   4.368   2.234   6.781
  102OSM      P10207   4.475   1.987   6.675
  102OSM    O1310208   4.597   1.906   6.668
  102OSM    O1410209   4.393   1.970   6.802
  102OSM    O1110210   4.388   1.964   6.545
  102OSM    O1210211   4.508   2.141   6.659
  102OSM    C1S10212   4.451   1.994   6.417
  102OSM    H1S10213   4.519   1.914   6.380
  102OSM    H1T10214   4.507   2.090   6.419
  102OSM     NF10215   4.427   2.040   6.192
  102OSM    HNF10216   4.479   2.124   6.181
  102OSM    C2S10217   4.349   2.027   6.309
  102OSM    H2S10218   4.273   1.948   6.290
  102OSM    C3S10219   4.272   2.158   6.339
  102OSM    H3S10220   4.346   2.225   6.387
  102OSM     O310221   4.189   2.136   6.446
  102OSM    HO310222   4.241   2.065   6.484
  102OSM    C4S10223   4.198   2.220   6.219
  102OSM    H4S10224   4.132   2.150   6.167
  102OSM    C5S10225   4.221   2.334   6.150
  102OSM    H5S10226   4.310   2.394   6.177
  102OSM    C6S10227   4.146   2.384   6.030
  102OSM    H6S10228   4.093   2.477   6.063
  102OSM    H6T10229   4.069   2.307   6.007
  102OSM    C7S10230   4.245   2.409   5.915
  102OSM    H7S10231   4.296   2.314   5.888
  102OSM    H7T10232   4.315   2.490   5.944
  102OSM    C8S10233   4.153   2.454   5.795
  102OSM    H8S10234   4.118   2.559   5.798
  102OSM    H8T10235   4.059   2.397   5.806
  102OSM    C9S10236   4.207   2.406   5.651
  102OSM    H9S10237   4.219   2.296   5.646
  102OSM    H9T10238   4.314   2.438   5.655
  102OSM   C10S10239   4.126   2.468   5.534
  102OSM   H10S10240   4.119   2.578   5.523
  102OSM   H10T10241   4.027   2.424   5.557
  102OSM   C11S10242   4.169   2.412   5.398
  102OSM   H11S10243   4.205   2.312   5.432
  102OSM   H11T10244   4.262   2.460   5.361
  102OSM   C12S10245   4.050   2.412   5.303
  102OSM   H12S10246   3.993   2.507   5.310
  102OSM   H12T10247   3.968   2.347   5.341
  102OSM   C13S10248   4.082   2.371   5.158
  102OSM   H13S10249   3.987   2.357   5.103
  102OSM   H13T10250   4.133   2.273   5.153
  102OSM   C14S10251   4.166   2.474   5.084
  102OSM   H14S10252   4.248   2.507   5.151
  102OSM   H14T10253   4.105   2.563   5.059
  102OSM   C15S10254   4.236   2.432   4.958
  102OSM   H15S10255   4.300   2.342   4.975
  102OSM   H15T10256   4.296   2.520   4.925
  102OSM   C16S10257   4.132   2.392   4.858
  102OSM   H16S10258   4.060   2.476   4.857
  102OSM   H16T10259   4.078   2.299   4.887
  102OSM   C17S10260   4.172   2.361   4.715
  102OSM   H17S10261   4.080   2.377   4.655
  102OSM   H17T10262   4.218   2.262   4.696
  102OSM   C18S10263   4.271   2.464   4.653
  102OSM   H18S10264   4.302   2.429   4.553
  102OSM   H18T10265   4.354   2.458   4.727
  102OSM   H18U10266   4.236   2.570   4.652
  102OSM    C1F10267   4.467   1.937   6.119
  102OSM     OF10268   4.429   1.823   6.133
  102OSM    C2F10269   4.551   1.972   6.000
  102OSM    H2F10270   4.560   1.875   5.947
  102OSM    H2G10271   4.647   2.002   6.047
  102OSM    C3F10272   4.501   2.081   5.901
  102OSM    H3F10273   4.497   2.177   5.956
  102OSM    H3G10274   4.398   2.046   5.876
  102OSM    C4F10275   4.590   2.098   5.775
  102OSM    H4F10276   4.613   2.003   5.724
  102OSM    H4G10277   4.692   2.136   5.798
  102OSM    C5F10278   4.524   2.170   5.664
  102OSM    H5F10279   4.528   2.278   5.690
  102OSM    H5G10280   4.419   2.135   5.661
  102OSM    C6F10281   4.592   2.142   5.533
  102OSM    H6F10282   4.599   2.032   5.516
  102OSM    H6G10283   4.696   2.181   5.531
  102OSM    C7F10284   4.516   2.211   5.421
  102OSM    H7F10285   4.509   2.317   5.452
  102OSM    H7G10286   4.410   2.178   5.429
  102OSM    C8F10287   4.569   2.177   5.281
  102OSM    H8F10288   4.497   2.214   5.204
  102OSM    H8G10289   4.569   2.067   5.268
  102OSM    C9F10290   4.708   2.223   5.248
  102OSM    H9F10291   4.798   2.168   5.281
  102OSM   C10F10292   4.736   2.313   5.155
  102OSM   H10F10293   4.841   2.336   5.133
  102OSM   C11F10294   4.638   2.398   5.080
  102OSM   H11F10295   4.648   2.505   5.108
  102OSM   H11G10296   4.531   2.373   5.098
  102OSM   C12F10297   4.650   2.404   4.925
  102OSM   H12F10298   4.751   2.445   4.900
  102OSM   H12G10299   4.573   2.477   4.894
  102OSM   C13F10300   4.638   2.269   4.852
  102OSM   H13F10301   4.558   2.211   4.902
  102OSM   H13G10302   4.734   2.214   4.864
  102OSM   C14F10303   4.598   2.273   4.707
  102OSM   H14F10304   4.491   2.243   4.701
  102OSM   H14G10305   4.671   2.208   4.654
  102OSM   C15F10306   4.624   2.405   4.633
  102OSM   H15F10307   4.731   2.435   4.642
  102OSM   H15G10308   4.562   2.483   4.682
  102OSM   C16F10309   4.599   2.389   4.484
  102OSM   H16F10310   4.492   2.375   4.458
  102OSM   H16G10311   4.659   2.299   4.456
  102OSM   C17F10312   4.643   2.511   4.405
  102OSM   H17F10313   4.751   2.515   4.432
  102OSM   H17G10314   4.599   2.603   4.449
  102OSM   C18F10315   4.625   2.491   4.251
  102OSM   H18F10316   4.518   2.479   4.224
  102OSM   H18G10317   4.673   2.398   4.212
  102OSM   H18H10318   4.663   2.578   4.193
  103OSM      N10319   4.116   4.954   6.824
  103OSM    C1510320   4.122   5.069   6.912
  103OSM   H15A10321   4.024   5.078   6.956
  103OSM   H15B10322   4.158   5.159   6.864
  103OSM   H15C10323   4.181   5.048   7.000
  103OSM    C1410324   4.248   4.891   6.811
  103OSM   H14A10325   4.289   4.862   6.906
  103OSM   H14B10326   4.321   4.950   6.758
  103OSM   H14C10327   4.254   4.799   6.755
  103OSM    C1310328   4.020   4.853   6.886
  103OSM   H13A10329   4.049   4.812   6.981
  103OSM   H13B10330   4.006   4.772   6.816
  103OSM   H13C10331   3.923   4.895   6.907
  103OSM    C1210332   4.068   5.005   6.689
  103OSM   H12A10333   4.141   5.078   6.658
  103OSM   H12B10334   3.974   5.057   6.694
  103OSM    C1110335   4.050   4.912   6.560
  103OSM   H11A10336   4.145   4.854   6.555
  103OSM   H11B10337   4.028   4.956   6.461
  103OSM      P10338   3.945   4.672   6.546
  103OSM    O1310339   4.008   4.583   6.647
  103OSM    O1410340   3.814   4.640   6.494
  103OSM    O1110341   4.043   4.685   6.422
  103OSM    O1210342   3.942   4.819   6.599
  103OSM    C1S10343   4.118   4.564   6.388
  103OSM    H1S10344   4.065   4.471   6.415
  103OSM    H1T10345   4.214   4.550   6.442
  103OSM     NF10346   4.188   4.439   6.180
  103OSM    HNF10347   4.285   4.420   6.168
  103OSM    C2S10348   4.161   4.566   6.233
  103OSM    H2S10349   4.072   4.600   6.176
  103OSM    C3S10350   4.264   4.684   6.210
  103OSM    H3S10351   4.358   4.659   6.264
  103OSM     O310352   4.221   4.813   6.260
  103OSM    HO310353   4.160   4.800   6.333
  103OSM    C4S10354   4.313   4.702   6.065
  103OSM    H4S10355   4.235   4.678   5.991
  103OSM    C5S10356   4.441   4.711   6.021
  103OSM    H5S10357   4.524   4.705   6.093
  103OSM    C6S10358   4.476   4.723   5.877
  103OSM    H6S10359   4.550   4.647   5.844
  103OSM    H6T10360   4.521   4.825   5.878
  103OSM    C7S10361   4.372   4.725   5.774
  103OSM    H7S10362   4.303   4.809   5.795
  103OSM    H7T10363   4.314   4.630   5.782
  103OSM    C8S10364   4.421   4.749   5.631
  103OSM    H8S10365   4.520   4.700   5.615
  103OSM    H8T10366   4.429   4.856   5.600
  103OSM    C9S10367   4.324   4.681   5.533
  103OSM    H9S10368   4.219   4.719   5.539
  103OSM    H9T10369   4.313   4.573   5.554
  103OSM   C10S10370   4.372   4.702   5.388
  103OSM   H10S10371   4.466   4.643   5.381
  103OSM   H10T10372   4.404   4.808   5.374
  103OSM   C11S10373   4.275   4.670   5.273
  103OSM   H11S10374   4.196   4.749   5.269
  103OSM   H11T10375   4.222   4.576   5.299
  103OSM   C12S10376   4.337   4.657   5.133
  103OSM   H12S10377   4.270   4.590   5.074
  103OSM   H12T10378   4.442   4.621   5.140
  103OSM   C13S10379   4.348   4.788   5.055
  103OSM   H13S10380   4.417   4.861   5.103
  103OSM   H13T10381   4.252   4.844   5.061
  103OSM   C14S10382   4.375   4.771   4.908
  103OSM   H14S10383   4.384   4.871   4.861
  103OSM   H14T10384   4.297   4.711   4.857
  103OSM   C15S10385   4.497   4.685   4.880
  103OSM   H15S10386   4.479   4.579   4.907
  103OSM   H15T10387   4.587   4.706   4.942
  103OSM   C16S10388   4.525   4.687   4.723
  103OSM   H16S10389   4.540   4.797   4.714
  103OSM   H16T10390   4.424   4.660   4.683
  103OSM   C17S10391   4.623   4.581   4.675
  103OSM   H17S10392   4.638   4.605   4.568
  103OSM   H17T10393   4.579   4.481   4.695
  103OSM   C18S10394   4.754   4.581   4.747
  103OSM   H18S10395   4.786   4.684   4.775
  103OSM   H18T10396   4.834   4.529   4.689
  103OSM   H18U10397   4.752   4.531   4.846
  103OSM    C1F10398   4.093   4.344   6.175
  103OSM     OF10399   3.981   4.370   6.209
  103OSM    C2F10400   4.141   4.203   6.123
  103OSM    H2F10401   4.122   4.133   6.208
  103OSM    H2G10402   4.250   4.211   6.106
  103OSM    C3F10403   4.056   4.159   6.000
  103OSM    H3F10404   3.950   4.189   6.019
  103OSM    H3G10405   4.062   4.050   5.983
  103OSM    C4F10406   4.093   4.231   5.871
  103OSM    H4F10407   4.109   4.340   5.885
  103OSM    H4G10408   3.998   4.234   5.813
  103OSM    C5F10409   4.206   4.158   5.802
  103OSM    H5F10410   4.170   4.058   5.771
  103OSM    H5G10411   4.280   4.141   5.883
  103OSM    C6F10412   4.263   4.250   5.691
  103OSM    H6F10413   4.354   4.197   5.656
  103OSM    H6G10414   4.291   4.351   5.729
  103OSM    C7F10415   4.195   4.249   5.554
  103OSM    H7F10416   4.260   4.295   5.476
  103OSM    H7G10417   4.104   4.307   5.578
  103OSM    C8F10418   4.161   4.109   5.493
  103OSM    H8F10419   4.086   4.140   5.417
  103OSM    H8G10420   4.111   4.048   5.571
  103OSM    C9F10421   4.271   4.040   5.422
  103OSM    H9F10422   4.307   3.953   5.479
  103OSM   C10F10423   4.324   4.071   5.295
  103OSM   H10F10424   4.405   4.002   5.265
  103OSM   C11F10425   4.277   4.189   5.212
  103OSM   H11F10426   4.346   4.271   5.240
  103OSM   H11G10427   4.171   4.215   5.236
  103OSM   C12F10428   4.280   4.175   5.055
  103OSM   H12F10429   4.227   4.081   5.028
  103OSM   H12G10430   4.385   4.161   5.023
  103OSM   C13F10431   4.232   4.298   4.974
  103OSM   H13F10432   4.285   4.392   4.999
  103OSM   H13G10433   4.128   4.309   5.012
  103OSM   C14F10434   4.245   4.295   4.822
  103OSM   H14F10435   4.200   4.209   4.769
  103OSM   H14G10436   4.356   4.301   4.812
  103OSM   C15F10437   4.184   4.425   4.765
  103OSM   H15F10438   4.237   4.512   4.810
  103OSM   H15G10439   4.076   4.424   4.793
  103OSM   C16F10440   4.195   4.432   4.623
  103OSM   H16F10441   4.133   4.360   4.565
  103OSM   H16G10442   4.302   4.412   4.603
  103OSM   C17F10443   4.168   4.575   4.567
  103OSM   H17F10444   4.236   4.641   4.625
  103OSM   H17G10445   4.066   4.604   4.600
  103OSM   C18F10446   4.195   4.575   4.419
  103OSM   H18F10447   4.136   4.497   4.366
  103OSM   H18G10448   4.303   4.558   4.399
  103OSM   H18H10449   4.170   4.676   4.380
  104OSM      N10450   5.021   3.423   6.926
  104OSM    C1510451   4.871   3.418   6.931
  104OSM   H15A10452   4.836   3.518   6.910
  104OSM   H15B10453   4.836   3.385   7.028
  104OSM   H15C10454   4.827   3.349   6.861
  104OSM    C1410455   5.060   3.427   6.782
  104OSM   H14A10456   4.991   3.366   6.726
  104OSM   H14B10457   5.163   3.400   6.764
  104OSM   H14C10458   5.039   3.526   6.743
  104OSM    C1310459   5.077   3.551   6.988
  104OSM   H13A10460   5.037   3.643   6.946
  104OSM   H13B10461   5.183   3.553   6.972
  104OSM   H13C10462   5.072   3.564   7.095
  104OSM    C1210463   5.085   3.301   6.994
  104OSM   H12A10464   5.054   3.213   6.941
  104OSM   H12B10465   5.043   3.285   7.092
  104OSM    C1110466   5.244   3.295   7.010
  104OSM   H11A10467   5.272   3.211   7.077
  104OSM   H11B10468   5.265   3.394   7.055
  104OSM      P10469   5.420   3.357   6.826
  104OSM    O1310470   5.374   3.486   6.770
  104OSM    O1410471   5.535   3.358   6.923
  104OSM    O1110472   5.466   3.273   6.700
  104OSM    O1210473   5.297   3.275   6.878
  104OSM    C1S10474   5.390   3.283   6.572
  104OSM    H1S10475   5.404   3.382   6.525
  104OSM    H1T10476   5.282   3.273   6.594
  104OSM     NF10477   5.375   3.191   6.345
  104OSM    HNF10478   5.308   3.119   6.327
  104OSM    C2S10479   5.441   3.174   6.474
  104OSM    H2S10480   5.551   3.181   6.466
  104OSM    C3S10481   5.416   3.035   6.536
  104OSM    H3S10482   5.308   3.034   6.561
  104OSM     O310483   5.473   3.018   6.663
  104OSM    HO310484   5.504   3.106   6.686
  104OSM    C4S10485   5.446   2.919   6.442
  104OSM    H4S10486   5.353   2.875   6.402
  104OSM    C5S10487   5.550   2.837   6.435
  104OSM    H5S10488   5.635   2.854   6.503
  104OSM    C6S10489   5.562   2.716   6.352
  104OSM    H6S10490   5.494   2.730   6.265
  104OSM    H6T10491   5.545   2.618   6.402
  104OSM    C7S10492   5.704   2.692   6.294
  104OSM    H7S10493   5.783   2.686   6.373
  104OSM    H7T10494   5.707   2.776   6.222
  104OSM    C8S10495   5.711   2.572   6.199
  104OSM    H8S10496   5.628   2.561   6.126
  104OSM    H8T10497   5.698   2.488   6.270
  104OSM    C9S10498   5.852   2.550   6.135
  104OSM    H9S10499   5.854   2.445   6.099
  104OSM    H9T10500   5.926   2.579   6.213
  104OSM   C10S10501   5.870   2.623   5.998
  104OSM   H10S10502   5.858   2.732   6.018
  104OSM   H10T10503   5.781   2.594   5.938
  104OSM   C11S10504   6.004   2.584   5.941
  104OSM   H11S10505   6.036   2.478   5.949
  104OSM   H11T10506   6.087   2.635   5.994
  104OSM   C12S10507   6.007   2.604   5.786
  104OSM   H12S10508   5.935   2.537   5.734
  104OSM   H12T10509   6.113   2.586   5.760
  104OSM   C13S10510   5.976   2.755   5.749
  104OSM   H13S10511   6.040   2.821   5.812
  104OSM   H13T10512   5.869   2.773   5.769
  104OSM   C14S10513   5.990   2.787   5.595
  104OSM   H14S10514   5.957   2.695   5.541
  104OSM   H14T10515   6.098   2.810   5.582
  104OSM   C15S10516   5.910   2.909   5.547
  104OSM   H15S10517   5.806   2.900   5.584
  104OSM   H15T10518   5.915   2.907   5.436
  104OSM   C16S10519   5.969   3.037   5.600
  104OSM   H16S10520   6.078   3.044   5.584
  104OSM   H16T10521   5.945   3.048   5.708
  104OSM   C17S10522   5.903   3.161   5.538
  104OSM   H17S10523   5.796   3.174   5.564
  104OSM   H17T10524   5.913   3.166   5.427
  104OSM   C18S10525   5.966   3.292   5.585
  104OSM   H18S10526   5.935   3.324   5.687
  104OSM   H18T10527   5.929   3.376   5.523
  104OSM   H18U10528   6.077   3.286   5.583
  104OSM    C1F10529   5.390   3.287   6.256
  104OSM     OF10530   5.480   3.368   6.254
  104OSM    C2F10531   5.269   3.299   6.167
  104OSM    H2F10532   5.174   3.311   6.224
  104OSM    H2G10533   5.273   3.211   6.099
  104OSM    C3F10534   5.256   3.421   6.071
  104OSM    H3F10535   5.345   3.444   6.008
  104OSM    H3G10536   5.234   3.508   6.135
  104OSM    C4F10537   5.132   3.425   5.974
  104OSM    H4F10538   5.101   3.532   5.969
  104OSM    H4G10539   5.046   3.377   6.026
  104OSM    C5F10540   5.161   3.365   5.836
  104OSM    H5F10541   5.169   3.255   5.847
  104OSM    H5G10542   5.259   3.410   5.809
  104OSM    C6F10543   5.056   3.403   5.730
  104OSM    H6F10544   5.022   3.508   5.748
  104OSM    H6G10545   4.966   3.339   5.743
  104OSM    C7F10546   5.109   3.395   5.587
  104OSM    H7F10547   5.162   3.297   5.588
  104OSM    H7G10548   5.177   3.477   5.555
  104OSM    C8F10549   4.994   3.385   5.485
  104OSM    H8F10550   4.944   3.484   5.482
  104OSM    H8G10551   4.916   3.321   5.531
  104OSM    C9F10552   5.034   3.347   5.348
  104OSM    H9F10553   5.005   3.250   5.307
  104OSM   C10F10554   5.094   3.431   5.263
  104OSM   H10F10555   5.123   3.398   5.162
  104OSM   C11F10556   5.136   3.574   5.285
  104OSM   H11F10557   5.242   3.594   5.308
  104OSM   H11G10558   5.080   3.614   5.372
  104OSM   C12F10559   5.100   3.671   5.172
  104OSM   H12F10560   5.139   3.767   5.211
  104OSM   H12G10561   4.990   3.691   5.174
  104OSM   C13F10562   5.150   3.641   5.029
  104OSM   H13F10563   5.099   3.551   4.986
  104OSM   H13G10564   5.256   3.610   5.033
  104OSM   C14F10565   5.138   3.762   4.930
  104OSM   H14F10566   5.191   3.845   4.982
  104OSM   H14G10567   5.033   3.793   4.912
  104OSM   C15F10568   5.206   3.736   4.788
  104OSM   H15F10569   5.140   3.683   4.715
  104OSM   H15G10570   5.294   3.671   4.807
  104OSM   C16F10571   5.253   3.865   4.725
  104OSM   H16F10572   5.327   3.917   4.790
  104OSM   H16G10573   5.165   3.933   4.725
  104OSM   C17F10574   5.313   3.840   4.586
  104OSM   H17F10575   5.385   3.755   4.588
  104OSM   H17G10576   5.373   3.930   4.563
  104OSM   C18F10577   5.211   3.822   4.474
  104OSM   H18F10578   5.241   3.758   4.389
  104OSM   H18G10579   5.173   3.921   4.443
  104OSM   H18H10580   5.129   3.756   4.510
  105OSM      N10581   5.628   4.091   6.976
  105OSM    C1510582   5.742   4.191   6.984
  105OSM   H15A10583   5.746   4.220   7.087
  105OSM   H15B10584   5.724   4.284   6.932
  105OSM   H15C10585   5.834   4.141   6.956
  105OSM    C1410586   5.658   3.974   7.071
  105OSM   H14A10587   5.754   3.931   7.048
  105OSM   H14B10588   5.585   3.895   7.074
  105OSM   H14C10589   5.676   4.021   7.167
  105OSM    C1310590   5.499   4.156   7.017
  105OSM   H13A10591   5.513   4.211   7.109
  105OSM   H13B10592   5.417   4.088   7.030
  105OSM   H13C10593   5.475   4.229   6.940
  105OSM    C1210594   5.600   4.041   6.837
  105OSM   H12A10595   5.569   4.126   6.777
  105OSM   H12B10596   5.516   3.973   6.838
  105OSM    C1110597   5.720   3.971   6.771
  105OSM   H11A10598   5.730   3.876   6.828
  105OSM   H11B10599   5.812   4.032   6.780
  105OSM      P10600   5.671   4.048   6.523
  105OSM    O1310601   5.603   3.982   6.408
  105OSM    O1410602   5.608   4.171   6.581
  105OSM    O1110603   5.821   4.091   6.487
  105OSM    O1210604   5.696   3.939   6.628
  105OSM    C1S10605   5.924   3.995   6.443
  105OSM    H1S10606   5.911   3.909   6.511
  105OSM    H1T10607   6.026   4.038   6.455
  105OSM     NF10608   6.001   3.853   6.262
  105OSM    HNF10609   6.092   3.880   6.229
  105OSM    C2S10610   5.910   3.960   6.291
  105OSM    H2S10611   5.806   3.924   6.277
  105OSM    C3S10612   5.931   4.095   6.202
  105OSM    H3S10613   6.034   4.130   6.226
  105OSM     O310614   5.845   4.204   6.237
  105OSM    HO310615   5.787   4.170   6.306
  105OSM    C4S10616   5.913   4.072   6.060
  105OSM    H4S10617   5.842   3.990   6.041
  105OSM    C5S10618   5.978   4.133   5.954
  105OSM    H5S10619   6.059   4.202   5.983
  105OSM    C6S10620   5.943   4.103   5.813
  105OSM    H6S10621   5.894   4.004   5.808
  105OSM    H6T10622   6.032   4.086   5.749
  105OSM    C7S10623   5.837   4.196   5.755
  105OSM    H7S10624   5.868   4.302   5.766
  105OSM    H7T10625   5.750   4.185   5.824
  105OSM    C8S10626   5.788   4.148   5.623
  105OSM    H8S10627   5.696   4.196   5.585
  105OSM    H8T10628   5.769   4.039   5.630
  105OSM    C9S10629   5.891   4.169   5.514
  105OSM    H9S10630   5.973   4.100   5.546
  105OSM    H9T10631   5.913   4.277   5.524
  105OSM   C10S10632   5.828   4.139   5.375
  105OSM   H10S10633   5.740   4.204   5.356
  105OSM   H10T10634   5.808   4.030   5.378
  105OSM   C11S10635   5.937   4.154   5.266
  105OSM   H11S10636   6.037   4.114   5.292
  105OSM   H11T10637   5.957   4.258   5.235
  105OSM   C12S10638   5.890   4.081   5.142
  105OSM   H12S10639   5.832   4.001   5.192
  105OSM   H12T10640   5.977   4.029   5.096
  105OSM   C13S10641   5.810   4.175   5.041
  105OSM   H13S10642   5.867   4.268   5.019
  105OSM   H13T10643   5.718   4.207   5.094
  105OSM   C14S10644   5.779   4.108   4.901
  105OSM   H14S10645   5.718   4.019   4.924
  105OSM   H14T10646   5.869   4.068   4.850
  105OSM   C15S10647   5.710   4.201   4.800
  105OSM   H15S10648   5.673   4.294   4.849
  105OSM   H15T10649   5.621   4.138   4.782
  105OSM   C16S10650   5.782   4.236   4.679
  105OSM   H16S10651   5.769   4.158   4.601
  105OSM   H16T10652   5.889   4.241   4.709
  105OSM   C17S10653   5.732   4.369   4.613
  105OSM   H17S10654   5.775   4.458   4.665
  105OSM   H17T10655   5.623   4.353   4.626
  105OSM   C18S10656   5.783   4.385   4.474
  105OSM   H18S10657   5.738   4.297   4.423
  105OSM   H18T10658   5.892   4.371   4.459
  105OSM   H18U10659   5.747   4.480   4.427
  105OSM    C1F10660   5.976   3.720   6.284
  105OSM     OF10661   5.865   3.679   6.319
  105OSM    C2F10662   6.094   3.625   6.277
  105OSM    H2F10663   6.093   3.547   6.356
  105OSM    H2G10664   6.185   3.689   6.278
  105OSM    C3F10665   6.102   3.555   6.145
  105OSM    H3F10666   6.000   3.512   6.131
  105OSM    H3G10667   6.171   3.469   6.153
  105OSM    C4F10668   6.132   3.640   6.021
  105OSM    H4F10669   6.227   3.696   6.031
  105OSM    H4G10670   6.066   3.729   6.006
  105OSM    C5F10671   6.145   3.561   5.891
  105OSM    H5F10672   6.047   3.512   5.875
  105OSM    H5G10673   6.224   3.484   5.901
  105OSM    C6F10674   6.186   3.653   5.771
  105OSM    H6F10675   6.273   3.716   5.797
  105OSM    H6G10676   6.105   3.726   5.749
  105OSM    C7F10677   6.197   3.572   5.643
  105OSM    H7F10678   6.097   3.542   5.605
  105OSM    H7G10679   6.264   3.484   5.650
  105OSM    C8F10680   6.244   3.649   5.517
  105OSM    H8F10681   6.276   3.575   5.440
  105OSM    H8G10682   6.346   3.685   5.543
  105OSM    C9F10683   6.154   3.752   5.458
  105OSM    H9F10684   6.071   3.784   5.523
  105OSM   C10F10685   6.167   3.806   5.331
  105OSM   H10F10686   6.109   3.893   5.297
  105OSM   C11F10687   6.283   3.775   5.230
  105OSM   H11F10688   6.352   3.701   5.278
  105OSM   H11G10689   6.352   3.860   5.212
  105OSM   C12F10690   6.228   3.738   5.094
  105OSM   H12F10691   6.174   3.827   5.054
  105OSM   H12G10692   6.155   3.655   5.107
  105OSM   C13F10693   6.341   3.682   5.002
  105OSM   H13F10694   6.410   3.622   5.064
  105OSM   H13G10695   6.402   3.765   4.960
  105OSM   C14F10696   6.281   3.598   4.890
  105OSM   H14F10697   6.212   3.672   4.844
  105OSM   H14G10698   6.228   3.508   4.930
  105OSM   C15F10699   6.379   3.560   4.791
  105OSM   H15F10700   6.469   3.524   4.845
  105OSM   H15G10701   6.398   3.649   4.727
  105OSM   C16F10702   6.340   3.437   4.713
  105OSM   H16F10703   6.342   3.360   4.793
  105OSM   H16G10704   6.418   3.427   4.635
  105OSM   C17F10705   6.198   3.435   4.653
  105OSM   H17F10706   6.200   3.506   4.568
  105OSM   H17G10707   6.115   3.454   4.724
  105OSM   C18F10708   6.163   3.293   4.592
  105OSM   H18F10709   6.073   3.307   4.528
  105OSM   H18G10710   6.140   3.219   4.672
  105OSM   H18H10711   6.245   3.247   4.533
  106OSM      N10712   4.228   1.568   7.046
  106OSM    C1510713   4.346   1.496   7.099
  106OSM   H15A10714   4.417   1.557   7.154
  106OSM   H15B10715   4.405   1.441   7.027
  106OSM   H15C10716   4.313   1.418   7.166
  106OSM    C1410717   4.132   1.471   6.992
  106OSM   H14A10718   4.034   1.515   6.980
  106OSM   H14B10719   4.107   1.401   7.071
  106OSM   H14C10720   4.168   1.432   6.898
  106OSM    C1310721   4.163   1.640   7.168
  106OSM   H13A10722   4.246   1.685   7.221
  106OSM   H13B10723   4.108   1.568   7.228
  106OSM   H13C10724   4.093   1.713   7.132
  106OSM    C1210725   4.268   1.674   6.941
  106OSM   H12A10726   4.342   1.738   6.987
  106OSM   H12B10727   4.179   1.733   6.924
  106OSM    C1110728   4.301   1.618   6.797
  106OSM   H11A10729   4.323   1.705   6.732
  106OSM   H11B10730   4.213   1.568   6.752
  106OSM      P10731   4.407   1.390   6.739
  106OSM    O1310732   4.538   1.327   6.757
  106OSM    O1410733   4.288   1.317   6.795
  106OSM    O1110734   4.380   1.414   6.591
  106OSM    O1210735   4.416   1.539   6.798
  106OSM    C1S10736   4.469   1.477   6.497
  106OSM    H1S10737   4.562   1.417   6.495
  106OSM    H1T10738   4.492   1.583   6.522
  106OSM     NF10739   4.513   1.515   6.250
  106OSM    HNF10740   4.489   1.601   6.205
  106OSM    C2S10741   4.415   1.466   6.352
  106OSM    H2S10742   4.426   1.359   6.323
  106OSM    C3S10743   4.261   1.509   6.336
  106OSM    H3S10744   4.260   1.618   6.357
  106OSM     O310745   4.178   1.441   6.437
  106OSM    HO310746   4.251   1.413   6.492
  106OSM    C4S10747   4.221   1.466   6.198
  106OSM    H4S10748   4.181   1.364   6.197
  106OSM    C5S10749   4.229   1.538   6.089
  106OSM    H5S10750   4.263   1.642   6.095
  106OSM    C6S10751   4.190   1.500   5.947
  106OSM    H6S10752   4.172   1.592   5.888
  106OSM    H6T10753   4.099   1.440   5.926
  106OSM    C7S10754   4.311   1.424   5.882
  106OSM    H7S10755   4.341   1.338   5.946
  106OSM    H7T10756   4.397   1.493   5.868
  106OSM    C8S10757   4.270   1.364   5.744
  106OSM    H8S10758   4.201   1.279   5.766
  106OSM    H8T10759   4.361   1.327   5.693
  106OSM    C9S10760   4.222   1.466   5.647
  106OSM    H9S10761   4.286   1.556   5.659
  106OSM    H9T10762   4.121   1.507   5.667
  106OSM   C10S10763   4.223   1.427   5.499
  106OSM   H10S10764   4.158   1.492   5.436
  106OSM   H10T10765   4.188   1.322   5.484
  106OSM   C11S10766   4.370   1.445   5.443
  106OSM   H11S10767   4.431   1.357   5.473
  106OSM   H11T10768   4.418   1.539   5.479
  106OSM   C12S10769   4.380   1.447   5.291
  106OSM   H12S10770   4.337   1.535   5.239
  106OSM   H12T10771   4.312   1.364   5.260
  106OSM   C13S10772   4.518   1.412   5.233
  106OSM   H13S10773   4.568   1.322   5.273
  106OSM   H13T10774   4.576   1.503   5.257
  106OSM   C14S10775   4.524   1.412   5.077
  106OSM   H14S10776   4.615   1.356   5.046
  106OSM   H14T10777   4.530   1.514   5.033
  106OSM   C15S10778   4.405   1.345   5.002
  106OSM   H15S10779   4.318   1.412   5.014
  106OSM   H15T10780   4.383   1.244   5.042
  106OSM   C16S10781   4.430   1.341   4.848
  106OSM   H16S10782   4.429   1.445   4.809
  106OSM   H16T10783   4.332   1.304   4.812
  106OSM   C17S10784   4.553   1.261   4.798
  106OSM   H17S10785   4.640   1.322   4.831
  106OSM   H17T10786   4.560   1.273   4.688
  106OSM   C18S10787   4.572   1.122   4.854
  106OSM   H18S10788   4.656   1.119   4.926
  106OSM   H18T10789   4.613   1.057   4.774
  106OSM   H18U10790   4.476   1.075   4.885
  106OSM    C1F10791   4.638   1.471   6.229
  106OSM     OF10792   4.689   1.376   6.293
  106OSM    C2F10793   4.724   1.547   6.130
  106OSM    H2F10794   4.813   1.482   6.110
  106OSM    H2G10795   4.767   1.641   6.171
  106OSM    C3F10796   4.661   1.578   5.989
  106OSM    H3F10797   4.565   1.630   6.007
  106OSM    H3G10798   4.638   1.481   5.941
  106OSM    C4F10799   4.745   1.652   5.889
  106OSM    H4F10800   4.834   1.591   5.863
  106OSM    H4G10801   4.778   1.750   5.932
  106OSM    C5F10802   4.675   1.686   5.751
  106OSM    H5F10803   4.592   1.759   5.761
  106OSM    H5G10804   4.625   1.590   5.723
  106OSM    C6F10805   4.763   1.727   5.646
  106OSM    H6F10806   4.846   1.663   5.610
  106OSM    H6G10807   4.815   1.819   5.680
  106OSM    C7F10808   4.681   1.757   5.516
  106OSM    H7F10809   4.592   1.822   5.524
  106OSM    H7G10810   4.659   1.657   5.473
  106OSM    C8F10811   4.764   1.843   5.415
  106OSM    H8F10812   4.799   1.936   5.464
  106OSM    H8G10813   4.694   1.882   5.338
  106OSM    C9F10814   4.869   1.759   5.345
  106OSM    H9F10815   4.921   1.688   5.411
  106OSM   C10F10816   4.897   1.751   5.212
  106OSM   H10F10817   4.952   1.665   5.172
  106OSM   C11F10818   4.819   1.835   5.119
  106OSM   H11F10819   4.866   1.832   5.018
  106OSM   H11G10820   4.805   1.942   5.146
  106OSM   C12F10821   4.680   1.778   5.097
  106OSM   H12F10822   4.624   1.761   5.192
  106OSM   H12G10823   4.695   1.674   5.061
  106OSM   C13F10824   4.587   1.857   4.999
  106OSM   H13F10825   4.562   1.953   5.049
  106OSM   H13G10826   4.495   1.795   5.000
  106OSM   C14F10827   4.647   1.862   4.856
  106OSM   H14F10828   4.681   1.758   4.836
  106OSM   H14G10829   4.736   1.928   4.861
  106OSM   C15F10830   4.550   1.904   4.750
  106OSM   H15F10831   4.618   1.921   4.663
  106OSM   H15G10832   4.513   2.004   4.780
  106OSM   C16F10833   4.439   1.806   4.710
  106OSM   H16F10834   4.359   1.880   4.686
  106OSM   H16G10835   4.399   1.751   4.798
  106OSM   C17F10836   4.478   1.697   4.609
  106OSM   H17F10837   4.393   1.625   4.608
  106OSM   H17G10838   4.573   1.653   4.646
  106OSM   C18F10839   4.492   1.757   4.469
  106OSM   H18F10840   4.412   1.832   4.449
  106OSM   H18G10841   4.516   1.684   4.388
  106OSM   H18H10842   4.582   1.820   4.487
  107OSM      N10843   3.070   6.818   6.593
  107OSM    C1510844   3.105   6.719   6.478
  107OSM   H15A10845   3.146   6.632   6.526
  107OSM   H15B10846   3.189   6.765   6.428
  107OSM   H15C10847   3.018   6.690   6.422
  107OSM    C1410848   3.022   0.100   6.530
  107OSM   H14A10849   2.942   0.087   6.457
  107OSM   H14B10850   3.089   0.132   6.451
  107OSM   H14C10851   3.007   0.182   6.598
  107OSM    C1310852   2.954   6.763   6.677
  107OSM   H13A10853   2.982   6.662   6.702
  107OSM   H13B10854   2.866   6.775   6.615
  107OSM   H13C10855   2.944   6.823   6.766
  107OSM    C1210856   3.187   0.001   6.678
  107OSM   H12A10857   3.165   0.073   6.755
  107OSM   H12B10858   3.261   0.049   6.616
  107OSM    C1110859   3.262   6.718   6.734
  107OSM   H11A10860   3.191   6.646   6.779
  107OSM   H11B10861   3.330   6.756   6.813
  107OSM      P10862   3.462   6.720   6.553
  107OSM    O1310863   3.411   6.835   6.475
  107OSM    O1410864   3.559   6.738   6.654
  107OSM    O1110865   3.507   6.615   6.449
  107OSM    O1210866   3.337   6.654   6.635
  107OSM    C1S10867   3.418   6.556   6.353
  107OSM    H1S10868   3.364   6.636   6.299
  107OSM    H1T10869   3.354   6.481   6.404
  107OSM     NF10870   3.401   6.458   6.119
  107OSM    HNF10871   3.367   6.364   6.125
  107OSM    C2S10872   3.487   6.488   6.235
  107OSM    H2S10873   3.563   6.563   6.202
  107OSM    C3S10874   3.565   6.361   6.288
  107OSM    H3S10875   3.488   6.287   6.318
  107OSM     O310876   3.650   6.386   6.401
  107OSM    HO310877   3.607   6.463   6.438
  107OSM    C4S10878   3.645   6.306   6.168
  107OSM    H4S10879   3.725   6.370   6.126
  107OSM    C5S10880   3.632   6.181   6.123
  107OSM    H5S10881   3.570   6.103   6.170
  107OSM    C6S10882   3.712   6.127   6.009
  107OSM    H6S10883   3.700   6.019   5.986
  107OSM    H6T10884   3.817   6.128   6.045
  107OSM    C7S10885   3.698   6.196   5.885
  107OSM    H7S10886   3.757   6.141   5.808
  107OSM    H7T10887   3.733   6.301   5.893
  107OSM    C8S10888   3.561   6.196   5.826
  107OSM    H8S10889   3.490   6.248   5.893
  107OSM    H8T10890   3.533   6.090   5.807
  107OSM    C9S10891   3.561   6.262   5.686
  107OSM    H9S10892   3.629   6.202   5.622
  107OSM    H9T10893   3.598   6.364   5.709
  107OSM   C10S10894   3.422   6.285   5.631
  107OSM   H10S10895   3.367   6.324   5.720
  107OSM   H10T10896   3.370   6.188   5.610
  107OSM   C11S10897   3.402   6.381   5.514
  107OSM   H11S10898   3.454   6.478   5.522
  107OSM   H11T10899   3.295   6.409   5.497
  107OSM   C12S10900   3.458   6.320   5.387
  107OSM   H12S10901   3.416   6.218   5.377
  107OSM   H12T10902   3.568   6.310   5.396
  107OSM   C13S10903   3.419   6.379   5.255
  107OSM   H13S10904   3.485   6.350   5.171
  107OSM   H13T10905   3.449   6.485   5.267
  107OSM   C14S10906   3.274   6.358   5.213
  107OSM   H14S10907   3.211   6.402   5.294
  107OSM   H14T10908   3.241   6.252   5.202
  107OSM   C15S10909   3.246   6.434   5.087
  107OSM   H15S10910   3.286   6.538   5.081
  107OSM   H15T10911   3.137   6.444   5.071
  107OSM   C16S10912   3.302   6.361   4.957
  107OSM   H16S10913   3.237   6.273   4.940
  107OSM   H16T10914   3.405   6.326   4.983
  107OSM   C17S10915   3.309   6.459   4.837
  107OSM   H17S10916   3.337   6.558   4.879
  107OSM   H17T10917   3.213   6.469   4.781
  107OSM   C18S10918   3.417   6.416   4.741
  107OSM   H18S10919   3.416   6.477   4.648
  107OSM   H18T10920   3.404   6.309   4.716
  107OSM   H18U10921   3.522   6.428   4.777
  107OSM    C1F10922   3.329   6.551   6.056
  107OSM     OF10923   3.348   6.669   6.065
  107OSM    C2F10924   3.215   6.494   5.974
  107OSM    H2F10925   3.132   6.478   6.047
  107OSM    H2G10926   3.251   6.402   5.923
  107OSM    C3F10927   3.167   6.593   5.863
  107OSM    H3F10928   3.254   6.621   5.800
  107OSM    H3G10929   3.132   6.685   5.914
  107OSM    C4F10930   3.067   6.542   5.770
  107OSM    H4F10931   2.993   6.497   5.839
  107OSM    H4G10932   3.120   6.470   5.702
  107OSM    C5F10933   3.017   6.645   5.665
  107OSM    H5F10934   3.096   6.706   5.617
  107OSM    H5G10935   2.952   6.712   5.726
  107OSM    C6F10936   2.928   6.565   5.568
  107OSM    H6F10937   2.840   6.524   5.621
  107OSM    H6G10938   2.980   6.473   5.534
  107OSM    C7F10939   2.872   6.647   5.444
  107OSM    H7F10940   2.804   6.722   5.491
  107OSM    H7G10941   2.804   6.576   5.392
  107OSM    C8F10942   2.968   6.710   5.344
  107OSM    H8F10943   3.030   6.629   5.300
  107OSM    H8G10944   3.036   6.770   5.409
  107OSM    C9F10945   2.892   6.792   5.240
  107OSM    H9F10946   2.882   0.056   5.265
  107OSM   C10F10947   2.857   6.751   5.118
  107OSM   H10F10948   2.796   6.814   5.052
  107OSM   C11F10949   2.880   6.615   5.064
  107OSM   H11F10950   2.872   6.542   5.147
  107OSM   H11G10951   2.983   6.616   5.023
  107OSM   C12F10952   2.789   6.569   4.955
  107OSM   H12F10953   2.815   6.619   4.860
  107OSM   H12G10954   2.683   6.598   4.975
  107OSM   C13F10955   2.792   6.415   4.936
  107OSM   H13F10956   2.742   6.373   5.026
  107OSM   H13G10957   2.898   6.383   4.941
  107OSM   C14F10958   2.719   6.370   4.807
  107OSM   H14F10959   2.611   6.385   4.829
  107OSM   H14G10960   2.748   6.265   4.786
  107OSM   C15F10961   2.761   6.433   4.676
  107OSM   H15F10962   2.870   6.413   4.672
  107OSM   H15G10963   2.741   6.542   4.678
  107OSM   C16F10964   2.689   6.384   4.545
  107OSM   H16F10965   2.582   6.414   4.554
  107OSM   H16G10966   2.694   6.273   4.539
  107OSM   C17F10967   2.756   6.443   4.418
  107OSM   H17F10968   2.864   6.416   4.421
  107OSM   H17G10969   2.752   6.554   4.418
  107OSM   C18F10970   2.690   6.398   4.286
  107OSM   H18F10971   2.759   6.427   4.204
  107OSM   H18G10972   2.589   6.439   4.264
  107OSM   H18H10973   2.693   6.287   4.282
  108OSM      N10974   6.539   5.545   6.919
  108OSM    C1510975   6.401   5.490   6.918
  108OSM   H15A10976   6.369   5.460   7.017
  108OSM   H15B10977   6.381   5.410   6.848
  108OSM   H15C10978   6.344   5.575   6.883
  108OSM    C1410979   6.537   5.669   7.010
  108OSM   H14A10980   6.522   5.645   7.114
  108OSM   H14B10981   6.462   5.741   6.980
  108OSM   H14C10982   6.639   5.704   7.003
  108OSM    C1310983   6.636   5.445   6.978
  108OSM   H13A10984   6.659   5.359   6.917
  108OSM   H13B10985   6.593   5.405   7.068
  108OSM   H13C10986   6.726   5.498   7.004
  108OSM    C1210987   6.575   5.586   6.773
  108OSM   H12A10988   6.569   5.493   6.719
  108OSM   H12B10989   6.675   5.627   6.778
  108OSM    C1110990   6.483   5.688   6.703
  108OSM   H11A10991   6.377   5.655   6.698
  108OSM   H11B10992   6.525   5.696   6.600
  108OSM      P10993   6.624   5.900   6.754
  108OSM    O1310994   6.621   6.012   6.846
  108OSM    O1410995   6.743   5.813   6.770
  108OSM    O1110996   6.628   5.959   6.606
  108OSM    O1210997   6.491   5.812   6.768
  108OSM    C1S10998   6.504   6.018   6.566
  108OSM    H1S10999   6.495   6.117   6.616
  108OSM    H1T11000   6.415   5.956   6.590
  108OSM     NF11001   6.402   6.122   6.370
  108OSM    HNF11002   6.316   6.074   6.354
  108OSM    C2S11003   6.500   6.033   6.410
  108OSM    H2S11004   6.600   6.067   6.375
  108OSM    C3S11005   6.489   5.893   6.351
  108OSM    H3S11006   6.390   5.847   6.371
  108OSM     O311007   6.589   5.798   6.402
  108OSM    HO311008   6.623   5.850   6.475
  108OSM    C4S11009   6.491   5.914   6.200
  108OSM    H4S11010   6.397   5.948   6.153
  108OSM    C5S11011   6.598   5.908   6.117
  108OSM    H5S11012   6.700   5.885   6.150
  108OSM    C6S11013   6.567   5.936   5.971
  108OSM    H6S11014   6.654   5.989   5.928
  108OSM    H6T11015   6.471   5.991   5.960
  108OSM    C7S11016   6.557   5.821   5.867
  108OSM    H7S11017   6.473   5.758   5.902
  108OSM    H7T11018   6.648   5.757   5.868
  108OSM    C8S11019   6.524   5.859   5.725
  108OSM    H8S11020   6.593   5.939   5.688
  108OSM    H8T11021   6.418   5.891   5.717
  108OSM    C9S11022   6.530   5.731   5.641
  108OSM    H9S11023   6.458   5.659   5.687
  108OSM    H9T11024   6.633   5.692   5.650
  108OSM   C10S11025   6.476   5.775   5.509
  108OSM   H10S11026   6.562   5.832   5.469
  108OSM   H10T11027   6.394   5.850   5.520
  108OSM   C11S11028   6.441   5.658   5.419
  108OSM   H11S11029   6.412   5.695   5.318
  108OSM   H11T11030   6.360   5.595   5.461
  108OSM   C12S11031   6.562   5.566   5.406
  108OSM   H12S11032   6.581   5.506   5.498
  108OSM   H12T11033   6.652   5.630   5.403
  108OSM   C13S11034   6.549   5.474   5.284
  108OSM   H13S11035   6.439   5.457   5.273
  108OSM   H13T11036   6.606   5.379   5.296
  108OSM   C14S11037   6.587   5.538   5.149
  108OSM   H14S11038   6.690   5.499   5.136
  108OSM   H14T11039   6.572   5.648   5.158
  108OSM   C15S11040   6.504   5.495   5.024
  108OSM   H15S11041   6.396   5.510   5.047
  108OSM   H15T11042   6.520   5.385   5.020
  108OSM   C16S11043   6.532   5.578   4.900
  108OSM   H16S11044   6.639   5.557   4.877
  108OSM   H16T11045   6.518   5.688   4.904
  108OSM   C17S11046   6.462   5.517   4.779
  108OSM   H17S11047   6.357   5.487   4.798
  108OSM   H17T11048   6.516   5.427   4.743
  108OSM   C18S11049   6.452   5.612   4.651
  108OSM   H18S11050   6.389   5.561   4.574
  108OSM   H18T11051   6.556   5.614   4.612
  108OSM   H18U11052   6.424   5.719   4.663
  108OSM    C1F11053   6.417   6.251   6.378
  108OSM     OF11054   6.522   6.307   6.404
  108OSM    C2F11055   6.288   6.327   6.342
  108OSM    H2F11056   6.256   6.367   6.441
  108OSM    H2G11057   6.213   6.250   6.314
  108OSM    C3F11058   6.306   6.437   6.233
  108OSM    H3F11059   6.372   6.512   6.281
  108OSM    H3G11060   6.207   6.483   6.208
  108OSM    C4F11061   6.369   6.380   6.112
  108OSM    H4F11062   6.450   6.305   6.126
  108OSM    H4G11063   6.413   6.463   6.053
  108OSM    C5F11064   6.264   6.311   6.026
  108OSM    H5F11065   6.163   6.358   6.023
  108OSM    H5G11066   6.254   6.206   6.060
  108OSM    C6F11067   6.313   6.299   5.875
  108OSM    H6F11068   6.384   6.213   5.875
  108OSM    H6G11069   6.365   6.390   5.839
  108OSM    C7F11070   6.206   6.267   5.773
  108OSM    H7F11071   6.118   6.327   5.805
  108OSM    H7G11072   6.179   6.160   5.781
  108OSM    C8F11073   6.242   6.297   5.631
  108OSM    H8F11074   6.263   6.406   5.621
  108OSM    H8G11075   6.149   6.276   5.574
  108OSM    C9F11076   6.357   6.212   5.580
  108OSM    H9F11077   6.462   6.231   5.609
  108OSM   C10F11078   6.343   6.124   5.481
  108OSM   H10F11079   6.434   6.070   5.452
  108OSM   C11F11080   6.218   6.102   5.400
  108OSM   H11F11081   6.176   6.202   5.375
  108OSM   H11G11082   6.136   6.055   5.458
  108OSM   C12F11083   6.233   6.021   5.272
  108OSM   H12F11084   6.135   6.007   5.223
  108OSM   H12G11085   6.269   5.918   5.296
  108OSM   C13F11086   6.343   6.086   5.184
  108OSM   H13F11087   6.446   6.058   5.215
  108OSM   H13G11088   6.330   6.195   5.171
  108OSM   C14F11089   6.331   6.030   5.039
  108OSM   H14F11090   6.240   6.080   5.000
  108OSM   H14G11091   6.304   5.922   5.042
  108OSM   C15F11092   6.449   6.040   4.953
  108OSM   H15F11093   6.519   5.970   5.003
  108OSM   H15G11094   6.504   6.136   4.944
  108OSM   C16F11095   6.438   5.972   4.811
  108OSM   H16F11096   6.339   5.922   4.799
  108OSM   H16G11097   6.516   5.895   4.802
  108OSM   C17F11098   6.438   6.083   4.703
  108OSM   H17F11099   6.529   6.146   4.716
  108OSM   H17G11100   6.359   6.159   4.724
  108OSM   C18F11101   6.441   6.022   4.562
  108OSM   H18F11102   6.347   5.965   4.546
  108OSM   H18G11103   6.537   5.966   4.558
  108OSM   H18H11104   6.452   6.110   4.494
  109OSM      N11105   2.964   3.198   6.739
  109OSM    C1511106   2.914   3.257   6.872
  109OSM   H15A11107   2.838   3.202   6.925
  109OSM   H15B11108   2.864   3.349   6.845
  109OSM   H15C11109   2.996   3.296   6.930
  109OSM    C1411110   2.848   3.183   6.640
  109OSM   H14A11111   2.888   3.153   6.544
  109OSM   H14B11112   2.803   3.281   6.631
  109OSM   H14C11113   2.774   3.109   6.666
  109OSM    C1311114   3.049   3.299   6.675
  109OSM   H13A11115   3.071   3.271   6.573
  109OSM   H13B11116   3.141   3.311   6.731
  109OSM   H13C11117   3.007   3.398   6.679
  109OSM    C1211118   3.046   3.068   6.755
  109OSM   H12A11119   3.135   3.104   6.804
  109OSM   H12B11120   3.074   3.027   6.660
  109OSM    C1111121   2.983   2.944   6.836
  109OSM   H11A11122   2.957   2.981   6.937
  109OSM   H11B11123   3.070   2.878   6.852
  109OSM      P11124   2.896   2.821   6.627
  109OSM    O1311125   2.758   2.782   6.581
  109OSM    O1411126   2.964   2.916   6.536
  109OSM    O1111127   2.977   2.695   6.639
  109OSM    O1211128   2.881   2.876   6.771
  109OSM    C1S11129   2.976   2.601   6.531
  109OSM    H1S11130   2.874   2.564   6.509
  109OSM    H1T11131   3.037   2.513   6.560
  109OSM     NF11132   3.022   2.538   6.300
  109OSM    HNF11133   3.097   2.474   6.290
  109OSM    C2S11134   3.041   2.648   6.400
  109OSM    H2S11135   2.988   2.736   6.357
  109OSM    C3S11136   3.187   2.688   6.411
  109OSM    H3S11137   3.242   2.606   6.462
  109OSM     O311138   3.214   2.800   6.493
  109OSM    HO311139   3.135   2.829   6.540
  109OSM    C4S11140   3.244   2.722   6.274
  109OSM    H4S11141   3.178   2.781   6.209
  109OSM    C5S11142   3.356   2.678   6.218
  109OSM    H5S11143   3.411   2.598   6.270
  109OSM    C6S11144   3.411   2.723   6.083
  109OSM    H6S11145   3.514   2.759   6.105
  109OSM    H6T11146   3.365   2.818   6.048
  109OSM    C7S11147   3.410   2.607   5.977
  109OSM    H7S11148   3.461   2.525   6.030
  109OSM    H7T11149   3.457   2.653   5.888
  109OSM    C8S11150   3.272   2.561   5.941
  109OSM    H8S11151   3.217   2.646   5.893
  109OSM    H8T11152   3.213   2.532   6.030
  109OSM    C9S11153   3.277   2.432   5.854
  109OSM    H9S11154   3.186   2.379   5.891
  109OSM    H9T11155   3.371   2.391   5.896
  109OSM   C10S11156   3.274   2.469   5.710
  109OSM   H10S11157   3.348   2.546   5.678
  109OSM   H10T11158   3.178   2.514   5.678
  109OSM   C11S11159   3.294   2.353   5.611
  109OSM   H11S11160   3.221   2.280   5.651
  109OSM   H11T11161   3.398   2.313   5.617
  109OSM   C12S11162   3.253   2.379   5.468
  109OSM   H12S11163   3.294   2.477   5.436
  109OSM   H12T11164   3.142   2.385   5.461
  109OSM   C13S11165   3.298   2.262   5.385
  109OSM   H13S11166   3.264   2.167   5.431
  109OSM   H13T11167   3.408   2.276   5.378
  109OSM   C14S11168   3.242   2.259   5.246
  109OSM   H14S11169   3.259   2.359   5.200
  109OSM   H14T11170   3.133   2.236   5.242
  109OSM   C15S11171   3.302   2.153   5.153
  109OSM   H15S11172   3.272   2.056   5.198
  109OSM   H15T11173   3.412   2.161   5.148
  109OSM   C16S11174   3.253   2.163   5.007
  109OSM   H16S11175   3.317   2.090   4.952
  109OSM   H16T11176   3.268   2.264   4.965
  109OSM   C17S11177   3.109   2.115   4.982
  109OSM   H17S11178   3.036   2.189   5.021
  109OSM   H17T11179   3.097   2.015   5.028
  109OSM   C18S11180   3.098   2.102   4.827
  109OSM   H18S11181   2.993   2.113   4.792
  109OSM   H18T11182   3.141   2.006   4.793
  109OSM   H18U11183   3.160   2.182   4.781
  109OSM    C1F11184   2.909   2.513   6.234
  109OSM     OF11185   2.809   2.581   6.252
  109OSM    C2F11186   2.905   2.401   6.132
  109OSM    H2F11187   2.824   2.328   6.155
  109OSM    H2G11188   3.004   2.353   6.124
  109OSM    C3F11189   2.858   2.462   5.993
  109OSM    H3F11190   2.922   2.551   5.973
  109OSM    H3G11191   2.761   2.516   6.000
  109OSM    C4F11192   2.861   2.361   5.884
  109OSM    H4F11193   2.776   2.291   5.902
  109OSM    H4G11194   2.953   2.300   5.882
  109OSM    C5F11195   2.847   2.411   5.743
  109OSM    H5F11196   2.921   2.487   5.712
  109OSM    H5G11197   2.747   2.461   5.740
  109OSM    C6F11198   2.853   2.297   5.642
  109OSM    H6F11199   2.786   2.210   5.661
  109OSM    H6G11200   2.952   2.248   5.661
  109OSM    C7F11201   2.832   2.342   5.502
  109OSM    H7F11202   2.901   2.424   5.473
  109OSM    H7G11203   2.726   2.370   5.481
  109OSM    C8F11204   2.864   2.217   5.420
  109OSM    H8F11205   2.791   2.141   5.453
  109OSM    H8G11206   2.963   2.172   5.445
  109OSM    C9F11207   2.859   2.247   5.272
  109OSM    H9F11208   2.888   2.350   5.246
  109OSM   C10F11209   2.814   2.162   5.174
  109OSM   H10F11210   2.810   2.182   5.066
  109OSM   C11F11211   2.749   2.028   5.203
  109OSM   H11F11212   2.641   2.038   5.179
  109OSM   H11G11213   2.758   1.995   5.308
  109OSM   C12F11214   2.807   1.925   5.115
  109OSM   H12F11215   2.762   1.829   5.147
  109OSM   H12G11216   2.917   1.924   5.131
  109OSM   C13F11217   2.789   1.938   4.961
  109OSM   H13F11218   2.850   2.019   4.916
  109OSM   H13G11219   2.692   1.992   4.960
  109OSM   C14F11220   2.796   1.810   4.884
  109OSM   H14F11221   2.743   1.727   4.935
  109OSM   H14G11222   2.903   1.785   4.868
  109OSM   C15F11223   2.731   1.828   4.747
  109OSM   H15F11224   2.780   1.909   4.689
  109OSM   H15G11225   2.624   1.854   4.763
  109OSM   C16F11226   2.721   1.700   4.669
  109OSM   H16F11227   2.662   1.624   4.724
  109OSM   H16G11228   2.818   1.648   4.661
  109OSM   C17F11229   2.673   1.729   4.530
  109OSM   H17F11230   2.742   1.808   4.491
  109OSM   H17G11231   2.572   1.773   4.537
  109OSM   C18F11232   2.672   1.615   4.433
  109OSM   H18F11233   2.647   1.643   4.329
  109OSM   H18G11234   2.592   1.549   4.474
  109OSM   H18H11235   2.770   1.565   4.422
  110OSM      N11236   4.922   6.002   7.152
  110OSM    C1511237   4.862   5.864   7.136
  110OSM   H15A11238   4.756   5.873   7.156
  110OSM   H15B11239   4.910   5.795   7.204
  110OSM   H15C11240   4.863   5.827   7.034
  110OSM    C1411241   4.901   6.053   7.294
  110OSM   H14A11242   4.951   5.986   7.363
  110OSM   H14B11243   4.799   6.079   7.320
  110OSM   H14C11244   4.947   6.150   7.305
  110OSM    C1311245   5.074   5.984   7.138
  110OSM   H13A11246   5.086   5.952   7.036
  110OSM   H13B11247   5.107   5.908   7.207
  110OSM   H13C11248   5.132   6.075   7.149
  110OSM    C1211249   4.866   6.102   7.054
  110OSM   H12A11250   4.884   6.201   7.092
  110OSM   H12B11251   4.759   6.084   7.050
  110OSM    C1111252   4.900   6.092   6.900
  110OSM   H11A11253   4.830   6.159   6.846
  110OSM   H11B11254   4.871   5.991   6.863
  110OSM      P11255   5.077   6.281   6.843
  110OSM    O1311256   5.012   6.364   6.947
  110OSM    O1411257   5.227   6.286   6.828
  110OSM    O1111258   5.000   6.309   6.709
  110OSM    O1211259   5.042   6.127   6.874
  110OSM    C1S11260   5.010   6.441   6.657
  110OSM    H1S11261   5.089   6.504   6.702
  110OSM    H1T11262   4.910   6.486   6.671
  110OSM     NF11263   5.061   6.586   6.453
  110OSM    HNF11264   4.980   6.631   6.417
  110OSM    C2S11265   5.036   6.447   6.500
  110OSM    H2S11266   5.130   6.395   6.472
  110OSM    C3S11267   4.924   6.372   6.424
  110OSM    H3S11268   4.826   6.423   6.439
  110OSM     O311269   4.900   6.245   6.473
  110OSM    HO311270   4.923   6.240   6.566
  110OSM    C4S11271   4.952   6.350   6.278
  110OSM    H4S11272   5.057   6.322   6.261
  110OSM    C5S11273   4.875   6.387   6.177
  110OSM    H5S11274   4.780   6.434   6.208
  110OSM    C6S11275   4.900   6.384   6.022
  110OSM    H6S11276   4.821   6.321   5.974
  110OSM    H6T11277   5.003   6.362   5.988
  110OSM    C7S11278   4.869   6.521   5.959
  110OSM    H7S11279   4.938   6.593   6.009
  110OSM    H7T11280   4.767   6.553   5.991
  110OSM    C8S11281   4.883   6.534   5.802
  110OSM    H8S11282   4.847   6.635   5.773
  110OSM    H8T11283   4.818   6.460   5.751
  110OSM    C9S11284   5.023   6.517   5.751
  110OSM    H9S11285   5.053   6.411   5.765
  110OSM    H9T11286   5.096   6.569   5.817
  110OSM   C10S11287   5.044   6.546   5.601
  110OSM   H10S11288   5.150   6.559   5.570
  110OSM   H10T11289   4.984   6.639   5.587
  110OSM   C11S11290   4.976   6.449   5.500
  110OSM   H11S11291   4.868   6.434   5.519
  110OSM   H11T11292   5.020   6.347   5.505
  110OSM   C12S11293   4.990   6.489   5.353
  110OSM   H12S11294   5.096   6.471   5.323
  110OSM   H12T11295   4.971   6.594   5.320
  110OSM   C13S11296   4.908   6.404   5.261
  110OSM   H13S11297   4.800   6.415   5.281
  110OSM   H13T11298   4.940   6.301   5.286
  110OSM   C14S11299   4.926   6.448   5.119
  110OSM   H14S11300   5.034   6.454   5.093
  110OSM   H14T11301   4.894   6.554   5.114
  110OSM   C15S11302   4.843   6.357   5.029
  110OSM   H15S11303   4.777   6.293   5.091
  110OSM   H15T11304   4.911   6.284   4.980
  110OSM   C16S11305   4.752   6.427   4.927
  110OSM   H16S11306   4.667   6.484   4.969
  110OSM   H16T11307   4.713   6.355   4.851
  110OSM   C17S11308   4.838   6.523   4.843
  110OSM   H17S11309   4.934   6.548   4.894
  110OSM   H17T11310   4.786   6.621   4.841
  110OSM   C18S11311   4.854   6.484   4.698
  110OSM   H18S11312   4.924   6.551   4.644
  110OSM   H18T11313   4.760   6.467   4.641
  110OSM   H18U11314   4.908   6.387   4.702
  110OSM    C1F11315   5.173   6.650   6.487
  110OSM     OF11316   5.263   6.594   6.551
  110OSM    C2F11317   5.176   6.793   6.443
  110OSM    H2F11318   5.179   0.015   6.533
  110OSM    H2G11319   5.083   6.821   6.390
  110OSM    C3F11320   5.303   6.808   6.351
  110OSM    H3F11321   5.404   6.781   6.389
  110OSM    H3G11322   5.306   0.073   6.327
  110OSM    C4F11323   5.272   6.741   6.214
  110OSM    H4F11324   5.165   6.745   6.183
  110OSM    H4G11325   5.302   6.634   6.214
  110OSM    C5F11326   5.355   6.814   6.109
  110OSM    H5F11327   5.461   6.816   6.142
  110OSM    H5G11328   5.329   0.079   6.115
  110OSM    C6F11329   5.351   6.760   5.968
  110OSM    H6F11330   5.246   6.735   5.942
  110OSM    H6G11331   5.410   6.666   5.982
  110OSM    C7F11332   5.417   0.012   5.863
  110OSM    H7F11333   5.528   0.015   5.876
  110OSM    H7G11334   5.381   0.117   5.875
  110OSM    C8F11335   5.377   6.800   5.726
  110OSM    H8F11336   5.268   6.783   5.737
  110OSM    H8G11337   5.427   6.700   5.722
  110OSM    C9F11338   5.419   0.041   5.602
  110OSM    H9F11339   5.465   0.140   5.620
  110OSM   C10F11340   5.419   6.837   5.475
  110OSM   H10F11341   5.478   0.046   5.398
  110OSM   C11F11342   5.358   6.709   5.436
  110OSM   H11F11343   5.253   6.725   5.404
  110OSM   H11G11344   5.360   6.628   5.512
  110OSM   C12F11345   5.435   6.641   5.319
  110OSM   H12F11346   5.391   6.540   5.303
  110OSM   H12G11347   5.538   6.625   5.357
  110OSM   C13F11348   5.435   6.723   5.189
  110OSM   H13F11349   5.519   6.685   5.128
  110OSM   H13G11350   5.473   6.826   5.202
  110OSM   C14F11351   5.322   6.704   5.096
  110OSM   H14F11352   5.230   6.751   5.138
  110OSM   H14G11353   5.286   6.600   5.082
  110OSM   C15F11354   5.355   6.769   4.959
  110OSM   H15F11355   5.277   6.730   4.891
  110OSM   H15G11356   5.458   6.742   4.928
  110OSM   C16F11357   5.343   0.082   4.961
  110OSM   H16F11358   5.377   0.111   4.859
  110OSM   H16G11359   5.408   0.127   5.039
  110OSM   C17F11360   5.196   0.121   4.979
  110OSM   H17F11361   5.168   0.098   5.084
  110OSM   H17G11362   5.134   0.058   4.912
  110OSM   C18F11363   5.179   0.270   4.958
  110OSM   H18F11364   5.203   0.342   5.040
  110OSM   H18G11365   5.070   0.285   4.941
  110OSM   H18H11366   5.228   0.297   4.862
  111OSM      N11367   1.514   4.131   6.790
  111OSM    C1511368   1.511   4.174   6.937
  111OSM   H15A11369   1.526   4.281   6.935
  111OSM   H15B11370   1.589   4.122   6.990
  111OSM   H15C11371   1.414   4.174   6.984
  111OSM    C1411372   1.442   4.233   6.701
  111OSM   H14A11373   1.337   4.241   6.727
  111OSM   H14B11374   1.445   4.203   6.598
  111OSM   H14C11375   1.503   4.321   6.706
  111OSM    C1311376   1.661   4.124   6.753
  111OSM   H13A11377   1.712   4.219   6.766
  111OSM   H13B11378   1.675   4.077   6.657
  111OSM   H13C11379   1.707   4.056   6.823
  111OSM    C1211380   1.450   3.990   6.797
  111OSM   H12A11381   1.352   4.002   6.841
  111OSM   H12B11382   1.506   3.929   6.867
  111OSM    C1111383   1.444   3.913   6.666
  111OSM   H11A11384   1.456   3.807   6.699
  111OSM   H11B11385   1.535   3.929   6.604
  111OSM      P11386   1.189   3.908   6.635
  111OSM    O1311387   1.135   3.798   6.548
  111OSM    O1411388   1.185   3.888   6.780
  111OSM    O1111389   1.111   4.036   6.595
  111OSM    O1211390   1.329   3.950   6.592
  111OSM    C1S11391   1.133   4.109   6.470
  111OSM    H1S11392   1.195   4.049   6.400
  111OSM    H1T11393   1.187   4.205   6.486
  111OSM     NF11394   1.012   4.198   6.266
  111OSM    HNF11395   0.993   4.295   6.259
  111OSM    C2S11396   0.997   4.137   6.399
  111OSM    H2S11397   0.937   4.046   6.376
  111OSM    C3S11398   0.904   4.225   6.496
  111OSM    H3S11399   0.966   4.311   6.528
  111OSM     O311400   0.875   4.153   6.618
  111OSM    HO311401   0.957   4.105   6.631
  111OSM    C4S11402   0.776   4.269   6.427
  111OSM    H4S11403   0.756   4.377   6.437
  111OSM    C5S11404   0.673   4.197   6.384
  111OSM    H5S11405   0.681   4.090   6.411
  111OSM    C6S11406   0.543   4.248   6.329
  111OSM    H6S11407   0.529   4.351   6.367
  111OSM    H6T11408   0.457   4.190   6.369
  111OSM    C7S11409   0.544   4.247   6.175
  111OSM    H7S11410   0.442   4.262   6.133
  111OSM    H7T11411   0.583   4.150   6.137
  111OSM    C8S11412   0.643   4.349   6.120
  111OSM    H8S11413   0.741   4.340   6.172
  111OSM    H8T11414   0.599   4.448   6.145
  111OSM    C9S11415   0.658   4.337   5.963
  111OSM    H9S11416   0.554   4.355   5.930
  111OSM    H9T11417   0.692   4.234   5.939
  111OSM   C10S11418   0.742   4.450   5.894
  111OSM   H10S11419   0.852   4.444   5.903
  111OSM   H10T11420   0.711   4.545   5.943
  111OSM   C11S11421   0.720   4.454   5.747
  111OSM   H11S11422   0.616   4.486   5.723
  111OSM   H11T11423   0.742   4.355   5.702
  111OSM   C12S11424   0.799   4.558   5.667
  111OSM   H12S11425   0.906   4.528   5.662
  111OSM   H12T11426   0.800   4.647   5.733
  111OSM   C13S11427   0.737   4.562   5.528
  111OSM   H13S11428   0.633   4.600   5.535
  111OSM   H13T11429   0.746   4.458   5.492
  111OSM   C14S11430   0.798   4.662   5.426
  111OSM   H14S11431   0.909   4.657   5.416
  111OSM   H14T11432   0.771   4.765   5.458
  111OSM   C15S11433   0.755   4.626   5.281
  111OSM   H15S11434   0.648   4.597   5.289
  111OSM   H15T11435   0.809   4.537   5.241
  111OSM   C16S11436   0.780   4.747   5.187
  111OSM   H16S11437   0.739   4.840   5.234
  111OSM   H16T11438   0.724   4.733   5.093
  111OSM   C17S11439   0.922   4.768   5.131
  111OSM   H17S11440   0.994   4.766   5.216
  111OSM   H17T11441   0.925   4.864   5.075
  111OSM   C18S11442   0.970   4.658   5.041
  111OSM   H18S11443   0.986   4.572   5.109
  111OSM   H18T11444   1.066   4.696   5.000
  111OSM   H18U11445   0.903   4.633   4.955
  111OSM    C1F11446   1.068   4.125   6.161
  111OSM     OF11447   1.102   4.011   6.178
  111OSM    C2F11448   1.092   4.191   6.028
  111OSM    H2F11449   1.200   4.210   6.011
  111OSM    H2G11450   1.037   4.287   6.023
  111OSM    C3F11451   1.038   4.108   5.908
  111OSM    H3F11452   0.927   4.110   5.906
  111OSM    H3G11453   1.077   4.004   5.913
  111OSM    C4F11454   1.090   4.175   5.778
  111OSM    H4F11455   1.198   4.196   5.793
  111OSM    H4G11456   1.042   4.275   5.778
  111OSM    C5F11457   1.054   4.085   5.654
  111OSM    H5F11458   0.947   4.058   5.645
  111OSM    H5G11459   1.105   3.987   5.670
  111OSM    C6F11460   1.089   4.137   5.514
  111OSM    H6F11461   1.060   4.059   5.440
  111OSM    H6G11462   1.196   4.157   5.493
  111OSM    C7F11463   1.013   4.268   5.494
  111OSM    H7F11464   1.043   4.350   5.562
  111OSM    H7G11465   0.908   4.248   5.525
  111OSM    C8F11466   1.012   4.317   5.351
  111OSM    H8F11467   1.116   4.328   5.314
  111OSM    H8G11468   0.978   4.422   5.341
  111OSM    C9F11469   0.928   4.234   5.256
  111OSM    H9F11470   0.836   4.195   5.303
  111OSM   C10F11471   0.963   4.195   5.133
  111OSM   H10F11472   0.904   4.118   5.082
  111OSM   C11F11473   1.097   4.218   5.067
  111OSM   H11F11474   1.183   4.173   5.121
  111OSM   H11G11475   1.121   4.326   5.053
  111OSM   C12F11476   1.094   4.158   4.925
  111OSM   H12F11477   1.051   4.056   4.919
  111OSM   H12G11478   1.201   4.158   4.894
  111OSM   C13F11479   1.023   4.236   4.817
  111OSM   H13F11480   1.065   4.339   4.818
  111OSM   H13G11481   0.915   4.237   4.844
  111OSM   C14F11482   1.034   4.182   4.676
  111OSM   H14F11483   1.001   4.076   4.678
  111OSM   H14G11484   1.142   4.183   4.649
  111OSM   C15F11485   0.953   4.266   4.570
  111OSM   H15F11486   0.975   4.375   4.573
  111OSM   H15G11487   0.848   4.257   4.605
  111OSM   C16F11488   0.944   4.201   4.433
  111OSM   H16F11489   0.873   4.244   4.359
  111OSM   H16G11490   0.910   4.096   4.449
  111OSM   C17F11491   1.087   4.211   4.371
  111OSM   H17F11492   1.160   4.169   4.443
  111OSM   H17G11493   1.109   4.317   4.347
  111OSM   C18F11494   1.098   4.119   4.248
  111OSM   H18F11495   1.200   4.117   4.206
  111OSM   H18G11496   1.028   4.158   4.171
  111OSM   H18H11497   1.070   4.014   4.272
  112OSM      N11498   4.069   1.008   7.352
  112OSM    C1511499   4.186   1.097   7.396
  112OSM   H15A11500   4.154   1.196   7.368
  112OSM   H15B11501   4.273   1.080   7.334
  112OSM   H15C11502   4.210   1.090   7.501
  112OSM    C1411503   4.125   0.876   7.335
  112OSM   H14A11504   4.180   0.843   7.422
  112OSM   H14B11505   4.200   0.876   7.258
  112OSM   H14C11506   4.054   0.801   7.304
  112OSM    C1311507   3.975   1.013   7.477
  112OSM   H13A11508   4.030   1.030   7.568
  112OSM   H13B11509   3.916   0.924   7.491
  112OSM   H13C11510   3.908   1.098   7.480
  112OSM    C1211511   4.016   1.062   7.221
  112OSM   H12A11512   3.935   1.003   7.179
  112OSM   H12B11513   4.097   1.073   7.151
  112OSM    C1111514   3.942   1.202   7.231
  112OSM   H11A11515   4.015   1.280   7.263
  112OSM   H11B11516   3.849   1.199   7.291
  112OSM      P11517   3.788   1.195   7.019
  112OSM    O1311518   3.807   1.054   6.991
  112OSM    O1411519   3.669   1.228   7.098
  112OSM    O1111520   3.779   1.274   6.887
  112OSM    O1211521   3.913   1.249   7.100
  112OSM    C1S11522   3.884   1.252   6.782
  112OSM    H1S11523   3.869   1.153   6.733
  112OSM    H1T11524   3.989   1.248   6.819
  112OSM     NF11525   3.947   1.302   6.549
  112OSM    HNF11526   4.041   1.333   6.537
  112OSM    C2S11527   3.876   1.354   6.666
  112OSM    H2S11528   3.770   1.373   6.636
  112OSM    C3S11529   3.931   1.494   6.710
  112OSM    H3S11530   4.038   1.485   6.740
  112OSM     O311531   3.870   1.528   6.831
  112OSM    HO311532   3.837   1.445   6.866
  112OSM    C4S11533   3.930   1.598   6.599
  112OSM    H4S11534   4.013   1.576   6.531
  112OSM    C5S11535   3.832   1.692   6.577
  112OSM    H5S11536   3.752   1.697   6.653
  112OSM    C6S11537   3.833   1.791   6.457
  112OSM    H6S11538   3.838   1.897   6.487
  112OSM    H6T11539   3.737   1.781   6.403
  112OSM    C7S11540   3.940   1.765   6.349
  112OSM    H7S11541   3.945   1.657   6.324
  112OSM    H7T11542   4.038   1.787   6.396
  112OSM    C8S11543   3.929   1.862   6.226
  112OSM    H8S11544   3.949   1.965   6.262
  112OSM    H8T11545   3.826   1.862   6.185
  112OSM    C9S11546   4.023   1.814   6.109
  112OSM    H9S11547   3.983   1.717   6.073
  112OSM    H9T11548   4.124   1.795   6.149
  112OSM   C10S11549   4.009   1.912   5.998
  112OSM   H10S11550   4.043   2.014   6.027
  112OSM   H10T11551   3.902   1.917   5.971
  112OSM   C11S11552   4.078   1.861   5.871
  112OSM   H11S11553   4.027   1.764   5.854
  112OSM   H11T11554   4.188   1.860   5.885
  112OSM   C12S11555   4.051   1.938   5.739
  112OSM   H12S11556   4.063   2.047   5.759
  112OSM   H12T11557   3.944   1.928   5.711
  112OSM   C13S11558   4.140   1.888   5.625
  112OSM   H13S11559   4.131   1.780   5.600
  112OSM   H13T11560   4.248   1.905   5.646
  112OSM   C14S11561   4.111   1.964   5.496
  112OSM   H14S11562   4.125   2.074   5.504
  112OSM   H14T11563   4.004   1.950   5.471
  112OSM   C15S11564   4.196   1.913   5.376
  112OSM   H15S11565   4.172   1.806   5.364
  112OSM   H15T11566   4.302   1.923   5.409
  112OSM   C16S11567   4.182   1.993   5.240
  112OSM   H16S11568   4.209   2.092   5.283
  112OSM   H16T11569   4.075   1.993   5.208
  112OSM   C17S11570   4.268   1.947   5.122
  112OSM   H17S11571   4.217   1.862   5.073
  112OSM   H17T11572   4.366   1.908   5.156
  112OSM   C18S11573   4.289   2.048   5.006
  112OSM   H18S11574   4.202   2.096   4.955
  112OSM   H18T11575   4.343   1.994   4.925
  112OSM   H18U11576   4.340   2.136   5.050
  112OSM    C1F11577   3.895   1.203   6.470
  112OSM     OF11578   3.782   1.158   6.500
  112OSM    C2F11579   3.985   1.170   6.360
  112OSM    H2F11580   4.076   1.121   6.400
  112OSM    H2G11581   4.023   1.261   6.309
  112OSM    C3F11582   3.916   1.086   6.248
  112OSM    H3F11583   3.829   1.139   6.204
  112OSM    H3G11584   3.868   0.998   6.296
  112OSM    C4F11585   4.014   1.052   6.138
  112OSM    H4F11586   4.088   0.983   6.184
  112OSM    H4G11587   4.082   1.133   6.106
  112OSM    C5F11588   3.937   0.993   6.018
  112OSM    H5F11589   3.874   1.080   5.988
  112OSM    H5G11590   3.887   0.897   6.042
  112OSM    C6F11591   4.019   0.984   5.886
  112OSM    H6F11592   4.094   0.902   5.885
  112OSM    H6G11593   4.057   1.087   5.867
  112OSM    C7F11594   3.924   0.948   5.771
  112OSM    H7F11595   3.817   0.974   5.786
  112OSM    H7G11596   3.916   0.843   5.736
  112OSM    C8F11597   3.979   1.012   5.638
  112OSM    H8F11598   3.947   0.941   5.559
  112OSM    H8G11599   4.088   1.022   5.619
  112OSM    C9F11600   3.906   1.144   5.626
  112OSM    H9F11601   3.908   1.197   5.723
  112OSM   C10F11602   3.857   1.200   5.518
  112OSM   H10F11603   3.792   1.289   5.518
  112OSM   C11F11604   3.867   1.133   5.386
  112OSM   H11F11605   3.769   1.140   5.334
  112OSM   H11G11606   3.903   1.029   5.394
  112OSM   C12F11607   3.967   1.209   5.289
  112OSM   H12F11608   4.068   1.218   5.332
  112OSM   H12G11609   3.910   1.302   5.272
  112OSM   C13F11610   3.984   1.138   5.158
  112OSM   H13F11611   3.894   1.091   5.112
  112OSM   H13G11612   4.063   1.060   5.163
  112OSM   C14F11613   4.040   1.241   5.061
  112OSM   H14F11614   4.139   1.272   5.099
  112OSM   H14G11615   3.973   1.329   5.075
  112OSM   C15F11616   4.034   1.201   4.912
  112OSM   H15F11617   4.075   1.281   4.846
  112OSM   H15G11618   3.929   1.174   4.889
  112OSM   C16F11619   4.124   1.073   4.884
  112OSM   H16F11620   4.080   0.996   4.951
  112OSM   H16G11621   4.230   1.084   4.916
  112OSM   C17F11622   4.106   1.026   4.739
  112OSM   H17F11623   4.000   1.009   4.713
  112OSM   H17G11624   4.154   0.926   4.728
  112OSM   C18F11625   4.171   1.118   4.632
  112OSM   H18F11626   4.152   1.089   4.527
  112OSM   H18G11627   4.272   1.158   4.657
  112OSM   H18H11628   4.100   1.204   4.634
  113OSM      N11629   0.645   1.813   6.735
  113OSM    C1511630   0.519   1.796   6.822
  113OSM   H15A11631   0.538   1.798   6.928
  113OSM   H15B11632   0.482   1.695   6.809
  113OSM   H15C11633   0.438   1.867   6.821
  113OSM    C1411634   0.604   1.832   6.591
  113OSM   H14A11635   0.557   1.743   6.551
  113OSM   H14B11636   0.690   1.861   6.532
  113OSM   H14C11637   0.535   1.914   6.578
  113OSM    C1311638   0.717   1.934   6.783
  113OSM   H13A11639   0.822   1.919   6.759
  113OSM   H13B11640   0.716   1.952   6.890
  113OSM   H13C11641   0.691   2.031   6.743
  113OSM    C1211642   0.738   1.693   6.736
  113OSM   H12A11643   0.753   1.662   6.838
  113OSM   H12B11644   0.834   1.727   6.701
  113OSM    C1111645   0.723   1.555   6.665
  113OSM   H11A11646   0.790   1.481   6.714
  113OSM   H11B11647   0.765   1.560   6.563
  113OSM      P11648   0.506   1.426   6.560
  113OSM    O1311649   0.527   1.281   6.581
  113OSM    O1411650   0.369   1.488   6.560
  113OSM    O1111651   0.585   1.468   6.431
  113OSM    O1211652   0.594   1.504   6.664
  113OSM    C1S11653   0.544   1.402   6.310
  113OSM    H1S11654   0.483   1.312   6.329
  113OSM    H1T11655   0.632   1.371   6.250
  113OSM     NF11656   0.399   1.416   6.121
  113OSM    HNF11657   0.434   1.408   6.027
  113OSM    C2S11658   0.470   1.500   6.217
  113OSM    H2S11659   0.390   1.552   6.274
  113OSM    C3S11660   0.567   1.606   6.158
  113OSM    H3S11661   0.627   1.548   6.085
  113OSM     O311662   0.656   1.661   6.254
  113OSM    HO311663   0.649   1.596   6.324
  113OSM    C4S11664   0.488   1.698   6.074
  113OSM    H4S11665   0.504   1.686   5.966
  113OSM    C5S11666   0.401   1.799   6.107
  113OSM    H5S11667   0.372   1.828   6.209
  113OSM    C6S11668   0.335   1.889   6.004
  113OSM    H6S11669   0.381   1.990   6.015
  113OSM    H6T11670   0.225   1.896   6.014
  113OSM    C7S11671   0.355   1.852   5.859
  113OSM    H7S11672   0.299   1.758   5.846
  113OSM    H7T11673   0.463   1.836   5.839
  113OSM    C8S11674   0.308   1.957   5.756
  113OSM    H8S11675   0.376   2.045   5.760
  113OSM    H8T11676   0.209   2.000   5.783
  113OSM    C9S11677   0.301   1.905   5.609
  113OSM    H9S11678   0.234   1.817   5.606
  113OSM    H9T11679   0.401   1.874   5.571
  113OSM   C10S11680   0.242   2.004   5.509
  113OSM   H10S11681   0.304   2.095   5.495
  113OSM   H10T11682   0.147   2.045   5.550
  113OSM   C11S11683   0.212   1.943   5.376
  113OSM   H11S11684   0.139   1.860   5.390
  113OSM   H11T11685   0.304   1.896   5.336
  113OSM   C12S11686   0.154   2.041   5.274
  113OSM   H12S11687   0.226   2.124   5.257
  113OSM   H12T11688   0.068   2.096   5.317
  113OSM   C13S11689   0.128   1.966   5.140
  113OSM   H13S11690   0.075   1.874   5.174
  113OSM   H13T11691   0.227   1.941   5.097
  113OSM   C14S11692   0.059   2.057   5.034
  113OSM   H14S11693   0.102   2.159   5.043
  113OSM   H14T11694   6.792   2.072   5.039
  113OSM   C15S11695   0.072   2.005   4.890
  113OSM   H15S11696   0.004   1.917   4.883
  113OSM   H15T11697   0.180   1.989   4.869
  113OSM   C16S11698   0.017   2.113   4.786
  113OSM   H16S11699   0.078   2.205   4.796
  113OSM   H16T11700   6.754   2.127   4.820
  113OSM   C17S11701   0.029   2.066   4.637
  113OSM   H17S11702   0.136   2.057   4.607
  113OSM   H17T11703   6.842   2.151   4.571
  113OSM   C18S11704   6.788   1.949   4.593
  113OSM   H18S11705   6.679   1.967   4.599
  113OSM   H18T11706   6.817   1.854   4.643
  113OSM   H18U11707   6.822   1.940   4.487
  113OSM    C1F11708   0.298   1.337   6.153
  113OSM     OF11709   0.234   1.361   6.252
  113OSM    C2F11710   0.269   1.214   6.066
  113OSM    H2F11711   0.318   1.129   6.118
  113OSM    H2G11712   0.314   1.222   5.966
  113OSM    C3F11713   0.121   1.196   6.053
  113OSM    H3F11714   0.070   1.160   6.146
  113OSM    H3G11715   0.106   1.111   5.983
  113OSM    C4F11716   0.052   1.334   6.008
  113OSM    H4F11717   0.112   1.374   5.923
  113OSM    H4G11718   0.050   1.411   6.087
  113OSM    C5F11719   6.741   1.328   5.996
  113OSM    H5F11720   6.713   1.432   5.970
  113OSM    H5G11721   6.698   1.304   6.095
  113OSM    C6F11722   6.678   1.257   5.872
  113OSM    H6F11723   6.568   1.260   5.867
  113OSM    H6G11724   6.718   1.153   5.871
  113OSM    C7F11725   6.736   1.325   5.737
  113OSM    H7F11726   0.003   1.337   5.739
  113OSM    H7G11727   6.686   1.424   5.743
  113OSM    C8F11728   6.692   1.263   5.606
  113OSM    H8F11729   6.738   1.328   5.528
  113OSM    H8G11730   6.582   1.272   5.598
  113OSM    C9F11731   6.736   1.120   5.589
  113OSM    H9F11732   6.709   1.060   5.677
  113OSM   C10F11733   6.807   1.055   5.499
  113OSM   H10F11734   6.826   0.947   5.510
  113OSM   C11F11735   0.017   1.118   5.372
  113OSM   H11F11736   0.128   1.128   5.373
  113OSM   H11G11737   6.816   1.219   5.359
  113OSM   C12F11738   6.829   1.033   5.248
  113OSM   H12F11739   6.719   1.042   5.232
  113OSM   H12G11740   0.013   0.926   5.265
  113OSM   C13F11741   0.046   1.101   5.127
  113OSM   H13F11742   0.156   1.113   5.141
  113OSM   H13G11743   0.007   1.201   5.096
  113OSM   C14F11744   0.008   1.019   5.000
  113OSM   H14F11745   6.740   1.016   4.994
  113OSM   H14G11746   0.051   0.917   5.008
  113OSM   C15F11747   0.070   1.071   4.869
  113OSM   H15F11748   0.110   0.987   4.807
  113OSM   H15G11749   0.155   1.140   4.885
  113OSM   C16F11750   6.806   1.143   4.778
  113OSM   H16F11751   6.760   1.228   4.832
  113OSM   H16G11752   6.719   1.074   4.775
  113OSM   C17F11753   0.025   1.200   4.648
  113OSM   H17F11754   0.061   1.103   4.607
  113OSM   H17G11755   0.114   1.258   4.680
  113OSM   C18F11756   6.779   1.266   4.540
  113OSM   H18F11757   6.833   1.271   4.443
  113OSM   H18G11758   6.742   1.365   4.574
  113OSM   H18H11759   6.694   1.195   4.522
  114OSM      N11760   5.983   6.267   6.808
  114OSM    C1511761   6.123   6.226   6.850
  114OSM   H15A11762   6.158   6.294   6.926
  114OSM   H15B11763   6.194   6.235   6.770
  114OSM   H15C11764   6.116   6.127   6.893
  114OSM    C1411765   5.940   6.180   6.700
  114OSM   H14A11766   5.988   6.202   6.606
  114OSM   H14B11767   5.835   6.177   6.673
  114OSM   H14C11768   5.948   6.076   6.729
  114OSM    C1311769   5.879   6.250   6.925
  114OSM   H13A11770   5.905   6.171   6.994
  114OSM   H13B11771   5.776   6.250   6.891
  114OSM   H13C11772   5.882   6.338   6.986
  114OSM    C1211773   5.985   6.410   6.760
  114OSM   H12A11774   5.991   6.479   6.842
  114OSM   H12B11775   5.892   6.429   6.707
  114OSM    C1111776   6.097   6.459   6.664
  114OSM   H11A11777   6.084   6.567   6.640
  114OSM   H11B11778   6.088   6.419   6.561
  114OSM      P11779   6.307   6.544   6.775
  114OSM    O1311780   6.237   6.571   6.903
  114OSM    O1411781   6.452   6.512   6.777
  114OSM    O1111782   6.280   6.673   6.683
  114OSM    O1211783   6.233   6.430   6.690
  114OSM    C1S11784   6.321   6.671   6.545
  114OSM    H1S11785   6.250   6.607   6.487
  114OSM    H1T11786   6.415   6.613   6.534
  114OSM     NF11787   6.357   6.818   6.351
  114OSM    HNF11788   6.450   0.001   6.328
  114OSM    C2S11789   6.314   6.812   6.486
  114OSM    H2S11790   6.212   0.013   6.489
  114OSM    C3S11791   6.398   0.069   6.569
  114OSM    H3S11792   6.500   0.025   6.579
  114OSM     O311793   6.369   0.075   6.711
  114OSM    HO311794   6.334   6.830   6.729
  114OSM    C4S11795   6.404   0.204   6.504
  114OSM    H4S11796   6.504   0.227   6.466
  114OSM    C5S11797   6.315   0.302   6.515
  114OSM    H5S11798   6.231   0.271   6.579
  114OSM    C6S11799   6.311   0.441   6.449
  114OSM    H6S11800   6.394   0.510   6.476
  114OSM    H6T11801   6.219   0.501   6.468
  114OSM    C7S11802   6.327   0.442   6.293
  114OSM    H7S11803   6.436   0.430   6.273
  114OSM    H7T11804   6.295   0.546   6.272
  114OSM    C8S11805   6.237   0.341   6.220
  114OSM    H8S11806   6.132   0.367   6.245
  114OSM    H8T11807   6.271   0.239   6.249
  114OSM    C9S11808   6.244   0.355   6.070
  114OSM    H9S11809   6.191   0.269   6.025
  114OSM    H9T11810   6.348   0.360   6.031
  114OSM   C10S11811   6.177   0.477   6.010
  114OSM   H10S11812   6.219   0.568   6.058
  114OSM   H10T11813   6.067   0.488   6.023
  114OSM   C11S11814   6.220   0.501   5.866
  114OSM   H11S11815   6.331   0.506   5.865
  114OSM   H11T11816   6.185   0.604   5.843
  114OSM   C12S11817   6.161   0.397   5.775
  114OSM   H12S11818   6.050   0.398   5.785
  114OSM   H12T11819   6.185   0.290   5.793
  114OSM   C13S11820   6.200   0.418   5.631
  114OSM   H13S11821   6.311   0.420   5.642
  114OSM   H13T11822   6.169   0.515   5.585
  114OSM   C14S11823   6.153   0.297   5.545
  114OSM   H14S11824   6.044   0.281   5.559
  114OSM   H14T11825   6.204   0.212   5.596
  114OSM   C15S11826   6.190   0.316   5.395
  114OSM   H15S11827   6.290   0.364   5.382
  114OSM   H15T11828   6.116   0.391   5.360
  114OSM   C16S11829   6.188   0.193   5.307
  114OSM   H16S11830   6.106   0.126   5.339
  114OSM   H16T11831   6.280   0.137   5.335
  114OSM   C17S11832   6.183   0.220   5.154
  114OSM   H17S11833   6.246   0.305   5.124
  114OSM   H17T11834   6.075   0.242   5.138
  114OSM   C18S11835   6.217   0.109   5.056
  114OSM   H18S11836   6.137   0.038   5.027
  114OSM   H18T11837   6.307   0.054   5.093
  114OSM   H18U11838   6.254   0.149   4.960
  114OSM    C1F11839   6.279   6.781   6.255
  114OSM     OF11840   6.172   6.730   6.285
  114OSM    C2F11841   6.331   6.795   6.111
  114OSM    H2F11842   6.429   6.743   6.111
  114OSM    H2G11843   6.355   0.056   6.082
  114OSM    C3F11844   6.244   6.740   5.999
  114OSM    H3F11845   6.152   6.803   6.002
  114OSM    H3G11846   6.212   6.635   6.015
  114OSM    C4F11847   6.307   6.751   5.856
  114OSM    H4F11848   6.406   6.701   5.859
  114OSM    H4G11849   6.337   0.014   5.840
  114OSM    C5F11850   6.223   6.722   5.731
  114OSM    H5F11851   6.155   6.808   5.717
  114OSM    H5G11852   6.160   6.635   5.762
  114OSM    C6F11853   6.301   6.702   5.598
  114OSM    H6F11854   6.348   6.601   5.598
  114OSM    H6G11855   6.388   6.770   5.608
  114OSM    C7F11856   6.199   6.720   5.477
  114OSM    H7F11857   6.174   6.827   5.466
  114OSM    H7G11858   6.107   6.663   5.505
  114OSM    C8F11859   6.259   6.679   5.343
  114OSM    H8F11860   6.347   6.744   5.324
  114OSM    H8G11861   6.189   6.719   5.267
  114OSM    C9F11862   6.292   6.529   5.328
  114OSM    H9F11863   6.240   6.456   5.391
  114OSM   C10F11864   6.358   6.483   5.221
  114OSM   H10F11865   6.385   6.377   5.218
  114OSM   C11F11866   6.429   6.554   5.110
  114OSM   H11F11867   6.537   6.540   5.130
  114OSM   H11G11868   6.409   6.663   5.106
  114OSM   C12F11869   6.382   6.497   4.975
  114OSM   H12F11870   6.400   6.389   4.959
  114OSM   H12G11871   6.434   6.553   4.894
  114OSM   C13F11872   6.229   6.514   4.942
  114OSM   H13F11873   6.217   6.622   4.922
  114OSM   H13G11874   6.170   6.481   5.030
  114OSM   C14F11875   6.189   6.429   4.815
  114OSM   H14F11876   6.079   6.410   4.818
  114OSM   H14G11877   6.236   6.330   4.831
  114OSM   C15F11878   6.212   6.493   4.680
  114OSM   H15F11879   6.149   6.429   4.614
  114OSM   H15G11880   6.320   6.481   4.661
  114OSM   C16F11881   6.169   6.639   4.666
  114OSM   H16F11882   6.251   6.714   4.657
  114OSM   H16G11883   6.111   6.670   4.755
  114OSM   C17F11884   6.081   6.667   4.548
  114OSM   H17F11885   5.985   6.611   4.555
  114OSM   H17G11886   6.132   6.615   4.464
  114OSM   C18F11887   6.066   6.816   4.518
  114OSM   H18F11888   6.006   0.014   4.602
  114OSM   H18G11889   6.019   6.818   4.418
  114OSM   H18H11890   6.166   0.021   4.510
  115OSM      N11891   0.218   2.468   7.005
  115OSM    C1511892   0.359   2.420   6.983
  115OSM   H15A11893   0.365   2.391   6.879
  115OSM   H15B11894   0.365   2.325   7.034
  115OSM   H15C11895   0.439   2.485   7.014
  115OSM    C1411896   0.128   2.369   6.937
  115OSM   H14A11897   0.027   2.398   6.963
  115OSM   H14B11898   0.150   2.273   6.981
  115OSM   H14C11899   0.139   2.362   6.830
  115OSM    C1311900   0.202   2.461   7.152
  115OSM   H13A11901   0.110   2.510   7.180
  115OSM   H13B11902   0.279   2.513   7.206
  115OSM   H13C11903   0.209   2.363   7.195
  115OSM    C1211904   0.206   2.610   6.944
  115OSM   H12A11905   0.277   2.672   6.997
  115OSM   H12B11906   0.111   2.649   6.977
  115OSM    C1111907   0.219   2.624   6.794
  115OSM   H11A11908   0.307   2.568   6.755
  115OSM   H11B11909   0.238   2.728   6.760
  115OSM      P11910   6.800   2.635   6.746
  115OSM    O1311911   6.704   2.542   6.688
  115OSM    O1411912   6.780   2.685   6.881
  115OSM    O1111913   6.799   2.761   6.646
  115OSM    O1211914   0.102   2.576   6.730
  115OSM    C1S11915   6.829   2.757   6.507
  115OSM    H1S11916   6.806   2.659   6.460
  115OSM    H1T11917   0.095   2.777   6.493
  115OSM     NF11918   6.733   2.836   6.292
  115OSM    HNF11919   6.800   2.881   6.232
  115OSM    C2S11920   6.740   2.863   6.435
  115OSM    H2S11921   6.640   2.838   6.475
  115OSM    C3S11922   6.773   2.999   6.489
  115OSM    H3S11923   0.036   3.023   6.465
  115OSM     O311924   6.751   3.013   6.627
  115OSM    HO311925   6.767   2.924   6.660
  115OSM    C4S11926   6.676   3.097   6.423
  115OSM    H4S11927   6.571   3.083   6.453
  115OSM    C5S11928   6.700   3.188   6.332
  115OSM    H5S11929   6.801   3.207   6.291
  115OSM    C6S11930   6.587   3.278   6.276
  115OSM    H6S11931   6.596   3.363   6.347
  115OSM    H6T11932   6.492   3.221   6.282
  115OSM    C7S11933   6.615   3.322   6.137
  115OSM    H7S11934   6.591   3.242   6.064
  115OSM    H7T11935   6.719   3.354   6.115
  115OSM    C8S11936   6.545   3.458   6.112
  115OSM    H8S11937   6.592   3.538   6.174
  115OSM    H8T11938   6.441   3.444   6.149
  115OSM    C9S11939   6.550   3.501   5.967
  115OSM    H9S11940   6.487   3.593   5.964
  115OSM    H9T11941   6.506   3.417   5.909
  115OSM   C10S11942   6.671   3.531   5.887
  115OSM   H10S11943   6.756   3.470   5.925
  115OSM   H10T11944   6.700   3.635   5.913
  115OSM   C11S11945   6.655   3.517   5.737
  115OSM   H11S11946   6.552   3.551   5.713
  115OSM   H11T11947   6.659   3.411   5.704
  115OSM   C12S11948   6.741   3.611   5.654
  115OSM   H12S11949   0.003   3.573   5.659
  115OSM   H12T11950   6.729   3.712   5.698
  115OSM   C13S11951   6.707   3.619   5.506
  115OSM   H13S11952   6.596   3.615   5.496
  115OSM   H13T11953   6.749   3.534   5.449
  115OSM   C14S11954   6.765   3.744   5.436
  115OSM   H14S11955   0.032   3.755   5.446
  115OSM   H14T11956   6.724   3.839   5.477
  115OSM   C15S11957   6.735   3.743   5.283
  115OSM   H15S11958   6.626   3.726   5.267
  115OSM   H15T11959   6.788   3.654   5.244
  115OSM   C16S11960   6.787   3.868   5.203
  115OSM   H16S11961   6.770   3.845   5.095
  115OSM   H16T11962   0.053   3.873   5.222
  115OSM   C17S11963   6.724   4.007   5.240
  115OSM   H17S11964   6.765   4.086   5.174
  115OSM   H17T11965   6.767   4.031   5.340
  115OSM   C18S11966   6.571   4.012   5.265
  115OSM   H18S11967   6.522   4.104   5.302
  115OSM   H18T11968   6.543   3.954   5.356
  115OSM   H18U11969   6.520   3.967   5.176
  115OSM    C1F11970   6.661   2.734   6.236
  115OSM     OF11971   6.591   2.670   6.311
  115OSM    C2F11972   6.675   2.710   6.089
  115OSM    H2F11973   6.715   2.607   6.083
  115OSM    H2G11974   6.746   2.783   6.045
  115OSM    C3F11975   6.541   2.700   6.007
  115OSM    H3F11976   6.486   2.796   6.019
  115OSM    H3G11977   6.469   2.620   6.034
  115OSM    C4F11978   6.570   2.700   5.857
  115OSM    H4F11979   6.643   2.622   5.829
  115OSM    H4G11980   6.607   2.803   5.838
  115OSM    C5F11981   6.440   2.685   5.781
  115OSM    H5F11982   6.359   2.727   5.844
  115OSM    H5G11983   6.408   2.579   5.770
  115OSM    C6F11984   6.428   2.754   5.645
  115OSM    H6F11985   6.452   2.862   5.647
  115OSM    H6G11986   6.323   2.738   5.614
  115OSM    C7F11987   6.507   2.675   5.531
  115OSM    H7F11988   6.459   2.577   5.511
  115OSM    H7G11989   6.607   2.663   5.578
  115OSM    C8F11990   6.530   2.740   5.394
  115OSM    H8F11991   6.603   2.674   5.343
  115OSM    H8G11992   6.576   2.841   5.408
  115OSM    C9F11993   6.406   2.751   5.298
  115OSM    H9F11994   6.325   2.681   5.322
  115OSM   C10F11995   6.381   2.840   5.201
  115OSM   H10F11996   6.292   2.843   5.137
  115OSM   C11F11997   6.474   2.945   5.159
  115OSM   H11F11998   6.573   2.897   5.144
  115OSM   H11G11999   6.475   3.037   5.222
  115OSM   C12F12000   6.443   2.986   5.009
  115OSM   H12F12001   6.506   3.076   4.988
  115OSM   H12G12002   6.339   3.023   4.997
  115OSM   C13F12003   6.481   2.872   4.909
  115OSM   H13F12004   6.435   2.782   4.954
  115OSM   H13G12005   6.591   2.859   4.915
  115OSM   C14F12006   6.443   2.907   4.764
  115OSM   H14F12007   6.514   2.985   4.729
  115OSM   H14G12008   6.336   2.937   4.764
  115OSM   C15F12009   6.446   2.784   4.672
  115OSM   H15F12010   6.377   2.704   4.708
  115OSM   H15G12011   6.546   2.736   4.673
  115OSM   C16F12012   6.391   2.829   4.533
  115OSM   H16F12013   6.468   2.885   4.476
  115OSM   H16G12014   6.305   2.898   4.540
  115OSM   C17F12015   6.356   2.714   4.435
  115OSM   H17F12016   6.268   2.653   4.464
  115OSM   H17G12017   6.445   2.648   4.427
  115OSM   C18F12018   6.339   2.751   4.288
  115OSM   H18F12019   6.279   2.844   4.273
  115OSM   H18G12020   6.275   2.681   4.230
  115OSM   H18H12021   6.434   2.774   4.235
  116OSM      N12022   1.107   0.944   6.625
  116OSM    C1512023   1.156   1.000   6.754
  116OSM   H15A12024   1.142   1.107   6.750
  116OSM   H15B12025   1.253   0.966   6.786
  116OSM   H15C12026   1.093   0.961   6.833
  116OSM    C1412027   1.128   0.795   6.632
  116OSM   H14A12028   1.096   0.753   6.538
  116OSM   H14B12029   1.068   0.747   6.709
  116OSM   H14C12030   1.233   0.778   6.650
  116OSM    C1312031   0.958   0.976   6.611
  116OSM   H13A12032   0.935   1.081   6.622
  116OSM   H13B12033   0.904   0.913   6.680
  116OSM   H13C12034   0.930   0.929   6.519
  116OSM    C1212035   1.194   1.002   6.514
  116OSM   H12A12036   1.180   0.942   6.425
  116OSM   H12B12037   1.297   0.996   6.546
  116OSM    C1112038   1.166   1.144   6.465
  116OSM   H11A12039   1.057   1.158   6.447
  116OSM   H11B12040   1.227   1.142   6.373
  116OSM      P12041   1.353   1.292   6.558
  116OSM    O1312042   1.355   1.394   6.671
  116OSM    O1412043   1.442   1.177   6.589
  116OSM    O1112044   1.376   1.357   6.412
  116OSM    O1212045   1.201   1.241   6.563
  116OSM    C1S12046   1.275   1.432   6.343
  116OSM    H1S12047   1.215   1.497   6.410
  116OSM    H1T12048   1.198   1.367   6.297
  116OSM     NF12049   1.236   1.609   6.189
  116OSM    HNF12050   1.200   1.596   6.096
  116OSM    C2S12051   1.337   1.517   6.240
  116OSM    H2S12052   1.414   1.571   6.300
  116OSM    C3S12053   1.401   1.423   6.128
  116OSM    H3S12054   1.319   1.358   6.090
  116OSM     O312055   1.497   1.333   6.182
  116OSM    HO312056   1.485   1.347   6.276
  116OSM    C4S12057   1.453   1.500   6.011
  116OSM    H4S12058   1.374   1.502   5.935
  116OSM    C5S12059   1.576   1.538   5.970
  116OSM    H5S12060   1.665   1.513   6.030
  116OSM    C6S12061   1.611   1.602   5.835
  116OSM    H6S12062   1.688   1.541   5.782
  116OSM    H6T12063   1.652   1.704   5.853
  116OSM    C7S12064   1.502   1.614   5.729
  116OSM    H7S12065   1.415   1.662   5.779
  116OSM    H7T12066   1.466   1.512   5.706
  116OSM    C8S12067   1.546   1.684   5.597
  116OSM    H8S12068   1.641   1.648   5.551
  116OSM    H8T12069   1.566   1.792   5.614
  116OSM    C9S12070   1.441   1.671   5.484
  116OSM    H9S12071   1.337   1.694   5.514
  116OSM    H9T12072   1.440   1.562   5.465
  116OSM   C10S12073   1.473   1.726   5.340
  116OSM   H10S12074   1.583   1.724   5.331
  116OSM   H10T12075   1.441   1.832   5.332
  116OSM   C11S12076   1.411   1.656   5.225
  116OSM   H11S12077   1.299   1.654   5.223
  116OSM   H11T12078   1.438   1.548   5.223
  116OSM   C12S12079   1.457   1.721   5.098
  116OSM   H12S12080   1.567   1.725   5.085
  116OSM   H12T12081   1.428   1.828   5.090
  116OSM   C13S12082   1.427   1.646   4.964
  116OSM   H13S12083   1.318   1.629   4.969
  116OSM   H13T12084   1.465   1.541   4.963
  116OSM   C14S12085   1.471   1.719   4.836
  116OSM   H14S12086   1.582   1.731   4.829
  116OSM   H14T12087   1.420   1.817   4.830
  116OSM   C15S12088   1.439   1.642   4.704
  116OSM   H15S12089   1.476   1.538   4.714
  116OSM   H15T12090   1.489   1.679   4.612
  116OSM   C16S12091   1.286   1.652   4.681
  116OSM   H16S12092   1.270   1.762   4.683
  116OSM   H16T12093   1.215   1.608   4.754
  116OSM   C17S12094   1.247   1.590   4.546
  116OSM   H17S12095   1.275   1.483   4.540
  116OSM   H17T12096   1.295   1.642   4.460
  116OSM   C18S12097   1.101   1.611   4.525
  116OSM   H18S12098   1.072   1.547   4.439
  116OSM   H18T12099   1.086   1.721   4.520
  116OSM   H18U12100   1.040   1.569   4.608
  116OSM    C1F12101   1.185   1.711   6.261
  116OSM     OF12102   1.227   1.745   6.375
  116OSM    C2F12103   1.082   1.791   6.191
  116OSM    H2F12104   1.124   1.890   6.164
  116OSM    H2G12105   0.995   1.800   6.259
  116OSM    C3F12106   1.025   1.731   6.055
  116OSM    H3F12107   0.978   1.632   6.074
  116OSM    H3G12108   1.108   1.725   5.982
  116OSM    C4F12109   0.920   1.827   5.994
  116OSM    H4F12110   0.969   1.925   5.979
  116OSM    H4G12111   0.830   1.841   6.058
  116OSM    C5F12112   0.860   1.775   5.865
  116OSM    H5F12113   0.826   1.672   5.892
  116OSM    H5G12114   0.938   1.770   5.786
  116OSM    C6F12115   0.750   1.863   5.820
  116OSM    H6F12116   0.689   1.904   5.904
  116OSM    H6G12117   0.674   1.801   5.768
  116OSM    C7F12118   0.798   1.966   5.724
  116OSM    H7F12119   0.898   2.011   5.740
  116OSM    H7G12120   0.730   2.054   5.720
  116OSM    C8F12121   0.818   1.910   5.580
  116OSM    H8F12122   0.731   1.843   5.562
  116OSM    H8G12123   0.913   1.854   5.567
  116OSM    C9F12124   0.827   2.018   5.475
  116OSM    H9F12125   0.923   2.072   5.477
  116OSM   C10F12126   0.744   2.037   5.374
  116OSM   H10F12127   0.756   2.129   5.315
  116OSM   C11F12128   0.611   1.978   5.353
  116OSM   H11F12129   0.534   2.055   5.377
  116OSM   H11G12130   0.589   1.895   5.424
  116OSM   C12F12131   0.586   1.920   5.213
  116OSM   H12F12132   0.480   1.885   5.222
  116OSM   H12G12133   0.640   1.826   5.187
  116OSM   C13F12134   0.595   2.018   5.099
  116OSM   H13F12135   0.700   2.041   5.074
  116OSM   H13G12136   0.534   2.108   5.125
  116OSM   C14F12137   0.533   1.945   4.979
  116OSM   H14F12138   0.433   1.909   5.013
  116OSM   H14G12139   0.604   1.866   4.948
  116OSM   C15F12140   0.524   2.037   4.851
  116OSM   H15F12141   0.511   1.969   4.763
  116OSM   H15G12142   0.617   2.096   4.853
  116OSM   C16F12143   0.400   2.125   4.843
  116OSM   H16F12144   0.340   2.102   4.934
  116OSM   H16G12145   0.344   2.079   4.758
  116OSM   C17F12146   0.432   2.281   4.819
  116OSM   H17F12147   0.344   2.327   4.771
  116OSM   H17G12148   0.519   2.302   4.752
  116OSM   C18F12149   0.450   2.367   4.942
  116OSM   H18F12150   0.547   2.349   4.994
  116OSM   H18G12151   0.366   2.345   5.011
  116OSM   H18H12152   0.446   2.476   4.920
  117OSM      N12153   0.850   4.950   6.954
  117OSM    C1512154   0.944   4.841   6.993
  117OSM   H15A12155   0.969   4.862   7.095
  117OSM   H15B12156   1.031   4.841   6.929
  117OSM   H15C12157   0.896   4.750   6.960
  117OSM    C1412158   0.705   4.914   7.009
  117OSM   H14A12159   0.633   4.995   6.998
  117OSM   H14B12160   0.705   4.888   7.114
  117OSM   H14C12161   0.661   4.832   6.955
  117OSM    C1312162   0.899   5.072   7.027
  117OSM   H13A12163   0.887   5.067   7.134
  117OSM   H13B12164   0.833   5.155   7.007
  117OSM   H13C12165   1.002   5.096   7.005
  117OSM    C1212166   0.855   4.968   6.803
  117OSM   H12A12167   0.955   4.981   6.764
  117OSM   H12B12168   0.803   5.060   6.782
  117OSM    C1112169   0.788   4.857   6.718
  117OSM   H11A12170   0.792   4.891   6.612
  117OSM   H11B12171   0.683   4.833   6.745
  117OSM      P12172   0.835   4.598   6.698
  117OSM    O1312173   0.954   4.511   6.710
  117OSM    O1412174   0.716   4.560   6.774
  117OSM    O1112175   0.790   4.609   6.551
  117OSM    O1212176   0.876   4.743   6.728
  117OSM    C1S12177   0.875   4.640   6.439
  117OSM    H1S12178   0.945   4.555   6.423
  117OSM    H1T12179   0.934   4.730   6.462
  117OSM     NF12180   0.905   4.694   6.193
  117OSM    HNF12181   0.915   4.790   6.170
  117OSM    C2S12182   0.805   4.663   6.294
  117OSM    H2S12183   0.756   4.570   6.257
  117OSM    C3S12184   0.694   4.776   6.313
  117OSM    H3S12185   0.749   4.871   6.333
  117OSM     O312186   0.611   4.768   6.432
  117OSM    HO312187   0.660   4.703   6.483
  117OSM    C4S12188   0.608   4.784   6.183
  117OSM    H4S12189   0.659   4.823   6.094
  117OSM    C5S12190   0.475   4.748   6.171
  117OSM    H5S12191   0.417   4.708   6.256
  117OSM    C6S12192   0.386   4.769   6.051
  117OSM    H6S12193   0.303   4.834   6.086
  117OSM    H6T12194   0.326   4.682   6.016
  117OSM    C7S12195   0.447   4.834   5.924
  117OSM    H7S12196   0.538   4.777   5.897
  117OSM    H7T12197   0.474   4.937   5.957
  117OSM    C8S12198   0.347   4.824   5.813
  117OSM    H8S12199   0.267   4.896   5.842
  117OSM    H8T12200   0.312   4.720   5.797
  117OSM    C9S12201   0.403   4.864   5.677
  117OSM    H9S12202   0.475   4.788   5.641
  117OSM    H9T12203   0.453   4.964   5.684
  117OSM   C10S12204   0.295   4.855   5.569
  117OSM   H10S12205   0.218   4.931   5.590
  117OSM   H10T12206   0.251   4.753   5.568
  117OSM   C11S12207   0.352   4.861   5.421
  117OSM   H11S12208   0.282   4.808   5.352
  117OSM   H11T12209   0.450   4.809   5.422
  117OSM   C12S12210   0.375   5.005   5.368
  117OSM   H12S12211   0.427   5.063   5.447
  117OSM   H12T12212   0.271   5.046   5.372
  117OSM   C13S12213   0.435   5.010   5.233
  117OSM   H13S12214   0.522   4.942   5.221
  117OSM   H13T12215   0.486   5.106   5.207
  117OSM   C14S12216   0.332   4.971   5.121
  117OSM   H14S12217   0.262   5.055   5.105
  117OSM   H14T12218   0.271   4.886   5.158
  117OSM   C15S12219   0.412   4.944   4.993
  117OSM   H15S12220   0.357   4.882   4.919
  117OSM   H15T12221   0.501   4.881   5.016
  117OSM   C16S12222   0.471   5.071   4.926
  117OSM   H16S12223   0.510   5.135   5.007
  117OSM   H16T12224   0.386   5.127   4.881
  117OSM   C17S12225   0.568   5.046   4.815
  117OSM   H17S12226   0.555   5.136   4.751
  117OSM   H17T12227   0.532   4.954   4.765
  117OSM   C18S12228   0.707   5.022   4.879
  117OSM   H18S12229   0.796   5.014   4.813
  117OSM   H18T12230   0.701   4.928   4.938
  117OSM   H18U12231   0.727   5.110   4.943
  117OSM    C1F12232   0.996   4.606   6.148
  117OSM     OF12233   1.004   4.495   6.196
  117OSM    C2F12234   1.086   4.648   6.042
  117OSM    H2F12235   1.168   4.699   6.098
  117OSM    H2G12236   1.034   4.720   5.976
  117OSM    C3F12237   1.158   4.543   5.955
  117OSM    H3F12238   1.078   4.482   5.908
  117OSM    H3G12239   1.212   4.477   6.025
  117OSM    C4F12240   1.256   4.602   5.858
  117OSM    H4F12241   1.326   4.678   5.898
  117OSM    H4G12242   1.201   4.651   5.776
  117OSM    C5F12243   1.348   4.488   5.805
  117OSM    H5F12244   1.300   4.398   5.759
  117OSM    H5G12245   1.413   4.454   5.888
  117OSM    C6F12246   1.423   4.534   5.677
  117OSM    H6F12247   1.520   4.487   5.652
  117OSM    H6G12248   1.439   4.643   5.692
  117OSM    C7F12249   1.344   4.520   5.550
  117OSM    H7F12250   1.240   4.557   5.563
  117OSM    H7G12251   1.321   4.412   5.538
  117OSM    C8F12252   1.419   4.572   5.436
  117OSM    H8F12253   1.509   4.510   5.418
  117OSM    H8G12254   1.448   4.677   5.458
  117OSM    C9F12255   1.327   4.563   5.317
  117OSM    H9F12256   1.220   4.569   5.340
  117OSM   C10F12257   1.365   4.539   5.190
  117OSM   H10F12258   1.294   4.533   5.106
  117OSM   C11F12259   1.513   4.513   5.147
  117OSM   H11F12260   1.521   4.437   5.067
  117OSM   H11G12261   1.566   4.460   5.229
  117OSM   C12F12262   1.577   4.639   5.110
  117OSM   H12F12263   1.560   4.732   5.168
  117OSM   H12G12264   1.531   4.645   5.009
  117OSM   C13F12265   1.732   4.622   5.096
  117OSM   H13F12266   1.766   4.549   5.173
  117OSM   H13G12267   1.804   4.706   5.103
  117OSM   C14F12268   1.745   4.554   4.958
  117OSM   H14F12269   1.693   4.605   4.874
  117OSM   H14G12270   1.695   4.456   4.965
  117OSM   C15F12271   1.890   4.520   4.921
  117OSM   H15F12272   1.951   4.484   5.007
  117OSM   H15G12273   1.941   4.612   4.886
  117OSM   C16F12274   1.892   4.420   4.803
  117OSM   H16F12275   1.989   4.425   4.748
  117OSM   H16G12276   1.822   4.466   4.730
  117OSM   C17F12277   1.848   4.284   4.849
  117OSM   H17F12278   1.743   4.282   4.884
  117OSM   H17G12279   1.901   4.271   4.945
  117OSM   C18F12280   1.875   4.169   4.747
  117OSM   H18F12281   1.817   4.195   4.657
  117OSM   H18G12282   1.840   4.069   4.779
  117OSM   H18H12283   1.982   4.165   4.718
  118OSM      N12284   0.592   3.525   6.661
  118OSM    C1512285   0.557   3.562   6.520
  118OSM   H15A12286   0.585   3.488   6.446
  118OSM   H15B12287   0.600   3.656   6.490
  118OSM   H15C12288   0.449   3.552   6.521
  118OSM    C1412289   0.735   3.501   6.673
  118OSM   H14A12290   0.793   3.581   6.629
  118OSM   H14B12291   0.775   3.426   6.605
  118OSM   H14C12292   0.760   3.494   6.778
  118OSM    C1312293   0.568   3.645   6.747
  118OSM   H13A12294   0.597   3.621   6.848
  118OSM   H13B12295   0.471   3.689   6.727
  118OSM   H13C12296   0.635   3.724   6.715
  118OSM    C1212297   0.509   3.411   6.709
  118OSM   H12A12298   0.531   3.382   6.811
  118OSM   H12B12299   0.528   3.321   6.652
  118OSM    C1112300   0.353   3.428   6.718
  118OSM   H11A12301   0.325   3.525   6.765
  118OSM   H11B12302   0.304   3.353   6.784
  118OSM      P12303   0.159   3.383   6.539
  118OSM    O1312304   0.114   3.270   6.632
  118OSM    O1412305   0.077   3.511   6.534
  118OSM    O1112306   0.165   3.334   6.392
  118OSM    O1212307   0.302   3.430   6.579
  118OSM    C1S12308   0.288   3.264   6.355
  118OSM    H1S12309   0.271   3.155   6.359
  118OSM    H1T12310   0.382   3.292   6.408
  118OSM     NF12311   0.444   3.239   6.156
  118OSM    HNF12312   0.537   3.273   6.165
  118OSM    C2S12313   0.326   3.309   6.206
  118OSM    H2S12314   0.239   3.281   6.143
  118OSM    C3S12315   0.344   3.459   6.191
  118OSM    H3S12316   0.436   3.495   6.241
  118OSM     O312317   0.233   3.540   6.241
  118OSM    HO312318   0.176   3.484   6.295
  118OSM    C4S12319   0.358   3.486   6.043
  118OSM    H4S12320   0.458   3.459   6.006
  118OSM    C5S12321   0.260   3.503   5.958
  118OSM    H5S12322   0.158   3.493   5.997
  118OSM    C6S12323   0.255   3.538   5.812
  118OSM    H6S12324   0.170   3.607   5.796
  118OSM    H6T12325   0.231   3.447   5.753
  118OSM    C7S12326   0.377   3.602   5.752
  118OSM    H7S12327   0.460   3.529   5.771
  118OSM    H7T12328   0.399   3.701   5.798
  118OSM    C8S12329   0.347   3.628   5.601
  118OSM    H8S12330   0.399   3.716   5.557
  118OSM    H8T12331   0.239   3.656   5.598
  118OSM    C9S12332   0.378   3.508   5.513
  118OSM    H9S12333   0.354   3.416   5.569
  118OSM    H9T12334   0.489   3.510   5.504
  118OSM   C10S12335   0.310   3.498   5.376
  118OSM   H10S12336   0.203   3.503   5.405
  118OSM   H10T12337   0.339   3.401   5.330
  118OSM   C11S12338   0.337   3.624   5.297
  118OSM   H11S12339   0.446   3.642   5.285
  118OSM   H11T12340   0.288   3.711   5.347
  118OSM   C12S12341   0.269   3.614   5.159
  118OSM   H12S12342   0.159   3.602   5.166
  118OSM   H12T12343   0.305   3.521   5.110
  118OSM   C13S12344   0.307   3.720   5.063
  118OSM   H13S12345   0.415   3.739   5.083
  118OSM   H13T12346   0.253   3.814   5.087
  118OSM   C14S12347   0.273   3.689   4.918
  118OSM   H14S12348   0.290   3.581   4.896
  118OSM   H14T12349   0.328   3.759   4.853
  118OSM   C15S12350   0.129   3.725   4.886
  118OSM   H15S12351   0.120   3.836   4.882
  118OSM   H15T12352   0.063   3.686   4.967
  118OSM   C16S12353   0.089   3.665   4.748
  118OSM   H16S12354   0.086   3.554   4.746
  118OSM   H16T12355   0.173   3.696   4.681
  118OSM   C17S12356   6.790   3.714   4.704
  118OSM   H17S12357   6.771   3.672   4.604
  118OSM   H17T12358   6.802   3.825   4.701
  118OSM   C18S12359   6.682   3.675   4.798
  118OSM   H18S12360   6.675   3.719   4.900
  118OSM   H18T12361   6.670   3.565   4.809
  118OSM   H18U12362   6.588   3.699   4.743
  118OSM    C1F12363   0.449   3.114   6.128
  118OSM     OF12364   0.354   3.042   6.128
  118OSM    C2F12365   0.580   3.057   6.100
  118OSM    H2F12366   0.582   2.950   6.132
  118OSM    H2G12367   0.655   3.106   6.165
  118OSM    C3F12368   0.625   3.058   5.951
  118OSM    H3F12369   0.562   2.988   5.892
  118OSM    H3G12370   0.725   3.010   5.942
  118OSM    C4F12371   0.627   3.204   5.889
  118OSM    H4F12372   0.676   3.265   5.968
  118OSM    H4G12373   0.523   3.237   5.870
  118OSM    C5F12374   0.715   3.214   5.765
  118OSM    H5F12375   0.780   3.124   5.771
  118OSM    H5G12376   0.774   3.308   5.770
  118OSM    C6F12377   0.636   3.205   5.634
  118OSM    H6F12378   0.571   3.295   5.623
  118OSM    H6G12379   0.569   3.119   5.652
  118OSM    C7F12380   0.732   3.182   5.518
  118OSM    H7F12381   0.814   3.110   5.535
  118OSM    H7G12382   0.791   3.276   5.508
  118OSM    C8F12383   0.659   3.145   5.381
  118OSM    H8F12384   0.572   3.214   5.390
  118OSM    H8G12385   0.611   3.045   5.387
  118OSM    C9F12386   0.737   3.143   5.258
  118OSM    H9F12387   0.792   3.048   5.248
  118OSM   C10F12388   0.742   3.254   5.172
  118OSM   H10F12389   0.815   3.246   5.091
  118OSM   C11F12390   0.675   3.389   5.193
  118OSM   H11F12391   0.748   3.473   5.187
  118OSM   H11G12392   0.614   3.405   5.284
  118OSM   C12F12393   0.592   3.414   5.064
  118OSM   H12F12394   0.522   3.498   5.085
  118OSM   H12G12395   0.534   3.319   5.062
  118OSM   C13F12396   0.662   3.411   4.923
  118OSM   H13F12397   0.715   3.318   4.896
  118OSM   H13G12398   0.738   3.491   4.938
  118OSM   C14F12399   0.562   3.446   4.816
  118OSM   H14F12400   0.521   3.548   4.834
  118OSM   H14G12401   0.482   3.370   4.824
  118OSM   C15F12402   0.618   3.427   4.672
  118OSM   H15F12403   0.672   3.330   4.664
  118OSM   H15G12404   0.689   3.511   4.657
  118OSM   C16F12405   0.510   3.420   4.562
  118OSM   H16F12406   0.443   3.506   4.584
  118OSM   H16G12407   0.448   3.328   4.560
  118OSM   C17F12408   0.573   3.435   4.423
  118OSM   H17F12409   0.643   3.351   4.400
  118OSM   H17G12410   0.622   3.532   4.401
  118OSM   C18F12411   0.453   3.423   4.327
  118OSM   H18F12412   0.490   3.418   4.222
  118OSM   H18G12413   0.390   3.512   4.347
  118OSM   H18H12414   0.396   3.331   4.351
  119OSM      N12415   2.979   1.431   6.751
  119OSM    C1512416   3.110   1.368   6.781
  119OSM   H15A12417   3.184   1.445   6.800
  119OSM   H15B12418   3.144   1.294   6.711
  119OSM   H15C12419   3.110   1.313   6.874
  119OSM    C1412420   2.867   1.336   6.794
  119OSM   H14A12421   2.891   1.235   6.765
  119OSM   H14B12422   2.773   1.371   6.754
  119OSM   H14C12423   2.862   1.341   6.901
  119OSM    C1312424   2.968   1.565   6.830
  119OSM   H13A12425   2.884   1.622   6.794
  119OSM   H13B12426   3.051   1.631   6.811
  119OSM   H13C12427   2.962   1.548   6.937
  119OSM    C1212428   2.954   1.463   6.610
  119OSM   H12A12429   3.041   1.525   6.593
  119OSM   H12B12430   2.870   1.530   6.598
  119OSM    C1112431   2.939   1.345   6.510
  119OSM   H11A12432   3.033   1.287   6.524
  119OSM   H11B12433   2.947   1.384   6.406
  119OSM      P12434   2.669   1.313   6.491
  119OSM    O1312435   2.576   1.202   6.528
  119OSM    O1412436   2.636   1.444   6.552
  119OSM    O1112437   2.678   1.342   6.331
  119OSM    O1212438   2.822   1.275   6.531
  119OSM    C1S12439   2.724   1.229   6.256
  119OSM    H1S12440   2.633   1.165   6.254
  119OSM    H1T12441   2.805   1.171   6.305
  119OSM     NF12442   2.845   1.125   6.070
  119OSM    HNF12443   2.942   1.103   6.079
  119OSM    C2S12444   2.788   1.250   6.122
  119OSM    H2S12445   2.711   1.289   6.052
  119OSM    C3S12446   2.892   1.372   6.126
  119OSM    H3S12447   2.966   1.351   6.206
  119OSM     O312448   2.843   1.500   6.171
  119OSM    HO312449   2.762   1.469   6.212
  119OSM    C4S12450   2.967   1.384   5.991
  119OSM    H4S12451   3.059   1.325   5.982
  119OSM    C5S12452   2.943   1.478   5.893
  119OSM    H5S12453   2.857   1.544   5.909
  119OSM    C6S12454   3.013   1.494   5.760
  119OSM    H6S12455   3.105   1.431   5.758
  119OSM    H6T12456   3.050   1.599   5.753
  119OSM    C7S12457   2.930   1.453   5.644
  119OSM    H7S12458   2.831   1.505   5.644
  119OSM    H7T12459   2.911   1.344   5.658
  119OSM    C8S12460   2.998   1.464   5.505
  119OSM    H8S12461   3.083   1.392   5.508
  119OSM    H8T12462   3.031   1.569   5.492
  119OSM    C9S12463   2.895   1.430   5.399
  119OSM    H9S12464   2.821   1.512   5.413
  119OSM    H9T12465   2.849   1.333   5.427
  119OSM   C10S12466   2.926   1.438   5.251
  119OSM   H10S12467   3.013   1.369   5.245
  119OSM   H10T12468   2.965   1.541   5.237
  119OSM   C11S12469   2.815   1.400   5.154
  119OSM   H11S12470   2.731   1.474   5.152
  119OSM   H11T12471   2.780   1.297   5.175
  119OSM   C12S12472   2.867   1.397   5.009
  119OSM   H12S12473   2.947   1.320   5.000
  119OSM   H12T12474   2.910   1.498   4.991
  119OSM   C13S12475   2.754   1.362   4.911
  119OSM   H13S12476   2.685   1.448   4.901
  119OSM   H13T12477   2.700   1.276   4.956
  119OSM   C14S12478   2.816   1.329   4.774
  119OSM   H14S12479   2.905   1.265   4.789
  119OSM   H14T12480   2.872   1.422   4.749
  119OSM   C15S12481   2.718   1.299   4.665
  119OSM   H15S12482   2.656   1.390   4.652
  119OSM   H15T12483   2.671   1.199   4.677
  119OSM   C16S12484   2.794   1.295   4.530
  119OSM   H16S12485   2.847   1.389   4.502
  119OSM   H16T12486   2.711   1.285   4.457
  119OSM   C17S12487   2.887   1.174   4.518
  119OSM   H17S12488   2.977   1.193   4.580
  119OSM   H17T12489   2.928   1.173   4.415
  119OSM   C18S12490   2.826   1.034   4.554
  119OSM   H18S12491   2.897   0.949   4.547
  119OSM   H18T12492   2.734   1.014   4.494
  119OSM   H18U12493   2.796   1.029   4.661
  119OSM    C1F12494   2.769   1.031   6.024
  119OSM     OF12495   2.645   1.033   6.040
  119OSM    C2F12496   2.830   0.917   5.950
  119OSM    H2F12497   2.752   0.841   5.932
  119OSM    H2G12498   2.894   0.863   6.023
  119OSM    C3F12499   2.885   0.957   5.815
  119OSM    H3F12500   2.809   0.990   5.740
  119OSM    H3G12501   2.915   0.856   5.779
  119OSM    C4F12502   2.988   1.068   5.805
  119OSM    H4F12503   3.068   1.052   5.881
  119OSM    H4G12504   2.927   1.158   5.828
  119OSM    C5F12505   3.038   1.076   5.661
  119OSM    H5F12506   3.105   1.164   5.671
  119OSM    H5G12507   2.965   1.100   5.581
  119OSM    C6F12508   3.124   0.956   5.611
  119OSM    H6F12509   3.066   0.861   5.617
  119OSM    H6G12510   3.207   0.933   5.681
  119OSM    C7F12511   3.164   0.983   5.466
  119OSM    H7F12512   3.253   0.917   5.461
  119OSM    H7G12513   3.200   1.088   5.469
  119OSM    C8F12514   3.059   0.946   5.361
  119OSM    H8F12515   2.970   1.011   5.370
  119OSM    H8G12516   3.026   0.843   5.387
  119OSM    C9F12517   3.120   0.937   5.220
  119OSM    H9F12518   3.225   0.906   5.213
  119OSM   C10F12519   3.058   0.969   5.103
  119OSM   H10F12520   3.124   0.972   5.015
  119OSM   C11F12521   2.922   1.030   5.088
  119OSM   H11F12522   2.921   1.112   5.014
  119OSM   H11G12523   2.888   1.077   5.183
  119OSM   C12F12524   2.828   0.912   5.049
  119OSM   H12F12525   2.823   0.830   5.125
  119OSM   H12G12526   2.874   0.864   4.960
  119OSM   C13F12527   2.684   0.954   5.023
  119OSM   H13F12528   2.676   1.024   4.937
  119OSM   H13G12529   2.641   0.999   5.115
  119OSM   C14F12530   2.598   0.825   4.977
  119OSM   H14F12531   2.656   0.731   4.977
  119OSM   H14G12532   2.562   0.828   4.872
  119OSM   C15F12533   2.474   0.810   5.065
  119OSM   H15F12534   2.418   0.906   5.068
  119OSM   H15G12535   2.505   0.781   5.168
  119OSM   C16F12536   2.373   0.702   5.021
  119OSM   H16F12537   2.425   0.604   5.016
  119OSM   H16G12538   2.350   0.710   4.912
  119OSM   C17F12539   2.240   0.706   5.104
  119OSM   H17F12540   2.158   0.640   5.068
  119OSM   H17G12541   2.204   0.810   5.090
  119OSM   C18F12542   2.245   0.686   5.258
  119OSM   H18F12543   2.323   0.742   5.314
  119OSM   H18G12544   2.256   0.580   5.286
  119OSM   H18H12545   2.146   0.710   5.301
  120OSM      N12546   5.472   4.641   6.353
  120OSM    C1512547   5.537   4.603   6.222
  120OSM   H15A12548   5.560   4.696   6.173
  120OSM   H15B12549   5.461   4.560   6.158
  120OSM   H15C12550   5.621   4.537   6.230
  120OSM    C1412551   5.443   4.515   6.425
  120OSM   H14A12552   5.385   4.446   6.365
  120OSM   H14B12553   5.391   4.535   6.517
  120OSM   H14C12554   5.532   4.458   6.449
  120OSM    C1312555   5.573   4.708   6.434
  120OSM   H13A12556   5.552   4.711   6.540
  120OSM   H13B12557   5.579   4.812   6.409
  120OSM   H13C12558   5.671   4.663   6.427
  120OSM    C1212559   5.342   4.716   6.327
  120OSM   H12A12560   5.293   4.739   6.421
  120OSM   H12B12561   5.260   4.662   6.283
  120OSM    C1112562   5.347   4.853   6.257
  120OSM   H11A12563   5.246   4.898   6.252
  120OSM   H11B12564   5.377   4.828   6.153
  120OSM      P12565   5.406   5.061   6.412
  120OSM    O1312566   5.308   5.011   6.506
  120OSM    O1412567   5.528   5.126   6.465
  120OSM    O1112568   5.337   5.157   6.314
  120OSM    O1212569   5.444   4.940   6.317
  120OSM    C1S12570   5.412   5.255   6.243
  120OSM    H1S12571   5.511   5.280   6.285
  120OSM    H1T12572   5.356   5.352   6.241
  120OSM     NF12573   5.561   5.282   6.033
  120OSM    HNF12574   5.545   5.361   5.974
  120OSM    C2S12575   5.440   5.212   6.096
  120OSM    H2S12576   5.472   5.106   6.109
  120OSM    C3S12577   5.309   5.206   6.009
  120OSM    H3S12578   5.267   5.308   6.012
  120OSM     O312579   5.205   5.121   6.058
  120OSM    HO312580   5.228   5.099   6.149
  120OSM    C4S12581   5.348   5.154   5.878
  120OSM    H4S12582   5.379   5.049   5.866
  120OSM    C5S12583   5.357   5.231   5.771
  120OSM    H5S12584   5.338   5.340   5.771
  120OSM    C6S12585   5.394   5.183   5.629
  120OSM    H6S12586   5.425   5.076   5.629
  120OSM    H6T12587   5.479   5.245   5.593
  120OSM    C7S12588   5.289   5.200   5.527
  120OSM    H7S12589   5.274   5.309   5.512
  120OSM    H7T12590   5.189   5.160   5.554
  120OSM    C8S12591   5.327   5.120   5.399
  120OSM    H8S12592   5.343   5.013   5.424
  120OSM    H8T12593   5.426   5.161   5.367
  120OSM    C9S12594   5.215   5.136   5.294
  120OSM    H9S12595   5.199   5.245   5.282
  120OSM    H9T12596   5.121   5.080   5.314
  120OSM   C10S12597   5.262   5.078   5.161
  120OSM   H10S12598   5.305   4.976   5.173
  120OSM   H10T12599   5.337   5.150   5.121
  120OSM   C11S12600   5.160   5.088   5.042
  120OSM   H11S12601   5.105   5.184   5.053
  120OSM   H11T12602   5.088   5.004   5.053
  120OSM   C12S12603   5.216   5.076   4.901
  120OSM   H12S12604   5.276   4.983   4.895
  120OSM   H12T12605   5.293   5.153   4.878
  120OSM   C13S12606   5.107   5.080   4.791
  120OSM   H13S12607   5.060   5.180   4.803
  120OSM   H13T12608   5.045   4.991   4.816
  120OSM   C14S12609   5.150   5.077   4.649
  120OSM   H14S12610   5.176   4.971   4.629
  120OSM   H14T12611   5.247   5.130   4.648
  120OSM   C15S12612   5.039   5.128   4.558
  120OSM   H15S12613   5.003   5.231   4.578
  120OSM   H15T12614   4.952   5.060   4.569
  120OSM   C16S12615   5.085   5.128   4.417
  120OSM   H16S12616   5.124   5.030   4.382
  120OSM   H16T12617   5.172   5.198   4.421
  120OSM   C17S12618   4.981   5.182   4.310
  120OSM   H17S12619   4.952   5.284   4.344
  120OSM   H17T12620   4.888   5.122   4.299
  120OSM   C18S12621   5.040   5.209   4.174
  120OSM   H18S12622   4.970   5.271   4.114
  120OSM   H18T12623   5.050   5.112   4.122
  120OSM   H18U12624   5.138   5.261   4.176
  120OSM    C1F12625   5.685   5.267   6.069
  120OSM     OF12626   5.714   5.189   6.165
  120OSM    C2F12627   5.790   5.354   6.005
  120OSM    H2F12628   5.860   5.376   6.089
  120OSM    H2G12629   5.751   5.450   5.965
  120OSM    C3F12630   5.865   5.275   5.897
  120OSM    H3F12631   5.882   5.176   5.946
  120OSM    H3G12632   5.970   5.312   5.892
  120OSM    C4F12633   5.792   5.262   5.761
  120OSM    H4F12634   5.805   5.360   5.710
  120OSM    H4G12635   5.684   5.256   5.784
  120OSM    C5F12636   5.842   5.142   5.678
  120OSM    H5F12637   5.774   5.055   5.679
  120OSM    H5G12638   5.937   5.108   5.725
  120OSM    C6F12639   5.869   5.167   5.534
  120OSM    H6F12640   5.928   5.085   5.489
  120OSM    H6G12641   5.933   5.258   5.529
  120OSM    C7F12642   5.750   5.224   5.449
  120OSM    H7F12643   5.704   5.314   5.496
  120OSM    H7G12644   5.668   5.150   5.457
  120OSM    C8F12645   5.798   5.253   5.308
  120OSM    H8F12646   5.855   5.161   5.283
  120OSM    H8G12647   5.875   5.333   5.309
  120OSM    C9F12648   5.696   5.281   5.209
  120OSM    H9F12649   5.659   5.383   5.194
  120OSM   C10F12650   5.632   5.185   5.147
  120OSM   H10F12651   5.541   5.198   5.086
  120OSM   C11F12652   5.669   5.040   5.147
  120OSM   H11F12653   5.583   4.974   5.124
  120OSM   H11G12654   5.703   5.000   5.245
  120OSM   C12F12655   5.770   5.002   5.043
  120OSM   H12F12656   5.782   4.891   5.048
  120OSM   H12G12657   5.865   5.048   5.079
  120OSM   C13F12658   5.728   5.032   4.899
  120OSM   H13F12659   5.817   5.028   4.833
  120OSM   H13G12660   5.691   5.136   4.882
  120OSM   C14F12661   5.627   4.933   4.851
  120OSM   H14F12662   5.523   4.956   4.883
  120OSM   H14G12663   5.637   4.833   4.899
  120OSM   C15F12664   5.640   4.921   4.698
  120OSM   H15F12665   5.726   4.863   4.658
  120OSM   H15G12666   5.666   5.026   4.669
  120OSM   C16F12667   5.515   4.883   4.622
  120OSM   H16F12668   5.545   4.899   4.516
  120OSM   H16G12669   5.430   4.952   4.635
  120OSM   C17F12670   5.458   4.741   4.634
  120OSM   H17F12671   5.380   4.744   4.555
  120OSM   H17G12672   5.401   4.710   4.725
  120OSM   C18F12673   5.556   4.632   4.606
  120OSM   H18F12674   5.598   4.640   4.504
  120OSM   H18G12675   5.497   4.538   4.604
  120OSM   H18H12676   5.642   4.629   4.677
  121OSM      N12677   6.626   1.596   7.097
  121OSM    C1512678   6.675   1.518   7.213
  121OSM   H15A12679   6.755   1.576   7.257
  121OSM   H15B12680   6.727   1.431   7.177
  121OSM   H15C12681   6.591   1.498   7.278
  121OSM    C1412682   6.510   1.522   7.031
  121OSM   H14A12683   6.541   1.420   7.013
  121OSM   H14B12684   6.512   1.563   6.931
  121OSM   H14C12685   6.411   1.536   7.070
  121OSM    C1312686   6.564   1.724   7.141
  121OSM   H13A12687   6.637   1.792   7.182
  121OSM   H13B12688   6.497   1.691   7.219
  121OSM   H13C12689   6.517   1.770   7.056
  121OSM    C1212690   6.749   1.612   7.009
  121OSM   H12A12691   6.814   1.526   7.009
  121OSM   H12B12692   6.802   1.696   7.050
  121OSM    C1112693   6.734   1.645   6.857
  121OSM   H11A12694   6.832   1.668   6.811
  121OSM   H11B12695   6.684   1.744   6.848
  121OSM      P12696   6.739   1.415   6.737
  121OSM    O1312697   0.006   1.431   6.640
  121OSM    O1412698   6.763   1.347   6.867
  121OSM    O1112699   6.630   1.337   6.650
  121OSM    O1212700   6.662   1.549   6.777
  121OSM    C1S12701   6.554   1.395   6.540
  121OSM    H1S12702   6.623   1.467   6.492
  121OSM    H1T12703   6.462   1.450   6.570
  121OSM     NF12704   6.447   1.342   6.314
  121OSM    HNF12705   6.358   1.297   6.307
  121OSM    C2S12706   6.532   1.292   6.427
  121OSM    H2S12707   6.626   1.271   6.370
  121OSM    C3S12708   6.492   1.143   6.477
  121OSM    H3S12709   6.389   1.153   6.517
  121OSM     O312710   6.560   1.096   6.592
  121OSM    HO312711   6.590   1.170   6.645
  121OSM    C4S12712   6.491   1.044   6.371
  121OSM    H4S12713   6.592   1.039   6.328
  121OSM    C5S12714   6.389   0.960   6.335
  121OSM    H5S12715   6.294   0.981   6.387
  121OSM    C6S12716   6.379   0.865   6.214
  121OSM    H6S12717   6.301   0.894   6.140
  121OSM    H6T12718   6.334   0.769   6.248
  121OSM    C7S12719   6.502   0.831   6.131
  121OSM    H7S12720   6.581   0.768   6.178
  121OSM    H7T12721   6.538   0.933   6.107
  121OSM    C8S12722   6.466   0.777   5.992
  121OSM    H8S12723   6.395   0.844   5.939
  121OSM    H8T12724   6.417   0.681   6.021
  121OSM    C9S12725   6.593   0.771   5.903
  121OSM    H9S12726   6.664   0.697   5.945
  121OSM    H9T12727   6.643   0.869   5.892
  121OSM   C10S12728   6.549   0.728   5.761
  121OSM   H10S12729   6.490   0.635   5.772
  121OSM   H10T12730   6.646   0.714   5.707
  121OSM   C11S12731   6.463   0.834   5.684
  121OSM   H11S12732   6.529   0.913   5.642
  121OSM   H11T12733   6.378   0.874   5.743
  121OSM   C12S12734   6.397   0.773   5.554
  121OSM   H12S12735   6.380   0.665   5.571
  121OSM   H12T12736   6.476   0.772   5.476
  121OSM   C13S12737   6.279   0.850   5.501
  121OSM   H13S12738   6.313   0.956   5.496
  121OSM   H13T12739   6.190   0.831   5.565
  121OSM   C14S12740   6.230   0.805   5.367
  121OSM   H14S12741   6.219   0.695   5.376
  121OSM   H14T12742   6.295   0.816   5.278
  121OSM   C15S12743   6.092   0.862   5.327
  121OSM   H15S12744   6.103   0.972   5.317
  121OSM   H15T12745   6.020   0.845   5.410
  121OSM   C16S12746   6.028   0.804   5.200
  121OSM   H16S12747   6.032   0.695   5.222
  121OSM   H16T12748   6.089   0.819   5.109
  121OSM   C17S12749   5.891   0.873   5.175
  121OSM   H17S12750   5.914   0.979   5.150
  121OSM   H17T12751   5.838   0.867   5.273
  121OSM   C18S12752   5.809   0.815   5.066
  121OSM   H18S12753   5.717   0.878   5.057
  121OSM   H18T12754   5.779   0.712   5.094
  121OSM   H18U12755   5.858   0.812   4.967
  121OSM    C1F12756   6.475   1.447   6.244
  121OSM     OF12757   6.589   1.476   6.246
  121OSM    C2F12758   6.366   1.519   6.165
  121OSM    H2F12759   6.376   1.627   6.189
  121OSM    H2G12760   6.272   1.488   6.216
  121OSM    C3F12761   6.377   1.484   6.016
  121OSM    H3F12762   6.336   1.381   6.005
  121OSM    H3G12763   6.484   1.485   5.987
  121OSM    C4F12764   6.301   1.580   5.921
  121OSM    H4F12765   6.317   1.683   5.960
  121OSM    H4G12766   6.191   1.559   5.920
  121OSM    C5F12767   6.357   1.599   5.777
  121OSM    H5F12768   6.466   1.616   5.787
  121OSM    H5G12769   6.308   1.690   5.736
  121OSM    C6F12770   6.332   1.477   5.682
  121OSM    H6F12771   6.351   1.381   5.734
  121OSM    H6G12772   6.398   1.498   5.594
  121OSM    C7F12773   6.187   1.473   5.627
  121OSM    H7F12774   6.172   1.575   5.585
  121OSM    H7G12775   6.127   1.462   5.720
  121OSM    C8F12776   6.133   1.364   5.530
  121OSM    H8F12777   6.128   1.267   5.585
  121OSM    H8G12778   6.201   1.343   5.445
  121OSM    C9F12779   5.995   1.405   5.493
  121OSM    H9F12780   5.941   1.435   5.585
  121OSM   C10F12781   5.938   1.428   5.373
  121OSM   H10F12782   5.830   1.452   5.368
  121OSM   C11F12783   6.017   1.393   5.243
  121OSM   H11F12784   5.976   1.299   5.200
  121OSM   H11G12785   6.126   1.376   5.252
  121OSM   C12F12786   6.015   1.507   5.134
  121OSM   H12F12787   6.039   1.609   5.170
  121OSM   H12G12788   5.914   1.506   5.089
  121OSM   C13F12789   6.119   1.485   5.022
  121OSM   H13F12790   6.111   1.381   4.983
  121OSM   H13G12791   6.216   1.498   5.075
  121OSM   C14F12792   6.099   1.577   4.907
  121OSM   H14F12793   6.069   1.683   4.924
  121OSM   H14G12794   6.025   1.536   4.836
  121OSM   C15F12795   6.217   1.597   4.829
  121OSM   H15F12796   6.191   1.654   4.738
  121OSM   H15G12797   6.271   1.510   4.787
  121OSM   C16F12798   6.312   1.699   4.903
  121OSM   H16F12799   6.357   1.656   4.995
  121OSM   H16G12800   6.232   1.770   4.934
  121OSM   C17F12801   6.429   1.752   4.816
  121OSM   H17F12802   6.391   1.781   4.716
  121OSM   H17G12803   6.488   1.659   4.803
  121OSM   C18F12804   6.515   1.866   4.878
  121OSM   H18F12805   6.455   1.958   4.892
  121OSM   H18G12806   6.588   1.904   4.802
  121OSM   H18H12807   6.560   1.836   4.975
  122OSM      N12808   5.767   3.550   6.650
  122OSM    C1512809   5.642   3.635   6.657
  122OSM   H15A12810   5.625   3.688   6.565
  122OSM   H15B12811   5.652   3.702   6.740
  122OSM   H15C12812   5.553   3.583   6.691
  122OSM    C1412813   5.783   3.486   6.787
  122OSM   H14A12814   5.698   3.423   6.809
  122OSM   H14B12815   5.800   3.562   6.862
  122OSM   H14C12816   5.867   3.417   6.787
  122OSM    C1312817   5.760   3.440   6.540
  122OSM   H13A12818   5.754   3.498   6.449
  122OSM   H13B12819   5.684   3.367   6.562
  122OSM   H13C12820   5.858   3.397   6.530
  122OSM    C1212821   5.884   3.638   6.622
  122OSM   H12A12822   5.874   3.727   6.682
  122OSM   H12B12823   5.873   3.675   6.521
  122OSM    C1112824   6.024   3.576   6.639
  122OSM   H11A12825   6.039   3.485   6.578
  122OSM   H11B12826   6.031   3.538   6.743
  122OSM      P12827   6.160   3.795   6.702
  122OSM    O1312828   6.040   3.834   6.781
  122OSM    O1412829   6.284   3.775   6.782
  122OSM    O1112830   6.195   3.910   6.601
  122OSM    O1212831   6.139   3.662   6.614
  122OSM    C1S12832   6.304   3.890   6.514
  122OSM    H1S12833   6.281   3.812   6.439
  122OSM    H1T12834   6.394   3.868   6.574
  122OSM     NF12835   6.421   4.003   6.326
  122OSM    HNF12836   6.514   4.035   6.343
  122OSM    C2S12837   6.324   4.025   6.431
  122OSM    H2S12838   6.227   4.046   6.381
  122OSM    C3S12839   6.352   4.144   6.527
  122OSM    H3S12840   6.457   4.139   6.564
  122OSM     O312841   6.266   4.151   6.645
  122OSM    HO312842   6.223   4.066   6.641
  122OSM    C4S12843   6.341   4.281   6.451
  122OSM    H4S12844   6.436   4.337   6.452
  122OSM    C5S12845   6.236   4.336   6.388
  122OSM    H5S12846   6.135   4.293   6.377
  122OSM    C6S12847   6.248   4.471   6.326
  122OSM    H6S12848   6.335   4.530   6.364
  122OSM    H6T12849   6.150   4.519   6.341
  122OSM    C7S12850   6.256   4.463   6.168
  122OSM    H7S12851   6.179   4.399   6.122
  122OSM    H7T12852   6.344   4.406   6.132
  122OSM    C8S12853   6.234   4.606   6.108
  122OSM    H8S12854   6.313   4.677   6.141
  122OSM    H8T12855   6.136   4.641   6.146
  122OSM    C9S12856   6.222   4.617   5.956
  122OSM    H9S12857   6.321   4.601   5.907
  122OSM    H9T12858   6.195   4.722   5.932
  122OSM   C10S12859   6.108   4.529   5.894
  122OSM   H10S12860   6.016   4.557   5.949
  122OSM   H10T12861   6.128   4.420   5.909
  122OSM   C11S12862   6.087   4.568   5.738
  122OSM   H11S12863   6.007   4.506   5.692
  122OSM   H11T12864   6.174   4.524   5.684
  122OSM   C12S12865   6.074   4.715   5.701
  122OSM   H12S12866   6.060   4.731   5.592
  122OSM   H12T12867   6.176   4.756   5.717
  122OSM   C13S12868   5.959   4.794   5.768
  122OSM   H13S12869   5.956   4.900   5.733
  122OSM   H13T12870   5.989   4.802   5.875
  122OSM   C14S12871   5.817   4.726   5.755
  122OSM   H14S12872   5.822   4.616   5.766
  122OSM   H14T12873   5.796   4.748   5.648
  122OSM   C15S12874   5.711   4.794   5.837
  122OSM   H15S12875   5.693   4.892   5.787
  122OSM   H15T12876   5.748   4.814   5.940
  122OSM   C16S12877   5.582   4.709   5.852
  122OSM   H16S12878   5.518   4.773   5.916
  122OSM   H16T12879   5.601   4.606   5.889
  122OSM   C17S12880   5.511   4.675   5.714
  122OSM   H17S12881   5.415   4.623   5.736
  122OSM   H17T12882   5.571   4.606   5.652
  122OSM   C18S12883   5.471   4.790   5.627
  122OSM   H18S12884   5.387   4.847   5.673
  122OSM   H18T12885   5.442   4.768   5.522
  122OSM   H18U12886   5.564   4.848   5.610
  122OSM    C1F12887   6.399   3.935   6.221
  122OSM     OF12888   6.290   3.894   6.197
  122OSM    C2F12889   6.517   3.896   6.141
  122OSM    H2F12890   6.529   3.790   6.109
  122OSM    H2G12891   6.598   3.925   6.211
  122OSM    C3F12892   6.529   3.986   6.015
  122OSM    H3F12893   6.626   3.961   5.967
  122OSM    H3G12894   6.549   4.093   6.036
  122OSM    C4F12895   6.413   3.972   5.916
  122OSM    H4F12896   6.314   3.997   5.959
  122OSM    H4G12897   6.422   3.872   5.869
  122OSM    C5F12898   6.440   4.085   5.810
  122OSM    H5F12899   6.541   4.067   5.767
  122OSM    H5G12900   6.450   4.188   5.850
  122OSM    C6F12901   6.345   4.085   5.689
  122OSM    H6F12902   6.239   4.075   5.721
  122OSM    H6G12903   6.372   3.997   5.627
  122OSM    C7F12904   6.362   4.211   5.597
  122OSM    H7F12905   6.467   4.212   5.561
  122OSM    H7G12906   6.342   4.304   5.655
  122OSM    C8F12907   6.260   4.214   5.474
  122OSM    H8F12908   6.155   4.201   5.509
  122OSM    H8G12909   6.277   4.126   5.408
  122OSM    C9F12910   6.243   4.343   5.409
  122OSM    H9F12911   6.235   4.424   5.484
  122OSM   C10F12912   6.255   4.376   5.280
  122OSM   H10F12913   6.258   4.482   5.253
  122OSM   C11F12914   6.280   4.273   5.168
  122OSM   H11F12915   6.266   4.168   5.202
  122OSM   H11G12916   6.386   4.281   5.133
  122OSM   C12F12917   6.201   4.302   5.041
  122OSM   H12F12918   6.211   4.405   5.001
  122OSM   H12G12919   6.093   4.283   5.060
  122OSM   C13F12920   6.247   4.219   4.920
  122OSM   H13F12921   6.354   4.245   4.902
  122OSM   H13G12922   6.185   4.261   4.838
  122OSM   C14F12923   6.240   4.065   4.931
  122OSM   H14F12924   6.131   4.042   4.933
  122OSM   H14G12925   6.297   4.042   5.024
  122OSM   C15F12926   6.307   4.001   4.813
  122OSM   H15F12927   6.283   3.893   4.822
  122OSM   H15G12928   6.416   4.017   4.800
  122OSM   C16F12929   6.249   4.052   4.677
  122OSM   H16F12930   6.252   4.160   4.651
  122OSM   H16G12931   6.141   4.027   4.672
  122OSM   C17F12932   6.315   3.977   4.556
  122OSM   H17F12933   6.296   3.868   4.564
  122OSM   H17G12934   6.424   3.995   4.564
  122OSM   C18F12935   6.261   4.019   4.417
  122OSM   H18F12936   6.281   3.931   4.351
  122OSM   H18G12937   6.309   4.108   4.372
  122OSM   H18H12938   6.151   4.036   4.424
  123OSM      N12939   2.382   2.209   1.911
  123OSM    C1512940   2.421   2.145   1.782
  123OSM   H15A12941   2.486   2.209   1.724
  123OSM   H15B12942   2.341   2.123   1.713
  123OSM   H15C12943   2.484   2.058   1.793
  123OSM    C1412944   2.513   2.227   1.985
  123OSM   H14A12945   2.502   2.251   2.089
  123OSM   H14B12946   2.586   2.277   1.921
  123OSM   H14C12947   2.546   2.124   1.989
  123OSM    C1312948   2.325   2.343   1.890
  123OSM   H13A12949   2.222   2.330   1.860
  123OSM   H13B12950   2.372   2.413   1.822
  123OSM   H13C12951   2.315   2.392   1.986
  123OSM    C1212952   2.284   2.132   1.994
  123OSM   H12A12953   2.323   2.032   2.008
  123OSM   H12B12954   2.198   2.125   1.930
  123OSM    C1112955   2.244   2.190   2.133
  123OSM   H11A12956   2.154   2.143   2.178
  123OSM   H11B12957   2.205   2.291   2.110
  123OSM      P12958   2.423   2.040   2.259
  123OSM    O1312959   2.353   1.929   2.194
  123OSM    O1412960   2.567   2.045   2.243
  123OSM    O1112961   2.388   2.022   2.412
  123OSM    O1212962   2.356   2.190   2.223
  123OSM    C1S12963   2.254   2.026   2.456
  123OSM    H1S12964   2.216   1.925   2.433
  123OSM    H1T12965   2.190   2.103   2.407
  123OSM     NF12966   2.113   2.009   2.661
  123OSM    HNF12967   2.048   2.085   2.672
  123OSM    C2S12968   2.246   2.044   2.611
  123OSM    H2S12969   2.314   1.969   2.657
  123OSM    C3S12970   2.291   2.181   2.658
  123OSM    H3S12971   2.224   2.263   2.625
  123OSM     O312972   2.419   2.225   2.606
  123OSM    HO312973   2.447   2.151   2.552
  123OSM    C4S12974   2.313   2.181   2.808
  123OSM    H4S12975   2.404   2.134   2.847
  123OSM    C5S12976   2.230   2.233   2.900
  123OSM    H5S12977   2.132   2.279   2.876
  123OSM    C6S12978   2.266   2.227   3.046
  123OSM    H6S12979   2.371   2.192   3.057
  123OSM    H6T12980   2.197   2.157   3.096
  123OSM    C7S12981   2.236   2.365   3.100
  123OSM    H7S12982   2.131   2.401   3.090
  123OSM    H7T12983   2.300   2.442   3.051
  123OSM    C8S12984   2.287   2.368   3.242
  123OSM    H8S12985   2.394   2.338   3.238
  123OSM    H8T12986   2.238   2.300   3.315
  123OSM    C9S12987   2.284   2.511   3.290
  123OSM    H9S12988   2.184   2.545   3.256
  123OSM    H9T12989   2.354   2.568   3.224
  123OSM   C10S12990   2.296   2.527   3.437
  123OSM   H10S12991   2.285   2.634   3.466
  123OSM   H10T12992   2.395   2.495   3.476
  123OSM   C11S12993   2.179   2.468   3.513
  123OSM   H11S12994   2.206   2.360   3.507
  123OSM   H11T12995   2.085   2.490   3.458
  123OSM   C12S12996   2.167   2.502   3.666
  123OSM   H12S12997   2.072   2.464   3.709
  123OSM   H12T12998   2.182   2.611   3.682
  123OSM   C13S12999   2.278   2.431   3.746
  123OSM   H13S13000   2.376   2.442   3.695
  123OSM   H13T13001   2.252   2.324   3.755
  123OSM   C14S13002   2.279   2.477   3.894
  123OSM   H14S13003   2.199   2.428   3.953
  123OSM   H14T13004   2.261   2.587   3.900
  123OSM   C15S13005   2.406   2.443   3.971
  123OSM   H15S13006   2.496   2.481   3.919
  123OSM   H15T13007   2.405   2.332   3.978
  123OSM   C16S13008   2.404   2.503   4.114
  123OSM   H16S13009   2.300   2.482   4.148
  123OSM   H16T13010   2.422   2.611   4.101
  123OSM   C17S13011   2.500   2.423   4.205
  123OSM   H17S13012   2.605   2.438   4.172
  123OSM   H17T13013   2.466   2.320   4.181
  123OSM   C18S13014   2.481   2.449   4.355
  123OSM   H18S13015   2.501   2.557   4.373
  123OSM   H18T13016   2.553   2.388   4.414
  123OSM   H18U13017   2.375   2.434   4.385
  123OSM    C1F13018   2.071   1.880   2.676
  123OSM     OF13019   2.147   1.786   2.636
  123OSM    C2F13020   1.941   1.847   2.730
  123OSM    H2F13021   1.874   1.789   2.664
  123OSM    H2G13022   1.891   1.945   2.751
  123OSM    C3F13023   1.954   1.766   2.861
  123OSM    H3F13024   1.992   1.667   2.829
  123OSM    H3G13025   1.852   1.741   2.896
  123OSM    C4F13026   2.042   1.837   2.964
  123OSM    H4F13027   2.025   1.947   2.960
  123OSM    H4G13028   2.152   1.827   2.947
  123OSM    C5F13029   1.993   1.798   3.103
  123OSM    H5F13030   2.008   1.690   3.122
  123OSM    H5G13031   1.883   1.816   3.105
  123OSM    C6F13032   2.051   1.881   3.216
  123OSM    H6F13033   1.996   1.841   3.304
  123OSM    H6G13034   2.027   1.989   3.201
  123OSM    C7F13035   2.206   1.867   3.247
  123OSM    H7F13036   2.273   1.880   3.159
  123OSM    H7G13037   2.221   1.757   3.258
  123OSM    C8F13038   2.255   1.927   3.373
  123OSM    H8F13039   2.223   1.876   3.466
  123OSM    H8G13040   2.213   2.029   3.383
  123OSM    C9F13041   2.400   1.929   3.383
  123OSM    H9F13042   2.453   1.900   3.290
  123OSM   C10F13043   2.466   1.992   3.484
  123OSM   H10F13044   2.575   2.003   3.469
  123OSM   C11F13045   2.413   2.051   3.615
  123OSM   H11F13046   2.318   2.002   3.647
  123OSM   H11G13047   2.407   2.161   3.619
  123OSM   C12F13048   2.517   2.003   3.727
  123OSM   H12F13049   2.614   2.052   3.706
  123OSM   H12G13050   2.519   1.893   3.710
  123OSM   C13F13051   2.473   2.019   3.882
  123OSM   H13F13052   2.363   2.001   3.889
  123OSM   H13G13053   2.475   2.124   3.918
  123OSM   C14F13054   2.545   1.927   3.986
  123OSM   H14F13055   2.647   1.968   3.996
  123OSM   H14G13056   2.558   1.819   3.963
  123OSM   C15F13057   2.498   1.937   4.133
  123OSM   H15F13058   2.522   2.040   4.168
  123OSM   H15G13059   2.569   1.869   4.186
  123OSM   C16F13060   2.346   1.897   4.158
  123OSM   H16F13061   2.285   1.950   4.082
  123OSM   H16G13062   2.320   1.922   4.263
  123OSM   C17F13063   2.322   1.744   4.133
  123OSM   H17F13064   2.373   1.695   4.219
  123OSM   H17G13065   2.369   1.723   4.035
  123OSM   C18F13066   2.175   1.697   4.137
  123OSM   H18F13067   2.119   1.747   4.055
  123OSM   H18G13068   2.118   1.717   4.230
  123OSM   H18H13069   2.163   1.587   4.136
  124OSM      N13070   2.675   3.722   1.827
  124OSM    C1513071   2.736   3.858   1.801
  124OSM   H15A13072   2.825   3.853   1.740
  124OSM   H15B13073   2.761   3.906   1.894
  124OSM   H15C13074   2.655   3.921   1.769
  124OSM    C1413075   2.571   3.691   1.721
  124OSM   H14A13076   2.550   3.586   1.733
  124OSM   H14B13077   2.606   3.704   1.619
  124OSM   H14C13078   2.481   3.749   1.726
  124OSM    C1313079   2.783   3.623   1.812
  124OSM   H13A13080   2.745   3.532   1.855
  124OSM   H13B13081   2.883   3.653   1.841
  124OSM   H13C13082   2.795   3.581   1.713
  124OSM    C1213083   2.621   3.702   1.973
  124OSM   H12A13084   2.547   3.778   1.994
  124OSM   H12B13085   2.702   3.717   2.043
  124OSM    C1113086   2.542   3.572   2.007
  124OSM   H11A13087   2.457   3.558   1.937
  124OSM   H11B13088   2.491   3.575   2.106
  124OSM      P13089   2.575   3.312   1.992
  124OSM    O1313090   2.457   3.311   1.898
  124OSM    O1413091   2.679   3.216   1.953
  124OSM    O1113092   2.529   3.285   2.140
  124OSM    O1213093   2.628   3.458   1.999
  124OSM    C1S13094   2.624   3.247   2.244
  124OSM    H1S13095   2.719   3.299   2.219
  124OSM    H1T13096   2.640   3.138   2.241
  124OSM     NF13097   2.660   3.245   2.480
  124OSM    HNF13098   2.643   3.159   2.529
  124OSM    C2S13099   2.566   3.287   2.382
  124OSM    H2S13100   2.558   3.397   2.390
  124OSM    C3S13101   2.416   3.227   2.390
  124OSM    H3S13102   2.424   3.118   2.368
  124OSM     O313103   2.327   3.270   2.284
  124OSM    HO313104   2.395   3.291   2.221
  124OSM    C4S13105   2.353   3.251   2.519
  124OSM    H4S13106   2.406   3.211   2.607
  124OSM    C5S13107   2.247   3.327   2.544
  124OSM    H5S13108   2.197   3.377   2.460
  124OSM    C6S13109   2.193   3.363   2.681
  124OSM    H6S13110   2.083   3.375   2.680
  124OSM    H6T13111   2.226   3.464   2.713
  124OSM    C7S13112   2.227   3.251   2.792
  124OSM    H7S13113   2.338   3.244   2.800
  124OSM    H7T13114   2.182   3.155   2.759
  124OSM    C8S13115   2.170   3.276   2.932
  124OSM    H8S13116   2.060   3.293   2.925
  124OSM    H8T13117   2.210   3.376   2.960
  124OSM    C9S13118   2.201   3.163   3.035
  124OSM    H9S13119   2.291   3.193   3.091
  124OSM    H9T13120   2.211   3.071   2.973
  124OSM   C10S13121   2.089   3.155   3.137
  124OSM   H10S13122   2.000   3.122   3.080
  124OSM   H10T13123   2.060   3.254   3.179
  124OSM   C11S13124   2.115   3.063   3.259
  124OSM   H11S13125   2.204   3.102   3.314
  124OSM   H11T13126   2.118   2.956   3.228
  124OSM   C12S13127   2.005   3.072   3.365
  124OSM   H12S13128   1.903   3.057   3.323
  124OSM   H12T13129   2.006   3.172   3.412
  124OSM   C13S13130   2.024   2.965   3.473
  124OSM   H13S13131   2.121   2.992   3.520
  124OSM   H13T13132   2.045   2.870   3.420
  124OSM   C14S13133   1.906   2.961   3.560
  124OSM   H14S13134   1.907   2.860   3.606
  124OSM   H14T13135   1.807   2.954   3.511
  124OSM   C15S13136   1.915   3.058   3.678
  124OSM   H15S13137   1.907   3.156   3.627
  124OSM   H15T13138   2.015   3.047   3.725
  124OSM   C16S13139   1.806   3.040   3.781
  124OSM   H16S13140   1.815   2.938   3.823
  124OSM   H16T13141   1.700   3.050   3.748
  124OSM   C17S13142   1.811   3.154   3.893
  124OSM   H17S13143   1.788   3.250   3.842
  124OSM   H17T13144   1.917   3.167   3.925
  124OSM   C18S13145   1.725   3.144   4.021
  124OSM   H18S13146   1.616   3.158   4.000
  124OSM   H18T13147   1.761   3.214   4.099
  124OSM   H18U13148   1.739   3.042   4.063
  124OSM    C1F13149   2.781   3.298   2.489
  124OSM     OF13150   2.806   3.400   2.420
  124OSM    C2F13151   2.880   3.219   2.573
  124OSM    H2F13152   2.940   3.168   2.494
  124OSM    H2G13153   2.831   3.134   2.625
  124OSM    C3F13154   2.965   3.314   2.661
  124OSM    H3F13155   3.009   3.394   2.598
  124OSM    H3G13156   3.046   3.256   2.711
  124OSM    C4F13157   2.886   3.376   2.775
  124OSM    H4F13158   2.855   3.293   2.843
  124OSM    H4G13159   2.803   3.429   2.725
  124OSM    C5F13160   2.966   3.474   2.861
  124OSM    H5F13161   3.010   3.557   2.802
  124OSM    H5G13162   3.062   3.433   2.900
  124OSM    C6F13163   2.890   3.537   2.984
  124OSM    H6F13164   2.791   3.564   2.942
  124OSM    H6G13165   2.939   3.622   3.036
  124OSM    C7F13166   2.849   3.443   3.102
  124OSM    H7F13167   2.803   3.350   3.062
  124OSM    H7G13168   2.772   3.479   3.174
  124OSM    C8F13169   2.974   3.403   3.184
  124OSM    H8F13170   3.002   3.494   3.241
  124OSM    H8G13171   3.057   3.373   3.116
  124OSM    C9F13172   2.949   3.272   3.264
  124OSM    H9F13173   2.900   3.190   3.211
  124OSM   C10F13174   2.998   3.244   3.383
  124OSM   H10F13175   2.956   3.152   3.427
  124OSM   C11F13176   3.081   3.332   3.474
  124OSM   H11F13177   3.102   3.433   3.434
  124OSM   H11G13178   3.181   3.285   3.488
  124OSM   C12F13179   3.035   3.345   3.614
  124OSM   H12F13180   2.933   3.389   3.611
  124OSM   H12G13181   3.104   3.411   3.672
  124OSM   C13F13182   3.022   3.220   3.701
  124OSM   H13F13183   3.125   3.178   3.707
  124OSM   H13G13184   2.955   3.149   3.648
  124OSM   C14F13185   2.968   3.254   3.841
  124OSM   H14F13186   2.875   3.310   3.820
  124OSM   H14G13187   3.043   3.317   3.892
  124OSM   C15F13188   2.931   3.145   3.942
  124OSM   H15F13189   3.023   3.085   3.958
  124OSM   H15G13190   2.859   3.071   3.900
  124OSM   C16F13191   2.902   3.195   4.088
  124OSM   H16F13192   2.970   3.283   4.096
  124OSM   H16G13193   2.935   3.134   4.174
  124OSM   C17F13194   2.751   3.226   4.124
  124OSM   H17F13195   2.695   3.130   4.130
  124OSM   H17G13196   2.702   3.277   4.038
  124OSM   C18F13197   2.735   3.291   4.257
  124OSM   H18F13198   2.631   3.315   4.288
  124OSM   H18G13199   2.797   3.383   4.265
  124OSM   H18H13200   2.777   3.225   4.335
  125OSM      N13201   4.443   6.456   2.163
  125OSM    C1513202   4.374   6.320   2.153
  125OSM   H15A13203   4.444   6.248   2.192
  125OSM   H15B13204   4.342   6.283   2.056
  125OSM   H15C13205   4.281   6.314   2.208
  125OSM    C1413206   4.386   6.520   2.283
  125OSM   H14A13207   4.280   6.535   2.267
  125OSM   H14B13208   4.428   6.616   2.309
  125OSM   H14C13209   4.405   6.450   2.363
  125OSM    C1313210   4.590   6.431   2.173
  125OSM   H13A13211   4.642   6.522   2.195
  125OSM   H13B13212   4.627   6.386   2.082
  125OSM   H13C13213   4.612   6.364   2.255
  125OSM    C1213214   4.412   6.540   2.035
  125OSM   H12A13215   4.468   6.497   1.953
  125OSM   H12B13216   4.447   6.641   2.051
  125OSM    C1113217   4.271   6.551   1.980
  125OSM   H11A13218   4.228   6.451   1.959
  125OSM   H11B13219   4.269   6.604   1.882
  125OSM      P13220   4.195   6.770   2.090
  125OSM    O1313221   4.330   6.793   2.148
  125OSM    O1413222   4.156   6.829   1.961
  125OSM    O1113223   4.073   6.798   2.186
  125OSM    O1213224   4.182   6.618   2.084
  125OSM    C1S13225   4.047   6.727   2.306
  125OSM    H1S13226   4.091   6.626   2.318
  125OSM    H1T13227   3.938   6.710   2.315
  125OSM     NF13228   4.027   6.730   2.545
  125OSM    HNF13229   3.931   6.746   2.567
  125OSM    C2S13230   4.075   6.805   2.436
  125OSM    H2S13231   4.183   6.825   2.451
  125OSM    C3S13232   4.018   0.105   2.424
  125OSM    H3S13233   3.917   0.094   2.379
  125OSM     O313234   4.086   0.183   2.328
  125OSM    HO313235   4.148   0.118   2.293
  125OSM    C4S13236   4.023   0.185   2.554
  125OSM    H4S13237   4.117   0.236   2.580
  125OSM    C5S13238   3.926   0.195   2.642
  125OSM    H5S13239   3.828   0.154   2.616
  125OSM    C6S13240   3.931   0.276   2.765
  125OSM    H6S13241   3.835   0.330   2.781
  125OSM    H6T13242   4.014   0.350   2.766
  125OSM    C7S13243   3.956   0.184   2.890
  125OSM    H7S13244   4.012   0.242   2.966
  125OSM    H7T13245   4.008   0.091   2.858
  125OSM    C8S13246   3.822   0.137   2.950
  125OSM    H8S13247   3.747   0.108   2.874
  125OSM    H8T13248   3.772   0.219   3.006
  125OSM    C9S13249   3.837   0.023   3.055
  125OSM    H9S13250   3.901   0.053   3.141
  125OSM    H9T13251   3.887   6.782   3.002
  125OSM   C10S13252   3.701   6.819   3.110
  125OSM   H10S13253   3.651   6.742   3.048
  125OSM   H10T13254   3.642   0.071   3.107
  125OSM   C11S13255   3.710   6.764   3.250
  125OSM   H11S13256   3.781   6.829   3.305
  125OSM   H11T13257   3.746   6.659   3.241
  125OSM   C12S13258   3.576   6.754   3.334
  125OSM   H12S13259   3.499   6.693   3.283
  125OSM   H12T13260   3.526   0.010   3.338
  125OSM   C13S13261   3.610   6.723   3.474
  125OSM   H13S13262   3.651   6.815   3.521
  125OSM   H13T13263   3.669   6.631   3.492
  125OSM   C14S13264   3.476   6.695   3.555
  125OSM   H14S13265   3.412   6.640   3.483
  125OSM   H14T13266   3.428   6.794   3.572
  125OSM   C15S13267   3.505   6.642   3.691
  125OSM   H15S13268   3.572   6.553   3.690
  125OSM   H15T13269   3.411   6.620   3.746
  125OSM   C16S13270   3.592   6.746   3.767
  125OSM   H16S13271   3.540   0.000   3.756
  125OSM   H16T13272   3.694   6.748   3.722
  125OSM   C17S13273   3.614   6.714   3.915
  125OSM   H17S13274   3.679   6.624   3.906
  125OSM   H17T13275   3.520   6.684   3.965
  125OSM   C18S13276   3.689   6.821   3.993
  125OSM   H18S13277   3.773   0.033   3.946
  125OSM   H18T13278   3.729   6.773   4.085
  125OSM   H18U13279   3.609   0.051   4.020
  125OSM    C1F13280   4.085   6.623   2.599
  125OSM     OF13281   4.190   6.578   2.551
  125OSM    C2F13282   4.012   6.560   2.706
  125OSM    H2F13283   3.942   6.487   2.662
  125OSM    H2G13284   3.955   6.639   2.760
  125OSM    C3F13285   4.107   6.507   2.815
  125OSM    H3F13286   4.158   6.596   2.856
  125OSM    H3G13287   4.168   6.423   2.776
  125OSM    C4F13288   4.023   6.466   2.942
  125OSM    H4F13289   3.980   6.366   2.918
  125OSM    H4G13290   3.936   6.534   2.956
  125OSM    C5F13291   4.098   6.450   3.074
  125OSM    H5F13292   4.134   6.554   3.092
  125OSM    H5G13293   4.189   6.394   3.044
  125OSM    C6F13294   4.021   6.394   3.181
  125OSM    H6F13295   3.977   6.293   3.164
  125OSM    H6G13296   3.933   6.463   3.182
  125OSM    C7F13297   4.086   6.386   3.320
  125OSM    H7F13298   4.182   6.333   3.304
  125OSM    H7G13299   4.029   6.332   3.399
  125OSM    C8F13300   4.122   6.529   3.376
  125OSM    H8F13301   4.179   6.584   3.298
  125OSM    H8G13302   4.194   6.516   3.460
  125OSM    C9F13303   4.006   6.613   3.423
  125OSM    H9F13304   3.966   6.679   3.345
  125OSM   C10F13305   3.960   6.628   3.546
  125OSM   H10F13306   3.872   6.692   3.556
  125OSM   C11F13307   4.006   6.556   3.673
  125OSM   H11F13308   4.038   6.640   3.738
  125OSM   H11G13309   4.092   6.488   3.658
  125OSM   C12F13310   3.900   6.466   3.731
  125OSM   H12F13311   3.872   6.391   3.655
  125OSM   H12G13312   3.808   6.525   3.750
  125OSM   C13F13313   3.935   6.395   3.868
  125OSM   H13F13314   4.042   6.373   3.849
  125OSM   H13G13315   3.873   6.303   3.876
  125OSM   C14F13316   3.925   6.481   3.991
  125OSM   H14F13317   3.821   6.511   4.013
  125OSM   H14G13318   3.985   6.573   3.973
  125OSM   C15F13319   3.969   6.415   4.122
  125OSM   H15F13320   4.059   6.353   4.101
  125OSM   H15G13321   3.884   6.347   4.144
  125OSM   C16F13322   4.002   6.522   4.224
  125OSM   H16F13323   3.915   6.581   4.258
  125OSM   H16G13324   4.086   6.589   4.194
  125OSM   C17F13325   4.051   6.447   4.346
  125OSM   H17F13326   4.141   6.385   4.324
  125OSM   H17G13327   3.974   6.376   4.384
  125OSM   C18F13328   4.082   6.551   4.458
  125OSM   H18F13329   4.163   6.623   4.433
  125OSM   H18G13330   4.117   6.503   4.552
  125OSM   H18H13331   3.994   6.617   4.478
  126OSM      N13332   2.413   1.281   1.776
  126OSM    C1513333   2.556   1.325   1.766
  126OSM   H15A13334   2.583   1.334   1.870
  126OSM   H15B13335   2.566   1.427   1.731
  126OSM   H15C13336   2.616   1.242   1.733
  126OSM    C1413337   2.330   1.383   1.844
  126OSM   H14A13338   2.316   1.480   1.799
  126OSM   H14B13339   2.373   1.411   1.939
  126OSM   H14C13340   2.231   1.346   1.867
  126OSM    C1313341   2.375   1.260   1.640
  126OSM   H13A13342   2.279   1.211   1.635
  126OSM   H13B13343   2.440   1.192   1.587
  126OSM   H13C13344   2.355   1.352   1.588
  126OSM    C1213345   2.406   1.150   1.847
  126OSM   H12A13346   2.456   1.078   1.784
  126OSM   H12B13347   2.302   1.120   1.844
  126OSM    C1113348   2.479   1.136   1.982
  126OSM   H11A13349   2.447   1.040   2.026
  126OSM   H11B13350   2.435   1.214   2.048
  126OSM      P13351   2.701   1.015   1.923
  126OSM    O1313352   2.635   0.940   1.813
  126OSM    O1413353   2.845   1.052   1.903
  126OSM    O1113354   2.682   0.924   2.056
  126OSM    O1213355   2.622   1.146   1.972
  126OSM    C1S13356   2.769   0.942   2.166
  126OSM    H1S13357   2.788   1.051   2.175
  126OSM    H1T13358   2.865   0.887   2.149
  126OSM     NF13359   2.762   0.951   2.425
  126OSM    HNF13360   2.819   0.887   2.475
  126OSM    C2S13361   2.704   0.902   2.298
  126OSM    H2S13362   2.599   0.935   2.283
  126OSM    C3S13363   2.698   0.744   2.302
  126OSM    H3S13364   2.802   0.707   2.303
  126OSM     O313365   2.649   0.687   2.184
  126OSM    HO313366   2.629   0.763   2.129
  126OSM    C4S13367   2.628   0.684   2.423
  126OSM    H4S13368   2.523   0.712   2.438
  126OSM    C5S13369   2.679   0.603   2.513
  126OSM    H5S13370   2.780   0.563   2.497
  126OSM    C6S13371   2.606   0.537   2.622
  126OSM    H6S13372   2.676   0.475   2.682
  126OSM    H6T13373   2.532   0.465   2.581
  126OSM    C7S13374   2.553   0.632   2.731
  126OSM    H7S13375   2.489   0.568   2.795
  126OSM    H7T13376   2.482   0.706   2.688
  126OSM    C8S13377   2.661   0.694   2.811
  126OSM    H8S13378   2.734   0.744   2.744
  126OSM    H8T13379   2.695   0.602   2.865
  126OSM    C9S13380   2.610   0.788   2.921
  126OSM    H9S13381   2.512   0.756   2.963
  126OSM    H9T13382   2.584   0.885   2.873
  126OSM   C10S13383   2.704   0.817   3.044
  126OSM   H10S13384   2.788   0.882   3.010
  126OSM   H10T13385   2.742   0.727   3.097
  126OSM   C11S13386   2.619   0.900   3.141
  126OSM   H11S13387   2.522   0.847   3.155
  126OSM   H11T13388   2.609   0.991   3.078
  126OSM   C12S13389   2.684   0.923   3.274
  126OSM   H12S13390   2.771   0.991   3.264
  126OSM   H12T13391   2.711   0.824   3.317
  126OSM   C13S13392   2.591   0.994   3.369
  126OSM   H13S13393   2.493   0.942   3.375
  126OSM   H13T13394   2.568   1.095   3.330
  126OSM   C14S13395   2.654   0.999   3.509
  126OSM   H14S13396   2.750   1.053   3.521
  126OSM   H14T13397   2.683   0.892   3.521
  126OSM   C15S13398   2.554   1.045   3.615
  126OSM   H15S13399   2.463   0.983   3.604
  126OSM   H15T13400   2.515   1.149   3.609
  126OSM   C16S13401   2.618   1.038   3.748
  126OSM   H16S13402   2.550   1.094   3.816
  126OSM   H16T13403   2.704   1.107   3.737
  126OSM   C17S13404   2.650   0.896   3.804
  126OSM   H17S13405   2.708   0.914   3.897
  126OSM   H17T13406   2.731   0.855   3.741
  126OSM   C18S13407   2.523   0.815   3.837
  126OSM   H18S13408   2.546   0.732   3.907
  126OSM   H18T13409   2.485   0.755   3.751
  126OSM   H18U13410   2.441   0.879   3.877
  126OSM    C1F13411   2.743   1.075   2.467
  126OSM     OF13412   2.720   1.169   2.392
  126OSM    C2F13413   2.762   1.093   2.615
  126OSM    H2F13414   2.865   1.061   2.643
  126OSM    H2G13415   2.690   1.023   2.663
  126OSM    C3F13416   2.724   1.241   2.661
  126OSM    H3F13417   2.616   1.248   2.639
  126OSM    H3G13418   2.779   1.307   2.590
  126OSM    C4F13419   2.739   1.284   2.811
  126OSM    H4F13420   2.694   1.207   2.878
  126OSM    H4G13421   2.685   1.380   2.820
  126OSM    C5F13422   2.881   1.286   2.845
  126OSM    H5F13423   2.928   1.333   2.756
  126OSM    H5G13424   2.923   1.183   2.844
  126OSM    C6F13425   2.909   1.360   2.975
  126OSM    H6F13426   2.832   1.439   2.984
  126OSM    H6G13427   2.999   1.425   2.978
  126OSM    C7F13428   2.886   1.276   3.103
  126OSM    H7F13429   2.968   1.205   3.128
  126OSM    H7G13430   2.796   1.213   3.085
  126OSM    C8F13431   2.872   1.369   3.222
  126OSM    H8F13432   2.789   1.441   3.207
  126OSM    H8G13433   2.965   1.429   3.235
  126OSM    C9F13434   2.826   1.303   3.346
  126OSM    H9F13435   2.739   1.238   3.332
  126OSM   C10F13436   2.890   1.303   3.468
  126OSM   H10F13437   2.856   1.238   3.549
  126OSM   C11F13438   3.016   1.381   3.484
  126OSM   H11F13439   2.997   1.490   3.489
  126OSM   H11G13440   3.096   1.356   3.412
  126OSM   C12F13441   3.088   1.354   3.625
  126OSM   H12F13442   3.172   1.427   3.622
  126OSM   H12G13443   3.121   1.248   3.627
  126OSM   C13F13444   3.002   1.394   3.750
  126OSM   H13F13445   2.910   1.333   3.740
  126OSM   H13G13446   2.968   1.500   3.758
  126OSM   C14F13447   3.069   1.354   3.883
  126OSM   H14F13448   3.103   1.248   3.876
  126OSM   H14G13449   2.993   1.355   3.964
  126OSM   C15F13450   3.189   1.452   3.920
  126OSM   H15F13451   3.151   1.557   3.928
  126OSM   H15G13452   3.262   1.445   3.836
  126OSM   C16F13453   3.266   1.409   4.048
  126OSM   H16F13454   3.347   1.483   4.063
  126OSM   H16G13455   3.302   1.307   4.020
  126OSM   C17F13456   3.175   1.416   4.170
  126OSM   H17F13457   3.088   1.347   4.164
  126OSM   H17G13458   3.137   1.521   4.177
  126OSM   C18F13459   3.253   1.395   4.308
  126OSM   H18F13460   3.304   1.296   4.308
  126OSM   H18G13461   3.193   1.411   4.400
  126OSM   H18H13462   3.333   1.473   4.306
  127OSM      N13463   1.740   2.734   1.954
  127OSM    C1513464   1.876   2.778   1.900
  127OSM   H15A13465   1.882   2.886   1.897
  127OSM   H15B13466   1.889   2.743   1.799
  127OSM   H15C13467   1.958   2.736   1.956
  127OSM    C1413468   1.630   2.797   1.873
  127OSM   H14A13469   1.631   2.786   1.766
  127OSM   H14B13470   1.620   2.902   1.898
  127OSM   H14C13471   1.535   2.758   1.906
  127OSM    C1313472   1.746   2.583   1.924
  127OSM   H13A13473   1.654   2.529   1.939
  127OSM   H13B13474   1.817   2.528   1.983
  127OSM   H13C13475   1.770   2.568   1.820
  127OSM    C1213476   1.721   2.765   2.102
  127OSM   H12A13477   1.630   2.724   2.145
  127OSM   H12B13478   1.707   2.871   2.113
  127OSM    C1113479   1.844   2.731   2.189
  127OSM   H11A13480   1.832   2.777   2.289
  127OSM   H11B13481   1.932   2.787   2.150
  127OSM      P13482   1.991   2.515   2.165
  127OSM    O1313483   1.953   2.384   2.111
  127OSM    O1413484   2.091   2.604   2.088
  127OSM    O1113485   2.056   2.481   2.310
  127OSM    O1213486   1.858   2.589   2.193
  127OSM    C1S13487   1.969   2.450   2.422
  127OSM    H1S13488   1.946   2.342   2.428
  127OSM    H1T13489   1.866   2.493   2.425
  127OSM     NF13490   1.922   2.472   2.669
  127OSM    HNF13491   1.872   2.553   2.699
  127OSM    C2S13492   2.025   2.487   2.565
  127OSM    H2S13493   2.110   2.419   2.590
  127OSM    C3S13494   2.091   2.629   2.546
  127OSM    H3S13495   2.015   2.707   2.526
  127OSM     O313496   2.186   2.636   2.440
  127OSM    HO313497   2.161   2.558   2.390
  127OSM    C4S13498   2.161   2.668   2.677
  127OSM    H4S13499   2.244   2.603   2.706
  127OSM    C5S13500   2.111   2.764   2.759
  127OSM    H5S13501   2.011   2.805   2.741
  127OSM    C6S13502   2.179   2.784   2.891
  127OSM    H6S13503   2.193   2.892   2.910
  127OSM    H6T13504   2.278   2.732   2.892
  127OSM    C7S13505   2.104   2.707   3.002
  127OSM    H7S13506   2.163   2.733   3.092
  127OSM    H7T13507   2.112   2.598   2.987
  127OSM    C8S13508   1.959   2.747   3.030
  127OSM    H8S13509   1.889   2.699   2.958
  127OSM    H8T13510   1.944   2.857   3.025
  127OSM    C9S13511   1.921   2.717   3.175
  127OSM    H9S13512   1.965   2.791   3.245
  127OSM    H9T13513   1.966   2.617   3.193
  127OSM   C10S13514   1.773   2.716   3.202
  127OSM   H10S13515   1.723   2.655   3.124
  127OSM   H10T13516   1.751   2.825   3.203
  127OSM   C11S13517   1.755   2.664   3.344
  127OSM   H11S13518   1.790   2.738   3.420
  127OSM   H11T13519   1.818   2.573   3.352
  127OSM   C12S13520   1.605   2.633   3.388
  127OSM   H12S13521   1.576   2.567   3.303
  127OSM   H12T13522   1.550   2.729   3.392
  127OSM   C13S13523   1.595   2.534   3.504
  127OSM   H13S13524   1.667   2.451   3.487
  127OSM   H13T13525   1.489   2.504   3.517
  127OSM   C14S13526   1.640   2.613   3.629
  127OSM   H14S13527   1.588   2.710   3.648
  127OSM   H14T13528   1.745   2.640   3.606
  127OSM   C15S13529   1.640   2.534   3.756
  127OSM   H15S13530   1.684   2.590   3.841
  127OSM   H15T13531   1.709   2.446   3.752
  127OSM   C16S13532   1.513   2.472   3.798
  127OSM   H16S13533   1.493   2.379   3.741
  127OSM   H16T13534   1.436   2.545   3.765
  127OSM   C17S13535   1.513   2.443   3.945
  127OSM   H17S13536   1.405   2.436   3.967
  127OSM   H17T13537   1.550   2.528   4.007
  127OSM   C18S13538   1.592   2.321   3.993
  127OSM   H18S13539   1.564   2.235   3.928
  127OSM   H18T13540   1.572   2.302   4.100
  127OSM   H18U13541   1.702   2.332   3.983
  127OSM    C1F13542   1.888   2.354   2.718
  127OSM     OF13543   1.919   2.254   2.656
  127OSM    C2F13544   1.813   2.358   2.842
  127OSM    H2F13545   1.713   2.400   2.822
  127OSM    H2G13546   1.874   2.419   2.912
  127OSM    C3F13547   1.813   2.218   2.909
  127OSM    H3F13548   1.911   2.165   2.903
  127OSM    H3G13549   1.739   2.160   2.849
  127OSM    C4F13550   1.758   2.218   3.049
  127OSM    H4F13551   1.755   2.111   3.079
  127OSM    H4G13552   1.655   2.260   3.041
  127OSM    C5F13553   1.843   2.294   3.147
  127OSM    H5F13554   1.852   2.401   3.116
  127OSM    H5G13555   1.948   2.259   3.138
  127OSM    C6F13556   1.796   2.286   3.291
  127OSM    H6F13557   1.692   2.324   3.301
  127OSM    H6G13558   1.857   2.358   3.349
  127OSM    C7F13559   1.801   2.146   3.356
  127OSM    H7F13560   1.899   2.093   3.348
  127OSM    H7G13561   1.719   2.088   3.308
  127OSM    C8F13562   1.756   2.160   3.502
  127OSM    H8F13563   1.731   2.059   3.541
  127OSM    H8G13564   1.658   2.213   3.511
  127OSM    C9F13565   1.859   2.223   3.591
  127OSM    H9F13566   1.895   2.316   3.544
  127OSM   C10F13567   1.919   2.166   3.700
  127OSM   H10F13568   2.002   2.222   3.744
  127OSM   C11F13569   1.881   2.036   3.765
  127OSM   H11F13570   1.920   1.958   3.698
  127OSM   H11G13571   1.770   2.033   3.776
  127OSM   C12F13572   1.953   2.011   3.900
  127OSM   H12F13573   2.057   2.048   3.910
  127OSM   H12G13574   1.949   1.902   3.922
  127OSM   C13F13575   1.863   2.059   4.018
  127OSM   H13F13576   1.777   1.989   4.021
  127OSM   H13G13577   1.836   2.158   3.977
  127OSM   C14F13578   1.928   2.074   4.156
  127OSM   H14F13579   1.990   1.987   4.186
  127OSM   H14G13580   1.841   2.095   4.221
  127OSM   C15F13581   2.019   2.192   4.170
  127OSM   H15F13582   1.968   2.289   4.156
  127OSM   H15G13583   2.095   2.174   4.091
  127OSM   C16F13584   2.085   2.204   4.304
  127OSM   H16F13585   2.149   2.295   4.310
  127OSM   H16G13586   2.159   2.123   4.316
  127OSM   C17F13587   1.997   2.207   4.418
  127OSM   H17F13588   1.967   2.105   4.451
  127OSM   H17G13589   1.906   2.262   4.388
  127OSM   C18F13590   2.065   2.269   4.543
  127OSM   H18F13591   2.103   2.373   4.535
  127OSM   H18G13592   2.148   2.205   4.578
  127OSM   H18H13593   1.993   2.259   4.627
  128OSM      N13594   1.192   0.336   1.965
  128OSM    C1513595   1.184   0.375   1.820
  128OSM   H15A13596   1.283   0.373   1.776
  128OSM   H15B13597   1.165   0.482   1.821
  128OSM   H15C13598   1.106   0.330   1.761
  128OSM    C1413599   1.057   0.343   2.018
  128OSM   H14A13600   0.988   0.302   1.946
  128OSM   H14B13601   1.021   0.442   2.043
  128OSM   H14C13602   1.060   0.280   2.106
  128OSM    C1313603   1.247   0.199   1.960
  128OSM   H13A13604   1.168   0.133   1.928
  128OSM   H13B13605   1.279   0.166   2.058
  128OSM   H13C13606   1.334   0.193   1.895
  128OSM    C1213607   1.283   0.429   2.039
  128OSM   H12A13608   1.224   0.515   2.065
  128OSM   H12B13609   1.356   0.474   1.973
  128OSM    C1113610   1.345   0.389   2.175
  128OSM   H11A13611   1.264   0.344   2.236
  128OSM   H11B13612   1.365   0.482   2.233
  128OSM      P13613   1.599   0.360   2.159
  128OSM    O1313614   1.692   0.245   2.161
  128OSM    O1413615   1.616   0.458   2.051
  128OSM    O1113616   1.611   0.441   2.293
  128OSM    O1213617   1.457   0.300   2.166
  128OSM    C1S13618   1.588   0.371   2.420
  128OSM    H1S13619   1.653   0.282   2.433
  128OSM    H1T13620   1.481   0.345   2.434
  128OSM     NF13621   1.667   0.384   2.658
  128OSM    HNF13622   1.612   0.379   2.741
  128OSM    C2S13623   1.633   0.456   2.540
  128OSM    H2S13624   1.727   0.504   2.504
  128OSM    C3S13625   1.535   0.576   2.556
  128OSM    H3S13626   1.438   0.534   2.590
  128OSM     O313627   1.531   0.665   2.440
  128OSM    HO313628   1.565   0.609   2.370
  128OSM    C4S13629   1.576   0.666   2.672
  128OSM    H4S13630   1.644   0.747   2.642
  128OSM    C5S13631   1.516   0.670   2.791
  128OSM    H5S13632   1.428   0.604   2.803
  128OSM    C6S13633   1.536   0.772   2.896
  128OSM    H6S13634   1.534   0.717   2.992
  128OSM    H6T13635   1.440   0.827   2.899
  128OSM    C7S13636   1.665   0.862   2.885
  128OSM    H7S13637   1.666   0.918   2.788
  128OSM    H7T13638   1.758   0.801   2.881
  128OSM    C8S13639   1.667   0.969   3.002
  128OSM    H8S13640   1.580   1.037   2.995
  128OSM    H8T13641   1.764   1.020   2.984
  128OSM    C9S13642   1.686   0.902   3.140
  128OSM    H9S13643   1.772   0.833   3.142
  128OSM    H9T13644   1.589   0.852   3.163
  128OSM   C10S13645   1.704   1.001   3.253
  128OSM   H10S13646   1.615   1.064   3.274
  128OSM   H10T13647   1.788   1.071   3.234
  128OSM   C11S13648   1.748   0.935   3.385
  128OSM   H11S13649   1.856   0.908   3.379
  128OSM   H11T13650   1.686   0.845   3.401
  128OSM   C12S13651   1.715   1.033   3.503
  128OSM   H12S13652   1.611   1.067   3.485
  128OSM   H12T13653   1.786   1.119   3.503
  128OSM   C13S13654   1.728   0.963   3.643
  128OSM   H13S13655   1.826   0.913   3.658
  128OSM   H13T13656   1.659   0.876   3.645
  128OSM   C14S13657   1.694   1.052   3.765
  128OSM   H14S13658   1.587   1.083   3.758
  128OSM   H14T13659   1.755   1.144   3.775
  128OSM   C15S13660   1.705   0.957   3.876
  128OSM   H15S13661   1.803   0.906   3.874
  128OSM   H15T13662   1.626   0.878   3.871
  128OSM   C16S13663   1.685   1.022   4.013
  128OSM   H16S13664   1.701   0.944   4.090
  128OSM   H16T13665   1.583   1.065   4.025
  128OSM   C17S13666   1.782   1.136   4.056
  128OSM   H17S13667   1.808   1.214   3.981
  128OSM   H17T13668   1.878   1.087   4.083
  128OSM   C18S13669   1.732   1.212   4.179
  128OSM   H18S13670   1.654   1.276   4.133
  128OSM   H18T13671   1.818   1.271   4.219
  128OSM   H18U13672   1.680   1.139   4.245
  128OSM    C1F13673   1.776   0.299   2.661
  128OSM     OF13674   1.851   0.293   2.568
  128OSM    C2F13675   1.800   0.241   2.795
  128OSM    H2F13676   1.719   0.166   2.803
  128OSM    H2G13677   1.788   0.324   2.868
  128OSM    C3F13678   1.943   0.176   2.823
  128OSM    H3F13679   2.025   0.241   2.788
  128OSM    H3G13680   1.945   0.095   2.747
  128OSM    C4F13681   1.972   0.118   2.960
  128OSM    H4F13682   2.069   0.064   2.955
  128OSM    H4G13683   1.888   0.053   2.993
  128OSM    C5F13684   1.988   0.222   3.071
  128OSM    H5F13685   1.893   0.276   3.088
  128OSM    H5G13686   2.069   0.292   3.041
  128OSM    C6F13687   2.020   0.154   3.200
  128OSM    H6F13688   2.097   0.078   3.174
  128OSM    H6G13689   1.926   0.108   3.237
  128OSM    C7F13690   2.061   0.240   3.320
  128OSM    H7F13691   1.981   0.315   3.335
  128OSM    H7G13692   2.153   0.301   3.308
  128OSM    C8F13693   2.065   0.156   3.445
  128OSM    H8F13694   2.158   0.095   3.450
  128OSM    H8G13695   1.988   0.076   3.449
  128OSM    C9F13696   2.040   0.228   3.570
  128OSM    H9F13697   1.954   0.295   3.573
  128OSM   C10F13698   2.102   0.216   3.688
  128OSM   H10F13699   2.073   0.278   3.774
  128OSM   C11F13700   2.213   0.123   3.716
  128OSM   H11F13701   2.300   0.165   3.661
  128OSM   H11G13702   2.182   0.027   3.670
  128OSM   C12F13703   2.249   0.108   3.866
  128OSM   H12F13704   2.326   0.028   3.869
  128OSM   H12G13705   2.156   0.066   3.911
  128OSM   C13F13706   2.287   0.244   3.930
  128OSM   H13F13707   2.200   0.279   3.990
  128OSM   H13G13708   2.307   0.320   3.851
  128OSM   C14F13709   2.415   0.215   4.004
  128OSM   H14F13710   2.497   0.175   3.940
  128OSM   H14G13711   2.386   0.139   4.080
  128OSM   C15F13712   2.476   0.339   4.069
  128OSM   H15F13713   2.489   0.412   3.986
  128OSM   H15G13714   2.575   0.310   4.111
  128OSM   C16F13715   2.389   0.407   4.187
  128OSM   H16F13716   2.395   0.333   4.269
  128OSM   H16G13717   2.287   0.434   4.151
  128OSM   C17F13718   2.460   0.539   4.233
  128OSM   H17F13719   2.449   0.596   4.138
  128OSM   H17G13720   2.564   0.533   4.273
  128OSM   C18F13721   2.381   0.612   4.344
  128OSM   H18F13722   2.273   0.628   4.322
  128OSM   H18G13723   2.425   0.714   4.351
  128OSM   H18H13724   2.386   0.559   4.442
  129OSM      N13725   3.797   6.758   1.939
  129OSM    C1513726   3.846   6.616   1.963
  129OSM   H15A13727   3.828   6.548   1.881
  129OSM   H15B13728   3.803   6.572   2.051
  129OSM   H15C13729   3.952   6.614   1.986
  129OSM    C1413730   3.886   6.824   1.840
  129OSM   H14A13731   3.876   6.775   1.744
  129OSM   H14B13732   3.990   6.815   1.868
  129OSM   H14C13733   3.866   0.086   1.826
  129OSM    C1313734   3.657   6.758   1.890
  129OSM   H13A13735   3.612   0.011   1.870
  129OSM   H13B13736   3.595   6.701   1.957
  129OSM   H13C13737   3.656   6.703   1.797
  129OSM    C1213738   3.808   6.833   2.072
  129OSM   H12A13739   3.782   0.091   2.043
  129OSM   H12B13740   3.908   6.836   2.113
  129OSM    C1113741   3.720   6.787   2.183
  129OSM   H11A13742   3.762   0.006   2.266
  129OSM   H11B13743   3.739   6.681   2.208
  129OSM      P13744   3.555   0.139   2.180
  129OSM    O1313745   3.644   0.219   2.094
  129OSM    O1413746   3.410   0.164   2.160
  129OSM    O1113747   3.583   0.158   2.335
  129OSM    O1213748   3.581   6.823   2.152
  129OSM    C1S13749   3.492   0.118   2.431
  129OSM    H1S13750   3.488   0.008   2.447
  129OSM    H1T13751   3.389   0.150   2.406
  129OSM     NF13752   3.414   0.113   2.655
  129OSM    HNF13753   3.326   0.159   2.664
  129OSM    C2S13754   3.513   0.179   2.573
  129OSM    H2S13755   3.615   0.155   2.610
  129OSM    C3S13756   3.504   0.337   2.570
  129OSM    H3S13757   3.400   0.353   2.537
  129OSM     O313758   3.579   0.414   2.469
  129OSM    HO313759   3.611   0.362   2.395
  129OSM    C4S13760   3.536   0.391   2.704
  129OSM    H4S13761   3.623   0.345   2.751
  129OSM    C5S13762   3.468   0.489   2.767
  129OSM    H5S13763   3.383   0.531   2.711
  129OSM    C6S13764   3.491   0.548   2.904
  129OSM    H6S13765   3.393   0.567   2.953
  129OSM    H6T13766   3.516   0.654   2.881
  129OSM    C7S13767   3.598   0.479   2.991
  129OSM    H7S13768   3.697   0.491   2.942
  129OSM    H7T13769   3.589   0.368   2.992
  129OSM    C8S13770   3.586   0.514   3.140
  129OSM    H8S13771   3.494   0.465   3.177
  129OSM    H8T13772   3.578   0.623   3.158
  129OSM    C9S13773   3.708   0.455   3.210
  129OSM    H9S13774   3.791   0.529   3.211
  129OSM    H9T13775   3.752   0.362   3.169
  129OSM   C10S13776   3.679   0.438   3.365
  129OSM   H10S13777   3.579   0.392   3.380
  129OSM   H10T13778   3.675   0.539   3.412
  129OSM   C11S13779   3.804   0.373   3.433
  129OSM   H11S13780   3.895   0.434   3.449
  129OSM   H11T13781   3.829   0.287   3.367
  129OSM   C12S13782   3.756   0.302   3.565
  129OSM   H12S13783   3.813   0.207   3.569
  129OSM   H12T13784   3.647   0.282   3.564
  129OSM   C13S13785   3.792   0.383   3.683
  129OSM   H13S13786   3.725   0.472   3.682
  129OSM   H13T13787   3.894   0.427   3.673
  129OSM   C14S13788   3.773   0.304   3.813
  129OSM   H14S13789   3.830   0.209   3.821
  129OSM   H14T13790   3.666   0.273   3.818
  129OSM   C15S13791   3.790   0.387   3.932
  129OSM   H15S13792   3.693   0.427   3.967
  129OSM   H15T13793   3.844   0.479   3.900
  129OSM   C16S13794   3.848   0.313   4.055
  129OSM   H16S13795   3.952   0.274   4.043
  129OSM   H16T13796   3.791   0.218   4.068
  129OSM   C17S13797   3.833   0.392   4.182
  129OSM   H17S13798   3.730   0.432   4.193
  129OSM   H17T13799   3.904   0.477   4.174
  129OSM   C18S13800   3.869   0.310   4.305
  129OSM   H18S13801   3.866   0.371   4.398
  129OSM   H18T13802   3.965   0.256   4.291
  129OSM   H18U13803   3.793   0.228   4.302
  129OSM    C1F13804   3.444   6.833   2.695
  129OSM     OF13805   3.533   6.763   2.657
  129OSM    C2F13806   3.358   6.770   2.803
  129OSM    H2F13807   3.251   6.792   2.780
  129OSM    H2G13808   3.398   6.827   2.890
  129OSM    C3F13809   3.381   6.623   2.810
  129OSM    H3F13810   3.487   6.613   2.844
  129OSM    H3G13811   3.373   6.581   2.707
  129OSM    C4F13812   3.295   6.542   2.909
  129OSM    H4F13813   3.347   6.446   2.927
  129OSM    H4G13814   3.194   6.523   2.866
  129OSM    C5F13815   3.273   6.612   3.044
  129OSM    H5F13816   3.200   6.694   3.024
  129OSM    H5G13817   3.368   6.659   3.077
  129OSM    C6F13818   3.223   6.513   3.147
  129OSM    H6F13819   3.299   6.434   3.160
  129OSM    H6G13820   3.128   6.474   3.103
  129OSM    C7F13821   3.192   6.592   3.277
  129OSM    H7F13822   3.136   6.683   3.246
  129OSM    H7G13823   3.285   6.637   3.319
  129OSM    C8F13824   3.113   6.509   3.385
  129OSM    H8F13825   3.022   6.471   3.334
  129OSM    H8G13826   3.094   6.581   3.468
  129OSM    C9F13827   3.195   6.396   3.440
  129OSM    H9F13828   3.237   6.345   3.352
  129OSM   C10F13829   3.214   6.351   3.565
  129OSM   H10F13830   3.275   6.262   3.585
  129OSM   C11F13831   3.162   6.410   3.691
  129OSM   H11F13832   3.077   6.481   3.682
  129OSM   H11G13833   3.241   6.473   3.738
  129OSM   C12F13834   3.155   6.305   3.808
  129OSM   H12F13835   3.242   6.237   3.801
  129OSM   H12G13836   3.074   6.232   3.788
  129OSM   C13F13837   3.157   6.361   3.955
  129OSM   H13F13838   3.054   6.391   3.985
  129OSM   H13G13839   3.224   6.450   3.952
  129OSM   C14F13840   3.194   6.248   4.052
  129OSM   H14F13841   3.289   6.201   4.019
  129OSM   H14G13842   3.123   6.166   4.031
  129OSM   C15F13843   3.214   6.280   4.193
  129OSM   H15F13844   3.128   6.338   4.234
  129OSM   H15G13845   3.297   6.353   4.200
  129OSM   C16F13846   3.248   6.156   4.287
  129OSM   H16F13847   3.324   6.090   4.240
  129OSM   H16G13848   3.158   6.091   4.297
  129OSM   C17F13849   3.286   6.185   4.434
  129OSM   H17F13850   3.394   6.210   4.431
  129OSM   H17G13851   3.284   6.086   4.484
  129OSM   C18F13852   3.200   6.287   4.500
  129OSM   H18F13853   3.103   6.234   4.506
  129OSM   H18G13854   3.193   6.377   4.435
  129OSM   H18H13855   3.232   6.318   4.602
  130OSM      N13856   3.041   3.343   2.095
  130OSM    C1513857   3.013   3.237   1.995
  130OSM   H15A13858   2.991   3.283   1.900
  130OSM   H15B13859   2.929   3.181   2.034
  130OSM   H15C13860   3.095   3.172   1.970
  130OSM    C1413861   2.924   3.439   2.098
  130OSM   H14A13862   2.954   3.506   2.019
  130OSM   H14B13863   2.929   3.481   2.197
  130OSM   H14C13864   2.832   3.388   2.071
  130OSM    C1313865   3.046   3.287   2.234
  130OSM   H13A13866   2.951   3.252   2.272
  130OSM   H13B13867   3.069   3.372   2.297
  130OSM   H13C13868   3.120   3.210   2.250
  130OSM    C1213869   3.167   3.415   2.062
  130OSM   H12A13870   3.251   3.349   2.075
  130OSM   H12B13871   3.167   3.488   2.142
  130OSM    C1113872   3.175   3.485   1.920
  130OSM   H11A13873   3.122   3.424   1.844
  130OSM   H11B13874   3.281   3.495   1.889
  130OSM      P13875   3.201   3.741   1.994
  130OSM    O1313876   3.333   3.770   1.929
  130OSM    O1413877   3.107   3.856   1.992
  130OSM    O1113878   3.230   3.689   2.144
  130OSM    O1213879   3.126   3.620   1.922
  130OSM    C1S13880   3.334   3.754   2.216
  130OSM    H1S13881   3.347   3.861   2.189
  130OSM    H1T13882   3.428   3.699   2.193
  130OSM     NF13883   3.426   3.827   2.432
  130OSM    HNF13884   3.496   3.781   2.486
  130OSM    C2S13885   3.322   3.744   2.373
  130OSM    H2S13886   3.232   3.803   2.402
  130OSM    C3S13887   3.315   3.596   2.419
  130OSM    H3S13888   3.401   3.545   2.371
  130OSM     O313889   3.204   3.523   2.370
  130OSM    HO313890   3.166   3.585   2.307
  130OSM    C4S13891   3.312   3.583   2.569
  130OSM    H4S13892   3.260   3.660   2.627
  130OSM    C5S13893   3.371   3.478   2.632
  130OSM    H5S13894   3.423   3.395   2.581
  130OSM    C6S13895   3.376   3.477   2.785
  130OSM    H6S13896   3.362   3.373   2.823
  130OSM    H6T13897   3.304   3.540   2.841
  130OSM    C7S13898   3.517   3.520   2.835
  130OSM    H7S13899   3.554   3.606   2.776
  130OSM    H7T13900   3.584   3.433   2.818
  130OSM    C8S13901   3.526   3.564   2.980
  130OSM    H8S13902   3.497   3.671   2.987
  130OSM    H8T13903   3.630   3.546   3.014
  130OSM    C9S13904   3.431   3.483   3.071
  130OSM    H9S13905   3.442   3.376   3.044
  130OSM    H9T13906   3.325   3.513   3.053
  130OSM   C10S13907   3.473   3.498   3.215
  130OSM   H10S13908   3.550   3.421   3.234
  130OSM   H10T13909   3.390   3.471   3.283
  130OSM   C11S13910   3.513   3.637   3.255
  130OSM   H11S13911   3.443   3.702   3.200
  130OSM   H11T13912   3.613   3.662   3.214
  130OSM   C12S13913   3.500   3.677   3.402
  130OSM   H12S13914   3.394   3.661   3.431
  130OSM   H12T13915   3.519   3.785   3.420
  130OSM   C13S13916   3.600   3.602   3.491
  130OSM   H13S13917   3.703   3.625   3.455
  130OSM   H13T13918   3.591   3.492   3.485
  130OSM   C14S13919   3.592   3.642   3.642
  130OSM   H14S13920   3.512   3.604   3.708
  130OSM   H14T13921   3.592   3.753   3.643
  130OSM   C15S13922   3.719   3.600   3.725
  130OSM   H15S13923   3.812   3.637   3.675
  130OSM   H15T13924   3.736   3.491   3.730
  130OSM   C16S13925   3.732   3.645   3.876
  130OSM   H16S13926   3.652   3.591   3.932
  130OSM   H16T13927   3.732   3.752   3.904
  130OSM   C17S13928   3.865   3.611   3.939
  130OSM   H17S13929   3.943   3.681   3.902
  130OSM   H17T13930   3.901   3.509   3.914
  130OSM   C18S13931   3.869   3.633   4.086
  130OSM   H18S13932   3.870   3.741   4.116
  130OSM   H18T13933   3.964   3.590   4.125
  130OSM   H18U13934   3.789   3.576   4.138
  130OSM    C1F13935   3.444   3.965   2.427
  130OSM     OF13936   3.372   4.051   2.372
  130OSM    C2F13937   3.566   4.012   2.496
  130OSM    H2F13938   3.638   4.032   2.414
  130OSM    H2G13939   3.611   3.923   2.544
  130OSM    C3F13940   3.535   4.136   2.577
  130OSM    H3F13941   3.435   4.125   2.623
  130OSM    H3G13942   3.537   4.231   2.519
  130OSM    C4F13943   3.644   4.157   2.686
  130OSM    H4F13944   3.739   4.172   2.629
  130OSM    H4G13945   3.656   4.070   2.755
  130OSM    C5F13946   3.618   4.285   2.765
  130OSM    H5F13947   3.519   4.281   2.815
  130OSM    H5G13948   3.610   4.364   2.688
  130OSM    C6F13949   3.729   4.329   2.857
  130OSM    H6F13950   3.718   4.432   2.896
  130OSM    H6G13951   3.822   4.330   2.797
  130OSM    C7F13952   3.747   4.233   2.978
  130OSM    H7F13953   3.741   4.130   2.938
  130OSM    H7G13954   3.657   4.251   3.040
  130OSM    C8F13955   3.874   4.257   3.055
  130OSM    H8F13956   3.956   4.208   2.998
  130OSM    H8G13957   3.873   4.198   3.149
  130OSM    C9F13958   3.904   4.396   3.103
  130OSM    H9F13959   3.932   4.466   3.023
  130OSM   C10F13960   3.892   4.437   3.229
  130OSM   H10F13961   3.920   4.543   3.244
  130OSM   C11F13962   3.858   4.353   3.343
  130OSM   H11F13963   3.941   4.282   3.362
  130OSM   H11G13964   3.777   4.282   3.315
  130OSM   C12F13965   3.816   4.445   3.465
  130OSM   H12F13966   3.826   4.390   3.561
  130OSM   H12G13967   3.706   4.455   3.460
  130OSM   C13F13968   3.881   4.583   3.481
  130OSM   H13F13969   3.852   4.646   3.395
  130OSM   H13G13970   3.992   4.586   3.471
  130OSM   C14F13971   3.835   4.646   3.618
  130OSM   H14F13972   3.887   4.586   3.695
  130OSM   H14G13973   3.726   4.630   3.628
  130OSM   C15F13974   3.870   4.799   3.622
  130OSM   H15F13975   3.818   4.832   3.530
  130OSM   H15G13976   3.980   4.812   3.623
  130OSM   C16F13977   3.824   4.879   3.744
  130OSM   H16F13978   3.901   4.850   3.818
  130OSM   H16G13979   3.720   4.851   3.773
  130OSM   C17F13980   3.821   5.027   3.719
  130OSM   H17F13981   3.756   5.074   3.796
  130OSM   H17G13982   3.757   5.052   3.632
  130OSM   C18F13983   3.956   5.098   3.696
  130OSM   H18F13984   4.007   5.120   3.792
  130OSM   H18G13985   3.943   5.200   3.655
  130OSM   H18H13986   4.025   5.043   3.628
  131OSM      N13987   0.542   6.796   2.013
  131OSM    C1513988   0.449   0.071   1.977
  131OSM   H15A13989   0.505   0.163   1.979
  131OSM   H15B13990   0.371   0.078   2.051
  131OSM   H15C13991   0.415   0.067   1.874
  131OSM    C1413992   0.472   6.665   2.002
  131OSM   H14A13993   0.403   6.651   2.084
  131OSM   H14B13994   0.538   6.581   1.988
  131OSM   H14C13995   0.412   6.664   1.912
  131OSM    C1313996   0.647   6.794   1.901
  131OSM   H13A13997   0.705   0.042   1.890
  131OSM   H13B13998   0.614   6.778   1.800
  131OSM   H13C13999   0.719   6.717   1.926
  131OSM    C1214000   0.598   6.812   2.149
  131OSM   H12A14001   0.521   6.814   2.225
  131OSM   H12B14002   0.647   0.065   2.152
  131OSM    C1114003   0.702   6.706   2.195
  131OSM   H11A14004   0.648   6.610   2.187
  131OSM   H11B14005   0.720   6.730   2.302
  131OSM      P14006   0.928   6.819   2.133
  131OSM    O1314007   1.021   6.825   2.013
  131OSM    O1414008   0.864   0.100   2.173
  131OSM    O1114009   1.017   6.764   2.259
  131OSM    O1214010   0.818   6.711   2.117
  131OSM    C1S14011   1.092   0.016   2.349
  131OSM    H1S14012   1.072   0.125   2.338
  131OSM    H1T14013   1.197   6.835   2.322
  131OSM     NF14014   1.152   0.086   2.577
  131OSM    HNF14015   1.226   0.051   2.634
  131OSM    C2S14016   1.072   6.834   2.502
  131OSM    H2S14017   0.969   0.011   2.538
  131OSM    C3S14018   1.099   6.683   2.535
  131OSM    H3S14019   1.207   6.664   2.515
  131OSM     O314020   1.046   6.583   2.446
  131OSM    HO314021   1.010   6.630   2.370
  131OSM    C4S14022   1.085   6.657   2.681
  131OSM    H4S14023   1.164   6.709   2.737
  131OSM    C5S14024   1.001   6.576   2.746
  131OSM    H5S14025   0.935   6.505   2.694
  131OSM    C6S14026   0.998   6.555   2.895
  131OSM    H6S14027   0.948   6.456   2.905
  131OSM    H6T14028   0.947   6.647   2.931
  131OSM    C7S14029   1.138   6.536   2.960
  131OSM    H7S14030   1.212   6.608   2.919
  131OSM    H7T14031   1.179   6.436   2.934
  131OSM    C8S14032   1.126   6.531   3.116
  131OSM    H8S14033   1.041   6.466   3.146
  131OSM    H8T14034   1.104   6.634   3.151
  131OSM    C9S14035   1.252   6.486   3.190
  131OSM    H9S14036   1.335   6.556   3.168
  131OSM    H9T14037   1.288   6.397   3.135
  131OSM   C10S14038   1.244   6.453   3.340
  131OSM   H10S14039   1.336   6.413   3.388
  131OSM   H10T14040   1.161   6.381   3.356
  131OSM   C11S14041   1.217   6.579   3.425
  131OSM   H11S14042   1.122   6.631   3.403
  131OSM   H11T14043   1.297   6.650   3.394
  131OSM   C12S14044   1.226   6.554   3.577
  131OSM   H12S14045   1.315   6.492   3.599
  131OSM   H12T14046   1.138   6.492   3.605
  131OSM   C13S14047   1.247   6.678   3.660
  131OSM   H13S14048   1.146   6.718   3.683
  131OSM   H13T14049   1.302   6.752   3.598
  131OSM   C14S14050   1.318   6.648   3.795
  131OSM   H14S14051   1.345   6.742   3.847
  131OSM   H14T14052   1.412   6.588   3.796
  131OSM   C15S14053   1.236   6.566   3.896
  131OSM   H15S14054   1.284   6.548   3.995
  131OSM   H15T14055   1.219   6.465   3.853
  131OSM   C16S14056   1.098   6.634   3.918
  131OSM   H16S14057   1.052   6.620   3.818
  131OSM   H16T14058   1.120   6.742   3.933
  131OSM   C17S14059   1.002   6.581   4.023
  131OSM   H17S14060   1.032   6.475   4.022
  131OSM   H17T14061   0.897   6.585   3.987
  131OSM   C18S14062   1.021   6.628   4.163
  131OSM   H18S14063   0.941   6.577   4.221
  131OSM   H18T14064   1.013   6.738   4.154
  131OSM   H18U14065   1.122   6.606   4.206
  131OSM    C1F14066   1.132   0.218   2.581
  131OSM     OF14067   1.043   0.272   2.519
  131OSM    C2F14068   1.234   0.289   2.661
  131OSM    H2F14069   1.316   0.302   2.587
  131OSM    H2G14070   1.257   0.221   2.745
  131OSM    C3F14071   1.187   0.424   2.729
  131OSM    H3F14072   1.173   0.489   2.641
  131OSM    H3G14073   1.273   0.460   2.791
  131OSM    C4F14074   1.059   0.408   2.812
  131OSM    H4F14075   1.074   0.342   2.900
  131OSM    H4G14076   0.997   0.354   2.737
  131OSM    C5F14077   0.987   0.537   2.843
  131OSM    H5F14078   0.888   0.526   2.893
  131OSM    H5G14079   0.967   0.590   2.748
  131OSM    C6F14080   1.074   0.625   2.938
  131OSM    H6F14081   1.014   0.713   2.969
  131OSM    H6G14082   1.154   0.666   2.872
  131OSM    C7F14083   1.130   0.560   3.061
  131OSM    H7F14084   1.142   0.451   3.047
  131OSM    H7G14085   1.046   0.562   3.135
  131OSM    C8F14086   1.262   0.633   3.113
  131OSM    H8F14087   1.340   0.617   3.035
  131OSM    H8G14088   1.312   0.598   3.206
  131OSM    C9F14089   1.244   0.779   3.126
  131OSM    H9F14090   1.258   0.835   3.032
  131OSM   C10F14091   1.235   0.853   3.241
  131OSM   H10F14092   1.222   0.962   3.247
  131OSM   C11F14093   1.224   0.798   3.378
  131OSM   H11F14094   1.248   0.690   3.383
  131OSM   H11G14095   1.116   0.803   3.406
  131OSM   C12F14096   1.300   0.868   3.487
  131OSM   H12F14097   1.285   0.978   3.490
  131OSM   H12G14098   1.409   0.851   3.473
  131OSM   C13F14099   1.272   0.815   3.634
  131OSM   H13F14100   1.306   0.710   3.646
  131OSM   H13G14101   1.161   0.818   3.645
  131OSM   C14F14102   1.334   0.911   3.735
  131OSM   H14F14103   1.322   1.016   3.700
  131OSM   H14G14104   1.442   0.885   3.744
  131OSM   C15F14105   1.274   0.884   3.870
  131OSM   H15F14106   1.261   0.775   3.888
  131OSM   H15G14107   1.170   0.922   3.871
  131OSM   C16F14108   1.350   0.953   3.988
  131OSM   H16F14109   1.346   1.062   3.966
  131OSM   H16G14110   1.451   0.908   3.984
  131OSM   C17F14111   1.290   0.927   4.123
  131OSM   H17F14112   1.187   0.967   4.132
  131OSM   H17G14113   1.349   0.986   4.196
  131OSM   C18F14114   1.296   0.786   4.175
  131OSM   H18F14115   1.226   0.719   4.120
  131OSM   H18G14116   1.270   0.775   4.283
  131OSM   H18H14117   1.393   0.740   4.147
  132OSM      N14118   6.005   6.806   1.994
  132OSM    C1514119   5.945   6.689   1.916
  132OSM   H15A14120   6.009   6.603   1.926
  132OSM   H15B14121   5.941   6.724   1.813
  132OSM   H15C14122   5.846   6.665   1.952
  132OSM    C1414123   6.136   6.836   1.928
  132OSM   H14A14124   6.194   0.064   1.985
  132OSM   H14B14125   6.125   0.035   1.829
  132OSM   H14C14126   6.201   6.753   1.906
  132OSM    C1314127   5.916   0.084   1.986
  132OSM   H13A14128   5.888   0.104   1.884
  132OSM   H13B14129   5.964   0.170   2.030
  132OSM   H13C14130   5.820   0.064   2.032
  132OSM    C1214131   6.020   6.778   2.141
  132OSM   H12A14132   5.921   6.765   2.183
  132OSM   H12B14133   6.057   0.021   2.195
  132OSM    C1114134   6.118   6.664   2.181
  132OSM   H11A14135   6.086   6.574   2.125
  132OSM   H11B14136   6.108   6.652   2.291
  132OSM      P14137   6.354   6.763   2.248
  132OSM    O1314138   6.493   6.721   2.231
  132OSM    O1414139   6.332   0.065   2.232
  132OSM    O1114140   6.307   6.711   2.382
  132OSM    O1214141   6.255   6.684   2.153
  132OSM    C1S14142   6.331   6.585   2.435
  132OSM    H1S14143   6.372   6.510   2.364
  132OSM    H1T14144   6.232   6.539   2.453
  132OSM     NF14145   6.431   6.437   2.595
  132OSM    HNF14146   6.354   6.383   2.628
  132OSM    C2S14147   6.414   6.580   2.568
  132OSM    H2S14148   6.514   6.627   2.548
  132OSM    C3S14149   6.341   6.659   2.683
  132OSM    H3S14150   6.238   6.618   2.692
  132OSM     O314151   6.332   6.795   2.656
  132OSM    HO314152   6.378   6.801   2.572
  132OSM    C4S14153   6.413   6.638   2.815
  132OSM    H4S14154   6.410   6.532   2.847
  132OSM    C5S14155   6.475   6.734   2.894
  132OSM    H5S14156   6.473   6.839   2.862
  132OSM    C6S14157   6.549   6.700   3.022
  132OSM    H6S14158   6.529   6.790   3.084
  132OSM    H6T14159   6.658   6.696   3.006
  132OSM    C7S14160   6.509   6.572   3.103
  132OSM    H7S14161   6.539   6.483   3.044
  132OSM    H7T14162   6.400   6.567   3.124
  132OSM    C8S14163   6.593   6.580   3.232
  132OSM    H8S14164   6.612   6.681   3.274
  132OSM    H8T14165   6.698   6.554   3.206
  132OSM    C9S14166   6.542   6.494   3.345
  132OSM    H9S14167   6.618   6.496   3.426
  132OSM    H9T14168   6.522   6.391   3.310
  132OSM   C10S14169   6.408   6.551   3.402
  132OSM   H10S14170   6.328   6.490   3.354
  132OSM   H10T14171   6.390   6.659   3.379
  132OSM   C11S14172   6.387   6.529   3.547
  132OSM   H11S14173   6.303   6.583   3.595
  132OSM   H11T14174   6.482   6.558   3.598
  132OSM   C12S14175   6.355   6.386   3.574
  132OSM   H12S14176   6.423   6.326   3.509
  132OSM   H12T14177   6.251   6.367   3.540
  132OSM   C13S14178   6.380   6.336   3.717
  132OSM   H13S14179   6.341   6.232   3.724
  132OSM   H13T14180   6.320   6.385   3.796
  132OSM   C14S14181   6.524   6.340   3.768
  132OSM   H14S14182   6.550   6.448   3.777
  132OSM   H14T14183   6.584   6.294   3.687
  132OSM   C15S14184   6.544   6.275   3.902
  132OSM   H15S14185   6.647   6.232   3.895
  132OSM   H15T14186   6.475   6.194   3.933
  132OSM   C16S14187   6.532   6.372   4.016
  132OSM   H16S14188   6.434   6.424   4.007
  132OSM   H16T14189   6.612   6.448   4.001
  132OSM   C17S14190   6.531   6.319   4.161
  132OSM   H17S14191   6.627   6.269   4.185
  132OSM   H17T14192   6.456   6.238   4.155
  132OSM   C18S14193   6.508   6.419   4.275
  132OSM   H18S14194   6.579   6.501   4.252
  132OSM   H18T14195   6.534   6.382   4.377
  132OSM   H18U14196   6.407   6.465   4.270
  132OSM    C1F14197   6.521   6.368   2.538
  132OSM     OF14198   6.614   6.419   2.475
  132OSM    C2F14199   6.505   6.223   2.550
  132OSM    H2F14200   6.536   6.177   2.454
  132OSM    H2G14201   6.398   6.197   2.565
  132OSM    C3F14202   6.610   6.172   2.657
  132OSM    H3F14203   6.708   6.174   2.605
  132OSM    H3G14204   6.577   6.066   2.665
  132OSM    C4F14205   6.609   6.236   2.798
  132OSM    H4F14206   6.511   6.214   2.846
  132OSM    H4G14207   6.634   6.344   2.787
  132OSM    C5F14208   6.709   6.170   2.899
  132OSM    H5F14209   6.810   6.208   2.873
  132OSM    H5G14210   6.722   6.061   2.882
  132OSM    C6F14211   6.681   6.186   3.051
  132OSM    H6F14212   6.661   6.291   3.081
  132OSM    H6G14213   6.771   6.161   3.110
  132OSM    C7F14214   6.551   6.112   3.093
  132OSM    H7F14215   6.547   6.008   3.056
  132OSM    H7G14216   6.462   6.170   3.060
  132OSM    C8F14217   6.543   6.100   3.249
  132OSM    H8F14218   6.541   6.199   3.299
  132OSM    H8G14219   6.638   6.056   3.284
  132OSM    C9F14220   6.422   6.019   3.301
  132OSM    H9F14221   6.323   6.062   3.282
  132OSM   C10F14222   6.423   5.904   3.371
  132OSM   H10F14223   6.321   5.865   3.390
  132OSM   C11F14224   6.544   5.818   3.407
  132OSM   H11F14225   6.615   5.803   3.323
  132OSM   H11G14226   6.516   5.714   3.434
  132OSM   C12F14227   6.622   5.885   3.524
  132OSM   H12F14228   6.643   5.990   3.496
  132OSM   H12G14229   6.725   5.842   3.520
  132OSM   C13F14230   6.560   5.873   3.664
  132OSM   H13F14231   6.540   5.765   3.679
  132OSM   H13G14232   6.461   5.922   3.676
  132OSM   C14F14233   6.657   5.926   3.767
  132OSM   H14F14234   6.617   6.027   3.790
  132OSM   H14G14235   6.760   5.942   3.729
  132OSM   C15F14236   6.658   5.838   3.891
  132OSM   H15F14237   6.754   5.851   3.945
  132OSM   H15G14238   6.657   5.729   3.870
  132OSM   C16F14239   6.544   5.873   3.994
  132OSM   H16F14240   6.439   5.877   3.958
  132OSM   H16G14241   6.578   5.970   4.035
  132OSM   C17F14242   6.543   5.773   4.107
  132OSM   H17F14243   6.647   5.764   4.144
  132OSM   H17G14244   6.506   5.679   4.063
  132OSM   C18F14245   6.466   5.820   4.233
  132OSM   H18F14246   6.502   5.921   4.262
  132OSM   H18G14247   6.500   5.750   4.312
  132OSM   H18H14248   6.356   5.833   4.233
  133OSM      N14249   4.832   3.116   2.088
  133OSM    C1514250   4.698   3.186   2.078
  133OSM   H15A14251   4.698   3.268   2.148
  133OSM   H15B14252   4.608   3.128   2.091
  133OSM   H15C14253   4.680   3.238   1.985
  133OSM    C1414254   4.850   3.035   1.963
  133OSM   H14A14255   4.936   2.972   1.980
  133OSM   H14B14256   4.852   3.103   1.879
  133OSM   H14C14257   4.765   2.971   1.946
  133OSM    C1314258   4.935   3.229   2.082
  133OSM   H13A14259   5.028   3.181   2.058
  133OSM   H13B14260   4.947   3.274   2.179
  133OSM   H13C14261   4.913   3.315   2.021
  133OSM    C1214262   4.835   3.033   2.216
  133OSM   H12A14263   4.760   2.956   2.212
  133OSM   H12B14264   4.804   3.100   2.294
  133OSM    C1114265   4.970   2.966   2.254
  133OSM   H11A14266   4.955   2.926   2.357
  133OSM   H11B14267   5.053   3.040   2.253
  133OSM      P14268   5.136   2.789   2.172
  133OSM    O1314269   5.129   2.671   2.083
  133OSM    O1414270   5.240   2.890   2.139
  133OSM    O1114271   5.153   2.734   2.322
  133OSM    O1214272   4.993   2.858   2.167
  133OSM    C1S14273   5.078   2.632   2.381
  133OSM    H1S14274   5.113   2.536   2.337
  133OSM    H1T14275   4.971   2.646   2.353
  133OSM     NF14276   5.031   2.512   2.600
  133OSM    HNF14277   4.937   2.526   2.629
  133OSM    C2S14278   5.089   2.629   2.539
  133OSM    H2S14279   5.197   2.617   2.561
  133OSM    C3S14280   5.051   2.767   2.596
  133OSM    H3S14281   4.954   2.802   2.553
  133OSM     O314282   5.159   2.859   2.563
  133OSM    HO314283   5.199   2.822   2.485
  133OSM    C4S14284   5.045   2.775   2.748
  133OSM    H4S14285   5.131   2.731   2.800
  133OSM    C5S14286   4.956   2.838   2.828
  133OSM    H5S14287   4.877   2.895   2.777
  133OSM    C6S14288   4.958   2.856   2.980
  133OSM    H6S14289   4.856   2.833   3.019
  133OSM    H6T14290   4.976   2.959   3.018
  133OSM    C7S14291   5.055   2.765   3.058
  133OSM    H7S14292   5.051   2.811   3.159
  133OSM    H7T14293   5.163   2.770   3.030
  133OSM    C8S14294   5.022   2.613   3.052
  133OSM    H8S14295   5.051   2.579   2.950
  133OSM    H8T14296   4.915   2.587   3.065
  133OSM    C9S14297   5.095   2.533   3.164
  133OSM    H9S14298   5.195   2.580   3.158
  133OSM    H9T14299   5.108   2.425   3.141
  133OSM   C10S14300   5.048   2.555   3.309
  133OSM   H10S14301   4.943   2.522   3.327
  133OSM   H10T14302   5.056   2.662   3.339
  133OSM   C11S14303   5.132   2.459   3.405
  133OSM   H11S14304   5.236   2.498   3.403
  133OSM   H11T14305   5.125   2.359   3.356
  133OSM   C12S14306   5.065   2.442   3.545
  133OSM   H12S14307   4.961   2.401   3.550
  133OSM   H12T14308   5.056   2.542   3.592
  133OSM   C13S14309   5.163   2.368   3.639
  133OSM   H13S14310   5.266   2.407   3.623
  133OSM   H13T14311   5.169   2.259   3.616
  133OSM   C14S14312   5.129   2.373   3.791
  133OSM   H14S14313   5.026   2.335   3.809
  133OSM   H14T14314   5.126   2.476   3.833
  133OSM   C15S14315   5.224   2.280   3.866
  133OSM   H15S14316   5.322   2.329   3.883
  133OSM   H15T14317   5.255   2.190   3.809
  133OSM   C16S14318   5.157   2.232   3.994
  133OSM   H16S14319   5.106   2.135   3.973
  133OSM   H16T14320   5.096   2.309   4.045
  133OSM   C17S14321   5.271   2.201   4.091
  133OSM   H17S14322   5.230   2.193   4.195
  133OSM   H17T14323   5.338   2.288   4.103
  133OSM   C18S14324   5.349   2.080   4.054
  133OSM   H18S14325   5.425   2.044   4.126
  133OSM   H18T14326   5.415   2.097   3.966
  133OSM   H18U14327   5.273   2.001   4.032
  133OSM    C1F14328   5.101   2.392   2.603
  133OSM     OF14329   5.216   2.387   2.566
  133OSM    C2F14330   5.037   2.266   2.643
  133OSM    H2F14331   5.107   2.180   2.630
  133OSM    H2G14332   4.957   2.238   2.572
  133OSM    C3F14333   4.991   2.292   2.781
  133OSM    H3F14334   4.916   2.373   2.778
  133OSM    H3G14335   5.071   2.330   2.849
  133OSM    C4F14336   4.910   2.180   2.849
  133OSM    H4F14337   4.980   2.095   2.868
  133OSM    H4G14338   4.824   2.152   2.786
  133OSM    C5F14339   4.859   2.220   2.992
  133OSM    H5F14340   4.786   2.304   2.993
  133OSM    H5G14341   4.942   2.262   3.053
  133OSM    C6F14342   4.778   2.115   3.069
  133OSM    H6F14343   4.854   2.042   3.105
  133OSM    H6G14344   4.726   2.062   2.986
  133OSM    C7F14345   4.668   2.165   3.178
  133OSM    H7F14346   4.581   2.211   3.126
  133OSM    H7G14347   4.713   2.239   3.247
  133OSM    C8F14348   4.622   2.049   3.271
  133OSM    H8F14349   4.706   1.988   3.309
  133OSM    H8G14350   4.567   1.970   3.214
  133OSM    C9F14351   4.540   2.098   3.389
  133OSM    H9F14352   4.432   2.103   3.369
  133OSM   C10F14353   4.581   2.147   3.507
  133OSM   H10F14354   4.502   2.192   3.570
  133OSM   C11F14355   4.724   2.156   3.565
  133OSM   H11F14356   4.748   2.264   3.554
  133OSM   H11G14357   4.798   2.106   3.499
  133OSM   C12F14358   4.753   2.108   3.709
  133OSM   H12F14359   4.864   2.106   3.718
  133OSM   H12G14360   4.714   2.005   3.728
  133OSM   C13F14361   4.689   2.204   3.811
  133OSM   H13F14362   4.580   2.208   3.787
  133OSM   H13G14363   4.731   2.305   3.794
  133OSM   C14F14364   4.687   2.164   3.959
  133OSM   H14F14365   4.608   2.090   3.984
  133OSM   H14G14366   4.665   2.252   4.022
  133OSM   C15F14367   4.819   2.114   3.999
  133OSM   H15F14368   4.901   2.181   3.966
  133OSM   H15G14369   4.834   2.014   3.952
  133OSM   C16F14370   4.838   2.099   4.151
  133OSM   H16F14371   4.752   2.045   4.197
  133OSM   H16G14372   4.835   2.203   4.188
  133OSM   C17F14373   4.958   2.019   4.193
  133OSM   H17F14374   5.055   2.073   4.183
  133OSM   H17G14375   4.965   1.934   4.122
  133OSM   C18F14376   4.950   1.974   4.345
  133OSM   H18F14377   4.857   1.913   4.350
  133OSM   H18G14378   4.958   2.060   4.415
  133OSM   H18H14379   5.040   1.915   4.373
  134OSM      N14380   5.380   6.173   1.886
  134OSM    C1514381   5.307   6.303   1.889
  134OSM   H15A14382   5.259   6.327   1.983
  134OSM   H15B14383   5.221   6.280   1.827
  134OSM   H15C14384   5.356   6.388   1.844
  134OSM    C1414385   5.406   6.135   1.743
  134OSM   H14A14386   5.492   6.188   1.704
  134OSM   H14B14387   5.325   6.167   1.679
  134OSM   H14C14388   5.411   6.027   1.737
  134OSM    C1314389   5.500   6.185   1.956
  134OSM   H13A14390   5.563   6.261   1.912
  134OSM   H13B14391   5.560   6.095   1.952
  134OSM   H13C14392   5.482   6.207   2.060
  134OSM    C1214393   5.282   6.068   1.944
  134OSM   H12A14394   5.191   6.065   1.885
  134OSM   H12B14395   5.249   6.101   2.041
  134OSM    C1114396   5.335   5.927   1.960
  134OSM   H11A14397   5.423   5.913   1.895
  134OSM   H11B14398   5.254   5.858   1.927
  134OSM      P14399   5.437   5.760   2.128
  134OSM    O1314400   5.360   5.654   2.060
  134OSM    O1414401   5.578   5.771   2.095
  134OSM    O1114402   5.436   5.750   2.287
  134OSM    O1214403   5.371   5.899   2.100
  134OSM    C1S14404   5.316   5.781   2.362
  134OSM    H1S14405   5.224   5.804   2.302
  134OSM    H1T14406   5.333   5.868   2.429
  134OSM     NF14407   5.160   5.693   2.542
  134OSM    HNF14408   5.178   5.708   2.639
  134OSM    C2S14409   5.271   5.658   2.451
  134OSM    H2S14410   5.232   5.579   2.384
  134OSM    C3S14411   5.395   5.604   2.538
  134OSM    H3S14412   5.413   5.674   2.622
  134OSM     O314413   5.521   5.592   2.472
  134OSM    HO314414   5.510   5.671   2.418
  134OSM    C4S14415   5.369   5.474   2.604
  134OSM    H4S14416   5.379   5.480   2.714
  134OSM    C5S14417   5.356   5.355   2.550
  134OSM    H5S14418   5.363   5.346   2.440
  134OSM    C6S14419   5.354   5.219   2.620
  134OSM    H6S14420   5.441   5.159   2.586
  134OSM    H6T14421   5.256   5.167   2.606
  134OSM    C7S14422   5.374   5.233   2.775
  134OSM    H7S14423   5.303   5.299   2.830
  134OSM    H7T14424   5.475   5.276   2.794
  134OSM    C8S14425   5.374   5.101   2.854
  134OSM    H8S14426   5.431   5.029   2.791
  134OSM    H8T14427   5.268   5.073   2.866
  134OSM    C9S14428   5.460   5.093   2.980
  134OSM    H9S14429   5.565   5.123   2.960
  134OSM    H9T14430   5.459   4.984   3.001
  134OSM   C10S14431   5.386   5.169   3.093
  134OSM   H10S14432   5.287   5.122   3.112
  134OSM   H10T14433   5.361   5.271   3.054
  134OSM   C11S14434   5.468   5.186   3.222
  134OSM   H11S14435   5.424   5.264   3.287
  134OSM   H11T14436   5.572   5.217   3.196
  134OSM   C12S14437   5.472   5.055   3.302
  134OSM   H12S14438   5.530   4.975   3.251
  134OSM   H12T14439   5.367   5.022   3.312
  134OSM   C13S14440   5.520   5.081   3.443
  134OSM   H13S14441   5.446   5.157   3.474
  134OSM   H13T14442   5.615   5.138   3.441
  134OSM   C14S14443   5.519   4.957   3.542
  134OSM   H14S14444   5.597   4.886   3.507
  134OSM   H14T14445   5.424   4.902   3.521
  134OSM   C15S14446   5.536   5.005   3.688
  134OSM   H15S14447   5.636   5.052   3.682
  134OSM   H15T14448   5.546   4.925   3.765
  134OSM   C16S14449   5.438   5.106   3.738
  134OSM   H16S14450   5.430   5.188   3.663
  134OSM   H16T14451   5.472   5.136   3.839
  134OSM   C17S14452   5.291   5.049   3.744
  134OSM   H17S14453   5.291   4.950   3.794
  134OSM   H17T14454   5.253   5.048   3.640
  134OSM   C18S14455   5.193   5.146   3.821
  134OSM   H18S14456   5.094   5.103   3.848
  134OSM   H18T14457   5.193   5.249   3.778
  134OSM   H18U14458   5.242   5.164   3.919
  134OSM    C1F14459   5.032   5.716   2.507
  134OSM     OF14460   4.999   5.710   2.392
  134OSM    C2F14461   4.946   5.747   2.622
  134OSM    H2F14462   4.960   5.855   2.645
  134OSM    H2G14463   4.980   5.690   2.711
  134OSM    C3F14464   4.800   5.719   2.589
  134OSM    H3F14465   4.793   5.613   2.560
  134OSM    H3G14466   4.756   5.790   2.515
  134OSM    C4F14467   4.724   5.756   2.717
  134OSM    H4F14468   4.617   5.754   2.686
  134OSM    H4G14469   4.740   5.860   2.753
  134OSM    C5F14470   4.742   5.660   2.834
  134OSM    H5F14471   4.848   5.643   2.861
  134OSM    H5G14472   4.712   5.557   2.806
  134OSM    C6F14473   4.678   5.705   2.959
  134OSM    H6F14474   4.569   5.695   2.940
  134OSM    H6G14475   4.708   5.808   2.989
  134OSM    C7F14476   4.710   5.606   3.083
  134OSM    H7F14477   4.817   5.599   3.112
  134OSM    H7G14478   4.686   5.502   3.051
  134OSM    C8F14479   4.629   5.630   3.213
  134OSM    H8F14480   4.636   5.539   3.276
  134OSM    H8G14481   4.519   5.640   3.206
  134OSM    C9F14482   4.692   5.754   3.277
  134OSM    H9F14483   4.686   5.839   3.208
  134OSM   C10F14484   4.743   5.770   3.398
  134OSM   H10F14485   4.786   5.864   3.434
  134OSM   C11F14486   4.746   5.650   3.493
  134OSM   H11F14487   4.826   5.667   3.568
  134OSM   H11G14488   4.771   5.553   3.445
  134OSM   C12F14489   4.620   5.628   3.585
  134OSM   H12F14490   4.624   5.517   3.597
  134OSM   H12G14491   4.526   5.658   3.534
  134OSM   C13F14492   4.635   5.710   3.718
  134OSM   H13F14493   4.615   5.819   3.706
  134OSM   H13G14494   4.742   5.701   3.746
  134OSM   C14F14495   4.544   5.656   3.828
  134OSM   H14F14496   4.570   5.554   3.863
  134OSM   H14G14497   4.448   5.645   3.774
  134OSM   C15F14498   4.525   5.750   3.948
  134OSM   H15F14499   4.436   5.726   4.010
  134OSM   H15G14500   4.511   5.852   3.908
  134OSM   C16F14501   4.648   5.760   4.042
  134OSM   H16F14502   4.744   5.766   3.987
  134OSM   H16G14503   4.656   5.664   4.098
  134OSM   C17F14504   4.648   5.884   4.130
  134OSM   H17F14505   4.727   5.864   4.205
  134OSM   H17G14506   4.548   5.894   4.177
  134OSM   C18F14507   4.669   6.014   4.059
  134OSM   H18F14508   4.596   6.029   3.977
  134OSM   H18G14509   4.772   6.021   4.016
  134OSM   H18H14510   4.657   6.097   4.132
  135OSM      N14511   6.404   0.996   1.793
  135OSM    C1514512   6.468   1.081   1.692
  135OSM   H15A14513   6.536   1.016   1.639
  135OSM   H15B14514   6.515   1.164   1.743
  135OSM   H15C14515   6.393   1.109   1.620
  135OSM    C1414516   6.288   1.075   1.852
  135OSM   H14A14517   6.218   1.016   1.908
  135OSM   H14B14518   6.233   1.116   1.768
  135OSM   H14C14519   6.335   1.154   1.910
  135OSM    C1314520   6.351   0.872   1.730
  135OSM   H13A14521   6.421   0.808   1.678
  135OSM   H13B14522   6.282   0.904   1.654
  135OSM   H13C14523   6.310   0.808   1.806
  135OSM    C1214524   6.504   0.963   1.904
  135OSM   H12A14525   6.588   0.905   1.867
  135OSM   H12B14526   6.456   0.906   1.981
  135OSM    C1114527   6.567   1.092   1.969
  135OSM   H11A14528   6.482   1.155   2.005
  135OSM   H11B14529   6.617   1.150   1.888
  135OSM      P14530   6.802   1.030   2.066
  135OSM    O1314531   0.010   0.923   2.167
  135OSM    O1414532   0.006   1.013   1.926
  135OSM    O1114533   0.006   1.170   2.123
  135OSM    O1214534   6.646   1.049   2.075
  135OSM    C1S14535   6.778   1.238   2.226
  135OSM    H1S14536   6.669   1.219   2.220
  135OSM    H1T14537   6.798   1.347   2.220
  135OSM     NF14538   6.755   1.224   2.470
  135OSM    HNF14539   6.774   1.303   2.527
  135OSM    C2S14540   0.005   1.193   2.361
  135OSM    H2S14541   0.009   1.082   2.362
  135OSM    C3S14542   0.149   1.243   2.377
  135OSM    H3S14543   0.146   1.354   2.385
  135OSM     O314544   0.232   1.218   2.265
  135OSM    HO314545   0.174   1.180   2.198
  135OSM    C4S14546   0.208   1.185   2.502
  135OSM    H4S14547   0.205   1.254   2.588
  135OSM    C5S14548   0.268   1.061   2.511
  135OSM    H5S14549   0.295   1.017   2.414
  135OSM    C6S14550   0.328   1.001   2.635
  135OSM    H6S14551   0.439   1.000   2.624
  135OSM    H6T14552   0.292   0.896   2.641
  135OSM    C7S14553   0.280   1.066   2.764
  135OSM    H7S14554   0.169   1.056   2.757
  135OSM    H7T14555   0.303   1.174   2.761
  135OSM    C8S14556   0.334   1.006   2.891
  135OSM    H8S14557   0.444   1.020   2.891
  135OSM    H8T14558   0.313   0.897   2.901
  135OSM    C9S14559   0.276   1.079   3.016
  135OSM    H9S14560   0.166   1.065   3.021
  135OSM    H9T14561   0.293   1.188   3.004
  135OSM   C10S14562   0.332   1.035   3.144
  135OSM   H10S14563   0.436   1.074   3.142
  135OSM   H10T14564   0.339   0.925   3.139
  135OSM   C11S14565   0.259   1.091   3.266
  135OSM   H11S14566   0.244   1.200   3.258
  135OSM   H11T14567   0.326   1.076   3.353
  135OSM   C12S14568   0.135   1.019   3.302
  135OSM   H12S14569   0.155   0.911   3.320
  135OSM   H12T14570   0.050   1.022   3.230
  135OSM   C13S14571   0.066   1.071   3.430
  135OSM   H13S14572   0.032   1.173   3.401
  135OSM   H13T14573   0.141   1.087   3.510
  135OSM   C14S14574   6.788   0.986   3.479
  135OSM   H14S14575   6.814   0.878   3.469
  135OSM   H14T14576   6.706   0.992   3.404
  135OSM   C15S14577   6.739   1.020   3.620
  135OSM   H15S14578   6.686   1.117   3.609
  135OSM   H15T14579   6.826   1.049   3.683
  135OSM   C16S14580   6.654   0.908   3.678
  135OSM   H16S14581   6.587   0.869   3.599
  135OSM   H16T14582   6.586   0.954   3.753
  135OSM   C17S14583   6.743   0.797   3.741
  135OSM   H17S14584   6.814   0.764   3.662
  135OSM   H17T14585   6.675   0.711   3.753
  135OSM   C18S14586   6.811   0.825   3.873
  135OSM   H18S14587   0.060   0.884   3.849
  135OSM   H18T14588   6.836   0.728   3.921
  135OSM   H18U14589   6.750   0.884   3.944
  135OSM    C1F14590   6.647   1.148   2.481
  135OSM     OF14591   6.626   1.048   2.407
  135OSM    C2F14592   6.552   1.179   2.593
  135OSM    H2F14593   6.455   1.187   2.541
  135OSM    H2G14594   6.572   1.274   2.647
  135OSM    C3F14595   6.540   1.070   2.693
  135OSM    H3F14596   6.486   0.983   2.649
  135OSM    H3G14597   6.487   1.098   2.787
  135OSM    C4F14598   6.675   1.018   2.753
  135OSM    H4F14599   6.731   1.108   2.787
  135OSM    H4G14600   6.735   0.982   2.666
  135OSM    C5F14601   6.658   0.898   2.850
  135OSM    H5F14602   6.630   0.807   2.792
  135OSM    H5G14603   6.585   0.918   2.931
  135OSM    C6F14604   6.791   0.859   2.914
  135OSM    H6F14605   0.003   0.954   2.932
  135OSM    H6G14606   0.025   0.816   2.846
  135OSM    C7F14607   6.788   0.774   3.040
  135OSM    H7F14608   6.733   0.678   3.024
  135OSM    H7G14609   6.739   0.836   3.118
  135OSM    C8F14610   0.081   0.730   3.086
  135OSM    H8F14611   0.142   0.821   3.103
  135OSM    H8G14612   0.121   0.671   3.001
  135OSM    C9F14613   0.074   0.649   3.215
  135OSM    H9F14614   6.815   0.647   3.256
  135OSM   C10F14615   0.174   0.589   3.290
  135OSM   H10F14616   0.152   0.518   3.371
  135OSM   C11F14617   0.319   0.590   3.258
  135OSM   H11F14618   0.349   0.629   3.158
  135OSM   H11G14619   0.363   0.488   3.258
  135OSM   C12F14620   0.397   0.679   3.349
  135OSM   H12F14621   0.362   0.784   3.344
  135OSM   H12G14622   0.506   0.689   3.331
  135OSM   C13F14623   0.387   0.630   3.498
  135OSM   H13F14624   0.429   0.527   3.492
  135OSM   H13G14625   0.283   0.610   3.530
  135OSM   C14F14626   0.469   0.726   3.584
  135OSM   H14F14627   0.539   0.784   3.521
  135OSM   H14G14628   0.518   0.677   3.671
  135OSM   C15F14629   0.372   0.834   3.627
  135OSM   H15F14630   0.290   0.775   3.672
  135OSM   H15G14631   0.331   0.878   3.533
  135OSM   C16F14632   0.421   0.952   3.711
  135OSM   H16F14633   0.494   1.016   3.658
  135OSM   H16G14634   0.471   0.906   3.799
  135OSM   C17F14635   0.312   1.051   3.746
  135OSM   H17F14636   0.211   1.013   3.773
  135OSM   H17G14637   0.289   1.101   3.649
  135OSM   C18F14638   0.346   1.157   3.849
  135OSM   H18F14639   0.262   1.220   3.886
  135OSM   H18G14640   0.426   1.228   3.818
  135OSM   H18H14641   0.380   1.101   3.939
  136OSM      N14642   2.085   4.756   2.136
  136OSM    C1514643   2.000   4.736   2.015
  136OSM   H15A14644   2.008   4.818   1.945
  136OSM   H15B14645   1.893   4.724   2.030
  136OSM   H15C14646   2.040   4.648   1.967
  136OSM    C1414647   2.049   4.881   2.205
  136OSM   H14A14648   2.067   4.970   2.147
  136OSM   H14B14649   2.105   4.885   2.297
  136OSM   H14C14650   1.945   4.886   2.233
  136OSM    C1314651   2.060   4.634   2.223
  136OSM   H13A14652   2.115   4.548   2.189
  136OSM   H13B14653   1.956   4.614   2.239
  136OSM   H13C14654   2.084   4.652   2.327
  136OSM    C1214655   2.229   4.756   2.095
  136OSM   H12A14656   2.291   4.757   2.183
  136OSM   H12B14657   2.259   4.838   2.032
  136OSM    C1114658   2.276   4.630   2.015
  136OSM   H11A14659   2.378   4.650   1.976
  136OSM   H11B14660   2.226   4.628   1.916
  136OSM      P14661   2.374   4.394   2.060
  136OSM    O1314662   2.342   4.274   2.142
  136OSM    O1414663   2.391   4.369   1.912
  136OSM    O1114664   2.503   4.462   2.126
  136OSM    O1214665   2.264   4.503   2.083
  136OSM    C1S14666   2.482   4.529   2.250
  136OSM    H1S14667   2.390   4.590   2.260
  136OSM    H1T14668   2.563   4.605   2.244
  136OSM     NF14669   2.498   4.516   2.496
  136OSM    HNF14670   2.573   4.531   2.560
  136OSM    C2S14671   2.508   4.440   2.371
  136OSM    H2S14672   2.423   4.369   2.374
  136OSM    C3S14673   2.630   4.348   2.363
  136OSM    H3S14674   2.722   4.403   2.336
  136OSM     O314675   2.613   4.251   2.260
  136OSM    HO314676   2.549   4.290   2.200
  136OSM    C4S14677   2.639   4.261   2.491
  136OSM    H4S14678   2.540   4.233   2.529
  136OSM    C5S14679   2.739   4.256   2.581
  136OSM    H5S14680   2.831   4.315   2.572
  136OSM    C6S14681   2.722   4.191   2.709
  136OSM    H6S14682   2.734   4.263   2.793
  136OSM    H6T14683   2.795   4.108   2.718
  136OSM    C7S14684   2.585   4.119   2.744
  136OSM    H7S14685   2.578   4.023   2.688
  136OSM    H7T14686   2.493   4.179   2.729
  136OSM    C8S14687   2.579   4.068   2.891
  136OSM    H8S14688   2.494   3.997   2.887
  136OSM    H8T14689   2.550   4.159   2.948
  136OSM    C9S14690   2.701   3.991   2.936
  136OSM    H9S14691   2.775   4.071   2.957
  136OSM    H9T14692   2.748   3.928   2.857
  136OSM   C10S14693   2.686   3.913   3.070
  136OSM   H10S14694   2.693   3.805   3.046
  136OSM   H10T14695   2.592   3.940   3.123
  136OSM   C11S14696   2.805   3.940   3.166
  136OSM   H11S14697   2.814   4.048   3.189
  136OSM   H11T14698   2.895   3.905   3.111
  136OSM   C12S14699   2.790   3.876   3.310
  136OSM   H12S14700   2.786   3.766   3.293
  136OSM   H12T14701   2.697   3.919   3.354
  136OSM   C13S14702   2.913   3.905   3.400
  136OSM   H13S14703   2.919   4.014   3.420
  136OSM   H13T14704   3.014   3.872   3.368
  136OSM   C14S14705   2.885   3.833   3.533
  136OSM   H14S14706   2.878   3.723   3.518
  136OSM   H14T14707   2.786   3.860   3.575
  136OSM   C15S14708   2.999   3.855   3.625
  136OSM   H15S14709   2.963   3.875   3.728
  136OSM   H15T14710   3.052   3.952   3.612
  136OSM   C16S14711   3.095   3.737   3.642
  136OSM   H16S14712   3.142   3.711   3.544
  136OSM   H16T14713   3.029   3.656   3.678
  136OSM   C17S14714   3.198   3.767   3.753
  136OSM   H17S14715   3.137   3.816   3.832
  136OSM   H17T14716   3.272   3.836   3.707
  136OSM   C18S14717   3.266   3.639   3.810
  136OSM   H18S14718   3.287   3.573   3.723
  136OSM   H18T14719   3.198   3.584   3.878
  136OSM   H18U14720   3.363   3.665   3.859
  136OSM    C1F14721   2.385   4.573   2.537
  136OSM     OF14722   2.275   4.546   2.496
  136OSM    C2F14723   2.404   4.683   2.637
  136OSM    H2F14724   2.365   4.779   2.598
  136OSM    H2G14725   2.512   4.702   2.653
  136OSM    C3F14726   2.327   4.646   2.772
  136OSM    H3F14727   2.221   4.616   2.758
  136OSM    H3G14728   2.305   4.745   2.817
  136OSM    C4F14729   2.403   4.557   2.871
  136OSM    H4F14730   2.481   4.619   2.920
  136OSM    H4G14731   2.449   4.479   2.807
  136OSM    C5F14732   2.318   4.487   2.982
  136OSM    H5F14733   2.361   4.386   3.003
  136OSM    H5G14734   2.214   4.469   2.947
  136OSM    C6F14735   2.322   4.550   3.123
  136OSM    H6F14736   2.269   4.647   3.119
  136OSM    H6G14737   2.420   4.561   3.173
  136OSM    C7F14738   2.239   4.458   3.217
  136OSM    H7F14739   2.275   4.354   3.208
  136OSM    H7G14740   2.138   4.458   3.170
  136OSM    C8F14741   2.242   4.500   3.368
  136OSM    H8F14742   2.218   4.607   3.380
  136OSM    H8G14743   2.345   4.481   3.406
  136OSM    C9F14744   2.139   4.420   3.426
  136OSM    H9F14745   2.056   4.416   3.354
  136OSM   C10F14746   2.138   4.357   3.545
  136OSM   H10F14747   2.048   4.302   3.576
  136OSM   C11F14748   2.260   4.360   3.641
  136OSM   H11F14749   2.327   4.447   3.625
  136OSM   H11G14750   2.315   4.271   3.603
  136OSM   C12F14751   2.219   4.352   3.793
  136OSM   H12F14752   2.312   4.364   3.852
  136OSM   H12G14753   2.165   4.260   3.822
  136OSM   C13F14754   2.131   4.483   3.833
  136OSM   H13F14755   2.043   4.472   3.766
  136OSM   H13G14756   2.197   4.568   3.804
  136OSM   C14F14757   2.089   4.487   3.978
  136OSM   H14F14758   2.050   4.588   4.004
  136OSM   H14G14759   2.171   4.471   4.052
  136OSM   C15F14760   1.981   4.397   4.018
  136OSM   H15F14761   2.024   4.296   4.004
  136OSM   H15G14762   1.884   4.398   3.964
  136OSM   C16F14763   1.929   4.432   4.155
  136OSM   H16F14764   1.860   4.519   4.155
  136OSM   H16G14765   2.016   4.458   4.218
  136OSM   C17F14766   1.850   4.314   4.217
  136OSM   H17F14767   1.889   4.215   4.186
  136OSM   H17G14768   1.743   4.319   4.189
  136OSM   C18F14769   1.857   4.317   4.366
  136OSM   H18F14770   1.961   4.321   4.404
  136OSM   H18G14771   1.817   4.224   4.413
  136OSM   H18H14772   1.802   4.408   4.398
  137OSM      N14773   0.955   1.600   1.884
  137OSM    C1514774   0.865   1.669   1.785
  137OSM   H15A14775   0.780   1.714   1.834
  137OSM   H15B14776   0.832   1.603   1.706
  137OSM   H15C14777   0.926   1.739   1.730
  137OSM    C1414778   0.891   1.479   1.943
  137OSM   H14A14779   0.954   1.432   2.017
  137OSM   H14B14780   0.857   1.412   1.866
  137OSM   H14C14781   0.808   1.499   2.010
  137OSM    C1314782   1.084   1.559   1.820
  137OSM   H13A14783   1.133   1.651   1.791
  137OSM   H13B14784   1.078   1.498   1.731
  137OSM   H13C14785   1.150   1.507   1.888
  137OSM    C1214786   0.981   1.698   1.998
  137OSM   H12A14787   1.046   1.776   1.961
  137OSM   H12B14788   1.051   1.646   2.062
  137OSM    C1114789   0.862   1.770   2.068
  137OSM   H11A14790   0.899   1.816   2.162
  137OSM   H11B14791   0.782   1.698   2.094
  137OSM      P14792   0.875   2.013   1.957
  137OSM    O1314793   1.012   1.993   1.907
  137OSM    O1414794   0.782   2.097   1.884
  137OSM    O1114795   0.882   2.062   2.117
  137OSM    O1214796   0.805   1.869   1.975
  137OSM    C1S14797   0.764   2.052   2.192
  137OSM    H1S14798   0.698   1.967   2.169
  137OSM    H1T14799   0.701   2.142   2.173
  137OSM     NF14800   0.680   1.985   2.425
  137OSM    HNF14801   0.599   2.040   2.448
  137OSM    C2S14802   0.785   2.048   2.347
  137OSM    H2S14803   0.877   1.989   2.365
  137OSM    C3S14804   0.825   2.194   2.384
  137OSM    H3S14805   0.735   2.256   2.366
  137OSM     O314806   0.919   2.263   2.301
  137OSM    HO314807   0.935   2.206   2.226
  137OSM    C4S14808   0.859   2.214   2.529
  137OSM    H4S14809   0.772   2.246   2.589
  137OSM    C5S14810   0.980   2.193   2.594
  137OSM    H5S14811   1.062   2.158   2.529
  137OSM    C6S14812   1.006   2.221   2.743
  137OSM    H6S14813   0.985   2.324   2.779
  137OSM    H6T14814   1.114   2.210   2.769
  137OSM    C7S14815   0.937   2.120   2.845
  137OSM    H7S14816   0.923   2.033   2.777
  137OSM    H7T14817   0.843   2.159   2.890
  137OSM    C8S14818   1.034   2.073   2.960
  137OSM    H8S14819   1.134   2.054   2.916
  137OSM    H8T14820   0.998   1.973   2.993
  137OSM    C9S14821   1.050   2.168   3.079
  137OSM    H9S14822   0.955   2.175   3.135
  137OSM    H9T14823   1.067   2.270   3.038
  137OSM   C10S14824   1.168   2.129   3.174
  137OSM   H10S14825   1.256   2.135   3.105
  137OSM   H10T14826   1.155   2.022   3.202
  137OSM   C11S14827   1.184   2.227   3.291
  137OSM   H11S14828   1.152   2.331   3.271
  137OSM   H11T14829   1.294   2.226   3.306
  137OSM   C12S14830   1.123   2.190   3.426
  137OSM   H12S14831   1.135   2.080   3.435
  137OSM   H12T14832   1.017   2.222   3.421
  137OSM   C13S14833   1.192   2.250   3.549
  137OSM   H13S14834   1.209   2.360   3.541
  137OSM   H13T14835   1.290   2.202   3.570
  137OSM   C14S14836   1.121   2.211   3.678
  137OSM   H14S14837   1.094   2.103   3.677
  137OSM   H14T14838   1.022   2.261   3.683
  137OSM   C15S14839   1.206   2.250   3.795
  137OSM   H15S14840   1.233   2.357   3.787
  137OSM   H15T14841   1.296   2.191   3.767
  137OSM   C16S14842   1.172   2.206   3.942
  137OSM   H16S14843   1.269   2.223   3.993
  137OSM   H16T14844   1.147   2.098   3.944
  137OSM   C17S14845   1.057   2.279   4.003
  137OSM   H17S14846   1.038   2.246   4.107
  137OSM   H17T14847   0.976   2.246   3.934
  137OSM   C18S14848   1.066   2.427   3.991
  137OSM   H18S14849   1.061   2.448   3.882
  137OSM   H18T14850   1.157   2.471   4.038
  137OSM   H18U14851   0.981   2.487   4.032
  137OSM    C1F14852   0.660   1.851   2.420
  137OSM     OF14853   0.732   1.777   2.359
  137OSM    C2F14854   0.539   1.802   2.502
  137OSM    H2F14855   0.475   1.737   2.438
  137OSM    H2G14856   0.476   1.892   2.522
  137OSM    C3F14857   0.579   1.714   2.623
  137OSM    H3F14858   0.636   1.625   2.590
  137OSM    H3G14859   0.488   1.665   2.663
  137OSM    C4F14860   0.664   1.778   2.738
  137OSM    H4F14861   0.750   1.832   2.693
  137OSM    H4G14862   0.697   1.702   2.811
  137OSM    C5F14863   0.581   1.885   2.814
  137OSM    H5F14864   0.475   1.854   2.827
  137OSM    H5G14865   0.561   1.969   2.743
  137OSM    C6F14866   0.647   1.906   2.951
  137OSM    H6F14867   0.754   1.933   2.937
  137OSM    H6G14868   0.648   1.814   3.014
  137OSM    C7F14869   0.572   2.024   3.021
  137OSM    H7F14870   0.467   1.990   3.031
  137OSM    H7G14871   0.570   2.116   2.958
  137OSM    C8F14872   0.629   2.065   3.156
  137OSM    H8F14873   0.581   2.157   3.195
  137OSM    H8G14874   0.737   2.090   3.142
  137OSM    C9F14875   0.611   1.961   3.264
  137OSM    H9F14876   0.533   1.890   3.233
  137OSM   C10F14877   0.678   1.955   3.381
  137OSM   H10F14878   0.656   1.872   3.450
  137OSM   C11F14879   0.783   2.045   3.442
  137OSM   H11F14880   0.824   2.115   3.366
  137OSM   H11G14881   0.858   1.974   3.483
  137OSM   C12F14882   0.735   2.129   3.564
  137OSM   H12F14883   0.651   2.190   3.526
  137OSM   H12G14884   0.806   2.209   3.592
  137OSM   C13F14885   0.675   2.053   3.688
  137OSM   H13F14886   0.662   1.946   3.661
  137OSM   H13G14887   0.579   2.092   3.728
  137OSM   C14F14888   0.775   2.053   3.811
  137OSM   H14F14889   0.795   2.150   3.859
  137OSM   H14G14890   0.867   2.020   3.759
  137OSM   C15F14891   0.743   1.944   3.911
  137OSM   H15F14892   0.721   1.852   3.853
  137OSM   H15G14893   0.655   1.970   3.974
  137OSM   C16F14894   0.854   1.921   4.007
  137OSM   H16F14895   0.878   2.013   4.065
  137OSM   H16G14896   0.946   1.896   3.949
  137OSM   C17F14897   0.824   1.814   4.119
  137OSM   H17F14898   0.793   1.720   4.068
  137OSM   H17G14899   0.738   1.859   4.173
  137OSM   C18F14900   0.939   1.779   4.217
  137OSM   H18F14901   1.011   1.717   4.159
  137OSM   H18G14902   0.905   1.737   4.314
  137OSM   H18H14903   0.998   1.869   4.246
  138OSM      N14904   6.368   6.160   2.012
  138OSM    C1514905   6.394   6.280   1.938
  138OSM   H15A14906   6.328   6.357   1.974
  138OSM   H15B14907   6.360   6.266   1.836
  138OSM   H15C14908   6.497   6.313   1.945
  138OSM    C1414909   6.226   6.106   1.977
  138OSM   H14A14910   6.148   6.148   2.039
  138OSM   H14B14911   6.227   6.003   2.011
  138OSM   H14C14912   6.213   6.104   1.870
  138OSM    C1314913   6.466   6.055   1.967
  138OSM   H13A14914   6.444   6.027   1.865
  138OSM   H13B14915   6.458   5.966   2.028
  138OSM   H13C14916   6.568   6.088   1.982
  138OSM    C1214917   6.395   6.188   2.160
  138OSM   H12A14918   6.490   6.239   2.167
  138OSM   H12B14919   6.421   6.093   2.205
  138OSM    C1114920   6.279   6.269   2.231
  138OSM   H11A14921   6.256   6.362   2.175
  138OSM   H11B14922   6.304   6.307   2.333
  138OSM      P14923   6.144   6.092   2.362
  138OSM    O1314924   6.032   5.999   2.339
  138OSM    O1414925   6.283   6.029   2.388
  138OSM    O1114926   6.114   6.192   2.477
  138OSM    O1214927   6.154   6.196   2.239
  138OSM    C1S14928   5.988   6.270   2.477
  138OSM    H1S14929   5.900   6.213   2.441
  138OSM    H1T14930   5.995   6.370   2.429
  138OSM     NF14931   5.822   6.360   2.640
  138OSM    HNF14932   5.840   6.457   2.657
  138OSM    C2S14933   5.949   6.293   2.627
  138OSM    H2S14934   5.944   6.198   2.685
  138OSM    C3S14935   6.065   6.380   2.693
  138OSM    H3S14936   6.067   6.480   2.643
  138OSM     O314937   6.195   6.327   2.688
  138OSM    HO314938   6.173   6.255   2.629
  138OSM    C4S14939   6.024   6.402   2.838
  138OSM    H4S14940   5.971   6.499   2.842
  138OSM    C5S14941   6.049   6.321   2.944
  138OSM    H5S14942   6.124   6.240   2.939
  138OSM    C6S14943   6.006   6.364   3.087
  138OSM    H6S14944   6.044   6.306   3.174
  138OSM    H6T14945   5.900   6.334   3.099
  138OSM    C7S14946   6.013   6.513   3.109
  138OSM    H7S14947   5.935   6.559   3.045
  138OSM    H7T14948   6.110   6.547   3.068
  138OSM    C8S14949   5.982   6.555   3.252
  138OSM    H8S14950   5.980   6.666   3.252
  138OSM    H8T14951   6.065   6.510   3.311
  138OSM    C9S14952   5.839   6.525   3.310
  138OSM    H9S14953   5.817   6.417   3.307
  138OSM    H9T14954   5.768   6.574   3.240
  138OSM   C10S14955   5.815   6.570   3.450
  138OSM   H10S14956   5.716   6.543   3.491
  138OSM   H10T14957   5.828   6.680   3.441
  138OSM   C11S14958   5.921   6.515   3.549
  138OSM   H11S14959   6.020   6.557   3.518
  138OSM   H11T14960   5.928   6.405   3.542
  138OSM   C12S14961   5.883   6.557   3.695
  138OSM   H12S14962   5.775   6.547   3.718
  138OSM   H12T14963   5.901   6.666   3.701
  138OSM   C13S14964   5.965   6.477   3.797
  138OSM   H13S14965   6.067   6.497   3.759
  138OSM   H13T14966   5.958   6.366   3.792
  138OSM   C14S14967   5.958   6.528   3.940
  138OSM   H14S14968   5.964   6.638   3.923
  138OSM   H14T14969   6.041   6.494   4.005
  138OSM   C15S14970   5.825   6.489   4.009
  138OSM   H15S14971   5.827   6.378   4.004
  138OSM   H15T14972   5.745   6.537   3.948
  138OSM   C16S14973   5.825   6.524   4.159
  138OSM   H16S14974   5.847   6.633   4.166
  138OSM   H16T14975   5.905   6.472   4.216
  138OSM   C17S14976   5.690   6.502   4.226
  138OSM   H17S14977   5.663   6.394   4.226
  138OSM   H17T14978   5.615   6.561   4.171
  138OSM   C18S14979   5.686   6.555   4.368
  138OSM   H18S14980   5.585   6.581   4.408
  138OSM   H18T14981   5.753   6.643   4.372
  138OSM   H18U14982   5.721   6.483   4.445
  138OSM    C1F14983   5.714   6.287   2.638
  138OSM     OF14984   5.720   6.163   2.632
  138OSM    C2F14985   5.577   6.354   2.657
  138OSM    H2F14986   5.550   6.393   2.556
  138OSM    H2G14987   5.603   6.445   2.715
  138OSM    C3F14988   5.473   6.255   2.712
  138OSM    H3F14989   5.464   6.172   2.639
  138OSM    H3G14990   5.377   6.310   2.702
  138OSM    C4F14991   5.496   6.206   2.859
  138OSM    H4F14992   5.597   6.159   2.853
  138OSM    H4G14993   5.431   6.129   2.904
  138OSM    C5F14994   5.499   6.325   2.955
  138OSM    H5F14995   5.411   6.391   2.935
  138OSM    H5G14996   5.584   6.382   2.912
  138OSM    C6F14997   5.527   6.309   3.106
  138OSM    H6F14998   5.579   6.402   3.136
  138OSM    H6G14999   5.598   6.226   3.124
  138OSM    C7F15000   5.396   6.287   3.180
  138OSM    H7F15001   5.355   6.187   3.152
  138OSM    H7G15002   5.317   6.356   3.143
  138OSM    C8F15003   5.415   6.291   3.335
  138OSM    H8F15004   5.486   6.215   3.375
  138OSM    H8G15005   5.311   6.272   3.368
  138OSM    C9F15006   5.451   6.428   3.392
  138OSM    H9F15007   5.477   6.514   3.328
  138OSM   C10F15008   5.450   6.442   3.526
  138OSM   H10F15009   5.463   6.541   3.572
  138OSM   C11F15010   5.436   6.336   3.635
  138OSM   H11F15011   5.454   6.234   3.594
  138OSM   H11G15012   5.334   6.335   3.677
  138OSM   C12F15013   5.551   6.363   3.730
  138OSM   H12F15014   5.521   6.447   3.796
  138OSM   H12G15015   5.641   6.384   3.668
  138OSM   C13F15016   5.571   6.249   3.832
  138OSM   H13F15017   5.668   6.277   3.877
  138OSM   H13G15018   5.589   6.155   3.775
  138OSM   C14F15019   5.461   6.242   3.930
  138OSM   H14F15020   5.361   6.215   3.891
  138OSM   H14G15021   5.446   6.343   3.974
  138OSM   C15F15022   5.497   6.136   4.037
  138OSM   H15F15023   5.607   6.142   4.051
  138OSM   H15G15024   5.474   6.031   4.012
  138OSM   C16F15025   5.431   6.180   4.175
  138OSM   H16F15026   5.325   6.207   4.156
  138OSM   H16G15027   5.481   6.271   4.212
  138OSM   C17F15028   5.440   6.082   4.296
  138OSM   H17F15029   5.548   6.082   4.321
  138OSM   H17G15030   5.402   5.982   4.265
  138OSM   C18F15031   5.364   6.131   4.415
  138OSM   H18F15032   5.408   6.084   4.506
  138OSM   H18G15033   5.259   6.095   4.422
  138OSM   H18H15034   5.370   6.240   4.433
  139OSM      N15035   0.977   0.871   1.569
  139OSM    C1515036   1.104   0.852   1.484
  139OSM   H15A15037   1.184   0.919   1.514
  139OSM   H15B15038   1.091   0.868   1.378
  139OSM   H15C15039   1.125   0.746   1.494
  139OSM    C1415040   0.913   1.001   1.548
  139OSM   H14A15041   0.978   1.084   1.571
  139OSM   H14B15042   0.831   1.007   1.618
  139OSM   H14C15043   0.869   1.012   1.450
  139OSM    C1315044   0.886   0.762   1.524
  139OSM   H13A15045   0.928   0.666   1.551
  139OSM   H13B15046   0.867   0.782   1.420
  139OSM   H13C15047   0.793   0.762   1.579
  139OSM    C1215048   1.011   0.862   1.721
  139OSM   H12A15049   1.059   0.957   1.738
  139OSM   H12B15050   1.072   0.773   1.715
  139OSM    C1115051   0.895   0.852   1.829
  139OSM   H11A15052   0.938   0.860   1.931
  139OSM   H11B15053   0.859   0.747   1.827
  139OSM      P15054   0.795   1.095   1.872
  139OSM    O1315055   0.914   1.170   1.826
  139OSM    O1415056   0.663   1.153   1.844
  139OSM    O1115057   0.821   1.060   2.032
  139OSM    O1215058   0.791   0.951   1.797
  139OSM    C1S15059   0.805   1.164   2.129
  139OSM    H1S15060   0.697   1.185   2.146
  139OSM    H1T15061   0.850   1.263   2.105
  139OSM     NF15062   0.870   1.217   2.367
  139OSM    HNF15063   0.943   1.282   2.386
  139OSM    C2S15064   0.877   1.117   2.262
  139OSM    H2S15065   0.821   1.027   2.295
  139OSM    C3S15066   1.034   1.090   2.228
  139OSM    H3S15067   1.080   1.191   2.222
  139OSM     O315068   1.063   1.023   2.108
  139OSM    HO315069   0.990   1.027   2.046
  139OSM    C4S15070   1.104   1.019   2.344
  139OSM    H4S15071   1.080   0.912   2.353
  139OSM    C5S15072   1.187   1.077   2.434
  139OSM    H5S15073   1.214   1.183   2.429
  139OSM    C6S15074   1.238   0.995   2.542
  139OSM    H6S15075   1.347   1.007   2.560
  139OSM    H6T15076   1.213   0.889   2.517
  139OSM    C7S15077   1.162   1.009   2.676
  139OSM    H7S15078   1.192   0.930   2.749
  139OSM    H7T15079   1.051   1.010   2.672
  139OSM    C8S15080   1.204   1.138   2.733
  139OSM    H8S15081   1.131   1.158   2.814
  139OSM    H8T15082   1.189   1.227   2.668
  139OSM    C9S15083   1.343   1.135   2.793
  139OSM    H9S15084   1.420   1.096   2.723
  139OSM    H9T15085   1.347   1.062   2.876
  139OSM   C10S15086   1.382   1.266   2.855
  139OSM   H10S15087   1.360   1.341   2.776
  139OSM   H10T15088   1.492   1.272   2.867
  139OSM   C11S15089   1.306   1.289   2.982
  139OSM   H11S15090   1.208   1.239   2.995
  139OSM   H11T15091   1.285   1.398   2.985
  139OSM   C12S15092   1.392   1.256   3.105
  139OSM   H12S15093   1.491   1.307   3.099
  139OSM   H12T15094   1.407   1.146   3.113
  139OSM   C13S15095   1.318   1.295   3.237
  139OSM   H13S15096   1.222   1.239   3.238
  139OSM   H13T15097   1.297   1.404   3.234
  139OSM   C14S15098   1.397   1.257   3.365
  139OSM   H14S15099   1.502   1.293   3.364
  139OSM   H14T15100   1.411   1.147   3.365
  139OSM   C15S15101   1.339   1.295   3.499
  139OSM   H15S15102   1.280   1.205   3.528
  139OSM   H15T15103   1.276   1.386   3.490
  139OSM   C16S15104   1.431   1.319   3.624
  139OSM   H16S15105   1.504   1.235   3.623
  139OSM   H16T15106   1.369   1.319   3.716
  139OSM   C17S15107   1.523   1.443   3.620
  139OSM   H17S15108   1.467   1.539   3.610
  139OSM   H17T15109   1.585   1.420   3.531
  139OSM   C18S15110   1.613   1.449   3.746
  139OSM   H18S15111   1.557   1.504   3.825
  139OSM   H18T15112   1.721   1.467   3.725
  139OSM   H18U15113   1.607   1.349   3.794
  139OSM    C1F15114   0.762   1.237   2.435
  139OSM     OF15115   0.658   1.191   2.396
  139OSM    C2F15116   0.774   1.331   2.553
  139OSM    H2F15117   0.786   1.436   2.519
  139OSM    H2G15118   0.868   1.316   2.610
  139OSM    C3F15119   0.643   1.318   2.643
  139OSM    H3F15120   0.607   1.213   2.646
  139OSM    H3G15121   0.561   1.374   2.593
  139OSM    C4F15122   0.662   1.373   2.787
  139OSM    H4F15123   0.656   1.482   2.808
  139OSM    H4G15124   0.763   1.338   2.817
  139OSM    C5F15125   0.553   1.313   2.880
  139OSM    H5F15126   0.580   1.206   2.897
  139OSM    H5G15127   0.454   1.313   2.830
  139OSM    C6F15128   0.543   1.376   3.018
  139OSM    H6F15129   0.648   1.386   3.053
  139OSM    H6G15130   0.493   1.316   3.098
  139OSM    C7F15131   0.485   1.515   3.030
  139OSM    H7F15132   0.379   1.523   2.996
  139OSM    H7G15133   0.549   1.583   2.971
  139OSM    C8F15134   0.489   1.572   3.175
  139OSM    H8F15135   0.484   1.683   3.171
  139OSM    H8G15136   0.588   1.548   3.218
  139OSM    C9F15137   0.367   1.527   3.249
  139OSM    H9F15138   0.276   1.526   3.186
  139OSM   C10F15139   0.366   1.450   3.357
  139OSM   H10F15140   0.274   1.423   3.411
  139OSM   C11F15141   0.493   1.412   3.439
  139OSM   H11F15142   0.576   1.481   3.416
  139OSM   H11G15143   0.524   1.308   3.414
  139OSM   C12F15144   0.472   1.407   3.593
  139OSM   H12F15145   0.560   1.363   3.645
  139OSM   H12G15146   0.391   1.334   3.611
  139OSM   C13F15147   0.440   1.544   3.654
  139OSM   H13F15148   0.373   1.593   3.581
  139OSM   H13G15149   0.529   1.611   3.654
  139OSM   C14F15150   0.412   1.546   3.807
  139OSM   H14F15151   0.490   1.485   3.857
  139OSM   H14G15152   0.317   1.494   3.830
  139OSM   C15F15153   0.417   1.687   3.874
  139OSM   H15F15154   0.513   1.738   3.849
  139OSM   H15G15155   0.413   1.674   3.984
  139OSM   C16F15156   0.302   1.792   3.850
  139OSM   H16F15157   0.204   1.770   3.897
  139OSM   H16G15158   0.286   1.801   3.740
  139OSM   C17F15159   0.356   1.935   3.893
  139OSM   H17F15160   0.293   2.010   3.839
  139OSM   H17G15161   0.456   1.946   3.848
  139OSM   C18F15162   0.358   1.965   4.040
  139OSM   H18F15163   0.444   1.930   4.101
  139OSM   H18G15164   0.273   1.924   4.099
  139OSM   H18H15165   0.350   2.076   4.049
  140OSM      N15166   4.683   0.696   2.422
  140OSM    C1515167   4.785   0.807   2.409
  140OSM   H15A15168   4.818   0.836   2.508
  140OSM   H15B15169   4.752   0.897   2.360
  140OSM   H15C15170   4.874   0.771   2.360
  140OSM    C1415171   4.736   0.592   2.515
  140OSM   H14A15172   4.818   0.543   2.465
  140OSM   H14B15173   4.658   0.522   2.542
  140OSM   H14C15174   4.778   0.636   2.605
  140OSM    C1315175   4.566   0.756   2.500
  140OSM   H13A15176   4.613   0.802   2.586
  140OSM   H13B15177   4.501   0.675   2.532
  140OSM   H13C15178   4.517   0.835   2.446
  140OSM    C1215179   4.651   0.632   2.291
  140OSM   H12A15180   4.736   0.603   2.232
  140OSM   H12B15181   4.602   0.712   2.236
  140OSM    C1115182   4.560   0.507   2.292
  140OSM   H11A15183   4.510   0.476   2.197
  140OSM   H11B15184   4.470   0.546   2.344
  140OSM      P15185   4.700   0.274   2.322
  140OSM    O1315186   4.617   0.154   2.301
  140OSM    O1415187   4.779   0.320   2.208
  140OSM    O1115188   4.802   0.253   2.447
  140OSM    O1215189   4.598   0.383   2.367
  140OSM    C1S15190   4.807   0.128   2.518
  140OSM    H1S15191   4.887   0.065   2.475
  140OSM    H1T15192   4.716   0.067   2.499
  140OSM     NF15193   4.860   0.032   2.738
  140OSM    HNF15194   4.788   6.842   2.799
  140OSM    C2S15195   4.828   0.158   2.667
  140OSM    H2S15196   4.919   0.222   2.669
  140OSM    C3S15197   4.709   0.231   2.732
  140OSM    H3S15198   4.628   0.155   2.735
  140OSM     O315199   4.643   0.324   2.660
  140OSM    HO315200   4.687   0.335   2.575
  140OSM    C4S15201   4.746   0.265   2.878
  140OSM    H4S15202   4.749   0.182   2.951
  140OSM    C5S15203   4.762   0.383   2.932
  140OSM    H5S15204   4.741   0.467   2.863
  140OSM    C6S15205   4.813   0.404   3.073
  140OSM    H6S15206   4.732   0.439   3.140
  140OSM    H6T15207   4.887   0.487   3.073
  140OSM    C7S15208   4.897   0.283   3.126
  140OSM    H7S15209   4.977   0.264   3.051
  140OSM    H7T15210   4.834   0.191   3.135
  140OSM    C8S15211   4.949   0.320   3.267
  140OSM    H8S15212   5.004   0.416   3.264
  140OSM    H8T15213   5.017   0.236   3.294
  140OSM    C9S15214   4.837   0.328   3.369
  140OSM    H9S15215   4.770   0.247   3.333
  140OSM    H9T15216   4.792   0.429   3.356
  140OSM   C10S15217   4.890   0.297   3.507
  140OSM   H10S15218   4.966   0.375   3.525
  140OSM   H10T15219   4.933   0.195   3.519
  140OSM   C11S15220   4.784   0.294   3.620
  140OSM   H11S15221   4.687   0.246   3.593
  140OSM   H11T15222   4.775   0.399   3.655
  140OSM   C12S15223   4.841   0.231   3.753
  140OSM   H12S15224   4.950   0.251   3.757
  140OSM   H12T15225   4.830   0.122   3.733
  140OSM   C13S15226   4.774   0.254   3.883
  140OSM   H13S15227   4.666   0.229   3.889
  140OSM   H13T15228   4.788   0.359   3.916
  140OSM   C14S15229   4.836   0.158   3.987
  140OSM   H14S15230   4.947   0.163   3.987
  140OSM   H14T15231   4.812   0.054   3.956
  140OSM   C15S15232   4.772   0.161   4.118
  140OSM   H15S15233   4.662   0.174   4.108
  140OSM   H15T15234   4.799   0.258   4.165
  140OSM   C16S15235   4.821   0.050   4.209
  140OSM   H16S15236   4.775   0.070   4.308
  140OSM   H16T15237   4.929   0.057   4.231
  140OSM   C17S15238   4.781   6.753   4.165
  140OSM   H17S15239   4.852   6.716   4.087
  140OSM   H17T15240   4.676   6.758   4.129
  140OSM   C18S15241   4.784   6.653   4.278
  140OSM   H18S15242   4.887   6.640   4.319
  140OSM   H18T15243   4.747   6.550   4.258
  140OSM   H18U15244   4.723   6.701   4.357
  140OSM    C1F15245   4.961   6.794   2.715
  140OSM     OF15246   5.046   6.828   2.637
  140OSM    C2F15247   4.967   6.665   2.787
  140OSM    H2F15248   4.987   6.598   2.701
  140OSM    H2G15249   4.871   6.649   2.841
  140OSM    C3F15250   5.086   6.657   2.882
  140OSM    H3F15251   5.176   6.687   2.826
  140OSM    H3G15252   5.108   6.550   2.904
  140OSM    C4F15253   5.061   6.726   3.007
  140OSM    H4F15254   4.972   6.687   3.061
  140OSM    H4G15255   5.030   6.831   2.989
  140OSM    C5F15256   5.184   6.726   3.104
  140OSM    H5F15257   5.270   6.773   3.050
  140OSM    H5G15258   5.213   6.623   3.133
  140OSM    C6F15259   5.156   6.783   3.242
  140OSM    H6F15260   5.101   0.037   3.241
  140OSM    H6G15261   5.253   6.812   3.288
  140OSM    C7F15262   5.080   6.687   3.338
  140OSM    H7F15263   5.146   6.598   3.350
  140OSM    H7G15264   4.984   6.649   3.297
  140OSM    C8F15265   5.060   6.744   3.479
  140OSM    H8F15266   4.970   6.809   3.470
  140OSM    H8G15267   5.135   6.817   3.518
  140OSM    C9F15268   5.013   6.635   3.573
  140OSM    H9F15269   4.912   6.594   3.555
  140OSM   C10F15270   5.076   6.589   3.684
  140OSM   H10F15271   5.046   6.503   3.746
  140OSM   C11F15272   5.209   6.637   3.733
  140OSM   H11F15273   5.261   6.685   3.647
  140OSM   H11G15274   5.268   6.546   3.756
  140OSM   C12F15275   5.212   6.744   3.839
  140OSM   H12F15276   5.148   6.824   3.797
  140OSM   H12G15277   5.312   6.793   3.850
  140OSM   C13F15278   5.156   6.708   3.975
  140OSM   H13F15279   5.054   6.664   3.972
  140OSM   H13G15280   5.137   6.804   4.028
  140OSM   C14F15281   5.252   6.637   4.071
  140OSM   H14F15282   5.342   6.702   4.080
  140OSM   H14G15283   5.266   6.533   4.034
  140OSM   C15F15284   5.195   6.625   4.215
  140OSM   H15F15285   5.090   6.588   4.206
  140OSM   H15G15286   5.193   6.720   4.272
  140OSM   C16F15287   5.282   6.524   4.301
  140OSM   H16F15288   5.385   6.565   4.301
  140OSM   H16G15289   5.269   6.419   4.266
  140OSM   C17F15290   5.229   6.524   4.446
  140OSM   H17F15291   5.279   6.437   4.493
  140OSM   H17G15292   5.118   6.522   4.455
  140OSM   C18F15293   5.279   6.651   4.523
  140OSM   H18F15294   5.232   6.654   4.624
  140OSM   H18G15295   5.243   6.740   4.467
  140OSM   H18H15296   5.386   6.660   4.550
  141OSM      N15297   0.241   4.214   2.315
  141OSM    C1515298   0.212   4.298   2.436
  141OSM   H15A15299   0.262   4.391   2.412
  141OSM   H15B15300   0.253   4.261   2.529
  141OSM   H15C15301   0.106   4.317   2.443
  141OSM    C1415302   0.161   4.266   2.203
  141OSM   H14A15303   0.190   4.233   2.104
  141OSM   H14B15304   0.158   4.374   2.202
  141OSM   H14C15305   0.059   4.233   2.219
  141OSM    C1315306   0.386   4.232   2.291
  141OSM   H13A15307   0.408   4.334   2.263
  141OSM   H13B15308   0.420   4.175   2.206
  141OSM   H13C15309   0.446   4.208   2.377
  141OSM    C1215310   0.215   4.065   2.338
  141OSM   H12A15311   0.121   4.052   2.389
  141OSM   H12B15312   0.284   4.026   2.412
  141OSM    C1115313   0.229   3.977   2.220
  141OSM   H11A15314   0.156   4.009   2.143
  141OSM   H11B15315   0.209   3.873   2.252
  141OSM      P15316   0.468   3.880   2.200
  141OSM    O1315317   0.409   3.742   2.170
  141OSM    O1415318   0.593   3.917   2.140
  141OSM    O1115319   0.466   3.904   2.351
  141OSM    O1215320   0.357   3.987   2.160
  141OSM    C1S15321   0.486   3.793   2.437
  141OSM    H1S15322   0.558   3.718   2.397
  141OSM    H1T15323   0.390   3.746   2.468
  141OSM     NF15324   0.584   3.742   2.673
  141OSM    HNF15325   0.534   3.746   2.760
  141OSM    C2S15326   0.549   3.843   2.578
  141OSM    H2S15327   0.646   3.888   2.548
  141OSM    C3S15328   0.456   3.956   2.638
  141OSM    H3S15329   0.351   3.925   2.620
  141OSM     O315330   0.477   4.081   2.558
  141OSM    HO315331   0.480   4.046   2.469
  141OSM    C4S15332   0.475   3.978   2.786
  141OSM    H4S15333   0.437   3.900   2.853
  141OSM    C5S15334   0.560   4.071   2.840
  141OSM    H5S15335   0.617   4.139   2.775
  141OSM    C6S15336   0.583   4.103   2.984
  141OSM    H6S15337   0.533   4.199   3.010
  141OSM    H6T15338   0.688   4.131   3.006
  141OSM    C7S15339   0.526   3.998   3.080
  141OSM    H7S15340   0.583   4.011   3.175
  141OSM    H7T15341   0.538   3.892   3.048
  141OSM    C8S15342   0.376   4.013   3.106
  141OSM    H8S15343   0.307   3.999   3.020
  141OSM    H8T15344   0.359   4.116   3.142
  141OSM    C9S15345   0.333   3.918   3.228
  141OSM    H9S15346   0.382   3.943   3.324
  141OSM    H9T15347   0.355   3.815   3.194
  141OSM   C10S15348   0.177   3.921   3.233
  141OSM   H10S15349   0.135   3.883   3.137
  141OSM   H10T15350   0.143   4.026   3.244
  141OSM   C11S15351   0.111   3.840   3.345
  141OSM   H11S15352   0.159   3.740   3.341
  141OSM   H11T15353   0.005   3.816   3.321
  141OSM   C12S15354   0.121   3.902   3.484
  141OSM   H12S15355   0.122   4.014   3.482
  141OSM   H12T15356   0.224   3.875   3.515
  141OSM   C13S15357   0.029   3.845   3.591
  141OSM   H13S15358   0.055   3.739   3.611
  141OSM   H13T15359   6.767   3.863   3.561
  141OSM   C14S15360   0.039   3.931   3.724
  141OSM   H14S15361   0.007   4.033   3.693
  141OSM   H14T15362   0.144   3.927   3.758
  141OSM   C15S15363   6.791   3.881   3.836
  141OSM   H15S15364   6.836   3.787   3.874
  141OSM   H15T15365   6.687   3.868   3.799
  141OSM   C16S15366   6.786   3.975   3.959
  141OSM   H16S15367   6.748   4.074   3.926
  141OSM   H16T15368   0.041   4.000   4.006
  141OSM   C17S15369   6.687   3.927   4.066
  141OSM   H17S15370   6.723   3.847   4.134
  141OSM   H17T15371   6.600   3.871   4.024
  141OSM   C18S15372   6.640   4.037   4.162
  141OSM   H18S15373   6.607   4.128   4.108
  141OSM   H18T15374   6.721   4.071   4.230
  141OSM   H18U15375   6.562   4.003   4.232
  141OSM    C1F15376   0.679   3.656   2.648
  141OSM     OF15377   0.747   3.662   2.546
  141OSM    C2F15378   0.692   3.541   2.748
  141OSM    H2F15379   0.651   3.462   2.682
  141OSM    H2G15380   0.619   3.551   2.831
  141OSM    C3F15381   0.831   3.505   2.797
  141OSM    H3F15382   0.910   3.494   2.720
  141OSM    H3G15383   0.843   3.414   2.859
  141OSM    C4F15384   0.889   3.615   2.883
  141OSM    H4F15385   0.879   3.711   2.828
  141OSM    H4G15386   0.993   3.609   2.924
  141OSM    C5F15387   0.800   3.637   3.007
  141OSM    H5F15388   0.773   3.542   3.058
  141OSM    H5G15389   0.709   3.699   2.989
  141OSM    C6F15390   0.881   3.722   3.105
  141OSM    H6F15391   0.917   3.810   3.047
  141OSM    H6G15392   0.971   3.672   3.145
  141OSM    C7F15393   0.802   3.753   3.226
  141OSM    H7F15394   0.789   3.653   3.272
  141OSM    H7G15395   0.705   3.805   3.210
  141OSM    C8F15396   0.885   3.844   3.323
  141OSM    H8F15397   0.874   3.949   3.289
  141OSM    H8G15398   0.994   3.824   3.323
  141OSM    C9F15399   0.815   3.826   3.459
  141OSM    H9F15400   0.712   3.862   3.466
  141OSM   C10F15401   0.864   3.754   3.566
  141OSM   H10F15402   0.800   3.727   3.652
  141OSM   C11F15403   1.003   3.687   3.573
  141OSM   H11F15404   1.056   3.704   3.476
  141OSM   H11G15405   0.985   3.577   3.583
  141OSM   C12F15406   1.099   3.734   3.694
  141OSM   H12F15407   1.112   3.844   3.688
  141OSM   H12G15408   1.198   3.685   3.685
  141OSM   C13F15409   1.043   3.684   3.837
  141OSM   H13F15410   1.001   3.582   3.826
  141OSM   H13G15411   0.964   3.760   3.857
  141OSM   C14F15412   1.150   3.711   3.946
  141OSM   H14F15413   1.210   3.787   3.892
  141OSM   H14G15414   1.221   3.629   3.967
  141OSM   C15F15415   1.088   3.765   4.073
  141OSM   H15F15416   1.006   3.698   4.109
  141OSM   H15G15417   1.056   3.869   4.051
  141OSM   C16F15418   1.184   3.778   4.182
  141OSM   H16F15419   1.132   3.809   4.275
  141OSM   H16G15420   1.273   3.841   4.159
  141OSM   C17F15421   1.242   3.640   4.231
  141OSM   H17F15422   1.294   3.597   4.142
  141OSM   H17G15423   1.154   3.574   4.245
  141OSM   C18F15424   1.335   3.643   4.349
  141OSM   H18F15425   1.379   3.550   4.390
  141OSM   H18G15426   1.292   3.695   4.437
  141OSM   H18H15427   1.422   3.710   4.334
  142OSM      N15428   1.608   5.885   2.363
  142OSM    C1515429   1.581   5.963   2.241
  142OSM   H15A15430   1.569   5.899   2.154
  142OSM   H15B15431   1.669   6.026   2.235
  142OSM   H15C15432   1.493   6.021   2.261
  142OSM    C1415433   1.732   5.787   2.334
  142OSM   H14A15434   1.804   5.830   2.267
  142OSM   H14B15435   1.693   5.702   2.280
  142OSM   H14C15436   1.786   5.749   2.420
  142OSM    C1315437   1.640   5.977   2.477
  142OSM   H13A15438   1.665   5.917   2.564
  142OSM   H13B15439   1.565   6.049   2.507
  142OSM   H13C15440   1.723   6.042   2.456
  142OSM    C1215441   1.484   5.811   2.415
  142OSM   H12A15442   1.418   5.886   2.456
  142OSM   H12B15443   1.526   5.755   2.498
  142OSM    C1115444   1.413   5.722   2.312
  142OSM   H11A15445   1.359   5.785   2.238
  142OSM   H11B15446   1.320   5.676   2.353
  142OSM      P15447   1.499   5.483   2.280
  142OSM    O1315448   1.383   5.409   2.215
  142OSM    O1415449   1.627   5.426   2.240
  142OSM    O1115450   1.489   5.471   2.441
  142OSM    O1215451   1.490   5.625   2.240
  142OSM    C1S15452   1.589   5.503   2.533
  142OSM    H1S15453   1.621   5.608   2.517
  142OSM    H1T15454   1.684   5.446   2.520
  142OSM     NF15455   1.608   5.565   2.772
  142OSM    HNF15456   1.677   5.517   2.826
  142OSM    C2S15457   1.534   5.476   2.680
  142OSM    H2S15458   1.435   5.525   2.686
  142OSM    C3S15459   1.530   5.328   2.700
  142OSM    H3S15460   1.632   5.284   2.702
  142OSM     O315461   1.465   5.248   2.597
  142OSM    HO315462   1.444   5.298   2.518
  142OSM    C4S15463   1.474   5.313   2.837
  142OSM    H4S15464   1.554   5.294   2.910
  142OSM    C5S15465   1.347   5.306   2.874
  142OSM    H5S15466   1.266   5.287   2.802
  142OSM    C6S15467   1.298   5.280   3.016
  142OSM    H6S15468   1.256   5.177   3.023
  142OSM    H6T15469   1.219   5.351   3.046
  142OSM    C7S15470   1.402   5.300   3.127
  142OSM    H7S15471   1.470   5.386   3.112
  142OSM    H7T15472   1.465   5.208   3.123
  142OSM    C8S15473   1.339   5.308   3.269
  142OSM    H8S15474   1.266   5.224   3.273
  142OSM    H8T15475   1.274   5.399   3.272
  142OSM    C9S15476   1.444   5.306   3.377
  142OSM    H9S15477   1.514   5.390   3.361
  142OSM    H9T15478   1.507   5.215   3.364
  142OSM   C10S15479   1.382   5.305   3.520
  142OSM   H10S15480   1.309   5.221   3.527
  142OSM   H10T15481   1.324   5.398   3.538
  142OSM   C11S15482   1.479   5.281   3.638
  142OSM   H11S15483   1.561   5.356   3.644
  142OSM   H11T15484   1.529   5.181   3.634
  142OSM   C12S15485   1.403   5.283   3.774
  142OSM   H12S15486   1.320   5.210   3.767
  142OSM   H12T15487   1.350   5.380   3.779
  142OSM   C13S15488   1.504   5.240   3.887
  142OSM   H13S15489   1.598   5.299   3.877
  142OSM   H13T15490   1.520   5.130   3.874
  142OSM   C14S15491   1.455   5.264   4.028
  142OSM   H14S15492   1.405   5.363   4.032
  142OSM   H14T15493   1.542   5.280   4.095
  142OSM   C15S15494   1.356   5.158   4.076
  142OSM   H15S15495   1.407   5.059   4.082
  142OSM   H15T15496   1.283   5.146   3.992
  142OSM   C16S15497   1.310   5.187   4.219
  142OSM   H16S15498   1.237   5.103   4.231
  142OSM   H16T15499   1.265   5.288   4.217
  142OSM   C17S15500   1.416   5.192   4.333
  142OSM   H17S15501   1.493   5.269   4.310
  142OSM   H17T15502   1.477   5.100   4.329
  142OSM   C18S15503   1.355   5.217   4.470
  142OSM   H18S15504   1.286   5.133   4.494
  142OSM   H18T15505   1.284   5.302   4.462
  142OSM   H18U15506   1.435   5.235   4.545
  142OSM    C1F15507   1.601   5.695   2.775
  142OSM     OF15508   1.529   5.760   2.702
  142OSM    C2F15509   1.673   5.750   2.894
  142OSM    H2F15510   1.654   5.859   2.893
  142OSM    H2G15511   1.782   5.732   2.883
  142OSM    C3F15512   1.625   5.676   3.029
  142OSM    H3F15513   1.669   5.576   3.012
  142OSM    H3G15514   1.514   5.677   3.023
  142OSM    C4F15515   1.666   5.728   3.167
  142OSM    H4F15516   1.618   5.827   3.181
  142OSM    H4G15517   1.776   5.726   3.182
  142OSM    C5F15518   1.607   5.645   3.277
  142OSM    H5F15519   1.646   5.541   3.278
  142OSM    H5G15520   1.496   5.647   3.273
  142OSM    C6F15521   1.642   5.705   3.417
  142OSM    H6F15522   1.603   5.808   3.431
  142OSM    H6G15523   1.753   5.712   3.416
  142OSM    C7F15524   1.587   5.617   3.523
  142OSM    H7F15525   1.620   5.511   3.515
  142OSM    H7G15526   1.479   5.593   3.513
  142OSM    C8F15527   1.597   5.667   3.668
  142OSM    H8F15528   1.539   5.605   3.740
  142OSM    H8G15529   1.562   5.772   3.678
  142OSM    C9F15530   1.737   5.676   3.728
  142OSM    H9F15531   1.816   5.680   3.652
  142OSM   C10F15532   1.778   5.683   3.856
  142OSM   H10F15533   1.887   5.692   3.861
  142OSM   C11F15534   1.703   5.684   3.987
  142OSM   H11F15535   1.750   5.758   4.055
  142OSM   H11G15536   1.723   5.590   4.041
  142OSM   C12F15537   1.553   5.709   3.983
  142OSM   H12F15538   1.496   5.630   3.929
  142OSM   H12G15539   1.537   5.806   3.931
  142OSM   C13F15540   1.498   5.738   4.125
  142OSM   H13F15541   1.398   5.783   4.110
  142OSM   H13G15542   1.570   5.813   4.164
  142OSM   C14F15543   1.504   5.607   4.212
  142OSM   H14F15544   1.611   5.576   4.216
  142OSM   H14G15545   1.444   5.525   4.166
  142OSM   C15F15546   1.450   5.620   4.350
  142OSM   H15F15547   1.466   5.523   4.401
  142OSM   H15G15548   1.340   5.627   4.334
  142OSM   C16F15549   1.524   5.728   4.433
  142OSM   H16F15550   1.524   5.832   4.392
  142OSM   H16G15551   1.629   5.691   4.431
  142OSM   C17F15552   1.472   5.727   4.580
  142OSM   H17F15553   1.452   5.627   4.623
  142OSM   H17G15554   1.369   5.769   4.572
  142OSM   C18F15555   1.550   5.820   4.682
  142OSM   H18F15556   1.635   5.766   4.730
  142OSM   H18G15557   1.475   5.856   4.755
  142OSM   H18H15558   1.600   5.904   4.630
  143OSM      N15559   1.088   4.295   2.007
  143OSM    C1515560   1.049   4.390   2.113
  143OSM   H15A15561   0.995   4.345   2.195
  143OSM   H15B15562   0.996   4.472   2.067
  143OSM   H15C15563   1.141   4.429   2.154
  143OSM    C1415564   1.166   4.189   2.060
  143OSM   H14A15565   1.185   4.115   1.983
  143OSM   H14B15566   1.115   4.143   2.144
  143OSM   H14C15567   1.261   4.218   2.102
  143OSM    C1315568   0.952   4.245   1.962
  143OSM   H13A15569   0.954   4.176   1.878
  143OSM   H13B15570   0.895   4.333   1.936
  143OSM   H13C15571   0.893   4.194   2.036
  143OSM    C1215572   1.170   4.361   1.898
  143OSM   H12A15573   1.105   4.437   1.857
  143OSM   H12B15574   1.195   4.283   1.828
  143OSM    C1115575   1.306   4.424   1.936
  143OSM   H11A15576   1.337   4.470   1.840
  143OSM   H11B15577   1.369   4.337   1.964
  143OSM      P15578   1.270   4.672   1.995
  143OSM    O1315579   1.386   4.719   1.915
  143OSM    O1415580   1.136   4.676   1.926
  143OSM    O1115581   1.262   4.745   2.135
  143OSM    O1215582   1.288   4.517   2.044
  143OSM    C1S15583   1.169   4.716   2.240
  143OSM    H1S15584   1.086   4.647   2.215
  143OSM    H1T15585   1.119   4.810   2.272
  143OSM     NF15586   1.164   4.628   2.477
  143OSM    HNF15587   1.185   4.688   2.554
  143OSM    C2S15588   1.250   4.641   2.358
  143OSM    H2S15589   1.261   4.537   2.321
  143OSM    C3S15590   1.397   4.693   2.374
  143OSM    H3S15591   1.392   4.804   2.375
  143OSM     O315592   1.489   4.650   2.265
  143OSM    HO315593   1.434   4.616   2.194
  143OSM    C4S15594   1.459   4.662   2.513
  143OSM    H4S15595   1.429   4.725   2.598
  143OSM    C5S15596   1.527   4.551   2.545
  143OSM    H5S15597   1.544   4.484   2.459
  143OSM    C6S15598   1.586   4.517   2.676
  143OSM    H6S15599   1.696   4.509   2.661
  143OSM    H6T15600   1.560   4.412   2.704
  143OSM    C7S15601   1.554   4.611   2.806
  143OSM    H7S15602   1.444   4.623   2.817
  143OSM    H7T15603   1.592   4.713   2.781
  143OSM    C8S15604   1.626   4.550   2.935
  143OSM    H8S15605   1.735   4.534   2.921
  143OSM    H8T15606   1.585   4.446   2.932
  143OSM    C9S15607   1.597   4.609   3.072
  143OSM    H9S15608   1.487   4.608   3.083
  143OSM    H9T15609   1.642   4.711   3.069
  143OSM   C10S15610   1.646   4.523   3.192
  143OSM   H10S15611   1.757   4.519   3.189
  143OSM   H10T15612   1.604   4.422   3.175
  143OSM   C11S15613   1.612   4.580   3.334
  143OSM   H11S15614   1.501   4.589   3.337
  143OSM   H11T15615   1.664   4.675   3.357
  143OSM   C12S15616   1.672   4.496   3.446
  143OSM   H12S15617   1.782   4.503   3.437
  143OSM   H12T15618   1.636   4.393   3.424
  143OSM   C13S15619   1.616   4.542   3.587
  143OSM   H13S15620   1.508   4.521   3.602
  143OSM   H13T15621   1.622   4.653   3.593
  143OSM   C14S15622   1.699   4.482   3.704
  143OSM   H14S15623   1.809   4.493   3.695
  143OSM   H14T15624   1.677   4.374   3.695
  143OSM   C15S15625   1.654   4.528   3.846
  143OSM   H15S15626   1.710   4.475   3.926
  143OSM   H15T15627   1.548   4.499   3.863
  143OSM   C16S15628   1.670   4.682   3.870
  143OSM   H16S15629   1.629   4.718   3.967
  143OSM   H16T15630   1.609   4.747   3.803
  143OSM   C17S15631   1.812   4.739   3.872
  143OSM   H17S15632   1.854   4.718   3.771
  143OSM   H17T15633   1.866   4.675   3.945
  143OSM   C18S15634   1.825   4.887   3.887
  143OSM   H18S15635   1.761   4.945   3.816
  143OSM   H18T15636   1.931   4.918   3.882
  143OSM   H18U15637   1.786   4.924   3.984
  143OSM    C1F15638   1.046   4.576   2.482
  143OSM     OF15639   1.002   4.508   2.389
  143OSM    C2F15640   0.957   4.604   2.593
  143OSM    H2F15641   0.884   4.685   2.572
  143OSM    H2G15642   1.030   4.630   2.674
  143OSM    C3F15643   0.873   4.489   2.635
  143OSM    H3F15644   0.933   4.404   2.674
  143OSM    H3G15645   0.827   4.451   2.541
  143OSM    C4F15646   0.766   4.514   2.743
  143OSM    H4F15647   0.690   4.433   2.747
  143OSM    H4G15648   0.712   4.606   2.712
  143OSM    C5F15649   0.828   4.536   2.888
  143OSM    H5F15650   0.868   4.639   2.898
  143OSM    H5G15651   0.906   4.457   2.888
  143OSM    C6F15652   0.714   4.513   2.996
  143OSM    H6F15653   0.687   4.406   2.988
  143OSM    H6G15654   0.623   4.574   2.978
  143OSM    C7F15655   0.767   4.527   3.139
  143OSM    H7F15656   0.678   4.526   3.205
  143OSM    H7G15657   0.817   4.625   3.152
  143OSM    C8F15658   0.870   4.413   3.175
  143OSM    H8F15659   0.962   4.422   3.113
  143OSM    H8G15660   0.815   4.321   3.144
  143OSM    C9F15661   0.897   4.423   3.321
  143OSM    H9F15662   0.967   4.503   3.350
  143OSM   C10F15663   0.837   4.344   3.417
  143OSM   H10F15664   0.851   4.365   3.525
  143OSM   C11F15665   0.725   4.240   3.389
  143OSM   H11F15666   0.768   4.138   3.375
  143OSM   H11G15667   0.673   4.277   3.298
  143OSM   C12F15668   0.601   4.243   3.494
  143OSM   H12F15669   0.512   4.199   3.444
  143OSM   H12G15670   0.554   4.340   3.522
  143OSM   C13F15671   0.622   4.147   3.619
  143OSM   H13F15672   0.699   4.200   3.678
  143OSM   H13G15673   0.658   4.046   3.592
  143OSM   C14F15674   0.489   4.130   3.699
  143OSM   H14F15675   0.411   4.090   3.630
  143OSM   H14G15676   0.435   4.219   3.738
  143OSM   C15F15677   0.511   4.035   3.815
  143OSM   H15F15678   0.562   3.941   3.783
  143OSM   H15G15679   0.410   4.005   3.851
  143OSM   C16F15680   0.598   4.088   3.926
  143OSM   H16F15681   0.553   4.187   3.951
  143OSM   H16G15682   0.707   4.106   3.907
  143OSM   C17F15683   0.607   3.998   4.046
  143OSM   H17F15684   0.650   3.902   4.011
  143OSM   H17G15685   0.510   3.959   4.083
  143OSM   C18F15686   0.688   4.052   4.172
  143OSM   H18F15687   0.676   3.989   4.262
  143OSM   H18G15688   0.661   4.159   4.184
  143OSM   H18H15689   0.798   4.040   4.158
  144OSM      N15690   0.690   5.423   1.833
  144OSM    C1515691   0.634   5.556   1.826
  144OSM   H15A15692   0.704   5.631   1.858
  144OSM   H15B15693   0.544   5.571   1.883
  144OSM   H15C15694   0.610   5.590   1.726
  144OSM    C1415695   0.568   5.334   1.810
  144OSM   H14A15696   0.480   5.363   1.866
  144OSM   H14B15697   0.594   5.234   1.840
  144OSM   H14C15698   0.542   5.331   1.706
  144OSM    C1315699   0.783   5.416   1.716
  144OSM   H13A15700   0.827   5.319   1.731
  144OSM   H13B15701   0.862   5.490   1.708
  144OSM   H13C15702   0.731   5.419   1.621
  144OSM    C1215703   0.756   5.402   1.970
  144OSM   H12A15704   0.682   5.441   2.038
  144OSM   H12B15705   0.840   5.471   1.968
  144OSM    C1115706   0.795   5.257   1.984
  144OSM   H11A15707   0.863   5.249   2.072
  144OSM   H11B15708   0.849   5.217   1.896
  144OSM      P15709   0.597   5.195   2.152
  144OSM    O1315710   0.460   5.235   2.132
  144OSM    O1415711   0.627   5.076   2.232
  144OSM    O1115712   0.672   5.318   2.219
  144OSM    O1215713   0.676   5.180   2.016
  144OSM    C1S15714   0.613   5.436   2.288
  144OSM    H1S15715   0.529   5.479   2.230
  144OSM    H1T15716   0.700   5.505   2.284
  144OSM     NF15717   0.523   5.539   2.488
  144OSM    HNF15718   0.581   5.609   2.528
  144OSM    C2S15719   0.579   5.414   2.435
  144OSM    H2S15720   0.494   5.344   2.452
  144OSM    C3S15721   0.707   5.352   2.507
  144OSM    H3S15722   0.787   5.424   2.481
  144OSM     O315723   0.755   5.227   2.458
  144OSM    HO315724   0.724   5.219   2.368
  144OSM    C4S15725   0.698   5.349   2.653
  144OSM    H4S15726   0.601   5.326   2.699
  144OSM    C5S15727   0.807   5.367   2.734
  144OSM    H5S15728   0.908   5.385   2.695
  144OSM    C6S15729   0.790   5.370   2.885
  144OSM    H6S15730   0.684   5.380   2.916
  144OSM    H6T15731   0.828   5.465   2.928
  144OSM    C7S15732   0.854   5.244   2.944
  144OSM    H7S15733   0.963   5.247   2.923
  144OSM    H7T15734   0.817   5.155   2.889
  144OSM    C8S15735   0.821   5.219   3.094
  144OSM    H8S15736   0.817   5.113   3.126
  144OSM    H8T15737   0.721   5.258   3.121
  144OSM    C9S15738   0.928   5.281   3.189
  144OSM    H9S15739   0.941   5.391   3.180
  144OSM    H9T15740   1.029   5.244   3.162
  144OSM   C10S15741   0.909   5.229   3.338
  144OSM   H10S15742   0.944   5.124   3.339
  144OSM   H10T15743   0.802   5.237   3.364
  144OSM   C11S15744   1.003   5.304   3.444
  144OSM   H11S15745   0.999   5.413   3.425
  144OSM   H11T15746   1.109   5.275   3.426
  144OSM   C12S15747   0.967   5.271   3.587
  144OSM   H12S15748   0.982   5.162   3.601
  144OSM   H12T15749   0.860   5.282   3.611
  144OSM   C13S15750   1.032   5.368   3.686
  144OSM   H13S15751   0.994   5.471   3.664
  144OSM   H13T15752   1.143   5.371   3.681
  144OSM   C14S15753   0.990   5.350   3.838
  144OSM   H14S15754   1.022   5.248   3.868
  144OSM   H14T15755   0.879   5.351   3.844
  144OSM   C15S15756   1.028   5.462   3.935
  144OSM   H15S15757   1.021   5.561   3.885
  144OSM   H15T15758   1.130   5.447   3.977
  144OSM   C16S15759   0.934   5.463   4.054
  144OSM   H16S15760   0.950   5.376   4.121
  144OSM   H16T15761   0.829   5.464   4.017
  144OSM   C17S15762   0.939   5.599   4.132
  144OSM   H17S15763   0.852   5.622   4.197
  144OSM   H17T15764   0.919   5.674   4.052
  144OSM   C18S15765   1.072   5.620   4.202
  144OSM   H18S15766   1.082   5.549   4.287
  144OSM   H18T15767   1.064   5.723   4.245
  144OSM   H18U15768   1.156   5.610   4.129
  144OSM    C1F15769   0.400   5.578   2.458
  144OSM     OF15770   0.326   5.503   2.389
  144OSM    C2F15771   0.353   5.721   2.491
  144OSM    H2F15772   0.279   5.757   2.416
  144OSM    H2G15773   0.443   5.784   2.505
  144OSM    C3F15774   0.264   5.726   2.619
  144OSM    H3F15775   0.316   5.680   2.706
  144OSM    H3G15776   0.164   5.681   2.603
  144OSM    C4F15777   0.254   5.873   2.659
  144OSM    H4F15778   0.216   5.926   2.569
  144OSM    H4G15779   0.354   5.909   2.690
  144OSM    C5F15780   0.159   5.912   2.777
  144OSM    H5F15781   0.070   5.846   2.781
  144OSM    H5G15782   0.118   6.013   2.756
  144OSM    C6F15783   0.228   5.882   2.910
  144OSM    H6F15784   0.315   5.951   2.905
  144OSM    H6G15785   0.270   5.780   2.911
  144OSM    C7F15786   0.136   5.909   3.028
  144OSM    H7F15787   0.054   5.836   3.039
  144OSM    H7G15788   0.085   6.004   3.004
  144OSM    C8F15789   0.215   5.913   3.164
  144OSM    H8F15790   0.310   5.971   3.170
  144OSM    H8G15791   0.259   5.811   3.166
  144OSM    C9F15792   0.131   5.942   3.290
  144OSM    H9F15793   0.029   5.977   3.267
  144OSM   C10F15794   0.162   5.947   3.422
  144OSM   H10F15795   0.088   5.968   3.500
  144OSM   C11F15796   0.305   5.917   3.467
  144OSM   H11F15797   0.368   5.908   3.377
  144OSM   H11G15798   0.313   5.827   3.532
  144OSM   C12F15799   0.352   6.047   3.534
  144OSM   H12F15800   0.354   6.129   3.459
  144OSM   H12G15801   0.458   6.027   3.558
  144OSM   C13F15802   0.286   6.085   3.670
  144OSM   H13F15803   0.183   6.122   3.651
  144OSM   H13G15804   0.325   6.176   3.721
  144OSM   C14F15805   0.293   5.972   3.769
  144OSM   H14F15806   0.396   5.932   3.759
  144OSM   H14G15807   0.222   5.891   3.742
  144OSM   C15F15808   0.276   6.006   3.916
  144OSM   H15F15809   0.357   6.078   3.940
  144OSM   H15G15810   0.272   5.911   3.974
  144OSM   C16F15811   0.148   6.078   3.956
  144OSM   H16F15812   0.071   6.012   4.004
  144OSM   H16G15813   0.102   6.131   3.870
  144OSM   C17F15814   0.173   6.189   4.065
  144OSM   H17F15815   0.071   6.230   4.080
  144OSM   H17G15816   0.238   6.259   4.010
  144OSM   C18F15817   0.233   6.167   4.205
  144OSM   H18F15818   0.232   6.261   4.265
  144OSM   H18G15819   0.334   6.124   4.189
  144OSM   H18H15820   0.175   6.088   4.256
  145SAPE     N15821   1.602   0.995   6.408
  145SAPE   HN115822   1.537   0.990   6.489
  145SAPE   HN215823   1.664   0.912   6.413
  145SAPE   HN315824   1.662   1.073   6.441
  145SAPE   C1215825   1.537   1.018   6.271
  145SAPE  H12A15826   1.621   1.055   6.208
  145SAPE  H12B15827   1.464   1.101   6.281
  145SAPE   C1115828   1.460   0.898   6.215
  145SAPE  H11A15829   1.511   0.802   6.236
  145SAPE  H11B15830   1.461   0.914   6.105
  145SAPE     P15831   1.231   0.778   6.212
  145SAPE   O1315832   1.307   0.661   6.166
  145SAPE   O1415833   1.127   0.765   6.318
  145SAPE   O1215834   1.326   0.899   6.260
  145SAPE   O1115835   1.157   0.848   6.087
  145SAPE    C115836   1.099   0.983   6.098
  145SAPE    HA15837   1.038   0.983   6.191
  145SAPE    HB15838   1.179   1.060   6.101
  145SAPE    C215839   1.010   1.019   5.980
  145SAPE    HS15840   0.978   1.125   5.987
  145SAPE   O2115841   0.895   0.939   5.988
  145SAPE   C2115842   0.783   0.995   5.936
  145SAPE   O2215843   0.770   1.097   5.869
  145SAPE   C2215844   0.668   0.912   5.997
  145SAPE   H2R15845   0.698   0.805   5.991
  145SAPE   H2S15846   0.656   0.945   6.102
  145SAPE    C315847   1.088   1.001   5.845
  145SAPE    HX15848   1.098   0.893   5.821
  145SAPE    HY15849   1.193   1.039   5.848
  145SAPE   O3115850   1.014   1.064   5.740
  145SAPE   C3115851   1.046   1.190   5.721
  145SAPE   O3215852   1.115   1.253   5.797
  145SAPE   C3215853   0.982   1.250   5.591
  145SAPE   H2X15854   0.874   1.260   5.617
  145SAPE   H2Y15855   0.983   1.173   5.510
  145SAPE   C2315856   0.533   0.929   5.920
  145SAPE   H3R15857   0.519   1.037   5.899
  145SAPE   H3S15858   0.444   0.893   5.977
  145SAPE   C2415859   0.531   0.853   5.783
  145SAPE   H4R15860   0.431   0.815   5.753
  145SAPE   H4S15861   0.585   0.756   5.792
  145SAPE   C2515862   0.574   0.934   5.662
  145SAPE   H5R15863   0.682   0.953   5.668
  145SAPE   C2615864   0.497   0.970   5.553
  145SAPE   H6R15865   0.531   1.023   5.463
  145SAPE   C2715866   0.343   0.947   5.556
  145SAPE   H7R15867   0.291   1.034   5.509
  145SAPE   H7S15868   0.303   0.951   5.659
  145SAPE   C2815869   0.318   0.817   5.491
  145SAPE   H8R15870   0.299   0.730   5.556
  145SAPE   C2915871   0.312   0.785   5.360
  145SAPE   H9R15872   0.284   0.682   5.334
  145SAPE  C21015873   0.330   0.891   5.254
  145SAPE  H10R15874   0.310   0.992   5.295
  145SAPE  H10S15875   0.254   0.868   5.176
  145SAPE  C21115876   0.474   0.901   5.202
  145SAPE  H11R15877   0.558   0.900   5.273
  145SAPE  C21215878   0.519   0.919   5.078
  145SAPE  H12R15879   0.625   0.942   5.059
  145SAPE  C21315880   0.431   0.921   4.957
  145SAPE  H13R15881   0.414   1.029   4.941
  145SAPE  H13S15882   0.325   0.901   4.985
  145SAPE  C21415883   0.481   0.846   4.836
  145SAPE  H14R15884   0.490   0.737   4.848
  145SAPE  C21515885   0.498   0.908   4.715
  145SAPE  H15R15886   0.546   0.845   4.638
  145SAPE  C21615887   0.483   1.061   4.696
  145SAPE  H16R15888   0.552   1.115   4.764
  145SAPE  H16S15889   0.380   1.098   4.716
  145SAPE  C21715890   0.516   1.110   4.554
  145SAPE  H17R15891   0.594   1.041   4.514
  145SAPE  H17S15892   0.553   1.214   4.555
  145SAPE  C21815893   0.395   1.104   4.458
  145SAPE  H18R15894   0.318   1.171   4.503
  145SAPE  H18S15895   0.355   1.001   4.457
  145SAPE  C21915896   0.427   1.155   4.322
  145SAPE  H19R15897   0.496   1.242   4.331
  145SAPE  H19S15898   0.342   1.181   4.255
  145SAPE  C22015899   0.496   1.045   4.243
  145SAPE  H20R15900   0.578   0.998   4.302
  145SAPE  H20S15901   0.541   1.077   4.147
  145SAPE  H20T15902   0.423   0.962   4.229
  145SAPE   C3315903   1.029   1.393   5.543
  145SAPE   H3X15904   1.136   1.391   5.516
  145SAPE   H3Y15905   1.015   1.467   5.626
  145SAPE   C3415906   0.932   1.446   5.439
  145SAPE   H4X15907   0.829   1.453   5.479
  145SAPE   H4Y15908   0.934   1.375   5.354
  145SAPE   C3515909   0.974   1.583   5.375
  145SAPE   H5X15910   1.081   1.586   5.404
  145SAPE   H5Y15911   0.936   1.672   5.428
  145SAPE   C3615912   0.951   1.593   5.223
  145SAPE   H6X15913   0.843   1.571   5.207
  145SAPE   H6Y15914   1.010   1.512   5.173
  145SAPE   C3715915   0.983   1.739   5.167
  145SAPE   H7X15916   1.093   1.756   5.167
  145SAPE   H7Y15917   0.936   1.811   5.237
  145SAPE   C3815918   0.932   1.769   5.026
  145SAPE   H8X15919   0.825   1.787   5.053
  145SAPE   H8Y15920   0.930   1.677   4.964
  145SAPE   C3915921   0.997   1.882   4.947
  145SAPE   H9X15922   1.108   1.881   4.935
  145SAPE   H9Y15923   0.980   1.985   4.985
  145SAPE  C31015924   0.943   1.886   4.803
  145SAPE  H10X15925   0.835   1.915   4.805
  145SAPE  H10Y15926   0.959   1.794   4.743
  145SAPE  C31115927   1.008   1.998   4.720
  145SAPE  H11X15928   1.114   1.967   4.716
  145SAPE  H11Y15929   1.008   2.097   4.771
  145SAPE  C31215930   0.946   2.023   4.579
  145SAPE  H12X15931   0.955   1.929   4.520
  145SAPE  H12Y15932   1.002   2.107   4.531
  145SAPE  C31315933   0.797   2.061   4.565
  145SAPE  H13X15934   0.774   2.134   4.646
  145SAPE  H13Y15935   0.737   1.972   4.592
  145SAPE  C31415936   0.764   2.117   4.432
  145SAPE  H14X15937   0.790   2.045   4.351
  145SAPE  H14Y15938   0.832   2.204   4.424
  145SAPE  C31515939   0.631   2.180   4.429
  145SAPE  H15X15940   0.622   2.254   4.347
  145SAPE  H15Y15941   0.615   2.236   4.524
  145SAPE  C31615942   0.520   2.084   4.420
  145SAPE  H16X15943   0.535   2.003   4.495
  145SAPE  H16Y15944   0.528   2.039   4.319
  145SAPE  C31715945   0.379   2.140   4.427
  145SAPE  H17X15946   0.354   2.218   4.352
  145SAPE  H17Y15947   0.360   2.190   4.524
  145SAPE  C31815948   0.275   2.029   4.400
  145SAPE  H18X15949   0.309   1.986   4.303
  145SAPE  H18Y15950   0.174   2.074   4.403
  145SAPE  H18Z15951   0.281   1.959   4.487
  146SAPE     N15952   4.080   0.008   6.841
  146SAPE   HN115953   3.986   6.815   6.817
  146SAPE   HN215954   4.132   0.047   6.759
  146SAPE   HN315955   4.129   6.772   6.887
  146SAPE   C1215956   4.053   0.121   6.938
  146SAPE  H12A15957   4.157   0.145   6.969
  146SAPE  H12B15958   4.006   0.068   7.024
  146SAPE   C1115959   3.979   0.247   6.885
  146SAPE  H11A15960   4.047   0.312   6.826
  146SAPE  H11B15961   3.941   0.301   6.974
  146SAPE     P15962   3.790   0.315   6.710
  146SAPE   O1315963   3.656   0.273   6.747
  146SAPE   O1415964   3.830   0.453   6.760
  146SAPE   O1215965   3.876   0.209   6.790
  146SAPE   O1115966   3.814   0.305   6.556
  146SAPE    C115967   3.939   0.334   6.504
  146SAPE    HA15968   3.962   0.442   6.508
  146SAPE    HB15969   4.029   0.303   6.562
  146SAPE    C215970   3.938   0.289   6.358
  146SAPE    HS15971   4.030   0.319   6.303
  146SAPE   O2115972   3.833   0.345   6.282
  146SAPE   C2115973   3.840   0.473   6.242
  146SAPE   O2215974   3.938   0.546   6.258
  146SAPE   C2215975   3.712   0.523   6.170
  146SAPE   H2R15976   3.686   0.444   6.097
  146SAPE   H2S15977   3.628   0.539   6.242
  146SAPE    C315978   3.933   0.133   6.335
  146SAPE    HX15979   3.847   0.100   6.399
  146SAPE    HY15980   4.028   0.088   6.369
  146SAPE   O3115981   3.904   0.100   6.197
  146SAPE   C3115982   3.907   6.809   6.167
  146SAPE   O3215983   3.915   6.721   6.250
  146SAPE   C3215984   3.874   6.792   6.017
  146SAPE   H2X15985   3.969   6.803   5.959
  146SAPE   H2Y15986   3.806   0.031   5.988
  146SAPE   C2315987   3.735   0.661   6.093
  146SAPE   H3R15988   3.824   0.666   6.027
  146SAPE   H3S15989   3.741   0.738   6.172
  146SAPE   C2415990   3.621   0.699   5.992
  146SAPE   H4R15991   3.623   0.810   5.979
  146SAPE   H4S15992   3.526   0.688   6.048
  146SAPE   C2515993   3.619   0.622   5.866
  146SAPE   H5R15994   3.656   0.520   5.877
  146SAPE   C2615995   3.576   0.654   5.744
  146SAPE   H6R15996   3.563   0.574   5.670
  146SAPE   C2715997   3.525   0.786   5.702
  146SAPE   H7R15998   3.559   0.865   5.773
  146SAPE   H7S15999   3.415   0.779   5.700
  146SAPE   C2816000   3.589   0.833   5.567
  146SAPE   H8R16001   3.666   0.912   5.577
  146SAPE   C2916002   3.562   0.807   5.441
  146SAPE   H9R16003   3.599   0.857   5.350
  146SAPE  C21016004   3.460   0.703   5.405
  146SAPE  H10R16005   3.406   0.741   5.316
  146SAPE  H10S16006   3.381   0.697   5.483
  146SAPE  C21116007   3.523   0.572   5.362
  146SAPE  H11R16008   3.570   0.513   5.442
  146SAPE  C21216009   3.542   0.526   5.237
  146SAPE  H12R16010   3.579   0.423   5.231
  146SAPE  C21316011   3.511   0.596   5.105
  146SAPE  H13R16012   3.601   0.640   5.056
  146SAPE  H13S16013   3.446   0.685   5.116
  146SAPE  C21416014   3.433   0.510   5.017
  146SAPE  H14R16015   3.426   0.401   5.033
  146SAPE  C21516016   3.356   0.552   4.919
  146SAPE  H15R16017   3.289   0.477   4.875
  146SAPE  C21616018   3.351   0.699   4.868
  146SAPE  H16R16019   3.447   0.750   4.891
  146SAPE  H16S16020   3.277   0.745   4.936
  146SAPE  C21716021   3.307   0.715   4.716
  146SAPE  H17R16022   3.198   0.694   4.708
  146SAPE  H17S16023   3.368   0.636   4.668
  146SAPE  C21816024   3.330   0.857   4.662
  146SAPE  H18R16025   3.436   0.889   4.653
  146SAPE  H18S16026   3.287   0.925   4.738
  146SAPE  C21916027   3.259   0.866   4.522
  146SAPE  H19R16028   3.154   0.829   4.527
  146SAPE  H19S16029   3.317   0.798   4.455
  146SAPE  C22016030   3.275   1.018   4.472
  146SAPE  H20R16031   3.376   1.064   4.479
  146SAPE  H20S16032   3.211   1.077   4.540
  146SAPE  H20T16033   3.247   1.025   4.364
  146SAPE   C3316034   3.820   6.650   5.993
  146SAPE   H3X16035   3.764   6.621   6.084
  146SAPE   H3Y16036   3.904   6.579   5.980
  146SAPE   C3416037   3.722   6.650   5.877
  146SAPE   H4X16038   3.633   6.706   5.914
  146SAPE   H4Y16039   3.697   6.541   5.876
  146SAPE   C3516040   3.766   6.703   5.743
  146SAPE   H5X16041   3.848   6.635   5.712
  146SAPE   H5Y16042   3.809   6.806   5.738
  146SAPE   C3616043   3.661   6.693   5.633
  146SAPE   H6X16044   3.573   6.758   5.656
  146SAPE   H6Y16045   3.615   6.592   5.642
  146SAPE   C3716046   3.723   6.712   5.489
  146SAPE   H7X16047   3.823   6.666   5.475
  146SAPE   H7Y16048   3.739   6.822   5.484
  146SAPE   C3816049   3.631   6.672   5.375
  146SAPE   H8X16050   3.538   6.730   5.388
  146SAPE   H8Y16051   3.599   6.567   5.391
  146SAPE   C3916052   3.702   6.689   5.239
  146SAPE   H9X16053   3.793   6.625   5.237
  146SAPE   H9Y16054   3.731   6.796   5.229
  146SAPE  C31016055   3.615   6.678   5.114
  146SAPE  H10X16056   3.522   6.738   5.127
  146SAPE  H10Y16057   3.583   6.573   5.097
  146SAPE  C31116058   3.692   6.735   4.993
  146SAPE  H11X16059   3.788   6.684   4.970
  146SAPE  H11Y16060   3.724   6.840   5.004
  146SAPE  C31216061   3.612   6.732   4.863
  146SAPE  H12X16062   3.507   6.753   4.892
  146SAPE  H12Y16063   3.602   6.625   4.835
  146SAPE  C31316064   3.669   6.819   4.753
  146SAPE  H13X16065   3.756   6.758   4.720
  146SAPE  H13Y16066   3.712   0.074   4.783
  146SAPE  C31416067   3.592   0.001   4.626
  146SAPE  H14X16068   3.666   0.039   4.552
  146SAPE  H14Y16069   3.513   0.076   4.645
  146SAPE  C31516070   3.535   6.721   4.567
  146SAPE  H15X16071   3.477   6.678   4.652
  146SAPE  H15Y16072   3.609   6.640   4.548
  146SAPE  C31616073   3.442   6.739   4.440
  146SAPE  H16X16074   3.413   0.002   4.455
  146SAPE  H16Y16075   3.356   6.669   4.430
  146SAPE  C31716076   3.517   6.720   4.309
  146SAPE  H17X16077   3.609   6.783   4.316
  146SAPE  H17Y16078   3.451   6.773   4.237
  146SAPE  C31816079   3.547   6.570   4.269
  146SAPE  H18X16080   3.600   6.548   4.173
  146SAPE  H18Y16081   3.453   6.511   4.259
  146SAPE  H18Z16082   3.613   6.518   4.341
  147SAPE     N16083   4.759   5.127   6.639
  147SAPE   HN116084   4.681   5.059   6.633
  147SAPE   HN216085   4.793   5.113   6.542
  147SAPE   HN316086   4.833   5.091   6.703
  147SAPE   C1216087   4.697   5.260   6.648
  147SAPE  H12A16088   4.658   5.274   6.751
  147SAPE  H12B16089   4.607   5.268   6.582
  147SAPE   C1116090   4.801   5.372   6.623
  147SAPE  H11A16091   4.738   5.463   6.633
  147SAPE  H11B16092   4.846   5.344   6.526
  147SAPE     P16093   4.998   5.478   6.719
  147SAPE   O1316094   4.951   5.597   6.795
  147SAPE   O1416095   5.129   5.429   6.761
  147SAPE   O1216096   4.892   5.364   6.728
  147SAPE   O1116097   5.005   5.515   6.567
  147SAPE    C116098   5.132   5.547   6.503
  147SAPE    HA16099   5.172   5.638   6.553
  147SAPE    HB16100   5.199   5.460   6.520
  147SAPE    C216101   5.130   5.550   6.352
  147SAPE    HS16102   5.232   5.575   6.315
  147SAPE   O2116103   5.033   5.649   6.311
  147SAPE   C2116104   5.069   5.773   6.331
  147SAPE   O2216105   5.164   5.811   6.394
  147SAPE   C2216106   4.973   5.868   6.260
  147SAPE   H2R16107   4.895   5.811   6.205
  147SAPE   H2S16108   4.921   5.930   6.337
  147SAPE    C316109   5.073   5.414   6.303
  147SAPE    HX16110   4.969   5.400   6.337
  147SAPE    HY16111   5.138   5.337   6.351
  147SAPE   O3116112   5.093   5.412   6.161
  147SAPE   C3116113   4.984   5.418   6.086
  147SAPE   O3216114   4.864   5.413   6.121
  147SAPE   C3216115   5.031   5.466   5.947
  147SAPE   H2X16116   5.118   5.400   5.927
  147SAPE   H2Y16117   5.068   5.570   5.955
  147SAPE   C2316118   5.048   5.955   6.161
  147SAPE   H3R16119   5.123   6.021   6.209
  147SAPE   H3S16120   4.983   6.032   6.114
  147SAPE   C2416121   5.119   5.866   6.050
  147SAPE   H4R16122   5.051   5.800   5.991
  147SAPE   H4S16123   5.175   5.789   6.107
  147SAPE   C2516124   5.194   5.962   5.965
  147SAPE   H5R16125   5.295   5.993   5.996
  147SAPE   C2616126   5.152   6.019   5.852
  147SAPE   H6R16127   5.229   6.077   5.800
  147SAPE   C2716128   5.033   5.994   5.776
  147SAPE   H7R16129   4.976   5.914   5.828
  147SAPE   H7S16130   5.050   5.968   5.669
  147SAPE   C2816131   4.933   6.107   5.762
  147SAPE   H8R16132   4.944   6.175   5.848
  147SAPE   C2916133   4.829   6.120   5.676
  147SAPE   H9R16134   4.779   6.218   5.672
  147SAPE  C21016135   4.799   6.034   5.565
  147SAPE  H10R16136   4.744   5.946   5.605
  147SAPE  H10S16137   4.886   6.002   5.505
  147SAPE  C21116138   4.710   6.102   5.460
  147SAPE  H11R16139   4.679   6.206   5.476
  147SAPE  C21216140   4.686   6.048   5.340
  147SAPE  H12R16141   4.644   6.108   5.258
  147SAPE  C21316142   4.733   5.919   5.278
  147SAPE  H13R16143   4.643   5.854   5.280
  147SAPE  H13S16144   4.809   5.864   5.337
  147SAPE  C21416145   4.791   5.943   5.142
  147SAPE  H14R16146   4.862   6.026   5.139
  147SAPE  C21516147   4.762   5.879   5.024
  147SAPE  H15R16148   4.824   5.907   4.937
  147SAPE  C21616149   4.667   5.763   5.010
  147SAPE  H16R16150   4.579   5.783   5.075
  147SAPE  H16S16151   4.702   5.677   5.070
  147SAPE  C21716152   4.620   5.740   4.867
  147SAPE  H17R16153   4.711   5.735   4.803
  147SAPE  H17S16154   4.565   5.831   4.835
  147SAPE  C21816155   4.535   5.618   4.845
  147SAPE  H18R16156   4.592   5.534   4.890
  147SAPE  H18S16157   4.517   5.593   4.738
  147SAPE  C21916158   4.391   5.627   4.911
  147SAPE  H19R16159   4.336   5.716   4.873
  147SAPE  H19S16160   4.404   5.626   5.022
  147SAPE  C22016161   4.319   5.501   4.856
  147SAPE  H20R16162   4.295   5.515   4.749
  147SAPE  H20S16163   4.221   5.485   4.905
  147SAPE  H20T16164   4.376   5.406   4.866
  147SAPE   C3316165   4.917   5.466   5.848
  147SAPE   H3X16166   4.825   5.514   5.890
  147SAPE   H3Y16167   4.893   5.359   5.830
  147SAPE   C3416168   4.956   5.538   5.722
  147SAPE   H4X16169   5.064   5.563   5.724
  147SAPE   H4Y16170   4.902   5.635   5.707
  147SAPE   C3516171   4.934   5.447   5.603
  147SAPE   H5X16172   4.870   5.360   5.629
  147SAPE   H5Y16173   5.034   5.411   5.571
  147SAPE   C3616174   4.879   5.511   5.476
  147SAPE   H6X16175   4.948   5.591   5.440
  147SAPE   H6Y16176   4.792   5.565   5.519
  147SAPE   C3716177   4.843   5.406   5.379
  147SAPE   H7X16178   4.749   5.355   5.412
  147SAPE   H7Y16179   4.927   5.333   5.379
  147SAPE   C3816180   4.833   5.467   5.242
  147SAPE   H8X16181   4.776   5.562   5.249
  147SAPE   H8Y16182   4.782   5.403   5.167
  147SAPE   C3916183   4.980   5.487   5.181
  147SAPE   H9X16184   5.032   5.389   5.181
  147SAPE   H9Y16185   5.037   5.549   5.254
  147SAPE  C31016186   4.985   5.545   5.034
  147SAPE  H10X16187   5.092   5.544   5.005
  147SAPE  H10Y16188   4.960   5.654   5.036
  147SAPE  C31116189   4.898   5.467   4.932
  147SAPE  H11X16190   4.792   5.494   4.953
  147SAPE  H11Y16191   4.918   5.359   4.942
  147SAPE  C31216192   4.932   5.529   4.794
  147SAPE  H12X16193   5.036   5.501   4.766
  147SAPE  H12Y16194   4.926   5.639   4.793
  147SAPE  C31316195   4.831   5.476   4.687
  147SAPE  H13X16196   4.729   5.506   4.719
  147SAPE  H13Y16197   4.851   5.367   4.685
  147SAPE  C31416198   4.854   5.544   4.554
  147SAPE  H14X16199   4.958   5.534   4.517
  147SAPE  H14Y16200   4.856   5.653   4.578
  147SAPE  C31516201   4.742   5.531   4.450
  147SAPE  H15X16202   4.723   5.423   4.430
  147SAPE  H15Y16203   4.788   5.574   4.359
  147SAPE  C31616204   4.604   5.596   4.462
  147SAPE  H16X16205   4.552   5.560   4.553
  147SAPE  H16Y16206   4.526   5.576   4.385
  147SAPE  C31716207   4.615   5.754   4.483
  147SAPE  H17X16208   4.679   5.788   4.399
  147SAPE  H17Y16209   4.683   5.777   4.568
  147SAPE  C31816210   4.487   5.826   4.492
  147SAPE  H18X16211   4.446   5.811   4.594
  147SAPE  H18Y16212   4.419   5.777   4.418
  147SAPE  H18Z16213   4.499   5.936   4.483
  148SAPE     N16214   1.362   0.394   6.170
  148SAPE   HN116215   1.364   0.498   6.166
  148SAPE   HN216216   1.314   0.358   6.085
  148SAPE   HN316217   1.315   0.364   6.257
  148SAPE   C1216218   1.498   0.332   6.177
  148SAPE  H12A16219   1.568   0.395   6.119
  148SAPE  H12B16220   1.496   0.229   6.137
  148SAPE   C1116221   1.535   0.331   6.330
  148SAPE  H11A16222   1.539   0.437   6.363
  148SAPE  H11B16223   1.640   0.294   6.326
  148SAPE     P16224   1.495   0.121   6.466
  148SAPE   O1316225   1.602   0.168   6.557
  148SAPE   O1416226   1.386   0.045   6.524
  148SAPE   O1216227   1.437   0.254   6.402
  148SAPE   O1116228   1.550   0.046   6.339
  148SAPE    C116229   1.461   6.831   6.242
  148SAPE    HA16230   1.416   6.742   6.289
  148SAPE    HB16231   1.382   0.056   6.204
  148SAPE    C216232   1.552   6.781   6.125
  148SAPE    HS16233   1.630   6.714   6.166
  148SAPE   O2116234   1.612   0.057   6.075
  148SAPE   C2116235   1.744   0.041   6.060
  148SAPE   O2216236   1.805   6.780   6.055
  148SAPE   C2216237   1.804   0.183   6.034
  148SAPE   H2R16238   1.726   0.257   6.063
  148SAPE   H2S16239   1.904   0.183   6.083
  148SAPE    C316240   1.479   6.705   6.020
  148SAPE    HX16241   1.374   6.740   6.006
  148SAPE    HY16242   1.470   6.605   6.067
  148SAPE   O3116243   1.549   6.686   5.895
  148SAPE   C3116244   1.517   6.780   5.811
  148SAPE   O3216245   1.440   0.033   5.833
  148SAPE   C3216246   1.603   6.763   5.688
  148SAPE   H2X16247   1.610   6.660   5.646
  148SAPE   H2Y16248   1.706   6.782   5.724
  148SAPE   C2316249   1.825   0.187   5.882
  148SAPE   H3R16250   1.737   0.156   5.821
  148SAPE   H3S16251   1.904   0.115   5.852
  148SAPE   C2416252   1.859   0.328   5.833
  148SAPE   H4R16253   1.797   0.401   5.888
  148SAPE   H4S16254   1.832   0.341   5.726
  148SAPE   C2516255   1.995   0.384   5.852
  148SAPE   H5R16256   2.019   0.396   5.958
  148SAPE   C2616257   2.083   0.437   5.760
  148SAPE   H6R16258   2.178   0.477   5.798
  148SAPE   C2716259   2.068   0.431   5.610
  148SAPE   H7R16260   1.998   0.357   5.565
  148SAPE   H7S16261   2.170   0.411   5.570
  148SAPE   C2816262   2.013   0.565   5.562
  148SAPE   H8R16263   2.082   0.644   5.595
  148SAPE   C2916264   1.895   0.588   5.499
  148SAPE   H9R16265   1.872   0.693   5.475
  148SAPE  C21016266   1.803   0.483   5.439
  148SAPE  H10R16267   1.751   0.418   5.512
  148SAPE  H10S16268   1.858   0.417   5.369
  148SAPE  C21116269   1.684   0.537   5.356
  148SAPE  H11R16270   1.589   0.534   5.411
  148SAPE  C21216271   1.683   0.596   5.234
  148SAPE  H12R16272   1.589   0.635   5.192
  148SAPE  C21316273   1.795   0.624   5.141
  148SAPE  H13R16274   1.893   0.624   5.193
  148SAPE  H13S16275   1.780   0.725   5.096
  148SAPE  C21416276   1.788   0.525   5.030
  148SAPE  H14R16277   1.866   0.451   5.052
  148SAPE  C21516278   1.733   0.531   4.904
  148SAPE  H15R16279   1.751   0.454   4.829
  148SAPE  C21616280   1.631   0.631   4.866
  148SAPE  H16R16281   1.592   0.693   4.949
  148SAPE  H16S16282   1.536   0.581   4.837
  148SAPE  C21716283   1.677   0.714   4.744
  148SAPE  H17R16284   1.708   0.648   4.660
  148SAPE  H17S16285   1.760   0.787   4.760
  148SAPE  C21816286   1.570   0.805   4.686
  148SAPE  H18R16287   1.562   0.903   4.738
  148SAPE  H18S16288   1.469   0.762   4.703
  148SAPE  C21916289   1.594   0.831   4.535
  148SAPE  H19R16290   1.586   0.729   4.492
  148SAPE  H19S16291   1.699   0.860   4.514
  148SAPE  C22016292   1.486   0.917   4.474
  148SAPE  H20R16293   1.513   0.944   4.370
  148SAPE  H20S16294   1.481   1.004   4.543
  148SAPE  H20T16295   1.399   0.848   4.483
  148SAPE   C3316296   1.570   0.013   5.572
  148SAPE   H3X16297   1.565   0.119   5.602
  148SAPE   H3Y16298   1.473   6.823   5.528
  148SAPE   C3416299   1.675   0.003   5.461
  148SAPE   H4X16300   1.659   6.748   5.411
  148SAPE   H4Y16301   1.781   0.012   5.495
  148SAPE   C3516302   1.645   0.108   5.356
  148SAPE   H5X16303   1.661   0.209   5.400
  148SAPE   H5Y16304   1.539   0.096   5.325
  148SAPE   C3616305   1.727   0.103   5.231
  148SAPE   H6X16306   1.752   6.841   5.208
  148SAPE   H6Y16307   1.828   0.149   5.236
  148SAPE   C3716308   1.656   0.157   5.102
  148SAPE   H7X16309   1.632   0.265   5.117
  148SAPE   H7Y16310   1.562   0.098   5.099
  148SAPE   C3816311   1.744   0.144   4.980
  148SAPE   H8X16312   1.795   0.045   4.979
  148SAPE   H8Y16313   1.820   0.225   4.985
  148SAPE   C3916314   1.666   0.162   4.850
  148SAPE   H9X16315   1.733   0.184   4.764
  148SAPE   H9Y16316   1.595   0.247   4.862
  148SAPE  C31016317   1.576   0.046   4.827
  148SAPE  H10X16318   1.484   0.044   4.890
  148SAPE  H10Y16319   1.628   6.796   4.859
  148SAPE  C31116320   1.527   0.044   4.683
  148SAPE  H11X16321   1.618   0.033   4.620
  148SAPE  H11Y16322   1.472   0.138   4.659
  148SAPE  C31216323   1.437   6.770   4.659
  148SAPE  H12X16324   1.354   6.778   4.732
  148SAPE  H12Y16325   1.492   6.675   4.677
  148SAPE  C31316326   1.381   6.769   4.522
  148SAPE  H13X16327   1.330   0.019   4.487
  148SAPE  H13Y16328   1.307   6.687   4.522
  148SAPE  C31416329   1.483   6.717   4.421
  148SAPE  H14X16330   1.516   6.617   4.458
  148SAPE  H14Y16331   1.575   6.780   4.419
  148SAPE  C31516332   1.438   6.704   4.272
  148SAPE  H15X16333   1.362   6.779   4.240
  148SAPE  H15Y16334   1.389   6.604   4.264
  148SAPE  C31616335   1.545   6.688   4.167
  148SAPE  H16X16336   1.495   6.687   4.068
  148SAPE  H16Y16337   1.606   6.595   4.169
  148SAPE  C31716338   1.650   6.802   4.173
  148SAPE  H17X16339   1.703   6.791   4.270
  148SAPE  H17Y16340   1.600   0.057   4.163
  148SAPE  C31816341   1.754   6.779   4.066
  148SAPE  H18X16342   1.834   0.011   4.085
  148SAPE  H18Y16343   1.714   6.805   3.966
  148SAPE  H18Z16344   1.790   6.674   4.053
  149SAPE     N16345   2.037   2.364   6.805
  149SAPE   HN116346   2.093   2.278   6.819
  149SAPE   HN216347   2.109   2.438   6.815
  149SAPE   HN316348   1.972   2.371   6.887
  149SAPE   C1216349   1.948   2.359   6.690
  149SAPE  H12A16350   2.012   2.371   6.600
  149SAPE  H12B16351   1.877   2.445   6.695
  149SAPE   C1116352   1.887   2.215   6.673
  149SAPE  H11A16353   1.966   2.142   6.648
  149SAPE  H11B16354   1.824   2.211   6.582
  149SAPE     P16355   1.767   2.024   6.813
  149SAPE   O1316356   1.884   1.959   6.872
  149SAPE   O1416357   1.642   2.029   6.895
  149SAPE   O1216358   1.802   2.177   6.782
  149SAPE   O1116359   1.726   1.958   6.671
  149SAPE    C116360   1.795   1.865   6.593
  149SAPE    HA16361   1.903   1.889   6.586
  149SAPE    HB16362   1.775   1.764   6.636
  149SAPE    C216363   1.731   1.863   6.456
  149SAPE    HS16364   1.626   1.831   6.471
  149SAPE   O2116365   1.792   1.758   6.382
  149SAPE   C2116366   1.752   1.631   6.404
  149SAPE   O2216367   1.663   1.596   6.479
  149SAPE   C2216368   1.826   1.542   6.305
  149SAPE   H2R16369   1.879   1.466   6.367
  149SAPE   H2S16370   1.749   1.488   6.246
  149SAPE    C316371   1.727   1.997   6.374
  149SAPE    HX16372   1.832   2.032   6.368
  149SAPE    HY16373   1.664   2.069   6.430
  149SAPE   O3116374   1.674   1.969   6.245
  149SAPE   C3116375   1.545   1.936   6.243
  149SAPE   O3216376   1.468   1.943   6.334
  149SAPE   C3216377   1.505   1.876   6.114
  149SAPE   H2X16378   1.424   1.800   6.121
  149SAPE   H2Y16379   1.578   1.804   6.071
  149SAPE   C2316380   1.927   1.612   6.214
  149SAPE   H3R16381   1.996   1.673   6.276
  149SAPE   H3S16382   1.871   1.670   6.138
  149SAPE   C2416383   2.015   1.518   6.137
  149SAPE   H4R16384   2.084   1.465   6.206
  149SAPE   H4S16385   2.084   1.573   6.070
  149SAPE   C2516386   1.938   1.409   6.062
  149SAPE   H5R16387   1.897   1.332   6.128
  149SAPE   C2616388   1.933   1.380   5.926
  149SAPE   H6R16389   1.862   1.306   5.885
  149SAPE   C2716390   1.988   1.471   5.814
  149SAPE   H7R16391   2.038   1.557   5.862
  149SAPE   H7S16392   1.895   1.524   5.783
  149SAPE   C2816393   2.078   1.410   5.707
  149SAPE   H8R16394   2.153   1.337   5.740
  149SAPE   C2916395   2.069   1.438   5.576
  149SAPE   H9R16396   2.154   1.413   5.511
  149SAPE  C21016397   1.964   1.525   5.503
  149SAPE  H10R16398   1.907   1.588   5.575
  149SAPE  H10S16399   1.882   1.460   5.465
  149SAPE  C21116400   2.019   1.616   5.397
  149SAPE  H11R16401   2.087   1.701   5.416
  149SAPE  C21216402   1.995   1.594   5.263
  149SAPE  H12R16403   2.042   1.669   5.197
  149SAPE  C21316404   1.911   1.484   5.205
  149SAPE  H13R16405   1.880   1.413   5.285
  149SAPE  H13S16406   1.974   1.423   5.137
  149SAPE  C21416407   1.787   1.527   5.131
  149SAPE  H14R16408   1.691   1.519   5.185
  149SAPE  C21516409   1.786   1.552   5.000
  149SAPE  H15R16410   1.694   1.590   4.952
  149SAPE  C21616411   1.896   1.569   4.899
  149SAPE  H16R16412   1.895   1.494   4.818
  149SAPE  H16S16413   1.994   1.559   4.950
  149SAPE  C21716414   1.919   1.706   4.825
  149SAPE  H17R16415   1.959   1.785   4.892
  149SAPE  H17S16416   1.831   1.736   4.764
  149SAPE  C21816417   2.021   1.688   4.710
  149SAPE  H18R16418   1.972   1.620   4.636
  149SAPE  H18S16419   2.118   1.648   4.747
  149SAPE  C21916420   2.043   1.815   4.611
  149SAPE  H19R16421   2.041   1.913   4.663
  149SAPE  H19S16422   1.957   1.811   4.540
  149SAPE  C22016423   2.159   1.805   4.523
  149SAPE  H20R16424   2.249   1.790   4.586
  149SAPE  H20S16425   2.178   1.886   4.449
  149SAPE  H20T16426   2.150   1.706   4.473
  149SAPE   C3316427   1.457   1.983   6.011
  149SAPE   H3X16428   1.531   2.063   5.988
  149SAPE   H3Y16429   1.365   2.029   6.051
  149SAPE   C3416430   1.399   1.928   5.884
  149SAPE   H4X16431   1.314   1.859   5.907
  149SAPE   H4Y16432   1.484   1.891   5.823
  149SAPE   C3516433   1.329   2.039   5.795
  149SAPE   H5X16434   1.400   2.119   5.766
  149SAPE   H5Y16435   1.251   2.096   5.850
  149SAPE   C3616436   1.289   1.991   5.652
  149SAPE   H6X16437   1.189   1.944   5.644
  149SAPE   H6Y16438   1.363   1.913   5.621
  149SAPE   C3716439   1.305   2.091   5.536
  149SAPE   H7X16440   1.409   2.130   5.528
  149SAPE   H7Y16441   1.246   2.182   5.559
  149SAPE   C3816442   1.254   2.051   5.399
  149SAPE   H8X16443   1.143   2.046   5.399
  149SAPE   H8Y16444   1.289   1.948   5.381
  149SAPE   C3916445   1.311   2.150   5.295
  149SAPE   H9X16446   1.421   2.160   5.301
  149SAPE   H9Y16447   1.259   2.246   5.313
  149SAPE  C31016448   1.286   2.108   5.156
  149SAPE  H10X16449   1.177   2.103   5.137
  149SAPE  H10Y16450   1.325   2.005   5.146
  149SAPE  C31116451   1.345   2.215   5.061
  149SAPE  H11X16452   1.449   2.248   5.079
  149SAPE  H11Y16453   1.279   2.301   5.083
  149SAPE  C31216454   1.314   2.187   4.914
  149SAPE  H12X16455   1.217   2.133   4.909
  149SAPE  H12Y16456   1.385   2.109   4.879
  149SAPE  C31316457   1.326   2.312   4.823
  149SAPE  H13X16458   1.427   2.358   4.816
  149SAPE  H13Y16459   1.270   2.399   4.864
  149SAPE  C31416460   1.276   2.291   4.676
  149SAPE  H14X16461   1.169   2.260   4.672
  149SAPE  H14Y16462   1.338   2.204   4.648
  149SAPE  C31516463   1.310   2.403   4.572
  149SAPE  H15X16464   1.418   2.427   4.581
  149SAPE  H15Y16465   1.259   2.498   4.597
  149SAPE  C31616466   1.285   2.346   4.434
  149SAPE  H16X16467   1.179   2.314   4.443
  149SAPE  H16Y16468   1.345   2.254   4.423
  149SAPE  C31716469   1.301   2.464   4.334
  149SAPE  H17X16470   1.260   2.433   4.235
  149SAPE  H17Y16471   1.411   2.467   4.321
  149SAPE  C31816472   1.256   2.608   4.371
  149SAPE  H18X16473   1.149   2.603   4.399
  149SAPE  H18Y16474   1.254   2.672   4.279
  149SAPE  H18Z16475   1.304   2.653   4.460
  150SAPE     N16476   4.556   2.968   6.544
  150SAPE   HN116477   4.638   3.008   6.594
  150SAPE   HN216478   4.467   3.014   6.574
  150SAPE   HN316479   4.553   2.868   6.574
  150SAPE   C1216480   4.573   2.975   6.400
  150SAPE  H12A16481   4.600   3.080   6.375
  150SAPE  H12B16482   4.475   2.948   6.354
  150SAPE   C1116483   4.680   2.870   6.352
  150SAPE  H11A16484   4.684   2.880   6.242
  150SAPE  H11B16485   4.639   2.769   6.373
  150SAPE     P16486   4.919   2.767   6.413
  150SAPE   O1316487   5.050   2.802   6.471
  150SAPE   O1416488   4.867   2.642   6.472
  150SAPE   O1216489   4.809   2.887   6.419
  150SAPE   O1116490   4.929   2.751   6.254
  150SAPE    C116491   4.919   2.630   6.183
  150SAPE    HA16492   4.839   2.563   6.220
  150SAPE    HB16493   4.888   2.658   6.080
  150SAPE    C216494   5.064   2.565   6.166
  150SAPE    HS16495   5.094   2.552   6.273
  150SAPE   O2116496   5.153   2.642   6.089
  150SAPE   C2116497   5.281   2.625   6.109
  150SAPE   O2216498   5.331   2.541   6.182
  150SAPE   C2216499   5.365   2.724   6.025
  150SAPE   H2R16500   5.315   2.822   6.041
  150SAPE   H2S16501   5.466   2.733   6.073
  150SAPE    C316502   5.053   2.423   6.108
  150SAPE    HX16503   4.981   2.352   6.155
  150SAPE    HY16504   5.148   2.370   6.130
  150SAPE   O3116505   5.017   2.415   5.969
  150SAPE   C3116506   4.891   2.417   5.939
  150SAPE   O3216507   4.794   2.417   6.009
  150SAPE   C3216508   4.876   2.416   5.781
  150SAPE   H2X16509   4.838   2.514   5.747
  150SAPE   H2Y16510   4.793   2.348   5.751
  150SAPE   C2316511   5.363   2.684   5.876
  150SAPE   H3R16512   5.392   2.768   5.810
  150SAPE   H3S16513   5.267   2.646   5.837
  150SAPE   C2416514   5.472   2.579   5.840
  150SAPE   H4R16515   5.513   2.520   5.925
  150SAPE   H4S16516   5.563   2.633   5.806
  150SAPE   C2516517   5.428   2.480   5.737
  150SAPE   H5R16518   5.388   2.384   5.775
  150SAPE   C2616519   5.421   2.493   5.607
  150SAPE   H6R16520   5.365   2.415   5.554
  150SAPE   C2716521   5.471   2.611   5.537
  150SAPE   H7R16522   5.440   2.701   5.594
  150SAPE   H7S16523   5.412   2.610   5.443
  150SAPE   C2816524   5.620   2.617   5.512
  150SAPE   H8R16525   5.691   2.573   5.584
  150SAPE   C2916526   5.674   2.693   5.415
  150SAPE   H9R16527   5.782   2.703   5.400
  150SAPE  C21016528   5.592   2.784   5.326
  150SAPE  H10R16529   5.575   2.882   5.376
  150SAPE  H10S16530   5.489   2.744   5.316
  150SAPE  C21116531   5.645   2.808   5.186
  150SAPE  H11R16532   5.718   2.891   5.184
  150SAPE  C21216533   5.615   2.742   5.072
  150SAPE  H12R16534   5.655   2.767   4.973
  150SAPE  C21316535   5.505   2.639   5.055
  150SAPE  H13R16536   5.486   2.633   4.946
  150SAPE  H13S16537   5.409   2.679   5.094
  150SAPE  C21416538   5.511   2.497   5.108
  150SAPE  H14R16539   5.453   2.485   5.201
  150SAPE  C21516540   5.588   2.395   5.060
  150SAPE  H15R16541   5.575   2.295   5.105
  150SAPE  C21616542   5.660   2.392   4.922
  150SAPE  H16R16543   5.763   2.353   4.937
  150SAPE  H16S16544   5.663   2.488   4.867
  150SAPE  C21716545   5.592   2.298   4.826
  150SAPE  H17R16546   5.483   2.316   4.813
  150SAPE  H17S16547   5.598   2.191   4.858
  150SAPE  C21816548   5.656   2.285   4.683
  150SAPE  H18R16549   5.755   2.235   4.689
  150SAPE  H18S16550   5.654   2.385   4.636
  150SAPE  C21916551   5.566   2.191   4.600
  150SAPE  H19R16552   5.461   2.220   4.625
  150SAPE  H19S16553   5.565   2.089   4.644
  150SAPE  C22016554   5.592   2.178   4.450
  150SAPE  H20R16555   5.504   2.163   4.383
  150SAPE  H20S16556   5.658   2.090   4.435
  150SAPE  H20T16557   5.663   2.256   4.416
  150SAPE   C3316558   5.004   2.386   5.694
  150SAPE   H3X16559   5.054   2.291   5.724
  150SAPE   H3Y16560   5.076   2.470   5.698
  150SAPE   C3416561   4.975   2.384   5.540
  150SAPE   H4X16562   4.910   2.467   5.504
  150SAPE   H4Y16563   4.911   2.296   5.521
  150SAPE   C3516564   5.101   2.399   5.454
  150SAPE   H5X16565   5.177   2.320   5.470
  150SAPE   H5Y16566   5.150   2.496   5.477
  150SAPE   C3616567   5.064   2.403   5.309
  150SAPE   H6X16568   4.984   2.479   5.291
  150SAPE   H6Y16569   5.012   2.308   5.284
  150SAPE   C3716570   5.176   2.434   5.215
  150SAPE   H7X16571   5.245   2.347   5.229
  150SAPE   H7Y16572   5.231   2.528   5.236
  150SAPE   C3816573   5.127   2.432   5.066
  150SAPE   H8X16574   5.049   2.353   5.064
  150SAPE   H8Y16575   5.215   2.385   5.016
  150SAPE   C3916576   5.083   2.556   4.998
  150SAPE   H9X16577   5.154   2.639   5.016
  150SAPE   H9Y16578   4.978   2.582   5.023
  150SAPE  C31016579   5.076   2.544   4.842
  150SAPE  H10X16580   5.026   2.450   4.810
  150SAPE  H10Y16581   5.181   2.537   4.805
  150SAPE  C31116582   5.024   2.670   4.783
  150SAPE  H11X16583   5.068   2.759   4.834
  150SAPE  H11Y16584   4.914   2.671   4.800
  150SAPE  C31216585   5.042   2.682   4.628
  150SAPE  H12X16586   4.968   2.624   4.569
  150SAPE  H12Y16587   5.142   2.644   4.598
  150SAPE  C31316588   5.029   2.833   4.598
  150SAPE  H13X16589   5.050   2.851   4.490
  150SAPE  H13Y16590   5.095   2.895   4.661
  150SAPE  C31416591   4.889   2.895   4.624
  150SAPE  H14X16592   4.896   3.006   4.617
  150SAPE  H14Y16593   4.859   2.868   4.728
  150SAPE  C31516594   4.784   2.840   4.528
  150SAPE  H15X16595   4.690   2.875   4.576
  150SAPE  H15Y16596   4.781   2.730   4.518
  150SAPE  C31616597   4.800   2.905   4.394
  150SAPE  H16X16598   4.897   2.887   4.343
  150SAPE  H16Y16599   4.799   3.015   4.409
  150SAPE  C31716600   4.676   2.872   4.303
  150SAPE  H17X16601   4.587   2.892   4.367
  150SAPE  H17Y16602   4.670   2.763   4.285
  150SAPE  C31816603   4.651   2.952   4.170
  150SAPE  H18X16604   4.718   2.912   4.090
  150SAPE  H18Y16605   4.666   3.062   4.175
  150SAPE  H18Z16606   4.545   2.926   4.152
  151SAPE     N16607   4.048   6.541   6.702
  151SAPE   HN116608   4.109   6.574   6.780
  151SAPE   HN216609   3.977   6.613   6.680
  151SAPE   HN316610   4.005   6.452   6.735
  151SAPE   C1216611   4.134   6.506   6.581
  151SAPE  H12A16612   4.074   6.450   6.506
  151SAPE  H12B16613   4.215   6.443   6.626
  151SAPE   C1116614   4.180   6.638   6.520
  151SAPE  H11A16615   4.099   6.699   6.474
  151SAPE  H11B16616   4.235   6.605   6.429
  151SAPE     P16617   4.317   0.008   6.580
  151SAPE   O1316618   4.232   0.113   6.644
  151SAPE   O1416619   4.457   0.001   6.625
  151SAPE   O1216620   4.253   6.709   6.616
  151SAPE   O1116621   4.303   0.020   6.426
  151SAPE    C116622   4.419   0.002   6.345
  151SAPE    HA16623   4.474   0.096   6.366
  151SAPE    HB16624   4.478   6.756   6.374
  151SAPE    C216625   4.388   6.841   6.196
  151SAPE    HS16626   4.485   6.843   6.141
  151SAPE   O2116627   4.298   0.110   6.169
  151SAPE   C2116628   4.320   0.164   6.043
  151SAPE   O2216629   4.402   0.123   5.961
  151SAPE   C2216630   4.232   0.283   6.024
  151SAPE   H2R16631   4.194   0.323   6.120
  151SAPE   H2S16632   4.283   0.361   5.963
  151SAPE    C316633   4.311   6.713   6.156
  151SAPE    HX16634   4.205   6.736   6.180
  151SAPE    HY16635   4.336   6.625   6.219
  151SAPE   O3116636   4.319   6.679   6.009
  151SAPE   C3116637   4.418   6.595   5.967
  151SAPE   O3216638   4.495   6.535   6.048
  151SAPE   C3216639   4.419   6.577   5.817
  151SAPE   H2X16640   4.475   6.662   5.772
  151SAPE   H2Y16641   4.318   6.569   5.773
  151SAPE   C2316642   4.098   0.249   5.948
  151SAPE   H3R16643   4.054   0.169   6.011
  151SAPE   H3S16644   4.129   0.211   5.849
  151SAPE   C2416645   3.998   0.362   5.926
  151SAPE   H4R16646   4.038   0.450   5.871
  151SAPE   H4S16647   3.985   0.401   6.029
  151SAPE   C2516648   3.860   0.318   5.868
  151SAPE   H5R16649   3.805   0.249   5.934
  151SAPE   C2616650   3.814   0.346   5.748
  151SAPE   H6R16651   3.714   0.311   5.718
  151SAPE   C2716652   3.878   0.430   5.637
  151SAPE   H7R16653   3.985   0.454   5.656
  151SAPE   H7S16654   3.833   0.531   5.645
  151SAPE   C2816655   3.856   0.368   5.499
  151SAPE   H8R16656   3.781   0.428   5.446
  151SAPE   C2916657   3.900   0.247   5.447
  151SAPE   H9R16658   3.881   0.219   5.343
  151SAPE  C21016659   3.983   0.154   5.532
  151SAPE  H10R16660   3.940   0.090   5.612
  151SAPE  H10S16661   4.052   0.216   5.594
  151SAPE  C21116662   4.059   0.057   5.443
  151SAPE  H11R16663   4.012   6.801   5.433
  151SAPE  C21216664   4.180   0.070   5.391
  151SAPE  H12R16665   4.222   6.835   5.325
  151SAPE  C21316666   4.270   0.189   5.399
  151SAPE  H13R16667   4.370   0.152   5.432
  151SAPE  H13S16668   4.234   0.275   5.460
  151SAPE  C21416669   4.289   0.258   5.265
  151SAPE  H14R16670   4.205   0.246   5.195
  151SAPE  C21516671   4.406   0.326   5.232
  151SAPE  H15R16672   4.411   0.355   5.126
  151SAPE  C21616673   4.534   0.348   5.309
  151SAPE  H16R16674   4.538   0.288   5.402
  151SAPE  H16S16675   4.535   0.455   5.339
  151SAPE  C21716676   4.656   0.329   5.211
  151SAPE  H17R16677   4.749   0.327   5.272
  151SAPE  H17S16678   4.650   0.420   5.146
  151SAPE  C21816679   4.660   0.204   5.113
  151SAPE  H18R16680   4.741   0.218   5.039
  151SAPE  H18S16681   4.564   0.209   5.057
  151SAPE  C21916682   4.667   0.074   5.191
  151SAPE  H19R16683   4.606   0.087   5.282
  151SAPE  H19S16684   4.774   0.065   5.221
  151SAPE  C22016685   4.638   6.796   5.102
  151SAPE  H20R16686   4.576   6.819   5.013
  151SAPE  H20S16687   4.588   6.719   5.166
  151SAPE  H20T16688   4.739   6.771   5.065
  151SAPE   C3316689   4.498   6.448   5.776
  151SAPE   H3X16690   4.445   6.352   5.797
  151SAPE   H3Y16691   4.593   6.451   5.834
  151SAPE   C3416692   4.537   6.454   5.622
  151SAPE   H4X16693   4.613   6.374   5.607
  151SAPE   H4Y16694   4.595   6.548   5.606
  151SAPE   C3516695   4.425   6.428   5.526
  151SAPE   H5X16696   4.355   6.514   5.523
  151SAPE   H5Y16697   4.365   6.343   5.564
  151SAPE   C3616698   4.462   6.410   5.373
  151SAPE   H6X16699   4.533   6.327   5.353
  151SAPE   H6Y16700   4.532   6.495   5.359
  151SAPE   C3716701   4.344   6.428   5.278
  151SAPE   H7X16702   4.277   6.505   5.320
  151SAPE   H7Y16703   4.287   6.332   5.275
  151SAPE   C3816704   4.383   6.451   5.125
  151SAPE   H8X16705   4.450   6.369   5.093
  151SAPE   H8Y16706   4.445   6.544   5.122
  151SAPE   C3916707   4.258   6.459   5.035
  151SAPE   H9X16708   4.189   6.372   5.035
  151SAPE   H9Y16709   4.287   6.467   4.928
  151SAPE  C31016710   4.175   6.581   5.067
  151SAPE  H10X16711   4.151   6.577   5.176
  151SAPE  H10Y16712   4.078   6.598   5.015
  151SAPE  C31116713   4.257   6.706   5.020
  151SAPE  H11X16714   4.304   6.668   4.927
  151SAPE  H11Y16715   4.327   6.738   5.100
  151SAPE  C31216716   4.171   6.819   4.976
  151SAPE  H12X16717   4.115   0.017   5.062
  151SAPE  H12Y16718   4.109   6.776   4.894
  151SAPE  C31316719   4.245   0.093   4.914
  151SAPE  H13X16720   4.285   0.051   4.819
  151SAPE  H13Y16721   4.331   0.117   4.980
  151SAPE  C31416722   4.151   0.213   4.904
  151SAPE  H14X16723   4.214   0.301   4.880
  151SAPE  H14Y16724   4.112   0.226   5.007
  151SAPE  C31516725   4.043   0.192   4.796
  151SAPE  H15X16726   3.970   0.112   4.817
  151SAPE  H15Y16727   4.092   0.168   4.699
  151SAPE  C31616728   3.963   0.321   4.771
  151SAPE  H16X16729   3.880   0.294   4.702
  151SAPE  H16Y16730   4.027   0.388   4.711
  151SAPE  C31716731   3.911   0.390   4.893
  151SAPE  H17X16732   3.988   0.430   4.961
  151SAPE  H17Y16733   3.853   0.318   4.954
  151SAPE  C31816734   3.831   0.507   4.860
  151SAPE  H18X16735   3.884   0.584   4.799
  151SAPE  H18Y16736   3.782   0.553   4.948
  151SAPE  H18Z16737   3.745   0.474   4.797
  152SAPE     N16738   0.140   1.515   6.441
  152SAPE   HN116739   0.226   1.556   6.480
  152SAPE   HN216740   0.094   1.471   6.524
  152SAPE   HN316741   0.174   1.447   6.370
  152SAPE   C1216742   0.053   1.609   6.367
  152SAPE  H12A16743   6.839   1.659   6.449
  152SAPE  H12B16744   6.816   1.554   6.313
  152SAPE   C1116745   0.145   1.704   6.292
  152SAPE  H11A16746   0.088   1.787   6.245
  152SAPE  H11B16747   0.207   1.656   6.213
  152SAPE     P16748   0.206   1.878   6.474
  152SAPE   O1316749   0.163   1.817   6.601
  152SAPE   O1416750   0.310   1.979   6.486
  152SAPE   O1216751   0.246   1.761   6.380
  152SAPE   O1116752   0.078   1.942   6.400
  152SAPE    C116753   0.085   2.068   6.330
  152SAPE    HA16754   0.147   2.144   6.383
  152SAPE    HB16755   0.129   2.052   6.230
  152SAPE    C216756   6.785   2.127   6.295
  152SAPE    HS16757   6.728   2.138   6.390
  152SAPE   O2116758   6.724   2.045   6.200
  152SAPE   C2116759   6.661   1.938   6.252
  152SAPE   O2216760   6.654   1.916   6.375
  152SAPE   C2216761   6.573   1.868   6.151
  152SAPE   H2R16762   6.491   1.810   6.197
  152SAPE   H2S16763   6.529   1.946   6.085
  152SAPE    C316764   6.807   2.273   6.237
  152SAPE    HX16765   6.842   2.346   6.313
  152SAPE    HY16766   6.707   2.317   6.221
  152SAPE   O3116767   0.051   2.278   6.124
  152SAPE   C3116768   6.840   2.242   6.012
  152SAPE   O3216769   6.727   2.215   5.981
  152SAPE   C3216770   0.116   2.224   5.914
  152SAPE   H2X16771   0.148   2.118   5.922
  152SAPE   H2Y16772   0.198   2.294   5.943
  152SAPE   C2316773   6.661   1.763   6.065
  152SAPE   H3R16774   6.591   1.714   5.994
  152SAPE   H3S16775   6.715   1.686   6.124
  152SAPE   C2416776   6.769   1.831   5.978
  152SAPE   H4R16777   6.842   1.879   6.047
  152SAPE   H4S16778   6.728   1.908   5.910
  152SAPE   C2516779   0.002   1.728   5.893
  152SAPE   H5R16780   0.089   1.681   5.941
  152SAPE   C2616781   6.820   1.682   5.769
  152SAPE   H6R16782   0.042   1.605   5.726
  152SAPE   C2716783   6.707   1.728   5.679
  152SAPE   H7R16784   6.627   1.769   5.744
  152SAPE   H7S16785   6.653   1.643   5.633
  152SAPE   C2816786   6.753   1.836   5.583
  152SAPE   H8R16787   6.791   1.933   5.620
  152SAPE   C2916788   6.725   1.832   5.449
  152SAPE   H9R16789   6.749   1.923   5.392
  152SAPE  C21016790   6.653   1.724   5.366
  152SAPE  H10R16791   6.700   1.624   5.376
  152SAPE  H10S16792   6.660   1.750   5.259
  152SAPE  C21116793   6.506   1.713   5.393
  152SAPE  H11R16794   6.461   1.787   5.461
  152SAPE  C21216795   6.425   1.625   5.338
  152SAPE  H12R16796   6.317   1.620   5.357
  152SAPE  C21316797   6.465   1.508   5.250
  152SAPE  H13R16798   6.538   1.551   5.178
  152SAPE  H13S16799   6.374   1.489   5.189
  152SAPE  C21416800   6.523   1.382   5.302
  152SAPE  H14R16801   6.614   1.401   5.361
  152SAPE  C21516802   6.480   1.260   5.272
  152SAPE  H15R16803   6.523   1.172   5.324
  152SAPE  C21616804   6.370   1.224   5.174
  152SAPE  H16R16805   6.305   1.306   5.137
  152SAPE  H16S16806   6.307   1.144   5.219
  152SAPE  C21716807   6.445   1.163   5.052
  152SAPE  H17R16808   6.528   1.091   5.069
  152SAPE  H17S16809   6.489   1.252   5.002
  152SAPE  C21816810   6.345   1.105   4.952
  152SAPE  H18R16811   6.395   1.084   4.855
  152SAPE  H18S16812   6.263   1.175   4.927
  152SAPE  C21916813   6.293   0.972   5.004
  152SAPE  H19R16814   6.213   1.009   5.071
  152SAPE  H19S16815   6.366   0.919   5.069
  152SAPE  C22016816   6.246   0.867   4.900
  152SAPE  H20R16817   6.155   0.905   4.848
  152SAPE  H20S16818   6.237   0.766   4.945
  152SAPE  H20T16819   6.324   0.859   4.822
  152SAPE   C3316820   0.079   2.255   5.768
  152SAPE   H3X16821   6.824   2.207   5.745
  152SAPE   H3Y16822   0.148   2.218   5.690
  152SAPE   C3416823   0.060   2.410   5.744
  152SAPE   H4X16824   0.138   2.464   5.802
  152SAPE   H4Y16825   6.805   2.440   5.789
  152SAPE   C3516826   0.079   2.448   5.600
  152SAPE   H5X16827   0.184   2.429   5.569
  152SAPE   H5Y16828   0.051   2.555   5.592
  152SAPE   C3616829   6.831   2.363   5.512
  152SAPE   H6X16830   6.725   2.360   5.544
  152SAPE   H6Y16831   0.024   2.259   5.503
  152SAPE   C3716832   6.818   2.416   5.365
  152SAPE   H7X16833   6.781   2.520   5.371
  152SAPE   H7Y16834   6.739   2.357   5.313
  152SAPE   C3816835   0.097   2.404   5.269
  152SAPE   H8X16836   0.105   2.299   5.233
  152SAPE   H8Y16837   0.185   2.418   5.336
  152SAPE   C3916838   0.113   2.514   5.166
  152SAPE   H9X16839   0.217   2.506   5.129
  152SAPE   H9Y16840   0.107   2.610   5.221
  152SAPE  C31016841   0.011   2.516   5.051
  152SAPE  H10X16842   6.755   2.531   5.099
  152SAPE  H10Y16843   6.840   2.417   5.003
  152SAPE  C31116844   0.024   2.625   4.945
  152SAPE  H11X16845   0.054   2.718   5.000
  152SAPE  H11Y16846   6.770   2.644   4.894
  152SAPE  C31216847   0.126   2.591   4.831
  152SAPE  H12X16848   0.081   2.521   4.758
  152SAPE  H12Y16849   0.213   2.549   4.886
  152SAPE  C31316850   0.154   2.723   4.750
  152SAPE  H13X16851   0.188   2.806   4.815
  152SAPE  H13Y16852   0.051   2.746   4.715
  152SAPE  C31416853   0.254   2.699   4.640
  152SAPE  H14X16854   0.211   2.633   4.561
  152SAPE  H14Y16855   0.343   2.659   4.692
  152SAPE  C31516856   0.304   2.830   4.576
  152SAPE  H15X16857   0.362   2.882   4.655
  152SAPE  H15Y16858   0.220   2.897   4.548
  152SAPE  C31616859   0.403   2.812   4.465
  152SAPE  H16X16860   0.356   2.781   4.368
  152SAPE  H16Y16861   0.479   2.738   4.497
  152SAPE  C31716862   0.474   2.943   4.425
  152SAPE  H17X16863   0.551   2.908   4.352
  152SAPE  H17Y16864   0.523   2.988   4.513
  152SAPE  C31816865   0.405   3.063   4.354
  152SAPE  H18X16866   0.353   3.030   4.262
  152SAPE  H18Y16867   0.483   3.139   4.333
  152SAPE  H18Z16868   0.328   3.104   4.422
  153SAPE     N16869   5.961   1.713   6.742
  153SAPE   HN116870   5.997   1.633   6.684
  153SAPE   HN216871   5.878   1.682   6.796
  153SAPE   HN316872   5.946   1.801   6.690
  153SAPE   C1216873   6.076   1.734   6.833
  153SAPE  H12A16874   6.065   1.830   6.888
  153SAPE  H12B16875   6.170   1.733   6.774
  153SAPE   C1116876   6.073   1.624   6.939
  153SAPE  H11A16877   5.990   1.642   7.010
  153SAPE  H11B16878   6.166   1.626   7.000
  153SAPE     P16879   6.185   1.401   6.863
  153SAPE   O1316880   6.287   1.487   6.798
  153SAPE   O1416881   6.214   1.346   6.999
  153SAPE   O1216882   6.062   1.493   6.879
  153SAPE   O1116883   6.115   1.288   6.775
  153SAPE    C116884   6.191   1.234   6.660
  153SAPE    HA16885   6.210   1.314   6.586
  153SAPE    HB16886   6.290   1.191   6.686
  153SAPE    C216887   6.112   1.119   6.586
  153SAPE    HS16888   6.198   1.062   6.545
  153SAPE   O2116889   6.015   1.172   6.494
  153SAPE   C2116890   6.065   1.229   6.382
  153SAPE   O2216891   6.178   1.223   6.346
  153SAPE   C2216892   5.949   1.303   6.313
  153SAPE   H2R16893   5.859   1.241   6.331
  153SAPE   H2S16894   5.938   1.395   6.375
  153SAPE    C316895   6.041   1.016   6.674
  153SAPE    HX16896   5.980   1.060   6.756
  153SAPE    HY16897   6.128   0.968   6.724
  153SAPE   O3116898   5.966   0.912   6.606
  153SAPE   C3116899   6.042   0.823   6.552
  153SAPE   O3216900   6.164   0.829   6.552
  153SAPE   C3216901   5.959   0.710   6.498
  153SAPE   H2X16902   5.853   0.745   6.498
  153SAPE   H2Y16903   5.978   0.620   6.560
  153SAPE   C2316904   5.976   1.339   6.162
  153SAPE   H3R16905   6.001   1.251   6.098
  153SAPE   H3S16906   6.052   1.420   6.161
  153SAPE   C2416907   5.850   1.419   6.114
  153SAPE   H4R16908   5.839   1.519   6.160
  153SAPE   H4S16909   5.755   1.373   6.150
  153SAPE   C2516910   5.843   1.428   5.960
  153SAPE   H5R16911   5.821   1.332   5.911
  153SAPE   C2616912   5.865   1.527   5.878
  153SAPE   H6R16913   5.859   1.518   5.769
  153SAPE   C2716914   5.912   1.666   5.908
  153SAPE   H7R16915   6.005   1.686   5.851
  153SAPE   H7S16916   5.926   1.672   6.018
  153SAPE   C2816917   5.805   1.766   5.876
  153SAPE   H8R16918   5.772   1.817   5.968
  153SAPE   C2916919   5.752   1.809   5.764
  153SAPE   H9R16920   5.671   1.883   5.770
  153SAPE  C21016921   5.793   1.759   5.634
  153SAPE  H10R16922   5.871   1.680   5.639
  153SAPE  H10S16923   5.824   1.848   5.575
  153SAPE  C21116924   5.682   1.697   5.555
  153SAPE  H11R16925   5.605   1.640   5.609
  153SAPE  C21216926   5.667   1.702   5.419
  153SAPE  H12R16927   5.576   1.659   5.373
  153SAPE  C21316928   5.761   1.762   5.321
  153SAPE  H13R16929   5.719   1.730   5.223
  153SAPE  H13S16930   5.858   1.709   5.337
  153SAPE  C21416931   5.778   1.910   5.308
  153SAPE  H14R16932   5.742   1.958   5.400
  153SAPE  C21516933   5.833   1.982   5.215
  153SAPE  H15R16934   5.846   2.091   5.222
  153SAPE  C21616935   5.882   1.925   5.078
  153SAPE  H16R16936   5.857   1.817   5.080
  153SAPE  H16S16937   5.992   1.939   5.079
  153SAPE  C21716938   5.801   1.995   4.965
  153SAPE  H17R16939   5.845   2.096   4.953
  153SAPE  H17S16940   5.693   2.009   4.987
  153SAPE  C21816941   5.816   1.915   4.831
  153SAPE  H18R16942   5.731   1.941   4.763
  153SAPE  H18S16943   5.800   1.805   4.843
  153SAPE  C21916944   5.960   1.937   4.772
  153SAPE  H19R16945   5.988   1.862   4.695
  153SAPE  H19S16946   6.017   1.920   4.865
  153SAPE  C22016947   5.994   2.084   4.729
  153SAPE  H20R16948   6.101   2.088   4.700
  153SAPE  H20S16949   5.970   2.160   4.807
  153SAPE  H20T16950   5.939   2.118   4.638
  153SAPE   C3316951   5.976   0.697   6.351
  153SAPE   H3X16952   5.936   0.595   6.328
  153SAPE   H3Y16953   6.084   0.689   6.326
  153SAPE   C3416954   5.929   0.809   6.266
  153SAPE   H4X16955   5.990   0.901   6.277
  153SAPE   H4Y16956   5.823   0.824   6.297
  153SAPE   C3516957   5.949   0.793   6.116
  153SAPE   H5X16958   6.044   0.751   6.077
  153SAPE   H5Y16959   5.928   0.895   6.077
  153SAPE   C3616960   5.838   0.704   6.044
  153SAPE   H6X16961   5.733   0.732   6.067
  153SAPE   H6Y16962   5.839   0.600   6.085
  153SAPE   C3716963   5.855   0.717   5.895
  153SAPE   H7X16964   5.960   0.697   5.865
  153SAPE   H7Y16965   5.834   0.825   5.878
  153SAPE   C3816966   5.755   0.644   5.816
  153SAPE   H8X16967   5.662   0.704   5.803
  153SAPE   H8Y16968   5.717   0.555   5.871
  153SAPE   C3916969   5.809   0.611   5.671
  153SAPE   H9X16970   5.894   0.543   5.689
  153SAPE   H9Y16971   5.857   0.708   5.644
  153SAPE  C31016972   5.716   0.555   5.568
  153SAPE  H10X16973   5.627   0.618   5.547
  153SAPE  H10Y16974   5.670   0.459   5.600
  153SAPE  C31116975   5.806   0.523   5.443
  153SAPE  H11X16976   5.893   0.459   5.468
  153SAPE  H11Y16977   5.849   0.618   5.403
  153SAPE  C31216978   5.731   0.463   5.322
  153SAPE  H12X16979   5.657   0.535   5.282
  153SAPE  H12Y16980   5.685   0.365   5.349
  153SAPE  C31316981   5.816   0.446   5.197
  153SAPE  H13X16982   5.882   0.357   5.209
  153SAPE  H13Y16983   5.875   0.539   5.185
  153SAPE  C31416984   5.732   0.431   5.071
  153SAPE  H14X16985   5.667   0.515   5.041
  153SAPE  H14Y16986   5.662   0.344   5.079
  153SAPE  C31516987   5.821   0.390   4.960
  153SAPE  H15X16988   5.745   0.342   4.895
  153SAPE  H15Y16989   5.883   0.300   4.983
  153SAPE  C31616990   5.897   0.501   4.882
  153SAPE  H16X16991   5.965   0.560   4.946
  153SAPE  H16Y16992   5.811   0.557   4.840
  153SAPE  C31716993   5.972   0.451   4.753
  153SAPE  H17X16994   6.000   0.538   4.689
  153SAPE  H17Y16995   5.890   0.397   4.701
  153SAPE  C31816996   6.096   0.360   4.768
  153SAPE  H18X16997   6.141   0.319   4.676
  153SAPE  H18Y16998   6.069   0.271   4.828
  153SAPE  H18Z16999   6.176   0.419   4.818
  154SAPE     N17000   3.914   0.707   6.677
  154SAPE   HN117001   3.958   0.748   6.762
  154SAPE   HN217002   3.880   0.612   6.703
  154SAPE   HN317003   3.992   0.695   6.609
  154SAPE   C1217004   3.799   0.793   6.642
  154SAPE  H12A17005   3.821   0.901   6.657
  154SAPE  H12B17006   3.718   0.771   6.715
  154SAPE   C1117007   3.748   0.762   6.495
  154SAPE  H11A17008   3.836   0.775   6.430
  154SAPE  H11B17009   3.687   0.851   6.468
  154SAPE     P17010   3.530   0.615   6.535
  154SAPE   O1317011   3.475   0.492   6.475
  154SAPE   O1417012   3.523   0.630   6.683
  154SAPE   O1217013   3.680   0.635   6.487
  154SAPE   O1117014   3.456   0.741   6.473
  154SAPE    C117015   3.437   0.769   6.332
  154SAPE    HA17016   3.475   0.873   6.318
  154SAPE    HB17017   3.497   0.705   6.264
  154SAPE    C217018   3.285   0.759   6.295
  154SAPE    HS17019   3.261   0.654   6.322
  154SAPE   O2117020   3.277   0.778   6.147
  154SAPE   C2117021   3.166   0.729   6.089
  154SAPE   O2217022   3.067   0.680   6.139
  154SAPE   C2217023   3.192   0.743   5.940
  154SAPE   H2R17024   3.150   0.840   5.905
  154SAPE   H2S17025   3.302   0.739   5.925
  154SAPE    C317026   3.190   0.867   6.373
  154SAPE    HX17027   3.175   0.847   6.482
  154SAPE    HY17028   3.091   0.857   6.324
  154SAPE   O3117029   3.253   1.001   6.370
  154SAPE   C3117030   3.212   1.079   6.271
  154SAPE   O3217031   3.115   1.054   6.197
  154SAPE   C3217032   3.313   1.198   6.268
  154SAPE   H2X17033   3.294   1.254   6.362
  154SAPE   H2Y17034   3.278   1.263   6.185
  154SAPE   C2317035   3.137   0.630   5.847
  154SAPE   H3R17036   3.138   0.667   5.742
  154SAPE   H3S17037   3.029   0.609   5.859
  154SAPE   C2417038   3.219   0.505   5.833
  154SAPE   H4R17039   3.321   0.534   5.801
  154SAPE   H4S17040   3.166   0.441   5.759
  154SAPE   C2517041   3.222   0.429   5.966
  154SAPE   H5R17042   3.149   0.460   6.043
  154SAPE   C2617043   3.298   0.326   5.997
  154SAPE   H6R17044   3.284   0.277   6.094
  154SAPE   C2717045   3.407   0.269   5.902
  154SAPE   H7R17046   3.494   0.235   5.962
  154SAPE   H7S17047   3.452   0.346   5.838
  154SAPE   C2817048   3.359   0.148   5.821
  154SAPE   H8R17049   3.347   0.051   5.871
  154SAPE   C2917050   3.345   0.153   5.686
  154SAPE   H9R17051   3.302   0.073   5.625
  154SAPE  C21017052   3.381   0.270   5.599
  154SAPE  H10R17053   3.408   0.362   5.655
  154SAPE  H10S17054   3.287   0.285   5.541
  154SAPE  C21117055   3.495   0.233   5.507
  154SAPE  H11R17056   3.594   0.239   5.555
  154SAPE  C21217057   3.484   0.197   5.379
  154SAPE  H12R17058   3.574   0.183   5.316
  154SAPE  C21317059   3.362   0.202   5.290
  154SAPE  H13R17060   3.375   0.287   5.219
  154SAPE  H13S17061   3.271   0.215   5.351
  154SAPE  C21417062   3.338   0.069   5.222
  154SAPE  H14R17063   3.396   6.828   5.264
  154SAPE  C21517064   3.275   0.040   5.109
  154SAPE  H15R17065   3.279   6.779   5.073
  154SAPE  C21617066   3.195   0.137   5.028
  154SAPE  H16R17067   3.212   0.237   5.073
  154SAPE  H16S17068   3.086   0.112   5.025
  154SAPE  C21717069   3.225   0.129   4.878
  154SAPE  H17R17070   3.334   0.120   4.859
  154SAPE  H17S17071   3.184   0.222   4.832
  154SAPE  C21817072   3.147   0.010   4.813
  154SAPE  H18R17073   3.038   0.031   4.810
  154SAPE  H18S17074   3.168   6.760   4.870
  154SAPE  C21917075   3.186   6.830   4.664
  154SAPE  H19R17076   3.297   6.829   4.660
  154SAPE  H19S17077   3.155   0.075   4.604
  154SAPE  C22017078   3.136   6.712   4.590
  154SAPE  H20R17079   3.026   6.715   4.599
  154SAPE  H20S17080   3.168   6.613   4.630
  154SAPE  H20T17081   3.165   6.714   4.482
  154SAPE   C3317082   3.464   1.159   6.255
  154SAPE   H3X17083   3.489   1.093   6.341
  154SAPE   H3Y17084   3.529   1.249   6.261
  154SAPE   C3417085   3.496   1.082   6.127
  154SAPE   H4X17086   3.430   0.993   6.119
  154SAPE   H4Y17087   3.602   1.049   6.120
  154SAPE   C3517088   3.477   1.168   5.996
  154SAPE   H5X17089   3.548   1.254   5.996
  154SAPE   H5Y17090   3.375   1.208   6.015
  154SAPE   C3617091   3.492   1.087   5.875
  154SAPE   H6X17092   3.414   1.008   5.877
  154SAPE   H6Y17093   3.589   1.034   5.887
  154SAPE   C3717094   3.507   1.176   5.746
  154SAPE   H7X17095   3.552   1.107   5.672
  154SAPE   H7Y17096   3.563   1.270   5.759
  154SAPE   C3817097   3.371   1.209   5.703
  154SAPE   H8X17098   3.310   1.261   5.780
  154SAPE   H8Y17099   3.314   1.116   5.682
  154SAPE   C3917100   3.358   1.283   5.564
  154SAPE   H9X17101   3.383   1.391   5.575
  154SAPE   H9Y17102   3.249   1.271   5.546
  154SAPE  C31017103   3.436   1.222   5.456
  154SAPE  H10X17104   3.416   1.114   5.442
  154SAPE  H10Y17105   3.545   1.226   5.478
  154SAPE  C31117106   3.420   1.287   5.319
  154SAPE  H11X17107   3.467   1.386   5.329
  154SAPE  H11Y17108   3.312   1.309   5.302
  154SAPE  C31217109   3.480   1.216   5.200
  154SAPE  H12X17110   3.420   1.125   5.182
  154SAPE  H12Y17111   3.586   1.189   5.218
  154SAPE  C31317112   3.478   1.294   5.072
  154SAPE  H13X17113   3.545   1.383   5.073
  154SAPE  H13Y17114   3.380   1.341   5.049
  154SAPE  C31417115   3.528   1.211   4.949
  154SAPE  H14X17116   3.480   1.111   4.960
  154SAPE  H14Y17117   3.638   1.196   4.960
  154SAPE  C31517118   3.504   1.274   4.817
  154SAPE  H15X17119   3.553   1.373   4.826
  154SAPE  H15Y17120   3.397   1.299   4.798
  154SAPE  C31617121   3.565   1.198   4.699
  154SAPE  H16X17122   3.504   1.105   4.692
  154SAPE  H16Y17123   3.675   1.188   4.713
  154SAPE  C31717124   3.543   1.263   4.557
  154SAPE  H17X17125   3.433   1.272   4.543
  154SAPE  H17Y17126   3.587   1.198   4.479
  154SAPE  C31817127   3.617   1.396   4.547
  154SAPE  H18X17128   3.728   1.394   4.553
  154SAPE  H18Y17129   3.579   1.455   4.634
  154SAPE  H18Z17130   3.584   1.439   4.450
  155SAPE     N17131   5.313   6.028   6.777
  155SAPE   HN117132   5.270   6.114   6.817
  155SAPE   HN217133   5.249   5.951   6.804
  155SAPE   HN317134   5.409   6.015   6.816
  155SAPE   C1217135   5.332   6.018   6.627
  155SAPE  H12A17136   5.395   6.106   6.601
  155SAPE  H12B17137   5.239   6.032   6.568
  155SAPE   C1117138   5.405   5.886   6.594
  155SAPE  H11A17139   5.391   5.864   6.486
  155SAPE  H11B17140   5.357   5.801   6.647
  155SAPE     P17141   5.672   5.899   6.556
  155SAPE   O1317142   5.706   6.042   6.534
  155SAPE   O1417143   5.773   5.811   6.617
  155SAPE   O1217144   5.537   5.883   6.641
  155SAPE   O1117145   5.635   5.828   6.418
  155SAPE    C117146   5.704   5.837   6.290
  155SAPE    HA17147   5.776   5.921   6.295
  155SAPE    HB17148   5.770   5.750   6.267
  155SAPE    C217149   5.605   5.866   6.167
  155SAPE    HS17150   5.666   5.909   6.084
  155SAPE   O2117151   5.503   5.960   6.215
  155SAPE   C2117152   5.539   6.086   6.210
  155SAPE   O2217153   5.645   6.131   6.175
  155SAPE   C2217154   5.426   6.170   6.282
  155SAPE   H2R17155   5.337   6.151   6.218
  155SAPE   H2S17156   5.423   6.131   6.386
  155SAPE    C317157   5.553   5.736   6.096
  155SAPE    HX17158   5.466   5.693   6.151
  155SAPE    HY17159   5.641   5.669   6.094
  155SAPE   O3117160   5.484   5.774   5.970
  155SAPE   C3117161   5.479   5.675   5.880
  155SAPE   O3217162   5.524   5.562   5.894
  155SAPE   C3217163   5.400   5.720   5.752
  155SAPE   H2X17164   5.459   5.809   5.722
  155SAPE   H2Y17165   5.299   5.757   5.778
  155SAPE   C2317166   5.461   6.323   6.285
  155SAPE   H3R17167   5.553   6.341   6.343
  155SAPE   H3S17168   5.370   6.365   6.334
  155SAPE   C2417169   5.464   6.402   6.145
  155SAPE   H4R17170   5.551   6.365   6.087
  155SAPE   H4S17171   5.474   6.511   6.165
  155SAPE   C2517172   5.333   6.391   6.079
  155SAPE   H5R17173   5.255   6.406   6.155
  155SAPE   C2617174   5.308   6.346   5.957
  155SAPE   H6R17175   5.204   6.344   5.922
  155SAPE   C2717176   5.411   6.302   5.860
  155SAPE   H7R17177   5.407   6.192   5.844
  155SAPE   H7S17178   5.517   6.314   5.891
  155SAPE   C2817179   5.387   6.375   5.728
  155SAPE   H8R17180   5.355   6.480   5.739
  155SAPE   C2917181   5.366   6.324   5.604
  155SAPE   H9R17182   5.335   6.394   5.524
  155SAPE  C21017183   5.382   6.183   5.551
  155SAPE  H10R17184   5.285   6.134   5.527
  155SAPE  H10S17185   5.430   6.121   5.630
  155SAPE  C21117186   5.475   6.168   5.429
  155SAPE  H11R17187   5.581   6.184   5.451
  155SAPE  C21217188   5.438   6.157   5.299
  155SAPE  H12R17189   5.521   6.159   5.227
  155SAPE  C21317190   5.297   6.137   5.248
  155SAPE  H13R17191   5.223   6.163   5.326
  155SAPE  H13S17192   5.273   6.029   5.239
  155SAPE  C21417193   5.261   6.217   5.120
  155SAPE  H14R17194   5.239   6.324   5.132
  155SAPE  C21517195   5.244   6.168   5.001
  155SAPE  H15R17196   5.210   6.234   4.920
  155SAPE  C21617197   5.260   6.025   4.963
  155SAPE  H16R17198   5.294   5.968   5.052
  155SAPE  H16S17199   5.342   6.012   4.889
  155SAPE  C21717200   5.135   5.968   4.899
  155SAPE  H17R17201   5.051   5.978   4.972
  155SAPE  H17S17202   5.136   5.859   4.879
  155SAPE  C21817203   5.083   6.023   4.764
  155SAPE  H18R17204   5.180   6.029   4.711
  155SAPE  H18S17205   5.037   6.124   4.773
  155SAPE  C21917206   4.995   5.916   4.691
  155SAPE  H19R17207   4.898   5.907   4.743
  155SAPE  H19S17208   5.051   5.820   4.686
  155SAPE  C22017209   4.963   5.954   4.543
  155SAPE  H20R17210   4.877   6.025   4.543
  155SAPE  H20S17211   4.934   5.864   4.484
  155SAPE  H20T17212   5.053   6.009   4.510
  155SAPE   C3317213   5.392   5.622   5.632
  155SAPE   H3X17214   5.347   5.525   5.662
  155SAPE   H3Y17215   5.494   5.612   5.589
  155SAPE   C3417216   5.306   5.688   5.521
  155SAPE   H4X17217   5.351   5.786   5.496
  155SAPE   H4Y17218   5.202   5.691   5.560
  155SAPE   C3517219   5.290   5.605   5.390
  155SAPE   H5X17220   5.191   5.643   5.355
  155SAPE   H5Y17221   5.275   5.497   5.410
  155SAPE   C3617222   5.397   5.610   5.288
  155SAPE   H6X17223   5.470   5.528   5.301
  155SAPE   H6Y17224   5.453   5.706   5.291
  155SAPE   C3717225   5.341   5.606   5.150
  155SAPE   H7X17226   5.263   5.686   5.145
  155SAPE   H7Y17227   5.288   5.509   5.138
  155SAPE   C3817228   5.449   5.618   5.040
  155SAPE   H8X17229   5.538   5.673   5.077
  155SAPE   H8Y17230   5.403   5.678   4.959
  155SAPE   C3917231   5.512   5.493   4.976
  155SAPE   H9X17232   5.469   5.400   5.019
  155SAPE   H9Y17233   5.620   5.489   5.000
  155SAPE  C31017234   5.499   5.479   4.822
  155SAPE  H10X17235   5.542   5.568   4.772
  155SAPE  H10Y17236   5.393   5.471   4.787
  155SAPE  C31117237   5.569   5.358   4.763
  155SAPE  H11X17238   5.524   5.269   4.810
  155SAPE  H11Y17239   5.671   5.345   4.804
  155SAPE  C31217240   5.577   5.360   4.609
  155SAPE  H12X17241   5.480   5.375   4.557
  155SAPE  H12Y17242   5.602   5.256   4.578
  155SAPE  C31317243   5.676   5.466   4.551
  155SAPE  H13X17244   5.635   5.569   4.548
  155SAPE  H13Y17245   5.705   5.429   4.450
  155SAPE  C31417246   5.809   5.468   4.627
  155SAPE  H14X17247   5.842   5.362   4.632
  155SAPE  H14Y17248   5.797   5.500   4.732
  155SAPE  C31517249   5.906   5.575   4.575
  155SAPE  H15X17250   5.985   5.595   4.649
  155SAPE  H15Y17251   5.840   5.662   4.551
  155SAPE  C31617252   5.979   5.527   4.444
  155SAPE  H16X17253   5.908   5.554   4.363
  155SAPE  H16Y17254   5.987   5.416   4.447
  155SAPE  C31717255   6.117   5.589   4.432
  155SAPE  H17X17256   6.159   5.560   4.333
  155SAPE  H17Y17257   6.173   5.551   4.519
  155SAPE  C31817258   6.102   5.739   4.443
  155SAPE  H18X17259   6.196   5.792   4.417
  155SAPE  H18Y17260   6.090   5.763   4.551
  155SAPE  H18Z17261   6.026   5.785   4.377
  156SAPE     N17262   0.207   0.963   6.694
  156SAPE   HN117263   0.184   0.864   6.717
  156SAPE   HN217264   0.127   0.993   6.636
  156SAPE   HN317265   0.299   0.962   6.646
  156SAPE   C1217266   0.227   1.045   6.819
  156SAPE  H12A17267   0.242   1.148   6.779
  156SAPE  H12B17268   0.322   1.002   6.859
  156SAPE   C1117269   0.103   1.033   6.903
  156SAPE  H11A17270   0.009   1.082   6.868
  156SAPE  H11B17271   0.112   1.083   7.002
  156SAPE     P17272   6.798   0.811   6.911
  156SAPE   O1317273   6.807   0.680   6.972
  156SAPE   O1417274   6.681   0.894   6.945
  156SAPE   O1217275   0.083   0.895   6.948
  156SAPE   O1117276   6.813   0.801   6.756
  156SAPE    C117277   6.714   0.769   6.662
  156SAPE    HA17278   6.644   0.700   6.713
  156SAPE    HB17279   6.652   0.858   6.637
  156SAPE    C217280   6.769   0.704   6.536
  156SAPE    HS17281   6.826   0.615   6.572
  156SAPE   O2117282   0.017   0.788   6.462
  156SAPE   C2117283   0.114   0.727   6.395
  156SAPE   O2217284   0.147   0.615   6.405
  156SAPE   C2217285   0.166   0.820   6.284
  156SAPE   H2R17286   0.085   0.850   6.215
  156SAPE   H2S17287   0.222   0.905   6.328
  156SAPE    C317288   6.647   0.657   6.454
  156SAPE    HX17289   6.595   0.753   6.439
  156SAPE    HY17290   6.572   0.598   6.511
  156SAPE   O3117291   6.690   0.595   6.328
  156SAPE   C3117292   6.716   0.468   6.338
  156SAPE   O3217293   6.719   0.400   6.438
  156SAPE   C3217294   6.765   0.425   6.188
  156SAPE   H2X17295   0.031   0.401   6.197
  156SAPE   H2Y17296   6.764   0.517   6.126
  156SAPE   C2317297   0.277   0.741   6.207
  156SAPE   H3R17298   0.335   0.677   6.277
  156SAPE   H3S17299   0.343   0.815   6.157
  156SAPE   C2417300   0.236   0.645   6.094
  156SAPE   H4R17301   0.169   0.565   6.132
  156SAPE   H4S17302   0.320   0.588   6.048
  156SAPE   C2517303   0.158   0.716   5.979
  156SAPE   H5R17304   0.135   0.822   6.000
  156SAPE   C2617305   0.107   0.662   5.869
  156SAPE   H6R17306   0.052   0.721   5.794
  156SAPE   C2717307   0.099   0.516   5.824
  156SAPE   H7R17308   0.003   0.501   5.771
  156SAPE   H7S17309   0.103   0.449   5.913
  156SAPE   C2817310   0.212   0.491   5.732
  156SAPE   H8R17311   0.310   0.475   5.780
  156SAPE   C2917312   0.215   0.468   5.599
  156SAPE   H9R17313   0.311   0.448   5.550
  156SAPE  C21017314   0.091   0.454   5.515
  156SAPE  H10R17315   0.012   0.396   5.568
  156SAPE  H10S17316   0.122   0.408   5.419
  156SAPE  C21117317   0.030   0.590   5.471
  156SAPE  H11R17318   0.069   0.678   5.524
  156SAPE  C21217319   6.773   0.610   5.378
  156SAPE  H12R17320   6.739   0.714   5.368
  156SAPE  C21317321   6.703   0.502   5.296
  156SAPE  H13R17322   6.749   0.405   5.327
  156SAPE  H13S17323   6.736   0.513   5.190
  156SAPE  C21417324   6.551   0.497   5.310
  156SAPE  H14R17325   6.515   0.454   5.405
  156SAPE  C21517326   6.461   0.541   5.222
  156SAPE  H15R17327   6.360   0.501   5.240
  156SAPE  C21617328   6.479   0.607   5.089
  156SAPE  H16R17329   6.581   0.651   5.083
  156SAPE  H16S17330   6.403   0.687   5.079
  156SAPE  C21717331   6.463   0.495   4.987
  156SAPE  H17R17332   6.364   0.451   5.014
  156SAPE  H17S17333   6.540   0.416   4.981
  156SAPE  C21817334   6.456   0.540   4.839
  156SAPE  H18R17335   6.365   0.601   4.825
  156SAPE  H18S17336   6.456   0.447   4.778
  156SAPE  C21917337   6.568   0.632   4.789
  156SAPE  H19R17338   6.665   0.581   4.809
  156SAPE  H19S17339   6.568   0.728   4.846
  156SAPE  C22017340   6.540   0.682   4.648
  156SAPE  H20R17341   6.434   0.710   4.630
  156SAPE  H20S17342   6.552   0.602   4.572
  156SAPE  H20T17343   6.612   0.759   4.613
  156SAPE   C3317344   6.699   0.301   6.128
  156SAPE   H3X17345   6.591   0.319   6.113
  156SAPE   H3Y17346   6.714   0.211   6.191
  156SAPE   C3417347   6.747   0.271   5.986
  156SAPE   H4X17348   0.006   0.228   5.991
  156SAPE   H4Y17349   6.754   0.370   5.936
  156SAPE   C3517350   6.661   0.172   5.904
  156SAPE   H5X17351   6.553   0.195   5.918
  156SAPE   H5Y17352   6.675   0.071   5.949
  156SAPE   C3617353   6.696   0.173   5.755
  156SAPE   H6X17354   6.778   0.100   5.739
  156SAPE   H6Y17355   6.725   0.275   5.721
  156SAPE   C3717356   6.579   0.130   5.659
  156SAPE   H7X17357   6.481   0.178   5.678
  156SAPE   H7Y17358   6.556   0.023   5.678
  156SAPE   C3817359   6.619   0.156   5.510
  156SAPE   H8X17360   6.730   0.156   5.516
  156SAPE   H8Y17361   6.604   0.263   5.485
  156SAPE   C3917362   6.565   0.050   5.419
  156SAPE   H9X17363   6.455   0.050   5.435
  156SAPE   H9Y17364   6.596   6.788   5.437
  156SAPE  C31017365   6.576   0.081   5.267
  156SAPE  H10X17366   6.550   0.188   5.252
  156SAPE  H10Y17367   6.512   0.013   5.207
  156SAPE  C31117368   6.706   0.055   5.194
  156SAPE  H11X17369   6.727   6.789   5.194
  156SAPE  H11Y17370   6.790   0.107   5.246
  156SAPE  C31217371   6.711   0.090   5.040
  156SAPE  H12X17372   6.814   0.075   5.000
  156SAPE  H12Y17373   6.682   0.197   5.037
  156SAPE  C31317374   6.626   6.839   4.961
  156SAPE  H13X17375   6.526   6.827   5.008
  156SAPE  H13Y17376   6.666   6.735   4.958
  156SAPE  C31417377   6.595   0.039   4.817
  156SAPE  H14X17378   6.546   0.139   4.817
  156SAPE  H14Y17379   6.529   6.808   4.768
  156SAPE  C31517380   6.715   0.048   4.729
  156SAPE  H15X17381   6.695   6.837   4.633
  156SAPE  H15Y17382   6.806   6.841   4.768
  156SAPE  C31617383   6.759   0.188   4.703
  156SAPE  H16X17384   6.806   0.226   4.796
  156SAPE  H16Y17385   6.666   0.249   4.703
  156SAPE  C31717386   0.007   0.188   4.576
  156SAPE  H17X17387   6.805   0.132   4.491
  156SAPE  H17Y17388   0.096   0.133   4.612
  156SAPE  C31817389   0.051   0.322   4.528
  156SAPE  H18X17390   0.130   0.312   4.450
  156SAPE  H18Y17391   0.093   0.384   4.610
  156SAPE  H18Z17392   6.814   0.374   4.472
  157SAPE     N17393   6.642   6.581   6.961
  157SAPE   HN117394   6.633   6.527   7.049
  157SAPE   HN217395   6.584   6.532   6.891
  157SAPE   HN317396   6.739   6.563   6.929
  157SAPE   C1217397   6.602   6.729   6.967
  157SAPE  H12A17398   6.639   6.770   7.064
  157SAPE  H12B17399   6.491   6.722   6.963
  157SAPE   C1117400   6.665   6.822   6.860
  157SAPE  H11A17401   6.627   0.082   6.878
  157SAPE  H11B17402   6.639   6.791   6.757
  157SAPE     P17403   0.066   6.729   6.806
  157SAPE   O1317404   0.204   6.775   6.820
  157SAPE   O1417405   0.038   6.587   6.835
  157SAPE   O1217406   6.810   6.818   6.883
  157SAPE   O1117407   0.015   6.768   6.658
  157SAPE    C117408   0.090   0.021   6.582
  157SAPE    HA17409   0.093   0.112   6.646
  157SAPE    HB17410   0.194   6.837   6.552
  157SAPE    C217411   0.009   0.051   6.447
  157SAPE    HS17412   6.766   0.112   6.483
  157SAPE   O2117413   6.818   6.770   6.391
  157SAPE   C2117414   6.704   6.765   6.316
  157SAPE   O2217415   6.630   0.019   6.300
  157SAPE   C2217416   6.679   6.623   6.262
  157SAPE   H2R17417   6.746   6.560   6.324
  157SAPE   H2S17418   6.576   6.597   6.294
  157SAPE    C317419   0.100   0.139   6.353
  157SAPE    HX17420   0.117   0.239   6.398
  157SAPE    HY17421   0.038   0.160   6.263
  157SAPE   O3117422   0.219   0.068   6.309
  157SAPE   C3117423   0.275   0.117   6.200
  157SAPE   O3217424   0.227   0.211   6.140
  157SAPE   C3217425   0.408   0.040   6.171
  157SAPE   H2X17426   0.409   6.787   6.228
  157SAPE   H2Y17427   0.487   0.109   6.205
  157SAPE   C2317428   6.713   6.602   6.111
  157SAPE   H3R17429   6.651   6.674   6.052
  157SAPE   H3S17430   6.675   6.499   6.093
  157SAPE   C2417431   0.014   6.620   6.068
  157SAPE   H4R17432   0.047   6.712   6.120
  157SAPE   H4S17433   0.015   6.630   5.957
  157SAPE   C2517434   0.095   6.502   6.114
  157SAPE   H5R17435   0.133   6.510   6.216
  157SAPE   C2617436   0.129   6.398   6.033
  157SAPE   H6R17437   0.182   6.313   6.078
  157SAPE   C2717438   0.095   6.379   5.893
  157SAPE   H7R17439   0.186   6.334   5.849
  157SAPE   H7S17440   0.080   6.474   5.836
  157SAPE   C2817441   6.816   6.292   5.872
  157SAPE   H8R17442   6.766   6.243   5.957
  157SAPE   C2917443   6.741   6.285   5.758
  157SAPE   H9R17444   6.656   6.216   5.762
  157SAPE  C21017445   6.774   6.341   5.622
  157SAPE  H10R17446   6.765   6.253   5.555
  157SAPE  H10S17447   0.031   6.389   5.611
  157SAPE  C21117448   6.673   6.443   5.578
  157SAPE  H11R17449   6.599   6.489   5.645
  157SAPE  C21217450   6.654   6.483   5.453
  157SAPE  H12R17451   6.562   6.528   5.413
  157SAPE  C21317452   6.734   6.429   5.337
  157SAPE  H13R17453   6.829   6.387   5.374
  157SAPE  H13S17454   6.757   6.519   5.276
  157SAPE  C21417455   6.683   6.319   5.249
  157SAPE  H14R17456   6.639   6.233   5.301
  157SAPE  C21517457   6.710   6.296   5.122
  157SAPE  H15R17458   6.654   6.219   5.067
  157SAPE  C21617459   6.766   6.397   5.026
  157SAPE  H16R17460   0.010   6.453   5.066
  157SAPE  H16S17461   6.696   6.482   5.010
  157SAPE  C21717462   6.786   6.324   4.890
  157SAPE  H17R17463   6.694   6.277   4.849
  157SAPE  H17S17464   0.002   6.234   4.920
  157SAPE  C21817465   0.027   6.402   4.786
  157SAPE  H18R17466   0.128   6.430   4.824
  157SAPE  H18S17467   6.810   6.491   4.758
  157SAPE  C21917468   0.060   6.321   4.651
  157SAPE  H19R17469   0.123   6.241   4.694
  157SAPE  H19S17470   0.119   6.383   4.579
  157SAPE  C22017471   6.788   6.261   4.568
  157SAPE  H20R17472   6.822   6.217   4.471
  157SAPE  H20S17473   6.710   6.333   4.534
  157SAPE  H20T17474   6.735   6.186   4.630
  157SAPE   C3317475   0.422   0.030   6.014
  157SAPE   H3X17476   0.529   6.843   6.012
  157SAPE   H3Y17477   0.411   0.130   5.967
  157SAPE   C3417478   0.334   6.768   5.947
  157SAPE   H4X17479   0.223   6.774   5.953
  157SAPE   H4Y17480   0.362   6.673   5.998
  157SAPE   C3517481   0.367   6.737   5.800
  157SAPE   H5X17482   0.308   6.648   5.770
  157SAPE   H5Y17483   0.477   6.728   5.785
  157SAPE   C3617484   0.318   0.015   5.720
  157SAPE   H6X17485   0.388   0.102   5.727
  157SAPE   H6Y17486   0.218   0.048   5.756
  157SAPE   C3717487   0.293   6.823   5.572
  157SAPE   H7X17488   0.218   6.741   5.565
  157SAPE   H7Y17489   0.394   6.809   5.528
  157SAPE   C3817490   0.233   0.100   5.497
  157SAPE   H8X17491   0.309   0.181   5.497
  157SAPE   H8Y17492   0.142   0.131   5.553
  157SAPE   C3917493   0.185   0.064   5.352
  157SAPE   H9X17494   0.124   0.151   5.322
  157SAPE   H9Y17495   0.129   6.812   5.366
  157SAPE  C31017496   0.296   0.042   5.245
  157SAPE  H10X17497   0.360   6.803   5.286
  157SAPE  H10Y17498   0.357   0.134   5.253
  157SAPE  C31117499   0.238   0.014   5.110
  157SAPE  H11X17500   0.162   0.091   5.083
  157SAPE  H11Y17501   0.180   6.763   5.114
  157SAPE  C31217502   0.337   6.836   4.996
  157SAPE  H12X17503   0.399   6.744   4.992
  157SAPE  H12Y17504   0.411   0.072   5.021
  157SAPE  C31317505   0.282   0.021   4.851
  157SAPE  H13X17506   0.258   0.129   4.838
  157SAPE  H13Y17507   0.191   6.802   4.834
  157SAPE  C31417508   0.385   6.823   4.742
  157SAPE  H14X17509   0.347   6.814   4.638
  157SAPE  H14Y17510   0.418   6.720   4.766
  157SAPE  C31517511   0.504   0.085   4.728
  157SAPE  H15X17512   0.567   0.086   4.819
  157SAPE  H15Y17513   0.457   0.185   4.721
  157SAPE  C31617514   0.608   0.059   4.615
  157SAPE  H16X17515   0.660   6.806   4.636
  157SAPE  H16Y17516   0.681   0.142   4.605
  157SAPE  C31717517   0.547   0.049   4.471
  157SAPE  H17X17518   0.486   0.141   4.457
  157SAPE  H17Y17519   0.492   6.796   4.472
  157SAPE  C31817520   0.642   0.038   4.354
  157SAPE  H18X17521   0.597   0.041   4.253
  157SAPE  H18Y17522   0.711   6.794   4.349
  157SAPE  H18Z17523   0.716   0.121   4.358
  158SAPE     N17524   3.367   5.720   6.962
  158SAPE   HN117525   3.443   5.772   6.914
  158SAPE   HN217526   3.293   5.792   6.977
  158SAPE   HN317527   3.407   5.682   7.050
  158SAPE   C1217528   3.328   5.595   6.882
  158SAPE  H12A17529   3.272   5.533   6.956
  158SAPE  H12B17530   3.421   5.536   6.867
  158SAPE   C1117531   3.232   5.627   6.766
  158SAPE  H11A17532   3.207   5.532   6.716
  158SAPE  H11B17533   3.273   5.703   6.697
  158SAPE     P17534   3.026   5.783   6.762
  158SAPE   O1317535   2.894   5.782   6.825
  158SAPE   O1417536   3.093   5.910   6.770
  158SAPE   O1217537   3.112   5.678   6.834
  158SAPE   O1117538   3.027   5.725   6.613
  158SAPE    C117539   2.948   5.612   6.584
  158SAPE    HA17540   2.949   5.529   6.657
  158SAPE    HB17541   2.839   5.632   6.580
  158SAPE    C217542   2.976   5.558   6.443
  158SAPE    HS17543   3.085   5.553   6.424
  158SAPE   O2117544   2.913   5.641   6.347
  158SAPE   C2117545   2.966   5.649   6.223
  158SAPE   O2217546   3.062   5.582   6.180
  158SAPE   C2217547   2.877   5.738   6.133
  158SAPE   H2R17548   2.869   5.833   6.190
  158SAPE   H2S17549   2.927   5.751   6.035
  158SAPE    C317550   2.924   5.415   6.425
  158SAPE    HX17551   2.817   5.420   6.454
  158SAPE    HY17552   2.977   5.354   6.501
  158SAPE   O3117553   2.930   5.348   6.298
  158SAPE   C3117554   3.042   5.296   6.256
  158SAPE   O3217555   3.152   5.307   6.309
  158SAPE   C3217556   3.013   5.211   6.125
  158SAPE   H2X17557   2.974   5.279   6.047
  158SAPE   H2Y17558   2.929   5.139   6.135
  158SAPE   C2317559   2.733   5.681   6.112
  158SAPE   H3R17560   2.677   5.683   6.208
  158SAPE   H3S17561   2.737   5.580   6.066
  158SAPE   C2417562   2.643   5.771   6.028
  158SAPE   H4R17563   2.644   5.873   6.072
  158SAPE   H4S17564   2.538   5.734   6.027
  158SAPE   C2517565   2.677   5.775   5.884
  158SAPE   H5R17566   2.741   5.695   5.845
  158SAPE   C2617567   2.637   5.867   5.792
  158SAPE   H6R17568   2.676   5.860   5.689
  158SAPE   C2717569   2.554   5.994   5.821
  158SAPE   H7R17570   2.623   6.077   5.792
  158SAPE   H7S17571   2.528   6.004   5.928
  158SAPE   C2817572   2.435   6.027   5.736
  158SAPE   H8R17573   2.342   6.001   5.789
  158SAPE   C2917574   2.437   6.073   5.613
  158SAPE   H9R17575   2.341   6.084   5.560
  158SAPE  C21017576   2.562   6.119   5.547
  158SAPE  H10R17577   2.630   6.031   5.549
  158SAPE  H10S17578   2.620   6.195   5.603
  158SAPE  C21117579   2.558   6.175   5.408
  158SAPE  H11R17580   2.461   6.226   5.393
  158SAPE  C21217581   2.656   6.196   5.317
  158SAPE  H12R17582   2.644   6.237   5.216
  158SAPE  C21317583   2.798   6.150   5.338
  158SAPE  H13R17584   2.803   6.039   5.349
  158SAPE  H13S17585   2.834   6.182   5.437
  158SAPE  C21417586   2.896   6.210   5.242
  158SAPE  H14R17587   2.919   6.315   5.263
  158SAPE  C21517588   2.977   6.152   5.152
  158SAPE  H15R17589   3.044   6.215   5.092
  158SAPE  C21617590   2.971   6.006   5.119
  158SAPE  H16R17591   2.891   5.953   5.175
  158SAPE  H16S17592   3.067   5.955   5.141
  158SAPE  C21717593   2.921   5.987   4.973
  158SAPE  H17R17594   2.971   6.064   4.910
  158SAPE  H17S17595   2.813   6.012   4.977
  158SAPE  C21817596   2.957   5.845   4.916
  158SAPE  H18R17597   2.924   5.768   4.990
  158SAPE  H18S17598   3.067   5.833   4.905
  158SAPE  C21917599   2.899   5.803   4.785
  158SAPE  H19R17600   2.928   5.885   4.715
  158SAPE  H19S17601   2.791   5.818   4.802
  158SAPE  C22017602   2.930   5.658   4.740
  158SAPE  H20R17603   2.895   5.593   4.823
  158SAPE  H20S17604   3.041   5.644   4.733
  158SAPE  H20T17605   2.871   5.625   4.652
  158SAPE   C3317606   3.135   5.135   6.065
  158SAPE   H3X17607   3.205   5.102   6.145
  158SAPE   H3Y17608   3.191   5.191   5.988
  158SAPE   C3417609   3.093   4.998   5.997
  158SAPE   H4X17610   3.009   5.008   5.925
  158SAPE   H4Y17611   3.082   4.924   6.080
  158SAPE   C3517612   3.212   4.943   5.915
  158SAPE   H5X17613   3.199   4.835   5.895
  158SAPE   H5Y17614   3.301   4.957   5.980
  158SAPE   C3617615   3.237   5.011   5.775
  158SAPE   H6X17616   3.321   4.962   5.721
  158SAPE   H6Y17617   3.282   5.110   5.800
  158SAPE   C3717618   3.115   5.018   5.682
  158SAPE   H7X17619   3.029   5.066   5.734
  158SAPE   H7Y17620   3.087   4.917   5.645
  158SAPE   C3817621   3.142   5.096   5.559
  158SAPE   H8X17622   3.233   5.053   5.512
  158SAPE   H8Y17623   3.183   5.197   5.583
  158SAPE   C3917624   3.033   5.097   5.448
  158SAPE   H9X17625   2.954   5.164   5.490
  158SAPE   H9Y17626   2.978   5.004   5.425
  158SAPE  C31017627   3.097   5.150   5.319
  158SAPE  H10X17628   3.174   5.228   5.339
  158SAPE  H10Y17629   3.021   5.200   5.255
  158SAPE  C31117630   3.164   5.041   5.237
  158SAPE  H11X17631   3.098   4.953   5.226
  158SAPE  H11Y17632   3.255   5.005   5.289
  158SAPE  C31217633   3.206   5.084   5.091
  158SAPE  H12X17634   3.277   5.168   5.101
  158SAPE  H12Y17635   3.116   5.132   5.045
  158SAPE  C31317636   3.269   4.978   5.006
  158SAPE  H13X17637   3.196   4.895   5.000
  158SAPE  H13Y17638   3.365   4.950   5.054
  158SAPE  C31417639   3.310   5.031   4.871
  158SAPE  H14X17640   3.395   5.099   4.890
  158SAPE  H14Y17641   3.233   5.099   4.830
  158SAPE  C31517642   3.366   4.922   4.778
  158SAPE  H15X17643   3.285   4.848   4.763
  158SAPE  H15Y17644   3.456   4.874   4.821
  158SAPE  C31617645   3.396   4.986   4.642
  158SAPE  H16X17646   3.314   5.057   4.619
  158SAPE  H16Y17647   3.392   4.915   4.556
  158SAPE  C31717648   3.526   5.059   4.639
  158SAPE  H17X17649   3.603   4.994   4.685
  158SAPE  H17Y17650   3.517   5.154   4.697
  158SAPE  C31817651   3.565   5.099   4.496
  158SAPE  H18X17652   3.671   5.132   4.506
  158SAPE  H18Y17653   3.490   5.169   4.453
  158SAPE  H18Z17654   3.565   5.015   4.423
  159SAPE     N17655   5.476   2.341   2.500
  159SAPE   HN117656   5.379   2.356   2.533
  159SAPE   HN217657   5.521   2.267   2.557
  159SAPE   HN317658   5.526   2.430   2.521
  159SAPE   C1217659   5.489   2.306   2.352
  159SAPE  H12A17660   5.429   2.214   2.333
  159SAPE  H12B17661   5.594   2.280   2.327
  159SAPE   C1117662   5.447   2.429   2.258
  159SAPE  H11A17663   5.347   2.465   2.293
  159SAPE  H11B17664   5.438   2.390   2.155
  159SAPE     P17665   5.605   2.620   2.161
  159SAPE   O1317666   5.753   2.610   2.167
  159SAPE   O1417667   5.539   2.588   2.026
  159SAPE   O1217668   5.546   2.524   2.273
  159SAPE   O1117669   5.569   2.769   2.215
  159SAPE    C117670   5.530   2.786   2.350
  159SAPE    HA17671   5.486   2.886   2.367
  159SAPE    HB17672   5.451   2.713   2.378
  159SAPE    C217673   5.649   2.789   2.454
  159SAPE    HS17674   5.702   2.692   2.459
  159SAPE   O2117675   5.601   2.808   2.594
  159SAPE   C2117676   5.526   2.711   2.646
  159SAPE   O2217677   5.499   2.608   2.587
  159SAPE   C2217678   5.475   2.754   2.782
  159SAPE   H2R17679   5.528   2.849   2.807
  159SAPE   H2S17680   5.372   2.792   2.762
  159SAPE    C317681   5.737   2.905   2.409
  159SAPE    HX17682   5.677   2.995   2.385
  159SAPE    HY17683   5.784   2.871   2.314
  159SAPE   O3117684   5.843   2.923   2.506
  159SAPE   C3117685   5.836   3.031   2.580
  159SAPE   O3217686   5.748   3.117   2.561
  159SAPE   C3217687   5.927   3.026   2.699
  159SAPE   H2X17688   6.031   3.052   2.671
  159SAPE   H2Y17689   5.923   2.923   2.742
  159SAPE   C2317690   5.466   2.640   2.891
  159SAPE   H3R17691   5.550   2.569   2.875
  159SAPE   H3S17692   5.367   2.592   2.879
  159SAPE   C2417693   5.491   2.692   3.034
  159SAPE   H4R17694   5.411   2.764   3.063
  159SAPE   H4S17695   5.593   2.736   3.039
  159SAPE   C2517696   5.495   2.581   3.145
  159SAPE   H5R17697   5.505   2.479   3.105
  159SAPE   C2617698   5.481   2.599   3.269
  159SAPE   H6R17699   5.457   2.509   3.328
  159SAPE   C2717700   5.462   2.733   3.344
  159SAPE   H7R17701   5.437   2.823   3.282
  159SAPE   H7S17702   5.558   2.755   3.394
  159SAPE   C2817703   5.358   2.719   3.446
  159SAPE   H8R17704   5.257   2.745   3.411
  159SAPE   C2917705   5.376   2.670   3.570
  159SAPE   H9R17706   5.290   2.631   3.627
  159SAPE  C21017707   5.503   2.611   3.631
  159SAPE  H10R17708   5.585   2.592   3.558
  159SAPE  H10S17709   5.480   2.510   3.672
  159SAPE  C21117710   5.562   2.695   3.744
  159SAPE  H11R17711   5.636   2.771   3.717
  159SAPE  C21217712   5.531   2.686   3.874
  159SAPE  H12R17713   5.589   2.742   3.949
  159SAPE  C21317714   5.428   2.603   3.942
  159SAPE  H13R17715   5.382   2.536   3.866
  159SAPE  H13S17716   5.356   2.676   3.986
  159SAPE  C21417717   5.495   2.520   4.054
  159SAPE  H14R17718   5.528   2.418   4.029
  159SAPE  C21517719   5.532   2.575   4.179
  159SAPE  H15R17720   5.598   2.516   4.244
  159SAPE  C21617721   5.519   2.718   4.222
  159SAPE  H16R17722   5.440   2.754   4.154
  159SAPE  H16S17723   5.614   2.773   4.201
  159SAPE  C21717724   5.473   2.742   4.365
  159SAPE  H17R17725   5.382   2.680   4.383
  159SAPE  H17S17726   5.446   2.849   4.377
  159SAPE  C21817727   5.569   2.697   4.474
  159SAPE  H18R17728   5.667   2.745   4.455
  159SAPE  H18S17729   5.585   2.587   4.474
  159SAPE  C21917730   5.536   2.745   4.620
  159SAPE  H19R17731   5.540   2.856   4.611
  159SAPE  H19S17732   5.626   2.717   4.678
  159SAPE  C22017733   5.407   2.699   4.682
  159SAPE  H20R17734   5.323   2.757   4.638
  159SAPE  H20S17735   5.401   2.724   4.790
  159SAPE  H20T17736   5.385   2.593   4.659
  159SAPE   C3317737   5.878   3.125   2.811
  159SAPE   H3X17738   5.769   3.105   2.817
  159SAPE   H3Y17739   5.887   3.233   2.789
  159SAPE   C3417740   5.949   3.098   2.941
  159SAPE   H4X17741   6.048   3.149   2.935
  159SAPE   H4Y17742   5.979   2.991   2.936
  159SAPE   C3517743   5.876   3.132   3.070
  159SAPE   H5X17744   5.771   3.095   3.065
  159SAPE   H5Y17745   5.869   3.243   3.081
  159SAPE   C3617746   5.949   3.064   3.187
  159SAPE   H6X17747   6.057   3.090   3.196
  159SAPE   H6Y17748   5.951   2.953   3.178
  159SAPE   C3717749   5.885   3.091   3.318
  159SAPE   H7X17750   5.872   3.198   3.346
  159SAPE   H7Y17751   5.959   3.045   3.388
  159SAPE   C3817752   5.741   3.033   3.336
  159SAPE   H8X17753   5.738   2.935   3.284
  159SAPE   H8Y17754   5.676   3.095   3.270
  159SAPE   C3917755   5.697   3.005   3.482
  159SAPE   H9X17756   5.755   2.922   3.527
  159SAPE   H9Y17757   5.592   2.969   3.489
  159SAPE  C31017758   5.706   3.130   3.575
  159SAPE  H10X17759   5.619   3.198   3.558
  159SAPE  H10Y17760   5.796   3.189   3.550
  159SAPE  C31117761   5.719   3.091   3.723
  159SAPE  H11X17762   5.801   3.016   3.719
  159SAPE  H11Y17763   5.623   3.043   3.752
  159SAPE  C31217764   5.758   3.195   3.824
  159SAPE  H12X17765   5.857   3.233   3.791
  159SAPE  H12Y17766   5.768   3.133   3.916
  159SAPE  C31317767   5.647   3.305   3.832
  159SAPE  H13X17768   5.545   3.263   3.836
  159SAPE  H13Y17769   5.654   3.379   3.749
  159SAPE  C31417770   5.661   3.390   3.961
  159SAPE  H14X17771   5.680   3.317   4.043
  159SAPE  H14Y17772   5.567   3.441   3.988
  159SAPE  C31517773   5.778   3.493   3.971
  159SAPE  H15X17774   5.856   3.475   3.893
  159SAPE  H15Y17775   5.816   3.482   4.075
  159SAPE  C31617776   5.719   3.637   3.949
  159SAPE  H16X17777   5.801   3.711   3.966
  159SAPE  H16Y17778   5.636   3.664   4.018
  159SAPE  C31717779   5.668   3.672   3.804
  159SAPE  H17X17780   5.635   3.778   3.806
  159SAPE  H17Y17781   5.575   3.622   3.771
  159SAPE  C31817782   5.778   3.655   3.689
  159SAPE  H18X17783   5.788   3.548   3.662
  159SAPE  H18Y17784   5.868   3.713   3.716
  159SAPE  H18Z17785   5.741   3.707   3.597
  160SAPE     N17786   5.122   1.727   2.015
  160SAPE   HN117787   5.035   1.674   2.032
  160SAPE   HN217788   5.082   1.807   1.963
  160SAPE   HN317789   5.172   1.669   1.945
  160SAPE   C1217790   5.182   1.749   2.149
  160SAPE  H12A17791   5.115   1.808   2.215
  160SAPE  H12B17792   5.266   1.820   2.136
  160SAPE   C1117793   5.226   1.612   2.194
  160SAPE  H11A17794   5.304   1.617   2.273
  160SAPE  H11B17795   5.277   1.552   2.115
  160SAPE     P17796   5.069   1.519   2.391
  160SAPE   O1317797   4.936   1.462   2.408
  160SAPE   O1417798   5.173   1.444   2.461
  160SAPE   O1217799   5.111   1.534   2.235
  160SAPE   O1117800   5.078   1.668   2.457
  160SAPE    C117801   5.161   1.699   2.567
  160SAPE    HA17802   5.262   1.654   2.559
  160SAPE    HB17803   5.173   1.809   2.560
  160SAPE    C217804   5.094   1.681   2.709
  160SAPE    HS17805   5.152   1.740   2.783
  160SAPE   O2117806   5.100   1.543   2.757
  160SAPE   C2117807   5.221   1.492   2.780
  160SAPE   O2217808   5.326   1.551   2.760
  160SAPE   C2217809   5.213   1.350   2.821
  160SAPE   H2R17810   5.113   1.303   2.817
  160SAPE   H2S17811   5.269   1.290   2.746
  160SAPE    C317812   4.952   1.728   2.718
  160SAPE    HX17813   4.886   1.657   2.663
  160SAPE    HY17814   4.946   1.823   2.660
  160SAPE   O3117815   4.910   1.737   2.853
  160SAPE   C3117816   4.792   1.692   2.881
  160SAPE   O3217817   4.715   1.637   2.799
  160SAPE   C3217818   4.752   1.700   3.032
  160SAPE   H2X17819   4.652   1.749   3.032
  160SAPE   H2Y17820   4.836   1.752   3.083
  160SAPE   C2317821   5.290   1.323   2.958
  160SAPE   H3R17822   5.396   1.353   2.943
  160SAPE   H3S17823   5.286   1.214   2.981
  160SAPE   C2417824   5.229   1.402   3.073
  160SAPE   H4R17825   5.238   1.512   3.062
  160SAPE   H4S17826   5.279   1.373   3.168
  160SAPE   C2517827   5.082   1.363   3.085
  160SAPE   H5R17828   5.024   1.372   2.992
  160SAPE   C2617829   5.022   1.306   3.191
  160SAPE   H6R17830   4.915   1.283   3.180
  160SAPE   C2717831   5.091   1.260   3.318
  160SAPE   H7R17832   5.192   1.215   3.304
  160SAPE   H7S17833   5.039   1.172   3.362
  160SAPE   C2817834   5.098   1.377   3.413
  160SAPE   H8R17835   5.167   1.460   3.389
  160SAPE   C2917836   5.036   1.386   3.537
  160SAPE   H9R17837   5.048   1.479   3.595
  160SAPE  C21017838   4.936   1.283   3.590
  160SAPE  H10R17839   4.866   1.237   3.517
  160SAPE  H10S17840   4.872   1.338   3.663
  160SAPE  C21117841   5.016   1.177   3.655
  160SAPE  H11R17842   5.098   1.133   3.597
  160SAPE  C21217843   5.020   1.142   3.787
  160SAPE  H12R17844   5.085   1.060   3.821
  160SAPE  C21317845   4.918   1.177   3.893
  160SAPE  H13R17846   4.855   1.260   3.854
  160SAPE  H13S17847   4.963   1.209   3.989
  160SAPE  C21417848   4.814   1.075   3.925
  160SAPE  H14R17849   4.773   1.015   3.842
  160SAPE  C21517850   4.767   1.032   4.044
  160SAPE  H15R17851   4.682   0.964   4.058
  160SAPE  C21617852   4.797   1.101   4.175
  160SAPE  H16R17853   4.710   1.123   4.241
  160SAPE  H16S17854   4.854   1.194   4.156
  160SAPE  C21717855   4.888   1.016   4.259
  160SAPE  H17R17856   4.975   0.984   4.197
  160SAPE  H17S17857   4.842   0.918   4.286
  160SAPE  C21817858   4.935   1.090   4.383
  160SAPE  H18R17859   4.946   1.199   4.369
  160SAPE  H18S17860   5.032   1.041   4.407
  160SAPE  C21917861   4.852   1.059   4.504
  160SAPE  H19R17862   4.871   0.953   4.533
  160SAPE  H19S17863   4.744   1.061   4.478
  160SAPE  C22017864   4.876   1.156   4.617
  160SAPE  H20R17865   4.986   1.155   4.631
  160SAPE  H20S17866   4.837   1.119   4.714
  160SAPE  H20T17867   4.834   1.256   4.591
  160SAPE   C3317868   4.732   1.567   3.103
  160SAPE   H3X17869   4.831   1.518   3.119
  160SAPE   H3Y17870   4.676   1.487   3.050
  160SAPE   C3417871   4.683   1.568   3.247
  160SAPE   H4X17872   4.595   1.635   3.242
  160SAPE   H4Y17873   4.761   1.614   3.311
  160SAPE   C3517874   4.654   1.435   3.313
  160SAPE   H5X17875   4.744   1.370   3.308
  160SAPE   H5Y17876   4.563   1.391   3.266
  160SAPE   C3617877   4.631   1.464   3.463
  160SAPE   H6X17878   4.562   1.551   3.469
  160SAPE   H6Y17879   4.719   1.491   3.525
  160SAPE   C3717880   4.571   1.347   3.538
  160SAPE   H7X17881   4.632   1.260   3.507
  160SAPE   H7Y17882   4.470   1.322   3.498
  160SAPE   C3817883   4.551   1.366   3.685
  160SAPE   H8X17884   4.500   1.463   3.697
  160SAPE   H8Y17885   4.653   1.378   3.728
  160SAPE   C3917886   4.472   1.251   3.758
  160SAPE   H9X17887   4.526   1.162   3.721
  160SAPE   H9Y17888   4.371   1.234   3.716
  160SAPE  C31017889   4.475   1.250   3.915
  160SAPE  H10X17890   4.584   1.246   3.936
  160SAPE  H10Y17891   4.426   1.156   3.950
  160SAPE  C31117892   4.402   1.366   3.982
  160SAPE  H11X17893   4.296   1.371   3.948
  160SAPE  H11Y17894   4.445   1.467   3.966
  160SAPE  C31217895   4.396   1.352   4.139
  160SAPE  H12X17896   4.500   1.365   4.176
  160SAPE  H12Y17897   4.359   1.255   4.177
  160SAPE  C31317898   4.301   1.461   4.193
  160SAPE  H13X17899   4.215   1.466   4.122
  160SAPE  H13Y17900   4.356   1.557   4.196
  160SAPE  C31417901   4.257   1.422   4.331
  160SAPE  H14X17902   4.352   1.398   4.383
  160SAPE  H14Y17903   4.204   1.325   4.317
  160SAPE  C31517904   4.177   1.528   4.391
  160SAPE  H15X17905   4.115   1.577   4.313
  160SAPE  H15Y17906   4.245   1.608   4.430
  160SAPE  C31617907   4.083   1.481   4.510
  160SAPE  H16X17908   4.147   1.431   4.586
  160SAPE  H16Y17909   4.010   1.410   4.464
  160SAPE  C31717910   3.995   1.591   4.570
  160SAPE  H17X17911   3.912   1.542   4.625
  160SAPE  H17Y17912   3.945   1.650   4.490
  160SAPE  C31817913   4.081   1.684   4.663
  160SAPE  H18X17914   4.011   1.761   4.703
  160SAPE  H18Y17915   4.168   1.721   4.604
  160SAPE  H18Z17916   4.114   1.618   4.747
  161SAPE     N17917   2.081   4.176   2.234
  161SAPE   HN117918   2.033   4.246   2.294
  161SAPE   HN217919   2.081   4.091   2.293
  161SAPE   HN317920   2.175   4.209   2.202
  161SAPE   C1217921   2.011   4.163   2.097
  161SAPE  H12A17922   2.058   4.246   2.040
  161SAPE  H12B17923   1.906   4.196   2.116
  161SAPE   C1117924   2.030   4.027   2.030
  161SAPE  H11A17925   1.989   4.034   1.927
  161SAPE  H11B17926   1.982   3.951   2.096
  161SAPE     P17927   2.207   3.889   1.912
  161SAPE   O1317928   2.092   3.822   1.836
  161SAPE   O1417929   2.311   3.946   1.824
  161SAPE   O1217930   2.168   4.000   2.014
  161SAPE   O1117931   2.271   3.776   2.012
  161SAPE    C117932   2.196   3.716   2.113
  161SAPE    HA17933   2.087   3.731   2.102
  161SAPE    HB17934   2.228   3.610   2.108
  161SAPE    C217935   2.229   3.771   2.249
  161SAPE    HS17936   2.234   3.881   2.233
  161SAPE   O2117937   2.351   3.706   2.286
  161SAPE   C2117938   2.453   3.782   2.310
  161SAPE   O2217939   2.464   3.902   2.284
  161SAPE   C2217940   2.579   3.703   2.361
  161SAPE   H2R17941   2.558   3.594   2.364
  161SAPE   H2S17942   2.665   3.706   2.292
  161SAPE    C317943   2.127   3.753   2.365
  161SAPE    HX17944   2.116   3.642   2.377
  161SAPE    HY17945   2.025   3.786   2.335
  161SAPE   O3117946   2.162   3.823   2.488
  161SAPE   C3117947   2.117   3.942   2.506
  161SAPE   O3217948   2.055   4.007   2.420
  161SAPE   C3217949   2.167   3.996   2.644
  161SAPE   H2X17950   2.248   4.068   2.617
  161SAPE   H2Y17951   2.221   3.914   2.696
  161SAPE   C2317952   2.627   3.747   2.497
  161SAPE   H3R17953   2.665   3.851   2.496
  161SAPE   H3S17954   2.710   3.685   2.537
  161SAPE   C2417955   2.521   3.740   2.607
  161SAPE   H4R17956   2.430   3.796   2.577
  161SAPE   H4S17957   2.568   3.793   2.692
  161SAPE   C2517958   2.499   3.594   2.649
  161SAPE   H5R17959   2.467   3.525   2.569
  161SAPE   C2617960   2.502   3.544   2.774
  161SAPE   H6R17961   2.487   3.437   2.795
  161SAPE   C2717962   2.528   3.631   2.900
  161SAPE   H7R17963   2.603   3.709   2.875
  161SAPE   H7S17964   2.582   3.574   2.978
  161SAPE   C2817965   2.392   3.683   2.940
  161SAPE   H8R17966   2.328   3.741   2.872
  161SAPE   C2917967   2.326   3.628   3.044
  161SAPE   H9R17968   2.225   3.660   3.072
  161SAPE  C21017969   2.390   3.538   3.147
  161SAPE  H10R17970   2.470   3.597   3.195
  161SAPE  H10S17971   2.440   3.450   3.101
  161SAPE  C21117972   2.290   3.488   3.252
  161SAPE  H11R17973   2.200   3.448   3.201
  161SAPE  C21217974   2.297   3.497   3.388
  161SAPE  H12R17975   2.211   3.464   3.448
  161SAPE  C21317976   2.415   3.542   3.467
  161SAPE  H13R17977   2.445   3.645   3.438
  161SAPE  H13S17978   2.503   3.477   3.446
  161SAPE  C21417979   2.396   3.522   3.616
  161SAPE  H14R17980   2.296   3.492   3.649
  161SAPE  C21517981   2.493   3.528   3.709
  161SAPE  H15R17982   2.464   3.517   3.815
  161SAPE  C21617983   2.632   3.576   3.685
  161SAPE  H16R17984   2.646   3.616   3.582
  161SAPE  H16S17985   2.699   3.488   3.695
  161SAPE  C21717986   2.682   3.688   3.774
  161SAPE  H17R17987   2.638   3.787   3.750
  161SAPE  H17S17988   2.790   3.693   3.748
  161SAPE  C21817989   2.685   3.651   3.923
  161SAPE  H18R17990   2.709   3.544   3.942
  161SAPE  H18S17991   2.583   3.655   3.966
  161SAPE  C21917992   2.781   3.747   3.999
  161SAPE  H19R17993   2.764   3.847   3.952
  161SAPE  H19S17994   2.884   3.710   3.983
  161SAPE  C22017995   2.756   3.757   4.152
  161SAPE  H20R17996   2.657   3.802   4.177
  161SAPE  H20S17997   2.833   3.824   4.197
  161SAPE  H20T17998   2.763   3.654   4.192
  161SAPE   C3317999   2.050   4.059   2.721
  161SAPE   H3X18000   1.969   3.987   2.748
  161SAPE   H3Y18001   2.005   4.140   2.659
  161SAPE   C3418002   2.092   4.104   2.856
  161SAPE   H4X18003   2.021   4.178   2.900
  161SAPE   H4Y18004   2.187   4.163   2.855
  161SAPE   C3518005   2.127   3.993   2.959
  161SAPE   H5X18006   2.222   3.954   2.915
  161SAPE   H5Y18007   2.051   3.912   2.953
  161SAPE   C3618008   2.165   4.037   3.100
  161SAPE   H6X18009   2.097   4.114   3.144
  161SAPE   H6Y18010   2.265   4.087   3.099
  161SAPE   C3718011   2.196   3.931   3.206
  161SAPE   H7X18012   2.274   3.859   3.174
  161SAPE   H7Y18013   2.105   3.870   3.224
  161SAPE   C3818014   2.243   3.993   3.339
  161SAPE   H8X18015   2.163   4.058   3.381
  161SAPE   H8Y18016   2.342   4.040   3.321
  161SAPE   C3918017   2.266   3.889   3.449
  161SAPE   H9X18018   2.321   3.799   3.415
  161SAPE   H9Y18019   2.171   3.845   3.488
  161SAPE  C31018020   2.328   3.954   3.571
  161SAPE  H10X18021   2.285   4.056   3.574
  161SAPE  H10Y18022   2.438   3.956   3.558
  161SAPE  C31118023   2.287   3.896   3.709
  161SAPE  H11X18024   2.330   3.795   3.723
  161SAPE  H11Y18025   2.176   3.888   3.714
  161SAPE  C31218026   2.324   3.998   3.811
  161SAPE  H12X18027   2.297   4.100   3.777
  161SAPE  H12Y18028   2.430   3.996   3.843
  161SAPE  C31318029   2.243   3.962   3.940
  161SAPE  H13X18030   2.256   3.854   3.961
  161SAPE  H13Y18031   2.137   3.981   3.914
  161SAPE  C31418032   2.272   4.038   4.069
  161SAPE  H14X18033   2.303   4.144   4.055
  161SAPE  H14Y18034   2.365   3.990   4.109
  161SAPE  C31518035   2.165   4.013   4.177
  161SAPE  H15X18036   2.172   3.904   4.195
  161SAPE  H15Y18037   2.069   4.048   4.136
  161SAPE  C31618038   2.195   4.079   4.316
  161SAPE  H16X18039   2.162   4.184   4.299
  161SAPE  H16Y18040   2.302   4.068   4.345
  161SAPE  C31718041   2.113   4.025   4.446
  161SAPE  H17X18042   2.010   4.012   4.405
  161SAPE  H17Y18043   2.112   4.105   4.523
  161SAPE  C31818044   2.177   3.900   4.500
  161SAPE  H18X18045   2.092   3.845   4.546
  161SAPE  H18Y18046   2.260   3.924   4.570
  161SAPE  H18Z18047   2.219   3.839   4.417
  162SAPE     N18048   2.567   0.142   2.270
  162SAPE   HN118049   2.528   0.114   2.362
  162SAPE   HN218050   2.671   0.148   2.262
  162SAPE   HN318051   2.538   0.242   2.263
  162SAPE   C1218052   2.505   0.044   2.170
  162SAPE  H12A18053   2.546   0.056   2.068
  162SAPE  H12B18054   2.398   0.073   2.164
  162SAPE   C1118055   2.524   6.743   2.202
  162SAPE  H11A18056   2.466   6.679   2.133
  162SAPE  H11B18057   2.485   6.722   2.304
  162SAPE     P18058   2.729   6.595   2.128
  162SAPE   O1318059   2.694   6.590   1.988
  162SAPE   O1418060   2.871   6.611   2.169
  162SAPE   O1218061   2.661   6.717   2.196
  162SAPE   O1118062   2.662   6.469   2.194
  162SAPE    C118063   2.715   6.334   2.178
  162SAPE    HA18064   2.634   6.268   2.141
  162SAPE    HB18065   2.790   6.325   2.096
  162SAPE    C218066   2.758   6.282   2.316
  162SAPE    HS18067   2.782   6.175   2.297
  162SAPE   O2118068   2.649   6.300   2.409
  162SAPE   C2118069   2.536   6.236   2.392
  162SAPE   O2218070   2.515   6.140   2.320
  162SAPE   C2218071   2.426   6.293   2.480
  162SAPE   H2R18072   2.440   6.270   2.588
  162SAPE   H2S18073   2.433   6.404   2.472
  162SAPE    C318074   2.877   6.361   2.375
  162SAPE    HX18075   2.839   6.458   2.413
  162SAPE    HY18076   2.940   6.398   2.291
  162SAPE   O3118077   2.954   6.293   2.482
  162SAPE   C3118078   3.059   6.220   2.444
  162SAPE   O3218079   3.092   6.204   2.329
  162SAPE   C3218080   3.118   6.152   2.566
  162SAPE   H2X18081   3.207   6.095   2.529
  162SAPE   H2Y18082   3.042   6.078   2.598
  162SAPE   C2318083   2.282   6.235   2.455
  162SAPE   H3R18084   2.284   6.127   2.478
  162SAPE   H3S18085   2.257   6.253   2.348
  162SAPE   C2418086   2.170   6.297   2.541
  162SAPE   H4R18087   2.196   6.300   2.649
  162SAPE   H4S18088   2.089   6.222   2.531
  162SAPE   C2518089   2.128   6.436   2.496
  162SAPE   H5R18090   2.070   6.447   2.403
  162SAPE   C2618091   2.155   6.550   2.561
  162SAPE   H6R18092   2.105   6.642   2.526
  162SAPE   C2718093   2.239   6.573   2.681
  162SAPE   H7R18094   2.321   6.643   2.652
  162SAPE   H7S18095   2.291   6.479   2.709
  162SAPE   C2818096   2.173   6.634   2.800
  162SAPE   H8R18097   2.199   6.741   2.810
  162SAPE   C2918098   2.079   6.582   2.887
  162SAPE   H9R18099   2.060   6.645   2.975
  162SAPE  C21018100   2.007   6.449   2.895
  162SAPE  H10R18101   1.979   6.425   2.791
  162SAPE  H10S18102   1.910   6.459   2.949
  162SAPE  C21118103   2.086   6.328   2.950
  162SAPE  H11R18104   2.181   6.311   2.897
  162SAPE  C21218105   2.051   6.243   3.046
  162SAPE  H12R18106   2.116   6.157   3.068
  162SAPE  C21318107   1.926   6.248   3.134
  162SAPE  H13R18108   1.885   6.145   3.134
  162SAPE  H13S18109   1.844   6.302   3.082
  162SAPE  C21418110   1.941   6.310   3.267
  162SAPE  H14R18111   1.940   6.420   3.263
  162SAPE  C21518112   1.956   6.249   3.386
  162SAPE  H15R18113   1.953   6.312   3.477
  162SAPE  C21618114   1.969   6.100   3.403
  162SAPE  H16R18115   1.964   6.051   3.303
  162SAPE  H16S18116   1.892   6.051   3.467
  162SAPE  C21718117   2.115   6.058   3.466
  162SAPE  H17R18118   2.115   6.110   3.564
  162SAPE  H17S18119   2.200   6.102   3.408
  162SAPE  C21818120   2.132   5.911   3.503
  162SAPE  H18R18121   2.109   5.848   3.414
  162SAPE  H18S18122   2.064   5.870   3.581
  162SAPE  C21918123   2.278   5.872   3.541
  162SAPE  H19R18124   2.300   5.938   3.628
  162SAPE  H19S18125   2.335   5.903   3.451
  162SAPE  C22018126   2.299   5.721   3.570
  162SAPE  H20R18127   2.268   5.651   3.489
  162SAPE  H20S18128   2.241   5.678   3.655
  162SAPE  H20T18129   2.406   5.698   3.589
  162SAPE   C3318130   3.157   6.255   2.676
  162SAPE   H3X18131   3.065   6.313   2.700
  162SAPE   H3Y18132   3.227   6.334   2.641
  162SAPE   C3418133   3.206   6.197   2.812
  162SAPE   H4X18134   3.298   6.245   2.849
  162SAPE   H4Y18135   3.223   6.089   2.792
  162SAPE   C3518136   3.109   6.209   2.927
  162SAPE   H5X18137   3.004   6.184   2.903
  162SAPE   H5Y18138   3.108   6.317   2.950
  162SAPE   C3618139   3.158   6.111   3.037
  162SAPE   H6X18140   3.263   6.124   3.069
  162SAPE   H6Y18141   3.157   6.009   2.993
  162SAPE   C3718142   3.073   6.101   3.169
  162SAPE   H7X18143   2.978   6.045   3.162
  162SAPE   H7Y18144   3.052   6.203   3.209
  162SAPE   C3818145   3.153   6.028   3.278
  162SAPE   H8X18146   3.248   6.084   3.292
  162SAPE   H8Y18147   3.173   5.924   3.243
  162SAPE   C3918148   3.081   6.018   3.414
  162SAPE   H9X18149   3.003   5.940   3.414
  162SAPE   H9Y18150   3.042   6.114   3.453
  162SAPE  C31018151   3.171   5.960   3.525
  162SAPE  H10X18152   3.249   6.038   3.535
  162SAPE  H10Y18153   3.210   5.860   3.497
  162SAPE  C31118154   3.093   5.953   3.653
  162SAPE  H11X18155   3.015   5.874   3.646
  162SAPE  H11Y18156   3.033   6.046   3.658
  162SAPE  C31218157   3.177   5.926   3.776
  162SAPE  H12X18158   3.118   5.954   3.865
  162SAPE  H12Y18159   3.273   5.982   3.772
  162SAPE  C31318160   3.207   5.775   3.797
  162SAPE  H13X18161   3.113   5.719   3.775
  162SAPE  H13Y18162   3.241   5.762   3.902
  162SAPE  C31418163   3.320   5.706   3.715
  162SAPE  H14X18164   3.407   5.775   3.727
  162SAPE  H14Y18165   3.295   5.695   3.607
  162SAPE  C31518166   3.373   5.566   3.750
  162SAPE  H15X18167   3.450   5.538   3.675
  162SAPE  H15Y18168   3.291   5.492   3.746
  162SAPE  C31618169   3.436   5.548   3.891
  162SAPE  H16X18170   3.374   5.597   3.969
  162SAPE  H16Y18171   3.535   5.600   3.893
  162SAPE  C31718172   3.453   5.396   3.924
  162SAPE  H17X18173   3.531   5.363   3.851
  162SAPE  H17Y18174   3.361   5.340   3.899
  162SAPE  C31818175   3.492   5.370   4.067
  162SAPE  H18X18176   3.408   5.400   4.132
  162SAPE  H18Y18177   3.587   5.419   4.099
  162SAPE  H18Z18178   3.513   5.261   4.072
  163SAPE     N18179   0.828   3.532   2.322
  163SAPE   HN118180   0.754   3.470   2.282
  163SAPE   HN218181   0.790   3.595   2.395
  163SAPE   HN318182   0.871   3.587   2.244
  163SAPE   C1218183   0.940   3.441   2.385
  163SAPE  H12A18184   0.941   3.363   2.306
  163SAPE  H12B18185   0.893   3.389   2.472
  163SAPE   C1118186   1.059   3.520   2.420
  163SAPE  H11A18187   1.130   3.452   2.471
  163SAPE  H11B18188   1.037   3.604   2.489
  163SAPE     P18189   1.199   3.510   2.183
  163SAPE   O1318190   1.131   3.383   2.131
  163SAPE   O1418191   1.223   3.612   2.078
  163SAPE   O1218192   1.121   3.577   2.304
  163SAPE   O1118193   1.331   3.466   2.249
  163SAPE    C118194   1.355   3.327   2.264
  163SAPE    HA18195   1.275   3.286   2.329
  163SAPE    HB18196   1.346   3.270   2.169
  163SAPE    C218197   1.488   3.294   2.336
  163SAPE    HS18198   1.488   3.195   2.386
  163SAPE   O2118199   1.502   3.388   2.441
  163SAPE   C2118200   1.424   3.391   2.542
  163SAPE   O2218201   1.355   3.293   2.584
  163SAPE   C2218202   1.395   3.528   2.600
  163SAPE   H2R18203   1.492   3.582   2.607
  163SAPE   H2S18204   1.344   3.583   2.517
  163SAPE    C318205   1.610   3.304   2.243
  163SAPE    HX18206   1.622   3.414   2.232
  163SAPE    HY18207   1.583   3.261   2.145
  163SAPE   O3118208   1.725   3.245   2.304
  163SAPE   C3118209   1.755   3.119   2.291
  163SAPE   O3218210   1.676   3.035   2.241
  163SAPE   C3218211   1.884   3.081   2.360
  163SAPE   H2X18212   1.951   3.168   2.375
  163SAPE   H2Y18213   1.942   3.019   2.289
  163SAPE   C2318214   1.309   3.532   2.728
  163SAPE   H3R18215   1.355   3.459   2.798
  163SAPE   H3S18216   1.212   3.480   2.710
  163SAPE   C2418217   1.298   3.673   2.793
  163SAPE   H4R18218   1.214   3.679   2.866
  163SAPE   H4S18219   1.265   3.737   2.708
  163SAPE   C2518220   1.426   3.727   2.850
  163SAPE   H5R18221   1.509   3.764   2.788
  163SAPE   C2618222   1.456   3.733   2.980
  163SAPE   H6R18223   1.557   3.753   3.017
  163SAPE   C2718224   1.360   3.692   3.096
  163SAPE   H7R18225   1.254   3.684   3.065
  163SAPE   H7S18226   1.374   3.766   3.178
  163SAPE   C2818227   1.401   3.563   3.145
  163SAPE   H8R18228   1.437   3.499   3.064
  163SAPE   C2918229   1.398   3.522   3.277
  163SAPE   H9R18230   1.433   3.419   3.296
  163SAPE  C21018231   1.346   3.606   3.387
  163SAPE  H10R18232   1.315   3.535   3.466
  163SAPE  H10S18233   1.257   3.669   3.363
  163SAPE  C21118234   1.435   3.715   3.439
  163SAPE  H11R18235   1.452   3.794   3.365
  163SAPE  C21218236   1.490   3.731   3.562
  163SAPE  H12R18237   1.537   3.827   3.584
  163SAPE  C21318238   1.483   3.645   3.687
  163SAPE  H13R18239   1.421   3.554   3.670
  163SAPE  H13S18240   1.436   3.701   3.771
  163SAPE  C21418241   1.627   3.621   3.726
  163SAPE  H14R18242   1.685   3.610   3.634
  163SAPE  C21518243   1.679   3.577   3.841
  163SAPE  H15R18244   1.788   3.562   3.846
  163SAPE  C21618245   1.594   3.551   3.958
  163SAPE  H16R18246   1.606   3.445   3.987
  163SAPE  H16S18247   1.484   3.548   3.942
  163SAPE  C21718248   1.617   3.654   4.070
  163SAPE  H17R18249   1.548   3.624   4.152
  163SAPE  H17S18250   1.572   3.749   4.035
  163SAPE  C21818251   1.759   3.656   4.115
  163SAPE  H18R18252   1.833   3.695   4.042
  163SAPE  H18S18253   1.798   3.553   4.121
  163SAPE  C21918254   1.768   3.720   4.251
  163SAPE  H19R18255   1.696   3.677   4.323
  163SAPE  H19S18256   1.752   3.830   4.250
  163SAPE  C22018257   1.909   3.700   4.312
  163SAPE  H20R18258   1.919   3.757   4.406
  163SAPE  H20S18259   1.980   3.738   4.236
  163SAPE  H20T18260   1.937   3.593   4.326
  163SAPE   C3318261   1.867   2.983   2.482
  163SAPE   H3X18262   1.966   2.959   2.526
  163SAPE   H3Y18263   1.822   2.887   2.450
  163SAPE   C3418264   1.790   3.035   2.610
  163SAPE   H4X18265   1.763   2.956   2.683
  163SAPE   H4Y18266   1.695   3.075   2.569
  163SAPE   C3518267   1.869   3.143   2.685
  163SAPE   H5X18268   1.907   3.207   2.603
  163SAPE   H5Y18269   1.964   3.104   2.727
  163SAPE   C3618270   1.798   3.238   2.781
  163SAPE   H6X18271   1.737   3.305   2.717
  163SAPE   H6Y18272   1.864   3.314   2.829
  163SAPE   C3718273   1.702   3.171   2.886
  163SAPE   H7X18274   1.775   3.098   2.926
  163SAPE   H7Y18275   1.629   3.098   2.843
  163SAPE   C3818276   1.649   3.270   2.994
  163SAPE   H8X18277   1.574   3.334   2.944
  163SAPE   H8Y18278   1.740   3.323   3.030
  163SAPE   C3918279   1.572   3.203   3.110
  163SAPE   H9X18280   1.501   3.144   3.050
  163SAPE   H9Y18281   1.529   3.291   3.164
  163SAPE  C31018282   1.670   3.121   3.202
  163SAPE  H10X18283   1.741   3.187   3.256
  163SAPE  H10Y18284   1.718   3.041   3.143
  163SAPE  C31118285   1.591   3.040   3.311
  163SAPE  H11X18286   1.662   2.971   3.361
  163SAPE  H11Y18287   1.519   2.971   3.261
  163SAPE  C31218288   1.519   3.128   3.412
  163SAPE  H12X18289   1.450   3.199   3.364
  163SAPE  H12Y18290   1.598   3.197   3.449
  163SAPE  C31318291   1.451   3.051   3.523
  163SAPE  H13X18292   1.500   2.955   3.551
  163SAPE  H13Y18293   1.352   3.021   3.482
  163SAPE  C31418294   1.441   3.124   3.650
  163SAPE  H14X18295   1.540   3.138   3.699
  163SAPE  H14Y18296   1.393   3.046   3.714
  163SAPE  C31518297   1.366   3.258   3.651
  163SAPE  H15X18298   1.267   3.243   3.602
  163SAPE  H15Y18299   1.424   3.331   3.591
  163SAPE  C31618300   1.345   3.331   3.788
  163SAPE  H16X18301   1.294   3.426   3.765
  163SAPE  H16Y18302   1.443   3.359   3.833
  163SAPE  C31718303   1.264   3.233   3.875
  163SAPE  H17X18304   1.332   3.155   3.914
  163SAPE  H17Y18305   1.167   3.199   3.834
  163SAPE  C31818306   1.208   3.299   4.000
  163SAPE  H18X18307   1.134   3.375   3.968
  163SAPE  H18Y18308   1.292   3.339   4.061
  163SAPE  H18Z18309   1.145   3.230   4.060
  164SAPE     N18310   6.353   3.712   2.557
  164SAPE   HN118311   6.345   3.691   2.659
  164SAPE   HN218312   6.276   3.771   2.520
  164SAPE   HN318313   6.334   3.626   2.503
  164SAPE   C1218314   6.480   3.784   2.529
  164SAPE  H12A18315   6.508   3.768   2.422
  164SAPE  H12B18316   6.549   3.729   2.596
  164SAPE   C1118317   6.470   3.929   2.569
  164SAPE  H11A18318   6.574   3.968   2.579
  164SAPE  H11B18319   6.439   3.942   2.675
  164SAPE     P18320   6.438   4.159   2.462
  164SAPE   O1318321   6.588   4.169   2.452
  164SAPE   O1418322   6.357   4.230   2.360
  164SAPE   O1218323   6.397   4.010   2.478
  164SAPE   O1118324   6.399   4.223   2.604
  164SAPE    C118325   6.266   4.214   2.645
  164SAPE    HA18326   6.220   4.308   2.608
  164SAPE    HB18327   6.214   4.131   2.593
  164SAPE    C218328   6.254   4.220   2.800
  164SAPE    HS18329   6.301   4.314   2.837
  164SAPE   O2118330   6.310   4.093   2.854
  164SAPE   C2118331   6.374   4.108   2.966
  164SAPE   O2218332   6.389   4.216   3.019
  164SAPE   C2218333   6.423   3.972   3.017
  164SAPE   H2R18334   6.340   3.925   3.074
  164SAPE   H2S18335   6.455   3.903   2.936
  164SAPE    C318336   6.103   4.232   2.829
  164SAPE    HX18337   6.064   4.133   2.797
  164SAPE    HY18338   6.067   4.314   2.764
  164SAPE   O3118339   6.082   4.249   2.973
  164SAPE   C3118340   6.079   4.374   3.012
  164SAPE   O3218341   6.089   4.466   2.932
  164SAPE   C3218342   6.061   4.390   3.164
  164SAPE   H2X18343   5.959   4.354   3.188
  164SAPE   H2Y18344   6.080   4.497   3.188
  164SAPE   C2318345   6.536   3.993   3.128
  164SAPE   H3R18346   6.616   4.062   3.092
  164SAPE   H3S18347   6.584   3.893   3.131
  164SAPE   C2418348   6.482   4.043   3.262
  164SAPE   H4R18349   6.397   3.984   3.302
  164SAPE   H4S18350   6.448   4.148   3.255
  164SAPE   C2518351   6.598   4.025   3.362
  164SAPE   H5R18352   6.683   3.963   3.329
  164SAPE   C2618353   6.614   4.102   3.470
  164SAPE   H6R18354   6.706   4.102   3.529
  164SAPE   C2718355   6.515   4.207   3.520
  164SAPE   H7R18356   6.409   4.175   3.513
  164SAPE   H7S18357   6.507   4.292   3.449
  164SAPE   C2818358   6.542   4.260   3.661
  164SAPE   H8R18359   6.587   4.360   3.674
  164SAPE   C2918360   6.477   4.211   3.775
  164SAPE   H9R18361   6.494   4.252   3.875
  164SAPE  C21018362   6.386   4.088   3.770
  164SAPE  H10R18363   6.444   4.017   3.833
  164SAPE  H10S18364   6.393   4.039   3.670
  164SAPE  C21118365   6.241   4.101   3.816
  164SAPE  H11R18366   6.189   4.197   3.798
  164SAPE  C21218367   6.177   4.017   3.896
  164SAPE  H12R18368   6.080   4.050   3.938
  164SAPE  C21318369   6.215   3.883   3.944
  164SAPE  H13R18370   6.237   3.898   4.052
  164SAPE  H13S18371   6.311   3.850   3.901
  164SAPE  C21418372   6.120   3.768   3.910
  164SAPE  H14R18373   6.095   3.754   3.804
  164SAPE  C21518374   6.094   3.671   4.003
  164SAPE  H15R18375   6.043   3.580   3.969
  164SAPE  C21618376   6.137   3.649   4.139
  164SAPE  H16R18377   6.054   3.600   4.194
  164SAPE  H16S18378   6.177   3.733   4.200
  164SAPE  C21718379   6.251   3.547   4.130
  164SAPE  H17R18380   6.331   3.579   4.060
  164SAPE  H17S18381   6.209   3.457   4.079
  164SAPE  C21818382   6.314   3.506   4.260
  164SAPE  H18R18383   6.378   3.417   4.243
  164SAPE  H18S18384   6.240   3.463   4.330
  164SAPE  C21918385   6.383   3.621   4.343
  164SAPE  H19R18386   6.425   3.564   4.429
  164SAPE  H19S18387   6.304   3.686   4.384
  164SAPE  C22018388   6.488   3.711   4.280
  164SAPE  H20R18389   6.436   3.780   4.210
  164SAPE  H20S18390   6.576   3.657   4.239
  164SAPE  H20T18391   6.532   3.777   4.358
  164SAPE   C3318392   6.153   4.306   3.254
  164SAPE   H3X18393   6.258   4.336   3.235
  164SAPE   H3Y18394   6.138   4.202   3.216
  164SAPE   C3418395   6.121   4.319   3.401
  164SAPE   H4X18396   6.175   4.242   3.460
  164SAPE   H4Y18397   6.011   4.301   3.407
  164SAPE   C3518398   6.165   4.448   3.470
  164SAPE   H5X18399   6.105   4.532   3.431
  164SAPE   H5Y18400   6.273   4.455   3.447
  164SAPE   C3618401   6.166   4.446   3.624
  164SAPE   H6X18402   6.226   4.357   3.654
  164SAPE   H6Y18403   6.066   4.431   3.670
  164SAPE   C3718404   6.214   4.575   3.686
  164SAPE   H7X18405   6.177   4.665   3.632
  164SAPE   H7Y18406   6.324   4.580   3.672
  164SAPE   C3818407   6.175   4.581   3.835
  164SAPE   H8X18408   6.064   4.577   3.838
  164SAPE   H8Y18409   6.191   4.685   3.869
  164SAPE   C3918410   6.253   4.488   3.926
  164SAPE   H9X18411   6.361   4.473   3.907
  164SAPE   H9Y18412   6.211   4.386   3.916
  164SAPE  C31018413   6.248   4.537   4.072
  164SAPE  H10X18414   6.160   4.604   4.088
  164SAPE  H10Y18415   6.335   4.602   4.097
  164SAPE  C31118416   6.236   4.423   4.170
  164SAPE  H11X18417   6.317   4.349   4.154
  164SAPE  H11Y18418   6.144   4.375   4.130
  164SAPE  C31218419   6.234   4.465   4.317
  164SAPE  H12X18420   6.197   4.381   4.380
  164SAPE  H12Y18421   6.165   4.552   4.326
  164SAPE  C31318422   6.371   4.501   4.374
  164SAPE  H13X18423   6.393   4.608   4.355
  164SAPE  H13Y18424   6.453   4.450   4.319
  164SAPE  C31418425   6.400   4.469   4.526
  164SAPE  H14X18426   6.510   4.485   4.525
  164SAPE  H14Y18427   6.377   4.361   4.543
  164SAPE  C31518428   6.329   4.562   4.618
  164SAPE  H15X18429   6.333   4.669   4.589
  164SAPE  H15Y18430   6.382   4.566   4.716
  164SAPE  C31618431   6.187   4.524   4.652
  164SAPE  H16X18432   6.188   4.416   4.678
  164SAPE  H16Y18433   6.129   4.530   4.558
  164SAPE  C31718434   6.131   4.618   4.758
  164SAPE  H17X18435   6.149   4.724   4.732
  164SAPE  H17Y18436   6.180   4.605   4.857
  164SAPE  C31818437   5.975   4.590   4.780
  164SAPE  H18X18438   5.938   4.655   4.862
  164SAPE  H18Y18439   5.956   4.485   4.813
  164SAPE  H18Z18440   5.928   4.609   4.681
  165SAPE     N18441   6.011   0.639   2.454
  165SAPE   HN118442   5.934   0.676   2.515
  165SAPE   HN218443   6.038   0.542   2.479
  165SAPE   HN318444   6.090   0.705   2.469
  165SAPE   C1218445   5.973   0.636   2.312
  165SAPE  H12A18446   6.062   0.614   2.249
  165SAPE  H12B18447   5.937   0.737   2.286
  165SAPE   C1118448   5.861   0.532   2.290
  165SAPE  H11A18449   5.824   0.527   2.185
  165SAPE  H11B18450   5.781   0.580   2.349
  165SAPE     P18451   6.000   0.301   2.311
  165SAPE   O1318452   6.005   0.293   2.163
  165SAPE   O1418453   6.121   0.353   2.378
  165SAPE   O1218454   5.883   0.405   2.344
  165SAPE   O1118455   5.968   0.159   2.368
  165SAPE    C118456   5.836   0.136   2.427
  165SAPE    HA18457   5.756   0.167   2.355
  165SAPE    HB18458   5.829   0.030   2.460
  165SAPE    C218459   5.817   0.201   2.563
  165SAPE    HS18460   5.861   0.304   2.561
  165SAPE   O2118461   5.887   0.129   2.662
  165SAPE   C2118462   5.905   0.189   2.776
  165SAPE   O2218463   5.868   0.296   2.811
  165SAPE   C2218464   6.004   0.095   2.858
  165SAPE   H2R18465   5.941   0.018   2.906
  165SAPE   H2S18466   6.070   0.040   2.788
  165SAPE    C318467   5.664   0.205   2.605
  165SAPE    HX18468   5.604   0.242   2.519
  165SAPE    HY18469   5.654   0.270   2.695
  165SAPE   O3118470   5.624   0.072   2.646
  165SAPE   C3118471   5.503   0.060   2.683
  165SAPE   O3218472   5.425   0.151   2.697
  165SAPE   C3218473   5.471   6.757   2.710
  165SAPE   H2X18474   5.542   6.697   2.649
  165SAPE   H2Y18475   5.367   6.740   2.673
  165SAPE   C2318476   6.090   0.175   2.962
  165SAPE   H3R18477   6.031   0.229   3.039
  165SAPE   H3S18478   6.147   0.252   2.906
  165SAPE   C2418479   6.182   0.082   3.041
  165SAPE   H4R18480   6.245   0.024   2.971
  165SAPE   H4S18481   6.109   0.018   3.095
  165SAPE   C2518482   6.257   0.164   3.146
  165SAPE   H5R18483   6.322   0.245   3.109
  165SAPE   C2618484   6.256   0.131   3.276
  165SAPE   H6R18485   6.324   0.181   3.346
  165SAPE   C2718486   6.175   0.023   3.352
  165SAPE   H7R18487   6.237   6.800   3.416
  165SAPE   H7S18488   6.141   6.791   3.278
  165SAPE   C2818489   6.055   0.073   3.427
  165SAPE   H8R18490   5.973   0.118   3.368
  165SAPE   C2918491   6.037   0.072   3.563
  165SAPE   H9R18492   5.944   0.120   3.598
  165SAPE  C21018493   6.123   0.007   3.670
  165SAPE  H10R18494   6.168   6.753   3.641
  165SAPE  H10S18495   6.059   6.832   3.759
  165SAPE  C21118496   6.243   0.096   3.700
  165SAPE  H11R18497   6.294   0.155   3.622
  165SAPE  C21218498   6.291   0.110   3.826
  165SAPE  H12R18499   6.379   0.171   3.851
  165SAPE  C21318500   6.246   0.039   3.948
  165SAPE  H13R18501   6.139   0.008   3.946
  165SAPE  H13S18502   6.242   0.117   4.027
  165SAPE  C21418503   6.320   6.757   3.962
  165SAPE  H14R18504   6.366   6.717   3.871
  165SAPE  C21518505   6.342   6.698   4.084
  165SAPE  H15R18506   6.403   6.606   4.087
  165SAPE  C21618507   6.302   6.743   4.219
  165SAPE  H16R18508   6.236   6.662   4.259
  165SAPE  H16S18509   6.246   6.839   4.210
  165SAPE  C21718510   6.424   6.761   4.317
  165SAPE  H17R18511   6.451   6.654   4.333
  165SAPE  H17S18512   6.385   6.798   4.415
  165SAPE  C21818513   6.543   0.004   4.266
  165SAPE  H18R18514   6.519   0.013   4.158
  165SAPE  H18S18515   6.634   6.785   4.282
  165SAPE  C21918516   6.560   0.133   4.341
  165SAPE  H19R18517   6.657   0.185   4.321
  165SAPE  H19S18518   6.560   0.097   4.446
  165SAPE  C22018519   6.436   0.224   4.335
  165SAPE  H20R18520   6.446   0.315   4.399
  165SAPE  H20S18521   6.344   0.179   4.379
  165SAPE  H20T18522   6.418   0.246   4.228
  165SAPE   C3318523   5.472   6.716   2.855
  165SAPE   H3X18524   5.437   6.612   2.870
  165SAPE   H3Y18525   5.408   6.789   2.909
  165SAPE   C3418526   5.616   6.712   2.910
  165SAPE   H4X18527   5.673   6.785   2.849
  165SAPE   H4Y18528   5.677   6.622   2.888
  165SAPE   C3518529   5.630   6.744   3.058
  165SAPE   H5X18530   5.735   6.726   3.088
  165SAPE   H5Y18531   5.551   6.689   3.113
  165SAPE   C3618532   5.613   0.047   3.094
  165SAPE   H6X18533   5.507   0.069   3.067
  165SAPE   H6Y18534   5.668   0.111   3.022
  165SAPE   C3718535   5.645   0.082   3.239
  165SAPE   H7X18536   5.614   0.187   3.253
  165SAPE   H7Y18537   5.755   0.083   3.256
  165SAPE   C3818538   5.587   6.829   3.348
  165SAPE   H8X18539   5.618   6.724   3.332
  165SAPE   H8Y18540   5.477   6.832   3.332
  165SAPE   C3918541   5.606   0.042   3.492
  165SAPE   H9X18542   5.550   0.138   3.504
  165SAPE   H9Y18543   5.715   0.062   3.495
  165SAPE  C31018544   5.556   6.797   3.610
  165SAPE  H10X18545   5.623   6.709   3.599
  165SAPE  H10Y18546   5.452   6.762   3.591
  165SAPE  C31118547   5.573   0.014   3.752
  165SAPE  H11X18548   5.558   6.777   3.828
  165SAPE  H11Y18549   5.499   0.095   3.767
  165SAPE  C31218550   5.712   0.074   3.770
  165SAPE  H12X18551   5.719   0.145   3.684
  165SAPE  H12Y18552   5.790   6.839   3.759
  165SAPE  C31318553   5.726   0.149   3.897
  165SAPE  H13X18554   5.629   0.203   3.898
  165SAPE  H13Y18555   5.806   0.226   3.889
  165SAPE  C31418556   5.743   0.068   4.018
  165SAPE  H14X18557   5.849   0.036   4.005
  165SAPE  H14Y18558   5.671   6.827   4.027
  165SAPE  C31518559   5.711   0.141   4.154
  165SAPE  H15X18560   5.710   0.071   4.241
  165SAPE  H15Y18561   5.615   0.197   4.149
  165SAPE  C31618562   5.815   0.258   4.178
  165SAPE  H16X18563   5.793   0.317   4.270
  165SAPE  H16Y18564   5.818   0.330   4.094
  165SAPE  C31718565   5.952   0.196   4.199
  165SAPE  H17X18566   5.974   0.159   4.097
  165SAPE  H17Y18567   5.950   0.105   4.262
  165SAPE  C31818568   6.070   0.293   4.231
  165SAPE  H18X18569   6.087   0.314   4.338
  165SAPE  H18Y18570   6.079   0.382   4.165
  165SAPE  H18Z18571   6.168   0.245   4.209
  166SAPE     N18572   0.225   5.214   2.306
  166SAPE   HN118573   0.199   5.138   2.372
  166SAPE   HN218574   0.264   5.179   2.217
  166SAPE   HN318575   0.302   5.272   2.347
  166SAPE   C1218576   0.101   5.304   2.299
  166SAPE  H12A18577   0.125   5.371   2.214
  166SAPE  H12B18578   0.086   5.357   2.395
  166SAPE   C1118579   6.814   5.226   2.271
  166SAPE  H11A18580   6.821   5.168   2.176
  166SAPE  H11B18581   6.734   5.303   2.263
  166SAPE     P18582   6.675   5.039   2.364
  166SAPE   O1318583   6.563   5.104   2.294
  166SAPE   O1418584   6.728   4.913   2.307
  166SAPE   O1218585   6.792   5.138   2.382
  166SAPE   O1118586   6.620   5.006   2.512
  166SAPE    C118587   6.550   5.101   2.589
  166SAPE    HA18588   6.443   5.099   2.560
  166SAPE    HB18589   6.543   5.060   2.692
  166SAPE    C218590   6.616   5.235   2.602
  166SAPE    HS18591   6.629   5.287   2.504
  166SAPE   O2118592   6.747   5.228   2.651
  166SAPE   C2118593   6.825   5.338   2.661
  166SAPE   O2218594   6.801   5.446   2.620
  166SAPE   C2218595   0.115   5.305   2.732
  166SAPE   H2R18596   0.095   5.220   2.800
  166SAPE   H2S18597   0.187   5.277   2.652
  166SAPE    C318598   6.520   5.323   2.684
  166SAPE    HX18599   6.430   5.328   2.620
  166SAPE    HY18600   6.571   5.421   2.698
  166SAPE   O3118601   6.492   5.273   2.816
  166SAPE   C3118602   6.374   5.295   2.859
  166SAPE   O3218603   6.281   5.354   2.808
  166SAPE   C3218604   6.371   5.246   3.008
  166SAPE   H2X18605   6.479   5.244   3.033
  166SAPE   H2Y18606   6.324   5.146   3.019
  166SAPE   C2318607   0.180   5.427   2.804
  166SAPE   H3R18608   0.131   5.464   2.897
  166SAPE   H3S18609   0.182   5.507   2.727
  166SAPE   C2418610   0.329   5.403   2.845
  166SAPE   H4R18611   0.367   5.506   2.863
  166SAPE   H4S18612   0.382   5.367   2.754
  166SAPE   C2518613   0.357   5.307   2.956
  166SAPE   H5R18614   0.337   5.202   2.928
  166SAPE   C2618615   0.355   5.325   3.089
  166SAPE   H6R18616   0.382   5.246   3.161
  166SAPE   C2718617   0.341   5.459   3.157
  166SAPE   H7R18618   0.232   5.474   3.172
  166SAPE   H7S18619   0.374   5.539   3.088
  166SAPE   C2818620   0.418   5.468   3.291
  166SAPE   H8R18621   0.528   5.476   3.285
  166SAPE   C2918622   0.364   5.491   3.415
  166SAPE   H9R18623   0.431   5.501   3.502
  166SAPE  C21018624   0.214   5.500   3.438
  166SAPE  H10R18625   0.159   5.422   3.381
  166SAPE  H10S18626   0.183   5.601   3.404
  166SAPE  C21118627   0.173   5.476   3.586
  166SAPE  H11R18628   0.246   5.429   3.654
  166SAPE  C21218629   0.053   5.506   3.637
  166SAPE  H12R18630   0.038   5.494   3.745
  166SAPE  C21318631   6.780   5.563   3.552
  166SAPE  H13R18632   6.824   5.634   3.479
  166SAPE  H13S18633   6.710   5.621   3.615
  166SAPE  C21418634   6.705   5.450   3.487
  166SAPE  H14R18635   6.683   5.361   3.548
  166SAPE  C21518636   6.679   5.437   3.358
  166SAPE  H15R18637   6.625   5.348   3.322
  166SAPE  C21618638   6.714   5.542   3.253
  166SAPE  H16R18639   6.804   5.503   3.201
  166SAPE  H16S18640   6.741   5.640   3.297
  166SAPE  C21718641   6.588   5.558   3.150
  166SAPE  H17R18642   6.507   5.583   3.221
  166SAPE  H17S18643   6.572   5.456   3.108
  166SAPE  C21818644   6.602   5.663   3.041
  166SAPE  H18R18645   6.690   5.643   2.976
  166SAPE  H18S18646   6.618   5.761   3.090
  166SAPE  C21918647   6.493   5.642   2.931
  166SAPE  H19R18648   6.393   5.643   2.979
  166SAPE  H19S18649   6.510   5.540   2.890
  166SAPE  C22018650   6.491   5.743   2.817
  166SAPE  H20R18651   6.427   5.702   2.737
  166SAPE  H20S18652   6.590   5.772   2.775
  166SAPE  H20T18653   6.438   5.832   2.857
  166SAPE   C3318654   6.302   5.351   3.101
  166SAPE   H3X18655   6.197   5.358   3.067
  166SAPE   H3Y18656   6.340   5.456   3.099
  166SAPE   C3418657   6.312   5.303   3.250
  166SAPE   H4X18658   6.412   5.277   3.290
  166SAPE   H4Y18659   6.252   5.210   3.258
  166SAPE   C3518660   6.250   5.416   3.331
  166SAPE   H5X18661   6.144   5.435   3.303
  166SAPE   H5Y18662   6.298   5.513   3.306
  166SAPE   C3618663   6.252   5.399   3.489
  166SAPE   H6X18664   6.361   5.414   3.505
  166SAPE   H6Y18665   6.208   5.301   3.518
  166SAPE   C3718666   6.182   5.519   3.560
  166SAPE   H7X18667   6.072   5.517   3.549
  166SAPE   H7Y18668   6.232   5.605   3.510
  166SAPE   C3818669   6.219   5.521   3.715
  166SAPE   H8X18670   6.326   5.506   3.740
  166SAPE   H8Y18671   6.161   5.439   3.762
  166SAPE   C3918672   6.165   5.646   3.791
  166SAPE   H9X18673   6.055   5.662   3.794
  166SAPE   H9Y18674   6.216   5.737   3.750
  166SAPE  C31018675   6.212   5.638   3.937
  166SAPE  H10X18676   6.162   5.723   3.988
  166SAPE  H10Y18677   6.321   5.662   3.930
  166SAPE  C31118678   6.189   5.513   4.017
  166SAPE  H11X18679   6.242   5.517   4.115
  166SAPE  H11Y18680   6.234   5.422   3.970
  166SAPE  C31218681   6.037   5.483   4.036
  166SAPE  H12X18682   5.993   5.462   3.936
  166SAPE  H12Y18683   5.987   5.574   4.073
  166SAPE  C31318684   6.018   5.352   4.120
  166SAPE  H13X18685   6.058   5.374   4.221
  166SAPE  H13Y18686   6.071   5.268   4.068
  166SAPE  C31418687   5.873   5.320   4.126
  166SAPE  H14X18688   5.841   5.293   4.023
  166SAPE  H14Y18689   5.818   5.408   4.165
  166SAPE  C31518690   5.831   5.204   4.215
  166SAPE  H15X18691   5.829   5.228   4.323
  166SAPE  H15Y18692   5.898   5.117   4.202
  166SAPE  C31618693   5.686   5.162   4.175
  166SAPE  H16X18694   5.701   5.114   4.076
  166SAPE  H16Y18695   5.629   5.258   4.165
  166SAPE  C31718696   5.611   5.067   4.271
  166SAPE  H17X18697   5.596   5.119   4.368
  166SAPE  H17Y18698   5.669   4.975   4.290
  166SAPE  C31818699   5.466   5.022   4.225
  166SAPE  H18X18700   5.388   5.097   4.251
  166SAPE  H18Y18701   5.433   4.924   4.264
  166SAPE  H18Z18702   5.466   5.023   4.114
  167SAPE     N18703   5.724   3.378   2.423
  167SAPE   HN118704   5.700   3.356   2.522
  167SAPE   HN218705   5.647   3.399   2.357
  167SAPE   HN318706   5.775   3.297   2.384
  167SAPE   C1218707   5.809   3.499   2.418
  167SAPE  H12A18708   5.733   3.578   2.395
  167SAPE  H12B18709   5.886   3.483   2.340
  167SAPE   C1118710   5.865   3.508   2.559
  167SAPE  H11A18711   5.779   3.503   2.631
  167SAPE  H11B18712   5.918   3.605   2.571
  167SAPE     P18713   6.089   3.385   2.578
  167SAPE   O1318714   6.124   3.258   2.513
  167SAPE   O1418715   6.149   3.508   2.521
  167SAPE   O1218716   5.933   3.393   2.587
  167SAPE   O1118717   6.133   3.377   2.725
  167SAPE    C118718   6.080   3.465   2.828
  167SAPE    HA18719   5.989   3.522   2.799
  167SAPE    HB18720   6.064   3.392   2.910
  167SAPE    C218721   6.187   3.562   2.886
  167SAPE    HS18722   6.212   3.631   2.802
  167SAPE   O2118723   6.304   3.491   2.934
  167SAPE   C2118724   6.423   3.543   2.904
  167SAPE   O2218725   6.439   3.625   2.816
  167SAPE   C2218726   6.535   3.485   2.986
  167SAPE   H2R18727   6.496   3.396   3.040
  167SAPE   H2S18728   6.616   3.452   2.917
  167SAPE    C318729   6.118   3.643   3.000
  167SAPE    HX18730   6.033   3.702   2.959
  167SAPE    HY18731   6.182   3.725   3.040
  167SAPE   O3118732   6.073   3.564   3.112
  167SAPE   C3118733   6.172   3.533   3.199
  167SAPE   O3218734   6.288   3.571   3.196
  167SAPE   C3218735   6.108   3.448   3.303
  167SAPE   H2X18736   6.042   3.375   3.253
  167SAPE   H2Y18737   6.058   3.516   3.376
  167SAPE   C2318738   6.588   3.602   3.066
  167SAPE   H3R18739   6.501   3.652   3.113
  167SAPE   H3S18740   6.641   3.673   2.999
  167SAPE   C2418741   6.678   3.560   3.179
  167SAPE   H4R18742   6.726   3.653   3.216
  167SAPE   H4S18743   6.766   3.506   3.137
  167SAPE   C2518744   6.612   3.479   3.289
  167SAPE   H5R18745   6.609   3.374   3.257
  167SAPE   C2618746   6.545   3.540   3.389
  167SAPE   H6R18747   6.493   3.466   3.451
  167SAPE   C2718748   6.543   3.694   3.406
  167SAPE   H7R18749   6.470   3.755   3.348
  167SAPE   H7S18750   6.648   3.726   3.392
  167SAPE   C2818751   6.502   3.725   3.545
  167SAPE   H8R18752   6.584   3.717   3.618
  167SAPE   C2918753   6.383   3.758   3.598
  167SAPE   H9R18754   6.366   3.779   3.704
  167SAPE  C21018755   6.255   3.755   3.520
  167SAPE  H10R18756   6.195   3.672   3.564
  167SAPE  H10S18757   6.270   3.722   3.415
  167SAPE  C21118758   6.176   3.888   3.531
  167SAPE  H11R18759   6.176   3.932   3.632
  167SAPE  C21218760   6.107   3.942   3.427
  167SAPE  H12R18761   6.042   4.027   3.451
  167SAPE  C21318762   6.098   3.886   3.283
  167SAPE  H13R18763   6.101   3.775   3.284
  167SAPE  H13S18764   6.190   3.906   3.223
  167SAPE  C21418765   5.992   3.943   3.189
  167SAPE  H14R18766   6.032   4.017   3.117
  167SAPE  C21518767   5.854   3.942   3.207
  167SAPE  H15R18768   5.782   3.966   3.128
  167SAPE  C21618769   5.787   3.867   3.323
  167SAPE  H16R18770   5.759   3.944   3.398
  167SAPE  H16S18771   5.853   3.795   3.375
  167SAPE  C21718772   5.660   3.795   3.281
  167SAPE  H17R18773   5.593   3.856   3.217
  167SAPE  H17S18774   5.615   3.771   3.379
  167SAPE  C21818775   5.693   3.666   3.201
  167SAPE  H18R18776   5.613   3.594   3.230
  167SAPE  H18S18777   5.788   3.625   3.241
  167SAPE  C21918778   5.704   3.670   3.051
  167SAPE  H19R18779   5.778   3.749   3.025
  167SAPE  H19S18780   5.604   3.703   3.017
  167SAPE  C22018781   5.744   3.543   2.981
  167SAPE  H20R18782   5.845   3.522   3.021
  167SAPE  H20S18783   5.756   3.563   2.872
  167SAPE  H20T18784   5.677   3.457   3.003
  167SAPE   C3318785   6.215   3.380   3.389
  167SAPE   H3X18786   6.233   3.450   3.474
  167SAPE   H3Y18787   6.309   3.357   3.335
  167SAPE   C3418788   6.171   3.248   3.458
  167SAPE   H4X18789   6.255   3.200   3.512
  167SAPE   H4Y18790   6.131   3.177   3.383
  167SAPE   C3518791   6.064   3.270   3.572
  167SAPE   H5X18792   6.038   3.165   3.599
  167SAPE   H5Y18793   5.972   3.313   3.528
  167SAPE   C3618794   6.105   3.359   3.690
  167SAPE   H6X18795   6.018   3.364   3.760
  167SAPE   H6Y18796   6.120   3.461   3.647
  167SAPE   C3718797   6.240   3.303   3.753
  167SAPE   H7X18798   6.275   3.386   3.818
  167SAPE   H7Y18799   6.322   3.266   3.688
  167SAPE   C3818800   6.219   3.194   3.858
  167SAPE   H8X18801   6.175   3.104   3.811
  167SAPE   H8Y18802   6.159   3.231   3.944
  167SAPE   C3918803   6.356   3.160   3.929
  167SAPE   H9X18804   6.418   3.251   3.945
  167SAPE   H9Y18805   6.408   3.098   3.854
  167SAPE  C31018806   6.345   3.082   4.058
  167SAPE  H10X18807   6.309   2.982   4.027
  167SAPE  H10Y18808   6.272   3.137   4.122
  167SAPE  C31118809   6.479   3.085   4.140
  167SAPE  H11X18810   6.462   3.048   4.243
  167SAPE  H11Y18811   6.500   3.193   4.158
  167SAPE  C31218812   6.595   3.010   4.074
  167SAPE  H12X18813   6.621   3.038   3.969
  167SAPE  H12Y18814   6.563   2.904   4.075
  167SAPE  C31318815   6.727   3.009   4.155
  167SAPE  H13X18816   6.707   2.976   4.260
  167SAPE  H13Y18817   6.761   3.115   4.148
  167SAPE  C31418818   6.831   2.902   4.107
  167SAPE  H14X18819   6.789   2.804   4.137
  167SAPE  H14Y18820   0.080   2.925   4.166
  167SAPE  C31518821   0.026   2.909   3.964
  167SAPE  H15X18822   0.067   3.012   3.953
  167SAPE  H15Y18823   6.772   2.900   3.911
  167SAPE  C31618824   0.125   2.796   3.919
  167SAPE  H16X18825   0.091   2.694   3.948
  167SAPE  H16Y18826   0.225   2.807   3.967
  167SAPE  C31718827   0.151   2.812   3.769
  167SAPE  H17X18828   0.153   2.920   3.744
  167SAPE  H17Y18829   0.060   2.767   3.725
  167SAPE  C31818830   0.279   2.746   3.713
  167SAPE  H18X18831   0.299   2.789   3.612
  167SAPE  H18Y18832   0.264   2.636   3.716
  167SAPE  H18Z18833   0.364   2.765   3.782
  168SAPE     N18834   2.692   5.018   2.480
  168SAPE   HN118835   2.743   4.986   2.565
  168SAPE   HN218836   2.734   5.097   2.427
  168SAPE   HN318837   2.602   5.057   2.514
  168SAPE   C1218838   2.646   4.904   2.397
  168SAPE  H12A18839   2.581   4.838   2.458
  168SAPE  H12B18840   2.740   4.855   2.363
  168SAPE   C1118841   2.555   4.954   2.277
  168SAPE  H11A18842   2.585   4.894   2.188
  168SAPE  H11B18843   2.580   5.059   2.250
  168SAPE     P18844   2.333   5.046   2.377
  168SAPE   O1318845   2.298   5.156   2.284
  168SAPE   O1418846   2.226   4.975   2.455
  168SAPE   O1218847   2.414   4.938   2.298
  168SAPE   O1118848   2.439   5.096   2.485
  168SAPE    C118849   2.405   5.201   2.569
  168SAPE    HA18850   2.447   5.296   2.529
  168SAPE    HB18851   2.296   5.222   2.576
  168SAPE    C218852   2.449   5.178   2.715
  168SAPE    HS18853   2.404   5.255   2.780
  168SAPE   O2118854   2.590   5.175   2.747
  168SAPE   C2118855   2.643   5.302   2.755
  168SAPE   O2218856   2.585   5.403   2.732
  168SAPE   C2218857   2.796   5.287   2.790
  168SAPE   H2R18858   2.792   5.220   2.878
  168SAPE   H2S18859   2.841   5.223   2.712
  168SAPE    C318860   2.389   5.050   2.765
  168SAPE    HX18861   2.424   4.953   2.724
  168SAPE    HY18862   2.287   5.051   2.720
  168SAPE   O3118863   2.362   5.039   2.905
  168SAPE   C3118864   2.453   4.968   2.978
  168SAPE   O3218865   2.563   4.926   2.937
  168SAPE   C3218866   2.401   4.951   3.124
  168SAPE   H2X18867   2.319   4.878   3.108
  168SAPE   H2Y18868   2.350   5.045   3.153
  168SAPE   C2318869   2.880   5.421   2.802
  168SAPE   H3R18870   2.838   5.497   2.733
  168SAPE   H3S18871   2.985   5.401   2.771
  168SAPE   C2418872   2.878   5.471   2.946
  168SAPE   H4R18873   2.921   5.392   3.010
  168SAPE   H4S18874   2.774   5.483   2.984
  168SAPE   C2518875   2.953   5.603   2.950
  168SAPE   H5R18876   3.038   5.604   2.880
  168SAPE   C2618877   2.929   5.712   3.029
  168SAPE   H6R18878   3.002   5.794   3.037
  168SAPE   C2718879   2.815   5.730   3.132
  168SAPE   H7R18880   2.870   5.782   3.213
  168SAPE   H7S18881   2.781   5.634   3.176
  168SAPE   C2818882   2.702   5.807   3.074
  168SAPE   H8R18883   2.671   5.797   2.969
  168SAPE   C2918884   2.632   5.902   3.144
  168SAPE   H9R18885   2.541   5.947   3.101
  168SAPE  C21018886   2.652   5.919   3.287
  168SAPE  H10R18887   2.755   5.960   3.298
  168SAPE  H10S18888   2.648   5.824   3.344
  168SAPE  C21118889   2.558   6.012   3.358
  168SAPE  H11R18890   2.458   6.026   3.313
  168SAPE  C21218891   2.580   6.087   3.467
  168SAPE  H12R18892   2.496   6.142   3.512
  168SAPE  C21318893   2.704   6.086   3.548
  168SAPE  H13R18894   2.784   6.032   3.494
  168SAPE  H13S18895   2.685   6.028   3.641
  168SAPE  C21418896   2.757   6.222   3.589
  168SAPE  H14R18897   2.765   6.283   3.498
  168SAPE  C21518898   2.756   6.279   3.712
  168SAPE  H15R18899   2.779   6.387   3.708
  168SAPE  C21618900   2.715   6.210   3.845
  168SAPE  H16R18901   2.791   6.238   3.922
  168SAPE  H16S18902   2.714   6.100   3.830
  168SAPE  C21718903   2.582   6.253   3.911
  168SAPE  H17R18904   2.565   6.363   3.901
  168SAPE  H17S18905   2.584   6.240   4.021
  168SAPE  C21818906   2.464   6.175   3.853
  168SAPE  H18R18907   2.494   6.069   3.872
  168SAPE  H18S18908   2.454   6.205   3.747
  168SAPE  C21918909   2.331   6.191   3.924
  168SAPE  H19R18910   2.296   6.294   3.906
  168SAPE  H19S18911   2.347   6.182   4.034
  168SAPE  C22018912   2.225   6.097   3.887
  168SAPE  H20R18913   2.153   6.081   3.971
  168SAPE  H20S18914   2.272   5.999   3.866
  168SAPE  H20T18915   2.171   6.119   3.792
  168SAPE   C3318916   2.500   4.899   3.236
  168SAPE   H3X18917   2.580   4.974   3.256
  168SAPE   H3Y18918   2.556   4.810   3.201
  168SAPE   C3418919   2.432   4.852   3.360
  168SAPE   H4X18920   2.380   4.755   3.340
  168SAPE   H4Y18921   2.366   4.931   3.401
  168SAPE   C3518922   2.536   4.812   3.462
  168SAPE   H5X18923   2.599   4.902   3.482
  168SAPE   H5Y18924   2.604   4.734   3.422
  168SAPE   C3618925   2.471   4.755   3.592
  168SAPE   H6X18926   2.559   4.720   3.650
  168SAPE   H6Y18927   2.420   4.658   3.578
  168SAPE   C3718928   2.386   4.854   3.667
  168SAPE   H7X18929   2.292   4.871   3.610
  168SAPE   H7Y18930   2.439   4.950   3.654
  168SAPE   C3818931   2.352   4.823   3.811
  168SAPE   H8X18932   2.441   4.770   3.851
  168SAPE   H8Y18933   2.266   4.754   3.819
  168SAPE   C3918934   2.310   4.949   3.881
  168SAPE   H9X18935   2.221   5.000   3.838
  168SAPE   H9Y18936   2.394   5.021   3.882
  168SAPE  C31018937   2.279   4.935   4.032
  168SAPE  H10X18938   2.252   5.034   4.074
  168SAPE  H10Y18939   2.369   4.910   4.092
  168SAPE  C31118940   2.169   4.835   4.078
  168SAPE  H11X18941   2.219   4.739   4.054
  168SAPE  H11Y18942   2.085   4.865   4.012
  168SAPE  C31218943   2.129   4.841   4.232
  168SAPE  H12X18944   2.125   4.946   4.270
  168SAPE  H12Y18945   2.210   4.812   4.303
  168SAPE  C31318946   1.985   4.792   4.260
  168SAPE  H13X18947   1.978   4.688   4.223
  168SAPE  H13Y18948   1.920   4.857   4.198
  168SAPE  C31418949   1.948   4.804   4.407
  168SAPE  H14X18950   1.955   4.912   4.431
  168SAPE  H14Y18951   2.029   4.753   4.463
  168SAPE  C31518952   1.814   4.728   4.429
  168SAPE  H15X18953   1.827   4.619   4.417
  168SAPE  H15Y18954   1.745   4.763   4.349
  168SAPE  C31618955   1.766   4.737   4.569
  168SAPE  H16X18956   1.846   4.685   4.625
  168SAPE  H16Y18957   1.670   4.681   4.569
  168SAPE  C31718958   1.751   4.874   4.632
  168SAPE  H17X18959   1.667   4.938   4.597
  168SAPE  H17Y18960   1.839   4.939   4.614
  168SAPE  C31818961   1.727   4.873   4.785
  168SAPE  H18X18962   1.728   4.973   4.833
  168SAPE  H18Y18963   1.805   4.818   4.842
  168SAPE  H18Z18964   1.627   4.833   4.810
  169SAPE     N18965   6.028   2.864   1.956
  169SAPE   HN118966   5.936   2.910   1.941
  169SAPE   HN218967   6.085   2.859   1.869
  169SAPE   HN318968   6.004   2.767   1.986
  169SAPE   C1218969   6.126   2.916   2.060
  169SAPE  H12A18970   6.058   2.961   2.135
  169SAPE  H12B18971   6.177   3.006   2.020
  169SAPE   C1118972   6.220   2.808   2.115
  169SAPE  H11A18973   6.153   2.739   2.171
  169SAPE  H11B18974   6.284   2.840   2.201
  169SAPE     P18975   6.438   2.793   1.969
  169SAPE   O1318976   6.516   2.671   1.946
  169SAPE   O1418977   6.430   2.883   1.859
  169SAPE   O1218978   6.289   2.748   2.005
  169SAPE   O1118979   6.485   2.878   2.101
  169SAPE    C118980   6.613   2.858   2.158
  169SAPE    HA18981   6.687   2.825   2.081
  169SAPE    HB18982   6.649   2.960   2.185
  169SAPE    C218983   6.605   2.758   2.273
  169SAPE    HS18984   6.615   2.653   2.237
  169SAPE   O2118985   6.493   2.775   2.361
  169SAPE   C2118986   6.462   2.668   2.430
  169SAPE   O2218987   6.497   2.557   2.407
  169SAPE   C2218988   6.371   2.716   2.545
  169SAPE   H2R18989   6.353   2.825   2.539
  169SAPE   H2S18990   6.277   2.658   2.546
  169SAPE    C318991   6.742   2.780   2.355
  169SAPE    HX18992   6.750   2.886   2.385
  169SAPE    HY18993   6.831   2.774   2.289
  169SAPE   O3118994   6.764   2.699   2.472
  169SAPE   C3118995   6.822   2.585   2.447
  169SAPE   O3218996   0.001   2.537   2.339
  169SAPE   C3218997   0.016   2.518   2.581
  169SAPE   H2X18998   6.815   2.588   2.655
  169SAPE   H2Y18999   0.125   2.511   2.602
  169SAPE   C2319000   6.432   2.682   2.681
  169SAPE   H3R19001   6.519   2.749   2.696
  169SAPE   H3S19002   6.469   2.577   2.676
  169SAPE   C2419003   6.341   2.705   2.808
  169SAPE   H4R19004   6.380   2.657   2.900
  169SAPE   H4S19005   6.258   2.638   2.777
  169SAPE   C2519006   6.274   2.842   2.823
  169SAPE   H5R19007   6.227   2.887   2.735
  169SAPE   C2619008   6.282   2.921   2.930
  169SAPE   H6R19009   6.224   3.014   2.932
  169SAPE   C2719010   6.337   2.868   3.058
  169SAPE   H7R19011   6.437   2.821   3.046
  169SAPE   H7S19012   6.282   2.780   3.098
  169SAPE   C2819013   6.352   2.980   3.160
  169SAPE   H8R19014   6.413   3.061   3.118
  169SAPE   C2919015   6.324   2.976   3.294
  169SAPE   H9R19016   6.338   3.072   3.345
  169SAPE  C21019017   6.248   2.870   3.356
  169SAPE  H10R19018   6.270   2.771   3.310
  169SAPE  H10S19019   6.144   2.872   3.316
  169SAPE  C21119020   6.274   2.851   3.503
  169SAPE  H11R19021   6.377   2.863   3.540
  169SAPE  C21219022   6.178   2.826   3.598
  169SAPE  H12R19023   6.204   2.797   3.701
  169SAPE  C21319024   6.030   2.818   3.579
  169SAPE  H13R19025   6.007   2.790   3.474
  169SAPE  H13S19026   6.000   2.923   3.599
  169SAPE  C21419027   5.951   2.726   3.671
  169SAPE  H14R19028   5.886   2.654   3.620
  169SAPE  C21519029   5.928   2.734   3.803
  169SAPE  H15R19030   5.863   2.661   3.853
  169SAPE  C21619031   5.997   2.837   3.890
  169SAPE  H16R19032   6.015   2.930   3.832
  169SAPE  H16S19033   6.094   2.803   3.932
  169SAPE  C21719034   5.909   2.869   4.013
  169SAPE  H17R19035   5.897   2.785   4.085
  169SAPE  H17S19036   5.805   2.892   3.982
  169SAPE  C21819037   5.972   3.000   4.077
  169SAPE  H18R19038   5.979   3.085   4.005
  169SAPE  H18S19039   6.075   2.970   4.106
  169SAPE  C21919040   5.908   3.062   4.204
  169SAPE  H19R19041   5.804   3.085   4.171
  169SAPE  H19S19042   5.958   3.160   4.216
  169SAPE  C22019043   5.919   2.973   4.332
  169SAPE  H20R19044   5.850   3.010   4.411
  169SAPE  H20S19045   6.021   2.993   4.372
  169SAPE  H20T19046   5.905   2.864   4.319
  169SAPE   C3319047   6.779   2.390   2.603
  169SAPE   H3X19048   6.825   2.307   2.545
  169SAPE   H3Y19049   6.674   2.394   2.565
  169SAPE   C3419050   6.782   2.341   2.753
  169SAPE   H4X19051   0.035   2.360   2.807
  169SAPE   H4Y19052   6.773   2.231   2.767
  169SAPE   C3519053   6.663   2.411   2.823
  169SAPE   H5X19054   6.571   2.364   2.781
  169SAPE   H5Y19055   6.652   2.517   2.794
  169SAPE   C3619056   6.648   2.399   2.981
  169SAPE   H6X19057   6.754   2.405   3.012
  169SAPE   H6Y19058   6.606   2.298   3.004
  169SAPE   C3719059   6.568   2.511   3.061
  169SAPE   H7X19060   6.462   2.519   3.030
  169SAPE   H7Y19061   6.618   2.610   3.061
  169SAPE   C3819062   6.587   2.478   3.213
  169SAPE   H8X19063   6.689   2.515   3.236
  169SAPE   H8Y19064   6.592   2.369   3.233
  169SAPE   C3919065   6.482   2.547   3.299
  169SAPE   H9X19066   6.500   2.655   3.282
  169SAPE   H9Y19067   6.509   2.524   3.404
  169SAPE  C31019068   6.336   2.511   3.269
  169SAPE  H10X19069   6.298   2.559   3.177
  169SAPE  H10Y19070   6.266   2.553   3.344
  169SAPE  C31119071   6.313   2.362   3.250
  169SAPE  H11X19072   6.375   2.331   3.163
  169SAPE  H11Y19073   6.215   2.316   3.230
  169SAPE  C31219074   6.363   2.287   3.373
  169SAPE  H12X19075   6.468   2.302   3.408
  169SAPE  H12Y19076   6.382   2.186   3.330
  169SAPE  C31319077   6.258   2.283   3.488
  169SAPE  H13X19078   6.157   2.259   3.449
  169SAPE  H13Y19079   6.258   2.386   3.531
  169SAPE  C31419080   6.301   2.187   3.602
  169SAPE  H14X19081   6.406   2.217   3.622
  169SAPE  H14Y19082   6.293   2.080   3.574
  169SAPE  C31519083   6.207   2.200   3.716
  169SAPE  H15X19084   6.111   2.152   3.687
  169SAPE  H15Y19085   6.183   2.302   3.753
  169SAPE  C31619086   6.259   2.101   3.829
  169SAPE  H16X19087   6.349   2.143   3.878
  169SAPE  H16Y19088   6.276   1.998   3.791
  169SAPE  C31719089   6.165   2.088   3.946
  169SAPE  H17X19090   6.082   2.023   3.910
  169SAPE  H17Y19091   6.136   2.189   3.983
  169SAPE  C31819092   6.211   2.008   4.074
  169SAPE  H18X19093   6.131   2.006   4.151
  169SAPE  H18Y19094   6.295   2.057   4.127
  169SAPE  H18Z19095   6.245   1.907   4.043
  170SAPE     N19096   6.501   3.319   2.287
  170SAPE   HN119097   6.423   3.383   2.312
  170SAPE   HN219098   6.556   3.367   2.213
  170SAPE   HN319099   6.466   3.230   2.247
  170SAPE   C1219100   6.575   3.297   2.420
  170SAPE  H12A19101   6.656   3.226   2.392
  170SAPE  H12B19102   6.525   3.218   2.479
  170SAPE   C1119103   6.600   3.420   2.504
  170SAPE  H11A19104   6.671   3.389   2.583
  170SAPE  H11B19105   6.502   3.449   2.547
  170SAPE     P19106   6.789   3.596   2.450
  170SAPE   O1319107   0.054   3.522   2.391
  170SAPE   O1419108   6.764   3.730   2.392
  170SAPE   O1219109   6.658   3.517   2.419
  170SAPE   O1119110   6.785   3.596   2.601
  170SAPE    C119111   0.027   3.689   2.673
  170SAPE    HA19112   0.091   3.754   2.611
  170SAPE    HB19113   6.799   3.758   2.724
  170SAPE    C219114   0.131   3.620   2.771
  170SAPE    HS19115   0.231   3.615   2.722
  170SAPE   O2119116   0.077   3.496   2.817
  170SAPE   C2119117   0.117   3.394   2.734
  170SAPE   O2219118   0.206   3.404   2.651
  170SAPE   C2219119   0.042   3.260   2.756
  170SAPE   H2R19120   0.080   3.218   2.852
  170SAPE   H2S19121   6.780   3.296   2.768
  170SAPE    C319122   0.147   3.702   2.895
  170SAPE    HX19123   0.041   3.722   2.921
  170SAPE    HY19124   0.210   3.789   2.868
  170SAPE   O3119125   0.214   3.617   3.004
  170SAPE   C3119126   0.339   3.586   2.982
  170SAPE   O3219127   0.413   3.634   2.894
  170SAPE   C3219128   0.378   3.463   3.061
  170SAPE   H2X19129   0.475   3.429   3.019
  170SAPE   H2Y19130   0.296   3.391   3.041
  170SAPE   C2319131   0.052   3.170   2.633
  170SAPE   H3R19132   0.151   3.154   2.586
  170SAPE   H3S19133   6.829   3.216   2.556
  170SAPE   C2419134   6.826   3.031   2.672
  170SAPE   H4R19135   0.042   2.987   2.755
  170SAPE   H4S19136   6.840   2.972   2.579
  170SAPE   C2519137   6.677   3.035   2.709
  170SAPE   H5R19138   6.603   3.050   2.628
  170SAPE   C2619139   6.630   3.018   2.834
  170SAPE   H6R19140   6.523   3.033   2.856
  170SAPE   C2719141   6.706   3.004   2.967
  170SAPE   H7R19142   6.667   3.070   3.048
  170SAPE   H7S19143   6.808   3.046   2.956
  170SAPE   C2819144   6.720   2.863   3.017
  170SAPE   H8R19145   6.706   2.793   2.933
  170SAPE   C2919146   6.723   2.825   3.151
  170SAPE   H9R19147   6.727   2.718   3.179
  170SAPE  C21019148   6.712   2.916   3.266
  170SAPE  H10R19149   6.616   2.971   3.267
  170SAPE  H10S19150   6.792   2.993   3.255
  170SAPE  C21119151   6.738   2.854   3.404
  170SAPE  H11R19152   6.749   2.745   3.415
  170SAPE  C21219153   6.740   2.921   3.519
  170SAPE  H12R19154   6.744   2.867   3.615
  170SAPE  C21319155   6.738   3.073   3.537
  170SAPE  H13R19156   6.700   3.119   3.444
  170SAPE  H13S19157   6.841   3.113   3.543
  170SAPE  C21419158   6.661   3.101   3.661
  170SAPE  H14R19159   6.591   3.023   3.693
  170SAPE  C21519160   6.681   3.208   3.744
  170SAPE  H15R19161   6.619   3.217   3.835
  170SAPE  C21619162   6.764   3.326   3.720
  170SAPE  H16R19163   6.811   3.309   3.621
  170SAPE  H16S19164   6.838   3.315   3.803
  170SAPE  C21719165   6.686   3.459   3.719
  170SAPE  H17R19166   6.621   3.447   3.629
  170SAPE  H17S19167   6.757   3.545   3.716
  170SAPE  C21819168   6.598   3.493   3.839
  170SAPE  H18R19169   6.520   3.416   3.856
  170SAPE  H18S19170   6.529   3.577   3.814
  170SAPE  C21919171   6.665   3.537   3.965
  170SAPE  H19R19172   6.620   3.628   4.012
  170SAPE  H19S19173   6.765   3.581   3.946
  170SAPE  C22019174   6.690   3.428   4.071
  170SAPE  H20R19175   6.749   3.346   4.023
  170SAPE  H20S19176   6.598   3.391   4.121
  170SAPE  H20T19177   6.754   3.466   4.153
  170SAPE   C3319178   0.396   3.463   3.215
  170SAPE   H3X19179   0.415   3.360   3.251
  170SAPE   H3Y19180   0.301   3.497   3.262
  170SAPE   C3419181   0.517   3.542   3.263
  170SAPE   H4X19182   0.491   3.650   3.265
  170SAPE   H4Y19183   0.605   3.518   3.199
  170SAPE   C3519184   0.548   3.515   3.410
  170SAPE   H5X19185   0.648   3.559   3.430
  170SAPE   H5Y19186   0.554   3.405   3.426
  170SAPE   C3619187   0.460   3.592   3.504
  170SAPE   H6X19188   0.362   3.542   3.488
  170SAPE   H6Y19189   0.454   3.697   3.469
  170SAPE   C3719190   0.504   3.597   3.649
  170SAPE   H7X19191   0.587   3.668   3.673
  170SAPE   H7Y19192   0.531   3.500   3.696
  170SAPE   C3819193   0.387   3.654   3.733
  170SAPE   H8X19194   0.300   3.592   3.703
  170SAPE   H8Y19195   0.364   3.759   3.704
  170SAPE   C3919196   0.398   3.636   3.882
  170SAPE   H9X19197   0.488   3.681   3.928
  170SAPE   H9Y19198   0.418   3.529   3.898
  170SAPE  C31019199   0.276   3.673   3.970
  170SAPE  H10X19200   0.192   3.628   3.914
  170SAPE  H10Y19201   0.273   3.784   3.967
  170SAPE  C31119202   0.290   3.632   4.114
  170SAPE  H11X19203   0.393   3.654   4.148
  170SAPE  H11Y19204   0.272   3.523   4.108
  170SAPE  C31219205   0.176   3.679   4.216
  170SAPE  H12X19206   0.172   3.610   4.303
  170SAPE  H12Y19207   0.082   3.672   4.158
  170SAPE  C31319208   0.188   3.815   4.288
  170SAPE  H13X19209   0.094   3.833   4.344
  170SAPE  H13Y19210   0.209   3.906   4.228
  170SAPE  C31419211   0.306   3.808   4.385
  170SAPE  H14X19212   0.395   3.757   4.343
  170SAPE  H14Y19213   0.275   3.747   4.473
  170SAPE  C31519214   0.341   3.949   4.444
  170SAPE  H15X19215   0.249   4.001   4.475
  170SAPE  H15Y19216   0.380   4.022   4.371
  170SAPE  C31619217   0.430   3.942   4.567
  170SAPE  H16X19218   0.375   3.892   4.649
  170SAPE  H16Y19219   0.452   4.048   4.594
  170SAPE  C31719220   0.567   3.878   4.552
  170SAPE  H17X19221   0.641   3.940   4.498
  170SAPE  H17Y19222   0.566   3.788   4.487
  170SAPE  C31819223   0.622   3.820   4.681
  170SAPE  H18X19224   0.659   3.894   4.755
  170SAPE  H18Y19225   0.700   3.746   4.655
  170SAPE  H18Z19226   0.545   3.757   4.729
  171SAPE     N19227   0.577   2.014   1.733
  171SAPE   HN119228   0.598   1.979   1.638
  171SAPE   HN219229   0.658   2.072   1.762
  171SAPE   HN319230   0.580   1.929   1.793
  171SAPE   C1219231   0.446   2.090   1.743
  171SAPE  H12A19232   0.364   2.022   1.711
  171SAPE  H12B19233   0.449   2.172   1.668
  171SAPE   C1119234   0.419   2.150   1.882
  171SAPE  H11A19235   0.334   2.221   1.891
  171SAPE  H11B19236   0.512   2.204   1.909
  171SAPE     P19237   0.285   2.025   2.066
  171SAPE   O1319238   0.166   2.048   1.979
  171SAPE   O1419239   0.299   1.901   2.145
  171SAPE   O1219240   0.414   2.043   1.981
  171SAPE   O1119241   0.288   2.141   2.176
  171SAPE    C119242   0.414   2.163   2.248
  171SAPE    HA19243   0.444   2.085   2.321
  171SAPE    HB19244   0.499   2.163   2.176
  171SAPE    C219245   0.419   2.293   2.329
  171SAPE    HS19246   0.520   2.314   2.370
  171SAPE   O2119247   0.326   2.281   2.438
  171SAPE   C2119248   0.385   2.224   2.547
  171SAPE   O2219249   0.493   2.166   2.551
  171SAPE   C2219250   0.295   2.248   2.667
  171SAPE   H2R19251   0.282   2.358   2.680
  171SAPE   H2S19252   0.195   2.207   2.642
  171SAPE    C319253   0.390   2.423   2.244
  171SAPE    HX19254   0.284   2.422   2.213
  171SAPE    HY19255   0.456   2.408   2.156
  171SAPE   O3119256   0.427   2.541   2.312
  171SAPE   C3119257   0.393   2.650   2.256
  171SAPE   O3219258   0.328   2.655   2.147
  171SAPE   C3219259   0.433   2.775   2.336
  171SAPE   H2X19260   0.423   2.859   2.264
  171SAPE   H2Y19261   0.536   2.753   2.372
  171SAPE   C2319262   0.341   2.164   2.792
  171SAPE   H3R19263   0.438   2.204   2.828
  171SAPE   H3S19264   0.365   2.061   2.760
  171SAPE   C2419265   0.243   2.170   2.912
  171SAPE   H4R19266   0.285   2.102   2.989
  171SAPE   H4S19267   0.142   2.139   2.877
  171SAPE   C2519268   0.242   2.311   2.968
  171SAPE   H5R19269   0.255   2.392   2.894
  171SAPE   C2619270   0.218   2.336   3.098
  171SAPE   H6R19271   0.221   2.441   3.130
  171SAPE   C2719272   0.190   2.238   3.218
  171SAPE   H7R19273   0.110   2.165   3.192
  171SAPE   H7S19274   0.141   2.303   3.293
  171SAPE   C2819275   0.312   2.184   3.269
  171SAPE   H8R19276   0.385   2.169   3.188
  171SAPE   C2919277   0.339   2.146   3.399
  171SAPE   H9R19278   0.436   2.102   3.428
  171SAPE  C21019279   0.234   2.168   3.506
  171SAPE  H10R19280   0.212   2.065   3.542
  171SAPE  H10S19281   0.137   2.205   3.467
  171SAPE  C21119282   0.288   2.261   3.610
  171SAPE  H11R19283   0.381   2.224   3.656
  171SAPE  C21219284   0.233   2.369   3.669
  171SAPE  H12R19285   0.286   2.423   3.749
  171SAPE  C21319286   0.091   2.426   3.641
  171SAPE  H13R19287   0.039   2.369   3.560
  171SAPE  H13S19288   0.102   2.533   3.613
  171SAPE  C21419289   6.833   2.442   3.756
  171SAPE  H14R19290   0.030   2.418   3.856
  171SAPE  C21519291   6.705   2.483   3.752
  171SAPE  H15R19292   6.655   2.482   3.850
  171SAPE  C21619293   6.611   2.523   3.635
  171SAPE  H16R19294   6.580   2.428   3.588
  171SAPE  H16S19295   6.668   2.582   3.560
  171SAPE  C21719296   6.481   2.602   3.683
  171SAPE  H17R19297   6.419   2.621   3.592
  171SAPE  H17S19298   6.506   2.699   3.730
  171SAPE  C21819299   6.405   2.524   3.789
  171SAPE  H18R19300   6.443   2.420   3.782
  171SAPE  H18S19301   6.297   2.522   3.763
  171SAPE  C21919302   6.406   2.589   3.930
  171SAPE  H19R19303   6.374   2.695   3.936
  171SAPE  H19S19304   6.510   2.595   3.968
  171SAPE  C22019305   6.326   2.505   4.031
  171SAPE  H20R19306   6.379   2.484   4.126
  171SAPE  H20S19307   6.316   2.405   3.982
  171SAPE  H20T19308   6.223   2.541   4.053
  171SAPE   C3319309   0.341   2.813   2.457
  171SAPE   H3X19310   0.236   2.823   2.422
  171SAPE   H3Y19311   0.351   2.913   2.502
  171SAPE   C3419312   0.354   2.712   2.573
  171SAPE   H4X19313   0.462   2.705   2.599
  171SAPE   H4Y19314   0.317   2.616   2.532
  171SAPE   C3519315   0.271   2.749   2.699
  171SAPE   H5X19316   0.239   2.669   2.769
  171SAPE   H5Y19317   0.176   2.791   2.660
  171SAPE   C3619318   0.323   2.862   2.788
  171SAPE   H6X19319   0.273   2.948   2.740
  171SAPE   H6Y19320   0.433   2.869   2.774
  171SAPE   C3719321   0.289   2.842   2.934
  171SAPE   H7X19322   0.338   2.755   2.984
  171SAPE   H7Y19323   0.181   2.819   2.942
  171SAPE   C3819324   0.316   2.965   3.018
  171SAPE   H8X19325   0.246   3.043   2.981
  171SAPE   H8Y19326   0.418   3.009   3.012
  171SAPE   C3919327   0.274   2.938   3.166
  171SAPE   H9X19328   0.326   2.849   3.209
  171SAPE   H9Y19329   0.164   2.917   3.166
  171SAPE  C31019330   0.292   3.066   3.254
  171SAPE  H10X19331   0.227   3.140   3.203
  171SAPE  H10Y19332   0.391   3.114   3.245
  171SAPE  C31119333   0.263   3.050   3.403
  171SAPE  H11X19334   0.328   2.971   3.446
  171SAPE  H11Y19335   0.163   3.002   3.414
  171SAPE  C31219336   0.291   3.176   3.480
  171SAPE  H12X19337   0.217   3.255   3.455
  171SAPE  H12Y19338   0.394   3.207   3.450
  171SAPE  C31319339   0.286   3.173   3.636
  171SAPE  H13X19340   0.188   3.132   3.669
  171SAPE  H13Y19341   0.294   3.277   3.673
  171SAPE  C31419342   0.403   3.098   3.704
  171SAPE  H14X19343   0.500   3.126   3.658
  171SAPE  H14Y19344   0.389   2.990   3.684
  171SAPE  C31519345   0.413   3.112   3.860
  171SAPE  H15X19346   0.350   3.031   3.901
  171SAPE  H15Y19347   0.373   3.209   3.897
  171SAPE  C31619348   0.556   3.092   3.908
  171SAPE  H16X19349   0.611   3.188   3.895
  171SAPE  H16Y19350   0.605   3.010   3.851
  171SAPE  C31719351   0.582   3.056   4.053
  171SAPE  H17X19352   0.515   2.976   4.090
  171SAPE  H17Y19353   0.566   3.149   4.113
  171SAPE  C31819354   0.724   3.006   4.067
  171SAPE  H18X19355   0.744   2.977   4.173
  171SAPE  H18Y19356   0.793   3.089   4.040
  171SAPE  H18Z19357   0.733   2.918   3.999
  172SAPE     N19358   0.527   4.551   1.873
  172SAPE   HN119359   0.565   4.497   1.953
  172SAPE   HN219360   0.443   4.494   1.850
  172SAPE   HN319361   0.593   4.543   1.792
  172SAPE   C1219362   0.486   4.696   1.900
  172SAPE  H12A19363   0.482   4.751   1.804
  172SAPE  H12B19364   0.570   4.756   1.942
  172SAPE   C1119365   0.363   4.705   1.996
  172SAPE  H11A19366   0.270   4.660   1.954
  172SAPE  H11B19367   0.344   4.813   2.015
  172SAPE     P19368   0.299   4.629   2.224
  172SAPE   O1319369   0.168   4.582   2.180
  172SAPE   O1419370   0.374   4.557   2.329
  172SAPE   O1219371   0.399   4.633   2.111
  172SAPE   O1119372   0.286   4.778   2.274
  172SAPE    C119373   0.405   4.857   2.303
  172SAPE    HA19374   0.488   4.839   2.232
  172SAPE    HB19375   0.391   4.967   2.300
  172SAPE    C219376   0.441   4.833   2.453
  172SAPE    HS19377   0.503   4.741   2.455
  172SAPE   O2119378   0.329   4.806   2.543
  172SAPE   C2119379   0.231   4.901   2.557
  172SAPE   O2219380   0.220   5.001   2.490
  172SAPE   C2219381   0.142   4.852   2.675
  172SAPE   H2R19382   0.061   4.803   2.617
  172SAPE   H2S19383   0.202   4.788   2.743
  172SAPE    C319384   0.536   4.939   2.511
  172SAPE    HX19385   0.490   5.039   2.494
  172SAPE    HY19386   0.624   4.934   2.444
  172SAPE   O3119387   0.574   4.900   2.648
  172SAPE   C3119388   0.549   4.981   2.744
  172SAPE   O3219389   0.491   5.091   2.732
  172SAPE   C3219390   0.591   4.930   2.884
  172SAPE   H2X19391   0.651   5.001   2.944
  172SAPE   H2Y19392   0.645   4.833   2.875
  172SAPE   C2319393   0.064   4.962   2.762
  172SAPE   H3R19394   0.006   5.028   2.694
  172SAPE   H3S19395   0.151   5.018   2.803
  172SAPE   C2419396   6.816   4.916   2.878
  172SAPE   H4R19397   0.019   4.830   2.932
  172SAPE   H4S19398   6.727   4.873   2.827
  172SAPE   C2519399   6.782   5.038   2.970
  172SAPE   H5R19400   6.714   5.111   2.923
  172SAPE   C2619401   6.818   5.061   3.095
  172SAPE   H6R19402   6.785   5.147   3.154
  172SAPE   C2719403   0.071   4.971   3.165
  172SAPE   H7R19404   0.163   5.032   3.180
  172SAPE   H7S19405   0.107   4.887   3.102
  172SAPE   C2819406   0.024   4.926   3.297
  172SAPE   H8R19407   6.777   4.863   3.294
  172SAPE   C2919408   0.044   4.986   3.417
  172SAPE   H9R19409   6.837   4.938   3.503
  172SAPE  C21019410   0.140   5.096   3.441
  172SAPE  H10R19411   0.094   5.191   3.407
  172SAPE  H10S19412   0.243   5.076   3.403
  172SAPE  C21119413   0.156   5.132   3.590
  172SAPE  H11R19414   0.067   5.181   3.632
  172SAPE  C21219415   0.267   5.122   3.665
  172SAPE  H12R19416   0.263   5.140   3.773
  172SAPE  C21319417   0.404   5.061   3.639
  172SAPE  H13R19418   0.401   5.015   3.538
  172SAPE  H13S19419   0.427   4.983   3.715
  172SAPE  C21419420   0.506   5.163   3.632
  172SAPE  H14R19421   0.556   5.180   3.536
  172SAPE  C21519422   0.568   5.218   3.735
  172SAPE  H15R19423   0.633   5.307   3.727
  172SAPE  C21619424   0.529   5.186   3.878
  172SAPE  H16R19425   0.448   5.110   3.887
  172SAPE  H16S19426   0.494   5.284   3.916
  172SAPE  C21719427   0.654   5.158   3.970
  172SAPE  H17R19428   0.633   5.188   4.075
  172SAPE  H17S19429   0.736   5.225   3.937
  172SAPE  C21819430   0.703   5.011   3.959
  172SAPE  H18R19431   0.724   4.987   3.853
  172SAPE  H18S19432   0.628   4.945   4.008
  172SAPE  C21919433   0.836   4.982   4.042
  172SAPE  H19R19434   0.924   5.016   3.983
  172SAPE  H19S19435   0.827   4.872   4.054
  172SAPE  C22019436   0.827   5.055   4.179
  172SAPE  H20R19437   0.723   5.053   4.220
  172SAPE  H20S19438   0.853   5.162   4.164
  172SAPE  H20T19439   0.902   5.010   4.247
  172SAPE   C3319440   0.460   4.906   2.959
  172SAPE   H3X19441   0.395   4.832   2.906
  172SAPE   H3Y19442   0.400   4.998   2.976
  172SAPE   C3419443   0.482   4.855   3.100
  172SAPE   H4X19444   0.510   4.748   3.090
  172SAPE   H4Y19445   0.384   4.858   3.151
  172SAPE   C3519446   0.584   4.938   3.185
  172SAPE   H5X19447   0.570   5.045   3.160
  172SAPE   H5Y19448   0.688   4.911   3.157
  172SAPE   C3619449   0.586   4.912   3.331
  172SAPE   H6X19450   0.483   4.915   3.374
  172SAPE   H6Y19451   0.650   4.987   3.383
  172SAPE   C3719452   0.641   4.778   3.380
  172SAPE   H7X19453   0.742   4.768   3.335
  172SAPE   H7Y19454   0.569   4.696   3.358
  172SAPE   C3819455   0.673   4.776   3.537
  172SAPE   H8X19456   0.588   4.805   3.603
  172SAPE   H8Y19457   0.746   4.857   3.557
  172SAPE   C3919458   0.733   4.641   3.586
  172SAPE   H9X19459   0.823   4.607   3.529
  172SAPE   H9Y19460   0.662   4.560   3.557
  172SAPE  C31019461   0.751   4.633   3.736
  172SAPE  H10X19462   0.682   4.707   3.782
  172SAPE  H10Y19463   0.851   4.669   3.770
  172SAPE  C31119464   0.739   4.484   3.796
  172SAPE  H11X19465   0.795   4.411   3.734
  172SAPE  H11Y19466   0.633   4.456   3.780
  172SAPE  C31219467   0.781   4.455   3.938
  172SAPE  H12X19468   0.892   4.454   3.936
  172SAPE  H12Y19469   0.760   4.353   3.976
  172SAPE  C31319470   0.747   4.561   4.043
  172SAPE  H13X19471   0.639   4.549   4.067
  172SAPE  H13Y19472   0.767   4.663   4.004
  172SAPE  C31419473   0.819   4.538   4.176
  172SAPE  H14X19474   0.929   4.531   4.166
  172SAPE  H14Y19475   0.777   4.444   4.218
  172SAPE  C31519476   0.801   4.645   4.283
  172SAPE  H15X19477   0.693   4.673   4.281
  172SAPE  H15Y19478   0.857   4.735   4.253
  172SAPE  C31619479   0.844   4.594   4.422
  172SAPE  H16X19480   0.934   4.531   4.407
  172SAPE  H16Y19481   0.766   4.523   4.456
  172SAPE  C31719482   0.872   4.713   4.518
  172SAPE  H17X19483   0.777   4.770   4.521
  172SAPE  H17Y19484   0.954   4.778   4.481
  172SAPE  C31819485   0.907   4.666   4.658
  172SAPE  H18X19486   0.998   4.602   4.654
  172SAPE  H18Y19487   0.823   4.620   4.713
  172SAPE  H18Z19488   0.928   4.757   4.718
  173SLPC     N19489   5.376   6.690   6.910
  173SLPC   C1319490   5.266   6.604   6.953
  173SLPC  H13A19491   5.290   6.539   7.037
  173SLPC  H13B19492   5.188   6.668   6.990
  173SLPC  H13C19493   5.229   6.546   6.870
  173SLPC   C1419494   5.420   6.787   7.021
  173SLPC  H14A19495   5.488   0.022   6.988
  173SLPC  H14B19496   5.332   6.832   7.065
  173SLPC  H14C19497   5.477   6.732   7.094
  173SLPC   C1519498   5.332   6.778   6.797
  173SLPC  H15A19499   5.389   0.027   6.798
  173SLPC  H15B19500   5.353   6.733   6.701
  173SLPC  H15C19501   5.227   6.802   6.805
  173SLPC   C1219502   5.502   6.615   6.868
  173SLPC  H12A19503   5.593   6.672   6.856
  173SLPC  H12B19504   5.472   6.578   6.771
  173SLPC   C1119505   5.542   6.503   6.965
  173SLPC  H11A19506   5.622   6.451   6.908
  173SLPC  H11B19507   5.454   6.437   6.978
  173SLPC     P19508   5.742   6.593   7.085
  173SLPC   O1319509   5.758   6.715   7.158
  173SLPC   O1419510   5.828   6.480   7.116
  173SLPC   O1219511   5.586   6.547   7.094
  173SLPC   O1119512   5.780   6.631   6.938
  173SLPC    C119513   5.890   6.716   6.908
  173SLPC    HA19514   5.899   6.803   6.976
  173SLPC    HB19515   5.986   6.660   6.910
  173SLPC    C219516   5.882   6.775   6.763
  173SLPC    HS19517   5.797   0.004   6.761
  173SLPC   O2119518   5.866   6.668   6.668
  173SLPC   C2119519   5.794   6.699   6.566
  173SLPC   O2219520   5.714   6.792   6.556
  173SLPC   C2219521   5.837   6.608   6.454
  173SLPC   H2R19522   5.946   6.620   6.437
  173SLPC   H2S19523   5.814   6.501   6.473
  173SLPC    C319524   6.012   0.016   6.738
  173SLPC    HX19525   6.087   6.781   6.764
  173SLPC    HY19526   6.018   0.102   6.808
  173SLPC   O3119527   6.015   0.055   6.595
  173SLPC   C3119528   5.940   0.162   6.565
  173SLPC   O3219529   5.872   0.224   6.643
  173SLPC   C3219530   5.942   0.199   6.420
  173SLPC   H2X19531   5.956   0.104   6.364
  173SLPC   H2Y19532   6.021   0.276   6.405
  173SLPC   C2319533   5.768   6.648   6.321
  173SLPC   H3R19534   5.784   6.755   6.297
  173SLPC   H3S19535   5.660   6.621   6.324
  173SLPC   C2419536   5.852   6.578   6.212
  173SLPC   H4R19537   5.855   6.469   6.231
  173SLPC   H4S19538   5.958   6.610   6.212
  173SLPC   C2519539   5.792   6.613   6.073
  173SLPC   H5R19540   5.813   6.715   6.035
  173SLPC   H5S19541   5.681   6.610   6.087
  173SLPC   C2619542   5.819   6.511   5.964
  173SLPC   H6R19543   5.794   6.415   6.013
  173SLPC   H6S19544   5.930   6.509   5.961
  173SLPC   C2719545   5.762   6.531   5.823
  173SLPC   H7R19546   5.790   6.634   5.792
  173SLPC   H7S19547   5.653   6.529   5.844
  173SLPC   C2819548   5.816   6.427   5.724
  173SLPC   H8R19549   5.830   6.324   5.763
  173SLPC   H8S19550   5.917   6.460   5.693
  173SLPC   C2919551   5.728   6.418   5.598
  173SLPC   H9R19552   5.620   6.429   5.616
  173SLPC  C21019553   5.767   6.399   5.472
  173SLPC  H10R19554   5.686   6.387   5.397
  173SLPC  C21119555   5.906   6.393   5.418
  173SLPC  H11R19556   5.936   6.286   5.414
  173SLPC  H11S19557   5.972   6.439   5.495
  173SLPC  C21219558   5.940   6.456   5.288
  173SLPC  H12R19559   5.999   6.549   5.290
  173SLPC  C21319560   5.919   6.408   5.165
  173SLPC  H13R19561   5.956   6.473   5.084
  173SLPC  C21419562   5.836   6.290   5.118
  173SLPC  H14R19563   5.835   6.213   5.198
  173SLPC  H14S19564   5.898   6.232   5.047
  173SLPC  C21519565   5.693   6.311   5.067
  173SLPC  H15R19566   5.634   6.367   5.143
  173SLPC  H15S19567   5.636   6.219   5.040
  173SLPC  C21619568   5.688   6.400   4.943
  173SLPC  H16R19569   5.767   6.376   4.869
  173SLPC  H16S19570   5.714   6.495   4.995
  173SLPC  C21719571   5.546   6.415   4.886
  173SLPC  H17R19572   5.537   6.506   4.824
  173SLPC  H17S19573   5.475   6.425   4.971
  173SLPC  C21819574   5.512   6.294   4.795
  173SLPC  H18R19575   5.598   6.282   4.725
  173SLPC  H18S19576   5.421   6.318   4.737
  173SLPC  H18T19577   5.513   6.195   4.845
  173SLPC   C3319578   5.804   0.260   6.384
  173SLPC   H3X19579   5.793   0.348   6.452
  173SLPC   H3Y19580   5.719   0.191   6.403
  173SLPC   C3419581   5.792   0.319   6.241
  173SLPC   H4X19582   5.844   0.415   6.225
  173SLPC   H4Y19583   5.682   0.329   6.238
  173SLPC   C3519584   5.829   0.213   6.135
  173SLPC   H5X19585   5.771   0.119   6.149
  173SLPC   H5Y19586   5.938   0.190   6.137
  173SLPC   C3619587   5.796   0.255   5.993
  173SLPC   H6X19588   5.857   0.345   5.970
  173SLPC   H6Y19589   5.690   0.288   5.998
  173SLPC   C3719590   5.816   0.148   5.890
  173SLPC   H7X19591   5.767   0.053   5.920
  173SLPC   H7Y19592   5.925   0.125   5.882
  173SLPC   C3819593   5.773   0.194   5.745
  173SLPC   H8X19594   5.803   0.297   5.716
  173SLPC   H8Y19595   5.662   0.197   5.745
  173SLPC   C3919596   5.815   0.087   5.637
  173SLPC   H9X19597   5.752   6.839   5.651
  173SLPC   H9Y19598   5.924   0.063   5.636
  173SLPC  C31019599   5.780   0.136   5.502
  173SLPC  H10X19600   5.833   0.233   5.498
  173SLPC  H10Y19601   5.676   0.173   5.488
  173SLPC  C31119602   5.827   0.037   5.399
  173SLPC  H11X19603   5.781   6.781   5.420
  173SLPC  H11Y19604   5.935   0.011   5.407
  173SLPC  C31219605   5.797   0.075   5.256
  173SLPC  H12X19606   5.878   0.147   5.232
  173SLPC  H12Y19607   5.694   0.112   5.236
  173SLPC  C31319608   5.816   6.798   5.152
  173SLPC  H13X19609   5.736   6.724   5.175
  173SLPC  H13Y19610   5.911   6.742   5.161
  173SLPC  C31419611   5.814   0.012   5.009
  173SLPC  H14X19612   5.916   0.056   5.005
  173SLPC  H14Y19613   5.747   0.100   4.995
  173SLPC  C31519614   5.792   6.757   4.892
  173SLPC  H15X19615   5.706   6.691   4.916
  173SLPC  H15Y19616   5.872   6.681   4.882
  173SLPC  C31619617   5.773   6.822   4.753
  173SLPC  H16X19618   5.765   6.744   4.675
  173SLPC  H16Y19619   5.862   0.042   4.731
  173SLPC  C31719620   5.648   0.068   4.742
  173SLPC  H17X19621   5.660   0.175   4.772
  173SLPC  H17Y19622   5.568   0.024   4.805
  173SLPC  C31819623   5.600   0.081   4.597
  173SLPC  H18X19624   5.596   6.822   4.554
  173SLPC  H18Y19625   5.667   0.146   4.536
  173SLPC  H18Z19626   5.501   0.132   4.595
  174SLPC     N19627   2.926   2.595   7.104
  174SLPC   C1319628   2.803   2.515   7.100
  174SLPC  H13A19629   2.724   2.564   7.046
  174SLPC  H13B19630   2.821   2.422   7.048
  174SLPC  H13C19631   2.762   2.487   7.196
  174SLPC   C1419632   3.021   2.532   7.202
  174SLPC  H14A19633   3.116   2.583   7.207
  174SLPC  H14B19634   2.978   2.512   7.299
  174SLPC  H14C19635   3.053   2.436   7.164
  174SLPC   C1519636   2.890   2.733   7.137
  174SLPC  H15A19637   2.835   2.789   7.062
  174SLPC  H15B19638   2.837   2.718   7.229
  174SLPC  H15C19639   2.975   2.793   7.164
  174SLPC   C1219640   2.997   2.591   6.965
  174SLPC  H12A19641   3.088   2.646   6.984
  174SLPC  H12B19642   2.935   2.646   6.896
  174SLPC   C1119643   3.028   2.454   6.905
  174SLPC  H11A19644   3.078   2.459   6.806
  174SLPC  H11B19645   2.935   2.395   6.894
  174SLPC     P19646   3.265   2.356   6.986
  174SLPC   O1319647   3.330   2.496   6.974
  174SLPC   O1419648   3.314   2.278   7.101
  174SLPC   O1219649   3.115   2.377   6.995
  174SLPC   O1119650   3.287   2.277   6.854
  174SLPC    C119651   3.392   2.302   6.766
  174SLPC    HA19652   3.451   2.392   6.791
  174SLPC    HB19653   3.459   2.213   6.763
  174SLPC    C219654   3.346   2.343   6.616
  174SLPC    HS19655   3.248   2.395   6.611
  174SLPC   O2119656   3.329   2.222   6.553
  174SLPC   C2119657   3.276   2.218   6.435
  174SLPC   O2219658   3.222   2.313   6.383
  174SLPC   C2219659   3.288   2.076   6.376
  174SLPC   H2R19660   3.397   2.056   6.364
  174SLPC   H2S19661   3.248   2.009   6.455
  174SLPC    C319662   3.458   2.432   6.544
  174SLPC    HX19663   3.469   2.532   6.591
  174SLPC    HY19664   3.410   2.450   6.446
  174SLPC   O3119665   3.584   2.366   6.533
  174SLPC   C3119666   3.653   2.390   6.423
  174SLPC   O3219667   3.630   2.477   6.342
  174SLPC   C3219668   3.764   2.289   6.415
  174SLPC   H2X19669   3.735   2.204   6.480
  174SLPC   H2Y19670   3.855   2.328   6.464
  174SLPC   C2319671   3.208   2.044   6.250
  174SLPC   H3R19672   3.099   2.054   6.267
  174SLPC   H3S19673   3.217   1.934   6.236
  174SLPC   C2419674   3.236   2.107   6.108
  174SLPC   H4R19675   3.337   2.071   6.079
  174SLPC   H4S19676   3.242   2.218   6.105
  174SLPC   C2519677   3.131   2.049   6.006
  174SLPC   H5R19678   3.040   2.107   6.032
  174SLPC   H5S19679   3.107   1.942   6.028
  174SLPC   C2619680   3.160   2.068   5.856
  174SLPC   H6R19681   3.206   2.168   5.840
  174SLPC   H6S19682   3.067   2.075   5.796
  174SLPC   C2719683   3.253   1.956   5.808
  174SLPC   H7R19684   3.226   1.858   5.852
  174SLPC   H7S19685   3.357   1.980   5.840
  174SLPC   C2819686   3.256   1.946   5.654
  174SLPC   H8R19687   3.354   1.901   5.626
  174SLPC   H8S19688   3.257   2.047   5.608
  174SLPC   C2919689   3.133   1.869   5.603
  174SLPC   H9R19690   3.051   1.858   5.675
  174SLPC  C21019691   3.113   1.830   5.481
  174SLPC  H10R19692   3.024   1.774   5.449
  174SLPC  C21119693   3.203   1.826   5.366
  174SLPC  H11R19694   3.286   1.899   5.374
  174SLPC  H11S19695   3.135   1.865   5.287
  174SLPC  C21219696   3.236   1.685   5.333
  174SLPC  H12R19697   3.214   1.603   5.402
  174SLPC  C21319698   3.302   1.655   5.215
  174SLPC  H13R19699   3.324   1.552   5.181
  174SLPC  C21419700   3.332   1.751   5.100
  174SLPC  H14R19701   3.417   1.822   5.108
  174SLPC  H14S19702   3.250   1.823   5.078
  174SLPC  C21519703   3.356   1.679   4.967
  174SLPC  H15R19704   3.447   1.616   4.977
  174SLPC  H15S19705   3.393   1.759   4.899
  174SLPC  C21619706   3.235   1.614   4.898
  174SLPC  H16R19707   3.150   1.680   4.923
  174SLPC  H16S19708   3.218   1.513   4.942
  174SLPC  C21719709   3.259   1.593   4.744
  174SLPC  H17R19710   3.324   1.504   4.727
  174SLPC  H17S19711   3.302   1.681   4.692
  174SLPC  C21819712   3.123   1.572   4.678
  174SLPC  H18R19713   3.153   1.554   4.572
  174SLPC  H18S19714   3.062   1.664   4.687
  174SLPC  H18T19715   3.075   1.476   4.704
  174SLPC   C3319716   3.780   2.231   6.271
  174SLPC   H3X19717   3.874   2.172   6.271
  174SLPC   H3Y19718   3.788   2.313   6.197
  174SLPC   C3419719   3.655   2.150   6.228
  174SLPC   H4X19720   3.564   2.210   6.248
  174SLPC   H4Y19721   3.646   2.056   6.286
  174SLPC   C3519722   3.643   2.119   6.075
  174SLPC   H5X19723   3.539   2.080   6.070
  174SLPC   H5Y19724   3.712   2.035   6.050
  174SLPC   C3619725   3.656   2.245   5.991
  174SLPC   H6X19726   3.764   2.268   5.985
  174SLPC   H6Y19727   3.601   2.324   6.047
  174SLPC   C3719728   3.598   2.237   5.849
  174SLPC   H7X19729   3.611   2.330   5.790
  174SLPC   H7Y19730   3.488   2.224   5.848
  174SLPC   C3819731   3.666   2.122   5.768
  174SLPC   H8X19732   3.597   2.061   5.705
  174SLPC   H8Y19733   3.712   2.053   5.843
  174SLPC   C3919734   3.764   2.187   5.667
  174SLPC   H9X19735   3.841   2.110   5.646
  174SLPC   H9Y19736   3.822   2.274   5.704
  174SLPC  C31019737   3.701   2.220   5.530
  174SLPC  H10X19738   3.780   2.255   5.461
  174SLPC  H10Y19739   3.626   2.301   5.533
  174SLPC  C31119740   3.641   2.103   5.464
  174SLPC  H11X19741   3.538   2.095   5.506
  174SLPC  H11Y19742   3.702   2.012   5.482
  174SLPC  C31219743   3.613   2.118   5.307
  174SLPC  H12X19744   3.577   2.221   5.287
  174SLPC  H12Y19745   3.531   2.044   5.291
  174SLPC  C31319746   3.731   2.085   5.221
  174SLPC  H13X19747   3.722   1.976   5.206
  174SLPC  H13Y19748   3.827   2.126   5.258
  174SLPC  C31419749   3.717   2.145   5.077
  174SLPC  H14X19750   3.727   2.256   5.080
  174SLPC  H14Y19751   3.612   2.124   5.047
  174SLPC  C31519752   3.815   2.095   4.982
  174SLPC  H15X19753   3.832   1.986   4.995
  174SLPC  H15Y19754   3.914   2.137   5.007
  174SLPC  C31619755   3.799   2.147   4.835
  174SLPC  H16X19756   3.809   2.258   4.835
  174SLPC  H16Y19757   3.697   2.121   4.799
  174SLPC  C31719758   3.905   2.078   4.751
  174SLPC  H17X19759   3.891   1.968   4.757
  174SLPC  H17Y19760   4.002   2.097   4.803
  174SLPC  C31819761   3.899   2.130   4.606
  174SLPC  H18X19762   3.992   2.095   4.556
  174SLPC  H18Y19763   3.904   2.241   4.613
  174SLPC  H18Z19764   3.804   2.094   4.561
  175SLPC     N19765   5.815   2.854   6.898
  175SLPC   C1319766   5.964   2.856   6.912
  175SLPC  H13A19767   6.013   2.846   6.817
  175SLPC  H13B19768   6.006   2.933   6.975
  175SLPC  H13C19769   5.988   2.772   6.975
  175SLPC   C1419770   5.757   2.878   7.030
  175SLPC  H14A19771   5.790   2.810   7.108
  175SLPC  H14B19772   5.765   2.980   7.064
  175SLPC  H14C19773   5.650   2.869   7.028
  175SLPC   C1519774   5.753   2.720   6.854
  175SLPC  H15A19775   5.765   2.642   6.928
  175SLPC  H15B19776   5.646   2.725   6.839
  175SLPC  H15C19777   5.799   2.679   6.766
  175SLPC   C1219778   5.759   2.969   6.812
  175SLPC  H12A19779   5.784   3.066   6.852
  175SLPC  H12B19780   5.651   2.968   6.811
  175SLPC   C1119781   5.804   2.977   6.665
  175SLPC  H11A19782   5.743   3.052   6.612
  175SLPC  H11B19783   5.792   2.883   6.607
  175SLPC     P19784   6.015   3.150   6.667
  175SLPC   O1319785   5.944   3.226   6.770
  175SLPC   O1419786   6.152   3.115   6.701
  175SLPC   O1219787   5.947   3.006   6.657
  175SLPC   O1119788   6.010   3.216   6.518
  175SLPC    C119789   6.078   3.163   6.411
  175SLPC    HA19790   6.132   3.243   6.355
  175SLPC    HB19791   6.162   3.098   6.445
  175SLPC    C219792   5.982   3.075   6.322
  175SLPC    HS19793   5.959   2.982   6.379
  175SLPC   O2119794   6.052   3.060   6.197
  175SLPC   C2119795   6.079   2.941   6.164
  175SLPC   O2219796   6.036   2.835   6.217
  175SLPC   C2219797   6.197   2.942   6.069
  175SLPC   H2R19798   6.285   2.912   6.131
  175SLPC   H2S19799   6.185   2.871   5.985
  175SLPC    C319800   5.844   3.157   6.304
  175SLPC    HX19801   5.868   3.262   6.276
  175SLPC    HY19802   5.803   3.161   6.408
  175SLPC   O3119803   5.758   3.093   6.211
  175SLPC   C3119804   5.713   3.169   6.110
  175SLPC   O3219805   5.736   3.286   6.086
  175SLPC   C3219806   5.621   3.082   6.022
  175SLPC   H2X19807   5.524   3.078   6.077
  175SLPC   H2Y19808   5.668   2.982   6.015
  175SLPC   C2319809   6.222   3.080   5.990
  175SLPC   H3R19810   6.254   3.155   6.066
  175SLPC   H3S19811   6.125   3.099   5.939
  175SLPC   C2419812   6.334   3.064   5.887
  175SLPC   H4R19813   6.308   2.978   5.822
  175SLPC   H4S19814   6.431   3.027   5.927
  175SLPC   C2519815   6.354   3.182   5.795
  175SLPC   H5R19816   6.423   3.255   5.843
  175SLPC   H5S19817   6.259   3.239   5.783
  175SLPC   C2619818   6.416   3.143   5.654
  175SLPC   H6R19819   6.354   3.059   5.615
  175SLPC   H6S19820   6.525   3.126   5.653
  175SLPC   C2719821   6.406   3.256   5.550
  175SLPC   H7R19822   6.454   3.349   5.588
  175SLPC   H7S19823   6.300   3.291   5.542
  175SLPC   C2819824   6.458   3.216   5.411
  175SLPC   H8R19825   6.403   3.122   5.392
  175SLPC   H8S19826   6.559   3.170   5.416
  175SLPC   C2919827   6.442   3.312   5.292
  175SLPC   H9R19828   6.522   3.387   5.289
  175SLPC  C21019829   6.326   3.322   5.224
  175SLPC  H10R19830   6.317   3.403   5.151
  175SLPC  C21119831   6.203   3.240   5.247
  175SLPC  H11R19832   6.194   3.206   5.352
  175SLPC  H11S19833   6.195   3.160   5.170
  175SLPC  C21219834   6.081   3.328   5.231
  175SLPC  H12R19835   6.078   3.429   5.274
  175SLPC  C21319836   5.969   3.292   5.166
  175SLPC  H13R19837   5.893   3.370   5.151
  175SLPC  C21419838   5.941   3.161   5.094
  175SLPC  H14R19839   5.837   3.134   5.120
  175SLPC  H14S19840   6.003   3.083   5.144
  175SLPC  C21519841   5.964   3.176   4.941
  175SLPC  H15R19842   6.056   3.238   4.931
  175SLPC  H15S19843   5.878   3.231   4.897
  175SLPC  C21619844   5.973   3.040   4.880
  175SLPC  H16R19845   5.914   2.969   4.942
  175SLPC  H16S19846   6.081   3.013   4.880
  175SLPC  C21719847   5.928   3.030   4.736
  175SLPC  H17R19848   5.998   2.957   4.690
  175SLPC  H17S19849   5.941   3.133   4.696
  175SLPC  C21819850   5.779   2.999   4.710
  175SLPC  H18R19851   5.714   3.044   4.789
  175SLPC  H18S19852   5.756   2.892   4.728
  175SLPC  H18T19853   5.743   3.022   4.608
  175SLPC   C3319854   5.581   3.147   5.885
  175SLPC   H3X19855   5.683   3.153   5.841
  175SLPC   H3Y19856   5.545   3.252   5.886
  175SLPC   C3419857   5.493   3.054   5.798
  175SLPC   H4X19858   5.384   3.067   5.810
  175SLPC   H4Y19859   5.507   2.947   5.826
  175SLPC   C3519860   5.523   3.067   5.646
  175SLPC   H5X19861   5.452   2.997   5.598
  175SLPC   H5Y19862   5.626   3.046   5.610
  175SLPC   C3619863   5.471   3.211   5.610
  175SLPC   H6X19864   5.525   3.293   5.662
  175SLPC   H6Y19865   5.367   3.220   5.648
  175SLPC   C3719866   5.489   3.230   5.463
  175SLPC   H7X19867   5.591   3.195   5.437
  175SLPC   H7Y19868   5.488   3.339   5.443
  175SLPC   C3819869   5.387   3.164   5.377
  175SLPC   H8X19870   5.291   3.204   5.416
  175SLPC   H8Y19871   5.390   3.053   5.378
  175SLPC   C3919872   5.388   3.215   5.233
  175SLPC   H9X19873   5.436   3.315   5.233
  175SLPC   H9Y19874   5.287   3.205   5.188
  175SLPC  C31019875   5.472   3.127   5.130
  175SLPC  H10X19876   5.413   3.036   5.106
  175SLPC  H10Y19877   5.569   3.095   5.175
  175SLPC  C31119878   5.494   3.196   4.998
  175SLPC  H11X19879   5.533   3.119   4.928
  175SLPC  H11Y19880   5.571   3.275   4.998
  175SLPC  C31219881   5.359   3.251   4.942
  175SLPC  H12X19882   5.313   3.332   5.003
  175SLPC  H12Y19883   5.282   3.171   4.935
  175SLPC  C31319884   5.368   3.302   4.800
  175SLPC  H13X19885   5.426   3.227   4.743
  175SLPC  H13Y19886   5.427   3.396   4.811
  175SLPC  C31419887   5.230   3.318   4.720
  175SLPC  H14X19888   5.162   3.365   4.794
  175SLPC  H14Y19889   5.202   3.210   4.717
  175SLPC  C31519890   5.227   3.391   4.586
  175SLPC  H15X19891   5.314   3.364   4.523
  175SLPC  H15Y19892   5.229   3.498   4.614
  175SLPC  C31619893   5.100   3.359   4.517
  175SLPC  H16X19894   5.012   3.365   4.585
  175SLPC  H16Y19895   5.090   3.251   4.493
  175SLPC  C31719896   5.085   3.439   4.395
  175SLPC  H17X19897   5.176   3.425   4.333
  175SLPC  H17Y19898   5.084   3.542   4.436
  175SLPC  C31819899   4.967   3.401   4.315
  175SLPC  H18X19900   4.874   3.415   4.374
  175SLPC  H18Y19901   4.961   3.298   4.275
  175SLPC  H18Z19902   4.962   3.469   4.227
  176SLPC     N19903   5.068   0.545   7.120
  176SLPC   C1319904   4.954   0.478   7.048
  176SLPC  H13A19905   4.992   0.410   6.973
  176SLPC  H13B19906   4.898   0.420   7.120
  176SLPC  H13C19907   4.880   0.546   7.006
  176SLPC   C1419908   5.143   0.437   7.181
  176SLPC  H14A19909   5.091   0.398   7.268
  176SLPC  H14B19910   5.149   0.349   7.119
  176SLPC  H14C19911   5.240   0.474   7.214
  176SLPC   C1519912   5.016   0.637   7.219
  176SLPC  H15A19913   4.972   0.720   7.165
  176SLPC  H15B19914   4.948   0.593   7.290
  176SLPC  H15C19915   5.100   0.678   7.273
  176SLPC   C1219916   5.154   0.620   7.009
  176SLPC  H12A19917   5.102   0.685   6.940
  176SLPC  H12B19918   5.172   0.535   6.945
  176SLPC   C1119919   5.272   0.699   7.055
  176SLPC  H11A19920   5.228   0.770   7.129
  176SLPC  H11B19921   5.306   0.754   6.965
  176SLPC     P19922   5.484   0.538   7.036
  176SLPC   O1319923   5.614   0.556   7.103
  176SLPC   O1419924   5.443   0.396   7.023
  176SLPC   O1219925   5.372   0.620   7.120
  176SLPC   O1119926   5.483   0.604   6.896
  176SLPC    C119927   5.580   0.709   6.874
  176SLPC    HA19928   5.540   0.807   6.910
  176SLPC    HB19929   5.675   0.678   6.923
  176SLPC    C219930   5.607   0.718   6.724
  176SLPC    HS19931   5.695   0.786   6.715
  176SLPC   O2119932   5.492   0.775   6.658
  176SLPC   C2119933   5.451   0.894   6.681
  176SLPC   O2219934   5.511   0.977   6.751
  176SLPC   C2219935   5.319   0.923   6.601
  176SLPC   H2R19936   5.316   0.853   6.516
  176SLPC   H2S19937   5.238   0.913   6.677
  176SLPC    C319938   5.635   0.575   6.668
  176SLPC    HX19939   5.579   0.490   6.713
  176SLPC    HY19940   5.736   0.552   6.708
  176SLPC   O3119941   5.639   0.590   6.528
  176SLPC   C3119942   5.520   0.550   6.480
  176SLPC   O3219943   5.427   0.496   6.534
  176SLPC   C3219944   5.524   0.595   6.334
  176SLPC   H2X19945   5.628   0.568   6.305
  176SLPC   H2Y19946   5.528   0.706   6.331
  176SLPC   C2319947   5.313   1.069   6.545
  176SLPC   H3R19948   5.336   1.144   6.624
  176SLPC   H3S19949   5.210   1.080   6.506
  176SLPC   C2419950   5.418   1.086   6.440
  176SLPC   H4R19951   5.521   1.054   6.467
  176SLPC   H4S19952   5.430   1.194   6.417
  176SLPC   C2519953   5.379   1.026   6.299
  176SLPC   H5R19954   5.270   1.041   6.288
  176SLPC   H5S19955   5.401   0.917   6.300
  176SLPC   C2619956   5.432   1.093   6.169
  176SLPC   H6R19957   5.541   1.107   6.183
  176SLPC   H6S19958   5.386   1.194   6.158
  176SLPC   C2719959   5.417   1.018   6.042
  176SLPC   H7R19960   5.306   1.010   6.030
  176SLPC   H7S19961   5.463   0.917   6.039
  176SLPC   C2819962   5.473   1.089   5.920
  176SLPC   H8R19963   5.581   1.083   5.896
  176SLPC   H8S19964   5.447   1.196   5.935
  176SLPC   C2919965   5.385   1.059   5.802
  176SLPC   H9R19966   5.283   1.102   5.809
  176SLPC  C21019967   5.402   0.966   5.705
  176SLPC  H10R19968   5.320   0.948   5.634
  176SLPC  C21119969   5.527   0.885   5.673
  176SLPC  H11R19970   5.497   0.779   5.686
  176SLPC  H11S19971   5.601   0.899   5.755
  176SLPC  C21219972   5.584   0.928   5.543
  176SLPC  H12R19973   5.542   0.869   5.461
  176SLPC  C21319974   5.698   0.998   5.527
  176SLPC  H13R19975   5.734   1.019   5.425
  176SLPC  C21419976   5.772   1.082   5.632
  176SLPC  H14R19977   5.714   1.083   5.726
  176SLPC  H14S19978   5.776   1.190   5.606
  176SLPC  C21519979   5.913   1.027   5.666
  176SLPC  H15R19980   5.974   1.048   5.576
  176SLPC  H15S19981   5.909   0.917   5.680
  176SLPC  C21619982   5.970   1.094   5.798
  176SLPC  H16R19983   5.910   1.080   5.890
  176SLPC  H16S19984   5.974   1.201   5.766
  176SLPC  C21719985   6.111   1.041   5.820
  176SLPC  H17R19986   6.172   1.017   5.729
  176SLPC  H17S19987   6.099   0.941   5.867
  176SLPC  C21819988   6.191   1.118   5.927
  176SLPC  H18R19989   6.212   1.218   5.885
  176SLPC  H18S19990   6.286   1.061   5.934
  176SLPC  H18T19991   6.142   1.114   6.027
  176SLPC   C3319992   5.428   0.528   6.238
  176SLPC   H3X19993   5.329   0.523   6.287
  176SLPC   H3Y19994   5.458   0.424   6.214
  176SLPC   C3419995   5.412   0.606   6.099
  176SLPC   H4X19996   5.499   0.580   6.035
  176SLPC   H4Y19997   5.427   0.715   6.113
  176SLPC   C3519998   5.284   0.600   6.028
  176SLPC   H5X19999   5.204   0.652   6.085
  176SLPC   H5Y20000   5.252   0.494   6.018
  176SLPC   C3620001   5.306   0.653   5.883
  176SLPC   H6X20002   5.363   0.576   5.827
  176SLPC   H6Y20003   5.371   0.743   5.888
  176SLPC   C3720004   5.178   0.666   5.799
  176SLPC   H7X20005   5.144   0.561   5.781
  176SLPC   H7Y20006   5.199   0.706   5.697
  176SLPC   C3820007   5.060   0.746   5.866
  176SLPC   H8X20008   5.090   0.852   5.879
  176SLPC   H8Y20009   5.028   0.709   5.965
  176SLPC   C3920010   4.925   0.742   5.797
  176SLPC   H9X20011   4.840   0.787   5.852
  176SLPC   H9Y20012   4.891   0.639   5.774
  176SLPC  C31020013   4.937   0.812   5.659
  176SLPC  H10X20014   5.003   0.751   5.594
  176SLPC  H10Y20015   4.989   0.906   5.687
  176SLPC  C31120016   4.810   0.836   5.589
  176SLPC  H11X20017   4.824   0.897   5.498
  176SLPC  H11Y20018   4.736   0.883   5.657
  176SLPC  C31220019   4.751   0.709   5.524
  176SLPC  H12X20020   4.650   0.738   5.489
  176SLPC  H12Y20021   4.737   0.628   5.599
  176SLPC  C31320022   4.833   0.652   5.410
  176SLPC  H13X20023   4.803   0.545   5.404
  176SLPC  H13Y20024   4.938   0.636   5.442
  176SLPC  C31420025   4.816   0.742   5.282
  176SLPC  H14X20026   4.879   0.831   5.302
  176SLPC  H14Y20027   4.711   0.775   5.269
  176SLPC  C31520028   4.874   0.672   5.163
  176SLPC  H15X20029   4.806   0.588   5.135
  176SLPC  H15Y20030   4.972   0.628   5.191
  176SLPC  C31620031   4.886   0.769   5.039
  176SLPC  H16X20032   4.972   0.838   5.054
  176SLPC  H16Y20033   4.791   0.824   5.026
  176SLPC  C31720034   4.918   0.695   4.907
  176SLPC  H17X20035   4.908   0.764   4.820
  176SLPC  H17Y20036   4.849   0.608   4.896
  176SLPC  C31820037   5.056   0.637   4.896
  176SLPC  H18X20038   5.062   0.544   4.956
  176SLPC  H18Y20039   5.138   0.698   4.940
  176SLPC  H18Z20040   5.071   0.614   4.788
  177SLPC     N20041   5.761   1.269   6.937
  177SLPC   C1320042   5.736   1.127   6.903
  177SLPC  H13A20043   5.673   1.116   6.816
  177SLPC  H13B20044   5.829   1.074   6.883
  177SLPC  H13C20045   5.705   1.066   6.986
  177SLPC   C1420046   5.853   1.269   7.061
  177SLPC  H14A20047   5.957   1.250   7.040
  177SLPC  H14B20048   5.841   1.364   7.111
  177SLPC  H14C20049   5.830   1.188   7.130
  177SLPC   C1520050   5.632   1.332   6.979
  177SLPC  H15A20051   5.560   1.335   6.900
  177SLPC  H15B20052   5.590   1.276   7.061
  177SLPC  H15C20053   5.638   1.435   7.012
  177SLPC   C1220054   5.816   1.349   6.822
  177SLPC  H12A20055   5.919   1.320   6.804
  177SLPC  H12B20056   5.818   1.452   6.854
  177SLPC   C1120057   5.733   1.347   6.698
  177SLPC  H11A20058   5.708   1.242   6.674
  177SLPC  H11B20059   5.794   1.381   6.611
  177SLPC     P20060   5.638   1.595   6.717
  177SLPC   O1320061   5.505   1.653   6.720
  177SLPC   O1420062   5.736   1.631   6.822
  177SLPC   O1220063   5.622   1.434   6.724
  177SLPC   O1120064   5.720   1.616   6.588
  177SLPC    C120065   5.678   1.583   6.456
  177SLPC    HA20066   5.770   1.547   6.404
  177SLPC    HB20067   5.600   1.504   6.451
  177SLPC    C220068   5.623   1.698   6.371
  177SLPC    HS20069   5.520   1.725   6.404
  177SLPC   O2120070   5.608   1.651   6.235
  177SLPC   C2120071   5.499   1.580   6.205
  177SLPC   O2220072   5.415   1.540   6.280
  177SLPC   C2220073   5.489   1.586   6.056
  177SLPC   H2R20074   5.457   1.687   6.021
  177SLPC   H2S20075   5.590   1.558   6.018
  177SLPC    C320076   5.698   1.836   6.386
  177SLPC    HX20077   5.803   1.825   6.352
  177SLPC    HY20078   5.693   1.849   6.497
  177SLPC   O3120079   5.630   1.945   6.317
  177SLPC   C3120080   5.644   2.067   6.366
  177SLPC   O3220081   5.704   2.103   6.472
  177SLPC   C3220082   5.589   2.163   6.268
  177SLPC   H2X20083   5.571   2.256   6.326
  177SLPC   H2Y20084   5.488   2.137   6.228
  177SLPC   C2320085   5.394   1.482   5.996
  177SLPC   H3R20086   5.292   1.522   6.009
  177SLPC   H3S20087   5.394   1.387   6.055
  177SLPC   C2420088   5.426   1.459   5.851
  177SLPC   H4R20089   5.499   1.376   5.846
  177SLPC   H4S20090   5.477   1.545   5.803
  177SLPC   C2520091   5.305   1.402   5.765
  177SLPC   H5R20092   5.223   1.477   5.771
  177SLPC   H5S20093   5.271   1.307   5.812
  177SLPC   C2620094   5.342   1.349   5.626
  177SLPC   H6R20095   5.261   1.283   5.587
  177SLPC   H6S20096   5.436   1.292   5.640
  177SLPC   C2720097   5.369   1.463   5.524
  177SLPC   H7R20098   5.438   1.530   5.580
  177SLPC   H7S20099   5.277   1.525   5.520
  177SLPC   C2820100   5.408   1.412   5.386
  177SLPC   H8R20101   5.418   1.501   5.320
  177SLPC   H8S20102   5.331   1.336   5.360
  177SLPC   C2920103   5.542   1.338   5.385
  177SLPC   H9R20104   5.595   1.329   5.481
  177SLPC  C21020105   5.610   1.297   5.274
  177SLPC  H10R20106   5.709   1.250   5.288
  177SLPC  C21120107   5.557   1.333   5.136
  177SLPC  H11R20108   5.447   1.320   5.131
  177SLPC  H11S20109   5.595   1.269   5.054
  177SLPC  C21220110   5.594   1.479   5.097
  177SLPC  H12R20111   5.668   1.527   5.164
  177SLPC  C21320112   5.546   1.548   4.992
  177SLPC  H13R20113   5.583   1.650   4.979
  177SLPC  C21420114   5.435   1.498   4.897
  177SLPC  H14R20115   5.346   1.565   4.900
  177SLPC  H14S20116   5.386   1.406   4.936
  177SLPC  C21520117   5.472   1.475   4.750
  177SLPC  H15R20118   5.390   1.416   4.703
  177SLPC  H15S20119   5.557   1.404   4.750
  177SLPC  C21620120   5.492   1.602   4.663
  177SLPC  H16R20121   5.567   1.670   4.709
  177SLPC  H16S20122   5.391   1.647   4.669
  177SLPC  C21720123   5.519   1.576   4.513
  177SLPC  H17R20124   5.431   1.536   4.459
  177SLPC  H17S20125   5.595   1.495   4.501
  177SLPC  C21820126   5.563   1.712   4.447
  177SLPC  H18R20127   5.638   1.771   4.505
  177SLPC  H18S20128   5.475   1.780   4.455
  177SLPC  H18T20129   5.595   1.705   4.341
  177SLPC   C3320130   5.677   2.206   6.146
  177SLPC   H3X20131   5.760   2.273   6.179
  177SLPC   H3Y20132   5.627   2.274   6.074
  177SLPC   C3420133   5.732   2.089   6.064
  177SLPC   H4X20134   5.652   2.037   6.007
  177SLPC   H4Y20135   5.789   2.020   6.130
  177SLPC   C3520136   5.838   2.121   5.958
  177SLPC   H5X20137   5.885   2.030   5.915
  177SLPC   H5Y20138   5.907   2.203   5.988
  177SLPC   C3620139   5.767   2.178   5.835
  177SLPC   H6X20140   5.708   2.272   5.848
  177SLPC   H6Y20141   5.710   2.098   5.783
  177SLPC   C3720142   5.882   2.220   5.728
  177SLPC   H7X20143   5.956   2.136   5.724
  177SLPC   H7Y20144   5.947   2.296   5.777
  177SLPC   C3820145   5.828   2.258   5.595
  177SLPC   H8X20146   5.742   2.328   5.596
  177SLPC   H8Y20147   5.783   2.164   5.556
  177SLPC   C3920148   5.939   2.319   5.507
  177SLPC   H9X20149   6.023   2.248   5.493
  177SLPC   H9Y20150   5.979   2.405   5.565
  177SLPC  C31020151   5.886   2.373   5.374
  177SLPC  H10X20152   5.796   2.435   5.393
  177SLPC  H10Y20153   5.863   2.288   5.306
  177SLPC  C31120154   6.000   2.454   5.305
  177SLPC  H11X20155   6.091   2.393   5.294
  177SLPC  H11Y20156   6.016   2.538   5.376
  177SLPC  C31220157   5.955   2.498   5.164
  177SLPC  H12X20158   5.859   2.553   5.167
  177SLPC  H12Y20159   5.947   2.411   5.095
  177SLPC  C31320160   6.060   2.595   5.103
  177SLPC  H13X20161   6.162   2.551   5.115
  177SLPC  H13Y20162   6.057   2.682   5.172
  177SLPC  C31420163   6.031   2.648   4.958
  177SLPC  H14X20164   6.053   2.756   4.947
  177SLPC  H14Y20165   5.922   2.635   4.940
  177SLPC  C31520166   6.131   2.584   4.854
  177SLPC  H15X20167   6.118   2.474   4.859
  177SLPC  H15Y20168   6.234   2.613   4.883
  177SLPC  C31620169   6.107   2.620   4.706
  177SLPC  H16X20170   6.174   2.552   4.650
  177SLPC  H16Y20171   6.145   2.719   4.677
  177SLPC  C31720172   5.972   2.612   4.648
  177SLPC  H17X20173   5.912   2.688   4.702
  177SLPC  H17Y20174   5.931   2.510   4.667
  177SLPC  C31820175   5.964   2.631   4.497
  177SLPC  H18X20176   5.860   2.634   4.459
  177SLPC  H18Y20177   6.023   2.544   4.461
  177SLPC  H18Z20178   6.022   2.722   4.472
  178SLPC     N20179   1.821   6.529   6.449
  178SLPC   C1320180   1.823   6.661   6.376
  178SLPC  H13A20181   1.853   6.655   6.272
  178SLPC  H13B20182   1.720   6.695   6.371
  178SLPC  H13C20183   1.890   6.734   6.418
  178SLPC   C1420184   1.729   6.429   6.378
  178SLPC  H14A20185   1.755   6.410   6.275
  178SLPC  H14B20186   1.751   6.335   6.425
  178SLPC  H14C20187   1.630   6.471   6.389
  178SLPC   C1520188   1.758   6.549   6.587
  178SLPC  H15A20189   1.652   6.570   6.580
  178SLPC  H15B20190   1.778   6.458   6.642
  178SLPC  H15C20191   1.808   6.621   6.650
  178SLPC   C1220192   1.957   6.471   6.463
  178SLPC  H12A20193   1.946   6.370   6.501
  178SLPC  H12B20194   2.013   6.527   6.536
  178SLPC   C1120195   2.048   6.457   6.334
  178SLPC  H11A20196   2.076   6.556   6.293
  178SLPC  H11B20197   1.994   6.396   6.258
  178SLPC     P20198   2.309   6.439   6.395
  178SLPC   O1320199   2.297   6.576   6.454
  178SLPC   O1420200   2.396   6.332   6.454
  178SLPC   O1220201   2.162   6.372   6.365
  178SLPC   O1120202   2.376   6.461   6.255
  178SLPC    C120203   2.365   6.365   6.149
  178SLPC    HA20204   2.450   6.294   6.146
  178SLPC    HB20205   2.271   6.306   6.150
  178SLPC    C220206   2.371   6.436   6.003
  178SLPC    HS20207   2.471   6.484   6.001
  178SLPC   O2120208   2.265   6.526   5.988
  178SLPC   C2120209   2.293   6.656   5.990
  178SLPC   O2220210   2.397   6.714   5.991
  178SLPC   C2220211   2.175   6.736   5.997
  178SLPC   H2R20212   2.093   6.674   5.953
  178SLPC   H2S20213   2.143   6.749   6.102
  178SLPC    C320214   2.367   6.333   5.892
  178SLPC    HX20215   2.285   6.262   5.918
  178SLPC    HY20216   2.453   6.263   5.878
  178SLPC   O3120217   2.322   6.390   5.767
  178SLPC   C3120218   2.426   6.452   5.697
  178SLPC   O3220219   2.534   6.480   5.744
  178SLPC   C3220220   2.375   6.481   5.552
  178SLPC   H2X20221   2.271   6.520   5.557
  178SLPC   H2Y20222   2.385   6.384   5.499
  178SLPC   C2320223   2.169   0.014   5.900
  178SLPC   H3R20224   2.241   0.095   5.921
  178SLPC   H3S20225   2.071   0.066   5.907
  178SLPC   C2420226   2.191   6.807   5.760
  178SLPC   H4R20227   2.112   6.736   5.729
  178SLPC   H4S20228   2.290   6.757   5.752
  178SLPC   C2520229   2.185   0.074   5.653
  178SLPC   H5R20230   2.241   0.161   5.695
  178SLPC   H5S20231   2.080   0.102   5.629
  178SLPC   C2620232   2.258   0.031   5.531
  178SLPC   H6R20233   2.212   6.784   5.483
  178SLPC   H6S20234   2.362   0.003   5.561
  178SLPC   C2720235   2.247   0.145   5.426
  178SLPC   H7R20236   2.343   0.132   5.370
  178SLPC   H7S20237   2.245   0.250   5.464
  178SLPC   C2820238   2.121   0.125   5.330
  178SLPC   H8R20239   2.020   0.131   5.376
  178SLPC   H8S20240   2.131   0.021   5.292
  178SLPC   C2920241   2.129   0.216   5.205
  178SLPC   H9R20242   2.139   0.322   5.232
  178SLPC  C21020243   2.126   0.176   5.077
  178SLPC  H10R20244   2.135   0.257   5.004
  178SLPC  C21120245   2.110   0.039   5.024
  178SLPC  H11R20246   2.030   0.044   4.946
  178SLPC  H11S20247   2.081   6.800   5.092
  178SLPC  C21220248   2.238   0.002   4.952
  178SLPC  H12R20249   2.328   0.024   5.012
  178SLPC  C21320250   2.243   6.791   4.828
  178SLPC  H13R20251   2.340   6.794   4.774
  178SLPC  C21420252   2.128   6.756   4.743
  178SLPC  H14R20253   2.047   6.708   4.802
  178SLPC  H14S20254   2.150   6.678   4.666
  178SLPC  C21520255   2.083   0.032   4.660
  178SLPC  H15R20256   2.078   0.129   4.715
  178SLPC  H15S20257   1.981   6.842   4.631
  178SLPC  C21620258   2.149   0.057   4.524
  178SLPC  H16R20259   2.236   6.831   4.509
  178SLPC  H16S20260   2.188   0.160   4.535
  178SLPC  C21720261   2.054   0.044   4.410
  178SLPC  H17R20262   1.949   0.056   4.442
  178SLPC  H17S20263   2.052   6.779   4.386
  178SLPC  C21820264   2.103   0.127   4.295
  178SLPC  H18R20265   2.202   0.091   4.258
  178SLPC  H18S20266   2.111   0.235   4.321
  178SLPC  H18T20267   2.036   0.130   4.206
  178SLPC   C3320268   2.475   6.587   5.500
  178SLPC   H3X20269   2.578   6.549   5.512
  178SLPC   H3Y20270   2.463   6.674   5.569
  178SLPC   C3420271   2.457   6.626   5.354
  178SLPC   H4X20272   2.527   6.705   5.320
  178SLPC   H4Y20273   2.350   6.654   5.344
  178SLPC   C3520274   2.478   6.515   5.249
  178SLPC   H5X20275   2.460   6.417   5.300
  178SLPC   H5Y20276   2.588   6.511   5.233
  178SLPC   C3620277   2.406   6.523   5.119
  178SLPC   H6X20278   2.456   6.595   5.051
  178SLPC   H6Y20279   2.304   6.563   5.135
  178SLPC   C3720280   2.396   6.383   5.045
  178SLPC   H7X20281   2.314   6.330   5.098
  178SLPC   H7Y20282   2.493   6.329   5.037
  178SLPC   C3820283   2.361   6.408   4.901
  178SLPC   H8X20284   2.435   6.473   4.850
  178SLPC   H8Y20285   2.258   6.448   4.890
  178SLPC   C3920286   2.350   6.273   4.820
  178SLPC   H9X20287   2.272   6.209   4.867
  178SLPC   H9Y20288   2.447   6.220   4.827
  178SLPC  C31020289   2.325   6.291   4.662
  178SLPC  H10X20290   2.398   6.358   4.611
  178SLPC  H10Y20291   2.233   6.353   4.657
  178SLPC  C31120292   2.310   6.174   4.566
  178SLPC  H11X20293   2.217   6.117   4.590
  178SLPC  H11Y20294   2.397   6.104   4.567
  178SLPC  C31220295   2.286   6.213   4.418
  178SLPC  H12X20296   2.368   6.283   4.393
  178SLPC  H12Y20297   2.187   6.262   4.406
  178SLPC  C31320298   2.278   6.094   4.324
  178SLPC  H13X20299   2.276   6.132   4.219
  178SLPC  H13Y20300   2.186   6.035   4.341
  178SLPC  C31420301   2.398   6.002   4.325
  178SLPC  H14X20302   2.376   5.934   4.411
  178SLPC  H14Y20303   2.488   6.066   4.338
  178SLPC  C31520304   2.403   5.907   4.197
  178SLPC  H15X20305   2.488   5.836   4.193
  178SLPC  H15Y20306   2.408   5.975   4.109
  178SLPC  C31620307   2.279   5.824   4.174
  178SLPC  H16X20308   2.199   5.900   4.156
  178SLPC  H16Y20309   2.249   5.764   4.262
  178SLPC  C31720310   2.293   5.734   4.047
  178SLPC  H17X20311   2.344   5.638   4.069
  178SLPC  H17Y20312   2.346   5.795   3.971
  178SLPC  C31820313   2.156   5.684   4.000
  178SLPC  H18X20314   2.112   5.766   3.939
  178SLPC  H18Y20315   2.089   5.670   4.087
  178SLPC  H18Z20316   2.161   5.590   3.942
  179SLPC     N20317   3.519   0.615   2.070
  179SLPC   C1320318   3.451   0.698   1.968
  179SLPC  H13A20319   3.353   0.668   1.933
  179SLPC  H13B20320   3.455   0.800   2.005
  179SLPC  H13C20321   3.502   0.712   1.874
  179SLPC   C1420322   3.658   0.650   2.091
  179SLPC  H14A20323   3.673   0.754   2.112
  179SLPC  H14B20324   3.706   0.592   2.169
  179SLPC  H14C20325   3.708   0.630   1.997
  179SLPC   C1520326   3.517   0.472   2.017
  179SLPC  H15A20327   3.575   0.414   2.086
  179SLPC  H15B20328   3.414   0.441   2.003
  179SLPC  H15C20329   3.569   0.471   1.922
  179SLPC   C1220330   3.444   0.616   2.204
  179SLPC  H12A20331   3.486   0.539   2.267
  179SLPC  H12B20332   3.343   0.584   2.184
  179SLPC   C1120333   3.442   0.746   2.281
  179SLPC  H11A20334   3.547   0.776   2.301
  179SLPC  H11B20335   3.398   0.726   2.381
  179SLPC     P20336   3.213   0.837   2.187
  179SLPC   O1320337   3.187   0.900   2.060
  179SLPC   O1420338   3.170   0.694   2.210
  179SLPC   O1220339   3.368   0.845   2.210
  179SLPC   O1120340   3.151   0.925   2.298
  179SLPC    C120341   3.217   1.043   2.350
  179SLPC    HA20342   3.272   1.095   2.269
  179SLPC    HB20343   3.140   1.116   2.384
  179SLPC    C220344   3.313   1.012   2.472
  179SLPC    HS20345   3.390   0.939   2.441
  179SLPC   O2120346   3.229   0.972   2.580
  179SLPC   C2120347   3.272   0.887   2.666
  179SLPC   O2220348   3.366   0.815   2.646
  179SLPC   C2220349   3.181   0.899   2.787
  179SLPC   H2R20350   3.135   1.000   2.782
  179SLPC   H2S20351   3.097   0.826   2.782
  179SLPC    C320352   3.386   1.143   2.510
  179SLPC    HX20353   3.316   1.227   2.530
  179SLPC    HY20354   3.450   1.187   2.431
  179SLPC   O3120355   3.459   1.111   2.628
  179SLPC   C3120356   3.581   1.052   2.624
  179SLPC   O3220357   3.649   1.042   2.524
  179SLPC   C3220358   3.626   1.010   2.762
  179SLPC   H2X20359   3.646   0.901   2.767
  179SLPC   H2Y20360   3.553   1.047   2.837
  179SLPC   C2320361   3.248   0.878   2.919
  179SLPC   H3R20362   3.351   0.918   2.929
  179SLPC   H3S20363   3.260   0.769   2.938
  179SLPC   C2420364   3.158   0.911   3.037
  179SLPC   H4R20365   3.068   0.848   3.019
  179SLPC   H4S20366   3.112   1.012   3.032
  179SLPC   C2520367   3.211   0.908   3.174
  179SLPC   H5R20368   3.290   0.983   3.192
  179SLPC   H5S20369   3.248   0.803   3.178
  179SLPC   C2620370   3.104   0.922   3.284
  179SLPC   H6R20371   3.031   0.838   3.282
  179SLPC   H6S20372   3.051   1.014   3.253
  179SLPC   C2720373   3.144   0.951   3.428
  179SLPC   H7R20374   3.054   0.987   3.481
  179SLPC   H7S20375   3.223   1.027   3.414
  179SLPC   C2820376   3.206   0.830   3.508
  179SLPC   H8R20377   3.131   0.751   3.490
  179SLPC   H8S20378   3.204   0.850   3.617
  179SLPC   C2920379   3.348   0.795   3.461
  179SLPC   H9R20380   3.357   0.766   3.355
  179SLPC  C21020381   3.461   0.789   3.533
  179SLPC  H10R20382   3.554   0.770   3.479
  179SLPC  C21120383   3.478   0.807   3.684
  179SLPC  H11R20384   3.435   0.903   3.718
  179SLPC  H11S20385   3.589   0.810   3.688
  179SLPC  C21220386   3.415   0.700   3.764
  179SLPC  H12R20387   3.328   0.649   3.719
  179SLPC  C21320388   3.456   0.646   3.879
  179SLPC  H13R20389   3.393   0.571   3.929
  179SLPC  C21420390   3.575   0.701   3.965
  179SLPC  H14R20391   3.630   0.778   3.907
  179SLPC  H14S20392   3.645   0.619   3.991
  179SLPC  C21520393   3.534   0.766   4.093
  179SLPC  H15R20394   3.447   0.720   4.145
  179SLPC  H15S20395   3.485   0.863   4.072
  179SLPC  C21620396   3.647   0.797   4.191
  179SLPC  H16R20397   3.741   0.765   4.143
  179SLPC  H16S20398   3.628   0.733   4.280
  179SLPC  C21720399   3.655   0.949   4.225
  179SLPC  H17R20400   3.558   0.981   4.269
  179SLPC  H17S20401   3.675   1.010   4.135
  179SLPC  C21820402   3.765   0.986   4.316
  179SLPC  H18R20403   3.777   0.925   4.408
  179SLPC  H18S20404   3.741   1.090   4.348
  179SLPC  H18T20405   3.861   0.981   4.261
  179SLPC   C3320406   3.764   1.081   2.802
  179SLPC   H3X20407   3.749   1.180   2.851
  179SLPC   H3Y20408   3.816   1.104   2.707
  179SLPC   C3420409   3.853   1.005   2.898
  179SLPC   H4X20410   3.953   1.052   2.912
  179SLPC   H4Y20411   3.868   0.905   2.851
  179SLPC   C3520412   3.781   0.978   3.032
  179SLPC   H5X20413   3.731   1.072   3.065
  179SLPC   H5Y20414   3.701   0.902   3.038
  179SLPC   C3620415   3.882   0.936   3.144
  179SLPC   H6X20416   3.951   1.022   3.156
  179SLPC   H6Y20417   3.944   0.856   3.098
  179SLPC   C3720418   3.819   0.886   3.275
  179SLPC   H7X20419   3.774   0.787   3.251
  179SLPC   H7Y20420   3.740   0.954   3.313
  179SLPC   C3820421   3.916   0.855   3.384
  179SLPC   H8X20422   3.969   0.950   3.407
  179SLPC   H8Y20423   3.983   0.776   3.342
  179SLPC   C3920424   3.846   0.806   3.515
  179SLPC   H9X20425   3.818   0.700   3.502
  179SLPC   H9Y20426   3.751   0.862   3.531
  179SLPC  C31020427   3.943   0.816   3.634
  179SLPC  H10X20428   3.958   0.924   3.657
  179SLPC  H10Y20429   4.035   0.766   3.597
  179SLPC  C31120430   3.899   0.746   3.763
  179SLPC  H11X20431   3.885   0.638   3.741
  179SLPC  H11Y20432   3.795   0.777   3.787
  179SLPC  C31220433   3.991   0.769   3.891
  179SLPC  H12X20434   3.920   0.766   3.977
  179SLPC  H12Y20435   4.035   0.869   3.870
  179SLPC  C31320436   4.107   0.672   3.908
  179SLPC  H13X20437   4.174   0.675   3.821
  179SLPC  H13Y20438   4.062   0.571   3.907
  179SLPC  C31420439   4.199   0.688   4.034
  179SLPC  H14X20440   4.261   0.597   4.042
  179SLPC  H14Y20441   4.137   0.713   4.123
  179SLPC  C31520442   4.283   0.818   4.022
  179SLPC  H15X20443   4.218   0.905   3.997
  179SLPC  H15Y20444   4.348   0.793   3.936
  179SLPC  C31620445   4.367   0.841   4.146
  179SLPC  H16X20446   4.301   0.872   4.230
  179SLPC  H16Y20447   4.432   0.931   4.140
  179SLPC  C31720448   4.449   0.717   4.189
  179SLPC  H17X20449   4.520   0.692   4.107
  179SLPC  H17Y20450   4.386   0.633   4.225
  179SLPC  C31820451   4.541   0.751   4.305
  179SLPC  H18X20452   4.601   0.840   4.274
  179SLPC  H18Y20453   4.606   0.661   4.313
  179SLPC  H18Z20454   4.491   0.763   4.404
  180SLPC     N20455   1.992   0.449   2.036
  180SLPC   C1320456   1.929   0.421   1.906
  180SLPC  H13A20457   1.847   0.351   1.908
  180SLPC  H13B20458   1.910   0.516   1.858
  180SLPC  H13C20459   1.995   0.368   1.839
  180SLPC   C1420460   2.123   0.516   2.006
  180SLPC  H14A20461   2.191   0.446   1.961
  180SLPC  H14B20462   2.103   0.596   1.937
  180SLPC  H14C20463   2.172   0.548   2.097
  180SLPC   C1520464   2.025   0.326   2.110
  180SLPC  H15A20465   2.104   0.357   2.177
  180SLPC  H15B20466   1.936   0.284   2.155
  180SLPC  H15C20467   2.066   0.250   2.046
  180SLPC   C1220468   1.902   0.531   2.121
  180SLPC  H12A20469   1.800   0.496   2.113
  180SLPC  H12B20470   1.903   0.629   2.076
  180SLPC   C1120471   1.942   0.567   2.269
  180SLPC  H11A20472   1.951   0.480   2.338
  180SLPC  H11B20473   1.849   0.619   2.302
  180SLPC     P20474   2.181   0.625   2.353
  180SLPC   O1320475   2.266   0.529   2.277
  180SLPC   O1420476   2.240   0.760   2.377
  180SLPC   O1220477   2.048   0.654   2.275
  180SLPC   O1120478   2.141   0.550   2.489
  180SLPC    C120479   2.034   0.583   2.579
  180SLPC    HA20480   1.945   0.607   2.517
  180SLPC    HB20481   2.012   0.489   2.634
  180SLPC    C220482   2.077   0.701   2.669
  180SLPC    HS20483   2.185   0.681   2.685
  180SLPC   O2120484   2.012   0.689   2.793
  180SLPC   C2120485   2.050   0.608   2.882
  180SLPC   O2220486   2.145   0.528   2.876
  180SLPC   C2220487   1.968   0.619   3.007
  180SLPC   H2R20488   1.900   0.707   3.013
  180SLPC   H2S20489   1.901   0.531   2.994
  180SLPC    C320490   2.054   0.840   2.602
  180SLPC    HX20491   1.955   0.832   2.553
  180SLPC    HY20492   2.126   0.871   2.523
  180SLPC   O3120493   2.037   0.944   2.694
  180SLPC   C3120494   2.149   0.994   2.745
  180SLPC   O3220495   2.261   0.952   2.717
  180SLPC   C3220496   2.123   1.100   2.851
  180SLPC   H2X20497   2.056   1.174   2.802
  180SLPC   H2Y20498   2.223   1.144   2.870
  180SLPC   C2320499   2.061   0.604   3.133
  180SLPC   H3R20500   2.144   0.678   3.127
  180SLPC   H3S20501   2.110   0.506   3.148
  180SLPC   C2420502   1.984   0.640   3.262
  180SLPC   H4R20503   1.892   0.579   3.277
  180SLPC   H4S20504   1.944   0.743   3.260
  180SLPC   C2520505   2.066   0.626   3.392
  180SLPC   H5R20506   2.162   0.681   3.377
  180SLPC   H5S20507   2.077   0.516   3.396
  180SLPC   C2620508   1.998   0.676   3.523
  180SLPC   H6R20509   1.899   0.627   3.533
  180SLPC   H6S20510   1.969   0.783   3.516
  180SLPC   C2720511   2.088   0.647   3.644
  180SLPC   H7R20512   2.176   0.714   3.628
  180SLPC   H7S20513   2.139   0.548   3.645
  180SLPC   C2820514   2.026   0.683   3.779
  180SLPC   H8R20515   1.945   0.608   3.793
  180SLPC   H8S20516   1.974   0.781   3.768
  180SLPC   C2920517   2.138   0.688   3.873
  180SLPC   H9R20518   2.222   0.750   3.840
  180SLPC  C21020519   2.143   0.640   4.000
  180SLPC  H10R20520   2.237   0.659   4.055
  180SLPC  C21120521   2.034   0.568   4.063
  180SLPC  H11R20522   2.089   0.515   4.144
  180SLPC  H11S20523   1.993   0.488   3.997
  180SLPC  C21220524   1.922   0.664   4.097
  180SLPC  H12R20525   1.915   0.749   4.027
  180SLPC  C21320526   1.832   0.655   4.199
  180SLPC  H13R20527   1.755   0.733   4.215
  180SLPC  C21420528   1.833   0.550   4.303
  180SLPC  H14R20529   1.871   0.450   4.273
  180SLPC  H14S20530   1.731   0.548   4.347
  180SLPC  C21520531   1.923   0.602   4.420
  180SLPC  H15R20532   1.894   0.697   4.470
  180SLPC  H15S20533   2.025   0.609   4.378
  180SLPC  C21620534   1.949   0.488   4.524
  180SLPC  H16R20535   1.981   0.392   4.479
  180SLPC  H16S20536   1.858   0.465   4.584
  180SLPC  C21720537   2.057   0.531   4.628
  180SLPC  H17R20538   2.005   0.585   4.710
  180SLPC  H17S20539   2.123   0.601   4.572
  180SLPC  C21820540   2.136   0.417   4.694
  180SLPC  H18R20541   2.079   0.351   4.763
  180SLPC  H18S20542   2.211   0.470   4.755
  180SLPC  H18T20543   2.189   0.362   4.613
  180SLPC   C3320544   2.061   1.038   2.974
  180SLPC   H3X20545   1.977   0.967   2.956
  180SLPC   H3Y20546   2.025   1.121   3.039
  180SLPC   C3420547   2.157   0.963   3.065
  180SLPC   H4X20548   2.213   0.887   3.006
  180SLPC   H4Y20549   2.095   0.905   3.137
  180SLPC   C3520550   2.260   1.041   3.142
  180SLPC   H5X20551   2.308   1.111   3.071
  180SLPC   H5Y20552   2.334   0.964   3.171
  180SLPC   C3620553   2.221   1.128   3.269
  180SLPC   H6X20554   2.146   1.203   3.236
  180SLPC   H6Y20555   2.314   1.176   3.306
  180SLPC   C3720556   2.166   1.046   3.385
  180SLPC   H7X20557   2.235   0.963   3.411
  180SLPC   H7Y20558   2.068   1.012   3.345
  180SLPC   C3820559   2.155   1.131   3.520
  180SLPC   H8X20560   2.051   1.169   3.512
  180SLPC   H8Y20561   2.234   1.209   3.524
  180SLPC   C3920562   2.167   1.044   3.646
  180SLPC   H9X20563   2.266   0.993   3.652
  180SLPC   H9Y20564   2.089   0.966   3.637
  180SLPC  C31020565   2.136   1.131   3.775
  180SLPC  H10X20566   2.079   1.063   3.841
  180SLPC  H10Y20567   2.085   1.224   3.744
  180SLPC  C31120568   2.269   1.172   3.850
  180SLPC  H11X20569   2.298   1.262   3.791
  180SLPC  H11Y20570   2.343   1.090   3.859
  180SLPC  C31220571   2.242   1.218   3.996
  180SLPC  H12X20572   2.146   1.271   4.007
  180SLPC  H12Y20573   2.322   1.282   4.038
  180SLPC  C31320574   2.225   1.099   4.076
  180SLPC  H13X20575   2.321   1.045   4.060
  180SLPC  H13Y20576   2.136   1.039   4.045
  180SLPC  C31420577   2.197   1.138   4.221
  180SLPC  H14X20578   2.096   1.184   4.235
  180SLPC  H14Y20579   2.274   1.209   4.257
  180SLPC  C31520580   2.198   1.010   4.315
  180SLPC  H15X20581   2.300   0.998   4.357
  180SLPC  H15Y20582   2.154   0.923   4.262
  180SLPC  C31620583   2.105   1.026   4.451
  180SLPC  H16X20584   1.998   1.028   4.422
  180SLPC  H16Y20585   2.129   1.127   4.491
  180SLPC  C31720586   2.122   0.908   4.553
  180SLPC  H17X20587   2.073   0.818   4.508
  180SLPC  H17Y20588   2.073   0.939   4.648
  180SLPC  C31820589   2.261   0.860   4.588
  180SLPC  H18X20590   2.245   0.773   4.656
  180SLPC  H18Y20591   2.322   0.946   4.622
  180SLPC  H18Z20592   2.311   0.817   4.500
  181SLPC     N20593   1.068   6.456   2.024
  181SLPC   C1320594   1.116   6.315   2.014
  181SLPC  H13A20595   1.079   6.267   1.925
  181SLPC  H13B20596   1.223   6.318   2.006
  181SLPC  H13C20597   1.088   6.265   2.106
  181SLPC   C1420598   0.927   6.447   2.076
  181SLPC  H14A20599   0.894   6.548   2.096
  181SLPC  H14B20600   0.858   6.407   2.003
  181SLPC  H14C20601   0.906   6.389   2.165
  181SLPC   C1520602   1.077   6.510   1.886
  181SLPC  H15A20603   1.174   6.480   1.847
  181SLPC  H15B20604   1.000   6.476   1.819
  181SLPC  H15C20605   1.084   6.617   1.888
  181SLPC   C1220606   1.154   6.529   2.122
  181SLPC  H12A20607   1.144   6.482   2.218
  181SLPC  H12B20608   1.124   6.633   2.120
  181SLPC   C1120609   1.307   6.546   2.099
  181SLPC  H11A20610   1.358   6.603   2.179
  181SLPC  H11B20611   1.312   6.614   2.011
  181SLPC     P20612   1.525   6.401   2.101
  181SLPC   O1320613   1.565   6.272   2.038
  181SLPC   O1420614   1.613   6.518   2.073
  181SLPC   O1220615   1.366   6.425   2.078
  181SLPC   O1120616   1.535   6.369   2.260
  181SLPC    C120617   1.420   6.355   2.350
  181SLPC    HA20618   1.330   6.420   2.343
  181SLPC    HB20619   1.386   6.250   2.360
  181SLPC    C220620   1.458   6.380   2.503
  181SLPC    HS20621   1.550   6.319   2.518
  181SLPC   O2120622   1.348   6.352   2.589
  181SLPC   C2120623   1.328   6.225   2.620
  181SLPC   O2220624   1.396   6.128   2.591
  181SLPC   C2220625   1.213   6.216   2.727
  181SLPC   H2R20626   1.235   6.278   2.817
  181SLPC   H2S20627   1.125   6.267   2.681
  181SLPC    C320628   1.502   6.526   2.534
  181SLPC    HX20629   1.421   6.603   2.537
  181SLPC    HY20630   1.563   6.554   2.445
  181SLPC   O3120631   1.598   6.527   2.642
  181SLPC   C3120632   1.545   6.564   2.759
  181SLPC   O3220633   1.422   6.585   2.779
  181SLPC   C3220634   1.650   6.572   2.866
  181SLPC   H2X20635   1.716   6.653   2.828
  181SLPC   H2Y20636   1.706   6.476   2.874
  181SLPC   C2320637   1.169   6.072   2.753
  181SLPC   H3R20638   1.253   6.014   2.798
  181SLPC   H3S20639   1.152   6.030   2.652
  181SLPC   C2420640   1.045   6.057   2.848
  181SLPC   H4R20641   1.023   5.948   2.849
  181SLPC   H4S20642   0.958   6.120   2.819
  181SLPC   C2520643   1.090   6.092   2.993
  181SLPC   H5R20644   1.147   6.187   2.993
  181SLPC   H5S20645   1.156   6.010   3.028
  181SLPC   C2620646   0.965   6.103   3.081
  181SLPC   H6R20647   0.898   6.021   3.049
  181SLPC   H6S20648   0.904   6.192   3.053
  181SLPC   C2720649   1.005   6.116   3.228
  181SLPC   H7R20650   1.045   6.214   3.263
  181SLPC   H7S20651   1.091   6.045   3.229
  181SLPC   C2820652   0.906   6.051   3.321
  181SLPC   H8R20653   0.969   6.041   3.412
  181SLPC   H8S20654   0.885   5.950   3.280
  181SLPC   C2920655   0.790   6.141   3.339
  181SLPC   H9R20656   0.718   6.136   3.256
  181SLPC  C21020657   0.765   6.224   3.439
  181SLPC  H10R20658   0.669   6.279   3.440
  181SLPC  C21120659   0.838   6.250   3.565
  181SLPC  H11R20660   0.787   6.335   3.616
  181SLPC  H11S20661   0.940   6.286   3.542
  181SLPC  C21220662   0.843   6.137   3.667
  181SLPC  H12R20663   0.907   6.052   3.640
  181SLPC  C21320664   0.788   6.125   3.792
  181SLPC  H13R20665   0.816   6.038   3.854
  181SLPC  C21420666   0.693   6.227   3.849
  181SLPC  H14R20667   0.587   6.207   3.826
  181SLPC  H14S20668   0.710   6.327   3.804
  181SLPC  C21520669   0.711   6.240   3.992
  181SLPC  H15R20670   0.815   6.262   4.024
  181SLPC  H15S20671   0.675   6.150   4.045
  181SLPC  C21620672   0.613   6.347   4.052
  181SLPC  H16R20673   0.512   6.301   4.052
  181SLPC  H16S20674   0.615   6.443   3.996
  181SLPC  C21720675   0.646   6.384   4.200
  181SLPC  H17R20676   0.741   6.441   4.214
  181SLPC  H17S20677   0.651   6.295   4.267
  181SLPC  C21820678   0.530   6.486   4.242
  181SLPC  H18R20679   0.543   6.587   4.199
  181SLPC  H18S20680   0.535   6.495   4.353
  181SLPC  H18T20681   0.432   6.444   4.210
  181SLPC   C3320682   1.587   6.597   3.005
  181SLPC   H3X20683   1.529   6.511   3.044
  181SLPC   H3Y20684   1.520   6.686   3.002
  181SLPC   C3420685   1.698   6.616   3.111
  181SLPC   H4X20686   1.769   6.695   3.079
  181SLPC   H4Y20687   1.760   6.524   3.119
  181SLPC   C3520688   1.650   6.650   3.253
  181SLPC   H5X20689   1.568   6.583   3.287
  181SLPC   H5Y20690   1.590   6.742   3.243
  181SLPC   C3620691   1.770   6.667   3.344
  181SLPC   H6X20692   1.821   6.764   3.326
  181SLPC   H6Y20693   1.842   6.583   3.342
  181SLPC   C3720694   1.734   6.684   3.494
  181SLPC   H7X20695   1.655   6.761   3.508
  181SLPC   H7Y20696   1.823   6.715   3.552
  181SLPC   C3820697   1.691   6.550   3.552
  181SLPC   H8X20698   1.773   6.478   3.532
  181SLPC   H8Y20699   1.605   6.509   3.495
  181SLPC   C3920700   1.663   6.547   3.701
  181SLPC   H9X20701   1.594   6.463   3.719
  181SLPC   H9Y20702   1.598   6.634   3.724
  181SLPC  C31020703   1.790   6.558   3.793
  181SLPC  H10X20704   1.753   6.540   3.896
  181SLPC  H10Y20705   1.843   6.655   3.784
  181SLPC  C31120706   1.889   6.448   3.760
  181SLPC  H11X20707   1.953   6.454   3.670
  181SLPC  H11Y20708   1.821   6.363   3.740
  181SLPC  C31220709   1.965   6.399   3.887
  181SLPC  H12X20710   2.012   6.300   3.873
  181SLPC  H12Y20711   1.906   6.395   3.981
  181SLPC  C31320712   2.082   6.501   3.918
  181SLPC  H13X20713   2.059   6.609   3.904
  181SLPC  H13Y20714   2.164   6.477   3.847
  181SLPC  C31420715   2.130   6.501   4.067
  181SLPC  H14X20716   2.182   6.404   4.084
  181SLPC  H14Y20717   2.046   6.520   4.136
  181SLPC  C31520718   2.235   6.605   4.094
  181SLPC  H15X20719   2.209   6.712   4.079
  181SLPC  H15Y20720   2.317   6.590   4.020
  181SLPC  C31620721   2.293   6.591   4.235
  181SLPC  H16X20722   2.339   6.490   4.243
  181SLPC  H16Y20723   2.202   6.601   4.298
  181SLPC  C31720724   2.398   6.703   4.255
  181SLPC  H17X20725   2.356   6.804   4.238
  181SLPC  H17Y20726   2.478   6.682   4.181
  181SLPC  C31820727   2.454   6.699   4.388
  181SLPC  H18X20728   2.523   6.613   4.404
  181SLPC  H18Y20729   2.375   6.701   4.467
  181SLPC  H18Z20730   2.499   6.798   4.409
  182SLPC     N20731   2.250   5.881   2.149
  182SLPC   C1320732   2.125   5.832   2.212
  182SLPC  H13A20733   2.134   5.849   2.319
  182SLPC  H13B20734   2.029   5.873   2.183
  182SLPC  H13C20735   2.119   5.725   2.202
  182SLPC   C1420736   2.252   6.025   2.160
  182SLPC  H14A20737   2.158   6.068   2.129
  182SLPC  H14B20738   2.279   6.048   2.262
  182SLPC  H14C20739   2.338   6.059   2.104
  182SLPC   C1520740   2.249   5.849   2.008
  182SLPC  H15A20741   2.332   5.882   1.948
  182SLPC  H15B20742   2.237   5.742   2.002
  182SLPC  H15C20743   2.156   5.888   1.970
  182SLPC   C1220744   2.370   5.806   2.213
  182SLPC  H12A20745   2.463   5.837   2.167
  182SLPC  H12B20746   2.371   5.704   2.179
  182SLPC   C1120747   2.387   5.808   2.369
  182SLPC  H11A20748   2.401   5.911   2.408
  182SLPC  H11B20749   2.482   5.756   2.393
  182SLPC     P20750   2.267   5.602   2.463
  182SLPC   O1320751   2.151   5.563   2.384
  182SLPC   O1420752   2.392   5.536   2.427
  182SLPC   O1220753   2.279   5.755   2.449
  182SLPC   O1120754   2.240   5.593   2.616
  182SLPC    C120755   2.332   5.633   2.715
  182SLPC    HA20756   2.374   5.541   2.760
  182SLPC    HB20757   2.414   5.694   2.672
  182SLPC    C220758   2.280   5.716   2.833
  182SLPC    HS20759   2.199   5.656   2.880
  182SLPC   O2120760   2.237   5.843   2.785
  182SLPC   C2120761   2.111   5.847   2.746
  182SLPC   O2220762   2.025   5.764   2.751
  182SLPC   C2220763   2.082   5.984   2.684
  182SLPC   H2R20764   2.142   6.061   2.735
  182SLPC   H2S20765   2.125   5.983   2.581
  182SLPC    C320766   2.388   5.745   2.940
  182SLPC    HX20767   2.360   5.816   3.021
  182SLPC    HY20768   2.468   5.800   2.885
  182SLPC   O3120769   2.443   5.626   3.005
  182SLPC   C3120770   2.367   5.588   3.108
  182SLPC   O3220771   2.260   5.640   3.140
  182SLPC   C3220772   2.439   5.478   3.177
  182SLPC   H2X20773   2.534   5.510   3.225
  182SLPC   H2Y20774   2.471   5.397   3.107
  182SLPC   C2320775   1.931   6.021   2.670
  182SLPC   H3R20776   1.881   5.936   2.619
  182SLPC   H3S20777   1.917   6.111   2.606
  182SLPC   C2420778   1.864   6.064   2.798
  182SLPC   H4R20779   1.908   6.156   2.840
  182SLPC   H4S20780   1.878   5.983   2.873
  182SLPC   C2520781   1.714   6.087   2.779
  182SLPC   H5R20782   1.658   6.002   2.734
  182SLPC   H5S20783   1.699   6.174   2.711
  182SLPC   C2620784   1.654   6.123   2.911
  182SLPC   H6R20785   1.704   6.216   2.944
  182SLPC   H6S20786   1.685   6.050   2.989
  182SLPC   C2720787   1.497   6.140   2.917
  182SLPC   H7R20788   1.455   6.040   2.890
  182SLPC   H7S20789   1.461   6.211   2.839
  182SLPC   C2820790   1.442   6.181   3.054
  182SLPC   H8R20791   1.335   6.207   3.037
  182SLPC   H8S20792   1.489   6.274   3.092
  182SLPC   C2920793   1.456   6.069   3.151
  182SLPC   H9R20794   1.436   5.977   3.094
  182SLPC  C21020795   1.505   6.056   3.281
  182SLPC  H10R20796   1.504   5.953   3.321
  182SLPC  C21120797   1.540   6.169   3.371
  182SLPC  H11R20798   1.502   6.265   3.331
  182SLPC  H11S20799   1.648   6.182   3.390
  182SLPC  C21220800   1.470   6.139   3.503
  182SLPC  H12R20801   1.360   6.135   3.502
  182SLPC  C21320802   1.527   6.119   3.621
  182SLPC  H13R20803   1.450   6.088   3.693
  182SLPC  C21420804   1.670   6.103   3.662
  182SLPC  H14R20805   1.740   6.181   3.627
  182SLPC  H14S20806   1.699   6.004   3.621
  182SLPC  C21520807   1.657   6.089   3.812
  182SLPC  H15R20808   1.596   6.004   3.848
  182SLPC  H15S20809   1.617   6.181   3.859
  182SLPC  C21620810   1.792   6.068   3.887
  182SLPC  H16R20811   1.850   6.158   3.859
  182SLPC  H16S20812   1.856   5.983   3.853
  182SLPC  C21720813   1.767   6.068   4.038
  182SLPC  H17R20814   1.701   5.981   4.055
  182SLPC  H17S20815   1.719   6.164   4.067
  182SLPC  C21820816   1.898   6.049   4.118
  182SLPC  H18R20817   1.956   5.957   4.095
  182SLPC  H18S20818   1.877   6.051   4.228
  182SLPC  H18T20819   1.974   6.127   4.100
  182SLPC   C3320820   2.345   5.412   3.280
  182SLPC   H3X20821   2.248   5.396   3.227
  182SLPC   H3Y20822   2.315   5.486   3.358
  182SLPC   C3420823   2.392   5.279   3.351
  182SLPC   H4X20824   2.448   5.224   3.272
  182SLPC   H4Y20825   2.302   5.216   3.370
  182SLPC   C3520826   2.456   5.299   3.490
  182SLPC   H5X20827   2.524   5.385   3.470
  182SLPC   H5Y20828   2.513   5.206   3.509
  182SLPC   C3620829   2.366   5.334   3.608
  182SLPC   H6X20830   2.272   5.274   3.608
  182SLPC   H6Y20831   2.319   5.432   3.588
  182SLPC   C3720832   2.443   5.327   3.740
  182SLPC   H7X20833   2.511   5.414   3.727
  182SLPC   H7Y20834   2.492   5.228   3.737
  182SLPC   C3820835   2.353   5.331   3.864
  182SLPC   H8X20836   2.313   5.230   3.881
  182SLPC   H8Y20837   2.268   5.400   3.845
  182SLPC   C3920838   2.425   5.385   3.984
  182SLPC   H9X20839   2.364   5.422   4.069
  182SLPC   H9Y20840   2.490   5.470   3.954
  182SLPC  C31020841   2.525   5.291   4.060
  182SLPC  H10X20842   2.588   5.230   3.991
  182SLPC  H10Y20843   2.467   5.220   4.123
  182SLPC  C31120844   2.635   5.354   4.142
  182SLPC  H11X20845   2.672   5.440   4.083
  182SLPC  H11Y20846   2.713   5.276   4.157
  182SLPC  C31220847   2.591   5.419   4.275
  182SLPC  H12X20848   2.562   5.344   4.352
  182SLPC  H12Y20849   2.497   5.473   4.250
  182SLPC  C31320850   2.691   5.516   4.335
  182SLPC  H13X20851   2.751   5.558   4.251
  182SLPC  H13Y20852   2.757   5.455   4.401
  182SLPC  C31420853   2.630   5.629   4.412
  182SLPC  H14X20854   2.573   5.690   4.338
  182SLPC  H14Y20855   2.718   5.674   4.463
  182SLPC  C31520856   2.522   5.592   4.515
  182SLPC  H15X20857   2.562   5.512   4.582
  182SLPC  H15Y20858   2.434   5.553   4.459
  182SLPC  C31620859   2.489   5.712   4.595
  182SLPC  H16X20860   2.433   5.789   4.539
  182SLPC  H16Y20861   2.589   5.742   4.632
  182SLPC  C31720862   2.406   5.673   4.725
  182SLPC  H17X20863   2.401   5.763   4.790
  182SLPC  H17Y20864   2.458   5.599   4.789
  182SLPC  C31820865   2.261   5.632   4.708
  182SLPC  H18X20866   2.205   5.716   4.661
  182SLPC  H18Y20867   2.213   5.608   4.805
  182SLPC  H18Z20868   2.252   5.543   4.642
  183SLPC     N20869   6.282   2.396   1.866
  183SLPC   C1320870   6.219   2.486   1.761
  183SLPC  H13A20871   6.235   2.591   1.780
  183SLPC  H13B20872   6.266   2.467   1.665
  183SLPC  H13C20873   6.116   2.456   1.754
  183SLPC   C1420874   6.425   2.396   1.835
  183SLPC  H14A20875   6.486   2.348   1.910
  183SLPC  H14B20876   6.443   2.359   1.736
  183SLPC  H14C20877   6.461   2.497   1.849
  183SLPC   C1520878   6.222   2.267   1.841
  183SLPC  H15A20879   6.114   2.263   1.840
  183SLPC  H15B20880   6.260   2.233   1.746
  183SLPC  H15C20881   6.234   2.199   1.923
  183SLPC   C1220882   6.253   2.453   2.003
  183SLPC  H12A20883   6.156   2.411   2.028
  183SLPC  H12B20884   6.247   2.560   1.992
  183SLPC   C1120885   6.340   2.424   2.123
  183SLPC  H11A20886   6.307   2.474   2.216
  183SLPC  H11B20887   6.444   2.458   2.104
  183SLPC     P20888   6.224   2.240   2.261
  183SLPC   O1320889   6.092   2.267   2.202
  183SLPC   O1420890   6.251   2.100   2.306
  183SLPC   O1220891   6.331   2.280   2.151
  183SLPC   O1120892   6.253   2.335   2.380
  183SLPC    C120893   6.293   2.307   2.504
  183SLPC    HA20894   6.364   2.222   2.510
  183SLPC    HB20895   6.343   2.397   2.545
  183SLPC    C220896   6.174   2.283   2.605
  183SLPC    HS20897   6.125   2.187   2.578
  183SLPC   O2120898   6.083   2.396   2.598
  183SLPC   C2120899   5.965   2.379   2.653
  183SLPC   O2220900   5.917   2.273   2.694
  183SLPC   C2220901   5.885   2.510   2.652
  183SLPC   H2R20902   5.940   2.592   2.601
  183SLPC   H2S20903   5.793   2.494   2.592
  183SLPC    C320904   6.235   2.277   2.752
  183SLPC    HX20905   6.252   2.384   2.776
  183SLPC    HY20906   6.336   2.232   2.753
  183SLPC   O3120907   6.139   2.216   2.840
  183SLPC   C3120908   6.122   2.089   2.826
  183SLPC   O3220909   6.184   2.015   2.750
  183SLPC   C3220910   6.005   2.052   2.914
  183SLPC   H2X20911   5.983   1.943   2.913
  183SLPC   H2Y20912   5.910   2.105   2.892
  183SLPC   C2320913   5.840   2.557   2.791
  183SLPC   H3R20914   5.779   2.475   2.834
  183SLPC   H3S20915   5.771   2.643   2.777
  183SLPC   C2420916   5.952   2.588   2.884
  183SLPC   H4R20917   5.998   2.686   2.857
  183SLPC   H4S20918   6.027   2.508   2.866
  183SLPC   C2520919   5.906   2.579   3.027
  183SLPC   H5R20920   5.847   2.485   3.034
  183SLPC   H5S20921   5.831   2.658   3.048
  183SLPC   C2620922   6.017   2.567   3.133
  183SLPC   H6R20923   6.085   2.654   3.121
  183SLPC   H6S20924   6.072   2.474   3.106
  183SLPC   C2720925   5.964   2.576   3.279
  183SLPC   H7R20926   5.951   2.683   3.303
  183SLPC   H7S20927   6.049   2.545   3.344
  183SLPC   C2820928   5.841   2.505   3.320
  183SLPC   H8R20929   5.755   2.533   3.255
  183SLPC   H8S20930   5.819   2.539   3.424
  183SLPC   C2920931   5.873   2.359   3.317
  183SLPC   H9R20932   5.897   2.315   3.219
  183SLPC  C21020933   5.875   2.261   3.418
  183SLPC  H10R20934   5.894   2.160   3.380
  183SLPC  C21120935   5.830   2.274   3.561
  183SLPC  H11R20936   5.851   2.376   3.601
  183SLPC  H11S20937   5.900   2.219   3.628
  183SLPC  C21220938   5.685   2.236   3.579
  183SLPC  H12R20939   5.621   2.232   3.489
  183SLPC  C21320940   5.617   2.210   3.695
  183SLPC  H13R20941   5.511   2.181   3.686
  183SLPC  C21420942   5.674   2.202   3.835
  183SLPC  H14R20943   5.744   2.116   3.849
  183SLPC  H14S20944   5.588   2.198   3.904
  183SLPC  C21520945   5.751   2.332   3.882
  183SLPC  H15R20946   5.686   2.421   3.875
  183SLPC  H15S20947   5.833   2.355   3.811
  183SLPC  C21620948   5.814   2.315   4.019
  183SLPC  H16R20949   5.859   2.214   4.020
  183SLPC  H16S20950   5.737   2.320   4.100
  183SLPC  C21720951   5.927   2.423   4.056
  183SLPC  H17R20952   5.884   2.526   4.058
  183SLPC  H17S20953   6.009   2.436   3.983
  183SLPC  C21820954   5.990   2.392   4.190
  183SLPC  H18R20955   5.927   2.362   4.277
  183SLPC  H18S20956   6.062   2.470   4.221
  183SLPC  H18T20957   6.058   2.305   4.176
  183SLPC   C3320958   6.036   2.099   3.059
  183SLPC   H3X20959   5.946   2.064   3.113
  183SLPC   H3Y20960   6.038   2.210   3.056
  183SLPC   C3420961   6.156   2.034   3.133
  183SLPC   H4X20962   6.249   2.094   3.120
  183SLPC   H4Y20963   6.162   1.932   3.091
  183SLPC   C3520964   6.133   2.011   3.282
  183SLPC   H5X20965   6.075   2.097   3.321
  183SLPC   H5Y20966   6.231   2.025   3.333
  183SLPC   C3620967   6.085   1.873   3.327
  183SLPC   H6X20968   6.156   1.793   3.298
  183SLPC   H6Y20969   5.987   1.857   3.276
  183SLPC   C3720970   6.054   1.859   3.478
  183SLPC   H7X20971   5.988   1.931   3.530
  183SLPC   H7Y20972   6.154   1.892   3.514
  183SLPC   C3820973   6.015   1.716   3.506
  183SLPC   H8X20974   6.095   1.642   3.484
  183SLPC   H8Y20975   5.934   1.677   3.441
  183SLPC   C3920976   5.980   1.700   3.654
  183SLPC   H9X20977   5.896   1.766   3.684
  183SLPC   H9Y20978   6.062   1.730   3.722
  183SLPC  C31020979   5.945   1.548   3.686
  183SLPC  H10X20980   6.025   1.482   3.647
  183SLPC  H10Y20981   5.854   1.524   3.627
  183SLPC  C31120982   5.921   1.519   3.829
  183SLPC  H11X20983   5.872   1.420   3.821
  183SLPC  H11Y20984   5.854   1.585   3.889
  183SLPC  C31220985   6.048   1.500   3.910
  183SLPC  H12X20986   6.113   1.582   3.874
  183SLPC  H12Y20987   6.104   1.409   3.879
  183SLPC  C31320988   6.032   1.511   4.055
  183SLPC  H13X20989   5.976   1.433   4.111
  183SLPC  H13Y20990   5.995   1.614   4.071
  183SLPC  C31420991   6.172   1.527   4.130
  183SLPC  H14X20992   6.231   1.598   4.067
  183SLPC  H14Y20993   6.237   1.437   4.124
  183SLPC  C31520994   6.169   1.569   4.280
  183SLPC  H15X20995   6.120   1.494   4.345
  183SLPC  H15Y20996   6.114   1.665   4.273
  183SLPC  C31620997   6.317   1.589   4.335
  183SLPC  H16X20998   6.377   1.644   4.259
  183SLPC  H16Y20999   6.362   1.489   4.355
  183SLPC  C31721000   6.316   1.678   4.458
  183SLPC  H17X21001   6.422   1.691   4.490
  183SLPC  H17Y21002   6.290   1.616   4.547
  183SLPC  C31821003   6.252   1.816   4.453
  183SLPC  H18X21004   6.311   1.886   4.515
  183SLPC  H18Y21005   6.150   1.819   4.497
  183SLPC  H18Z21006   6.249   1.844   4.346
  184SLPC     N21007   0.111   1.478   1.924
  184SLPC   C1321008   0.241   1.434   1.986
  184SLPC  H13A21009   0.294   1.371   1.916
  184SLPC  H13B21010   0.302   1.520   2.010
  184SLPC  H13C21011   0.232   1.378   2.078
  184SLPC   C1421012   0.048   1.361   1.855
  184SLPC  H14A21013   6.788   1.383   1.832
  184SLPC  H14B21014   0.099   1.335   1.763
  184SLPC  H14C21015   0.039   1.266   1.906
  184SLPC   C1521016   0.140   1.584   1.821
  184SLPC  H15A21017   0.217   1.557   1.750
  184SLPC  H15B21018   0.049   1.598   1.765
  184SLPC  H15C21019   0.161   1.676   1.874
  184SLPC   C1221020   0.010   1.527   2.032
  184SLPC  H12A21021   6.823   1.446   2.097
  184SLPC  H12B21022   6.760   1.551   1.983
  184SLPC   C1121023   0.047   1.652   2.103
  184SLPC  H11A21024   0.104   1.720   2.037
  184SLPC  H11B21025   0.122   1.635   2.183
  184SLPC     P21026   6.712   1.672   2.297
  184SLPC   O1321027   6.634   1.547   2.277
  184SLPC   O1421028   6.809   1.669   2.400
  184SLPC   O1221029   6.780   1.713   2.161
  184SLPC   O1121030   6.621   1.800   2.325
  184SLPC    C121031   6.694   1.925   2.343
  184SLPC    HA21032   6.802   1.926   2.316
  184SLPC    HB21033   6.639   2.003   2.287
  184SLPC    C221034   6.687   1.978   2.488
  184SLPC    HS21035   6.722   2.083   2.489
  184SLPC   O2121036   6.753   1.897   2.587
  184SLPC   C2121037   0.048   1.911   2.588
  184SLPC   O2221038   0.108   1.996   2.525
  184SLPC   C2221039   0.112   1.822   2.684
  184SLPC   H2R21040   0.120   1.727   2.627
  184SLPC   H2S21041   0.219   1.851   2.696
  184SLPC    C321042   6.544   1.997   2.529
  184SLPC    HX21043   6.496   1.898   2.508
  184SLPC    HY21044   6.508   2.065   2.450
  184SLPC   O3121045   6.535   2.059   2.663
  184SLPC   C3121046   6.516   1.971   2.757
  184SLPC   O3221047   6.468   1.856   2.734
  184SLPC   C3221048   6.551   2.026   2.894
  184SLPC   H2X21049   6.470   2.096   2.924
  184SLPC   H2Y21050   6.654   2.065   2.884
  184SLPC   C2321051   0.055   1.813   2.823
  184SLPC   H3R21052   6.792   1.782   2.814
  184SLPC   H3S21053   0.052   1.913   2.871
  184SLPC   C2421054   0.123   1.714   2.911
  184SLPC   H4R21055   0.231   1.734   2.894
  184SLPC   H4S21056   0.116   1.612   2.869
  184SLPC   C2521057   0.078   1.703   3.057
  184SLPC   H5R21058   0.099   1.601   3.095
  184SLPC   H5S21059   6.813   1.730   3.054
  184SLPC   C2621060   0.152   1.812   3.142
  184SLPC   H6R21061   0.164   1.901   3.076
  184SLPC   H6S21062   0.252   1.776   3.176
  184SLPC   C2721063   0.077   1.836   3.275
  184SLPC   H7R21064   6.812   1.844   3.251
  184SLPC   H7S21065   0.126   1.929   3.310
  184SLPC   C2821066   0.100   1.725   3.385
  184SLPC   H8R21067   0.209   1.730   3.407
  184SLPC   H8S21068   0.086   1.621   3.348
  184SLPC   C2921069   0.038   1.766   3.519
  184SLPC   H9R21070   0.048   1.872   3.544
  184SLPC  C21021071   6.800   1.680   3.588
  184SLPC  H10R21072   6.747   1.714   3.679
  184SLPC  C21121073   6.774   1.535   3.543
  184SLPC  H11R21074   6.781   1.528   3.433
  184SLPC  H11S21075   6.668   1.501   3.544
  184SLPC  C21221076   0.018   1.429   3.616
  184SLPC  H12R21077   0.112   1.398   3.568
  184SLPC  C21321078   6.840   1.362   3.729
  184SLPC  H13R21079   0.072   1.287   3.760
  184SLPC  C21421080   6.724   1.389   3.826
  184SLPC  H14R21081   6.629   1.423   3.779
  184SLPC  H14S21082   6.756   1.472   3.892
  184SLPC  C21521083   6.694   1.260   3.909
  184SLPC  H15R21084   6.663   1.174   3.846
  184SLPC  H15S21085   6.607   1.289   3.973
  184SLPC  C21621086   6.807   1.208   3.997
  184SLPC  H16R21087   0.028   1.296   4.022
  184SLPC  H16S21088   0.029   1.144   3.935
  184SLPC  C21721089   6.758   1.122   4.117
  184SLPC  H17R21090   6.670   1.065   4.079
  184SLPC  H17S21091   6.707   1.188   4.191
  184SLPC  C21821092   0.023   1.037   4.178
  184SLPC  H18R21093   0.064   0.966   4.103
  184SLPC  H18S21094   6.830   0.987   4.270
  184SLPC  H18T21095   0.108   1.098   4.216
  184SLPC   C3321096   6.546   1.920   3.006
  184SLPC   H3X21097   6.632   1.849   3.003
  184SLPC   H3Y21098   6.462   1.849   2.997
  184SLPC   C3421099   6.543   1.975   3.148
  184SLPC   H4X21100   6.458   2.043   3.170
  184SLPC   H4Y21101   6.624   2.045   3.180
  184SLPC   C3521102   6.523   1.857   3.247
  184SLPC   H5X21103   6.603   1.784   3.223
  184SLPC   H5Y21104   6.431   1.807   3.212
  184SLPC   C3621105   6.502   1.895   3.393
  184SLPC   H6X21106   6.424   1.974   3.393
  184SLPC   H6Y21107   6.593   1.945   3.431
  184SLPC   C3721108   6.463   1.774   3.482
  184SLPC   H7X21109   6.539   1.696   3.459
  184SLPC   H7Y21110   6.357   1.744   3.462
  184SLPC   C3821111   6.472   1.825   3.625
  184SLPC   H8X21112   6.391   1.898   3.641
  184SLPC   H8Y21113   6.565   1.883   3.642
  184SLPC   C3921114   6.460   1.708   3.724
  184SLPC   H9X21115   6.548   1.640   3.718
  184SLPC   H9Y21116   6.373   1.640   3.708
  184SLPC  C31021117   6.458   1.747   3.871
  184SLPC  H10X21118   6.445   1.654   3.930
  184SLPC  H10Y21119   6.363   1.803   3.880
  184SLPC  C31121120   6.576   1.823   3.933
  184SLPC  H11X21121   6.587   1.927   3.894
  184SLPC  H11Y21122   6.666   1.761   3.913
  184SLPC  C31221123   6.554   1.833   4.083
  184SLPC  H12X21124   6.536   1.731   4.125
  184SLPC  H12Y21125   6.468   1.902   4.099
  184SLPC  C31321126   6.668   1.904   4.167
  184SLPC  H13X21127   6.760   1.843   4.156
  184SLPC  H13Y21128   6.636   1.913   4.273
  184SLPC  C31421129   6.680   2.047   4.122
  184SLPC  H14X21130   6.587   2.104   4.101
  184SLPC  H14Y21131   6.738   2.047   4.027
  184SLPC  C31521132   6.774   2.129   4.207
  184SLPC  H15X21133   0.034   2.088   4.212
  184SLPC  H15Y21134   6.737   2.121   4.312
  184SLPC  C31621135   6.793   2.278   4.165
  184SLPC  H16X21136   6.694   2.329   4.170
  184SLPC  H16Y21137   6.823   2.271   4.058
  184SLPC  C31721138   0.056   2.349   4.249
  184SLPC  H17X21139   0.160   2.312   4.232
  184SLPC  H17Y21140   0.034   2.328   4.356
  184SLPC  C31821141   0.062   2.498   4.219
  184SLPC  H18X21142   6.810   2.552   4.242
  184SLPC  H18Y21143   0.092   2.506   4.112
  184SLPC  H18Z21144   0.137   2.546   4.285
  185POPC     N21145   1.852   5.395   6.792
  185POPC   C1221146   1.875   5.506   6.699
  185POPC  H12A21147   1.969   5.481   6.651
  185POPC  H12B21148   1.891   5.592   6.763
  185POPC   C1321149   1.704   5.386   6.827
  185POPC  H13A21150   1.663   5.485   6.839
  185POPC  H13B21151   1.659   5.314   6.760
  185POPC  H13C21152   1.688   5.342   6.924
  185POPC   C1421153   1.896   5.264   6.728
  185POPC  H14A21154   1.861   5.175   6.777
  185POPC  H14B21155   1.862   5.253   6.626
  185POPC  H14C21156   2.004   5.262   6.727
  185POPC   C1521157   1.925   5.423   6.913
  185POPC  H15A21158   1.897   5.513   6.964
  185POPC  H15B21159   2.031   5.422   6.894
  185POPC  H15C21160   1.896   5.353   6.990
  185POPC   C1121161   1.782   5.533   6.581
  185POPC  H11A21162   1.809   5.635   6.545
  185POPC  H11B21163   1.677   5.550   6.612
  185POPC     P21164   1.922   5.438   6.374
  185POPC   O1321165   1.909   5.339   6.268
  185POPC   O1421166   2.047   5.437   6.456
  185POPC   O1221167   1.793   5.437   6.477
  185POPC   O1121168   1.914   5.580   6.306
  185POPC    C121169   1.792   5.638   6.257
  185POPC    HA21170   1.774   5.743   6.286
  185POPC    HB21171   1.699   5.586   6.288
  185POPC    C221172   1.782   5.644   6.099
  185POPC    HS21173   1.676   5.669   6.078
  185POPC   O2121174   1.806   5.526   6.029
  185POPC   C2121175   1.723   5.425   6.025
  185POPC   O2221176   1.608   5.422   6.066
  185POPC   C2221177   1.794   5.313   5.954
  185POPC   H2R21178   1.713   5.241   5.930
  185POPC   H2S21179   1.876   5.264   6.011
  185POPC    C321180   1.877   5.749   6.034
  185POPC    HX21181   1.980   5.709   6.044
  185POPC    HY21182   1.877   5.840   6.097
  185POPC   O3121183   1.856   5.782   5.892
  185POPC   C3121184   1.755   5.861   5.871
  185POPC   O3221185   1.694   5.916   5.963
  185POPC   C3221186   1.715   5.853   5.722
  185POPC   H2X21187   1.658   5.760   5.703
  185POPC   H2Y21188   1.805   5.847   5.657
  185POPC   C2321189   1.864   5.352   5.828
  185POPC   H3R21190   1.940   5.277   5.799
  185POPC   H3S21191   1.912   5.452   5.837
  185POPC   C2421192   1.772   5.364   5.713
  185POPC   H4R21193   1.693   5.436   5.742
  185POPC   H4S21194   1.718   5.268   5.698
  185POPC   C2521195   1.837   5.412   5.577
  185POPC   H5R21196   1.903   5.326   5.551
  185POPC   H5S21197   1.893   5.507   5.591
  185POPC   C2621198   1.728   5.439   5.471
  185POPC   H6R21199   1.651   5.362   5.451
  185POPC   H6S21200   1.792   5.443   5.380
  185POPC   C2721201   1.660   5.575   5.489
  185POPC   H7R21202   1.733   5.657   5.507
  185POPC   H7S21203   1.601   5.573   5.583
  185POPC   C2821204   1.563   5.617   5.380
  185POPC   H8R21205   1.480   5.681   5.416
  185POPC   H8S21206   1.508   5.527   5.343
  185POPC   C2921207   1.634   5.688   5.264
  185POPC   H9121208   1.715   5.754   5.299
  185POPC  C21021209   1.624   5.674   5.131
  185POPC  H10121210   1.675   5.741   5.061
  185POPC  C21121211   1.524   5.579   5.067
  185POPC  H11R21212   1.537   5.479   5.112
  185POPC  H11S21213   1.551   5.568   4.960
  185POPC  C21221214   1.378   5.634   5.069
  185POPC  H12R21215   1.388   5.744   5.060
  185POPC  H12S21216   1.321   5.605   5.160
  185POPC  C21321217   1.290   5.608   4.946
  185POPC  H13R21218   1.346   5.634   4.854
  185POPC  H13S21219   1.203   5.678   4.954
  185POPC  C21421220   1.260   5.462   4.920
  185POPC  H14R21221   1.204   5.415   5.003
  185POPC  H14S21222   1.355   5.405   4.907
  185POPC  C21521223   1.173   5.437   4.795
  185POPC  H15R21224   1.226   5.463   4.701
  185POPC  H15S21225   1.082   5.500   4.793
  185POPC  C21621226   1.135   5.290   4.784
  185POPC  H16R21227   1.097   5.247   4.880
  185POPC  H16S21228   1.212   5.221   4.744
  185POPC  C21721229   1.011   5.278   4.690
  185POPC  H17R21230   1.037   5.349   4.608
  185POPC  H17S21231   0.928   5.326   4.747
  185POPC  C21821232   0.968   5.136   4.644
  185POPC  H18R21233   1.054   5.095   4.587
  185POPC  H18S21234   0.886   5.132   4.568
  185POPC  H18T21235   0.950   5.070   4.731
  185POPC   C3321236   1.640   5.970   5.670
  185POPC   H3X21237   1.719   6.048   5.678
  185POPC   H3Y21238   1.552   6.000   5.731
  185POPC   C3421239   1.612   5.954   5.515
  185POPC   H4X21240   1.519   5.894   5.502
  185POPC   H4Y21241   1.695   5.906   5.459
  185POPC   C3521242   1.591   6.087   5.438
  185POPC   H5X21243   1.677   6.157   5.445
  185POPC   H5Y21244   1.498   6.133   5.479
  185POPC   C3621245   1.566   6.059   5.289
  185POPC   H6X21246   1.487   5.983   5.273
  185POPC   H6Y21247   1.660   6.016   5.247
  185POPC   C3721248   1.532   6.168   5.190
  185POPC   H7X21249   1.608   6.248   5.203
  185POPC   H7Y21250   1.434   6.213   5.216
  185POPC   C3821251   1.534   6.117   5.051
  185POPC   H8X21252   1.453   6.041   5.040
  185POPC   H8Y21253   1.637   6.077   5.038
  185POPC   C3921254   1.546   6.235   4.953
  185POPC   H9X21255   1.630   6.307   4.961
  185POPC   H9Y21256   1.445   6.280   4.958
  185POPC  C31021257   1.549   6.184   4.808
  185POPC  H10X21258   1.479   6.098   4.816
  185POPC  H10Y21259   1.648   6.137   4.789
  185POPC  C31121260   1.502   6.281   4.691
  185POPC  H11X21261   1.567   6.371   4.687
  185POPC  H11Y21262   1.404   6.331   4.711
  185POPC  C31221263   1.485   6.213   4.556
  185POPC  H12X21264   1.410   6.132   4.561
  185POPC  H12Y21265   1.585   6.170   4.534
  185POPC  C31321266   1.442   6.312   4.442
  185POPC  H13X21267   1.515   6.395   4.446
  185POPC  H13Y21268   1.346   6.358   4.476
  185POPC  C31421269   1.445   6.242   4.311
  185POPC  H14X21270   1.369   6.162   4.319
  185POPC  H14Y21271   1.544   6.195   4.292
  185POPC  C31521272   1.403   6.331   4.191
  185POPC  H15X21273   1.465   6.423   4.185
  185POPC  H15Y21274   1.300   6.373   4.192
  185POPC  C31621275   1.413   6.252   4.066
  185POPC  H16X21276   1.345   6.165   4.079
  185POPC  H16Y21277   1.517   6.214   4.052
  185POPC  H16Z21278   1.376   6.302   3.974
  186POPC     N21279   3.611   5.000   6.677
  186POPC   C1221280   3.721   4.998   6.572
  186POPC  H12A21281   3.679   4.937   6.494
  186POPC  H12B21282   3.801   4.936   6.609
  186POPC   C1321283   3.608   4.866   6.746
  186POPC  H13A21284   3.685   4.871   6.821
  186POPC  H13B21285   3.509   4.850   6.786
  186POPC  H13C21286   3.615   4.788   6.672
  186POPC   C1421287   3.633   5.104   6.781
  186POPC  H14A21288   3.630   5.201   6.733
  186POPC  H14B21289   3.556   5.108   6.857
  186POPC  H14C21290   3.733   5.109   6.821
  186POPC   C1521291   3.475   5.015   6.616
  186POPC  H15A21292   3.454   4.942   6.540
  186POPC  H15B21293   3.458   5.116   6.582
  186POPC  H15C21294   3.402   5.000   6.694
  186POPC   C1121295   3.771   5.127   6.506
  186POPC  H11A21296   3.684   5.177   6.458
  186POPC  H11B21297   3.835   5.090   6.423
  186POPC     P21298   3.812   5.365   6.604
  186POPC   O1321299   3.906   5.428   6.695
  186POPC   O1421300   3.670   5.388   6.634
  186POPC   O1221301   3.843   5.209   6.603
  186POPC   O1121302   3.849   5.402   6.451
  186POPC    C121303   3.739   5.460   6.380
  186POPC    HA21304   3.704   5.557   6.422
  186POPC    HB21305   3.649   5.394   6.383
  186POPC    C221306   3.776   5.496   6.236
  186POPC    HS21307   3.696   5.561   6.196
  186POPC   O2121308   3.802   5.375   6.161
  186POPC   C2121309   3.701   5.314   6.124
  186POPC   O2221310   3.584   5.337   6.155
  186POPC   C2221311   3.737   5.197   6.033
  186POPC   H2R21312   3.682   5.110   6.075
  186POPC   H2S21313   3.847   5.185   6.024
  186POPC    C321314   3.903   5.595   6.226
  186POPC    HX21315   3.988   5.533   6.260
  186POPC    HY21316   3.893   5.670   6.307
  186POPC   O3121317   3.935   5.642   6.094
  186POPC   C3121318   3.865   5.755   6.054
  186POPC   O3221319   3.796   5.824   6.125
  186POPC   C3221320   3.910   5.791   5.918
  186POPC   H2X21321   4.016   5.759   5.906
  186POPC   H2Y21322   3.907   5.902   5.923
  186POPC   C2321323   3.690   5.225   5.885
  186POPC   H3R21324   3.589   5.269   5.902
  186POPC   H3S21325   3.678   5.125   5.838
  186POPC   C2421326   3.779   5.313   5.798
  186POPC   H4R21327   3.878   5.268   5.777
  186POPC   H4S21328   3.793   5.400   5.866
  186POPC   C2521329   3.695   5.356   5.671
  186POPC   H5R21330   3.729   5.454   5.629
  186POPC   H5S21331   3.589   5.372   5.699
  186POPC   C2621332   3.699   5.253   5.552
  186POPC   H6R21333   3.664   5.156   5.592
  186POPC   H6S21334   3.801   5.247   5.510
  186POPC   C2721335   3.593   5.298   5.450
  186POPC   H7R21336   3.641   5.383   5.397
  186POPC   H7S21337   3.505   5.336   5.507
  186POPC   C2821338   3.550   5.193   5.352
  186POPC   H8R21339   3.486   5.242   5.276
  186POPC   H8S21340   3.485   5.117   5.399
  186POPC   C2921341   3.668   5.114   5.296
  186POPC   H9121342   3.730   5.068   5.374
  186POPC  C21021343   3.704   5.100   5.166
  186POPC  H10121344   3.789   5.036   5.138
  186POPC  C21121345   3.650   5.162   5.044
  186POPC  H11R21346   3.552   5.213   5.057
  186POPC  H11S21347   3.628   5.077   4.977
  186POPC  C21221348   3.747   5.257   4.969
  186POPC  H12R21349   3.705   5.263   4.866
  186POPC  H12S21350   3.848   5.213   4.958
  186POPC  C21321351   3.759   5.385   5.040
  186POPC  H13R21352   3.805   5.358   5.137
  186POPC  H13S21353   3.662   5.436   5.059
  186POPC  C21421354   3.834   5.495   4.961
  186POPC  H14R21355   3.933   5.447   4.943
  186POPC  H14S21356   3.845   5.572   5.041
  186POPC  C21521357   3.764   5.554   4.841
  186POPC  H15R21358   3.664   5.595   4.869
  186POPC  H15S21359   3.753   5.473   4.766
  186POPC  C21621360   3.844   5.665   4.778
  186POPC  H16R21361   3.851   5.748   4.852
  186POPC  H16S21362   3.790   5.696   4.686
  186POPC  C21721363   3.976   5.614   4.725
  186POPC  H17R21364   3.955   5.527   4.660
  186POPC  H17S21365   4.039   5.567   4.803
  186POPC  C21821366   4.060   5.718   4.644
  186POPC  H18R21367   3.997   5.756   4.561
  186POPC  H18S21368   4.142   5.675   4.583
  186POPC  H18T21369   4.102   5.788   4.719
  186POPC   C3321370   3.820   5.740   5.802
  186POPC   H3X21371   3.729   5.803   5.816
  186POPC   H3Y21372   3.798   5.632   5.816
  186POPC   C3421373   3.876   5.773   5.661
  186POPC   H4X21374   3.953   5.697   5.634
  186POPC   H4Y21375   3.934   5.866   5.679
  186POPC   C3521376   3.755   5.797   5.564
  186POPC   H5X21377   3.686   5.870   5.611
  186POPC   H5Y21378   3.692   5.706   5.557
  186POPC   C3621379   3.786   5.855   5.434
  186POPC   H6X21380   3.850   5.774   5.391
  186POPC   H6Y21381   3.846   5.948   5.438
  186POPC   C3721382   3.661   5.879   5.351
  186POPC   H7X21383   3.581   5.937   5.402
  186POPC   H7Y21384   3.616   5.780   5.331
  186POPC   C3821385   3.705   5.968   5.225
  186POPC   H8X21386   3.803   5.924   5.200
  186POPC   H8Y21387   3.719   6.071   5.263
  186POPC   C3921388   3.606   5.963   5.108
  186POPC   H9X21389   3.606   5.861   5.063
  186POPC   H9Y21390   3.652   6.043   5.047
  186POPC  C31021391   3.465   6.001   5.138
  186POPC  H10X21392   3.441   6.092   5.198
  186POPC  H10Y21393   3.412   5.918   5.191
  186POPC  C31121394   3.389   6.029   5.010
  186POPC  H11X21395   3.443   6.110   4.957
  186POPC  H11Y21396   3.291   6.062   5.051
  186POPC  C31221397   3.368   5.907   4.908
  186POPC  H12X21398   3.300   5.832   4.953
  186POPC  H12Y21399   3.471   5.865   4.905
  186POPC  C31321400   3.315   5.946   4.775
  186POPC  H13X21401   3.365   6.039   4.742
  186POPC  H13Y21402   3.206   5.967   4.776
  186POPC  C31421403   3.344   5.854   4.656
  186POPC  H14X21404   3.301   5.894   4.561
  186POPC  H14Y21405   3.283   5.762   4.661
  186POPC  C31521406   3.491   5.829   4.617
  186POPC  H15X21407   3.557   5.777   4.689
  186POPC  H15Y21408   3.533   5.929   4.594
  186POPC  C31621409   3.502   5.756   4.484
  186POPC  H16X21410   3.609   5.736   4.462
  186POPC  H16Y21411   3.471   5.826   4.403
  186POPC  H16Z21412   3.444   5.663   4.468
  187POPC     N21413   6.485   4.662   2.414
  187POPC   C1221414   6.445   4.770   2.316
  187POPC  H12A21415   6.440   4.737   2.213
  187POPC  H12B21416   6.531   4.836   2.311
  187POPC   C1321417   6.570   4.555   2.353
  187POPC  H13A21418   6.653   4.598   2.298
  187POPC  H13B21419   6.605   4.485   2.428
  187POPC  H13C21420   6.505   4.504   2.283
  187POPC   C1421421   6.559   4.713   2.530
  187POPC  H14A21422   6.664   4.709   2.503
  187POPC  H14B21423   6.544   4.818   2.550
  187POPC  H14C21424   6.538   4.663   2.623
  187POPC   C1521425   6.368   4.576   2.469
  187POPC  H15A21426   6.313   4.619   2.551
  187POPC  H15B21427   6.410   4.485   2.510
  187POPC  H15C21428   6.299   4.555   2.389
  187POPC   C1121429   6.324   4.855   2.366
  187POPC  H11A21430   6.312   4.948   2.307
  187POPC  H11B21431   6.346   4.895   2.468
  187POPC     P21432   6.072   4.804   2.463
  187POPC   O1321433   6.103   4.760   2.602
  187POPC   O1421434   5.953   4.742   2.395
  187POPC   O1221435   6.194   4.787   2.364
  187POPC   O1121436   6.055   4.958   2.458
  187POPC    C121437   6.136   5.052   2.528
  187POPC    HA21438   6.179   5.111   2.443
  187POPC    HB21439   6.221   5.010   2.585
  187POPC    C221440   6.049   5.136   2.634
  187POPC    HS21441   6.106   5.215   2.688
  187POPC   O2121442   5.996   5.047   2.731
  187POPC   C2121443   6.075   5.008   2.834
  187POPC   O2221444   6.191   5.038   2.850
  187POPC   C2221445   6.009   4.904   2.927
  187POPC   H2R21446   6.080   4.880   3.009
  187POPC   H2S21447   6.001   4.818   2.856
  187POPC    C321448   5.936   5.204   2.559
  187POPC    HX21449   5.868   5.121   2.529
  187POPC    HY21450   5.975   5.240   2.461
  187POPC   O3121451   5.874   5.312   2.628
  187POPC   C3121452   5.741   5.302   2.645
  187POPC   O3221453   5.669   5.219   2.586
  187POPC   C3221454   5.703   5.415   2.746
  187POPC   H2X21455   5.592   5.420   2.747
  187POPC   H2Y21456   5.752   5.506   2.705
  187POPC   C2321457   5.871   4.939   2.983
  187POPC   H3R21458   5.832   4.850   3.036
  187POPC   H3S21459   5.807   4.956   2.893
  187POPC   C2421460   5.873   5.065   3.065
  187POPC   H4R21461   5.772   5.090   3.103
  187POPC   H4S21462   5.914   5.149   3.005
  187POPC   C2521463   5.968   5.055   3.188
  187POPC   H5R21464   6.010   5.153   3.218
  187POPC   H5S21465   6.065   5.005   3.173
  187POPC   C2621466   5.905   4.985   3.303
  187POPC   H6R21467   5.954   4.887   3.322
  187POPC   H6S21468   5.800   4.960   3.279
  187POPC   C2721469   5.898   5.046   3.446
  187POPC   H7R21470   5.830   4.984   3.509
  187POPC   H7S21471   5.853   5.147   3.432
  187POPC   C2821472   6.036   5.055   3.512
  187POPC   H8R21473   6.109   5.094   3.438
  187POPC   H8S21474   6.062   4.949   3.534
  187POPC   C2921475   6.028   5.141   3.635
  187POPC   H9121476   6.021   5.249   3.614
  187POPC  C21021477   6.016   5.102   3.757
  187POPC  H10121478   6.001   5.183   3.830
  187POPC  C21121479   5.985   4.962   3.800
  187POPC  H11R21480   6.067   4.911   3.855
  187POPC  H11S21481   5.955   4.892   3.719
  187POPC  C21221482   5.855   4.969   3.889
  187POPC  H12R21483   5.781   5.029   3.831
  187POPC  H12S21484   5.884   5.019   3.984
  187POPC  C21321485   5.789   4.834   3.918
  187POPC  H13R21486   5.780   4.774   3.825
  187POPC  H13S21487   5.689   4.840   3.965
  187POPC  C21421488   5.872   4.759   4.019
  187POPC  H14R21489   5.982   4.748   4.003
  187POPC  H14S21490   5.830   4.657   4.032
  187POPC  C21521491   5.869   4.817   4.164
  187POPC  H15R21492   5.762   4.834   4.189
  187POPC  H15S21493   5.918   4.917   4.159
  187POPC  C21621494   5.947   4.731   4.257
  187POPC  H16R21495   6.055   4.729   4.231
  187POPC  H16S21496   5.904   4.628   4.251
  187POPC  C21721497   5.938   4.775   4.405
  187POPC  H17R21498   6.009   4.710   4.459
  187POPC  H17S21499   5.837   4.736   4.432
  187POPC  C21821500   5.962   4.919   4.445
  187POPC  H18R21501   6.065   4.952   4.422
  187POPC  H18S21502   5.958   4.930   4.555
  187POPC  H18T21503   5.885   4.986   4.399
  187POPC   C3321504   5.760   5.378   2.875
  187POPC   H3X21505   5.870   5.392   2.870
  187POPC   H3Y21506   5.731   5.275   2.906
  187POPC   C3421507   5.708   5.474   2.981
  187POPC   H4X21508   5.597   5.470   2.978
  187POPC   H4Y21509   5.734   5.580   2.961
  187POPC   C3521510   5.788   5.449   3.112
  187POPC   H5X21511   5.892   5.490   3.114
  187POPC   H5Y21512   5.787   5.340   3.131
  187POPC   C3621513   5.706   5.492   3.241
  187POPC   H6X21514   5.600   5.477   3.211
  187POPC   H6Y21515   5.744   5.594   3.267
  187POPC   C3721516   5.738   5.411   3.369
  187POPC   H7X21517   5.848   5.403   3.384
  187POPC   H7Y21518   5.700   5.313   3.332
  187POPC   C3821519   5.674   5.451   3.497
  187POPC   H8X21520   5.570   5.411   3.492
  187POPC   H8Y21521   5.653   5.560   3.499
  187POPC   C3921522   5.759   5.398   3.613
  187POPC   H9X21523   5.852   5.457   3.606
  187POPC   H9Y21524   5.794   5.298   3.581
  187POPC  C31021525   5.676   5.394   3.746
  187POPC  H10X21526   5.694   5.296   3.795
  187POPC  H10Y21527   5.571   5.386   3.713
  187POPC  C31121528   5.704   5.508   3.838
  187POPC  H11X21529   5.700   5.604   3.784
  187POPC  H11Y21530   5.809   5.509   3.876
  187POPC  C31221531   5.598   5.519   3.951
  187POPC  H12X21532   5.615   5.439   4.027
  187POPC  H12Y21533   5.512   5.495   3.886
  187POPC  C31321534   5.588   5.657   4.006
  187POPC  H13X21535   5.486   5.670   4.048
  187POPC  H13Y21536   5.590   5.727   3.919
  187POPC  C31421537   5.696   5.690   4.111
  187POPC  H14X21538   5.798   5.710   4.071
  187POPC  H14Y21539   5.690   5.613   4.190
  187POPC  C31521540   5.663   5.821   4.192
  187POPC  H15X21541   5.553   5.810   4.205
  187POPC  H15Y21542   5.684   5.915   4.135
  187POPC  C31621543   5.739   5.828   4.323
  187POPC  H16X21544   5.713   5.742   4.387
  187POPC  H16Y21545   5.715   5.921   4.379
  187POPC  H16Z21546   5.843   5.830   4.284
  188POPC     N21547   4.875   5.444   1.897
  188POPC   C1221548   4.930   5.389   2.022
  188POPC  H12A21549   4.930   5.281   2.013
  188POPC  H12B21550   4.869   5.415   2.107
  188POPC   C1321551   4.958   5.436   1.776
  188POPC  H13A21552   4.908   5.476   1.689
  188POPC  H13B21553   5.056   5.479   1.787
  188POPC  H13C21554   4.983   5.335   1.745
  188POPC   C1421555   4.742   5.387   1.854
  188POPC  H14A21556   4.761   5.286   1.822
  188POPC  H14B21557   4.670   5.382   1.934
  188POPC  H14C21558   4.694   5.442   1.775
  188POPC   C1521559   4.853   5.593   1.921
  188POPC  H15A21560   4.788   5.605   2.006
  188POPC  H15B21561   4.799   5.639   1.840
  188POPC  H15C21562   4.947   5.646   1.932
  188POPC   C1121563   5.072   5.421   2.062
  188POPC  H11A21564   5.102   5.376   2.160
  188POPC  H11B21565   5.077   5.532   2.063
  188POPC     P21566   5.209   5.241   1.933
  188POPC   O1321567   5.335   5.226   2.013
  188POPC   O1421568   5.221   5.202   1.791
  188POPC   O1221569   5.158   5.391   1.950
  188POPC   O1121570   5.100   5.148   1.992
  188POPC    C121571   5.125   5.024   2.064
  188POPC    HA21572   5.232   4.996   2.053
  188POPC    HB21573   5.063   4.935   2.038
  188POPC    C221574   5.106   5.053   2.219
  188POPC    HS21575   5.162   5.144   2.249
  188POPC   O2121576   5.147   4.942   2.304
  188POPC   C2121577   5.269   4.936   2.355
  188POPC   O2221578   5.361   5.003   2.313
  188POPC   C2221579   5.293   4.843   2.472
  188POPC   H2R21580   5.360   4.892   2.546
  188POPC   H2S21581   5.345   4.749   2.441
  188POPC    C321582   4.965   5.095   2.254
  188POPC    HX21583   4.918   4.997   2.275
  188POPC    HY21584   4.920   5.159   2.175
  188POPC   O3121585   4.974   5.172   2.373
  188POPC   C3121586   4.906   5.295   2.389
  188POPC   O3221587   4.833   5.343   2.306
  188POPC   C3221588   4.947   5.364   2.517
  188POPC   H2X21589   4.877   5.449   2.535
  188POPC   H2Y21590   5.051   5.401   2.502
  188POPC   C2321591   5.167   4.808   2.546
  188POPC   H3R21592   5.186   4.731   2.624
  188POPC   H3S21593   5.107   4.746   2.477
  188POPC   C2421594   5.103   4.932   2.612
  188POPC   H4R21595   5.063   4.992   2.528
  188POPC   H4S21596   5.170   4.995   2.674
  188POPC   C2521597   4.992   4.902   2.712
  188POPC   H5R21598   4.951   4.999   2.747
  188POPC   H5S21599   5.038   4.852   2.801
  188POPC   C2621600   4.873   4.827   2.661
  188POPC   H6R21601   4.903   4.730   2.615
  188POPC   H6S21602   4.838   4.890   2.575
  188POPC   C2721603   4.759   4.827   2.762
  188POPC   H7R21604   4.668   4.802   2.703
  188POPC   H7S21605   4.739   4.926   2.807
  188POPC   C2821606   4.789   4.725   2.881
  188POPC   H8R21607   4.835   4.782   2.965
  188POPC   H8S21608   4.868   4.656   2.847
  188POPC   C2921609   4.663   4.648   2.910
  188POPC   H9121610   4.617   4.589   2.829
  188POPC  C21021611   4.599   4.659   3.028
  188POPC  H10121612   4.503   4.607   3.037
  188POPC  C21121613   4.634   4.753   3.139
  188POPC  H11R21614   4.548   4.806   3.185
  188POPC  H11S21615   4.708   4.833   3.115
  188POPC  C21221616   4.688   4.675   3.260
  188POPC  H12R21617   4.776   4.622   3.219
  188POPC  H12S21618   4.621   4.590   3.288
  188POPC  C21321619   4.741   4.760   3.377
  188POPC  H13R21620   4.656   4.823   3.409
  188POPC  H13S21621   4.816   4.833   3.341
  188POPC  C21421622   4.795   4.698   3.507
  188POPC  H14R21623   4.886   4.637   3.487
  188POPC  H14S21624   4.710   4.644   3.553
  188POPC  C21521625   4.854   4.798   3.608
  188POPC  H15R21626   4.780   4.868   3.653
  188POPC  H15S21627   4.923   4.868   3.556
  188POPC  C21621628   4.917   4.727   3.725
  188POPC  H16R21629   5.011   4.678   3.690
  188POPC  H16S21630   4.858   4.640   3.760
  188POPC  C21721631   4.952   4.816   3.841
  188POPC  H17R21632   4.863   4.867   3.884
  188POPC  H17S21633   5.018   4.900   3.811
  188POPC  C21821634   5.016   4.731   3.951
  188POPC  H18R21635   5.113   4.695   3.911
  188POPC  H18S21636   4.943   4.651   3.976
  188POPC  H18T21637   5.034   4.790   4.044
  188POPC   C3321638   4.943   5.270   2.646
  188POPC   H3X21639   5.000   5.179   2.619
  188POPC   H3Y21640   4.843   5.235   2.678
  188POPC   C3421641   5.009   5.337   2.766
  188POPC   H4X21642   4.971   5.441   2.771
  188POPC   H4Y21643   5.116   5.350   2.740
  188POPC   C3521644   4.990   5.266   2.898
  188POPC   H5X21645   5.058   5.178   2.896
  188POPC   H5Y21646   4.885   5.231   2.915
  188POPC   C3621647   5.024   5.350   3.022
  188POPC   H6X21648   4.998   5.458   3.008
  188POPC   H6Y21649   5.134   5.356   3.035
  188POPC   C3721650   4.961   5.307   3.153
  188POPC   H7X21651   4.851   5.294   3.139
  188POPC   H7Y21652   4.959   5.382   3.234
  188POPC   C3821653   5.025   5.184   3.224
  188POPC   H8X21654   5.126   5.215   3.259
  188POPC   H8Y21655   5.035   5.113   3.139
  188POPC   C3921656   4.937   5.123   3.336
  188POPC   H9X21657   4.993   5.040   3.384
  188POPC   H9Y21658   4.837   5.094   3.300
  188POPC  C31021659   4.911   5.216   3.458
  188POPC  H10X21660   4.845   5.299   3.427
  188POPC  H10Y21661   5.002   5.272   3.489
  188POPC  C31121662   4.853   5.155   3.585
  188POPC  H11X21663   4.929   5.084   3.622
  188POPC  H11Y21664   4.758   5.109   3.550
  188POPC  C31221665   4.819   5.261   3.684
  188POPC  H12X21666   4.749   5.339   3.648
  188POPC  H12Y21667   4.910   5.314   3.721
  188POPC  C31321668   4.768   5.197   3.814
  188POPC  H13X21669   4.857   5.149   3.860
  188POPC  H13Y21670   4.689   5.120   3.804
  188POPC  C31421671   4.722   5.303   3.914
  188POPC  H14X21672   4.633   5.341   3.859
  188POPC  H14Y21673   4.794   5.387   3.924
  188POPC  C31521674   4.684   5.247   4.049
  188POPC  H15X21675   4.766   5.173   4.064
  188POPC  H15Y21676   4.592   5.185   4.045
  188POPC  C31621677   4.674   5.354   4.148
  188POPC  H16X21678   4.590   5.425   4.130
  188POPC  H16Y21679   4.762   5.421   4.144
  188POPC  H16Z21680   4.682   5.323   4.254
  189SAPI   C1221681   2.313   5.223   6.620
  189SAPI    H221682   2.335   5.248   6.514
  189SAPI    O221683   2.190   5.284   6.659
  189SAPI   HO221684   2.162   5.327   6.577
  189SAPI   C1321685   2.293   5.072   6.630
  189SAPI    H321686   2.383   5.019   6.590
  189SAPI    O321687   2.188   5.024   6.544
  189SAPI   HO321688   2.198   5.061   6.456
  189SAPI   C1421689   2.257   5.030   6.772
  189SAPI    H421690   2.165   5.089   6.791
  189SAPI    O421691   2.226   4.889   6.780
  189SAPI   HO421692   2.219   4.864   6.873
  189SAPI   C1521693   2.373   5.064   6.857
  189SAPI    H521694   2.452   4.996   6.820
  189SAPI    O521695   2.357   5.022   7.003
  189SAPI   HO521696   2.444   4.988   7.026
  189SAPI   C1621697   2.417   5.212   6.847
  189SAPI    H621698   2.344   5.271   6.906
  189SAPI    O621699   2.549   5.228   6.901
  189SAPI   HO621700   2.596   5.287   6.841
  189SAPI   C1121701   2.426   5.271   6.707
  189SAPI    H121702   2.520   5.229   6.663
  189SAPI     P21703   2.592   5.492   6.686
  189SAPI   O1321704   2.699   5.406   6.741
  189SAPI   O1421705   2.571   5.629   6.744
  189SAPI   O1221706   2.444   5.413   6.711
  189SAPI   O1121707   2.606   5.494   6.524
  189SAPI    C121708   2.528   5.587   6.448
  189SAPI    HA21709   2.456   5.648   6.507
  189SAPI    HB21710   2.585   5.660   6.386
  189SAPI    C221711   2.448   5.509   6.334
  189SAPI    HS21712   2.381   5.430   6.372
  189SAPI   O2121713   2.538   5.453   6.244
  189SAPI   C2121714   2.561   5.326   6.251
  189SAPI   O2221715   2.541   5.254   6.350
  189SAPI   C2221716   2.625   5.281   6.118
  189SAPI   H2R21717   2.554   5.312   6.039
  189SAPI   H2S21718   2.728   5.324   6.127
  189SAPI    C321719   2.371   5.616   6.244
  189SAPI    HX21720   2.432   5.702   6.207
  189SAPI    HY21721   2.291   5.649   6.314
  189SAPI   O3121722   2.314   5.547   6.130
  189SAPI   C3121723   2.266   5.628   6.036
  189SAPI   O3221724   2.266   5.748   6.035
  189SAPI   C3221725   2.197   5.530   5.934
  189SAPI   H2X21726   2.103   5.504   5.987
  189SAPI   H2Y21727   2.259   5.438   5.933
  189SAPI   C2321728   2.628   5.118   6.117
  189SAPI   H3R21729   2.623   5.064   6.214
  189SAPI   H3S21730   2.727   5.099   6.072
  189SAPI   C2421731   2.530   5.050   6.013
  189SAPI   H4R21732   2.550   4.944   5.986
  189SAPI   H4S21733   2.552   5.104   5.918
  189SAPI   C2521734   2.383   5.060   6.055
  189SAPI   H5R21735   2.363   5.067   6.163
  189SAPI   C2621736   2.276   5.080   5.974
  189SAPI   H6R21737   2.175   5.087   6.016
  189SAPI   C2721738   2.273   5.096   5.820
  189SAPI   H7R21739   2.164   5.087   5.805
  189SAPI   H7S21740   2.313   4.999   5.783
  189SAPI   C2821741   2.349   5.214   5.757
  189SAPI   H8R21742   2.409   5.280   5.821
  189SAPI   C2921743   2.351   5.232   5.625
  189SAPI   H9R21744   2.400   5.325   5.592
  189SAPI  C21021745   2.279   5.162   5.510
  189SAPI  H10R21746   2.210   5.080   5.538
  189SAPI  H10S21747   2.349   5.105   5.445
  189SAPI  C21121748   2.196   5.265   5.427
  189SAPI  H11R21749   2.154   5.346   5.488
  189SAPI  C21221750   2.189   5.266   5.289
  189SAPI  H12R21751   2.117   5.337   5.246
  189SAPI  C21321752   2.258   5.165   5.187
  189SAPI  H13R21753   2.200   5.071   5.199
  189SAPI  H13S21754   2.364   5.151   5.218
  189SAPI  C21421755   2.235   5.203   5.041
  189SAPI  H14R21756   2.166   5.141   4.982
  189SAPI  C21521757   2.313   5.288   4.980
  189SAPI  H15R21758   2.299   5.307   4.872
  189SAPI  C21621759   2.422   5.368   5.055
  189SAPI  H16R21760   2.427   5.341   5.162
  189SAPI  H16S21761   2.400   5.476   5.050
  189SAPI  C21721762   2.550   5.332   4.972
  189SAPI  H17R21763   2.543   5.384   4.874
  189SAPI  H17S21764   2.564   5.225   4.944
  189SAPI  C21821765   2.675   5.366   5.055
  189SAPI  H18R21766   2.668   5.305   5.147
  189SAPI  H18S21767   2.669   5.473   5.083
  189SAPI  C21921768   2.802   5.348   4.975
  189SAPI  H19R21769   2.792   5.401   4.878
  189SAPI  H19S21770   2.819   5.241   4.953
  189SAPI  C22021771   2.923   5.402   5.052
  189SAPI  H20R21772   2.921   5.370   5.158
  189SAPI  H20S21773   2.932   5.513   5.063
  189SAPI  H20T21774   3.012   5.369   4.994
  189SAPI   C3321775   2.182   5.596   5.799
  189SAPI   H3X21776   2.120   5.689   5.802
  189SAPI   H3Y21777   2.124   5.521   5.741
  189SAPI   C3421778   2.324   5.618   5.734
  189SAPI   H4X21779   2.402   5.541   5.748
  189SAPI   H4Y21780   2.368   5.717   5.759
  189SAPI   C3521781   2.311   5.640   5.583
  189SAPI   H5X21782   2.259   5.554   5.535
  189SAPI   H5Y21783   2.413   5.628   5.539
  189SAPI   C3621784   2.242   5.769   5.537
  189SAPI   H6X21785   2.286   5.811   5.445
  189SAPI   H6Y21786   2.255   5.835   5.625
  189SAPI   C3721787   2.089   5.753   5.514
  189SAPI   H7X21788   2.055   5.859   5.504
  189SAPI   H7Y21789   2.034   5.702   5.596
  189SAPI   C3821790   2.049   5.680   5.388
  189SAPI   H8X21791   1.943   5.646   5.380
  189SAPI   H8Y21792   2.091   5.577   5.391
  189SAPI   C3921793   2.083   5.741   5.258
  189SAPI   H9X21794   2.187   5.777   5.241
  189SAPI   H9Y21795   2.029   5.838   5.260
  189SAPI  C31021796   2.047   5.660   5.136
  189SAPI  H10X21797   1.939   5.635   5.131
  189SAPI  H10Y21798   2.106   5.567   5.140
  189SAPI  C31121799   2.084   5.737   5.008
  189SAPI  H11X21800   2.065   5.678   4.916
  189SAPI  H11Y21801   2.195   5.744   5.005
  189SAPI  C31221802   2.040   5.878   4.996
  189SAPI  H12X21803   2.104   5.936   5.066
  189SAPI  H12Y21804   1.935   5.893   5.030
  189SAPI  C31321805   2.045   5.940   4.853
  189SAPI  H13X21806   2.131   5.896   4.798
  189SAPI  H13Y21807   2.057   6.050   4.855
  189SAPI  C31421808   1.932   5.917   4.765
  189SAPI  H14X21809   1.842   5.975   4.793
  189SAPI  H14Y21810   1.888   5.818   4.792
  189SAPI  C31521811   1.949   5.935   4.616
  189SAPI  H15X21812   2.046   5.984   4.596
  189SAPI  H15Y21813   1.867   5.986   4.561
  189SAPI  C31621814   1.936   5.799   4.543
  189SAPI  H16X21815   1.851   5.745   4.589
  189SAPI  H16Y21816   2.023   5.729   4.542
  189SAPI  C31721817   1.913   5.826   4.398
  189SAPI  H17X21818   1.982   5.910   4.375
  189SAPI  H17Y21819   1.813   5.864   4.369
  189SAPI  C31821820   1.922   5.693   4.317
  189SAPI  H18X21821   2.029   5.663   4.319
  189SAPI  H18Y21822   1.886   5.721   4.216
  189SAPI  H18Z21823   1.863   5.611   4.363
  190SAPI   C1221824   0.854   2.810   6.768
  190SAPI    H221825   0.825   2.755   6.676
  190SAPI    O221826   0.772   2.750   6.868
  190SAPI   HO221827   0.685   2.725   6.836
  190SAPI   C1321828   1.005   2.778   6.789
  190SAPI    H321829   1.057   2.814   6.698
  190SAPI    O321830   1.040   2.639   6.796
  190SAPI   HO321831   1.135   2.641   6.778
  190SAPI   C1421832   1.053   2.861   6.909
  190SAPI    H421833   1.018   2.804   6.998
  190SAPI    O421834   1.194   2.873   6.922
  190SAPI   HO421835   1.199   2.883   7.018
  190SAPI   C1521836   0.983   3.001   6.917
  190SAPI    H521837   1.061   3.057   6.862
  190SAPI    O521838   0.991   3.045   7.055
  190SAPI   HO521839   1.061   3.111   7.065
  190SAPI   C1621840   0.851   3.039   6.861
  190SAPI    H621841   0.767   3.021   6.932
  190SAPI    O621842   0.842   3.178   6.839
  190SAPI   HO621843   0.751   3.201   6.860
  190SAPI   C1121844   0.824   2.960   6.742
  190SAPI    H121845   0.902   2.992   6.670
  190SAPI     P21846   0.659   3.048   6.538
  190SAPI   O1321847   0.743   3.165   6.528
  190SAPI   O1421848   0.511   3.051   6.505
  190SAPI   O1221849   0.689   2.986   6.690
  190SAPI   O1121850   0.720   2.942   6.434
  190SAPI    C121851   0.689   2.802   6.431
  190SAPI    HA21852   0.663   2.774   6.535
  190SAPI    HB21853   0.607   2.783   6.359
  190SAPI    C221854   0.807   2.714   6.386
  190SAPI    HS21855   0.887   2.727   6.462
  190SAPI   O2121856   0.845   2.754   6.253
  190SAPI   C2121857   0.961   2.733   6.211
  190SAPI   O2221858   1.057   2.699   6.280
  190SAPI   C2221859   0.961   2.738   6.057
  190SAPI   H2R21860   0.951   2.636   6.014
  190SAPI   H2S21861   0.868   2.789   6.023
  190SAPI    C321862   0.768   2.565   6.376
  190SAPI    HX21863   0.680   2.545   6.312
  190SAPI    HY21864   0.734   2.536   6.478
  190SAPI   O3121865   0.879   2.483   6.333
  190SAPI   C3121866   0.867   2.352   6.351
  190SAPI   O3221867   0.783   2.302   6.427
  190SAPI   C3221868   0.983   2.280   6.287
  190SAPI   H2X21869   1.022   2.194   6.346
  190SAPI   H2Y21870   1.065   2.355   6.296
  190SAPI   C2321871   1.077   2.816   5.998
  190SAPI   H3R21872   1.171   2.777   6.043
  190SAPI   H3S21873   1.079   2.925   6.021
  190SAPI   C2421874   1.095   2.780   5.847
  190SAPI   H4R21875   1.087   2.670   5.836
  190SAPI   H4S21876   1.197   2.813   5.816
  190SAPI   C2521877   0.992   2.853   5.771
  190SAPI   H5R21878   0.920   2.924   5.815
  190SAPI   C2621879   1.003   2.859   5.635
  190SAPI   H6R21880   0.928   2.915   5.577
  190SAPI   C2721881   1.109   2.780   5.559
  190SAPI   H7R21882   1.054   2.736   5.473
  190SAPI   H7S21883   1.144   2.692   5.617
  190SAPI   C2821884   1.222   2.866   5.511
  190SAPI   H8R21885   1.306   2.889   5.579
  190SAPI   C2921886   1.225   2.926   5.394
  190SAPI   H9R21887   1.314   2.983   5.363
  190SAPI  C21021888   1.125   2.917   5.280
  190SAPI  H10R21889   1.111   3.012   5.224
  190SAPI  H10S21890   1.028   2.904   5.332
  190SAPI  C21121891   1.134   2.787   5.203
  190SAPI  H11R21892   1.120   2.697   5.265
  190SAPI  C21221893   1.151   2.772   5.065
  190SAPI  H12R21894   1.157   2.667   5.034
  190SAPI  C21321895   1.162   2.885   4.971
  190SAPI  H13R21896   1.096   2.971   4.995
  190SAPI  H13S21897   1.124   2.844   4.876
  190SAPI  C21421898   1.310   2.931   4.957
  190SAPI  H14R21899   1.353   2.966   5.052
  190SAPI  C21521900   1.391   2.919   4.851
  190SAPI  H15R21901   1.495   2.951   4.866
  190SAPI  C21621902   1.372   2.870   4.710
  190SAPI  H16R21903   1.264   2.845   4.697
  190SAPI  H16S21904   1.424   2.773   4.694
  190SAPI  C21721905   1.430   2.962   4.607
  190SAPI  H17R21906   1.536   2.987   4.631
  190SAPI  H17S21907   1.384   3.063   4.595
  190SAPI  C21821908   1.428   2.901   4.467
  190SAPI  H18R21909   1.323   2.874   4.442
  190SAPI  H18S21910   1.476   2.801   4.474
  190SAPI  C21921911   1.485   2.992   4.356
  190SAPI  H19R21912   1.591   3.017   4.379
  190SAPI  H19S21913   1.430   3.088   4.356
  190SAPI  C22021914   1.474   2.934   4.218
  190SAPI  H20R21915   1.374   2.889   4.201
  190SAPI  H20S21916   1.544   2.853   4.190
  190SAPI  H20T21917   1.482   3.008   4.135
  190SAPI   C3321918   0.945   2.221   6.151
  190SAPI   H3X21919   0.857   2.155   6.166
  190SAPI   H3Y21920   1.033   2.162   6.117
  190SAPI   C3421921   0.898   2.327   6.048
  190SAPI   H4X21922   0.972   2.409   6.059
  190SAPI   H4Y21923   0.798   2.363   6.078
  190SAPI   C3521924   0.915   2.281   5.902
  190SAPI   H5X21925   0.835   2.205   5.886
  190SAPI   H5Y21926   1.014   2.230   5.900
  190SAPI   C3621927   0.912   2.381   5.790
  190SAPI   H6X21928   1.007   2.436   5.805
  190SAPI   H6Y21929   0.834   2.460   5.784
  190SAPI   C3721930   0.923   2.313   5.650
  190SAPI   H7X21931   0.835   2.249   5.628
  190SAPI   H7Y21932   1.001   2.234   5.651
  190SAPI   C3821933   0.958   2.408   5.541
  190SAPI   H8X21934   1.058   2.454   5.557
  190SAPI   H8Y21935   0.881   2.488   5.545
  190SAPI   C3921936   0.960   2.344   5.396
  190SAPI   H9X21937   0.864   2.295   5.369
  190SAPI   H9Y21938   1.035   2.263   5.388
  190SAPI  C31021939   1.013   2.440   5.280
  190SAPI  H10X21940   1.117   2.477   5.294
  190SAPI  H10Y21941   0.943   2.527   5.286
  190SAPI  C31121942   1.003   2.380   5.140
  190SAPI  H11X21943   1.062   2.286   5.131
  190SAPI  H11Y21944   1.039   2.455   5.067
  190SAPI  C31221945   0.862   2.349   5.088
  190SAPI  H12X21946   0.792   2.432   5.109
  190SAPI  H12Y21947   0.824   2.256   5.135
  190SAPI  C31321948   0.854   2.319   4.936
  190SAPI  H13X21949   0.746   2.307   4.914
  190SAPI  H13Y21950   0.921   2.234   4.913
  190SAPI  C31421951   0.886   2.434   4.841
  190SAPI  H14X21952   0.990   2.473   4.840
  190SAPI  H14Y21953   0.835   2.523   4.883
  190SAPI  C31521954   0.833   2.415   4.694
  190SAPI  H15X21955   0.727   2.383   4.701
  190SAPI  H15Y21956   0.893   2.327   4.663
  190SAPI  C31621957   0.841   2.535   4.597
  190SAPI  H16X21958   0.948   2.565   4.598
  190SAPI  H16Y21959   0.768   2.610   4.634
  190SAPI  C31721960   0.779   2.501   4.456
  190SAPI  H17X21961   0.685   2.445   4.480
  190SAPI  H17Y21962   0.841   2.434   4.393
  190SAPI  C31821963   0.745   2.629   4.377
  190SAPI  H18X21964   0.842   2.671   4.339
  190SAPI  H18Y21965   0.688   2.706   4.434
  190SAPI  H18Z21966   0.675   2.613   4.292
  191SAPI   C1221967   4.833   4.627   2.189
  191SAPI    H221968   4.883   4.528   2.198
  191SAPI    O221969   4.906   4.725   2.265
  191SAPI   HO221970   4.853   4.725   2.346
  191SAPI   C1321971   4.838   4.657   2.046
  191SAPI    H321972   4.770   4.593   1.986
  191SAPI    O321973   4.967   4.630   1.984
  191SAPI   HO321974   4.959   4.627   1.888
  191SAPI   C1421975   4.797   4.798   2.028
  191SAPI    H421976   4.867   4.866   2.081
  191SAPI    O421977   4.805   4.847   1.896
  191SAPI   HO421978   4.852   4.930   1.895
  191SAPI   C1521979   4.664   4.834   2.088
  191SAPI    H521980   4.581   4.824   2.014
  191SAPI    O521981   4.653   4.973   2.117
  191SAPI   HO521982   4.597   5.015   2.051
  191SAPI   C1621983   4.616   4.754   2.211
  191SAPI    H621984   4.646   4.816   2.298
  191SAPI    O621985   4.473   4.755   2.223
  191SAPI   HO621986   4.446   4.664   2.234
  191SAPI   C1121987   4.685   4.620   2.236
  191SAPI    H121988   4.648   4.537   2.171
  191SAPI     P21989   4.555   4.512   2.447
  191SAPI   O1321990   4.444   4.496   2.349
  191SAPI   O1421991   4.533   4.579   2.573
  191SAPI   O1221992   4.678   4.584   2.374
  191SAPI   O1121993   4.597   4.358   2.468
  191SAPI    C121994   4.734   4.321   2.477
  191SAPI    HA21995   4.807   4.405   2.477
  191SAPI    HB21996   4.752   4.270   2.575
  191SAPI    C221997   4.770   4.227   2.356
  191SAPI    HS21998   4.744   4.272   2.257
  191SAPI   O2121999   4.673   4.120   2.390
  191SAPI   C2122000   4.621   4.068   2.278
  191SAPI   O2222001   4.669   4.080   2.166
  191SAPI   C2222002   4.512   3.967   2.307
  191SAPI   H2R22003   4.421   4.027   2.328
  191SAPI   H2S22004   4.505   3.889   2.228
  191SAPI    C322005   4.911   4.168   2.345
  191SAPI    HX22006   4.976   4.250   2.306
  191SAPI    HY22007   4.924   4.088   2.269
  191SAPI   O3122008   4.956   4.128   2.477
  191SAPI   C3122009   4.950   3.999   2.498
  191SAPI   O3222010   4.929   3.918   2.408
  191SAPI   C3222011   4.973   3.958   2.645
  191SAPI   H2X22012   5.027   4.043   2.691
  191SAPI   H2Y22013   5.045   3.873   2.638
  191SAPI   C2322014   4.552   3.881   2.436
  191SAPI   H3R22015   4.533   3.934   2.531
  191SAPI   H3S22016   4.662   3.864   2.435
  191SAPI   C2422017   4.493   3.735   2.446
  191SAPI   H4R22018   4.493   3.698   2.342
  191SAPI   H4S22019   4.384   3.745   2.466
  191SAPI   C2522020   4.559   3.627   2.532
  191SAPI   H5R22021   4.635   3.566   2.480
  191SAPI   C2622022   4.532   3.592   2.658
  191SAPI   H6R22023   4.593   3.511   2.701
  191SAPI   C2722024   4.426   3.654   2.745
  191SAPI   H7R22025   4.416   3.762   2.721
  191SAPI   H7S22026   4.467   3.650   2.848
  191SAPI   C2822027   4.291   3.589   2.745
  191SAPI   H8R22028   4.234   3.581   2.651
  191SAPI   C2922029   4.218   3.556   2.852
  191SAPI   H9R22030   4.125   3.500   2.836
  191SAPI  C21022031   4.261   3.561   2.995
  191SAPI  H10R22032   4.334   3.643   3.011
  191SAPI  H10S22033   4.321   3.467   3.003
  191SAPI  C21122034   4.161   3.559   3.110
  191SAPI  H11R22035   4.058   3.528   3.088
  191SAPI  C21222036   4.189   3.610   3.229
  191SAPI  H12R22037   4.117   3.588   3.308
  191SAPI  C21322038   4.322   3.667   3.281
  191SAPI  H13R22039   4.319   3.759   3.343
  191SAPI  H13S22040   4.388   3.704   3.200
  191SAPI  C21422041   4.400   3.564   3.366
  191SAPI  H14R22042   4.489   3.520   3.319
  191SAPI  C21522043   4.382   3.532   3.496
  191SAPI  H15R22044   4.448   3.459   3.546
  191SAPI  C21622045   4.275   3.594   3.586
  191SAPI  H16R22046   4.222   3.506   3.628
  191SAPI  H16S22047   4.198   3.653   3.531
  191SAPI  C21722048   4.333   3.676   3.703
  191SAPI  H17R22049   4.407   3.751   3.667
  191SAPI  H17S22050   4.384   3.604   3.771
  191SAPI  C21822051   4.227   3.755   3.784
  191SAPI  H18R22052   4.140   3.685   3.778
  191SAPI  H18S22053   4.196   3.845   3.727
  191SAPI  C21922054   4.249   3.787   3.927
  191SAPI  H19R22055   4.273   3.688   3.972
  191SAPI  H19S22056   4.163   3.838   3.974
  191SAPI  C22022057   4.357   3.886   3.957
  191SAPI  H20R22058   4.349   3.926   4.060
  191SAPI  H20S22059   4.352   3.977   3.894
  191SAPI  H20T22060   4.464   3.867   3.934
  191SAPI   C3322061   4.834   3.932   2.701
  191SAPI   H3X22062   4.778   3.862   2.636
  191SAPI   H3Y22063   4.787   4.033   2.696
  191SAPI   C3422064   4.841   3.872   2.837
  191SAPI   H4X22065   4.892   3.946   2.902
  191SAPI   H4Y22066   4.889   3.771   2.835
  191SAPI   C3522067   4.702   3.848   2.900
  191SAPI   H5X22068   4.656   3.793   2.815
  191SAPI   H5Y22069   4.666   3.953   2.909
  191SAPI   C3622070   4.689   3.766   3.026
  191SAPI   H6X22071   4.709   3.659   3.005
  191SAPI   H6Y22072   4.584   3.772   3.064
  191SAPI   C3722073   4.785   3.803   3.145
  191SAPI   H7X22074   4.803   3.910   3.170
  191SAPI   H7Y22075   4.886   3.759   3.129
  191SAPI   C3822076   4.731   3.743   3.276
  191SAPI   H8X22077   4.723   3.632   3.269
  191SAPI   H8Y22078   4.627   3.778   3.292
  191SAPI   C3922079   4.820   3.771   3.398
  191SAPI   H9X22080   4.859   3.875   3.403
  191SAPI   H9Y22081   4.905   3.701   3.415
  191SAPI  C31022082   4.744   3.758   3.533
  191SAPI  H10X22083   4.723   3.650   3.550
  191SAPI  H10Y22084   4.650   3.815   3.541
  191SAPI  C31122085   4.839   3.805   3.652
  191SAPI  H11X22086   4.843   3.916   3.645
  191SAPI  H11Y22087   4.937   3.763   3.622
  191SAPI  C31222088   4.791   3.763   3.793
  191SAPI  H12X22089   4.802   3.653   3.795
  191SAPI  H12Y22090   4.682   3.785   3.791
  191SAPI  C31322091   4.864   3.831   3.897
  191SAPI  H13X22092   4.812   3.926   3.922
  191SAPI  H13Y22093   4.962   3.865   3.856
  191SAPI  C31422094   4.879   3.759   4.029
  191SAPI  H14X22095   4.961   3.803   4.089
  191SAPI  H14Y22096   4.896   3.652   4.005
  191SAPI  C31522097   4.748   3.758   4.114
  191SAPI  H15X22098   4.666   3.708   4.060
  191SAPI  H15Y22099   4.715   3.861   4.139
  191SAPI  C31622100   4.763   3.701   4.260
  191SAPI  H16X22101   4.764   3.590   4.271
  191SAPI  H16Y22102   4.678   3.733   4.323
  191SAPI  C31722103   4.880   3.755   4.348
  191SAPI  H17X22104   4.975   3.709   4.313
  191SAPI  H17Y22105   4.875   3.710   4.450
  191SAPI  C31822106   4.888   3.909   4.353
  191SAPI  H18X22107   4.922   3.951   4.256
  191SAPI  H18Y22108   4.967   3.949   4.420
  191SAPI  H18Z22109   4.790   3.950   4.386
  192SAPI   C1222110   6.834   6.525   1.607
  192SAPI    H222111   0.048   6.458   1.539
  192SAPI    O222112   0.034   6.659   1.592
  192SAPI   HO222113   0.083   6.664   1.510
  192SAPI   C1322114   6.694   6.508   1.572
  192SAPI    H322115   6.676   6.399   1.565
  192SAPI    O322116   6.660   6.554   1.439
  192SAPI   HO322117   6.626   6.482   1.385
  192SAPI   C1422118   6.592   6.571   1.669
  192SAPI    H422119   6.605   6.681   1.660
  192SAPI    O422120   6.458   6.543   1.645
  192SAPI   HO422121   6.443   6.570   1.554
  192SAPI   C1522122   6.630   6.560   1.821
  192SAPI    H522123   6.594   6.457   1.839
  192SAPI    O522124   6.554   6.646   1.905
  192SAPI   HO522125   6.587   6.733   1.883
  192SAPI   C1622126   6.779   6.550   1.856
  192SAPI    H622127   6.824   6.652   1.864
  192SAPI    O622128   6.814   6.496   1.989
  192SAPI   HO622129   6.791   6.403   1.985
  192SAPI   C1122130   0.011   6.468   1.744
  192SAPI    H122131   6.807   6.368   1.753
  192SAPI     P22132   0.244   6.325   1.783
  192SAPI   O1322133   0.387   6.364   1.809
  192SAPI   O1422134   0.213   6.245   1.665
  192SAPI   O1222135   0.150   6.464   1.782
  192SAPI   O1122136   0.193   6.255   1.909
  192SAPI    C122137   0.295   6.174   1.985
  192SAPI    HA22138   0.333   6.096   1.916
  192SAPI    HB22139   0.376   6.231   2.035
  192SAPI    C222140   0.232   6.113   2.115
  192SAPI    HS22141   0.135   6.065   2.088
  192SAPI   O2122142   0.188   6.226   2.198
  192SAPI   C2122143   0.115   6.188   2.298
  192SAPI   O2222144   0.074   6.069   2.315
  192SAPI   C2222145   0.107   6.299   2.405
  192SAPI   H2R22146   0.110   6.402   2.364
  192SAPI   H2S22147   0.006   6.288   2.451
  192SAPI    C322148   0.330   6.027   2.201
  192SAPI    HX22149   0.373   5.950   2.134
  192SAPI    HY22150   0.286   5.972   2.286
  192SAPI   O3122151   0.435   6.111   2.266
  192SAPI   C3122152   0.535   6.038   2.313
  192SAPI   O3222153   0.562   5.921   2.291
  192SAPI   C3222154   0.606   6.123   2.420
  192SAPI   H2X22155   0.625   6.217   2.365
  192SAPI   H2Y22156   0.695   6.060   2.444
  192SAPI   C2322157   0.220   6.291   2.506
  192SAPI   H3R22158   0.313   6.304   2.446
  192SAPI   H3S22159   0.216   6.196   2.564
  192SAPI   C2422160   0.221   6.408   2.614
  192SAPI   H4R22161   0.253   6.505   2.571
  192SAPI   H4S22162   0.296   6.379   2.691
  192SAPI   C2522163   0.091   6.438   2.683
  192SAPI   H5R22164   0.013   6.465   2.611
  192SAPI   C2622165   0.070   6.470   2.816
  192SAPI   H6R22166   6.813   6.485   2.858
  192SAPI   C2722167   0.175   6.477   2.925
  192SAPI   H7R22168   0.150   6.543   3.010
  192SAPI   H7S22169   0.269   6.512   2.877
  192SAPI   C2822170   0.213   6.339   2.981
  192SAPI   H8R22171   0.224   6.256   2.910
  192SAPI   C2922172   0.242   6.311   3.109
  192SAPI   H9R22173   0.284   6.213   3.136
  192SAPI  C21022174   0.214   6.388   3.234
  192SAPI  H10R22175   0.189   6.492   3.205
  192SAPI  H10S22176   0.314   6.390   3.282
  192SAPI  C21122177   0.129   6.327   3.337
  192SAPI  H11R22178   0.070   6.240   3.305
  192SAPI  C21222179   0.116   6.376   3.454
  192SAPI  H12R22180   0.059   6.327   3.535
  192SAPI  C21322181   0.186   6.499   3.501
  192SAPI  H13R22182   0.117   6.584   3.485
  192SAPI  H13S22183   0.277   6.516   3.439
  192SAPI  C21422184   0.230   6.491   3.647
  192SAPI  H14R22185   0.310   6.424   3.680
  192SAPI  C21522186   0.184   6.568   3.750
  192SAPI  H15R22187   0.232   6.562   3.849
  192SAPI  C21622188   0.081   6.673   3.748
  192SAPI  H16R22189   6.837   6.648   3.684
  192SAPI  H16S22190   0.117   6.764   3.695
  192SAPI  C21722191   0.044   6.727   3.890
  192SAPI  H17R22192   6.838   6.650   3.954
  192SAPI  H17S22193   6.808   6.804   3.875
  192SAPI  C21822194   0.162   6.790   3.972
  192SAPI  H18R22195   0.203   0.035   3.919
  192SAPI  H18S22196   0.243   6.715   3.984
  192SAPI  C21922197   0.120   6.827   4.113
  192SAPI  H19R22198   0.105   6.737   4.177
  192SAPI  H19S22199   0.028   0.046   4.108
  192SAPI  C22022200   0.232   0.067   4.185
  192SAPI  H20R22201   0.215   0.085   4.293
  192SAPI  H20S22202   0.241   0.168   4.140
  192SAPI  H20T22203   0.334   0.023   4.178
  192SAPI   C3322204   0.531   6.166   2.546
  192SAPI   H3X22205   0.452   6.092   2.571
  192SAPI   H3Y22206   0.487   6.266   2.528
  192SAPI   C3422207   0.611   6.173   2.666
  192SAPI   H4X22208   0.679   6.260   2.669
  192SAPI   H4Y22209   0.680   6.086   2.664
  192SAPI   C3522210   0.525   6.169   2.796
  192SAPI   H5X22211   0.476   6.069   2.789
  192SAPI   H5Y22212   0.440   6.240   2.787
  192SAPI   C3622213   0.596   6.200   2.927
  192SAPI   H6X22214   0.698   6.157   2.929
  192SAPI   H6Y22215   0.539   6.159   3.014
  192SAPI   C3722216   0.616   6.352   2.940
  192SAPI   H7X22217   0.509   6.380   2.925
  192SAPI   H7Y22218   0.675   6.401   2.860
  192SAPI   C3822219   0.655   6.392   3.081
  192SAPI   H8X22220   0.753   6.348   3.108
  192SAPI   H8Y22221   0.583   6.351   3.156
  192SAPI   C3922222   0.652   6.541   3.104
  192SAPI   H9X22223   0.547   6.575   3.100
  192SAPI   H9Y22224   0.704   6.588   3.017
  192SAPI  C31022225   0.735   6.594   3.224
  192SAPI  H10X22226   0.799   6.680   3.195
  192SAPI  H10Y22227   0.803   6.513   3.257
  192SAPI  C31122228   0.648   6.630   3.343
  192SAPI  H11X22229   0.556   6.568   3.342
  192SAPI  H11Y22230   0.598   6.729   3.328
  192SAPI  C31222231   0.723   6.624   3.475
  192SAPI  H12X22232   0.825   6.668   3.473
  192SAPI  H12Y22233   0.751   6.519   3.501
  192SAPI  C31322234   0.653   6.681   3.604
  192SAPI  H13X22235   0.551   6.638   3.614
  192SAPI  H13Y22236   0.641   6.790   3.586
  192SAPI  C31422237   0.719   6.657   3.738
  192SAPI  H14X22238   0.815   6.712   3.747
  192SAPI  H14Y22239   0.734   6.547   3.751
  192SAPI  C31522240   0.632   6.691   3.859
  192SAPI  H15X22241   0.686   6.642   3.944
  192SAPI  H15Y22242   0.534   6.640   3.858
  192SAPI  C31622243   0.612   6.840   3.880
  192SAPI  H16X22244   0.542   0.024   3.962
  192SAPI  H16Y22245   0.557   0.029   3.789
  192SAPI  C31722246   0.745   0.078   3.886
  192SAPI  H17X22247   0.792   0.070   3.786
  192SAPI  H17Y22248   0.799   0.028   3.969
  192SAPI  C31822249   0.734   0.226   3.936
  192SAPI  H18X22250   0.841   0.257   3.933
  192SAPI  H18Y22251   0.683   0.221   4.034
  192SAPI  H18Z22252   0.670   0.281   3.864
  193SOD    SOD22253   2.276   1.879   1.151
  194SOD    SOD22254   0.877   1.623   8.352
  195SOD    SOD22255   3.274   4.697   0.305
  196SOD    SOD22256   0.619   1.453   1.514
  197SOD    SOD22257   4.116   1.320   7.758
  198SOD    SOD22258   6.370   5.283   0.723
  199SOD    SOD22259   6.750   2.826   7.048
  200SOD    SOD22260   6.438   0.544   0.570
  201SOD    SOD22261   5.939   5.775   2.366
  202SOD    SOD22262   4.388   4.361   2.142
  203SOD    SOD22263   3.669   1.121   1.306
  204SOD    SOD22264   4.349   5.177   8.200
  205SOD    SOD22265   0.135   0.105   7.316
  206SOD    SOD22266   2.437   2.825   8.596
  207SOD    SOD22267   2.518   6.025   6.729
  208SOD    SOD22268   3.425   0.136   6.298
  209SOD    SOD22269   2.323   4.152   7.518
  210SOD    SOD22270   3.265   1.051   0.301
  211SOD    SOD22271   5.376   2.084   7.161
  212SOD    SOD22272   3.380   5.317   6.276
  213SOD    SOD22273   5.007   1.484   0.128
  214SOD    SOD22274   3.183   4.074   7.175
  215SOD    SOD22275   2.047   4.853   6.631
  216SOD    SOD22276   2.037   0.920   7.583
  217SOD    SOD22277   0.117   4.960   8.488
  218SOD    SOD22278   4.704   2.584   1.494
  219SOD    SOD22279   5.998   0.379   6.982
  220SOD    SOD22280   3.654   3.812   0.813
  221SOD    SOD22281   3.391   2.099   2.127
  222SOD    SOD22282   0.643   6.040   6.619
  223SOD    SOD22283   5.496   4.898   1.836
  224SOD    SOD22284   3.203   3.552   6.351
  225SOD    SOD22285   5.365   5.232   7.436
  226SOD    SOD22286   4.320   1.072   2.078
  227SOD    SOD22287   6.787   2.317   2.206
  228SOD    SOD22288   2.877   1.765   8.059
  229SOD    SOD22289   3.493   0.826   8.511
  230SOD    SOD22290   1.678   4.943   0.444
  231SOD    SOD22291   6.775   3.181   6.777
  232SOD    SOD22292   6.796   6.231   7.156
  233SOD    SOD22293   3.020   1.361   2.145
  234CLA    CLA22294   0.882   1.328   8.230
  235CLA    CLA22295   6.634   6.008   7.960
  236CLA    CLA22296   0.000   2.955   0.796
  237CLA    CLA22297   4.946   1.824   1.387
  238CLA    CLA22298   0.576   1.968   1.262
  239CLA    CLA22299   4.272   5.080   0.607
  240CLA    CLA22300   4.145   1.250   8.273
  241CLA    CLA22301   4.843   2.215   7.756
  242CLA    CLA22302   6.393   6.476   7.438
  243CLA    CLA22303   3.892   0.917   0.637
  244CLA    CLA22304   1.329   6.829   0.709
  245CLA    CLA22305   2.574   5.863   1.317
  246CLA    CLA22306   2.424   1.798   0.663
  247CLA    CLA22307   3.709   6.807   8.297
  248CLA    CLA22308   6.733   2.695   8.065
  249CLA    CLA22309   6.681   5.960   1.200
  250CLA    CLA22310   4.259   3.535   7.482
  251TIP3   OH222311   6.067   4.416   1.859
  251TIP3    H122312   6.001   4.434   1.926
  251TIP3    H222313   6.121   4.346   1.897
  252TIP3   OH222314   4.344   4.232   1.140
  252TIP3    H122315   4.377   4.319   1.121
  252TIP3    H222316   4.344   4.226   1.236
  253TIP3   OH222317   4.960   5.183   0.198
  253TIP3    H122318   4.989   5.142   0.280
  253TIP3    H222319   4.943   5.109   0.140
  254TIP3   OH222320   4.173   1.082   6.913
  254TIP3    H122321   4.188   1.169   6.877
  254TIP3    H222322   4.261   1.047   6.930
  255TIP3   OH222323   2.900   2.588   8.009
  255TIP3    H122324   2.898   2.674   7.968
  255TIP3    H222325   2.940   2.531   7.944
  256TIP3   OH222326   2.822   2.198   6.672
  256TIP3    H122327   2.798   2.191   6.764
  256TIP3    H222328   2.747   2.241   6.631
  257TIP3   OH222329   4.213   3.102   7.920
  257TIP3    H122330   4.141   3.130   7.864
  257TIP3    H222331   4.175   3.095   8.007
  258TIP3   OH222332   0.597   0.146   7.874
  258TIP3    H122333   0.560   0.200   7.943
  258TIP3    H222334   0.546   0.066   7.876
  259TIP3   OH222335   5.925   6.181   7.417
  259TIP3    H122336   5.835   6.211   7.413
  259TIP3    H222337   5.974   6.255   7.452
  260TIP3   OH222338   1.687   0.879   8.480
  260TIP3    H122339   1.615   0.934   8.449
  260TIP3    H222340   1.744   0.939   8.528
  261TIP3   OH222341   4.476   3.404   0.783
  261TIP3    H122342   4.560   3.443   0.807
  261TIP3    H222343   4.479   3.396   0.688
  262TIP3   OH222344   0.872   1.156   8.695
  262TIP3    H122345   0.825   1.168   8.613
  262TIP3    H222346   0.824   1.209   0.046
  263TIP3   OH222347   0.820   2.013   7.082
  263TIP3    H122348   0.851   2.017   7.172
  263TIP3    H222349   0.896   2.035   7.029
  264TIP3   OH222350   5.752   3.534   0.930
  264TIP3    H122351   5.727   3.579   0.849
  264TIP3    H222352   5.816   3.592   0.971
  265TIP3   OH222353   1.183   0.314   8.103
  265TIP3    H122354   1.145   0.324   8.016
  265TIP3    H222355   1.216   0.225   8.105
  266TIP3   OH222356   5.100   1.683   0.069
  266TIP3    H122357   5.122   1.732   0.148
  266TIP3    H222358   5.096   1.749   8.713
  267TIP3   OH222359   5.075   5.795   7.420
  267TIP3    H122360   5.082   5.846   7.500
  267TIP3    H222361   5.164   5.791   7.385
  268TIP3   OH222362   5.439   4.494   1.102
  268TIP3    H122363   5.479   4.421   1.150
  268TIP3    H222364   5.425   4.561   1.169
  269TIP3   OH222365   5.810   1.162   1.750
  269TIP3    H122366   5.727   1.210   1.748
  269TIP3    H222367   5.846   1.179   1.837
  270TIP3   OH222368   0.758   1.451   7.643
  270TIP3    H122369   0.669   1.420   7.632
  270TIP3    H222370   0.801   1.432   7.559
  271TIP3   OH222371   1.379   0.178   0.028
  271TIP3    H122372   1.468   0.176   0.063
  271TIP3    H222373   1.390   0.167   8.647
  272TIP3   OH222374   0.873   3.352   0.655
  272TIP3    H122375   0.935   3.288   0.619
  272TIP3    H222376   0.839   3.398   0.579
  273TIP3   OH222377   1.800   4.864   2.379
  273TIP3    H122378   1.734   4.928   2.405
  273TIP3    H222379   1.852   4.849   2.458
  274TIP3   OH222380   6.098   6.119   7.217
  274TIP3    H122381   6.045   6.160   7.285
  274TIP3    H222382   6.035   6.072   7.162
  275TIP3   OH222383   2.086   2.054   8.132
  275TIP3    H122384   2.007   2.107   8.124
  275TIP3    H222385   2.159   2.116   8.124
  276TIP3   OH222386   0.500   2.401   0.937
  276TIP3    H122387   0.409   2.424   0.920
  276TIP3    H222388   0.547   2.485   0.936
  277TIP3   OH222389   0.610   0.784   8.114
  277TIP3    H122390   0.669   0.769   8.188
  277TIP3    H222391   0.621   0.877   8.092
  278TIP3   OH222392   5.768   2.650   1.440
  278TIP3    H122393   5.742   2.681   1.527
  278TIP3    H222394   5.697   2.593   1.412
  279TIP3   OH222395   0.270   5.081   0.184
  279TIP3    H122396   0.257   5.042   0.271
  279TIP3    H222397   0.241   5.171   0.194
  280TIP3   OH222398   6.414   0.502   7.388
  280TIP3    H122399   6.441   0.441   7.457
  280TIP3    H222400   6.334   0.463   7.352
  281TIP3   OH222401   3.851   0.370   2.077
  281TIP3    H122402   3.774   0.317   2.098
  281TIP3    H222403   3.923   0.307   2.070
  282TIP3   OH222404   1.032   5.516   1.427
  282TIP3    H122405   1.121   5.550   1.437
  282TIP3    H222406   1.030   5.477   1.340
  283TIP3   OH222407   5.950   4.108   7.274
  283TIP3    H122408   6.017   4.154   7.223
  283TIP3    H222409   5.996   4.082   7.354
  284TIP3   OH222410   2.388   1.771   8.468
  284TIP3    H122411   2.334   1.697   8.439
  284TIP3    H222412   2.342   1.805   8.546
  285TIP3   OH222413   1.853   5.154   1.052
  285TIP3    H122414   1.900   5.171   1.133
  285TIP3    H222415   1.831   5.241   1.019
  286TIP3   OH222416   4.861   2.337   7.140
  286TIP3    H122417   4.921   2.384   7.198
  286TIP3    H222418   4.788   2.312   7.196
  287TIP3   OH222419   5.629   5.818   0.519
  287TIP3    H122420   5.589   5.826   0.432
  287TIP3    H222421   5.593   5.891   0.569
  288TIP3   OH222422   0.058   4.564   2.602
  288TIP3    H122423   0.011   4.481   2.602
  288TIP3    H222424   0.040   4.602   2.516
  289TIP3   OH222425   5.509   6.705   0.989
  289TIP3    H122426   5.532   6.769   1.056
  289TIP3    H222427   5.592   6.684   0.947
  290TIP3   OH222428   0.501   1.484   6.919
  290TIP3    H122429   0.579   1.498   6.973
  290TIP3    H222430   0.534   1.486   6.829
  291TIP3   OH222431   4.884   5.893   0.427
  291TIP3    H122432   4.875   5.798   0.436
  291TIP3    H222433   4.952   5.916   0.490
  292TIP3   OH222434   4.329   4.188   1.412
  292TIP3    H122435   4.244   4.165   1.448
  292TIP3    H222436   4.377   4.226   1.485
  293TIP3   OH222437   3.573   0.637   1.694
  293TIP3    H122438   3.665   0.632   1.670
  293TIP3    H222439   3.540   0.547   1.683
  294TIP3   OH222440   0.969   2.709   1.799
  294TIP3    H122441   1.026   2.768   1.848
  294TIP3    H222442   0.941   2.644   1.863
  295TIP3   OH222443   5.588   5.133   0.849
  295TIP3    H122444   5.611   5.182   0.770
  295TIP3    H222445   5.588   5.199   0.918
  296TIP3   OH222446   4.027   6.147   0.297
  296TIP3    H122447   4.012   6.239   0.277
  296TIP3    H222448   3.950   6.120   0.347
  297TIP3   OH222449   4.098   3.274   0.101
  297TIP3    H122450   4.128   3.195   0.057
  297TIP3    H222451   4.021   3.246   0.151
  298TIP3   OH222452   0.610   2.926   1.438
  298TIP3    H122453   0.566   2.989   1.495
  298TIP3    H222454   0.698   2.918   1.476
  299TIP3   OH222455   4.956   3.703   0.461
  299TIP3    H122456   4.985   3.792   0.440
  299TIP3    H222457   4.976   3.692   0.554
  300TIP3   OH222458   5.317   0.449   0.914
  300TIP3    H122459   5.290   0.492   0.833
  300TIP3    H222460   5.317   0.356   0.893
  301TIP3   OH222461   4.455   5.357   0.551
  301TIP3    H122462   4.405   5.277   0.533
  301TIP3    H222463   4.440   5.373   0.644
  302TIP3   OH222464   1.506   6.228   1.732
  302TIP3    H122465   1.420   6.271   1.731
  302TIP3    H222466   1.553   6.273   1.803
  303TIP3   OH222467   6.394   4.823   0.975
  303TIP3    H122468   6.484   4.800   0.951
  303TIP3    H222469   6.371   4.760   1.043
  304TIP3   OH222470   2.668   2.425   1.462
  304TIP3    H122471   2.719   2.498   1.428
  304TIP3    H222472   2.698   2.349   1.412
  305TIP3   OH222473   4.194   2.266   8.305
  305TIP3    H122474   4.284   2.235   8.317
  305TIP3    H222475   4.203   2.342   8.247
  306TIP3   OH222476   4.776   0.422   8.108
  306TIP3    H122477   4.781   0.350   8.046
  306TIP3    H222478   4.741   0.495   8.057
  307TIP3   OH222479   2.487   4.530   0.087
  307TIP3    H122480   2.469   4.472   0.161
  307TIP3    H222481   2.403   4.539   0.042
  308TIP3   OH222482   6.721   5.612   7.355
  308TIP3    H122483   6.747   5.521   7.339
  308TIP3    H222484   6.749   5.659   7.277
  309TIP3   OH222485   2.970   5.098   0.718
  309TIP3    H122486   3.052   5.087   0.766
  309TIP3    H222487   2.932   5.178   0.755
  310TIP3   OH222488   4.449   3.314   7.969
  310TIP3    H122489   4.534   3.287   7.933
  310TIP3    H222490   4.394   3.329   7.892
  311TIP3   OH222491   3.161   0.442   8.421
  311TIP3    H122492   3.155   0.349   8.401
  311TIP3    H222493   3.240   0.472   8.376
  312TIP3   OH222494   3.706   1.188   8.048
  312TIP3    H122495   3.628   1.243   8.058
  312TIP3    H222496   3.675   1.099   8.064
  313TIP3   OH222497   4.419   4.627   8.147
  313TIP3    H122498   4.480   4.698   8.165
  313TIP3    H222499   4.402   4.633   8.053
  314TIP3   OH222500   2.318   2.401   1.155
  314TIP3    H122501   2.374   2.340   1.107
  314TIP3    H222502   2.290   2.352   1.233
  315TIP3   OH222503   1.039   3.794   0.835
  315TIP3    H122504   1.044   3.877   0.883
  315TIP3    H222505   1.105   3.738   0.877
  316TIP3   OH222506   3.103   3.285   1.445
  316TIP3    H122507   3.172   3.256   1.385
  316TIP3    H222508   3.043   3.335   1.390
  317TIP3   OH222509   0.725   2.463   0.074
  317TIP3    H122510   0.767   2.401   0.014
  317TIP3    H222511   0.724   2.418   0.158
  318TIP3   OH222512   2.525   0.448   2.217
  318TIP3    H122513   2.577   0.526   2.199
  318TIP3    H222514   2.446   0.480   2.259
  319TIP3   OH222515   2.419   1.478   7.848
  319TIP3    H122516   2.346   1.491   7.907
  319TIP3    H222517   2.383   1.427   7.776
  320TIP3   OH222518   3.481   3.538   0.096
  320TIP3    H122519   3.411   3.489   0.139
  320TIP3    H222520   3.548   3.472   0.076
  321TIP3   OH222521   5.914   4.418   7.530
  321TIP3    H122522   6.000   4.383   7.506
  321TIP3    H222523   5.892   4.376   7.613
  322TIP3   OH222524   6.110   5.382   7.094
  322TIP3    H122525   6.044   5.339   7.148
  322TIP3    H222526   6.186   5.325   7.099
  323TIP3   OH222527   3.209   2.834   8.116
  323TIP3    H122528   3.178   2.756   8.162
  323TIP3    H222529   3.232   2.802   8.029
  324TIP3   OH222530   2.515   5.667   7.751
  324TIP3    H122531   2.580   5.736   7.742
  324TIP3    H222532   2.556   5.589   7.713
  325TIP3   OH222533   0.901   3.443   1.105
  325TIP3    H122534   0.868   3.353   1.105
  325TIP3    H222535   0.834   3.493   1.058
  326TIP3   OH222536   1.866   0.568   7.757
  326TIP3    H122537   1.862   0.654   7.715
  326TIP3    H222538   1.959   0.548   7.763
  327TIP3   OH222539   1.342   3.639   7.351
  327TIP3    H122540   1.402   3.596   7.412
  327TIP3    H222541   1.349   3.588   7.270
  328TIP3   OH222542   1.965   4.279   0.696
  328TIP3    H122543   1.887   4.277   0.752
  328TIP3    H222544   1.957   4.361   0.648
  329TIP3   OH222545   0.702   3.790   0.849
  329TIP3    H122546   0.758   3.788   0.927
  329TIP3    H222547   0.751   3.741   0.783
  330TIP3   OH222548   1.219   1.504   8.544
  330TIP3    H122549   1.237   1.476   8.634
  330TIP3    H222550   1.132   1.470   8.525
  331TIP3   OH222551   3.603   4.125   6.672
  331TIP3    H122552   3.623   4.064   6.743
  331TIP3    H222553   3.688   4.144   6.632
  332TIP3   OH222554   5.559   6.787   1.992
  332TIP3    H122555   5.543   6.757   1.903
  332TIP3    H222556   5.483   6.842   2.012
  333TIP3   OH222557   1.237   2.886   1.656
  333TIP3    H122558   1.189   2.858   1.733
  333TIP3    H222559   1.312   2.935   1.690
  334TIP3   OH222560   3.357   1.868   7.886
  334TIP3    H122561   3.411   1.861   7.965
  334TIP3    H222562   3.368   1.958   7.858
  335TIP3   OH222563   0.717   2.373   1.955
  335TIP3    H122564   0.634   2.374   1.908
  335TIP3    H222565   0.745   2.281   1.953
  336TIP3   OH222566   5.241   1.673   6.787
  336TIP3    H122567   5.271   1.696   6.875
  336TIP3    H222568   5.321   1.675   6.734
  337TIP3   OH222569   1.633   1.058   0.308
  337TIP3    H122570   1.671   1.140   0.276
  337TIP3    H222571   1.668   1.049   0.397
  338TIP3   OH222572   2.150   0.729   7.661
  338TIP3    H122573   2.240   0.746   7.688
  338TIP3    H222574   2.136   0.637   7.683
  339TIP3   OH222575   1.825   2.024   2.503
  339TIP3    H122576   1.886   2.092   2.530
  339TIP3    H222577   1.739   2.057   2.526
  340TIP3   OH222578   5.355   4.694   7.854
  340TIP3    H122579   5.441   4.687   7.894
  340TIP3    H222580   5.294   4.679   7.926
  341TIP3   OH222581   2.126   6.374   6.965
  341TIP3    H122582   2.171   6.411   7.041
  341TIP3    H222583   2.033   6.377   6.988
  342TIP3   OH222584   1.191   6.647   7.836
  342TIP3    H122585   1.281   6.623   7.814
  342TIP3    H222586   1.169   6.718   7.776
  343TIP3   OH222587   0.913   1.407   6.361
  343TIP3    H122588   0.854   1.352   6.412
  343TIP3    H222589   0.913   1.491   6.408
  344TIP3   OH222590   6.715   4.042   6.926
  344TIP3    H122591   6.694   4.126   6.886
  344TIP3    H222592   6.646   3.983   6.896
  345TIP3   OH222593   6.651   2.419   1.051
  345TIP3    H122594   6.671   2.438   0.960
  345TIP3    H222595   6.555   2.427   1.056
  346TIP3   OH222596   3.092   6.133   8.083
  346TIP3    H122597   3.151   6.183   8.139
  346TIP3    H222598   3.128   6.143   7.995
  347TIP3   OH222599   4.106   6.577   8.354
  347TIP3    H122600   4.019   6.539   8.343
  347TIP3    H222601   4.103   6.660   8.307
  348TIP3   OH222602   5.391   3.142   7.536
  348TIP3    H122603   5.380   3.074   7.602
  348TIP3    H222604   5.323   3.207   7.557
  349TIP3   OH222605   5.376   2.376   6.411
  349TIP3    H122606   5.363   2.431   6.333
  349TIP3    H222607   5.361   2.435   6.484
  350TIP3   OH222608   4.001   4.583   7.909
  350TIP3    H122609   4.040   4.575   7.996
  350TIP3    H222610   3.994   4.493   7.877
  351TIP3   OH222611   2.600   3.875   1.420
  351TIP3    H122612   2.695   3.876   1.430
  351TIP3    H222613   2.578   3.782   1.412
  352TIP3   OH222614   3.308   5.112   8.128
  352TIP3    H122615   3.372   5.136   8.061
  352TIP3    H222616   3.350   5.136   8.211
  353TIP3   OH222617   4.579   6.655   1.780
  353TIP3    H122618   4.531   6.580   1.744
  353TIP3    H222619   4.555   6.728   1.723
  354TIP3   OH222620   6.227   6.696   1.672
  354TIP3    H122621   6.300   6.647   1.711
  354TIP3    H222622   6.178   6.630   1.623
  355TIP3   OH222623   2.926   0.104   1.065
  355TIP3    H122624   2.834   0.100   1.040
  355TIP3    H222625   2.972   0.125   0.983
  356TIP3   OH222626   2.966   6.463   7.453
  356TIP3    H122627   2.969   6.535   7.390
  356TIP3    H222628   3.038   6.406   7.427
  357TIP3   OH222629   6.142   1.850   6.254
  357TIP3    H122630   6.203   1.838   6.326
  357TIP3    H222631   6.189   1.904   6.191
  358TIP3   OH222632   5.403   5.062   0.289
  358TIP3    H122633   5.432   5.153   0.291
  358TIP3    H222634   5.470   5.014   0.339
  359TIP3   OH222635   4.369   6.797   0.528
  359TIP3    H122636   4.416   6.769   0.449
  359TIP3    H222637   4.356   0.048   0.516
  360TIP3   OH222638   6.141   5.307   0.689
  360TIP3    H122639   6.067   5.251   0.665
  360TIP3    H222640   6.122   5.391   0.647
  361TIP3   OH222641   5.196   4.417   0.950
  361TIP3    H122642   5.151   4.460   1.023
  361TIP3    H222643   5.289   4.435   0.964
  362TIP3   OH222644   2.814   3.217   6.270
  362TIP3    H122645   2.761   3.281   6.317
  362TIP3    H222646   2.753   3.147   6.247
  363TIP3   OH222647   3.127   2.810   2.078
  363TIP3    H122648   3.059   2.769   2.024
  363TIP3    H222649   3.081   2.880   2.125
  364TIP3   OH222650   4.524   4.194   0.411
  364TIP3    H122651   4.556   4.131   0.475
  364TIP3    H222652   4.447   4.153   0.373
  365TIP3   OH222653   6.435   4.365   7.768
  365TIP3    H122654   6.460   4.273   7.777
  365TIP3    H222655   6.512   4.414   7.798
  366TIP3   OH222656   4.372   5.535   7.825
  366TIP3    H122657   4.295   5.571   7.869
  366TIP3    H222658   4.385   5.591   7.749
  367TIP3   OH222659   3.152   0.668   0.655
  367TIP3    H122660   3.231   0.675   0.709
  367TIP3    H222661   3.186   0.666   0.565
  368TIP3   OH222662   6.748   0.845   1.058
  368TIP3    H122663   6.740   0.934   1.092
  368TIP3    H222664   6.736   0.788   1.134
  369TIP3   OH222665   4.795   5.626   0.472
  369TIP3    H122666   4.714   5.613   0.521
  369TIP3    H222667   4.849   5.551   0.495
  370TIP3   OH222668   3.611   0.964   7.623
  370TIP3    H122669   3.521   0.929   7.623
  370TIP3    H222670   3.627   0.990   7.533
  371TIP3   OH222671   5.376   0.599   1.132
  371TIP3    H122672   5.378   0.548   1.213
  371TIP3    H222673   5.346   0.538   1.065
  372TIP3   OH222674   4.920   2.587   7.041
  372TIP3    H122675   4.903   2.494   7.024
  372TIP3    H222676   4.970   2.588   7.122
  373TIP3   OH222677   3.132   1.514   1.135
  373TIP3    H122678   3.190   1.591   1.139
  373TIP3    H222679   3.172   1.451   1.195
  374TIP3   OH222680   1.681   2.210   0.818
  374TIP3    H122681   1.606   2.180   0.766
  374TIP3    H222682   1.643   2.276   0.877
  375TIP3   OH222683   5.635   4.872   0.983
  375TIP3    H122684   5.654   4.795   0.930
  375TIP3    H222685   5.621   4.942   0.920
  376TIP3   OH222686   0.719   5.024   8.028
  376TIP3    H122687   0.810   5.043   8.005
  376TIP3    H222688   0.708   4.931   8.007
  377TIP3   OH222689   4.639   6.690   7.942
  377TIP3    H122690   4.607   6.600   7.941
  377TIP3    H222691   4.571   6.740   7.988
  378TIP3   OH222692   1.102   5.501   7.515
  378TIP3    H122693   1.139   5.585   7.542
  378TIP3    H222694   1.042   5.523   7.444
  379TIP3   OH222695   2.319   3.963   1.556
  379TIP3    H122696   2.412   3.984   1.554
  379TIP3    H222697   2.304   3.928   1.644
  380TIP3   OH222698   6.460   0.246   0.650
  380TIP3    H122699   6.527   0.181   0.670
  380TIP3    H222700   6.379   0.196   0.645
  381TIP3   OH222701   2.116   0.471   7.099
  381TIP3    H122702   2.186   0.406   7.101
  381TIP3    H222703   2.065   0.450   7.021
  382TIP3   OH222704   5.074   6.075   2.283
  382TIP3    H122705   5.045   6.085   2.374
  382TIP3    H222706   5.160   6.117   2.281
  383TIP3   OH222707   4.995   1.132   0.191
  383TIP3    H122708   5.028   1.190   0.122
  383TIP3    H222709   4.949   1.189   0.252
  384TIP3   OH222710   6.352   5.230   1.146
  384TIP3    H122711   6.387   5.239   1.057
  384TIP3    H222712   6.316   5.142   1.149
  385TIP3   OH222713   1.186   0.298   1.474
  385TIP3    H122714   1.263   0.298   1.531
  385TIP3    H222715   1.182   0.210   1.438
  386TIP3   OH222716   4.993   3.321   0.102
  386TIP3    H122717   4.912   3.364   0.076
  386TIP3    H222718   5.028   3.375   0.173
  387TIP3   OH222719   4.668   2.781   0.834
  387TIP3    H122720   4.684   2.857   0.778
  387TIP3    H222721   4.727   2.794   0.908
  388TIP3   OH222722   1.488   4.651   1.671
  388TIP3    H122723   1.518   4.562   1.689
  388TIP3    H222724   1.439   4.676   1.749
  389TIP3   OH222725   6.790   5.924   1.937
  389TIP3    H122726   6.749   5.871   1.869
  389TIP3    H222727   0.039   5.897   1.936
  390TIP3   OH222728   0.267   0.586   7.803
  390TIP3    H122729   0.249   0.509   7.856
  390TIP3    H222730   0.211   0.576   7.726
  391TIP3   OH222731   4.659   6.615   8.286
  391TIP3    H122732   4.743   6.586   8.321
  391TIP3    H222733   4.598   6.545   8.310
  392TIP3   OH222734   2.940   0.665   7.554
  392TIP3    H122735   3.013   0.613   7.518
  392TIP3    H222736   2.883   0.681   7.479
  393TIP3   OH222737   1.313   5.831   7.231
  393TIP3    H122738   1.219   5.833   7.249
  393TIP3    H222739   1.324   5.890   7.157
  394TIP3   OH222740   1.117   2.696   1.494
  394TIP3    H122741   1.158   2.774   1.531
  394TIP3    H222742   1.106   2.636   1.568
  395TIP3   OH222743   6.607   5.115   1.474
  395TIP3    H122744   6.561   5.104   1.557
  395TIP3    H222745   6.566   5.052   1.415
  396TIP3   OH222746   2.971   5.964   1.711
  396TIP3    H122747   2.911   5.997   1.778
  396TIP3    H222748   2.915   5.945   1.636
  397TIP3   OH222749   1.114   4.943   7.573
  397TIP3    H122750   1.046   4.920   7.636
  397TIP3    H222751   1.066   4.964   7.493
  398TIP3   OH222752   2.661   2.475   0.051
  398TIP3    H122753   2.605   2.449   0.124
  398TIP3    H222754   2.719   2.400   0.037
  399TIP3   OH222755   5.064   3.643   7.626
  399TIP3    H122756   5.017   3.698   7.563
  399TIP3    H222757   5.022   3.557   7.619
  400TIP3   OH222758   4.948   0.458   0.293
  400TIP3    H122759   5.040   0.463   0.267
  400TIP3    H222760   4.905   0.408   0.223
  401TIP3   OH222761   4.596   5.574   7.682
  401TIP3    H122762   4.678   5.577   7.634
  401TIP3    H222763   4.580   5.665   7.708
  402TIP3   OH222764   3.161   1.569   7.375
  402TIP3    H122765   3.191   1.491   7.329
  402TIP3    H222766   3.137   1.538   7.462
  403TIP3   OH222767   3.956   0.885   7.952
  403TIP3    H122768   3.879   0.843   7.915
  403TIP3    H222769   3.956   0.857   8.044
  404TIP3   OH222770   5.030   1.980   7.657
  404TIP3    H122771   4.943   2.015   7.676
  404TIP3    H222772   5.082   2.057   7.634
  405TIP3   OH222773   3.782   4.731   8.104
  405TIP3    H122774   3.860   4.696   8.147
  405TIP3    H222775   3.765   4.671   8.032
  406TIP3   OH222776   1.702   6.325   0.762
  406TIP3    H122777   1.716   6.406   0.812
  406TIP3    H222778   1.650   6.270   0.819
  407TIP3   OH222779   3.672   0.874   0.421
  407TIP3    H122780   3.741   0.919   0.471
  407TIP3    H222781   3.718   0.806   0.372
  408TIP3   OH222782   6.088   5.730   7.642
  408TIP3    H122783   6.158   5.742   7.578
  408TIP3    H222784   6.016   5.785   7.610
  409TIP3   OH222785   3.074   3.371   7.742
  409TIP3    H122786   3.027   3.354   7.824
  409TIP3    H222787   3.137   3.439   7.765
  410TIP3   OH222788   1.006   2.931   8.325
  410TIP3    H122789   1.082   2.879   8.300
  410TIP3    H222790   0.931   2.873   8.311
  411TIP3   OH222791   2.334   3.027   1.251
  411TIP3    H122792   2.345   2.992   1.163
  411TIP3    H222793   2.400   2.981   1.303
  412TIP3   OH222794   6.750   6.680   2.167
  412TIP3    H122795   6.749   6.608   2.104
  412TIP3    H222796   6.658   6.694   2.189
  413TIP3   OH222797   6.450   5.463   0.586
  413TIP3    H122798   6.415   5.514   0.513
  413TIP3    H222799   6.540   5.493   0.595
  414TIP3   OH222800   6.169   4.814   0.800
  414TIP3    H122801   6.236   4.825   0.866
  414TIP3    H222802   6.094   4.863   0.834
  415TIP3   OH222803   1.259   2.574   7.089
  415TIP3    H122804   1.257   2.564   6.994
  415TIP3    H222805   1.243   2.667   7.104
  416TIP3   OH222806   4.478   0.522   7.182
  416TIP3    H122807   4.506   0.432   7.195
  416TIP3    H222808   4.548   0.562   7.131
  417TIP3   OH222809   1.896   6.040   2.245
  417TIP3    H122810   1.959   6.077   2.184
  417TIP3    H222811   1.851   6.115   2.283
  418TIP3   OH222812   1.554   5.730   0.578
  418TIP3    H122813   1.602   5.790   0.521
  418TIP3    H222814   1.617   5.703   0.644
  419TIP3   OH222815   3.724   0.435   0.062
  419TIP3    H122816   3.768   0.389   8.704
  419TIP3    H222817   3.651   0.378   0.086
  420TIP3   OH222818   1.013   6.333   0.044
  420TIP3    H122819   1.107   6.347   0.034
  420TIP3    H222820   1.005   6.260   0.105
  421TIP3   OH222821   5.743   4.536   1.697
  421TIP3    H122822   5.769   4.467   1.758
  421TIP3    H222823   5.647   4.540   1.704
  422TIP3   OH222824   4.208   4.417   1.853
  422TIP3    H122825   4.193   4.432   1.946
  422TIP3    H222826   4.127   4.377   1.821
  423TIP3   OH222827   6.804   1.136   0.534
  423TIP3    H122828   6.838   1.202   0.596
  423TIP3    H222829   0.026   1.066   0.537
  424TIP3   OH222830   4.018   2.056   0.983
  424TIP3    H122831   4.037   2.056   1.076
  424TIP3    H222832   4.099   2.026   0.941
  425TIP3   OH222833   2.735   4.118   1.622
  425TIP3    H122834   2.780   4.144   1.703
  425TIP3    H222835   2.771   4.032   1.601
  426TIP3   OH222836   4.794   4.381   7.421
  426TIP3    H122837   4.847   4.313   7.378
  426TIP3    H222838   4.715   4.388   7.367
  427TIP3   OH222839   6.407   6.477   1.093
  427TIP3    H122840   6.460   6.427   1.154
  427TIP3    H222841   6.470   6.531   1.045
  428TIP3   OH222842   5.352   3.071   0.855
  428TIP3    H122843   5.418   3.122   0.809
  428TIP3    H222844   5.336   3.119   0.936
  429TIP3   OH222845   5.823   2.408   7.771
  429TIP3    H122846   5.896   2.471   7.766
  429TIP3    H222847   5.854   2.332   7.723
  430TIP3   OH222848   2.824   5.066   2.148
  430TIP3    H122849   2.788   5.149   2.119
  430TIP3    H222850   2.919   5.078   2.144
  431TIP3   OH222851   5.929   3.311   7.157
  431TIP3    H122852   5.916   3.405   7.160
  431TIP3    H222853   6.000   3.299   7.094
  432TIP3   OH222854   6.185   6.329   0.634
  432TIP3    H122855   6.267   6.373   0.655
  432TIP3    H222856   6.185   6.251   0.689
  433TIP3   OH222857   6.637   3.604   6.713
  433TIP3    H122858   6.670   3.517   6.690
  433TIP3    H222859   6.601   3.594   6.801
  434TIP3   OH222860   6.051   4.434   0.520
  434TIP3    H122861   6.120   4.396   0.466
  434TIP3    H222862   6.088   4.517   0.550
  435TIP3   OH222863   3.774   1.570   2.146
  435TIP3    H122864   3.851   1.581   2.202
  435TIP3    H222865   3.789   1.488   2.101
  436TIP3   OH222866   0.500   0.309   8.105
  436TIP3    H122867   0.563   0.377   8.081
  436TIP3    H222868   0.534   0.274   8.188
  437TIP3   OH222869   6.314   3.511   2.332
  437TIP3    H122870   6.288   3.571   2.261
  437TIP3    H222871   6.241   3.513   2.393
  438TIP3   OH222872   6.646   1.649   2.628
  438TIP3    H122873   6.700   1.699   2.566
  438TIP3    H222874   6.606   1.715   2.684
  439TIP3   OH222875   3.698   2.422   1.483
  439TIP3    H122876   3.770   2.471   1.444
  439TIP3    H222877   3.662   2.480   1.550
  440TIP3   OH222878   3.552   2.196   2.279
  440TIP3    H122879   3.626   2.241   2.239
  440TIP3    H222880   3.585   2.164   2.363
  441TIP3   OH222881   0.172   1.560   7.278
  441TIP3    H122882   0.240   1.497   7.302
  441TIP3    H222883   0.197   1.591   7.191
  442TIP3   OH222884   1.832   6.701   0.789
  442TIP3    H122885   1.836   6.779   0.845
  442TIP3    H222886   1.821   6.628   0.850
  443TIP3   OH222887   1.484   5.823   7.567
  443TIP3    H122888   1.522   5.907   7.593
  443TIP3    H222889   1.537   5.794   7.493
  444TIP3   OH222890   4.333   6.729   8.669
  444TIP3    H122891   4.375   6.799   0.005
  444TIP3    H222892   4.281   6.774   8.602
  445TIP3   OH222893   0.777   3.226   2.134
  445TIP3    H122894   0.828   3.184   2.065
  445TIP3    H222895   0.715   3.283   2.087
  446TIP3   OH222896   5.494   3.734   0.120
  446TIP3    H122897   5.430   3.685   0.173
  446TIP3    H222898   5.527   3.669   0.058
  447TIP3   OH222899   6.077   0.687   0.784
  447TIP3    H122900   6.149   0.725   0.834
  447TIP3    H222901   6.047   0.760   0.729
  448TIP3   OH222902   3.813   4.869   0.884
  448TIP3    H122903   3.886   4.915   0.844
  448TIP3    H222904   3.841   4.855   0.975
  449TIP3   OH222905   0.051   4.226   7.885
  449TIP3    H122906   0.082   4.262   7.968
  449TIP3    H222907   0.129   4.219   7.831
  450TIP3   OH222908   6.030   4.106   8.647
  450TIP3    H122909   6.107   4.056   8.675
  450TIP3    H222910   5.962   4.080   8.709
  451TIP3   OH222911   1.547   5.025   0.033
  451TIP3    H122912   1.620   4.973   8.712
  451TIP3    H222913   1.590   5.096   0.081
  452TIP3   OH222914   2.243   4.794   1.225
  452TIP3    H122915   2.224   4.705   1.254
  452TIP3    H222916   2.322   4.819   1.273
  453TIP3   OH222917   6.427   0.555   0.332
  453TIP3    H122918   6.387   0.468   0.323
  453TIP3    H222919   6.518   0.542   0.303
  454TIP3   OH222920   3.840   5.671   1.736
  454TIP3    H122921   3.876   5.698   1.821
  454TIP3    H222922   3.869   5.739   1.675
  455TIP3   OH222923   0.528   0.230   6.492
  455TIP3    H122924   0.559   0.257   6.579
  455TIP3    H222925   0.588   0.160   6.466
  456TIP3   OH222926   6.044   4.515   1.176
  456TIP3    H122927   5.987   4.575   1.129
  456TIP3    H222928   5.986   4.469   1.237
  457TIP3   OH222929   2.255   0.938   8.428
  457TIP3    H122930   2.268   0.852   8.387
  457TIP3    H222931   2.237   0.997   8.355
  458TIP3   OH222932   0.825   2.289   8.602
  458TIP3    H122933   0.739   2.249   8.586
  458TIP3    H222934   0.876   2.267   8.525
  459TIP3   OH222935   0.603   4.119   0.948
  459TIP3    H122936   0.634   4.082   1.030
  459TIP3    H222937   0.508   4.110   0.952
  460TIP3   OH222938   4.531   3.103   0.141
  460TIP3    H122939   4.527   3.058   0.225
  460TIP3    H222940   4.502   3.192   0.160
  461TIP3   OH222941   6.602   4.861   1.325
  461TIP3    H122942   6.568   4.799   1.260
  461TIP3    H222943   6.614   4.809   1.404
  462TIP3   OH222944   5.260   6.128   1.374
  462TIP3    H122945   5.195   6.179   1.423
  462TIP3    H222946   5.248   6.038   1.405
  463TIP3   OH222947   0.364   4.087   8.488
  463TIP3    H122948   0.367   4.182   8.501
  463TIP3    H222949   0.294   4.074   8.424
  464TIP3   OH222950   5.026   2.429   6.802
  464TIP3    H122951   5.061   2.344   6.776
  464TIP3    H222952   5.064   2.446   6.888
  465TIP3   OH222953   3.224   1.241   0.628
  465TIP3    H122954   3.277   1.177   0.582
  465TIP3    H222955   3.134   1.209   0.618
  466TIP3   OH222956   2.065   0.790   8.581
  466TIP3    H122957   2.063   0.742   8.498
  466TIP3    H222958   2.130   0.859   8.568
  467TIP3   OH222959   4.986   0.441   2.079
  467TIP3    H122960   5.056   0.449   2.144
  467TIP3    H222961   4.910   0.413   2.129
  468TIP3   OH222962   5.347   2.109   8.646
  468TIP3    H122963   5.324   2.131   0.023
  468TIP3    H222964   5.439   2.135   8.638
  469TIP3   OH222965   2.912   4.528   0.009
  469TIP3    H122966   2.919   4.489   8.635
  469TIP3    H222967   2.845   4.596   8.713
  470TIP3   OH222968   5.155   5.521   1.488
  470TIP3    H122969   5.224   5.511   1.422
  470TIP3    H222970   5.142   5.432   1.522
  471TIP3   OH222971   6.402   3.062   2.260
  471TIP3    H122972   6.344   3.026   2.327
  471TIP3    H222973   6.431   2.985   2.210
  472TIP3   OH222974   5.590   1.808   0.322
  472TIP3    H122975   5.608   1.873   0.254
  472TIP3    H222976   5.675   1.791   0.363
  473TIP3   OH222977   2.988   2.842   8.349
  473TIP3    H122978   3.072   2.889   8.350
  473TIP3    H222979   2.962   2.838   8.441
  474TIP3   OH222980   0.781   0.828   0.278
  474TIP3    H122981   0.858   0.788   0.238
  474TIP3    H222982   0.707   0.788   0.233
  475TIP3   OH222983   5.459   0.501   2.037
  475TIP3    H122984   5.486   0.459   2.119
  475TIP3    H222985   5.405   0.575   2.064
  476TIP3   OH222986   5.613   3.524   6.043
  476TIP3    H122987   5.556   3.504   6.118
  476TIP3    H222988   5.676   3.452   6.040
  477TIP3   OH222989   0.919   2.458   7.429
  477TIP3    H122990   0.993   2.474   7.488
  477TIP3    H222991   0.909   2.540   7.382
  478TIP3   OH222992   1.345   6.416   8.058
  478TIP3    H122993   1.371   6.437   8.148
  478TIP3    H222994   1.272   6.475   8.040
  479TIP3   OH222995   1.193   4.179   0.505
  479TIP3    H122996   1.195   4.123   0.583
  479TIP3    H222997   1.242   4.130   0.439
  480TIP3   OH222998   2.214   2.074   1.255
  480TIP3    H122999   2.236   2.132   1.329
  480TIP3    H223000   2.119   2.083   1.245
  481TIP3   OH223001   5.710   0.296   1.754
  481TIP3    H123002   5.674   0.365   1.808
  481TIP3    H223003   5.805   0.305   1.762
  482TIP3   OH223004   2.199   3.709   7.197
  482TIP3    H123005   2.122   3.711   7.141
  482TIP3    H223006   2.236   3.797   7.193
  483TIP3   OH223007   5.334   5.456   7.843
  483TIP3    H123008   5.323   5.520   7.773
  483TIP3    H223009   5.291   5.495   7.918
  484TIP3   OH223010   6.289   1.369   0.435
  484TIP3    H123011   6.246   1.302   0.381
  484TIP3    H223012   6.374   1.330   0.457
  485TIP3   OH223013   5.383   1.313   0.448
  485TIP3    H123014   5.345   1.302   0.535
  485TIP3    H223015   5.427   1.398   0.452
  486TIP3   OH223016   5.275   0.500   7.704
  486TIP3    H123017   5.370   0.491   7.699
  486TIP3    H223018   5.259   0.528   7.794
  487TIP3   OH223019   1.374   2.189   7.812
  487TIP3    H123020   1.324   2.126   7.760
  487TIP3    H223021   1.418   2.244   7.747
  488TIP3   OH223022   3.134   4.515   7.339
  488TIP3    H123023   3.204   4.574   7.366
  488TIP3    H223024   3.132   4.446   7.406
  489TIP3   OH223025   4.683   2.096   8.426
  489TIP3    H123026   4.636   2.038   8.486
  489TIP3    H223027   4.741   2.146   8.482
  490TIP3   OH223028   5.728   6.552   0.615
  490TIP3    H123029   5.650   6.538   0.670
  490TIP3    H223030   5.780   6.616   0.664
  491TIP3   OH223031   1.671   5.979   0.750
  491TIP3    H123032   1.586   5.991   0.794
  491TIP3    H223033   1.667   6.038   0.675
  492TIP3   OH223034   4.833   3.064   2.563
  492TIP3    H123035   4.893   3.100   2.629
  492TIP3    H223036   4.788   3.140   2.528
  493TIP3   OH223037   2.108   6.522   2.177
  493TIP3    H123038   2.186   6.469   2.187
  493TIP3    H223039   2.125   6.601   2.229
  494TIP3   OH223040   0.671   0.884   1.344
  494TIP3    H123041   0.600   0.854   1.401
  494TIP3    H223042   0.637   0.872   1.255
  495TIP3   OH223043   1.679   6.566   1.728
  495TIP3    H123044   1.703   6.473   1.722
  495TIP3    H223045   1.587   6.568   1.703
  496TIP3   OH223046   5.234   4.891   8.104
  496TIP3    H123047   5.220   4.797   8.097
  496TIP3    H223048   5.325   4.904   8.077
  497TIP3   OH223049   1.520   2.178   8.644
  497TIP3    H123050   1.448   2.175   8.707
  497TIP3    H223051   1.527   2.271   8.620
  498TIP3   OH223052   2.740   2.069   6.904
  498TIP3    H123053   2.691   2.145   6.935
  498TIP3    H223054   2.691   1.993   6.937
  499TIP3   OH223055   2.463   4.083   0.749
  499TIP3    H123056   2.523   4.009   0.739
  499TIP3    H223057   2.477   4.136   0.670
  500TIP3   OH223058   5.353   1.259   8.080
  500TIP3    H123059   5.270   1.266   8.033
  500TIP3    H223060   5.419   1.244   8.012
  501TIP3   OH223061   5.179   1.670   7.603
  501TIP3    H123062   5.266   1.651   7.567
  501TIP3    H223063   5.176   1.765   7.609
  502TIP3   OH223064   5.064   0.686   0.052
  502TIP3    H123065   5.044   0.734   0.132
  502TIP3    H223066   5.058   0.752   8.696
  503TIP3   OH223067   1.107   0.971   7.766
  503TIP3    H123068   1.048   1.035   7.727
  503TIP3    H223069   1.050   0.915   7.819
  504TIP3   OH223070   6.514   6.685   0.496
  504TIP3    H123071   6.499   6.698   0.590
  504TIP3    H223072   6.578   6.752   0.472
  505TIP3   OH223073   2.730   6.156   1.605
  505TIP3    H123074   2.685   6.235   1.633
  505TIP3    H223075   2.770   6.179   1.522
  506TIP3   OH223076   0.748   4.687   8.709
  506TIP3    H123077   0.696   4.609   0.013
  506TIP3    H223078   0.799   4.665   8.631
  507TIP3   OH223079   3.770   3.827   6.515
  507TIP3    H123080   3.811   3.886   6.578
  507TIP3    H223081   3.679   3.856   6.511
  508TIP3   OH223082   1.656   2.133   1.871
  508TIP3    H123083   1.583   2.071   1.870
  508TIP3    H223084   1.632   2.197   1.938
  509TIP3   OH223085   2.696   1.115   7.274
  509TIP3    H123086   2.685   1.037   7.218
  509TIP3    H223087   2.682   1.083   7.363
  510TIP3   OH223088   2.088   1.878   2.167
  510TIP3    H123089   2.180   1.904   2.169
  510TIP3    H223090   2.085   1.799   2.222
  511TIP3   OH223091   5.315   1.751   8.115
  511TIP3    H123092   5.392   1.717   8.069
  511TIP3    H223093   5.272   1.673   8.151
  512TIP3   OH223094   2.038   4.628   1.654
  512TIP3    H123095   2.086   4.550   1.683
  512TIP3    H223096   1.952   4.618   1.695
  513TIP3   OH223097   3.731   1.466   0.795
  513TIP3    H123098   3.795   1.536   0.785
  513TIP3    H223099   3.765   1.396   0.738
  514TIP3   OH223100   0.277   4.429   0.518
  514TIP3    H123101   0.303   4.358   0.459
  514TIP3    H223102   0.247   4.385   0.597
  515TIP3   OH223103   6.579   6.457   2.216
  515TIP3    H123104   6.544   6.545   2.204
  515TIP3    H223105   6.596   6.450   2.310
  516TIP3   OH223106   3.866   5.815   0.713
  516TIP3    H123107   3.888   5.722   0.704
  516TIP3    H223108   3.909   5.843   0.794
  517TIP3   OH223109   0.408   0.404   2.030
  517TIP3    H123110   0.338   0.387   1.967
  517TIP3    H223111   0.372   0.375   2.114
  518TIP3   OH223112   0.928   5.510   0.671
  518TIP3    H123113   1.000   5.451   0.695
  518TIP3    H223114   0.968   5.576   0.615
  519TIP3   OH223115   4.216   0.792   0.751
  519TIP3    H123116   4.193   0.701   0.771
  519TIP3    H223117   4.147   0.821   0.691
  520TIP3   OH223118   2.179   3.024   8.087
  520TIP3    H123119   2.247   3.053   8.147
  520TIP3    H223120   2.185   2.928   8.088
  521TIP3   OH223121   2.019   0.447   1.260
  521TIP3    H123122   1.971   0.448   1.342
  521TIP3    H223123   1.999   0.532   1.220
  522TIP3   OH223124   0.166   3.475   7.737
  522TIP3    H123125   0.141   3.507   7.651
  522TIP3    H223126   0.247   3.426   7.722
  523TIP3   OH223127   3.069   1.330   0.953
  523TIP3    H123128   3.162   1.314   0.934
  523TIP3    H223129   3.070   1.394   1.023
  524TIP3   OH223130   6.358   5.224   7.107
  524TIP3    H123131   6.423   5.174   7.058
  524TIP3    H223132   6.375   5.202   7.199
  525TIP3   OH223133   0.214   3.883   1.566
  525TIP3    H123134   0.285   3.899   1.504
  525TIP3    H223135   0.259   3.866   1.649
  526TIP3   OH223136   6.536   1.407   0.227
  526TIP3    H123137   6.545   1.364   0.312
  526TIP3    H223138   6.624   1.403   0.189
  527TIP3   OH223139   1.862   4.798   0.459
  527TIP3    H123140   1.909   4.731   0.508
  527TIP3    H223141   1.896   4.791   0.370
  528TIP3   OH223142   4.005   5.934   2.177
  528TIP3    H123143   3.957   6.004   2.221
  528TIP3    H223144   4.096   5.961   2.182
  529TIP3   OH223145   5.317   4.827   8.436
  529TIP3    H123146   5.284   4.749   8.480
  529TIP3    H223147   5.406   4.804   8.409
  530TIP3   OH223148   2.736   0.763   8.408
  530TIP3    H123149   2.787   0.696   8.454
  530TIP3    H223150   2.645   0.741   8.426
  531TIP3   OH223151   5.210   0.042   2.423
  531TIP3    H123152   5.178   0.132   2.428
  531TIP3    H223153   5.154   6.835   2.482
  532TIP3   OH223154   4.453   4.999   8.338
  532TIP3    H123155   4.368   4.960   8.357
  532TIP3    H223156   4.516   4.932   8.362
  533TIP3   OH223157   2.345   2.085   8.362
  533TIP3    H123158   2.383   2.169   8.334
  533TIP3    H223159   2.389   2.020   8.306
  534TIP3   OH223160   4.367   4.140   2.087
  534TIP3    H123161   4.274   4.128   2.107
  534TIP3    H223162   4.390   4.063   2.035
  535TIP3   OH223163   4.901   1.322   7.793
  535TIP3    H123164   4.879   1.414   7.811
  535TIP3    H223165   4.984   1.327   7.746
  536TIP3   OH223166   0.016   6.651   8.600
  536TIP3    H123167   6.798   6.607   8.659
  536TIP3    H223168   0.057   6.581   8.550
  537TIP3   OH223169   6.479   3.504   0.342
  537TIP3    H123170   6.556   3.448   0.331
  537TIP3    H223171   6.436   3.503   0.257
  538TIP3   OH223172   1.494   3.472   6.614
  538TIP3    H123173   1.403   3.488   6.589
  538TIP3    H223174   1.500   3.376   6.621
  539TIP3   OH223175   2.630   6.476   1.603
  539TIP3    H123176   2.596   6.452   1.689
  539TIP3    H223177   2.557   6.522   1.560
  540TIP3   OH223178   1.360   6.590   8.314
  540TIP3    H123179   1.371   6.644   8.235
  540TIP3    H223180   1.448   6.560   8.335
  541TIP3   OH223181   2.319   2.787   6.531
  541TIP3    H123182   2.318   2.862   6.472
  541TIP3    H223183   2.228   2.777   6.559
  542TIP3   OH223184   2.027   4.884   1.731
  542TIP3    H123185   2.115   4.901   1.697
  542TIP3    H223186   2.010   4.792   1.710
  543TIP3   OH223187   0.591   3.992   1.871
  543TIP3    H123188   0.530   3.922   1.897
  543TIP3    H223189   0.619   4.031   1.953
  544TIP3   OH223190   5.481   5.128   1.768
  544TIP3    H123191   5.391   5.157   1.780
  544TIP3    H223192   5.530   5.207   1.742
  545TIP3   OH223193   4.338   5.052   1.031
  545TIP3    H123194   4.314   5.022   1.118
  545TIP3    H223195   4.268   5.112   1.006
  546TIP3   OH223196   6.604   4.311   6.888
  546TIP3    H123197   6.534   4.352   6.939
  546TIP3    H223198   6.581   4.329   6.797
  547TIP3   OH223199   0.452   3.109   1.577
  547TIP3    H123200   0.386   3.145   1.517
  547TIP3    H223201   0.514   3.181   1.590
  548TIP3   OH223202   4.707   4.745   6.794
  548TIP3    H123203   4.774   4.799   6.753
  548TIP3    H223204   4.744   4.657   6.794
  549TIP3   OH223205   2.974   2.368   1.914
  549TIP3    H123206   3.011   2.290   1.956
  549TIP3    H223207   2.949   2.425   1.986
  550TIP3   OH223208   2.182   5.697   0.087
  550TIP3    H123209   2.265   5.739   0.108
  550TIP3    H223210   2.148   5.667   0.171
  551TIP3   OH223211   0.763   0.646   7.256
  551TIP3    H123212   0.823   0.585   7.300
  551TIP3    H223213   0.794   0.648   7.166
  552TIP3   OH223214   0.931   0.257   0.441
  552TIP3    H123215   0.945   0.295   0.355
  552TIP3    H223216   0.987   0.308   0.499
  553TIP3   OH223217   3.910   2.502   1.320
  553TIP3    H123218   3.931   2.595   1.312
  553TIP3    H223219   3.883   2.476   1.232
  554TIP3   OH223220   6.449   0.762   8.036
  554TIP3    H123221   6.454   0.854   8.062
  554TIP3    H223222   6.497   0.715   8.104
  555TIP3   OH223223   5.211   1.365   1.254
  555TIP3    H123224   5.235   1.288   1.307
  555TIP3    H223225   5.184   1.431   1.319
  556TIP3   OH223226   5.028   5.701   1.637
  556TIP3    H123227   5.099   5.676   1.696
  556TIP3    H223228   5.038   5.643   1.562
  557TIP3   OH223229   1.352   2.702   1.987
  557TIP3    H123230   1.349   2.617   2.030
  557TIP3    H223231   1.335   2.682   1.895
  558TIP3   OH223232   2.753   2.383   1.128
  558TIP3    H123233   2.820   2.321   1.098
  558TIP3    H223234   2.707   2.408   1.047
  559TIP3   OH223235   3.040   0.474   6.371
  559TIP3    H123236   3.023   0.523   6.452
  559TIP3    H223237   2.973   0.505   6.310
  560TIP3   OH223238   5.410   6.377   6.673
  560TIP3    H123239   5.375   6.451   6.623
  560TIP3    H223240   5.348   6.364   6.744
  561TIP3   OH223241   6.635   5.219   8.673
  561TIP3    H123242   6.574   5.252   0.026
  561TIP3    H223243   6.666   5.136   8.708
  562TIP3   OH223244   0.658   1.410   1.741
  562TIP3    H123245   0.648   1.316   1.758
  562TIP3    H223246   0.677   1.447   1.827
  563TIP3   OH223247   1.384   5.278   7.024
  563TIP3    H123248   1.345   5.318   6.946
  563TIP3    H223249   1.464   5.237   6.991
  564TIP3   OH223250   6.790   4.363   7.123
  564TIP3    H123251   6.705   4.343   7.083
  564TIP3    H223252   6.821   4.440   7.076
  565TIP3   OH223253   4.485   3.627   8.583
  565TIP3    H123254   4.470   3.536   8.608
  565TIP3    H223255   4.571   3.626   8.541
  566TIP3   OH223256   6.399   3.678   1.198
  566TIP3    H123257   6.412   3.673   1.103
  566TIP3    H223258   6.483   3.709   1.232
  567TIP3   OH223259   1.516   0.069   2.347
  567TIP3    H123260   1.547   0.005   2.282
  567TIP3    H223261   1.488   0.144   2.295
  568TIP3   OH223262   6.514   4.798   6.909
  568TIP3    H123263   6.468   4.880   6.926
  568TIP3    H223264   6.546   4.806   6.819
  569TIP3   OH223265   1.027   3.914   7.463
  569TIP3    H123266   1.006   3.978   7.395
  569TIP3    H223267   1.020   3.829   7.419
  570TIP3   OH223268   1.538   6.777   8.582
  570TIP3    H123269   1.573   6.689   8.567
  570TIP3    H223270   1.455   6.762   8.627
  571TIP3   OH223271   1.297   4.311   0.161
  571TIP3    H123272   1.337   4.229   0.191
  571TIP3    H223273   1.212   4.314   0.206
  572TIP3   OH223274   4.727   1.947   8.214
  572TIP3    H123275   4.723   2.003   8.291
  572TIP3    H223276   4.787   1.992   8.154
  573TIP3   OH223277   3.574   4.668   0.719
  573TIP3    H123278   3.555   4.752   0.762
  573TIP3    H223279   3.617   4.615   0.786
  574TIP3   OH223280   6.090   5.567   0.934
  574TIP3    H123281   6.113   5.620   0.858
  574TIP3    H223282   5.994   5.569   0.936
  575TIP3   OH223283   5.120   4.385   1.774
  575TIP3    H123284   5.157   4.309   1.729
  575TIP3    H223285   5.038   4.354   1.811
  576TIP3   OH223286   6.485   2.558   0.403
  576TIP3    H123287   6.544   2.631   0.381
  576TIP3    H223288   6.529   2.481   0.368
  577TIP3   OH223289   4.419   5.710   8.704
  577TIP3    H123290   4.496   5.740   8.655
  577TIP3    H223291   4.380   5.791   0.025
  578TIP3   OH223292   2.010   5.993   7.220
  578TIP3    H123293   1.933   5.936   7.212
  578TIP3    H223294   2.081   5.936   7.248
  579TIP3   OH223295   2.859   3.916   1.496
  579TIP3    H123296   2.880   3.930   1.403
  579TIP3    H223297   2.913   3.841   1.521
  580TIP3   OH223298   4.197   0.838   2.648
  580TIP3    H123299   4.275   0.878   2.611
  580TIP3    H223300   4.126   0.899   2.628
  581TIP3   OH223301   6.095   5.338   1.574
  581TIP3    H123302   6.110   5.425   1.536
  581TIP3    H223303   6.165   5.328   1.638
  582TIP3   OH223304   6.647   6.303   6.979
  582TIP3    H123305   6.633   6.287   6.886
  582TIP3    H223306   6.561   6.330   7.012
  583TIP3   OH223307   5.955   3.058   7.257
  583TIP3    H123308   6.034   3.103   7.285
  583TIP3    H223309   5.894   3.128   7.233
  584TIP3   OH223310   5.771   2.390   0.061
  584TIP3    H123311   5.831   2.452   0.020
  584TIP3    H223312   5.798   2.387   0.153
  585TIP3   OH223313   6.657   4.296   6.575
  585TIP3    H123314   6.703   4.236   6.633
  585TIP3    H223315   6.680   4.266   6.487
  586TIP3   OH223316   0.002   1.655   8.664
  586TIP3    H123317   0.001   1.748   8.686
  586TIP3    H223318   0.055   1.614   0.019
  587TIP3   OH223319   2.927   0.497   0.495
  587TIP3    H123320   2.990   0.503   0.567
  587TIP3    H223321   2.884   0.413   0.508
  588TIP3   OH223322   4.172   5.626   7.105
  588TIP3    H123323   4.184   5.718   7.079
  588TIP3    H223324   4.089   5.625   7.152
  589TIP3   OH223325   5.005   2.084   1.556
  589TIP3    H123326   4.964   2.006   1.518
  589TIP3    H223327   4.953   2.157   1.523
  590TIP3   OH223328   0.988   5.264   8.373
  590TIP3    H123329   0.986   5.325   8.299
  590TIP3    H223330   0.910   5.285   8.424
  591TIP3   OH223331   1.383   5.527   7.124
  591TIP3    H123332   1.380   5.439   7.086
  591TIP3    H223333   1.293   5.543   7.154
  592TIP3   OH223334   1.991   5.516   3.085
  592TIP3    H123335   2.078   5.531   3.123
  592TIP3    H223336   1.989   5.572   3.008
  593TIP3   OH223337   6.582   2.137   1.813
  593TIP3    H123338   6.536   2.118   1.895
  593TIP3    H223339   6.515   2.126   1.745
  594TIP3   OH223340   1.253   4.124   1.272
  594TIP3    H123341   1.231   4.217   1.276
  594TIP3    H223342   1.345   4.121   1.245
  595TIP3   OH223343   0.535   5.869   6.817
  595TIP3    H123344   0.471   5.854   6.747
  595TIP3    H223345   0.530   5.791   6.872
  596TIP3   OH223346   3.954   5.625   0.454
  596TIP3    H123347   3.977   5.563   0.385
  596TIP3    H223348   4.034   5.675   0.470
  597TIP3   OH223349   4.067   1.566   7.761
  597TIP3    H123350   4.132   1.609   7.707
  597TIP3    H223351   3.983   1.586   7.719
  598TIP3   OH223352   6.669   5.982   7.670
  598TIP3    H123353   6.642   6.059   7.619
  598TIP3    H223354   6.662   6.010   7.761
  599TIP3   OH223355   4.874   1.347   7.243
  599TIP3    H123356   4.881   1.413   7.174
  599TIP3    H223357   4.784   1.315   7.236
  600TIP3   OH223358   3.533   6.314   1.396
  600TIP3    H123359   3.440   6.331   1.412
  600TIP3    H223360   3.568   6.399   1.371
  601TIP3   OH223361   6.169   4.989   1.210
  601TIP3    H123362   6.170   5.023   1.299
  601TIP3    H223363   6.194   4.897   1.219
  602TIP3   OH223364   2.655   5.050   6.471
  602TIP3    H123365   2.737   5.040   6.423
  602TIP3    H223366   2.596   5.093   6.410
  603TIP3   OH223367   2.110   3.388   2.143
  603TIP3    H123368   2.170   3.385   2.217
  603TIP3    H223369   2.028   3.421   2.179
  604TIP3   OH223370   1.992   3.040   0.307
  604TIP3    H123371   1.968   3.115   0.362
  604TIP3    H223372   1.908   3.001   0.282
  605TIP3   OH223373   1.160   2.155   8.566
  605TIP3    H123374   1.119   2.203   8.638
  605TIP3    H223375   1.104   2.174   8.490
  606TIP3   OH223376   1.142   0.321   6.314
  606TIP3    H123377   1.136   0.232   6.347
  606TIP3    H223378   1.055   0.358   6.328
  607TIP3   OH223379   0.181   4.634   7.340
  607TIP3    H123380   0.101   4.646   7.391
  607TIP3    H223381   0.154   4.647   7.249
  608TIP3   OH223382   0.123   4.751   6.313
  608TIP3    H123383   0.148   4.841   6.295
  608TIP3    H223384   0.038   4.740   6.269
  609TIP3   OH223385   4.231   1.655   7.979
  609TIP3    H123386   4.314   1.650   7.930
  609TIP3    H223387   4.166   1.619   7.919
  610TIP3   OH223388   3.414   3.274   0.966
  610TIP3    H123389   3.353   3.202   0.950
  610TIP3    H223390   3.495   3.247   0.922
  611TIP3   OH223391   4.494   6.366   1.366
  611TIP3    H123392   4.489   6.279   1.326
  611TIP3    H223393   4.434   6.361   1.441
  612TIP3   OH223394   0.946   1.982   0.542
  612TIP3    H123395   0.993   1.943   0.468
  612TIP3    H223396   0.891   1.911   0.575
  613TIP3   OH223397   2.640   5.039   1.511
  613TIP3    H123398   2.571   4.988   1.468
  613TIP3    H223399   2.598   5.122   1.535
  614TIP3   OH223400   1.990   2.388   1.580
  614TIP3    H123401   1.971   2.481   1.590
  614TIP3    H223402   2.004   2.356   1.669
  615TIP3   OH223403   6.070   1.064   1.092
  615TIP3    H123404   5.998   1.126   1.103
  615TIP3    H223405   6.053   0.997   1.159
  616TIP3   OH223406   4.524   0.822   1.782
  616TIP3    H123407   4.592   0.793   1.722
  616TIP3    H223408   4.488   0.741   1.819
  617TIP3   OH223409   3.331   4.220   1.792
  617TIP3    H123410   3.333   4.126   1.774
  617TIP3    H223411   3.262   4.231   1.857
  618TIP3   OH223412   1.271   5.268   0.289
  618TIP3    H123413   1.280   5.351   0.242
  618TIP3    H223414   1.265   5.202   0.220
  619TIP3   OH223415   0.731   3.472   0.041
  619TIP3    H123416   0.823   3.447   0.043
  619TIP3    H223417   0.715   3.501   8.665
  620TIP3   OH223418   0.322   3.268   2.082
  620TIP3    H123419   0.322   3.192   2.141
  620TIP3    H223420   0.323   3.344   2.141
  621TIP3   OH223421   5.077   2.822   1.310
  621TIP3    H123422   5.089   2.815   1.216
  621TIP3    H223423   5.021   2.899   1.321
  622TIP3   OH223424   2.994   0.647   0.261
  622TIP3    H123425   2.907   0.677   0.234
  622TIP3    H223426   2.977   0.579   0.326
  623TIP3   OH223427   4.200   0.284   0.018
  623TIP3    H123428   4.156   0.334   8.663
  623TIP3    H223429   4.293   0.298   0.003
  624TIP3   OH223430   3.050   2.950   2.302
  624TIP3    H123431   2.961   2.934   2.331
  624TIP3    H223432   3.104   2.932   2.379
  625TIP3   OH223433   1.050   5.492   7.843
  625TIP3    H123434   1.002   5.575   7.853
  625TIP3    H223435   1.038   5.469   7.751
  626TIP3   OH223436   2.781   5.678   8.673
  626TIP3    H123437   2.858   5.686   8.618
  626TIP3    H223438   2.730   5.757   8.654
  627TIP3   OH223439   4.475   0.619   8.407
  627TIP3    H123440   4.469   0.572   8.490
  627TIP3    H223441   4.501   0.553   8.343
  628TIP3   OH223442   2.534   3.509   1.314
  628TIP3    H123443   2.515   3.576   1.380
  628TIP3    H223444   2.473   3.438   1.334
  629TIP3   OH223445   1.481   6.613   7.818
  629TIP3    H123446   1.488   6.682   7.752
  629TIP3    H223447   1.563   6.564   7.811
  630TIP3   OH223448   2.184   0.240   1.170
  630TIP3    H123449   2.132   0.314   1.203
  630TIP3    H223450   2.137   0.212   1.092
  631TIP3   OH223451   6.181   0.721   1.427
  631TIP3    H123452   6.266   0.688   1.458
  631TIP3    H223453   6.116   0.672   1.478
  632TIP3   OH223454   6.007   0.844   8.406
  632TIP3    H123455   6.092   0.882   8.429
  632TIP3    H223456   6.026   0.786   8.332
  633TIP3   OH223457   1.178   1.175   1.754
  633TIP3    H123458   1.086   1.164   1.780
  633TIP3    H223459   1.215   1.228   1.824
  634TIP3   OH223460   5.831   0.892   1.674
  634TIP3    H123461   5.839   0.987   1.676
  634TIP3    H223462   5.859   0.864   1.761
  635TIP3   OH223463   4.189   6.142   7.643
  635TIP3    H123464   4.167   6.099   7.560
  635TIP3    H223465   4.104   6.163   7.681
  636TIP3   OH223466   1.119   1.652   8.331
  636TIP3    H123467   1.169   1.635   8.411
  636TIP3    H223468   1.176   1.623   8.260
  637TIP3   OH223469   5.583   0.150   8.055
  637TIP3    H123470   5.504   0.195   8.025
  637TIP3    H223471   5.632   0.216   8.104
  638TIP3   OH223472   4.005   0.587   0.055
  638TIP3    H123473   4.031   0.524   8.701
  638TIP3    H223474   3.957   0.655   0.007
  639TIP3   OH223475   3.831   4.527   8.453
  639TIP3    H123476   3.856   4.453   8.398
  639TIP3    H223477   3.907   4.542   8.509
  640TIP3   OH223478   6.404   6.140   6.920
  640TIP3    H123479   6.352   6.071   6.879
  640TIP3    H223480   6.493   6.104   6.924
  641TIP3   OH223481   4.427   4.300   0.065
  641TIP3    H123482   4.403   4.234   0.129
  641TIP3    H223483   4.468   4.370   0.116
  642TIP3   OH223484   5.577   3.980   1.340
  642TIP3    H123485   5.671   3.971   1.324
  642TIP3    H223486   5.570   4.054   1.400
  643TIP3   OH223487   2.554   2.904   1.712
  643TIP3    H123488   2.637   2.913   1.759
  643TIP3    H223489   2.516   2.824   1.746
  644TIP3   OH223490   2.868   3.847   0.915
  644TIP3    H123491   2.827   3.789   0.851
  644TIP3    H223492   2.869   3.933   0.873
  645TIP3   OH223493   0.469   3.563   0.231
  645TIP3    H123494   0.558   3.563   0.196
  645TIP3    H223495   0.465   3.486   0.287
  646TIP3   OH223496   0.311   3.077   6.695
  646TIP3    H123497   0.381   3.069   6.629
  646TIP3    H223498   0.254   3.146   6.661
  647TIP3   OH223499   0.171   6.081   1.141
  647TIP3    H123500   0.141   6.054   1.228
  647TIP3    H223501   0.112   6.153   1.117
  648TIP3   OH223502   1.066   1.855   6.737
  648TIP3    H123503   1.075   1.914   6.811
  648TIP3    H223504   1.054   1.913   6.662
  649TIP3   OH223505   1.458   3.789   7.662
  649TIP3    H123506   1.443   3.712   7.608
  649TIP3    H223507   1.373   3.833   7.666
  650TIP3   OH223508   1.893   1.158   1.009
  650TIP3    H123509   1.963   1.223   0.999
  650TIP3    H223510   1.918   1.108   1.087
  651TIP3   OH223511   5.683   2.108   8.286
  651TIP3    H123512   5.727   2.123   8.202
  651TIP3    H223513   5.752   2.123   8.351
  652TIP3   OH223514   3.515   6.327   6.758
  652TIP3    H123515   3.458   6.331   6.681
  652TIP3    H223516   3.565   6.246   6.746
  653TIP3   OH223517   0.446   1.286   0.007
  653TIP3    H123518   0.463   1.202   0.049
  653TIP3    H223519   0.435   1.347   0.079
  654TIP3   OH223520   2.821   1.946   7.922
  654TIP3    H123521   2.750   1.897   7.882
  654TIP3    H223522   2.833   2.022   7.864
  655TIP3   OH223523   5.841   5.195   1.182
  655TIP3    H123524   5.764   5.233   1.141
  655TIP3    H223525   5.912   5.213   1.121
  656TIP3   OH223526   4.793   6.116   8.645
  656TIP3    H123527   4.834   6.035   8.615
  656TIP3    H223528   4.817   6.123   0.024
  657TIP3   OH223529   2.924   0.384   6.706
  657TIP3    H123530   2.854   0.406   6.645
  657TIP3    H223531   2.957   0.469   6.736
  658TIP3   OH223532   3.798   4.978   7.941
  658TIP3    H123533   3.874   4.989   7.883
  658TIP3    H223534   3.818   4.898   7.990
  659TIP3   OH223535   5.483   1.672   1.906
  659TIP3    H123536   5.505   1.765   1.898
  659TIP3    H223537   5.489   1.638   1.817
  660TIP3   OH223538   6.048   2.441   0.606
  660TIP3    H123539   6.136   2.468   0.580
  660TIP3    H223540   6.047   2.451   0.702
  661TIP3   OH223541   0.986   5.826   1.555
  661TIP3    H123542   1.001   5.762   1.624
  661TIP3    H223543   1.044   5.799   1.484
  662TIP3   OH223544   6.473   2.752   0.904
  662TIP3    H123545   6.411   2.819   0.932
  662TIP3    H223546   6.554   2.773   0.949
  663TIP3   OH223547   5.282   6.225   7.870
  663TIP3    H123548   5.349   6.250   7.933
  663TIP3    H223549   5.227   6.303   7.860
  664TIP3   OH223550   1.374   5.816   1.690
  664TIP3    H123551   1.341   5.838   1.777
  664TIP3    H223552   1.461   5.856   1.687
  665TIP3   OH223553   4.463   0.793   0.843
  665TIP3    H123554   4.510   0.817   0.763
  665TIP3    H223555   4.379   0.760   0.812
  666TIP3   OH223556   4.482   1.737   7.520
  666TIP3    H123557   4.537   1.798   7.570
  666TIP3    H223558   4.513   1.650   7.546
  667TIP3   OH223559   6.483   2.379   7.101
  667TIP3    H123560   6.499   2.300   7.153
  667TIP3    H223561   6.430   2.350   7.027
  668TIP3   OH223562   0.229   6.081   0.856
  668TIP3    H123563   0.282   6.161   0.856
  668TIP3    H223564   0.219   6.059   0.948
  669TIP3   OH223565   1.847   6.510   7.443
  669TIP3    H123566   1.902   6.517   7.365
  669TIP3    H223567   1.848   6.417   7.465
  670TIP3   OH223568   2.462   2.880   1.438
  670TIP3    H123569   2.478   2.863   1.531
  670TIP3    H223570   2.539   2.845   1.394
  671TIP3   OH223571   3.772   6.172   6.551
  671TIP3    H123572   3.705   6.119   6.593
  671TIP3    H223573   3.723   6.229   6.491
  672TIP3   OH223574   3.290   5.173   2.263
  672TIP3    H123575   3.365   5.158   2.321
  672TIP3    H223576   3.260   5.086   2.239
  673TIP3   OH223577   2.257   4.326   0.650
  673TIP3    H123578   2.247   4.362   0.739
  673TIP3    H223579   2.183   4.266   0.640
  674TIP3   OH223580   2.369   5.626   8.242
  674TIP3    H123581   2.411   5.636   8.327
  674TIP3    H223582   2.432   5.578   8.189
  675TIP3   OH223583   3.629   2.635   1.654
  675TIP3    H123584   3.538   2.648   1.630
  675TIP3    H223585   3.669   2.722   1.648
  676TIP3   OH223586   2.245   5.022   0.433
  676TIP3    H123587   2.325   4.969   0.435
  676TIP3    H223588   2.183   4.970   0.381
  677TIP3   OH223589   2.183   1.236   2.472
  677TIP3    H123590   2.185   1.296   2.547
  677TIP3    H223591   2.274   1.234   2.441
  678TIP3   OH223592   4.367   3.788   0.591
  678TIP3    H123593   4.428   3.729   0.545
  678TIP3    H223594   4.292   3.795   0.533
  679TIP3   OH223595   5.218   6.593   8.172
  679TIP3    H123596   5.285   6.598   8.104
  679TIP3    H223597   5.175   6.509   8.158
  680TIP3   OH223598   4.169   3.610   1.147
  680TIP3    H123599   4.150   3.636   1.057
  680TIP3    H223600   4.255   3.568   1.142
  681TIP3   OH223601   3.374   5.485   1.207
  681TIP3    H123602   3.377   5.522   1.295
  681TIP3    H223603   3.463   5.493   1.174
  682TIP3   OH223604   5.362   5.369   0.403
  682TIP3    H123605   5.287   5.405   0.355
  682TIP3    H223606   5.396   5.443   0.453
  683TIP3   OH223607   4.487   2.948   7.250
  683TIP3    H123608   4.455   2.871   7.204
  683TIP3    H223609   4.548   2.914   7.316
  684TIP3   OH223610   1.962   2.257   7.977
  684TIP3    H123611   1.996   2.173   7.946
  684TIP3    H223612   2.024   2.322   7.942
  685TIP3   OH223613   3.551   5.405   8.466
  685TIP3    H123614   3.628   5.412   8.523
  685TIP3    H223615   3.481   5.374   8.523
  686TIP3   OH223616   6.117   6.606   8.645
  686TIP3    H123617   6.187   6.554   8.605
  686TIP3    H223618   6.137   6.605   0.025
  687TIP3   OH223619   5.768   6.048   0.785
  687TIP3    H123620   5.730   6.052   0.873
  687TIP3    H223621   5.696   6.019   0.729
  688TIP3   OH223622   1.280   5.733   0.590
  688TIP3    H123623   1.242   5.645   0.594
  688TIP3    H223624   1.374   5.718   0.599
  689TIP3   OH223625   2.355   2.596   7.832
  689TIP3    H123626   2.415   2.629   7.898
  689TIP3    H223627   2.272   2.639   7.852
  690TIP3   OH223628   5.689   6.018   2.175
  690TIP3    H123629   5.645   5.950   2.124
  690TIP3    H223630   5.780   6.016   2.144
  691TIP3   OH223631   3.863   6.610   1.594
  691TIP3    H123632   3.872   6.517   1.616
  691TIP3    H223633   3.803   6.611   1.520
  692TIP3   OH223634   1.291   0.917   0.343
  692TIP3    H123635   1.234   0.994   0.339
  692TIP3    H223636   1.269   0.866   0.265
  693TIP3   OH223637   5.836   0.875   7.706
  693TIP3    H123638   5.864   0.856   7.795
  693TIP3    H223639   5.798   0.793   7.674
  694TIP3   OH223640   2.053   1.574   7.003
  694TIP3    H123641   1.981   1.637   7.000
  694TIP3    H223642   2.044   1.525   6.921
  695TIP3   OH223643   1.743   4.213   8.186
  695TIP3    H123644   1.708   4.250   8.267
  695TIP3    H223645   1.707   4.268   8.116
  696TIP3   OH223646   1.553   6.509   0.403
  696TIP3    H123647   1.483   6.444   0.413
  696TIP3    H223648   1.602   6.505   0.485
  697TIP3   OH223649   3.524   3.409   1.528
  697TIP3    H123650   3.602   3.359   1.503
  697TIP3    H223651   3.466   3.403   1.452
  698TIP3   OH223652   3.991   0.189   0.612
  698TIP3    H123653   3.973   0.280   0.633
  698TIP3    H223654   4.007   0.189   0.518
  699TIP3   OH223655   0.156   3.416   7.207
  699TIP3    H123656   0.249   3.425   7.186
  699TIP3    H223657   0.118   3.502   7.186
  700TIP3   OH223658   5.146   5.556   8.306
  700TIP3    H123659   5.083   5.519   8.245
  700TIP3    H223660   5.165   5.485   8.368
  701TIP3   OH223661   0.200   5.253   6.985
  701TIP3    H123662   0.197   5.301   6.902
  701TIP3    H223663   0.190   5.161   6.959
  702TIP3   OH223664   0.114   4.011   2.753
  702TIP3    H123665   0.171   4.088   2.759
  702TIP3    H223666   0.069   4.021   2.669
  703TIP3   OH223667   2.842   5.242   8.077
  703TIP3    H123668   2.828   5.176   8.009
  703TIP3    H223669   2.935   5.234   8.100
  704TIP3   OH223670   6.766   5.160   7.290
  704TIP3    H123671   6.833   5.217   7.252
  704TIP3    H223672   6.720   5.124   7.214
  705TIP3   OH223673   0.632   0.897   6.375
  705TIP3    H123674   0.666   0.827   6.319
  705TIP3    H223675   0.622   0.856   6.461
  706TIP3   OH223676   4.861   0.476   1.540
  706TIP3    H123677   4.854   0.571   1.533
  706TIP3    H223678   4.910   0.461   1.621
  707TIP3   OH223679   6.807   2.863   8.455
  707TIP3    H123680   6.826   2.949   8.418
  707TIP3    H223681   0.029   2.805   8.413
  708TIP3   OH223682   1.778   0.081   7.681
  708TIP3    H123683   1.840   0.101   7.751
  708TIP3    H223684   1.693   0.109   7.716
  709TIP3   OH223685   3.277   6.054   6.630
  709TIP3    H123686   3.250   6.145   6.640
  709TIP3    H223687   3.221   6.005   6.690
  710TIP3   OH223688   3.014   4.622   1.030
  710TIP3    H123689   3.109   4.610   1.034
  710TIP3    H223690   3.002   4.694   0.969
  711TIP3   OH223691   3.801   1.626   7.132
  711TIP3    H123692   3.724   1.569   7.144
  711TIP3    H223693   3.783   1.673   7.051
  712TIP3   OH223694   6.166   1.582   8.232
  712TIP3    H123695   6.112   1.524   8.286
  712TIP3    H223696   6.107   1.654   8.208
  713TIP3   OH223697   6.739   3.602   6.373
  713TIP3    H123698   6.789   3.634   6.297
  713TIP3    H223699   6.806   3.563   6.430
  714TIP3   OH223700   0.534   0.048   1.114
  714TIP3    H123701   0.472   6.840   1.063
  714TIP3    H223702   0.486   0.069   1.195
  715TIP3   OH223703   1.226   5.732   7.610
  715TIP3    H123704   1.281   5.703   7.683
  715TIP3    H223705   1.288   5.766   7.546
  716TIP3   OH223706   0.615   4.392   1.231
  716TIP3    H123707   0.567   4.310   1.243
  716TIP3    H223708   0.550   4.455   1.201
  717TIP3   OH223709   1.365   6.412   0.648
  717TIP3    H123710   1.438   6.409   0.709
  717TIP3    H223711   1.297   6.462   0.694
  718TIP3   OH223712   3.375   3.950   1.752
  718TIP3    H123713   3.470   3.959   1.758
  718TIP3    H223714   3.354   3.875   1.808
  719TIP3   OH223715   1.664   3.620   0.121
  719TIP3    H123716   1.572   3.624   0.146
  719TIP3    H223717   1.708   3.683   0.178
  720TIP3   OH223718   1.833   5.757   1.484
  720TIP3    H123719   1.784   5.833   1.453
  720TIP3    H223720   1.784   5.727   1.561
  721TIP3   OH223721   2.015   6.386   7.687
  721TIP3    H123722   1.976   6.454   7.742
  721TIP3    H223723   1.941   6.339   7.650
  722TIP3   OH223724   1.256   2.780   8.702
  722TIP3    H123725   1.250   2.689   0.016
  722TIP3    H223726   1.168   2.802   8.670
  723TIP3   OH223727   6.075   4.128   1.454
  723TIP3    H123728   6.146   4.163   1.401
  723TIP3    H223729   6.117   4.100   1.535
  724TIP3   OH223730   2.194   4.293   2.495
  724TIP3    H123731   2.265   4.242   2.457
  724TIP3    H223732   2.233   4.378   2.515
  725TIP3   OH223733   1.060   3.511   1.493
  725TIP3    H123734   1.115   3.560   1.553
  725TIP3    H223735   1.120   3.456   1.444
  726TIP3   OH223736   0.989   3.226   1.576
  726TIP3    H123737   0.993   3.181   1.660
  726TIP3    H223738   0.993   3.319   1.598
  727TIP3   OH223739   4.525   5.667   8.005
  727TIP3    H123740   4.486   5.748   8.039
  727TIP3    H223741   4.461   5.634   7.942
  728TIP3   OH223742   3.932   1.237   0.637
  728TIP3    H123743   3.941   1.143   0.646
  728TIP3    H223744   3.955   1.255   0.545
  729TIP3   OH223745   1.251   1.650   1.571
  729TIP3    H123746   1.326   1.668   1.514
  729TIP3    H223747   1.269   1.699   1.651
  730TIP3   OH223748   4.380   2.328   1.007
  730TIP3    H123749   4.314   2.374   1.061
  730TIP3    H223750   4.427   2.399   0.963
  731TIP3   OH223751   1.555   0.859   6.632
  731TIP3    H123752   1.636   0.810   6.615
  731TIP3    H223753   1.502   0.799   6.683
  732TIP3   OH223754   4.313   2.664   2.264
  732TIP3    H123755   4.374   2.726   2.305
  732TIP3    H223756   4.227   2.702   2.279
  733TIP3   OH223757   0.137   2.825   8.190
  733TIP3    H123758   0.081   2.751   8.168
  733TIP3    H223759   0.108   2.895   8.132
  734TIP3   OH223760   4.472   1.634   8.616
  734TIP3    H123761   4.470   1.620   8.522
  734TIP3    H223762   4.409   1.704   8.631
  735TIP3   OH223763   4.643   0.208   7.521
  735TIP3    H123764   4.737   0.205   7.542
  735TIP3    H223765   4.606   0.133   7.568
  736TIP3   OH223766   3.231   0.469   7.064
  736TIP3    H123767   3.143   0.500   7.082
  736TIP3    H223768   3.219   0.389   7.014
  737TIP3   OH223769   0.389   5.421   0.009
  737TIP3    H123770   0.416   5.487   8.658
  737TIP3    H223771   0.458   5.422   0.076
  738TIP3   OH223772   2.904   0.910   1.585
  738TIP3    H123773   2.983   0.923   1.534
  738TIP3    H223774   2.871   0.998   1.602
  739TIP3   OH223775   5.206   1.967   0.712
  739TIP3    H123776   5.132   1.972   0.773
  739TIP3    H223777   5.283   1.966   0.769
  740TIP3   OH223778   1.797   1.371   0.731
  740TIP3    H123779   1.839   1.286   0.746
  740TIP3    H223780   1.866   1.424   0.692
  741TIP3   OH223781   3.279   1.169   1.596
  741TIP3    H123782   3.203   1.221   1.621
  741TIP3    H223783   3.275   1.092   1.653
  742TIP3   OH223784   0.863   1.738   8.555
  742TIP3    H123785   0.808   1.816   8.568
  742TIP3    H223786   0.852   1.687   8.635
  743TIP3   OH223787   2.264   5.303   2.999
  743TIP3    H123788   2.251   5.211   2.977
  743TIP3    H223789   2.224   5.351   2.926
  744TIP3   OH223790   2.798   2.276   2.186
  744TIP3    H123791   2.717   2.327   2.191
  744TIP3    H223792   2.867   2.342   2.182
  745TIP3   OH223793   6.580   4.607   8.521
  745TIP3    H123794   6.603   4.537   8.582
  745TIP3    H223795   6.494   4.636   8.550
  746TIP3   OH223796   6.380   3.232   6.650
  746TIP3    H123797   6.302   3.177   6.661
  746TIP3    H223798   6.352   3.300   6.589
  747TIP3   OH223799   5.393   0.342   7.950
  747TIP3    H123800   5.308   0.335   7.993
  747TIP3    H223801   5.404   0.435   7.932
  748TIP3   OH223802   6.177   1.435   7.628
  748TIP3    H123803   6.162   1.391   7.711
  748TIP3    H223804   6.224   1.515   7.651
  749TIP3   OH223805   6.029   0.880   1.292
  749TIP3    H123806   6.101   0.821   1.313
  749TIP3    H223807   5.960   0.855   1.354
  750TIP3   OH223808   4.607   4.377   8.082
  750TIP3    H123809   4.660   4.306   8.119
  750TIP3    H223810   4.517   4.354   8.106
  751TIP3   OH223811   3.829   1.516   1.623
  751TIP3    H123812   3.849   1.423   1.635
  751TIP3    H223813   3.758   1.517   1.559
  752TIP3   OH223814   5.678   0.131   7.580
  752TIP3    H123815   5.622   0.197   7.538
  752TIP3    H223816   5.767   0.158   7.559
  753TIP3   OH223817   6.282   0.038   0.491
  753TIP3    H123818   6.202   0.008   0.448
  753TIP3    H223819   6.350   6.819   0.463
  754TIP3   OH223820   1.510   2.907   1.588
  754TIP3    H123821   1.480   2.856   1.513
  754TIP3    H223822   1.601   2.928   1.569
  755TIP3   OH223823   5.142   0.237   6.847
  755TIP3    H123824   5.224   0.279   6.823
  755TIP3    H223825   5.106   0.204   6.764
  756TIP3   OH223826   1.443   6.801   0.995
  756TIP3    H123827   1.420   0.046   1.022
  756TIP3    H223828   1.426   6.800   0.900
  757TIP3   OH223829   4.883   2.510   1.083
  757TIP3    H123830   4.813   2.451   1.111
  757TIP3    H223831   4.893   2.493   0.990
  758TIP3   OH223832   2.944   3.619   2.328
  758TIP3    H123833   2.911   3.542   2.374
  758TIP3    H223834   2.935   3.690   2.391
  759TIP3   OH223835   5.901   5.524   2.012
  759TIP3    H123836   5.822   5.481   2.045
  759TIP3    H223837   5.894   5.517   1.917
  760TIP3   OH223838   4.266   3.363   7.772
  760TIP3    H123839   4.249   3.405   7.688
  760TIP3    H223840   4.182   3.324   7.797
  761TIP3   OH223841   0.581   1.496   1.985
  761TIP3    H123842   0.561   1.543   2.066
  761TIP3    H223843   0.540   1.410   1.996
  762TIP3   OH223844   6.239   5.035   1.914
  762TIP3    H123845   6.313   5.079   1.957
  762TIP3    H223846   6.201   4.980   1.983
  763TIP3   OH223847   4.582   4.905   6.604
  763TIP3    H123848   4.640   4.844   6.650
  763TIP3    H223849   4.506   4.852   6.582
  764TIP3   OH223850   5.924   3.336   7.966
  764TIP3    H123851   5.854   3.364   7.907
  764TIP3    H223852   5.921   3.240   7.962
  765TIP3   OH223853   5.965   0.164   8.048
  765TIP3    H123854   5.912   0.170   8.128
  765TIP3    H223855   6.020   0.242   8.050
  766TIP3   OH223856   4.089   1.591   1.616
  766TIP3    H123857   4.126   1.511   1.652
  766TIP3    H223858   3.996   1.573   1.608
  767TIP3   OH223859   4.922   2.054   7.306
  767TIP3    H123860   4.903   2.124   7.242
  767TIP3    H223861   4.856   2.066   7.374
  768TIP3   OH223862   5.752   6.594   0.906
  768TIP3    H123863   5.794   6.511   0.886
  768TIP3    H223864   5.801   6.628   0.982
  769TIP3   OH223865   3.416   4.220   0.235
  769TIP3    H123866   3.323   4.230   0.259
  769TIP3    H223867   3.418   4.235   0.141
  770TIP3   OH223868   5.847   6.535   8.616
  770TIP3    H123869   5.828   6.586   8.695
  770TIP3    H223870   5.941   6.517   8.621
  771TIP3   OH223871   5.678   2.181   1.740
  771TIP3    H123872   5.666   2.253   1.802
  771TIP3    H223873   5.660   2.220   1.654
  772TIP3   OH223874   0.707   6.379   0.456
  772TIP3    H123875   0.673   6.464   0.428
  772TIP3    H223876   0.779   6.401   0.515
  773TIP3   OH223877   3.228   3.769   1.179
  773TIP3    H123878   3.308   3.721   1.202
  773TIP3    H223879   3.259   3.854   1.148
  774TIP3   OH223880   6.074   5.056   2.208
  774TIP3    H123881   6.056   5.004   2.286
  774TIP3    H223882   5.997   5.113   2.199
  775TIP3   OH223883   1.783   0.630   8.417
  775TIP3    H123884   1.708   0.571   8.417
  775TIP3    H223885   1.751   0.710   8.460
  776TIP3   OH223886   0.625   4.405   2.095
  776TIP3    H123887   0.635   4.439   2.184
  776TIP3    H223888   0.664   4.318   2.098
  777TIP3   OH223889   5.853   4.641   0.248
  777TIP3    H123890   5.764   4.612   0.265
  777TIP3    H223891   5.888   4.575   0.187
  778TIP3   OH223892   3.552   1.899   8.088
  778TIP3    H123893   3.520   1.951   8.161
  778TIP3    H223894   3.630   1.946   8.058
  779TIP3   OH223895   1.654   2.670   7.783
  779TIP3    H123896   1.669   2.764   7.797
  779TIP3    H223897   1.634   2.663   7.690
  780TIP3   OH223898   0.343   1.977   8.661
  780TIP3    H123899   0.288   2.054   8.649
  780TIP3    H223900   0.282   1.907   8.684
  781TIP3   OH223901   4.912   5.625   8.710
  781TIP3    H123902   4.978   5.692   0.016
  781TIP3    H223903   4.835   5.652   0.048
  782TIP3   OH223904   2.550   1.976   7.180
  782TIP3    H123905   2.499   1.907   7.223
  782TIP3    H223906   2.508   1.988   7.095
  783TIP3   OH223907   5.210   3.612   6.619
  783TIP3    H123908   5.269   3.620   6.543
  783TIP3    H223909   5.262   3.567   6.685
  784TIP3   OH223910   0.749   0.246   1.976
  784TIP3    H123911   0.703   0.327   1.996
  784TIP3    H223912   0.787   0.219   2.060
  785TIP3   OH223913   1.794   6.497   0.962
  785TIP3    H123914   1.880   6.471   0.996
  785TIP3    H223915   1.746   6.530   1.038
  786TIP3   OH223916   4.647   3.772   1.292
  786TIP3    H123917   4.631   3.853   1.244
  786TIP3    H223918   4.741   3.774   1.312
  787TIP3   OH223919   5.574   3.605   7.164
  787TIP3    H123920   5.536   3.517   7.157
  787TIP3    H223921   5.524   3.658   7.102
  788TIP3   OH223922   5.998   2.195   1.313
  788TIP3    H123923   5.922   2.138   1.299
  788TIP3    H223924   6.042   2.196   1.228
  789TIP3   OH223925   3.328   0.863   7.586
  789TIP3    H123926   3.317   0.845   7.492
  789TIP3    H223927   3.288   0.788   7.629
  790TIP3   OH223928   2.203   1.359   7.995
  790TIP3    H123929   2.144   1.334   7.924
  790TIP3    H223930   2.175   1.447   8.020
  791TIP3   OH223931   4.945   5.750   8.218
  791TIP3    H123932   5.025   5.796   8.246
  791TIP3    H223933   4.924   5.693   8.292
  792TIP3   OH223934   3.043   2.427   7.541
  792TIP3    H123935   2.949   2.430   7.525
  792TIP3    H223936   3.074   2.351   7.491
  793TIP3   OH223937   6.074   5.272   1.033
  793TIP3    H123938   6.166   5.285   1.014
  793TIP3    H223939   6.044   5.357   1.066
  794TIP3   OH223940   3.260   4.334   2.384
  794TIP3    H123941   3.293   4.245   2.389
  794TIP3    H223942   3.338   4.389   2.395
  795TIP3   OH223943   6.426   0.880   0.333
  795TIP3    H123944   6.452   0.941   0.403
  795TIP3    H223945   6.404   0.799   0.379
  796TIP3   OH223946   5.821   5.356   0.796
  796TIP3    H123947   5.773   5.372   0.715
  796TIP3    H223948   5.904   5.317   0.768
  797TIP3   OH223949   0.110   5.695   6.901
  797TIP3    H123950   0.178   5.661   6.843
  797TIP3    H223951   0.046   5.736   6.842
  798TIP3   OH223952   3.392   1.622   2.343
  798TIP3    H123953   3.419   1.712   2.359
  798TIP3    H223954   3.459   1.569   2.386
  799TIP3   OH223955   3.239   5.719   1.658
  799TIP3    H123956   3.248   5.790   1.721
  799TIP3    H223957   3.173   5.751   1.595
  800TIP3   OH223958   2.099   0.551   0.015
  800TIP3    H123959   2.065   0.583   0.099
  800TIP3    H223960   2.108   0.629   8.674
  801TIP3   OH223961   5.443   1.226   2.087
  801TIP3    H123962   5.501   1.154   2.113
  801TIP3    H223963   5.396   1.191   2.011
  802TIP3   OH223964   5.792   5.005   0.393
  802TIP3    H123965   5.703   5.017   0.426
  802TIP3    H223966   5.781   4.988   0.300
  803TIP3   OH223967   3.319   6.321   8.120
  803TIP3    H123968   3.368   6.320   8.203
  803TIP3    H223969   3.372   6.377   8.063
  804TIP3   OH223970   3.617   4.461   1.799
  804TIP3    H123971   3.614   4.422   1.886
  804TIP3    H223972   3.656   4.547   1.813
  805TIP3   OH223973   2.336   0.232   1.868
  805TIP3    H123974   2.281   0.270   1.799
  805TIP3    H223975   2.424   0.265   1.848
  806TIP3   OH223976   2.507   6.517   7.905
  806TIP3    H123977   2.415   6.536   7.884
  806TIP3    H223978   2.512   6.422   7.908
  807TIP3   OH223979   3.594   4.946   0.387
  807TIP3    H123980   3.655   4.879   0.418
  807TIP3    H223981   3.595   5.014   0.454
  808TIP3   OH223982   0.774   5.941   1.132
  808TIP3    H123983   0.688   5.981   1.126
  808TIP3    H223984   0.806   5.964   1.220
  809TIP3   OH223985   1.056   0.180   7.190
  809TIP3    H123986   1.005   0.158   7.268
  809TIP3    H223987   1.128   0.117   7.190
  810TIP3   OH223988   4.329   4.267   7.059
  810TIP3    H123989   4.390   4.290   6.988
  810TIP3    H223990   4.313   4.173   7.047
  811TIP3   OH223991   2.297   2.151   0.829
  811TIP3    H123992   2.358   2.194   0.890
  811TIP3    H223993   2.352   2.119   0.758
  812TIP3   OH223994   4.694   6.729   7.151
  812TIP3    H123995   4.753   6.654   7.139
  812TIP3    H223996   4.707   6.755   7.242
  813TIP3   OH223997   4.906   4.259   0.005
  813TIP3    H123998   4.858   4.243   0.086
  813TIP3    H223999   4.992   4.291   0.033
  814TIP3   OH224000   4.242   1.329   0.669
  814TIP3    H124001   4.328   1.368   0.683
  814TIP3    H224002   4.247   1.243   0.711
  815TIP3   OH224003   4.697   4.148   1.398
  815TIP3    H124004   4.683   4.230   1.444
  815TIP3    H224005   4.769   4.106   1.445
  816TIP3   OH224006   0.013   3.348   6.930
  816TIP3    H124007   0.010   3.425   6.987
  816TIP3    H224008   0.083   3.294   6.967
  817TIP3   OH224009   6.662   1.531   1.660
  817TIP3    H124010   6.735   1.494   1.611
  817TIP3    H224011   6.683   1.624   1.669
  818TIP3   OH224012   0.652   6.182   0.676
  818TIP3    H124013   0.706   6.255   0.645
  818TIP3    H224014   0.708   6.134   0.737
  819TIP3   OH224015   2.141   6.182   1.083
  819TIP3    H124016   2.110   6.097   1.112
  819TIP3    H224017   2.208   6.207   1.146
  820TIP3   OH224018   4.497   5.435   0.284
  820TIP3    H124019   4.528   5.351   0.251
  820TIP3    H224020   4.499   5.426   0.379
  821TIP3   OH224021   0.210   1.237   1.642
  821TIP3    H124022   0.214   1.141   1.647
  821TIP3    H224023   0.301   1.265   1.649
  822TIP3   OH224024   4.403   6.221   1.568
  822TIP3    H124025   4.320   6.202   1.613
  822TIP3    H224026   4.455   6.141   1.579
  823TIP3   OH224027   1.813   2.875   0.201
  823TIP3    H124028   1.857   2.832   0.127
  823TIP3    H224029   1.743   2.814   0.226
  824TIP3   OH224030   5.049   5.632   7.190
  824TIP3    H124031   5.094   5.550   7.169
  824TIP3    H224032   5.088   5.661   7.272
  825TIP3   OH224033   5.179   3.361   7.335
  825TIP3    H124034   5.128   3.361   7.416
  825TIP3    H224035   5.179   3.269   7.307
  826TIP3   OH224036   3.287   1.433   8.228
  826TIP3    H124037   3.380   1.443   8.248
  826TIP3    H224038   3.254   1.375   8.297
  827TIP3   OH224039   5.257   6.657   8.691
  827TIP3    H124040   5.229   6.747   8.707
  827TIP3    H224041   5.203   6.604   0.036
  828TIP3   OH224042   3.927   3.069   7.478
  828TIP3    H124043   3.994   3.136   7.466
  828TIP3    H224044   3.976   2.987   7.487
  829TIP3   OH224045   0.245   2.330   1.615
  829TIP3    H124046   0.151   2.330   1.637
  829TIP3    H224047   0.252   2.271   1.541
  830TIP3   OH224048   4.921   6.402   0.450
  830TIP3    H124049   4.954   6.327   0.400
  830TIP3    H224050   4.840   6.370   0.490
  831TIP3   OH224051   0.431   0.855   1.496
  831TIP3    H124052   0.457   0.868   1.587
  831TIP3    H224053   0.339   0.879   1.494
  832TIP3   OH224054   3.807   2.064   7.187
  832TIP3    H124055   3.875   2.090   7.250
  832TIP3    H224056   3.746   2.138   7.186
  833TIP3   OH224057   2.215   5.441   8.464
  833TIP3    H124058   2.246   5.381   8.396
  833TIP3    H224059   2.171   5.511   8.416
  834TIP3   OH224060   5.996   6.116   0.642
  834TIP3    H124061   5.917   6.080   0.684
  834TIP3    H224062   5.974   6.207   0.623
  835TIP3   OH224063   2.523   2.571   1.041
  835TIP3    H124064   2.490   2.593   0.954
  835TIP3    H224065   2.457   2.512   1.078
  836TIP3   OH224066   4.678   5.449   7.978
  836TIP3    H124067   4.717   5.527   8.017
  836TIP3    H224068   4.593   5.479   7.947
  837TIP3   OH224069   2.407   3.961   0.357
  837TIP3    H124070   2.344   4.014   0.405
  837TIP3    H224071   2.434   4.016   0.283
  838TIP3   OH224072   2.287   2.396   2.395
  838TIP3    H124073   2.332   2.313   2.411
  838TIP3    H224074   2.226   2.377   2.323
  839TIP3   OH224075   0.864   0.323   8.092
  839TIP3    H124076   0.803   0.370   8.035
  839TIP3    H224077   0.849   0.231   8.072
  840TIP3   OH224078   5.731   4.920   1.826
  840TIP3    H124079   5.781   4.935   1.746
  840TIP3    H224080   5.792   4.877   1.885
  841TIP3   OH224081   3.684   0.649   0.214
  841TIP3    H124082   3.733   0.592   0.154
  841TIP3    H224083   3.594   0.645   0.182
  842TIP3   OH224084   0.459   3.649   7.493
  842TIP3    H124085   0.510   3.729   7.495
  842TIP3    H224086   0.472   3.610   7.579
  843TIP3   OH224087   0.895   6.762   8.657
  843TIP3    H124088   0.953   6.827   8.698
  843TIP3    H224089   0.887   6.692   0.009
  844TIP3   OH224090   3.019   4.918   8.175
  844TIP3    H124091   3.065   4.992   8.215
  844TIP3    H224092   2.945   4.901   8.233
  845TIP3   OH224093   2.218   2.278   1.418
  845TIP3    H124094   2.146   2.309   1.472
  845TIP3    H224095   2.297   2.307   1.462
  846TIP3   OH224096   4.323   0.775   0.427
  846TIP3    H124097   4.240   0.821   0.434
  846TIP3    H224098   4.371   0.799   0.506
  847TIP3   OH224099   1.624   0.445   0.196
  847TIP3    H124100   1.640   0.530   0.156
  847TIP3    H224101   1.537   0.420   0.166
  848TIP3   OH224102   6.655   0.415   7.307
  848TIP3    H124103   6.561   0.434   7.312
  848TIP3    H224104   6.688   0.441   7.393
  849TIP3   OH224105   0.605   1.198   8.142
  849TIP3    H124106   0.594   1.151   8.225
  849TIP3    H224107   0.684   1.251   8.155
  850TIP3   OH224108   3.308   0.626   0.421
  850TIP3    H124109   3.396   0.621   0.459
  850TIP3    H224110   3.276   0.536   0.424
  851TIP3   OH224111   5.754   2.588   7.490
  851TIP3    H124112   5.736   2.520   7.555
  851TIP3    H224113   5.716   2.667   7.528
  852TIP3   OH224114   1.931   2.065   1.214
  852TIP3    H124115   1.901   2.012   1.141
  852TIP3    H224116   1.914   2.155   1.188
  853TIP3   OH224117   3.753   3.555   6.565
  853TIP3    H124118   3.756   3.650   6.550
  853TIP3    H224119   3.838   3.534   6.602
  854TIP3   OH224120   4.007   1.616   0.175
  854TIP3    H124121   4.102   1.624   0.163
  854TIP3    H224122   3.969   1.662   0.100
  855TIP3   OH224123   5.049   6.246   0.950
  855TIP3    H124124   4.987   6.176   0.931
  855TIP3    H224125   5.113   6.206   1.010
  856TIP3   OH224126   4.035   2.179   7.300
  856TIP3    H124127   4.102   2.167   7.233
  856TIP3    H224128   3.993   2.262   7.277
  857TIP3   OH224129   2.686   1.774   8.666
  857TIP3    H124130   2.656   1.689   8.697
  857TIP3    H224131   2.699   1.763   8.572
  858TIP3   OH224132   3.013   0.599   1.024
  858TIP3    H124133   2.995   0.693   1.034
  858TIP3    H224134   3.005   0.563   1.112
  859TIP3   OH224135   6.718   6.009   0.579
  859TIP3    H124136   6.693   5.957   0.655
  859TIP3    H224137   6.777   5.953   0.530
  860TIP3   OH224138   1.828   1.279   8.498
  860TIP3    H124139   1.876   1.200   8.522
  860TIP3    H224140   1.802   1.317   8.582
  861TIP3   OH224141   3.626   3.252   7.268
  861TIP3    H124142   3.573   3.173   7.281
  861TIP3    H224143   3.688   3.251   7.342
  862TIP3   OH224144   2.039   3.530   0.251
  862TIP3    H124145   2.018   3.565   0.164
  862TIP3    H224146   2.066   3.440   0.234
  863TIP3   OH224147   2.052   2.282   8.580
  863TIP3    H124148   1.974   2.273   8.526
  863TIP3    H224149   2.100   2.201   8.567
  864TIP3   OH224150   3.816   5.831   6.517
  864TIP3    H124151   3.812   5.817   6.612
  864TIP3    H224152   3.885   5.896   6.505
  865TIP3   OH224153   4.461   2.982   2.076
  865TIP3    H124154   4.373   3.019   2.077
  865TIP3    H224155   4.452   2.900   2.028
  866TIP3   OH224156   1.394   4.061   0.292
  866TIP3    H124157   1.335   3.989   0.317
  866TIP3    H224158   1.422   4.038   0.203
  867TIP3   OH224159   0.429   0.002   0.457
  867TIP3    H124160   0.462   0.055   0.530
  867TIP3    H224161   0.357   6.794   0.494
  868TIP3   OH224162   0.399   1.748   1.190
  868TIP3    H124163   0.311   1.785   1.183
  868TIP3    H224164   0.457   1.824   1.198
  869TIP3   OH224165   0.418   4.671   0.604
  869TIP3    H124166   0.411   4.649   0.697
  869TIP3    H224167   0.385   4.594   0.558
  870TIP3   OH224168   6.490   3.094   7.926
  870TIP3    H124169   6.557   3.073   7.992
  870TIP3    H224170   6.533   3.075   7.842
  871TIP3   OH224171   2.801   2.751   1.712
  871TIP3    H124172   2.835   2.840   1.710
  871TIP3    H224173   2.747   2.744   1.633
  872TIP3   OH224174   6.297   1.714   1.497
  872TIP3    H124175   6.286   1.750   1.585
  872TIP3    H224176   6.389   1.730   1.476
  873TIP3   OH224177   0.531   0.771   7.202
  873TIP3    H124178   0.608   0.713   7.206
  873TIP3    H224179   0.486   0.756   7.285
  874TIP3   OH224180   6.362   0.021   8.445
  874TIP3    H124181   6.336   0.029   8.536
  874TIP3    H224182   6.432   0.085   8.434
  875TIP3   OH224183   1.320   3.696   6.922
  875TIP3    H124184   1.296   3.612   6.883
  875TIP3    H224185   1.265   3.760   6.877
  876TIP3   OH224186   5.143   6.299   7.211
  876TIP3    H124187   5.103   6.352   7.142
  876TIP3    H224188   5.230   6.339   7.224
  877TIP3   OH224189   0.069   2.302   0.596
  877TIP3    H124190   6.822   2.300   0.631
  877TIP3    H224191   0.065   2.366   0.525
  878TIP3   OH224192   0.241   1.801   8.042
  878TIP3    H124193   0.301   1.755   8.100
  878TIP3    H224194   0.166   1.823   8.097
  879TIP3   OH224195   2.653   3.515   7.937
  879TIP3    H124196   2.661   3.596   7.886
  879TIP3    H224197   2.568   3.479   7.912
  880TIP3   OH224198   0.513   3.277   8.068
  880TIP3    H124199   0.449   3.326   8.120
  880TIP3    H224200   0.588   3.336   8.062
  881TIP3   OH224201   4.948   0.502   7.751
  881TIP3    H124202   4.999   0.454   7.686
  881TIP3    H224203   4.947   0.592   7.719
  882TIP3   OH224204   5.771   2.021   0.112
  882TIP3    H124205   5.792   1.936   0.071
  882TIP3    H224206   5.739   2.074   0.040
  883TIP3   OH224207   2.772   4.394   2.052
  883TIP3    H124208   2.680   4.398   2.079
  883TIP3    H224209   2.818   4.364   2.130
  884TIP3   OH224210   1.866   4.925   8.121
  884TIP3    H124211   1.815   4.845   8.107
  884TIP3    H224212   1.801   4.990   8.148
  885TIP3   OH224213   1.595   0.090   0.178
  885TIP3    H124214   1.672   0.082   0.235
  885TIP3    H224215   1.616   0.035   0.103
  886TIP3   OH224216   4.598   6.684   6.761
  886TIP3    H124217   4.539   6.738   6.709
  886TIP3    H224218   4.625   6.614   6.701
  887TIP3   OH224219   1.438   6.648   6.701
  887TIP3    H124220   1.357   6.611   6.736
  887TIP3    H224221   1.412   6.733   6.665
  888TIP3   OH224222   5.202   1.498   1.864
  888TIP3    H124223   5.125   1.472   1.814
  888TIP3    H224224   5.243   1.415   1.889
  889TIP3   OH224225   4.713   6.759   2.223
  889TIP3    H124226   4.664   6.829   2.266
  889TIP3    H224227   4.739   6.797   2.138
  890TIP3   OH224228   0.914   4.727   1.503
  890TIP3    H124229   0.957   4.723   1.417
  890TIP3    H224230   0.984   4.753   1.564
  891TIP3   OH224231   6.803   0.832   0.326
  891TIP3    H124232   6.749   0.784   0.263
  891TIP3    H224233   0.041   0.850   0.279
  892TIP3   OH224234   2.012   4.000   1.616
  892TIP3    H124235   2.007   3.943   1.693
  892TIP3    H224236   2.105   4.019   1.607
  893TIP3   OH224237   0.745   1.208   8.466
  893TIP3    H124238   0.792   1.225   8.383
  893TIP3    H224239   0.665   1.259   8.458
  894TIP3   OH224240   3.530   6.257   8.293
  894TIP3    H124241   3.598   6.262   8.226
  894TIP3    H224242   3.525   6.164   8.316
  895TIP3   OH224243   2.251   4.344   1.473
  895TIP3    H124244   2.268   4.253   1.447
  895TIP3    H224245   2.336   4.388   1.461
  896TIP3   OH224246   6.259   2.845   7.018
  896TIP3    H124247   6.337   2.795   6.992
  896TIP3    H224248   6.211   2.785   7.075
  897TIP3   OH224249   3.409   5.316   7.389
  897TIP3    H124250   3.425   5.253   7.460
  897TIP3    H224251   3.490   5.315   7.338
  898TIP3   OH224252   4.091   2.515   7.821
  898TIP3    H124253   4.088   2.551   7.909
  898TIP3    H224254   4.179   2.481   7.811
  899TIP3   OH224255   0.768   6.616   8.112
  899TIP3    H124256   0.856   6.636   8.143
  899TIP3    H224257   0.779   6.539   8.056
  900TIP3   OH224258   3.412   2.354   0.579
  900TIP3    H124259   3.416   2.442   0.542
  900TIP3    H224260   3.319   2.340   0.595
  901TIP3   OH224261   1.129   0.339   0.621
  901TIP3    H124262   1.139   0.353   0.715
  901TIP3    H224263   1.219   0.327   0.590
  902TIP3   OH224264   0.392   3.315   0.678
  902TIP3    H124265   0.470   3.292   0.729
  902TIP3    H224266   0.330   3.245   0.694
  903TIP3   OH224267   5.496   3.742   6.951
  903TIP3    H124268   5.467   3.653   6.929
  903TIP3    H224269   5.415   3.791   6.963
  904TIP3   OH224270   2.866   1.280   7.111
  904TIP3    H124271   2.792   1.224   7.135
  904TIP3    H224272   2.935   1.220   7.085
  905TIP3   OH224273   2.663   4.848   6.675
  905TIP3    H124274   2.633   4.900   6.601
  905TIP3    H224275   2.731   4.791   6.637
  906TIP3   OH224276   3.466   3.277   1.930
  906TIP3    H124277   3.521   3.355   1.931
  906TIP3    H224278   3.459   3.252   2.022
  907TIP3   OH224279   1.124   1.437   5.979
  907TIP3    H124280   1.056   1.400   6.035
  907TIP3    H224281   1.123   1.382   5.900
  908TIP3   OH224282   1.169   2.344   8.213
  908TIP3    H124283   1.183   2.303   8.128
  908TIP3    H224284   1.257   2.353   8.250
  909TIP3   OH224285   6.363   5.348   7.593
  909TIP3    H124286   6.338   5.264   7.631
  909TIP3    H224287   6.342   5.412   7.661
  910TIP3   OH224288   5.373   2.998   1.208
  910TIP3    H124289   5.431   2.972   1.279
  910TIP3    H224290   5.367   2.920   1.152
  911TIP3   OH224291   6.371   5.116   0.562
  911TIP3    H124292   6.317   5.037   0.574
  911TIP3    H224293   6.358   5.139   0.470
  912TIP3   OH224294   0.049   2.934   1.733
  912TIP3    H124295   0.043   2.859   1.793
  912TIP3    H224296   0.109   2.995   1.777
  913TIP3   OH224297   2.992   1.809   7.594
  913TIP3    H124298   3.047   1.884   7.619
  913TIP3    H224299   2.949   1.837   7.513
  914TIP3   OH224300   5.314   6.532   7.692
  914TIP3    H124301   5.252   6.504   7.759
  914TIP3    H224302   5.322   6.457   7.633
  915TIP3   OH224303   2.386   4.186   1.735
  915TIP3    H124304   2.365   4.248   1.805
  915TIP3    H224305   2.360   4.101   1.770
  916TIP3   OH224306   5.896   5.305   6.912
  916TIP3    H124307   5.838   5.371   6.872
  916TIP3    H224308   5.949   5.355   6.974
  917TIP3   OH224309   0.460   4.967   8.708
  917TIP3    H124310   0.407   5.033   0.040
  917TIP3    H224311   0.398   4.898   8.685
  918TIP3   OH224312   1.141   3.050   7.808
  918TIP3    H124313   1.119   3.096   7.728
  918TIP3    H224314   1.092   3.095   7.877
  919TIP3   OH224315   2.248   3.140   0.998
  919TIP3    H124316   2.216   3.110   1.084
  919TIP3    H224317   2.334   3.177   1.016
  920TIP3   OH224318   6.659   4.451   8.216
  920TIP3    H124319   6.704   4.529   8.183
  920TIP3    H224320   6.678   4.451   8.310
  921TIP3   OH224321   5.565   4.210   8.601
  921TIP3    H124322   5.614   4.263   8.665
  921TIP3    H224323   5.519   4.146   8.654
  922TIP3   OH224324   4.777   2.296   0.308
  922TIP3    H124325   4.870   2.314   0.294
  922TIP3    H224326   4.770   2.200   0.302
  923TIP3   OH224327   3.011   4.392   2.338
  923TIP3    H124328   2.992   4.313   2.287
  923TIP3    H224329   3.106   4.395   2.345
  924TIP3   OH224330   2.815   6.415   0.615
  924TIP3    H124331   2.783   6.498   0.578
  924TIP3    H224332   2.754   6.395   0.686
  925TIP3   OH224333   4.170   5.269   7.342
  925TIP3    H124334   4.212   5.183   7.338
  925TIP3    H224335   4.231   5.328   7.296
  926TIP3   OH224336   6.282   4.019   8.707
  926TIP3    H124337   6.332   4.048   0.070
  926TIP3    H224338   6.329   3.942   8.676
  927TIP3   OH224339   5.798   0.959   0.590
  927TIP3    H124340   5.786   0.865   0.606
  927TIP3    H224341   5.709   0.994   0.589
  928TIP3   OH224342   0.577   1.101   0.967
  928TIP3    H124343   0.514   1.033   0.992
  928TIP3    H224344   0.656   1.053   0.943
  929TIP3   OH224345   3.878   5.087   1.103
  929TIP3    H124346   3.892   5.173   1.064
  929TIP3    H224347   3.963   5.044   1.101
  930TIP3   OH224348   6.217   1.899   7.278
  930TIP3    H124349   6.262   1.962   7.334
  930TIP3    H224350   6.242   1.813   7.314
  931TIP3   OH224351   4.815   1.190   8.574
  931TIP3    H124352   4.741   1.246   8.549
  931TIP3    H224353   4.781   1.137   8.646
  932TIP3   OH224354   1.991   4.336   8.192
  932TIP3    H124355   1.896   4.328   8.196
  932TIP3    H224356   2.015   4.375   8.276
  933TIP3   OH224357   0.861   1.847   1.274
  933TIP3    H124358   0.769   1.871   1.285
  933TIP3    H224359   0.885   1.882   1.188
  934TIP3   OH224360   1.616   0.643   1.300
  934TIP3    H124361   1.570   0.727   1.302
  934TIP3    H224362   1.660   0.637   1.385
  935TIP3   OH224363   2.920   4.727   6.670
  935TIP3    H124364   2.996   4.672   6.652
  935TIP3    H224365   2.946   4.780   6.746
  936TIP3   OH224366   1.613   6.519   8.348
  936TIP3    H124367   1.676   6.517   8.275
  936TIP3    H224368   1.667   6.526   8.426
  937TIP3   OH224369   6.648   0.650   0.499
  937TIP3    H124370   6.729   0.599   0.503
  937TIP3    H224371   6.669   0.725   0.442
  938TIP3   OH224372   0.251   5.182   8.593
  938TIP3    H124373   0.317   5.243   8.626
  938TIP3    H224374   0.167   5.225   8.610
  939TIP3   OH224375   1.741   6.549   8.610
  939TIP3    H124376   1.715   6.553   8.702
  939TIP3    H224377   1.819   6.605   8.604
  940TIP3   OH224378   3.682   3.352   1.107
  940TIP3    H124379   3.628   3.429   1.124
  940TIP3    H224380   3.751   3.356   1.172
  941TIP3   OH224381   4.381   6.000   0.405
  941TIP3    H124382   4.371   6.095   0.400
  941TIP3    H224383   4.474   5.987   0.425
  942TIP3   OH224384   4.327   1.611   1.447
  942TIP3    H124385   4.242   1.620   1.491
  942TIP3    H224386   4.347   1.517   1.454
  943TIP3   OH224387   4.112   2.497   8.630
  943TIP3    H124388   4.187   2.542   8.592
  943TIP3    H224389   4.075   2.560   8.693
  944TIP3   OH224390   4.540   1.979   8.630
  944TIP3    H124391   4.467   1.919   8.646
  944TIP3    H224392   4.537   2.041   8.702
  945TIP3   OH224393   4.597   5.920   0.189
  945TIP3    H124394   4.628   5.832   0.169
  945TIP3    H224395   4.508   5.922   0.155
  946TIP3   OH224396   0.015   5.374   8.660
  946TIP3    H124397   0.036   5.364   8.568
  946TIP3    H224398   6.770   5.336   8.669
  947TIP3   OH224399   0.861   6.170   0.847
  947TIP3    H124400   0.943   6.206   0.812
  947TIP3    H224401   0.883   6.081   0.874
  948TIP3   OH224402   1.123   5.257   6.211
  948TIP3    H124403   1.140   5.221   6.298
  948TIP3    H224404   1.196   5.316   6.195
  949TIP3   OH224405   3.545   5.984   8.348
  949TIP3    H124406   3.477   5.969   8.414
  949TIP3    H224407   3.609   5.915   8.363
  950TIP3   OH224408   4.459   0.663   6.857
  950TIP3    H124409   4.536   0.626   6.815
  950TIP3    H224410   4.494   0.729   6.918
  951TIP3   OH224411   3.664   1.830   1.833
  951TIP3    H124412   3.708   1.850   1.750
  951TIP3    H224413   3.735   1.815   1.895
  952TIP3   OH224414   2.268   0.059   6.455
  952TIP3    H124415   2.246   0.149   6.478
  952TIP3    H224416   2.220   0.005   6.518
  953TIP3   OH224417   2.103   2.961   1.399
  953TIP3    H124418   2.169   2.992   1.337
  953TIP3    H224419   2.071   3.040   1.441
  954TIP3   OH224420   1.522   2.051   1.284
  954TIP3    H124421   1.489   2.017   1.367
  954TIP3    H224422   1.444   2.080   1.237
  955TIP3   OH224423   6.090   2.722   8.145
  955TIP3    H124424   6.147   2.792   8.115
  955TIP3    H224425   6.005   2.764   8.160
  956TIP3   OH224426   4.456   3.620   1.144
  956TIP3    H124427   4.466   3.663   1.059
  956TIP3    H224428   4.523   3.660   1.200
  957TIP3   OH224429   2.149   3.764   8.400
  957TIP3    H124430   2.075   3.705   8.410
  957TIP3    H224431   2.204   3.746   8.476
  958TIP3   OH224432   2.296   1.418   7.397
  958TIP3    H124433   2.341   1.385   7.475
  958TIP3    H224434   2.309   1.349   7.332
  959TIP3   OH224435   2.815   6.550   8.624
  959TIP3    H124436   2.873   6.488   8.580
  959TIP3    H224437   2.747   6.569   8.560
  960TIP3   OH224438   4.644   0.716   2.807
  960TIP3    H124439   4.620   0.805   2.834
  960TIP3    H224440   4.739   0.718   2.799
  961TIP3   OH224441   4.158   3.984   7.849
  961TIP3    H124442   4.133   3.916   7.786
  961TIP3    H224443   4.231   3.945   7.898
  962TIP3   OH224444   6.435   1.399   2.162
  962TIP3    H124445   6.482   1.418   2.081
  962TIP3    H224446   6.486   1.442   2.231
  963TIP3   OH224447   3.515   3.505   7.566
  963TIP3    H124448   3.559   3.552   7.637
  963TIP3    H224449   3.472   3.431   7.609
  964TIP3   OH224450   0.494   1.700   8.662
  964TIP3    H124451   0.461   1.728   8.577
  964TIP3    H224452   0.530   1.779   8.701
  965TIP3   OH224453   1.722   5.901   0.101
  965TIP3    H124454   1.697   5.901   0.193
  965TIP3    H224455   1.712   5.992   0.073
  966TIP3   OH224456   3.825   6.515   8.296
  966TIP3    H124457   3.801   6.607   8.308
  966TIP3    H224458   3.816   6.499   8.202
  967TIP3   OH224459   2.089   2.032   8.450
  967TIP3    H124460   2.166   2.052   8.397
  967TIP3    H224461   2.018   2.020   8.386
  968TIP3   OH224462   5.162   3.133   1.068
  968TIP3    H124463   5.222   3.111   1.139
  968TIP3    H224464   5.182   3.224   1.046
  969TIP3   OH224465   0.457   4.623   1.143
  969TIP3    H124466   0.409   4.689   1.093
  969TIP3    H224467   0.418   4.626   1.231
  970TIP3   OH224468   5.082   4.492   0.365
  970TIP3    H124469   4.990   4.493   0.340
  970TIP3    H224470   5.082   4.453   0.452
  971TIP3   OH224471   3.638   1.691   7.907
  971TIP3    H124472   3.582   1.731   7.974
  971TIP3    H224473   3.716   1.664   7.954
  972TIP3   OH224474   0.488   6.045   8.051
  972TIP3    H124475   0.405   6.055   8.097
  972TIP3    H224476   0.545   6.112   8.090
  973TIP3   OH224477   5.237   4.613   1.855
  973TIP3    H124478   5.204   4.525   1.835
  973TIP3    H224479   5.203   4.632   1.942
  974TIP3   OH224480   6.391   3.222   2.696
  974TIP3    H124481   6.387   3.152   2.630
  974TIP3    H224482   6.299   3.245   2.711
  975TIP3   OH224483   4.018   1.568   2.326
  975TIP3    H124484   4.069   1.555   2.405
  975TIP3    H224485   4.074   1.621   2.269
  976TIP3   OH224486   2.302   0.205   1.439
  976TIP3    H124487   2.284   0.216   1.346
  976TIP3    H224488   2.383   0.153   1.442
  977TIP3   OH224489   1.279   1.077   1.315
  977TIP3    H124490   1.362   1.043   1.348
  977TIP3    H224491   1.286   1.071   1.220
  978TIP3   OH224492   1.362   1.577   0.096
  978TIP3    H124493   1.301   1.573   0.170
  978TIP3    H224494   1.410   1.658   0.109
  979TIP3   OH224495   0.547   1.768   7.488
  979TIP3    H124496   0.566   1.858   7.461
  979TIP3    H224497   0.533   1.720   7.406
  980TIP3   OH224498   6.327   5.852   2.559
  980TIP3    H124499   6.313   5.931   2.507
  980TIP3    H224500   6.374   5.793   2.500
  981TIP3   OH224501   4.499   0.551   0.542
  981TIP3    H124502   4.442   0.514   0.610
  981TIP3    H224503   4.441   0.567   0.468
  982TIP3   OH224504   1.010   2.670   8.552
  982TIP3    H124505   1.079   2.613   8.586
  982TIP3    H224506   1.001   2.645   8.460
  983TIP3   OH224507   2.163   6.799   6.945
  983TIP3    H124508   2.072   6.782   6.921
  983TIP3    H224509   2.180   0.045   6.915
  984TIP3   OH224510   6.039   4.809   1.388
  984TIP3    H124511   6.046   4.877   1.455
  984TIP3    H224512   5.960   4.832   1.338
  985TIP3   OH224513   3.561   0.696   8.116
  985TIP3    H124514   3.511   0.653   8.046
  985TIP3    H224515   3.650   0.660   8.107
  986TIP3   OH224516   1.867   2.068   0.634
  986TIP3    H124517   1.798   2.089   0.698
  986TIP3    H224518   1.947   2.102   0.672
  987TIP3   OH224519   2.276   5.262   0.152
  987TIP3    H124520   2.323   5.231   0.229
  987TIP3    H224521   2.202   5.311   0.187
  988TIP3   OH224522   4.613   4.401   0.597
  988TIP3    H124523   4.566   4.484   0.599
  988TIP3    H224524   4.565   4.348   0.533
  989TIP3   OH224525   3.174   5.460   1.699
  989TIP3    H124526   3.080   5.468   1.683
  989TIP3    H224527   3.209   5.548   1.684
  990TIP3   OH224528   0.725   2.970   0.311
  990TIP3    H124529   0.741   2.972   0.217
  990TIP3    H224530   0.802   3.011   0.350
  991TIP3   OH224531   4.173   1.880   0.496
  991TIP3    H124532   4.167   1.975   0.481
  991TIP3    H224533   4.083   1.849   0.489
  992TIP3   OH224534   3.594   0.904   8.708
  992TIP3    H124535   3.591   0.991   0.034
  992TIP3    H224536   3.580   0.844   0.068
  993TIP3   OH224537   2.204   5.692   7.747
  993TIP3    H124538   2.211   5.759   7.678
  993TIP3    H224539   2.294   5.670   7.769
  994TIP3   OH224540   3.066   5.104   7.923
  994TIP3    H124541   3.130   5.076   7.989
  994TIP3    H224542   3.091   5.056   7.844
  995TIP3   OH224543   0.014   2.119   1.750
  995TIP3    H124544   0.074   2.078   1.812
  995TIP3    H224545   6.781   2.146   1.803
  996TIP3   OH224546   5.761   0.147   8.434
  996TIP3    H124547   5.828   0.100   8.385
  996TIP3    H224548   5.804   0.175   8.514
  997TIP3   OH224549   2.069   6.518   8.538
  997TIP3    H124550   2.122   6.533   8.459
  997TIP3    H224551   2.096   6.586   8.599
  998TIP3   OH224552   0.657   5.150   6.659
  998TIP3    H124553   0.575   5.107   6.635
  998TIP3    H224554   0.695   5.177   6.576
  999TIP3   OH224555   3.007   5.602   0.137
  999TIP3    H124556   3.065   5.592   0.213
  999TIP3    H224557   3.000   5.514   0.101
 1000TIP3   OH224558   0.644   5.540   0.778
 1000TIP3    H124559   0.562   5.494   0.761
 1000TIP3    H224560   0.634   5.575   0.867
 1001TIP3   OH224561   0.925   3.126   0.412
 1001TIP3    H124562   0.984   3.156   0.481
 1001TIP3    H224563   0.946   3.181   0.337
 1002TIP3   OH224564   6.154   4.576   1.462
 1002TIP3    H124565   6.101   4.647   1.424
 1002TIP3    H224566   6.092   4.505   1.476
 1003TIP3   OH224567   5.836   0.721   8.632
 1003TIP3    H124568   5.771   0.770   8.682
 1003TIP3    H224569   5.907   0.782   8.618
 1004TIP3   OH224570   2.992   2.470   1.639
 1004TIP3    H124571   2.913   2.495   1.592
 1004TIP3    H224572   2.961   2.441   1.725
 1005TIP3   OH224573   0.369   6.582   6.869
 1005TIP3    H124574   0.303   6.652   6.868
 1005TIP3    H224575   0.375   6.556   6.961
 1006TIP3   OH224576   5.648   2.509   7.098
 1006TIP3    H124577   5.726   2.516   7.153
 1006TIP3    H224578   5.607   2.595   7.104
 1007TIP3   OH224579   2.775   6.777   6.335
 1007TIP3    H124580   2.747   0.025   6.328
 1007TIP3    H224581   2.703   6.727   6.297
 1008TIP3   OH224582   6.492   5.785   7.530
 1008TIP3    H124583   6.525   5.841   7.601
 1008TIP3    H224584   6.446   5.845   7.472
 1009TIP3   OH224585   1.790   5.722   0.701
 1009TIP3    H124586   1.784   5.817   0.711
 1009TIP3    H224587   1.882   5.701   0.718
 1010TIP3   OH224588   5.558   0.912   1.918
 1010TIP3    H124589   5.619   0.902   1.845
 1010TIP3    H224590   5.610   0.892   1.996
 1011TIP3   OH224591   5.886   5.634   8.214
 1011TIP3    H124592   5.910   5.709   8.161
 1011TIP3    H224593   5.963   5.576   8.210
 1012TIP3   OH224594   0.500   0.255   0.937
 1012TIP3    H124595   0.525   0.195   1.007
 1012TIP3    H224596   0.413   0.286   0.961
 1013TIP3   OH224597   0.550   1.649   0.631
 1013TIP3    H124598   0.511   1.681   0.713
 1013TIP3    H224599   0.531   1.556   0.631
 1014TIP3   OH224600   0.928   3.369   6.489
 1014TIP3    H124601   0.885   3.284   6.497
 1014TIP3    H224602   0.895   3.405   6.406
 1015TIP3   OH224603   3.294   1.955   8.546
 1015TIP3    H124604   3.236   1.977   8.618
 1015TIP3    H224605   3.251   1.881   8.502
 1016TIP3   OH224606   6.257   2.023   8.001
 1016TIP3    H124607   6.236   1.982   8.085
 1016TIP3    H224608   6.260   2.117   8.019
 1017TIP3   OH224609   6.790   4.172   1.121
 1017TIP3    H124610   0.023   4.116   1.137
 1017TIP3    H224611   6.825   4.247   1.073
 1018TIP3   OH224612   0.133   4.043   8.356
 1018TIP3    H124613   0.097   4.058   8.443
 1018TIP3    H224614   0.060   4.060   8.296
 1019TIP3   OH224615   5.626   0.976   0.946
 1019TIP3    H124616   5.683   1.007   1.016
 1019TIP3    H224617   5.645   1.035   0.872
 1020TIP3   OH224618   6.308   3.009   0.554
 1020TIP3    H124619   6.363   2.936   0.525
 1020TIP3    H224620   6.335   3.025   0.645
 1021TIP3   OH224621   4.169   3.024   0.991
 1021TIP3    H124622   4.245   3.080   1.007
 1021TIP3    H224623   4.191   2.977   0.911
 1022TIP3   OH224624   6.147   2.615   6.311
 1022TIP3    H124625   6.108   2.584   6.392
 1022TIP3    H224626   6.105   2.700   6.294
 1023TIP3   OH224627   0.461   0.726   8.615
 1023TIP3    H124628   0.370   0.756   8.614
 1023TIP3    H224629   0.462   0.653   8.554
 1024TIP3   OH224630   1.719   4.469   8.631
 1024TIP3    H124631   1.780   4.408   8.673
 1024TIP3    H224632   1.696   4.531   8.700
 1025TIP3   OH224633   6.529   3.294   1.053
 1025TIP3    H124634   6.471   3.293   1.129
 1025TIP3    H224635   6.548   3.202   1.036
 1026TIP3   OH224636   1.993   0.013   7.437
 1026TIP3    H124637   1.912   6.822   7.398
 1026TIP3    H224638   1.972   0.104   7.461
 1027TIP3   OH224639   2.143   0.185   6.231
 1027TIP3    H124640   2.163   0.123   6.301
 1027TIP3    H224641   2.227   0.199   6.187
 1028TIP3   OH224642   5.135   3.779   6.094
 1028TIP3    H124643   5.117   3.720   6.167
 1028TIP3    H224644   5.228   3.769   6.077
 1029TIP3   OH224645   5.074   6.280   1.513
 1029TIP3    H124646   5.035   6.256   1.597
 1029TIP3    H224647   5.000   6.305   1.459
 1030TIP3   OH224648   6.766   3.213   1.664
 1030TIP3    H124649   6.729   3.166   1.739
 1030TIP3    H224650   6.728   3.300   1.670
 1031TIP3   OH224651   1.336   5.623   8.334
 1031TIP3    H124652   1.304   5.536   8.359
 1031TIP3    H224653   1.368   5.612   8.245
 1032TIP3   OH224654   1.323   5.509   1.938
 1032TIP3    H124655   1.354   5.480   2.024
 1032TIP3    H224656   1.388   5.476   1.877
 1033TIP3   OH224657   2.428   2.104   0.613
 1033TIP3    H124658   2.423   2.113   0.518
 1033TIP3    H224659   2.458   2.014   0.626
 1034TIP3   OH224660   0.321   0.767   8.110
 1034TIP3    H124661   0.417   0.768   8.113
 1034TIP3    H224662   0.299   0.787   8.019
 1035TIP3   OH224663   3.689   4.970   1.783
 1035TIP3    H124664   3.618   5.007   1.835
 1035TIP3    H224665   3.768   5.012   1.816
 1036TIP3   OH224666   2.203   6.538   0.268
 1036TIP3    H124667   2.251   6.585   0.201
 1036TIP3    H224668   2.196   6.448   0.234
 1037TIP3   OH224669   5.814   5.595   1.092
 1037TIP3    H124670   5.827   5.690   1.089
 1037TIP3    H224671   5.876   5.565   1.158
 1038TIP3   OH224672   3.504   1.968   1.548
 1038TIP3    H124673   3.460   2.018   1.616
 1038TIP3    H224674   3.521   2.031   1.478
 1039TIP3   OH224675   6.212   2.548   1.224
 1039TIP3    H124676   6.142   2.613   1.224
 1039TIP3    H224677   6.266   2.570   1.299
 1040TIP3   OH224678   3.587   1.983   2.079
 1040TIP3    H124679   3.618   1.968   1.989
 1040TIP3    H224680   3.626   1.911   2.130
 1041TIP3   OH224681   1.303   6.134   8.461
 1041TIP3    H124682   1.289   6.228   8.455
 1041TIP3    H224683   1.397   6.122   8.449
 1042TIP3   OH224684   0.193   3.285   0.416
 1042TIP3    H124685   0.267   3.297   0.475
 1042TIP3    H224686   0.130   3.234   0.468
 1043TIP3   OH224687   3.981   3.168   2.061
 1043TIP3    H124688   3.931   3.250   2.060
 1043TIP3    H224689   3.915   3.099   2.067
 1044TIP3   OH224690   1.712   3.982   0.264
 1044TIP3    H124691   1.676   4.070   0.271
 1044TIP3    H224692   1.700   3.944   0.351
 1045TIP3   OH224693   2.923   1.021   6.497
 1045TIP3    H124694   2.875   0.987   6.421
 1045TIP3    H224695   2.896   1.113   6.503
 1046TIP3   OH224696   3.988   2.089   8.310
 1046TIP3    H124697   4.043   2.166   8.321
 1046TIP3    H224698   4.042   2.027   8.262
 1047TIP3   OH224699   0.559   6.236   6.493
 1047TIP3    H124700   0.635   6.273   6.539
 1047TIP3    H224701   0.541   6.299   6.423
 1048TIP3   OH224702   0.921   3.829   1.896
 1048TIP3    H124703   1.011   3.811   1.924
 1048TIP3    H224704   0.930   3.896   1.828
 1049TIP3   OH224705   2.515   3.825   7.701
 1049TIP3    H124706   2.589   3.885   7.689
 1049TIP3    H224707   2.480   3.848   7.787
 1050TIP3   OH224708   1.048   1.407   7.738
 1050TIP3    H124709   1.026   1.402   7.645
 1050TIP3    H224710   0.975   1.365   7.783
 1051TIP3   OH224711   0.017   1.059   7.264
 1051TIP3    H124712   0.013   1.140   7.214
 1051TIP3    H224713   0.103   1.022   7.243
 1052TIP3   OH224714   5.310   2.152   1.966
 1052TIP3    H124715   5.347   2.085   2.024
 1052TIP3    H224716   5.329   2.235   2.010
 1053TIP3   OH224717   3.308   0.565   1.036
 1053TIP3    H124718   3.302   0.640   0.977
 1053TIP3    H224719   3.234   0.509   1.011
 1054TIP3   OH224720   3.547   0.173   1.197
 1054TIP3    H124721   3.483   0.107   1.224
 1054TIP3    H224722   3.631   0.128   1.202
 1055TIP3   OH224723   6.424   4.583   1.353
 1055TIP3    H124724   6.492   4.622   1.408
 1055TIP3    H224725   6.347   4.577   1.411
 1056TIP3   OH224726   5.602   6.184   0.428
 1056TIP3    H124727   5.675   6.195   0.366
 1056TIP3    H224728   5.609   6.260   0.486
 1057TIP3   OH224729   2.746   1.836   0.592
 1057TIP3    H124730   2.651   1.832   0.588
 1057TIP3    H224731   2.774   1.745   0.600
 1058TIP3   OH224732   0.015   2.718   7.435
 1058TIP3    H124733   6.802   2.693   7.509
 1058TIP3    H224734   0.103   2.724   7.474
 1059TIP3   OH224735   2.111   5.438   2.760
 1059TIP3    H124736   2.153   5.514   2.718
 1059TIP3    H224737   2.073   5.389   2.688
 1060TIP3   OH224738   6.559   2.309   1.312
 1060TIP3    H124739   6.619   2.250   1.357
 1060TIP3    H224740   6.604   2.332   1.231
 1061TIP3   OH224741   1.534   3.494   1.686
 1061TIP3    H124742   1.527   3.552   1.610
 1061TIP3    H224743   1.448   3.500   1.728
 1062TIP3   OH224744   2.545   5.947   1.800
 1062TIP3    H124745   2.627   5.986   1.769
 1062TIP3    H224746   2.542   5.969   1.893
 1063TIP3   OH224747   5.062   3.921   8.077
 1063TIP3    H124748   4.997   3.910   8.146
 1063TIP3    H224749   5.017   3.974   8.011
 1064TIP3   OH224750   1.986   3.031   8.591
 1064TIP3    H124751   1.925   2.971   8.634
 1064TIP3    H224752   1.970   3.019   8.497
 1065TIP3   OH224753   0.198   3.907   0.865
 1065TIP3    H124754   0.196   3.835   0.928
 1065TIP3    H224755   0.279   3.893   0.817
 1066TIP3   OH224756   6.319   4.615   8.603
 1066TIP3    H124757   6.338   4.526   8.634
 1066TIP3    H224758   6.258   4.602   8.530
 1067TIP3   OH224759   3.446   0.532   7.936
 1067TIP3    H124760   3.426   0.440   7.951
 1067TIP3    H224761   3.378   0.561   7.875
 1068TIP3   OH224762   1.634   5.050   2.463
 1068TIP3    H124763   1.599   5.117   2.523
 1068TIP3    H224764   1.687   5.100   2.400
 1069TIP3   OH224765   1.032   5.050   7.337
 1069TIP3    H124766   1.119   5.039   7.298
 1069TIP3    H224767   1.035   5.138   7.375
 1070TIP3   OH224768   1.472   4.591   6.707
 1070TIP3    H124769   1.378   4.574   6.701
 1070TIP3    H224770   1.494   4.570   6.798
 1071TIP3   OH224771   3.803   2.554   8.149
 1071TIP3    H124772   3.724   2.558   8.204
 1071TIP3    H224773   3.822   2.461   8.142
 1072TIP3   OH224774   3.131   6.608   2.247
 1072TIP3    H124775   3.041   6.615   2.215
 1072TIP3    H224776   3.152   6.697   2.277
 1073TIP3   OH224777   2.513   6.473   1.157
 1073TIP3    H124778   2.511   6.421   1.238
 1073TIP3    H224779   2.482   6.413   1.089
 1074TIP3   OH224780   6.522   2.417   8.027
 1074TIP3    H124781   6.442   2.468   8.034
 1074TIP3    H224782   6.592   2.477   8.053
 1075TIP3   OH224783   0.371   4.682   6.885
 1075TIP3    H124784   0.378   4.733   6.804
 1075TIP3    H224785   0.328   4.601   6.858
 1076TIP3   OH224786   4.823   5.896   8.018
 1076TIP3    H124787   4.858   5.853   8.096
 1076TIP3    H224788   4.735   5.924   8.043
 1077TIP3   OH224789   5.993   5.212   7.600
 1077TIP3    H124790   6.019   5.303   7.587
 1077TIP3    H224791   5.898   5.216   7.616
 1078TIP3   OH224792   2.633   0.790   0.846
 1078TIP3    H124793   2.676   0.777   0.761
 1078TIP3    H224794   2.617   0.701   0.878
 1079TIP3   OH224795   2.574   3.292   8.456
 1079TIP3    H124796   2.541   3.269   8.543
 1079TIP3    H224797   2.553   3.385   8.446
 1080TIP3   OH224798   5.829   0.574   1.148
 1080TIP3    H124799   5.781   0.656   1.154
 1080TIP3    H224800   5.838   0.558   1.054
 1081TIP3   OH224801   2.217   3.656   1.662
 1081TIP3    H124802   2.174   3.725   1.712
 1081TIP3    H224803   2.228   3.584   1.725
 1082TIP3   OH224804   4.143   4.387   2.577
 1082TIP3    H124805   4.191   4.305   2.586
 1082TIP3    H224806   4.056   4.361   2.547
 1083TIP3   OH224807   1.383   0.242   0.520
 1083TIP3    H124808   1.363   0.149   0.536
 1083TIP3    H224809   1.424   0.271   0.601
 1084TIP3   OH224810   2.726   2.762   2.117
 1084TIP3    H124811   2.732   2.808   2.200
 1084TIP3    H224812   2.636   2.729   2.113
 1085TIP3   OH224813   6.312   2.908   6.685
 1085TIP3    H124814   6.267   2.992   6.701
 1085TIP3    H224815   6.325   2.907   6.590
 1086TIP3   OH224816   3.911   2.358   1.046
 1086TIP3    H124817   3.955   2.396   0.969
 1086TIP3    H224818   3.908   2.264   1.027
 1087TIP3   OH224819   2.582   1.531   0.039
 1087TIP3    H124820   2.588   1.470   0.113
 1087TIP3    H224821   2.602   1.477   8.675
 1088TIP3   OH224822   5.791   6.169   1.643
 1088TIP3    H124823   5.705   6.206   1.621
 1088TIP3    H224824   5.847   6.192   1.568
 1089TIP3   OH224825   1.236   3.430   0.157
 1089TIP3    H124826   1.236   3.430   0.253
 1089TIP3    H224827   1.311   3.377   0.133
 1090TIP3   OH224828   1.978   3.328   7.463
 1090TIP3    H124829   2.069   3.315   7.488
 1090TIP3    H224830   1.983   3.363   7.374
 1091TIP3   OH224831   2.639   3.224   7.095
 1091TIP3    H124832   2.661   3.140   7.055
 1091TIP3    H224833   2.545   3.219   7.113
 1092TIP3   OH224834   0.096   2.436   8.171
 1092TIP3    H124835   0.016   2.445   8.118
 1092TIP3    H224836   0.067   2.390   8.250
 1093TIP3   OH224837   1.045   1.406   0.451
 1093TIP3    H124838   1.132   1.371   0.470
 1093TIP3    H224839   1.060   1.468   0.380
 1094TIP3   OH224840   2.925   6.302   8.705
 1094TIP3    H124841   2.887   6.319   0.078
 1094TIP3    H224842   2.849   6.286   8.649
 1095TIP3   OH224843   0.377   2.695   8.009
 1095TIP3    H124844   0.402   2.619   8.061
 1095TIP3    H224845   0.367   2.766   8.072
 1096TIP3   OH224846   5.797   1.953   7.582
 1096TIP3    H124847   5.817   1.986   7.495
 1096TIP3    H224848   5.774   1.861   7.568
 1097TIP3   OH224849   2.448   6.526   0.006
 1097TIP3    H124850   2.363   6.567   8.701
 1097TIP3    H224851   2.492   6.588   0.064
 1098TIP3   OH224852   1.369   4.431   7.839
 1098TIP3    H124853   1.445   4.433   7.782
 1098TIP3    H224854   1.366   4.518   7.879
 1099TIP3   OH224855   6.499   4.132   1.107
 1099TIP3    H124856   6.580   4.170   1.075
 1099TIP3    H224857   6.527   4.064   1.168
 1100TIP3   OH224858   5.742   3.826   1.119
 1100TIP3    H124859   5.757   3.843   1.026
 1100TIP3    H224860   5.790   3.895   1.165
 1101TIP3   OH224861   0.689   3.551   7.946
 1101TIP3    H124862   0.615   3.569   8.005
 1101TIP3    H224863   0.756   3.615   7.972
 1102TIP3   OH224864   6.627   5.265   0.416
 1102TIP3    H124865   6.610   5.222   0.500
 1102TIP3    H224866   6.710   5.312   0.430
 1103TIP3   OH224867   2.290   0.780   8.203
 1103TIP3    H124868   2.203   0.742   8.215
 1103TIP3    H224869   2.350   0.713   8.236
 1104TIP3   OH224870   4.505   5.569   1.147
 1104TIP3    H124871   4.519   5.610   1.232
 1104TIP3    H224872   4.429   5.614   1.110
 1105TIP3   OH224873   2.490   5.466   1.906
 1105TIP3    H124874   2.444   5.430   1.982
 1105TIP3    H224875   2.529   5.547   1.938
 1106TIP3   OH224876   6.693   0.694   7.454
 1106TIP3    H124877   6.649   0.665   7.534
 1106TIP3    H224878   6.639   0.767   7.422
 1107TIP3   OH224879   1.704   1.236   8.255
 1107TIP3    H124880   1.771   1.192   8.203
 1107TIP3    H224881   1.752   1.286   8.320
 1108TIP3   OH224882   2.560   0.196   8.092
 1108TIP3    H124883   2.629   0.133   8.068
 1108TIP3    H224884   2.479   0.146   8.085
 1109TIP3   OH224885   1.370   5.228   1.085
 1109TIP3    H124886   1.403   5.139   1.099
 1109TIP3    H224887   1.364   5.266   1.173
 1110TIP3   OH224888   6.688   6.381   0.721
 1110TIP3    H124889   6.778   6.394   0.752
 1110TIP3    H224890   6.661   6.298   0.761
 1111TIP3   OH224891   5.225   3.975   0.743
 1111TIP3    H124892   5.231   4.036   0.669
 1111TIP3    H224893   5.204   4.031   0.818
 1112TIP3   OH224894   4.614   1.615   2.528
 1112TIP3    H124895   4.616   1.610   2.624
 1112TIP3    H224896   4.521   1.616   2.506
 1113TIP3   OH224897   4.229   5.501   1.548
 1113TIP3    H124898   4.300   5.485   1.610
 1113TIP3    H224899   4.220   5.596   1.546
 1114TIP3   OH224900   2.679   2.209   7.703
 1114TIP3    H124901   2.635   2.123   7.701
 1114TIP3    H224902   2.735   2.209   7.626
 1115TIP3   OH224903   0.503   2.113   6.368
 1115TIP3    H124904   0.488   2.206   6.383
 1115TIP3    H224905   0.430   2.069   6.412
 1116TIP3   OH224906   0.417   0.229   2.530
 1116TIP3    H124907   0.425   0.145   2.574
 1116TIP3    H224908   0.351   0.277   2.581
 1117TIP3   OH224909   6.771   0.063   8.540
 1117TIP3    H124910   6.805   6.825   8.577
 1117TIP3    H224911   6.708   0.094   8.606
 1118TIP3   OH224912   5.172   3.082   1.929
 1118TIP3    H124913   5.158   3.036   1.846
 1118TIP3    H224914   5.177   3.012   1.994
 1119TIP3   OH224915   6.349   4.425   6.933
 1119TIP3    H124916   6.313   4.444   6.846
 1119TIP3    H224917   6.334   4.505   6.983
 1120TIP3   OH224918   0.126   4.041   0.435
 1120TIP3    H124919   0.136   3.947   0.424
 1120TIP3    H224920   0.087   4.052   0.522
 1121TIP3   OH224921   1.022   3.091   2.378
 1121TIP3    H124922   0.927   3.090   2.391
 1121TIP3    H224923   1.058   3.091   2.467
 1122TIP3   OH224924   1.439   2.594   7.960
 1122TIP3    H124925   1.508   2.624   7.901
 1122TIP3    H224926   1.358   2.614   7.914
 1123TIP3   OH224927   1.701   2.709   6.614
 1123TIP3    H124928   1.778   2.705   6.671
 1123TIP3    H224929   1.690   2.803   6.596
 1124TIP3   OH224930   0.214   1.928   6.841
 1124TIP3    H124931   0.168   1.894   6.764
 1124TIP3    H224932   0.146   1.935   6.908
 1125TIP3   OH224933   1.368   0.808   2.250
 1125TIP3    H124934   1.443   0.797   2.191
 1125TIP3    H224935   1.398   0.773   2.334
 1126TIP3   OH224936   3.043   2.600   8.245
 1126TIP3    H124937   3.010   2.683   8.279
 1126TIP3    H224938   2.998   2.589   8.161
 1127TIP3   OH224939   2.276   5.553   6.897
 1127TIP3    H124940   2.348   5.503   6.858
 1127TIP3    H224941   2.313   5.589   6.978
 1128TIP3   OH224942   5.471   3.358   7.376
 1128TIP3    H124943   5.378   3.378   7.366
 1128TIP3    H224944   5.475   3.296   7.449
 1129TIP3   OH224945   5.345   1.164   1.385
 1129TIP3    H124946   5.383   1.110   1.454
 1129TIP3    H224947   5.335   1.104   1.311
 1130TIP3   OH224948   4.398   4.799   7.686
 1130TIP3    H124949   4.479   4.757   7.717
 1130TIP3    H224950   4.358   4.734   7.628
 1131TIP3   OH224951   0.505   5.188   1.289
 1131TIP3    H124952   0.456   5.182   1.207
 1131TIP3    H224953   0.479   5.272   1.326
 1132TIP3   OH224954   0.994   4.161   7.655
 1132TIP3    H124955   0.919   4.131   7.706
 1132TIP3    H224956   1.013   4.089   7.595
 1133TIP3   OH224957   4.819   1.873   2.180
 1133TIP3    H124958   4.740   1.926   2.175
 1133TIP3    H224959   4.876   1.907   2.111
 1134TIP3   OH224960   6.595   3.765   0.598
 1134TIP3    H124961   6.660   3.744   0.532
 1134TIP3    H224962   6.643   3.764   0.681
 1135TIP3   OH224963   0.824   6.440   7.214
 1135TIP3    H124964   0.916   6.465   7.207
 1135TIP3    H224965   0.803   6.402   7.129
 1136TIP3   OH224966   6.761   4.675   6.905
 1136TIP3    H124967   6.676   4.719   6.913
 1136TIP3    H224968   6.819   4.741   6.868
 1137TIP3   OH224969   1.262   3.179   1.510
 1137TIP3    H124970   1.308   3.167   1.593
 1137TIP3    H224971   1.170   3.163   1.530
 1138TIP3   OH224972   0.532   3.853   7.793
 1138TIP3    H124973   0.601   3.858   7.727
 1138TIP3    H224974   0.541   3.765   7.830
 1139TIP3   OH224975   0.687   0.479   2.105
 1139TIP3    H124976   0.706   0.565   2.144
 1139TIP3    H224977   0.628   0.437   2.167
 1140TIP3   OH224978   6.377   4.958   0.255
 1140TIP3    H124979   6.325   5.026   0.299
 1140TIP3    H224980   6.334   4.947   0.170
 1141TIP3   OH224981   1.155   3.121   8.614
 1141TIP3    H124982   1.248   3.135   8.629
 1141TIP3    H224983   1.134   3.176   8.539
 1142TIP3   OH224984   5.493   2.285   7.144
 1142TIP3    H124985   5.523   2.359   7.090
 1142TIP3    H224986   5.510   2.312   7.234
 1143TIP3   OH224987   0.933   0.988   8.435
 1143TIP3    H124988   0.848   0.944   8.438
 1143TIP3    H224989   0.949   1.002   8.341
 1144TIP3   OH224990   6.829   0.472   7.997
 1144TIP3    H124991   6.835   0.550   7.942
 1144TIP3    H224992   6.807   0.401   7.936
 1145TIP3   OH224993   1.205   4.534   8.302
 1145TIP3    H124994   1.207   4.543   8.397
 1145TIP3    H224995   1.118   4.499   8.283
 1146TIP3   OH224996   4.248   4.006   1.044
 1146TIP3    H124997   4.239   4.004   0.949
 1146TIP3    H224998   4.283   4.093   1.063
 1147TIP3   OH224999   4.093   2.037   8.583
 1147TIP3    H125000   4.137   2.116   8.612
 1147TIP3    H225001   4.071   2.055   8.491
 1148TIP3   OH225002   0.828   0.150   0.671
 1148TIP3    H125003   0.857   0.188   0.588
 1148TIP3    H225004   0.909   0.121   0.714
 1149TIP3   OH225005   6.777   5.886   8.589
 1149TIP3    H125006   6.682   5.899   8.599
 1149TIP3    H225007   6.784   5.806   8.537
 1150TIP3   OH225008   4.644   6.003   0.438
 1150TIP3    H125009   4.620   5.989   0.347
 1150TIP3    H225010   4.727   5.956   0.449
 1151TIP3   OH225011   3.346   5.308   0.845
 1151TIP3    H125012   3.415   5.305   0.911
 1151TIP3    H225013   3.392   5.311   0.761
 1152TIP3   OH225014   1.076   0.444   6.698
 1152TIP3    H125015   1.030   0.515   6.654
 1152TIP3    H225016   1.041   0.364   6.658
 1153TIP3   OH225017   1.999   1.661   1.025
 1153TIP3    H125018   2.039   1.621   1.102
 1153TIP3    H225019   2.072   1.700   0.977
 1154TIP3   OH225020   6.811   1.718   7.764
 1154TIP3    H125021   6.763   1.739   7.684
 1154TIP3    H225022   6.814   1.801   7.812
 1155TIP3   OH225023   0.012   1.776   8.209
 1155TIP3    H125024   6.815   1.826   8.280
 1155TIP3    H225025   6.803   1.696   8.205
 1156TIP3   OH225026   1.689   2.417   8.648
 1156TIP3    H125027   1.634   2.493   8.633
 1156TIP3    H225028   1.714   2.424   0.027
 1157TIP3   OH225029   5.282   1.841   0.242
 1157TIP3    H125030   5.342   1.780   0.200
 1157TIP3    H225031   5.309   1.927   0.212
 1158TIP3   OH225032   6.684   3.033   7.120
 1158TIP3    H125033   6.726   3.102   7.172
 1158TIP3    H225034   6.621   3.080   7.065
 1159TIP3   OH225035   4.749   4.729   0.544
 1159TIP3    H125036   4.702   4.806   0.577
 1159TIP3    H225037   4.791   4.692   0.622
 1160TIP3   OH225038   1.882   6.496   8.283
 1160TIP3    H125039   1.960   6.476   8.335
 1160TIP3    H225040   1.890   6.589   8.262
 1161TIP3   OH225041   0.924   1.962   6.516
 1161TIP3    H125042   0.887   1.946   6.429
 1161TIP3    H225043   0.916   2.056   6.529
 1162TIP3   OH225044   5.418   6.606   7.970
 1162TIP3    H125045   5.358   6.646   7.906
 1162TIP3    H225046   5.451   6.528   7.926
 1163TIP3   OH225047   3.879   4.720   2.014
 1163TIP3    H125048   3.873   4.658   2.087
 1163TIP3    H225049   3.960   4.768   2.030
 1164TIP3   OH225050   4.044   6.672   0.259
 1164TIP3    H125051   4.100   6.749   0.250
 1164TIP3    H225052   3.956   6.705   0.242
 1165TIP3   OH225053   6.103   6.761   1.125
 1165TIP3    H125054   6.122   6.785   1.034
 1165TIP3    H225055   6.181   6.713   1.154
 1166TIP3   OH225056   5.586   5.615   1.853
 1166TIP3    H125057   5.520   5.657   1.908
 1166TIP3    H225058   5.622   5.546   1.907
 1167TIP3   OH225059   3.391   3.883   6.587
 1167TIP3    H125060   3.310   3.836   6.568
 1167TIP3    H225061   3.411   3.930   6.506
 1168TIP3   OH225062   4.861   4.226   8.137
 1168TIP3    H125063   4.952   4.225   8.168
 1168TIP3    H225064   4.867   4.195   8.046
 1169TIP3   OH225065   4.680   3.582   0.840
 1169TIP3    H125066   4.727   3.576   0.757
 1169TIP3    H225067   4.625   3.660   0.831
 1170TIP3   OH225068   2.824   4.683   6.415
 1170TIP3    H125069   2.850   4.730   6.494
 1170TIP3    H225070   2.827   4.590   6.440
 1171TIP3   OH225071   5.032   6.018   7.606
 1171TIP3    H125072   5.020   6.103   7.564
 1171TIP3    H225073   4.944   5.994   7.636
 1172TIP3   OH225074   6.031   3.675   0.480
 1172TIP3    H125075   6.124   3.669   0.456
 1172TIP3    H225076   6.006   3.763   0.452
 1173TIP3   OH225077   6.466   4.923   8.401
 1173TIP3    H125078   6.552   4.890   8.375
 1173TIP3    H225079   6.452   4.999   8.345
 1174TIP3   OH225080   5.039   2.677   0.179
 1174TIP3    H125081   5.067   2.622   0.252
 1174TIP3    H225082   4.962   2.723   0.213
 1175TIP3   OH225083   2.249   3.178   7.530
 1175TIP3    H125084   2.291   3.202   7.448
 1175TIP3    H225085   2.301   3.222   7.598
 1176TIP3   OH225086   3.753   6.163   1.993
 1176TIP3    H125087   3.734   6.255   2.014
 1176TIP3    H225088   3.751   6.118   2.078
 1177TIP3   OH225089   4.441   2.894   2.357
 1177TIP3    H125090   4.527   2.878   2.397
 1177TIP3    H225091   4.461   2.934   2.273
 1178TIP3   OH225092   4.430   5.025   7.465
 1178TIP3    H125093   4.450   4.977   7.385
 1178TIP3    H225094   4.514   5.030   7.511
 1179TIP3   OH225095   0.289   0.482   0.194
 1179TIP3    H125096   0.265   0.399   0.154
 1179TIP3    H225097   0.385   0.480   0.199
 1180TIP3   OH225098   4.459   3.027   7.802
 1180TIP3    H125099   4.384   3.055   7.855
 1180TIP3    H225100   4.535   3.059   7.850
 1181TIP3   OH225101   0.818   4.627   2.216
 1181TIP3    H125102   0.872   4.570   2.272
 1181TIP3    H225103   0.728   4.604   2.238
 1182TIP3   OH225104   6.691   2.635   1.762
 1182TIP3    H125105   6.660   2.673   1.680
 1182TIP3    H225106   6.612   2.618   1.813
 1183TIP3   OH225107   3.414   3.283   0.258
 1183TIP3    H125108   3.476   3.219   0.222
 1183TIP3    H225109   3.349   3.229   0.305
 1184TIP3   OH225110   1.941   2.471   8.311
 1184TIP3    H125111   1.945   2.511   8.397
 1184TIP3    H225112   1.878   2.399   8.321
 1185TIP3   OH225113   3.360   0.726   1.268
 1185TIP3    H125114   3.339   0.684   1.185
 1185TIP3    H225115   3.332   0.663   1.335
 1186TIP3   OH225116   5.417   4.628   6.741
 1186TIP3    H125117   5.496   4.582   6.770
 1186TIP3    H225118   5.354   4.558   6.725
 1187TIP3   OH225119   4.855   0.676   0.620
 1187TIP3    H125120   4.829   0.722   0.700
 1187TIP3    H225121   4.830   0.734   0.549
 1188TIP3   OH225122   4.490   3.201   6.133
 1188TIP3    H125123   4.580   3.203   6.099
 1188TIP3    H225124   4.468   3.294   6.145
 1189TIP3   OH225125   0.077   3.410   8.494
 1189TIP3    H125126   0.055   3.360   8.415
 1189TIP3    H225127   0.104   3.345   8.558
 1190TIP3   OH225128   4.151   2.848   0.715
 1190TIP3    H125129   4.210   2.904   0.665
 1190TIP3    H225130   4.069   2.849   0.665
 1191TIP3   OH225131   0.290   3.144   0.183
 1191TIP3    H125132   0.384   3.162   0.173
 1191TIP3    H225133   0.273   3.161   0.276
 1192TIP3   OH225134   3.515   4.467   7.046
 1192TIP3    H125135   3.608   4.448   7.048
 1192TIP3    H225136   3.485   4.433   6.961
 1193TIP3   OH225137   6.632   1.965   7.595
 1193TIP3    H125138   6.584   2.002   7.669
 1193TIP3    H225139   6.703   2.028   7.579
 1194TIP3   OH225140   2.521   3.985   1.997
 1194TIP3    H125141   2.460   3.989   1.923
 1194TIP3    H225142   2.468   4.009   2.073
 1195TIP3   OH225143   4.467   1.953   8.137
 1195TIP3    H125144   4.461   1.941   8.043
 1195TIP3    H225145   4.561   1.948   8.156
 1196TIP3   OH225146   5.992   2.851   7.869
 1196TIP3    H125147   5.977   2.799   7.949
 1196TIP3    H225148   6.077   2.892   7.883
 1197TIP3   OH225149   0.928   4.018   1.716
 1197TIP3    H125150   0.994   4.005   1.649
 1197TIP3    H225151   0.847   4.032   1.668
 1198TIP3   OH225152   6.801   6.253   6.368
 1198TIP3    H125153   6.803   6.336   6.320
 1198TIP3    H225154   6.709   6.236   6.383
 1199TIP3   OH225155   0.465   3.893   0.734
 1199TIP3    H125156   0.550   3.877   0.774
 1199TIP3    H225157   0.476   3.977   0.689
 1200TIP3   OH225158   2.074   4.162   6.680
 1200TIP3    H125159   2.044   4.144   6.591
 1200TIP3    H225160   1.998   4.203   6.723
 1201TIP3   OH225161   5.234   0.601   6.719
 1201TIP3    H125162   5.251   0.580   6.628
 1201TIP3    H225163   5.321   0.613   6.758
 1202TIP3   OH225164   0.166   3.788   0.332
 1202TIP3    H125165   0.092   3.748   0.286
 1202TIP3    H225166   0.218   3.714   0.362
 1203TIP3   OH225167   6.837   5.147   1.665
 1203TIP3    H125168   6.750   5.115   1.643
 1203TIP3    H225169   0.015   5.105   1.749
 1204TIP3   OH225170   6.398   5.713   8.016
 1204TIP3    H125171   6.365   5.755   8.096
 1204TIP3    H225172   6.453   5.780   7.975
 1205TIP3   OH225173   1.294   5.029   0.158
 1205TIP3    H125174   1.375   5.000   0.116
 1205TIP3    H225175   1.262   4.952   0.205
 1206TIP3   OH225176   2.921   3.489   8.585
 1206TIP3    H125177   2.965   3.471   8.502
 1206TIP3    H225178   2.919   3.584   8.592
 1207TIP3   OH225179   6.308   2.553   8.142
 1207TIP3    H125180   6.218   2.581   8.156
 1207TIP3    H225181   6.361   2.614   8.195
 1208TIP3   OH225182   1.468   5.255   7.326
 1208TIP3    H125183   1.458   5.161   7.311
 1208TIP3    H225184   1.547   5.263   7.379
 1209TIP3   OH225185   3.495   2.854   1.232
 1209TIP3    H125186   3.523   2.785   1.292
 1209TIP3    H225187   3.453   2.807   1.159
 1210TIP3   OH225188   3.154   0.629   1.543
 1210TIP3    H125189   3.245   0.603   1.554
 1210TIP3    H225190   3.158   0.717   1.504
 1211TIP3   OH225191   0.471   3.717   1.519
 1211TIP3    H125192   0.548   3.675   1.558
 1211TIP3    H225193   0.410   3.645   1.502
 1212TIP3   OH225194   4.920   0.889   8.221
 1212TIP3    H125195   4.877   0.833   8.156
 1212TIP3    H225196   4.999   0.920   8.177
 1213TIP3   OH225197   6.405   5.326   7.879
 1213TIP3    H125198   6.372   5.411   7.849
 1213TIP3    H225199   6.338   5.264   7.850
 1214TIP3   OH225200   3.716   3.881   2.145
 1214TIP3    H125201   3.672   3.816   2.091
 1214TIP3    H225202   3.663   3.960   2.135
 1215TIP3   OH225203   2.175   2.514   7.395
 1215TIP3    H125204   2.105   2.457   7.363
 1215TIP3    H225205   2.236   2.454   7.438
 1216TIP3   OH225206   6.666   0.612   2.141
 1216TIP3    H125207   6.708   0.526   2.147
 1216TIP3    H225208   6.627   0.614   2.054
 1217TIP3   OH225209   4.798   1.659   7.361
 1217TIP3    H125210   4.862   1.721   7.397
 1217TIP3    H225211   4.814   1.661   7.267
 1218TIP3   OH225212   6.357   5.787   8.319
 1218TIP3    H125213   6.363   5.855   8.385
 1218TIP3    H225214   6.289   5.728   8.351
 1219TIP3   OH225215   3.596   6.542   2.475
 1219TIP3    H125216   3.546   6.552   2.556
 1219TIP3    H225217   3.534   6.565   2.405
 1220TIP3   OH225218   4.550   2.781   8.205
 1220TIP3    H125219   4.518   2.712   8.263
 1220TIP3    H225220   4.472   2.828   8.178
 1221TIP3   OH225221   1.266   5.089   7.168
 1221TIP3    H125222   1.325   5.160   7.144
 1221TIP3    H225223   1.226   5.062   7.085
 1222TIP3   OH225224   5.372   3.570   6.391
 1222TIP3    H125225   5.401   3.494   6.341
 1222TIP3    H225226   5.427   3.642   6.361
 1223TIP3   OH225227   0.046   5.599   8.105
 1223TIP3    H125228   6.826   5.656   8.061
 1223TIP3    H225229   0.047   5.519   8.053
 1224TIP3   OH225230   3.646   3.117   8.127
 1224TIP3    H125231   3.729   3.164   8.139
 1224TIP3    H225232   3.651   3.080   8.039
 1225TIP3   OH225233   0.488   5.845   0.843
 1225TIP3    H125234   0.578   5.841   0.809
 1225TIP3    H225235   0.489   5.790   0.921
 1226TIP3   OH225236   2.775   6.243   7.438
 1226TIP3    H125237   2.824   6.325   7.433
 1226TIP3    H225238   2.744   6.239   7.528
 1227TIP3   OH225239   1.311   6.230   6.476
 1227TIP3    H125240   1.217   6.233   6.459
 1227TIP3    H225241   1.344   6.314   6.443
 1228TIP3   OH225242   1.801   0.038   2.276
 1228TIP3    H125243   1.745   6.805   2.262
 1228TIP3    H225244   1.754   0.110   2.235
 1229TIP3   OH225245   0.766   4.533   1.714
 1229TIP3    H125246   0.822   4.558   1.788
 1229TIP3    H225247   0.799   4.585   1.640
 1230TIP3   OH225248   0.487   3.778   0.500
 1230TIP3    H125249   0.444   3.817   0.577
 1230TIP3    H225250   0.454   3.688   0.499
 1231TIP3   OH225251   6.611   6.557   0.028
 1231TIP3    H125252   6.646   6.477   8.703
 1231TIP3    H225253   6.624   6.547   0.122
 1232TIP3   OH225254   1.469   0.173   8.013
 1232TIP3    H125255   1.494   0.265   8.027
 1232TIP3    H225256   1.544   0.123   8.044
 1233TIP3   OH225257   4.602   5.840   7.799
 1233TIP3    H125258   4.631   5.809   7.884
 1233TIP3    H225259   4.509   5.861   7.810
 1234TIP3   OH225260   1.849   0.092   6.433
 1234TIP3    H125261   1.755   0.077   6.431
 1234TIP3    H225262   1.858   0.186   6.417
 1235TIP3   OH225263   6.404   5.352   6.607
 1235TIP3    H125264   6.435   5.330   6.519
 1235TIP3    H225265   6.449   5.290   6.665
 1236TIP3   OH225266   5.482   5.241   7.899
 1236TIP3    H125267   5.555   5.272   7.952
 1236TIP3    H225268   5.437   5.321   7.871
 1237TIP3   OH225269   5.561   1.074   0.566
 1237TIP3    H125270   5.515   1.099   0.486
 1237TIP3    H225271   5.492   1.047   0.627
 1238TIP3   OH225272   2.201   1.811   8.228
 1238TIP3    H125273   2.155   1.890   8.199
 1238TIP3    H225274   2.280   1.844   8.271
 1239TIP3   OH225275   3.042   2.133   1.645
 1239TIP3    H125276   3.036   2.067   1.714
 1239TIP3    H225277   3.049   2.216   1.691
 1240TIP3   OH225278   5.904   6.840   0.638
 1240TIP3    H125279   5.938   6.790   0.564
 1240TIP3    H225280   5.887   0.084   0.603
 1241TIP3   OH225281   1.611   1.841   0.900
 1241TIP3    H125282   1.526   1.880   0.879
 1241TIP3    H225283   1.595   1.794   0.981
 1242TIP3   OH225284   5.339   1.124   6.878
 1242TIP3    H125285   5.402   1.067   6.833
 1242TIP3    H225286   5.334   1.202   6.822
 1243TIP3   OH225287   4.886   4.249   1.120
 1243TIP3    H125288   4.868   4.189   1.192
 1243TIP3    H225289   4.801   4.289   1.100
 1244TIP3   OH225290   0.533   2.633   6.767
 1244TIP3    H125291   0.487   2.711   6.798
 1244TIP3    H225292   0.479   2.601   6.694
 1245TIP3   OH225293   3.013   5.240   0.116
 1245TIP3    H125294   2.968   5.282   0.189
 1245TIP3    H225295   3.099   5.218   0.151
 1246TIP3   OH225296   1.101   4.435   7.914
 1246TIP3    H125297   1.070   4.345   7.911
 1246TIP3    H225298   1.186   4.433   7.871
 1247TIP3   OH225299   4.915   2.622   7.861
 1247TIP3    H125300   4.821   2.604   7.861
 1247TIP3    H225301   4.953   2.551   7.914
 1248TIP3   OH225302   5.300   5.836   0.642
 1248TIP3    H125303   5.218   5.884   0.636
 1248TIP3    H225304   5.367   5.899   0.615
 1249TIP3   OH225305   1.612   0.726   2.065
 1249TIP3    H125306   1.687   0.773   2.100
 1249TIP3    H225307   1.638   0.634   2.065
 1250TIP3   OH225308   2.592   3.844   8.699
 1250TIP3    H125309   2.543   3.925   8.705
 1250TIP3    H225310   2.661   3.863   8.635
 1251TIP3   OH225311   1.239   4.830   8.203
 1251TIP3    H125312   1.241   4.739   8.231
 1251TIP3    H225313   1.151   4.860   8.225
 1252TIP3   OH225314   5.062   5.116   0.474
 1252TIP3    H125315   5.018   5.118   0.559
 1252TIP3    H225316   5.154   5.136   0.495
 1253TIP3   OH225317   4.159   0.113   0.273
 1253TIP3    H125318   4.186   0.185   0.329
 1253TIP3    H225319   4.082   0.146   0.226
 1254TIP3   OH225320   1.342   5.801   7.981
 1254TIP3    H125321   1.427   5.821   8.019
 1254TIP3    H225322   1.349   5.710   7.951
 1255TIP3   OH225323   3.314   2.517   8.219
 1255TIP3    H125324   3.321   2.426   8.248
 1255TIP3    H225325   3.225   2.543   8.243
 1256TIP3   OH225326   6.438   4.791   0.444
 1256TIP3    H125327   6.425   4.853   0.372
 1256TIP3    H225328   6.351   4.774   0.479
 1257TIP3   OH225329   6.516   3.759   1.585
 1257TIP3    H125330   6.535   3.852   1.576
 1257TIP3    H225331   6.426   3.750   1.555
 1258TIP3   OH225332   4.105   5.341   0.701
 1258TIP3    H125333   4.137   5.272   0.643
 1258TIP3    H225334   4.180   5.365   0.754
 1259TIP3   OH225335   6.063   6.156   8.526
 1259TIP3    H125336   6.120   6.206   8.584
 1259TIP3    H225337   6.079   6.192   8.439
 1260TIP3   OH225338   3.123   1.416   7.985
 1260TIP3    H125339   3.153   1.501   7.952
 1260TIP3    H225340   3.185   1.393   8.054
 1261TIP3   OH225341   5.836   6.651   2.655
 1261TIP3    H125342   5.908   6.689   2.606
 1261TIP3    H225343   5.792   6.727   2.695
 1262TIP3   OH225344   0.089   2.647   1.467
 1262TIP3    H125345   0.132   2.728   1.494
 1262TIP3    H225346   0.134   2.623   1.386
 1263TIP3   OH225347   0.797   6.354   7.991
 1263TIP3    H125348   0.743   6.314   8.060
 1263TIP3    H225349   0.879   6.307   7.994
 1264TIP3   OH225350   6.194   4.217   7.092
 1264TIP3    H125351   6.183   4.310   7.112
 1264TIP3    H225352   6.266   4.214   7.030
 1265TIP3   OH225353   0.056   0.432   8.260
 1265TIP3    H125354   0.044   0.343   8.293
 1265TIP3    H225355   0.005   0.435   8.180
 1266TIP3   OH225356   0.592   2.000   7.363
 1266TIP3    H125357   0.568   2.011   7.272
 1266TIP3    H225358   0.573   2.084   7.404
 1267TIP3   OH225359   3.756   5.209   7.806
 1267TIP3    H125360   3.789   5.148   7.872
 1267TIP3    H225361   3.755   5.158   7.725
 1268TIP3   OH225362   4.937   0.063   7.406
 1268TIP3    H125363   5.031   0.083   7.409
 1268TIP3    H225364   4.898   0.139   7.364
 1269TIP3   OH225365   5.333   4.097   0.277
 1269TIP3    H125366   5.402   4.037   0.305
 1269TIP3    H225367   5.333   4.090   0.181
 1270TIP3   OH225368   1.675   2.641   2.785
 1270TIP3    H125369   1.585   2.619   2.760
 1270TIP3    H225370   1.694   2.720   2.736
 1271TIP3   OH225371   4.016   1.246   2.439
 1271TIP3    H125372   4.079   1.224   2.371
 1271TIP3    H225373   4.065   1.301   2.500
 1272TIP3   OH225374   1.502   5.020   0.857
 1272TIP3    H125375   1.596   5.009   0.873
 1272TIP3    H225376   1.460   4.993   0.939
 1273TIP3   OH225377   2.154   6.379   1.296
 1273TIP3    H125378   2.152   6.454   1.356
 1273TIP3    H225379   2.216   6.317   1.336
 1274TIP3   OH225380   3.854   0.459   0.685
 1274TIP3    H125381   3.810   0.510   0.753
 1274TIP3    H225382   3.930   0.512   0.661
 1275TIP3   OH225383   0.954   3.950   0.400
 1275TIP3    H125384   0.911   3.943   0.315
 1275TIP3    H225385   0.887   3.984   0.459
 1276TIP3   OH225386   4.388   1.083   1.427
 1276TIP3    H125387   4.457   1.020   1.445
 1276TIP3    H225388   4.313   1.053   1.479
 1277TIP3   OH225389   4.978   1.329   8.238
 1277TIP3    H125390   4.994   1.265   8.168
 1277TIP3    H225391   4.883   1.330   8.249
 1278TIP3   OH225392   2.758   2.722   0.117
 1278TIP3    H125393   2.726   2.645   0.069
 1278TIP3    H225394   2.699   2.792   0.091
 1279TIP3   OH225395   5.343   2.028   1.740
 1279TIP3    H125396   5.260   1.986   1.717
 1279TIP3    H225397   5.329   2.062   1.828
 1280TIP3   OH225398   3.460   6.161   2.201
 1280TIP3    H125399   3.455   6.111   2.283
 1280TIP3    H225400   3.417   6.244   2.221
 1281TIP3   OH225401   6.016   2.218   0.997
 1281TIP3    H125402   6.000   2.300   0.952
 1281TIP3    H225403   6.089   2.178   0.948
 1282TIP3   OH225404   2.210   3.194   6.816
 1282TIP3    H125405   2.189   3.184   6.723
 1282TIP3    H225406   2.126   3.213   6.858
 1283TIP3   OH225407   4.869   2.636   6.724
 1283TIP3    H125408   4.848   2.629   6.631
 1283TIP3    H225409   4.954   2.593   6.733
 1284TIP3   OH225410   5.336   3.877   6.428
 1284TIP3    H125411   5.262   3.932   6.452
 1284TIP3    H225412   5.406   3.939   6.405
 1285TIP3   OH225413   0.705   2.813   7.161
 1285TIP3    H125414   0.728   2.842   7.073
 1285TIP3    H225415   0.688   2.720   7.152
 1286TIP3   OH225416   4.242   0.723   2.336
 1286TIP3    H125417   4.228   0.642   2.287
 1286TIP3    H225418   4.183   0.716   2.411
 1287TIP3   OH225419   0.701   3.383   1.782
 1287TIP3    H125420   0.772   3.389   1.846
 1287TIP3    H225421   0.640   3.319   1.820
 1288TIP3   OH225422   4.849   2.872   7.770
 1288TIP3    H125423   4.891   2.786   7.780
 1288TIP3    H225424   4.792   2.879   7.846
 1289TIP3   OH225425   5.896   1.257   1.232
 1289TIP3    H125426   5.932   1.338   1.196
 1289TIP3    H225427   5.868   1.280   1.321
 1290TIP3   OH225428   1.387   3.910   1.773
 1290TIP3    H125429   1.389   4.001   1.745
 1290TIP3    H225430   1.470   3.873   1.741
 1291TIP3   OH225431   4.046   6.216   1.985
 1291TIP3    H125432   3.957   6.190   2.009
 1291TIP3    H225433   4.073   6.276   2.055
 1292TIP3   OH225434   2.609   0.299   1.800
 1292TIP3    H125435   2.586   0.375   1.852
 1292TIP3    H225436   2.638   0.234   1.863
 1293TIP3   OH225437   2.537   5.561   8.023
 1293TIP3    H125438   2.556   5.577   7.930
 1293TIP3    H225439   2.535   5.465   8.030
 1294TIP3   OH225440   2.306   5.985   0.016
 1294TIP3    H125441   2.370   6.013   0.081
 1294TIP3    H225442   2.236   5.945   0.068
 1295TIP3   OH225443   2.096   5.014   8.713
 1295TIP3    H125444   2.118   5.015   8.619
 1295TIP3    H225445   2.150   5.083   0.037
 1296TIP3   OH225446   2.127   5.471   7.234
 1296TIP3    H125447   2.149   5.390   7.189
 1296TIP3    H225448   2.211   5.505   7.265
 1297TIP3   OH225449   3.720   3.681   6.974
 1297TIP3    H125450   3.786   3.657   6.909
 1297TIP3    H225451   3.707   3.775   6.962
 1298TIP3   OH225452   2.737   2.091   1.052
 1298TIP3    H125453   2.750   2.032   0.977
 1298TIP3    H225454   2.823   2.095   1.094
 1299TIP3   OH225455   4.202   1.407   8.579
 1299TIP3    H125456   4.231   1.353   8.505
 1299TIP3    H225457   4.267   1.389   8.648
 1300TIP3   OH225458   2.484   5.774   7.309
 1300TIP3    H125459   2.499   5.856   7.262
 1300TIP3    H225460   2.568   5.754   7.351
 1301TIP3   OH225461   4.482   1.158   0.901
 1301TIP3    H125462   4.565   1.160   0.853
 1301TIP3    H225463   4.419   1.120   0.839
 1302TIP3   OH225464   0.075   6.258   7.346
 1302TIP3    H125465   0.171   6.260   7.344
 1302TIP3    H225466   0.054   6.237   7.437
 1303TIP3   OH225467   0.492   1.240   2.015
 1303TIP3    H125468   0.567   1.207   1.965
 1303TIP3    H225469   0.463   1.164   2.066
 1304TIP3   OH225470   1.121   1.105   0.415
 1304TIP3    H125471   1.046   1.137   0.466
 1304TIP3    H225472   1.087   1.099   0.325
 1305TIP3   OH225473   3.889   5.332   1.642
 1305TIP3    H125474   3.878   5.284   1.725
 1305TIP3    H225475   3.804   5.374   1.628
 1306TIP3   OH225476   1.319   0.270   5.925
 1306TIP3    H125477   1.355   0.189   5.888
 1306TIP3    H225478   1.237   0.284   5.877
 1307TIP3   OH225479   3.050   5.293   2.360
 1307TIP3    H125480   3.120   5.254   2.307
 1307TIP3    H225481   3.093   5.364   2.408
 1308TIP3   OH225482   2.493   3.113   7.903
 1308TIP3    H125483   2.493   3.157   7.817
 1308TIP3    H225484   2.564   3.155   7.951
 1309TIP3   OH225485   2.997   1.965   2.390
 1309TIP3    H125486   2.947   1.943   2.469
 1309TIP3    H225487   3.052   1.888   2.375
 1310TIP3   OH225488   1.129   0.056   1.221
 1310TIP3    H125489   1.132   6.809   1.254
 1310TIP3    H225490   1.044   0.062   1.177
 1311TIP3   OH225491   1.497   2.110   0.587
 1311TIP3    H125492   1.499   2.024   0.544
 1311TIP3    H225493   1.404   2.132   0.592
 1312TIP3   OH225494   6.661   6.100   1.479
 1312TIP3    H125495   6.686   6.055   1.399
 1312TIP3    H225496   6.638   6.030   1.540
 1313TIP3   OH225497   1.931   2.783   0.822
 1313TIP3    H125498   2.019   2.801   0.788
 1313TIP3    H225499   1.933   2.690   0.846
 1314TIP3   OH225500   1.482   3.441   1.339
 1314TIP3    H125501   1.500   3.361   1.388
 1314TIP3    H225502   1.390   3.432   1.311
 1315TIP3   OH225503   1.454   1.126   1.767
 1315TIP3    H125504   1.363   1.112   1.791
 1315TIP3    H225505   1.478   1.209   1.809
 1316TIP3   OH225506   4.623   6.480   6.581
 1316TIP3    H125507   4.624   6.394   6.624
 1316TIP3    H225508   4.593   6.462   6.492
 1317TIP3   OH225509   0.069   5.012   1.877
 1317TIP3    H125510   0.158   5.017   1.845
 1317TIP3    H225511   0.076   5.026   1.971
 1318TIP3   OH225512   5.470   4.573   0.811
 1318TIP3    H125513   5.478   4.534   0.898
 1318TIP3    H225514   5.547   4.630   0.803
 1319TIP3   OH225515   5.469   3.877   1.093
 1319TIP3    H125516   5.500   3.936   1.162
 1319TIP3    H225517   5.524   3.800   1.101
 1320TIP3   OH225518   6.327   2.168   8.368
 1320TIP3    H125519   6.409   2.217   8.370
 1320TIP3    H225520   6.351   2.079   8.392
 1321TIP3   OH225521   0.425   0.005   8.595
 1321TIP3    H125522   0.399   0.024   8.686
 1321TIP3    H225523   0.487   6.776   8.602
 1322TIP3   OH225524   0.789   1.381   0.485
 1322TIP3    H125525   0.882   1.374   0.463
 1322TIP3    H225526   0.776   1.316   0.554
 1323TIP3   OH225527   1.267   1.734   7.171
 1323TIP3    H125528   1.343   1.792   7.166
 1323TIP3    H225529   1.284   1.667   7.106
 1324TIP3   OH225530   3.452   0.766   7.236
 1324TIP3    H125531   3.414   0.743   7.151
 1324TIP3    H225532   3.446   0.685   7.287
 1325TIP3   OH225533   4.591   1.083   1.172
 1325TIP3    H125534   4.561   1.132   1.096
 1325TIP3    H225535   4.680   1.116   1.188
 1326TIP3   OH225536   4.439   4.511   1.986
 1326TIP3    H125537   4.377   4.507   1.913
 1326TIP3    H225538   4.524   4.492   1.948
 1327TIP3   OH225539   4.511   6.430   7.953
 1327TIP3    H125540   4.549   6.346   7.980
 1327TIP3    H225541   4.452   6.408   7.881
 1328TIP3   OH225542   3.252   1.875   2.185
 1328TIP3    H125543   3.302   1.814   2.131
 1328TIP3    H225544   3.303   1.883   2.266
 1329TIP3   OH225545   0.233   5.337   1.757
 1329TIP3    H125546   0.254   5.332   1.850
 1329TIP3    H225547   0.198   5.251   1.735
 1330TIP3   OH225548   0.222   2.571   0.277
 1330TIP3    H125549   0.283   2.533   0.340
 1330TIP3    H225550   0.136   2.541   0.307
 1331TIP3   OH225551   6.748   0.727   1.707
 1331TIP3    H125552   6.792   0.649   1.672
 1331TIP3    H225553   6.680   0.747   1.642
 1332TIP3   OH225554   6.715   3.374   0.277
 1332TIP3    H125555   6.713   3.278   0.273
 1332TIP3    H225556   6.800   3.398   0.240
 1333TIP3   OH225557   5.229   2.105   8.375
 1333TIP3    H125558   5.290   2.087   8.304
 1333TIP3    H225559   5.284   2.119   8.451
 1334TIP3   OH225560   3.724   1.324   1.254
 1334TIP3    H125561   3.805   1.365   1.286
 1334TIP3    H225562   3.662   1.397   1.246
 1335TIP3   OH225563   1.939   0.341   6.319
 1335TIP3    H125564   2.005   0.298   6.265
 1335TIP3    H225565   1.974   0.335   6.408
 1336TIP3   OH225566   0.024   1.386   1.195
 1336TIP3    H125567   6.789   1.442   1.188
 1336TIP3    H225568   0.030   1.343   1.110
 1337TIP3   OH225569   4.023   4.962   1.682
 1337TIP3    H125570   3.978   5.034   1.727
 1337TIP3    H225571   4.116   4.986   1.685
 1338TIP3   OH225572   5.275   0.828   1.288
 1338TIP3    H125573   5.258   0.753   1.231
 1338TIP3    H225574   5.241   0.903   1.240
 1339TIP3   OH225575   4.735   5.978   8.388
 1339TIP3    H125576   4.736   6.062   8.434
 1339TIP3    H225577   4.778   5.918   8.448
 1340TIP3   OH225578   4.625   5.446   6.291
 1340TIP3    H125579   4.712   5.420   6.260
 1340TIP3    H225580   4.573   5.366   6.285
 1341TIP3   OH225581   4.320   3.864   6.766
 1341TIP3    H125582   4.404   3.819   6.759
 1341TIP3    H225583   4.285   3.837   6.851
 1342TIP3   OH225584   0.079   2.487   7.657
 1342TIP3    H125585   0.102   2.543   7.732
 1342TIP3    H225586   0.154   2.428   7.647
 1343TIP3   OH225587   6.495   4.162   7.136
 1343TIP3    H125588   6.567   4.110   7.173
 1343TIP3    H225589   6.483   4.126   7.048
 1344TIP3   OH225590   0.824   1.041   0.453
 1344TIP3    H125591   0.735   1.032   0.488
 1344TIP3    H225592   0.824   0.985   0.375
 1345TIP3   OH225593   6.349   6.096   0.134
 1345TIP3    H125594   6.255   6.114   0.130
 1345TIP3    H225595   6.386   6.168   0.185
 1346TIP3   OH225596   5.410   5.570   8.246
 1346TIP3    H125597   5.315   5.580   8.240
 1346TIP3    H225598   5.442   5.588   8.157
 1347TIP3   OH225599   0.399   1.023   6.459
 1347TIP3    H125600   0.456   0.955   6.423
 1347TIP3    H225601   0.457   1.100   6.467
 1348TIP3   OH225602   2.650   3.159   1.434
 1348TIP3    H125603   2.644   3.187   1.525
 1348TIP3    H225604   2.562   3.173   1.399
 1349TIP3   OH225605   1.100   0.061   0.150
 1349TIP3    H125606   1.190   0.089   0.136
 1349TIP3    H225607   1.051   0.142   0.161
 1350TIP3   OH225608   2.249   3.750   8.148
 1350TIP3    H125609   2.234   3.733   8.241
 1350TIP3    H225610   2.162   3.769   8.113
 1351TIP3   OH225611   2.133   5.687   1.051
 1351TIP3    H125612   2.088   5.611   1.087
 1351TIP3    H225613   2.221   5.682   1.089
 1352TIP3   OH225614   0.835   3.097   7.843
 1352TIP3    H125615   0.865   3.122   7.930
 1352TIP3    H225616   0.819   3.003   7.849
 1353TIP3   OH225617   4.988   2.168   6.612
 1353TIP3    H125618   5.033   2.083   6.611
 1353TIP3    H225619   4.895   2.145   6.611
 1354TIP3   OH225620   2.332   6.728   0.884
 1354TIP3    H125621   2.244   6.695   0.865
 1354TIP3    H225622   2.368   6.751   0.799
 1355TIP3   OH225623   5.270   4.507   8.518
 1355TIP3    H125624   5.200   4.480   8.459
 1355TIP3    H225625   5.228   4.570   8.578
 1356TIP3   OH225626   5.118   2.873   7.456
 1356TIP3    H125627   5.052   2.941   7.446
 1356TIP3    H225628   5.068   2.792   7.463
 1357TIP3   OH225629   2.929   2.544   0.868
 1357TIP3    H125630   3.014   2.580   0.842
 1357TIP3    H225631   2.936   2.532   0.963
 1358TIP3   OH225632   4.967   6.409   2.199
 1358TIP3    H125633   4.951   6.445   2.287
 1358TIP3    H225634   4.922   6.469   2.140
 1359TIP3   OH225635   6.790   1.110   1.249
 1359TIP3    H125636   0.022   1.083   1.302
 1359TIP3    H225637   6.779   1.203   1.269
 1360TIP3   OH225638   4.196   1.367   1.340
 1360TIP3    H125639   4.215   1.338   1.251
 1360TIP3    H225640   4.263   1.325   1.394
 1361TIP3   OH225641   2.902   1.914   6.750
 1361TIP3    H125642   2.976   1.973   6.763
 1361TIP3    H225643   2.828   1.958   6.792
 1362TIP3   OH225644   0.148   0.349   7.349
 1362TIP3    H125645   0.235   0.330   7.312
 1362TIP3    H225646   0.124   0.433   7.311
 1363TIP3   OH225647   1.147   6.036   0.126
 1363TIP3    H125648   1.104   6.072   0.203
 1363TIP3    H225649   1.241   6.044   0.146
 1364TIP3   OH225650   5.579   4.039   6.133
 1364TIP3    H125651   5.601   4.034   6.226
 1364TIP3    H225652   5.626   3.966   6.092
 1365TIP3   OH225653   1.611   1.496   0.016
 1365TIP3    H125654   1.589   1.513   8.637
 1365TIP3    H225655   1.536   1.529   0.065
 1366TIP3   OH225656   6.808   1.888   1.958
 1366TIP3    H125657   0.049   1.927   1.982
 1366TIP3    H225658   6.779   1.842   2.037
 1367TIP3   OH225659   2.783   3.980   6.561
 1367TIP3    H125660   2.849   4.029   6.511
 1367TIP3    H225661   2.812   3.889   6.557
 1368TIP3   OH225662   0.276   4.811   8.524
 1368TIP3    H125663   0.287   4.760   8.443
 1368TIP3    H225664   0.273   4.745   8.593
 1369TIP3   OH225665   3.352   2.602   0.254
 1369TIP3    H125666   3.416   2.546   0.299
 1369TIP3    H225667   3.348   2.681   0.308
 1370TIP3   OH225668   3.073   2.767   1.405
 1370TIP3    H125669   3.020   2.847   1.402
 1370TIP3    H225670   3.063   2.735   1.494
 1371TIP3   OH225671   1.504   3.658   7.902
 1371TIP3    H125672   1.495   3.691   7.812
 1371TIP3    H225673   1.559   3.580   7.893
 1372TIP3   OH225674   2.458   3.113   6.859
 1372TIP3    H125675   2.489   3.153   6.779
 1372TIP3    H225676   2.363   3.127   6.858
 1373TIP3   OH225677   1.406   2.308   0.885
 1373TIP3    H125678   1.391   2.388   0.935
 1373TIP3    H225679   1.388   2.237   0.946
 1374TIP3   OH225680   3.910   3.391   8.476
 1374TIP3    H125681   3.848   3.436   8.418
 1374TIP3    H225682   3.906   3.441   8.558
 1375TIP3   OH225683   4.666   4.063   0.153
 1375TIP3    H125684   4.676   4.138   0.213
 1375TIP3    H225685   4.639   3.991   0.210
 1376TIP3   OH225686   4.837   5.541   7.031
 1376TIP3    H125687   4.872   5.568   6.946
 1376TIP3    H225688   4.905   5.565   7.094
 1377TIP3   OH225689   2.834   0.747   8.136
 1377TIP3    H125690   2.795   0.732   8.223
 1377TIP3    H225691   2.776   0.699   8.076
 1378TIP3   OH225692   5.901   5.435   1.761
 1378TIP3    H125693   5.857   5.515   1.735
 1378TIP3    H225694   5.957   5.413   1.686
 1379TIP3   OH225695   5.910   4.710   1.035
 1379TIP3    H125696   5.912   4.737   0.943
 1379TIP3    H225697   5.941   4.787   1.083
 1380TIP3   OH225698   3.913   3.109   0.730
 1380TIP3    H125699   4.008   3.118   0.729
 1380TIP3    H225700   3.895   3.056   0.808
 1381TIP3   OH225701   6.024   3.899   1.173
 1381TIP3    H125702   6.071   3.825   1.212
 1381TIP3    H225703   5.990   3.948   1.248
 1382TIP3   OH225704   0.221   5.783   0.026
 1382TIP3    H125705   0.245   5.792   0.118
 1382TIP3    H225706   0.142   5.729   0.027
 1383TIP3   OH225707   3.196   2.830   2.593
 1383TIP3    H125708   3.178   2.739   2.569
 1383TIP3    H225709   3.259   2.860   2.528
 1384TIP3   OH225710   4.709   0.234   0.501
 1384TIP3    H125711   4.738   0.318   0.537
 1384TIP3    H225712   4.723   0.172   0.572
 1385TIP3   OH225713   4.786   3.823   0.967
 1385TIP3    H125714   4.804   3.733   0.993
 1385TIP3    H225715   4.690   3.829   0.967
 1386TIP3   OH225716   5.245   0.420   1.880
 1386TIP3    H125717   5.218   0.508   1.854
 1386TIP3    H225718   5.336   0.430   1.908
 1387TIP3   OH225719   3.892   6.255   8.417
 1387TIP3    H125720   3.872   6.320   8.349
 1387TIP3    H225721   3.896   6.172   8.370
 1388TIP3   OH225722   4.601   5.869   1.518
 1388TIP3    H125723   4.558   5.927   1.581
 1388TIP3    H225724   4.642   5.802   1.572
 1389TIP3   OH225725   0.594   3.254   7.474
 1389TIP3    H125726   0.579   3.216   7.560
 1389TIP3    H225727   0.613   3.178   7.418
 1390TIP3   OH225728   5.619   4.320   1.244
 1390TIP3    H125729   5.705   4.315   1.285
 1390TIP3    H225730   5.610   4.238   1.195
 1391TIP3   OH225731   0.236   3.440   7.488
 1391TIP3    H125732   0.183   3.404   7.417
 1391TIP3    H225733   0.256   3.529   7.459
 1392TIP3   OH225734   4.734   1.075   0.819
 1392TIP3    H125735   4.812   1.051   0.869
 1392TIP3    H225736   4.694   0.991   0.795
 1393TIP3   OH225737   0.459   5.099   7.142
 1393TIP3    H125738   0.378   5.127   7.184
 1393TIP3    H225739   0.527   5.119   7.206
 1394TIP3   OH225740   6.577   3.196   6.899
 1394TIP3    H125741   6.538   3.253   6.964
 1394TIP3    H225742   6.507   3.181   6.835
 1395TIP3   OH225743   3.206   4.593   0.120
 1395TIP3    H125744   3.122   4.551   0.103
 1395TIP3    H225745   3.270   4.541   0.071
 1396TIP3   OH225746   3.288   3.182   1.229
 1396TIP3    H125747   3.330   3.097   1.214
 1396TIP3    H225748   3.284   3.223   1.143
 1397TIP3   OH225749   3.601   0.694   2.576
 1397TIP3    H125750   3.602   0.598   2.575
 1397TIP3    H225751   3.512   0.717   2.603
 1398TIP3   OH225752   5.840   5.664   0.582
 1398TIP3    H125753   5.838   5.579   0.538
 1398TIP3    H225754   5.765   5.711   0.545
 1399TIP3   OH225755   1.632   4.950   7.516
 1399TIP3    H125756   1.553   4.976   7.563
 1399TIP3    H225757   1.666   5.031   7.478
 1400TIP3   OH225758   5.023   5.014   7.445
 1400TIP3    H125759   5.090   5.050   7.504
 1400TIP3    H225760   5.016   4.922   7.471
 1401TIP3   OH225761   2.364   6.804   7.482
 1401TIP3    H125762   2.356   6.714   7.451
 1401TIP3    H225763   2.400   0.009   7.408
 1402TIP3   OH225764   3.825   6.172   0.527
 1402TIP3    H125765   3.802   6.264   0.515
 1402TIP3    H225766   3.771   6.144   0.601
 1403TIP3   OH225767   4.186   5.576   8.093
 1403TIP3    H125768   4.222   5.489   8.078
 1403TIP3    H225769   4.111   5.562   8.150
 1404TIP3   OH225770   5.685   4.826   7.897
 1404TIP3    H125771   5.686   4.803   7.804
 1404TIP3    H225772   5.706   4.919   7.899
 1405TIP3   OH225773   6.670   0.432   7.590
 1405TIP3    H125774   6.712   0.405   7.672
 1405TIP3    H225775   6.602   0.494   7.618
 1406TIP3   OH225776   6.348   4.258   1.508
 1406TIP3    H125777   6.441   4.279   1.502
 1406TIP3    H225778   6.337   4.226   1.598
 1407TIP3   OH225779   5.285   2.233   6.791
 1407TIP3    H125780   5.360   2.286   6.763
 1407TIP3    H225781   5.270   2.172   6.719
 1408TIP3   OH225782   1.813   6.764   7.147
 1408TIP3    H125783   1.838   6.779   7.055
 1408TIP3    H225784   1.754   6.836   7.167
 1409TIP3   OH225785   0.503   3.327   0.993
 1409TIP3    H125786   0.570   3.313   0.927
 1409TIP3    H225787   0.489   3.240   1.032
 1410TIP3   OH225788   1.769   3.530   6.482
 1410TIP3    H125789   1.679   3.529   6.515
 1410TIP3    H225790   1.822   3.499   6.555
 1411TIP3   OH225791   5.271   2.126   0.184
 1411TIP3    H125792   5.192   2.107   0.234
 1411TIP3    H225793   5.318   2.191   0.236
 1412TIP3   OH225794   4.852   3.372   7.402
 1412TIP3    H125795   4.832   3.334   7.317
 1412TIP3    H225796   4.819   3.462   7.397
 1413TIP3   OH225797   2.136   5.616   0.359
 1413TIP3    H125798   2.048   5.642   0.386
 1413TIP3    H225799   2.175   5.579   0.439
 1414TIP3   OH225800   1.327   6.239   0.440
 1414TIP3    H125801   1.251   6.283   0.401
 1414TIP3    H225802   1.340   6.283   0.524
 1415TIP3   OH225803   5.150   5.674   8.019
 1415TIP3    H125804   5.084   5.614   8.055
 1415TIP3    H225805   5.098   5.741   7.974
 1416TIP3   OH225806   0.189   0.749   2.164
 1416TIP3    H125807   0.267   0.800   2.141
 1416TIP3    H225808   0.116   0.810   2.150
 1417TIP3   OH225809   0.730   4.174   0.457
 1417TIP3    H125810   0.760   4.259   0.488
 1417TIP3    H225811   0.779   4.159   0.375
 1418TIP3   OH225812   4.278   0.634   7.933
 1418TIP3    H125813   4.202   0.582   7.907
 1418TIP3    H225814   4.271   0.640   8.028
 1419TIP3   OH225815   3.916   3.528   7.050
 1419TIP3    H125816   3.985   3.579   7.092
 1419TIP3    H225817   3.837   3.581   7.062
 1420TIP3   OH225818   2.560   1.341   7.064
 1420TIP3    H125819   2.604   1.276   7.009
 1420TIP3    H225820   2.625   1.364   7.131
 1421TIP3   OH225821   3.306   3.090   7.888
 1421TIP3    H125822   3.369   3.024   7.918
 1421TIP3    H225823   3.238   3.039   7.843
 1422TIP3   OH225824   0.307   0.705   6.671
 1422TIP3    H125825   0.284   0.622   6.630
 1422TIP3    H225826   0.272   0.699   6.760
 1423TIP3   OH225827   3.799   5.987   8.098
 1423TIP3    H125828   3.729   5.923   8.087
 1423TIP3    H225829   3.812   5.991   8.193
 1424TIP3   OH225830   3.290   4.590   1.041
 1424TIP3    H125831   3.316   4.576   0.950
 1424TIP3    H225832   3.357   4.649   1.077
 1425TIP3   OH225833   6.556   0.757   1.502
 1425TIP3    H125834   6.473   0.709   1.511
 1425TIP3    H225835   6.531   0.841   1.462
 1426TIP3   OH225836   4.291   0.650   1.367
 1426TIP3    H125837   4.383   0.635   1.344
 1426TIP3    H225838   4.266   0.727   1.316
 1427TIP3   OH225839   3.204   1.721   8.474
 1427TIP3    H125840   3.120   1.692   8.511
 1427TIP3    H225841   3.253   1.640   8.460
 1428TIP3   OH225842   1.233   5.014   7.974
 1428TIP3    H125843   1.253   4.960   8.050
 1428TIP3    H225844   1.268   5.100   7.996
 1429TIP3   OH225845   5.842   1.460   7.902
 1429TIP3    H125846   5.789   1.458   7.822
 1429TIP3    H225847   5.858   1.553   7.918
 1430TIP3   OH225848   3.992   0.354   0.343
 1430TIP3    H125849   4.018   0.445   0.331
 1430TIP3    H225850   3.900   0.351   0.314
 1431TIP3   OH225851   0.019   4.537   8.409
 1431TIP3    H125852   0.107   4.504   8.390
 1431TIP3    H225853   6.820   4.466   8.459
 1432TIP3   OH225854   4.624   6.002   7.371
 1432TIP3    H125855   4.587   6.018   7.284
 1432TIP3    H225856   4.621   5.907   7.381
 1433TIP3   OH225857   0.039   3.731   6.169
 1433TIP3    H125858   0.064   3.822   6.181
 1433TIP3    H225859   0.118   3.681   6.192
 1434TIP3   OH225860   2.963   0.906   8.699
 1434TIP3    H125861   2.990   0.877   8.612
 1434TIP3    H225862   2.886   0.853   0.006
 1435TIP3   OH225863   2.657   6.071   6.529
 1435TIP3    H125864   2.693   5.995   6.575
 1435TIP3    H225865   2.730   6.133   6.523
 1436TIP3   OH225866   6.308   3.974   0.921
 1436TIP3    H125867   6.380   3.924   0.958
 1436TIP3    H225868   6.254   3.998   0.997
 1437TIP3   OH225869   6.450   1.418   7.812
 1437TIP3    H125870   6.542   1.412   7.786
 1437TIP3    H225871   6.452   1.449   7.902
 1438TIP3   OH225872   2.813   4.864   0.590
 1438TIP3    H125873   2.814   4.944   0.642
 1438TIP3    H225874   2.796   4.794   0.653
 1439TIP3   OH225875   0.530   0.424   2.362
 1439TIP3    H125876   0.443   0.455   2.337
 1439TIP3    H225877   0.518   0.385   2.448
 1440TIP3   OH225878   6.257   1.619   7.383
 1440TIP3    H125879   6.331   1.573   7.423
 1440TIP3    H225880   6.188   1.617   7.449
 1441TIP3   OH225881   6.477   0.383   1.785
 1441TIP3    H125882   6.419   0.319   1.827
 1441TIP3    H225883   6.535   0.331   1.731
 1442TIP3   OH225884   4.337   1.390   7.402
 1442TIP3    H125885   4.340   1.312   7.348
 1442TIP3    H225886   4.420   1.435   7.384
 1443TIP3   OH225887   6.218   4.661   7.022
 1443TIP3    H125888   6.139   4.632   6.976
 1443TIP3    H225889   6.200   4.752   7.044
 1444TIP3   OH225890   0.519   1.172   7.877
 1444TIP3    H125891   0.450   1.237   7.864
 1444TIP3    H225892   0.555   1.193   7.963
 1445TIP3   OH225893   3.590   2.106   7.718
 1445TIP3    H125894   3.574   2.025   7.669
 1445TIP3    H225895   3.626   2.077   7.801
 1446TIP3   OH225896   1.608   1.171   2.021
 1446TIP3    H125897   1.542   1.165   2.090
 1446TIP3    H225898   1.592   1.255   1.979
 1447TIP3   OH225899   5.484   2.115   7.850
 1447TIP3    H125900   5.390   2.102   7.853
 1447TIP3    H225901   5.498   2.174   7.776
 1448TIP3   OH225902   0.010   0.496   1.598
 1448TIP3    H125903   0.085   0.437   1.604
 1448TIP3    H225904   6.776   0.438   1.600
 1449TIP3   OH225905   5.057   5.078   6.454
 1449TIP3    H125906   5.032   5.099   6.544
 1449TIP3    H225907   5.145   5.041   6.461
 1450TIP3   OH225908   2.135   2.529   6.435
 1450TIP3    H125909   2.125   2.450   6.382
 1450TIP3    H225910   2.228   2.551   6.429
 1451TIP3   OH225911   3.898   5.265   0.896
 1451TIP3    H125912   3.977   5.223   0.862
 1451TIP3    H225913   3.906   5.357   0.868
 1452TIP3   OH225914   2.981   1.691   0.952
 1452TIP3    H125915   3.044   1.689   1.024
 1452TIP3    H225916   3.034   1.686   0.873
 1453TIP3   OH225917   2.898   4.079   0.223
 1453TIP3    H125918   2.837   4.014   0.259
 1453TIP3    H225919   2.980   4.031   0.210
 1454TIP3   OH225920   5.687   1.737   0.025
 1454TIP3    H125921   5.702   1.749   8.645
 1454TIP3    H225922   5.771   1.709   0.060
 1455TIP3   OH225923   2.118   6.581   1.453
 1455TIP3    H125924   2.157   6.668   1.462
 1455TIP3    H225925   2.025   6.595   1.471
 1456TIP3   OH225926   4.256   3.983   7.134
 1456TIP3    H125927   4.204   3.921   7.083
 1456TIP3    H225928   4.341   3.986   7.090
 1457TIP3   OH225929   3.425   3.808   6.870
 1457TIP3    H125930   3.419   3.809   6.774
 1457TIP3    H225931   3.407   3.717   6.894
 1458TIP3   OH225932   1.838   3.318   1.435
 1458TIP3    H125933   1.892   3.397   1.426
 1458TIP3    H225934   1.794   3.310   1.350
 1459TIP3   OH225935   0.071   3.089   8.088
 1459TIP3    H125936   0.099   3.142   8.013
 1459TIP3    H225937   6.824   3.063   8.067
 1460TIP3   OH225938   2.092   5.089   1.903
 1460TIP3    H125939   2.062   5.018   1.847
 1460TIP3    H225940   2.033   5.162   1.884
 1461TIP3   OH225941   0.679   6.829   6.519
 1461TIP3    H125942   0.742   6.782   6.575
 1461TIP3    H225943   0.594   6.809   6.558
 1462TIP3   OH225944   0.730   5.449   0.503
 1462TIP3    H125945   0.784   5.484   0.573
 1462TIP3    H225946   0.736   5.354   0.512
 1463TIP3   OH225947   6.087   5.774   8.552
 1463TIP3    H125948   5.998   5.766   8.517
 1463TIP3    H225949   6.136   5.705   8.507
 1464TIP3   OH225950   4.038   4.267   7.389
 1464TIP3    H125951   4.124   4.225   7.380
 1464TIP3    H225952   4.041   4.340   7.327
 1465TIP3   OH225953   6.630   4.092   0.482
 1465TIP3    H125954   6.553   4.042   0.509
 1465TIP3    H225955   6.630   4.169   0.538
 1466TIP3   OH225956   2.942   4.177   2.161
 1466TIP3    H125957   2.906   4.167   2.072
 1466TIP3    H225958   2.892   4.115   2.214
 1467TIP3   OH225959   0.070   2.192   2.357
 1467TIP3    H125960   0.095   2.138   2.432
 1467TIP3    H225961   0.145   2.186   2.297
 1468TIP3   OH225962   3.703   4.253   0.293
 1468TIP3    H125963   3.643   4.316   0.251
 1468TIP3    H225964   3.767   4.232   0.226
 1469TIP3   OH225965   5.871   4.699   6.632
 1469TIP3    H125966   5.836   4.638   6.567
 1469TIP3    H225967   5.798   4.757   6.652
 1470TIP3   OH225968   3.767   4.002   7.924
 1470TIP3    H125969   3.800   4.009   8.014
 1470TIP3    H225970   3.809   3.924   7.889
 1471TIP3   OH225971   2.696   1.004   0.191
 1471TIP3    H125972   2.740   0.924   0.219
 1471TIP3    H225973   2.603   0.987   0.209
 1472TIP3   OH225974   6.548   5.606   0.249
 1472TIP3    H125975   6.590   5.600   0.335
 1472TIP3    H225976   6.534   5.699   0.236
 1473TIP3   OH225977   1.830   1.541   1.478
 1473TIP3    H125978   1.909   1.489   1.488
 1473TIP3    H225979   1.771   1.486   1.426
 1474TIP3   OH225980   2.687   0.130   0.919
 1474TIP3    H125981   2.655   0.113   0.830
 1474TIP3    H225982   2.621   0.188   0.957
 1475TIP3   OH225983   4.369   6.815   2.677
 1475TIP3    H125984   4.354   0.063   2.653
 1475TIP3    H225985   4.316   6.765   2.615
 1476TIP3   OH225986   6.521   2.626   7.485
 1476TIP3    H125987   6.528   2.535   7.515
 1476TIP3    H225988   6.569   2.676   7.551
 1477TIP3   OH225989   0.583   0.917   2.319
 1477TIP3    H125990   0.612   1.000   2.357
 1477TIP3    H225991   0.583   0.855   2.392
 1478TIP3   OH225992   2.022   3.027   7.834
 1478TIP3    H125993   2.116   3.016   7.848
 1478TIP3    H225994   1.982   2.952   7.878
 1479TIP3   OH225995   6.063   0.907   0.049
 1479TIP3    H125996   6.143   0.893   0.099
 1479TIP3    H225997   6.058   1.002   0.037
 1480TIP3   OH225998   4.005   0.005   8.202
 1480TIP3    H125999   3.920   0.021   8.243
 1480TIP3    H226000   4.041   0.092   8.186
 1481TIP3   OH226001   4.991   2.641   8.612
 1481TIP3    H126002   5.045   2.562   8.605
 1481TIP3    H226003   4.993   2.662   8.706
 1482TIP3   OH226004   6.474   2.387   8.458
 1482TIP3    H126005   6.387   2.408   8.492
 1482TIP3    H226006   6.490   2.453   8.391
 1483TIP3   OH226007   0.950   1.494   2.303
 1483TIP3    H126008   0.864   1.529   2.281
 1483TIP3    H226009   1.000   1.569   2.334
 1484TIP3   OH226010   6.590   0.953   7.791
 1484TIP3    H126011   6.653   0.993   7.733
 1484TIP3    H226012   6.525   1.021   7.808
 1485TIP3   OH226013   1.250   4.291   7.640
 1485TIP3    H126014   1.270   4.321   7.728
 1485TIP3    H226015   1.169   4.241   7.650
 1486TIP3   OH226016   2.378   0.079   2.464
 1486TIP3    H126017   2.308   0.138   2.438
 1486TIP3    H226018   2.380   0.085   2.560
 1487TIP3   OH226019   0.742   5.247   0.155
 1487TIP3    H126020   0.738   5.325   0.099
 1487TIP3    H226021   0.657   5.244   0.199
 1488TIP3   OH226022   5.234   4.414   7.308
 1488TIP3    H126023   5.307   4.355   7.327
 1488TIP3    H226024   5.209   4.394   7.218
 1489TIP3   OH226025   6.643   0.307   1.571
 1489TIP3    H126026   6.689   0.224   1.559
 1489TIP3    H226027   6.597   0.321   1.488
 1490TIP3   OH226028   1.120   4.048   0.167
 1490TIP3    H126029   1.135   3.972   0.223
 1490TIP3    H226030   1.062   4.105   0.218
 1491TIP3   OH226031   1.391   4.168   8.503
 1491TIP3    H126032   1.395   4.072   8.504
 1491TIP3    H226033   1.309   4.189   8.547
 1492TIP3   OH226034   5.540   4.597   8.137
 1492TIP3    H126035   5.551   4.503   8.120
 1492TIP3    H226036   5.628   4.633   8.125
 1493TIP3   OH226037   0.618   2.685   1.890
 1493TIP3    H126038   0.681   2.660   1.958
 1493TIP3    H226039   0.631   2.620   1.821
 1494TIP3   OH226040   5.459   3.426   8.497
 1494TIP3    H126041   5.535   3.464   8.451
 1494TIP3    H226042   5.384   3.469   8.457
 1495TIP3   OH226043   0.330   6.681   0.231
 1495TIP3    H126044   0.357   6.735   0.305
 1495TIP3    H226045   0.338   6.591   0.264
 1496TIP3   OH226046   4.811   6.442   8.707
 1496TIP3    H126047   4.773   6.530   8.704
 1496TIP3    H226048   4.764   6.399   0.065
 1497TIP3   OH226049   5.859   4.067   8.084
 1497TIP3    H126050   5.780   4.034   8.040
 1497TIP3    H226051   5.879   4.001   8.150
 1498TIP3   OH226052   1.930   3.370   0.797
 1498TIP3    H126053   1.846   3.330   0.816
 1498TIP3    H226054   1.912   3.463   0.789
 1499TIP3   OH226055   1.761   1.226   1.545
 1499TIP3    H126056   1.797   1.138   1.558
 1499TIP3    H226057   1.736   1.254   1.633
 1500TIP3   OH226058   5.722   3.953   7.394
 1500TIP3    H126059   5.798   4.008   7.375
 1500TIP3    H226060   5.678   3.999   7.466
 1501TIP3   OH226061   4.685   3.213   7.898
 1501TIP3    H126062   4.769   3.241   7.935
 1501TIP3    H226063   4.689   3.241   7.807
 1502TIP3   OH226064   2.423   0.781   0.333
 1502TIP3    H126065   2.362   0.852   0.314
 1502TIP3    H226066   2.369   0.704   0.343
 1503TIP3   OH226067   5.356   6.447   7.223
 1503TIP3    H126068   5.347   6.527   7.275
 1503TIP3    H226069   5.431   6.463   7.166
 1504TIP3   OH226070   5.583   1.510   2.581
 1504TIP3    H126071   5.650   1.441   2.576
 1504TIP3    H226072   5.530   1.486   2.657
 1505TIP3   OH226073   4.186   1.514   2.010
 1505TIP3    H126074   4.194   1.584   2.074
 1505TIP3    H226075   4.112   1.540   1.955
 1506TIP3   OH226076   0.261   2.610   0.591
 1506TIP3    H126077   0.296   2.522   0.580
 1506TIP3    H226078   0.328   2.656   0.642
 1507TIP3   OH226079   6.805   4.643   2.025
 1507TIP3    H126080   0.048   4.616   2.056
 1507TIP3    H226081   6.750   4.566   2.036
 1508TIP3   OH226082   4.352   5.449   7.226
 1508TIP3    H126083   4.445   5.454   7.205
 1508TIP3    H226084   4.315   5.529   7.189
 1509TIP3   OH226085   6.654   4.884   2.020
 1509TIP3    H126086   6.678   4.800   2.059
 1509TIP3    H226087   6.738   4.924   1.996
 1510TIP3   OH226088   0.683   0.406   0.420
 1510TIP3    H126089   0.752   0.344   0.444
 1510TIP3    H226090   0.673   0.462   0.497
 1511TIP3   OH226091   3.023   3.226   0.283
 1511TIP3    H126092   3.015   3.317   0.254
 1511TIP3    H226093   2.947   3.213   0.340
 1512TIP3   OH226094   4.093   3.544   0.047
 1512TIP3    H126095   4.000   3.566   0.044
 1512TIP3    H226096   4.095   3.456   0.084
 1513TIP3   OH226097   5.578   1.398   0.738
 1513TIP3    H126098   5.557   1.484   0.772
 1513TIP3    H226099   5.538   1.397   0.650
 1514TIP3   OH226100   1.053   2.409   7.922
 1514TIP3    H126101   1.096   2.323   7.927
 1514TIP3    H226102   0.977   2.401   7.979
 1515TIP3   OH226103   3.047   2.183   8.274
 1515TIP3    H126104   3.065   2.261   8.222
 1515TIP3    H226105   3.132   2.140   8.282
 1516TIP3   OH226106   4.062   5.954   0.852
 1516TIP3    H126107   4.115   5.973   0.775
 1516TIP3    H226108   4.026   6.039   0.878
 1517TIP3   OH226109   4.023   0.573   2.107
 1517TIP3    H126110   3.960   0.502   2.121
 1517TIP3    H226111   3.973   0.653   2.123
 1518TIP3   OH226112   1.257   4.533   1.045
 1518TIP3    H126113   1.233   4.462   1.104
 1518TIP3    H226114   1.179   4.548   0.992
 1519TIP3   OH226115   3.492   3.991   8.645
 1519TIP3    H126116   3.509   3.908   8.688
 1519TIP3    H226117   3.577   4.034   8.641
 1520TIP3   OH226118   2.761   2.347   0.411
 1520TIP3    H126119   2.686   2.396   0.375
 1520TIP3    H226120   2.818   2.414   0.447
 1521TIP3   OH226121   3.817   2.037   6.686
 1521TIP3    H126122   3.854   1.979   6.753
 1521TIP3    H226123   3.741   1.989   6.653
 1522TIP3   OH226124   3.186   6.547   2.522
 1522TIP3    H126125   3.208   6.545   2.428
 1522TIP3    H226126   3.093   6.571   2.523
 1523TIP3   OH226127   3.244   5.294   6.732
 1523TIP3    H126128   3.178   5.341   6.783
 1523TIP3    H226129   3.193   5.242   6.670
 1524TIP3   OH226130   4.768   4.087   0.857
 1524TIP3    H126131   4.857   4.124   0.860
 1524TIP3    H226132   4.772   4.012   0.916
 1525TIP3   OH226133   4.256   2.580   0.824
 1525TIP3    H126134   4.340   2.533   0.818
 1525TIP3    H226135   4.253   2.611   0.915
 1526TIP3   OH226136   6.797   1.818   0.976
 1526TIP3    H126137   6.821   1.910   0.961
 1526TIP3    H226138   6.802   1.778   0.890
 1527TIP3   OH226139   3.783   2.006   0.366
 1527TIP3    H126140   3.810   1.925   0.410
 1527TIP3    H226141   3.800   1.990   0.273
 1528TIP3   OH226142   4.921   6.685   6.864
 1528TIP3    H126143   4.847   6.625   6.855
 1528TIP3    H226144   4.908   6.749   6.794
 1529TIP3   OH226145   6.196   6.072   7.605
 1529TIP3    H126146   6.263   6.098   7.668
 1529TIP3    H226147   6.237   6.002   7.554
 1530TIP3   OH226148   3.887   5.835   1.104
 1530TIP3    H126149   3.943   5.835   1.026
 1530TIP3    H226150   3.868   5.743   1.120
 1531TIP3   OH226151   0.792   2.402   8.016
 1531TIP3    H126152   0.816   2.320   7.972
 1531TIP3    H226153   0.704   2.422   7.984
 1532TIP3   OH226154   2.420   4.893   1.860
 1532TIP3    H126155   2.421   4.989   1.861
 1532TIP3    H226156   2.368   4.871   1.782
 1533TIP3   OH226157   0.762   3.733   0.553
 1533TIP3    H126158   0.674   3.766   0.535
 1533TIP3    H226159   0.771   3.657   0.496
 1534TIP3   OH226160   5.665   4.919   6.184
 1534TIP3    H126161   5.688   5.011   6.168
 1534TIP3    H226162   5.576   4.923   6.219
 1535TIP3   OH226163   2.144   4.213   1.086
 1535TIP3    H126164   2.121   4.132   1.041
 1535TIP3    H226165   2.198   4.185   1.160
 1536TIP3   OH226166   1.844   1.801   0.673
 1536TIP3    H126167   1.857   1.893   0.650
 1536TIP3    H226168   1.775   1.803   0.740
 1537TIP3   OH226169   0.619   6.631   0.416
 1537TIP3    H126170   0.535   6.630   0.461
 1537TIP3    H226171   0.630   6.722   0.388
 1538TIP3   OH226172   4.996   5.459   1.120
 1538TIP3    H126173   4.979   5.398   1.191
 1538TIP3    H226174   4.997   5.405   1.041
 1539TIP3   OH226175   5.061   2.876   1.037
 1539TIP3    H126176   5.141   2.830   1.010
 1539TIP3    H226177   5.078   2.968   1.015
 1540TIP3   OH226178   3.771   3.564   7.414
 1540TIP3    H126179   3.732   3.609   7.340
 1540TIP3    H226180   3.696   3.526   7.461
 1541TIP3   OH226181   2.977   2.109   1.170
 1541TIP3    H126182   2.937   2.139   1.252
 1541TIP3    H226183   3.060   2.071   1.196
 1542TIP3   OH226184   2.790   3.668   0.424
 1542TIP3    H126185   2.705   3.640   0.459
 1542TIP3    H226186   2.769   3.702   0.337
 1543TIP3   OH226187   4.621   4.951   8.607
 1543TIP3    H126188   4.553   5.016   8.622
 1543TIP3    H226189   4.660   4.974   8.523
 1544TIP3   OH226190   0.197   0.561   6.926
 1544TIP3    H126191   0.154   0.476   6.914
 1544TIP3    H226192   0.127   0.618   6.959
 1545TIP3   OH226193   3.020   5.331   6.884
 1545TIP3    H126194   2.959   5.257   6.892
 1545TIP3    H226195   2.979   5.401   6.935
 1546TIP3   OH226196   5.901   0.406   0.887
 1546TIP3    H126197   5.963   0.443   0.824
 1546TIP3    H226198   5.815   0.425   0.849
 1547TIP3   OH226199   5.270   3.826   7.102
 1547TIP3    H126200   5.272   3.901   7.163
 1547TIP3    H226201   5.255   3.750   7.158
 1548TIP3   OH226202   5.617   3.740   6.284
 1548TIP3    H126203   5.618   3.815   6.344
 1548TIP3    H226204   5.708   3.713   6.278
 1549TIP3   OH226205   6.524   1.855   8.049
 1549TIP3    H126206   6.473   1.809   8.115
 1549TIP3    H226207   6.533   1.944   8.083
 1550TIP3   OH226208   1.658   1.958   0.248
 1550TIP3    H126209   1.653   1.916   0.334
 1550TIP3    H226210   1.738   2.010   0.251
 1551TIP3   OH226211   6.342   5.029   5.966
 1551TIP3    H126212   6.422   4.981   5.985
 1551TIP3    H226213   6.349   5.110   6.018
 1552TIP3   OH226214   4.165   6.193   8.447
 1552TIP3    H126215   4.090   6.252   8.437
 1552TIP3    H226216   4.164   6.168   8.539
 1553TIP3   OH226217   0.647   6.336   2.104
 1553TIP3    H126218   0.566   6.358   2.152
 1553TIP3    H226219   0.625   6.257   2.055
 1554TIP3   OH226220   4.137   1.685   8.480
 1554TIP3    H126221   4.149   1.602   8.526
 1554TIP3    H226222   4.140   1.662   8.387
 1555TIP3   OH226223   6.672   0.105   2.179
 1555TIP3    H126224   6.597   0.066   2.223
 1555TIP3    H226225   6.743   0.042   2.191
 1556TIP3   OH226226   0.566   4.290   1.536
 1556TIP3    H126227   0.545   4.252   1.451
 1556TIP3    H226228   0.607   4.218   1.584
 1557TIP3   OH226229   0.041   5.372   7.170
 1557TIP3    H126230   0.116   5.429   7.188
 1557TIP3    H226231   0.067   5.321   7.093
 1558TIP3   OH226232   4.829   6.528   1.744
 1558TIP3    H126233   4.754   6.586   1.734
 1558TIP3    H226234   4.819   6.463   1.674
 1559TIP3   OH226235   1.524   4.759   8.560
 1559TIP3    H126236   1.513   4.847   8.525
 1559TIP3    H226237   1.565   4.710   8.488
 1560TIP3   OH226238   3.361   1.056   0.086
 1560TIP3    H126239   3.376   1.009   0.004
 1560TIP3    H226240   3.292   1.119   0.065
 1561TIP3   OH226241   6.808   5.509   1.951
 1561TIP3    H126242   6.728   5.498   2.003
 1561TIP3    H226243   6.781   5.490   1.861
 1562TIP3   OH226244   6.827   0.452   0.512
 1562TIP3    H126245   0.016   0.377   0.461
 1562TIP3    H226246   6.825   0.420   0.602
 1563TIP3   OH226247   0.045   3.004   6.899
 1563TIP3    H126248   0.119   3.058   6.927
 1563TIP3    H226249   0.075   2.961   6.819
 1564TIP3   OH226250   3.213   1.973   0.912
 1564TIP3    H126251   3.293   2.024   0.904
 1564TIP3    H226252   3.143   2.033   0.886
 1565TIP3   OH226253   3.403   0.685   8.342
 1565TIP3    H126254   3.472   0.697   8.276
 1565TIP3    H226255   3.324   0.665   8.292
 1566TIP3   OH226256   4.595   3.994   8.621
 1566TIP3    H126257   4.614   3.994   0.001
 1566TIP3    H226258   4.668   4.042   8.582
 1567TIP3   OH226259   3.926   3.972   1.682
 1567TIP3    H126260   3.887   3.903   1.735
 1567TIP3    H226261   3.954   3.928   1.602
 1568TIP3   OH226262   6.581   5.615   8.556
 1568TIP3    H126263   6.540   5.695   8.588
 1568TIP3    H226264   6.644   5.645   8.491
 1569TIP3   OH226265   1.645   2.397   7.771
 1569TIP3    H126266   1.673   2.488   7.766
 1569TIP3    H226267   1.674   2.367   7.857
 1570TIP3   OH226268   2.560   6.003   2.072
 1570TIP3    H126269   2.541   6.083   2.122
 1570TIP3    H226270   2.646   5.976   2.104
 1571TIP3   OH226271   3.714   2.983   7.882
 1571TIP3    H126272   3.713   2.996   7.787
 1571TIP3    H226273   3.784   2.919   7.896
 1572TIP3   OH226274   2.583   2.546   6.911
 1572TIP3    H126275   2.511   2.589   6.958
 1572TIP3    H226276   2.563   2.561   6.818
 1573TIP3   OH226277   3.738   2.999   1.265
 1573TIP3    H126278   3.662   2.942   1.252
 1573TIP3    H226279   3.722   3.043   1.349
 1574TIP3   OH226280   1.173   2.269   7.587
 1574TIP3    H126281   1.267   2.279   7.580
 1574TIP3    H226282   1.140   2.358   7.600
 1575TIP3   OH226283   0.958   0.822   0.994
 1575TIP3    H126284   0.973   0.895   1.054
 1575TIP3    H226285   1.044   0.783   0.981
 1576TIP3   OH226286   6.547   0.951   8.495
 1576TIP3    H126287   6.621   0.893   8.475
 1576TIP3    H226288   6.485   0.895   8.540
 1577TIP3   OH226289   1.558   6.217   8.402
 1577TIP3    H126290   1.630   6.260   8.449
 1577TIP3    H226291   1.602   6.160   8.338
 1578TIP3   OH226292   3.967   6.774   7.703
 1578TIP3    H126293   3.876   6.768   7.673
 1578TIP3    H226294   4.007   6.839   7.646
 1579TIP3   OH226295   0.160   2.075   7.312
 1579TIP3    H126296   0.229   2.099   7.250
 1579TIP3    H226297   0.179   1.985   7.336
 1580TIP3   OH226298   2.772   0.044   1.558
 1580TIP3    H126299   2.786   0.138   1.567
 1580TIP3    H226300   2.774   0.010   1.648
 1581TIP3   OH226301   0.931   0.479   8.307
 1581TIP3    H126302   0.864   0.483   8.375
 1581TIP3    H226303   0.884   0.463   8.226
 1582TIP3   OH226304   1.811   2.971   1.254
 1582TIP3    H126305   1.756   2.961   1.176
 1582TIP3    H226306   1.860   3.052   1.237
 1583TIP3   OH226307   0.672   4.855   1.479
 1583TIP3    H126308   0.756   4.814   1.499
 1583TIP3    H226309   0.653   4.829   1.389
 1584TIP3   OH226310   2.956   6.161   0.308
 1584TIP3    H126311   3.028   6.222   0.296
 1584TIP3    H226312   2.879   6.216   0.318
 1585TIP3   OH226313   0.761   0.217   8.690
 1585TIP3    H126314   0.729   0.282   8.627
 1585TIP3    H226315   0.850   0.198   8.661
 1586TIP3   OH226316   5.533   5.261   7.277
 1586TIP3    H126317   5.608   5.320   7.289
 1586TIP3    H226318   5.497   5.285   7.192
 1587TIP3   OH226319   2.709   1.429   1.165
 1587TIP3    H126320   2.783   1.380   1.201
 1587TIP3    H226321   2.743   1.470   1.086
 1588TIP3   OH226322   3.101   1.422   7.606
 1588TIP3    H126323   3.153   1.422   7.686
 1588TIP3    H226324   3.079   1.330   7.591
 1589TIP3   OH226325   6.495   0.478   0.778
 1589TIP3    H126326   6.589   0.478   0.797
 1589TIP3    H226327   6.476   0.388   0.749
 1590TIP3   OH226328   4.708   2.850   2.437
 1590TIP3    H126329   4.740   2.807   2.357
 1590TIP3    H226330   4.783   2.903   2.466
 1591TIP3   OH226331   4.660   6.192   1.954
 1591TIP3    H126332   4.750   6.171   1.981
 1591TIP3    H226333   4.605   6.157   2.023
 1592TIP3   OH226334   4.808   1.964   0.411
 1592TIP3    H126335   4.857   1.885   0.435
 1592TIP3    H226336   4.717   1.936   0.408
 1593TIP3   OH226337   2.454   5.086   0.670
 1593TIP3    H126338   2.506   5.086   0.751
 1593TIP3    H226339   2.381   5.144   0.689
 1594TIP3   OH226340   4.401   6.391   2.574
 1594TIP3    H126341   4.378   6.299   2.588
 1594TIP3    H226342   4.316   6.437   2.574
 1595TIP3   OH226343   4.031   3.323   0.953
 1595TIP3    H126344   4.069   3.235   0.947
 1595TIP3    H226345   4.067   3.370   0.878
 1596TIP3   OH226346   1.242   2.161   0.529
 1596TIP3    H126347   1.161   2.153   0.579
 1596TIP3    H226348   1.244   2.252   0.500
 1597TIP3   OH226349   4.586   5.441   2.246
 1597TIP3    H126350   4.672   5.435   2.287
 1597TIP3    H226351   4.525   5.418   2.317
 1598TIP3   OH226352   4.837   3.322   8.442
 1598TIP3    H126353   4.796   3.281   8.366
 1598TIP3    H226354   4.788   3.404   8.454
 1599TIP3   OH226355   1.133   2.553   7.568
 1599TIP3    H126356   1.074   2.621   7.536
 1599TIP3    H226357   1.193   2.599   7.627
 1600TIP3   OH226358   2.755   0.267   0.333
 1600TIP3    H126359   2.725   0.357   0.340
 1600TIP3    H226360   2.850   0.272   0.341
 1601TIP3   OH226361   3.525   1.065   2.193
 1601TIP3    H126362   3.496   1.119   2.120
 1601TIP3    H226363   3.482   0.981   2.180
 1602TIP3   OH226364   4.696   6.313   0.227
 1602TIP3    H126365   4.626   6.254   0.257
 1602TIP3    H226366   4.775   6.259   0.230
 1603TIP3   OH226367   5.758   5.327   7.719
 1603TIP3    H126368   5.802   5.405   7.687
 1603TIP3    H226369   5.740   5.346   7.811
 1604TIP3   OH226370   6.095   1.980   0.164
 1604TIP3    H126371   6.182   1.958   0.128
 1604TIP3    H226372   6.035   1.926   0.113
 1605TIP3   OH226373   5.890   1.230   0.506
 1605TIP3    H126374   5.920   1.139   0.514
 1605TIP3    H226375   5.942   1.278   0.570
 1606TIP3   OH226376   3.639   5.605   8.040
 1606TIP3    H126377   3.560   5.648   8.073
 1606TIP3    H226378   3.662   5.654   7.961
 1607TIP3   OH226379   3.319   4.918   0.288
 1607TIP3    H126380   3.405   4.958   0.276
 1607TIP3    H226381   3.259   4.992   0.300
 1608TIP3   OH226382   4.060   2.655   8.115
 1608TIP3    H126383   4.093   2.698   8.194
 1608TIP3    H226384   3.972   2.625   8.139
 1609TIP3   OH226385   3.820   4.204   2.202
 1609TIP3    H126386   3.848   4.161   2.122
 1609TIP3    H226387   3.724   4.209   2.194
 1610TIP3   OH226388   1.560   5.735   2.009
 1610TIP3    H126389   1.475   5.751   1.967
 1610TIP3    H226390   1.540   5.734   2.102
 1611TIP3   OH226391   5.446   3.979   8.399
 1611TIP3    H126392   5.382   3.917   8.362
 1611TIP3    H226393   5.419   4.064   8.366
 1612TIP3   OH226394   4.548   2.713   8.597
 1612TIP3    H126395   4.598   2.634   8.615
 1612TIP3    H226396   4.564   2.769   8.673
 1613TIP3   OH226397   1.949   5.317   8.657
 1613TIP3    H126398   1.980   5.335   0.033
 1613TIP3    H226399   1.951   5.402   8.613
 1614TIP3   OH226400   0.631   0.170   7.104
 1614TIP3    H126401   0.553   0.155   7.051
 1614TIP3    H226402   0.660   0.083   7.130
 1615TIP3   OH226403   5.445   1.194   0.973
 1615TIP3    H126404   5.463   1.279   1.013
 1615TIP3    H226405   5.514   1.137   1.005
 1616TIP3   OH226406   5.018   0.525   1.272
 1616TIP3    H126407   4.982   0.508   1.185
 1616TIP3    H226408   4.996   0.448   1.323
 1617TIP3   OH226409   2.912   2.882   2.586
 1617TIP3    H126410   3.004   2.872   2.608
 1617TIP3    H226411   2.875   2.795   2.600
 1618TIP3   OH226412   6.204   0.605   8.412
 1618TIP3    H126413   6.277   0.543   8.417
 1618TIP3    H226414   6.158   0.595   8.495
 1619TIP3   OH226415   1.039   2.418   0.591
 1619TIP3    H126416   1.035   2.330   0.631
 1619TIP3    H226417   0.948   2.439   0.571
 1620TIP3   OH226418   0.693   0.852   8.365
 1620TIP3    H126419   0.693   0.766   8.407
 1620TIP3    H226420   0.622   0.900   8.408
 1621TIP3   OH226421   1.924   5.447   7.978
 1621TIP3    H126422   1.947   5.390   7.904
 1621TIP3    H226423   1.947   5.396   8.056
 1622TIP3   OH226424   6.143   3.212   2.257
 1622TIP3    H126425   6.049   3.202   2.272
 1622TIP3    H226426   6.181   3.222   2.344
 1623TIP3   OH226427   2.400   5.549   7.484
 1623TIP3    H126428   2.461   5.622   7.486
 1623TIP3    H226429   2.432   5.493   7.413
 1624TIP3   OH226430   5.186   4.151   8.589
 1624TIP3    H126431   5.144   4.209   8.652
 1624TIP3    H226432   5.250   4.102   8.640
 1625TIP3   OH226433   5.276   4.872   1.732
 1625TIP3    H126434   5.187   4.906   1.731
 1625TIP3    H226435   5.266   4.777   1.744
 1626TIP3   OH226436   3.971   4.707   0.695
 1626TIP3    H126437   3.946   4.691   0.786
 1626TIP3    H226438   3.888   4.715   0.649
 1627TIP3   OH226439   0.484   4.330   7.589
 1627TIP3    H126440   0.570   4.362   7.616
 1627TIP3    H226441   0.475   4.359   7.498
 1628TIP3   OH226442   0.760   6.766   8.404
 1628TIP3    H126443   0.831   6.745   8.343
 1628TIP3    H226444   0.795   6.746   8.491
 1629TIP3   OH226445   5.228   0.942   0.413
 1629TIP3    H126446   5.306   0.968   0.364
 1629TIP3    H226447   5.207   1.017   0.467
 1630TIP3   OH226448   3.585   4.282   0.830
 1630TIP3    H126449   3.632   4.293   0.913
 1630TIP3    H226450   3.494   4.267   0.857
 1631TIP3   OH226451   5.197   5.200   7.606
 1631TIP3    H126452   5.193   5.157   7.691
 1631TIP3    H226453   5.141   5.277   7.616
 1632TIP3   OH226454   3.523   2.212   1.354
 1632TIP3    H126455   3.582   2.270   1.401
 1632TIP3    H226456   3.486   2.266   1.284
 1633TIP3   OH226457   0.520   3.559   7.733
 1633TIP3    H126458   0.580   3.549   7.806
 1633TIP3    H226459   0.445   3.504   7.756
 1634TIP3   OH226460   6.382   2.490   1.001
 1634TIP3    H126461   6.399   2.566   0.946
 1634TIP3    H226462   6.319   2.521   1.066
 1635TIP3   OH226463   2.647   4.889   6.959
 1635TIP3    H126464   2.650   4.885   6.864
 1635TIP3    H226465   2.651   4.797   6.987
 1636TIP3   OH226466   1.101   4.357   1.191
 1636TIP3    H126467   1.052   4.303   1.129
 1636TIP3    H226468   1.035   4.383   1.256
 1637TIP3   OH226469   0.111   2.930   1.262
 1637TIP3    H126470   0.138   2.838   1.262
 1637TIP3    H226471   0.042   2.935   1.328
 1638TIP3   OH226472   2.750   0.021   7.690
 1638TIP3    H126473   2.720   0.100   7.644
 1638TIP3    H226474   2.739   0.042   7.783
 1639TIP3   OH226475   3.371   6.227   0.210
 1639TIP3    H126476   3.356   6.151   0.154
 1639TIP3    H226477   3.374   6.191   0.299
 1640TIP3   OH226478   3.665   4.453   8.655
 1640TIP3    H126479   3.747   4.435   8.700
 1640TIP3    H226480   3.688   4.452   8.562
 1641TIP3   OH226481   6.302   5.906   7.372
 1641TIP3    H126482   6.261   5.987   7.343
 1641TIP3    H226483   6.315   5.855   7.293
 1642TIP3   OH226484   0.422   2.004   1.004
 1642TIP3    H126485   0.482   2.007   1.079
 1642TIP3    H226486   0.475   2.033   0.930
 1643TIP3   OH226487   1.063   1.961   1.405
 1643TIP3    H126488   1.007   1.913   1.343
 1643TIP3    H226489   1.044   1.920   1.490
 1644TIP3   OH226490   5.628   6.012   7.845
 1644TIP3    H126491   5.571   6.066   7.791
 1644TIP3    H226492   5.696   6.072   7.876
 1645TIP3   OH226493   5.246   2.952   0.334
 1645TIP3    H126494   5.253   3.021   0.400
 1645TIP3    H226495   5.204   2.995   0.259
 1646TIP3   OH226496   2.913   6.499   1.323
 1646TIP3    H126497   2.905   6.404   1.332
 1646TIP3    H226498   2.940   6.529   1.410
 1647TIP3   OH226499   3.295   0.603   7.725
 1647TIP3    H126500   3.235   0.553   7.669
 1647TIP3    H226501   3.383   0.580   7.692
 1648TIP3   OH226502   1.722   2.263   0.489
 1648TIP3    H126503   1.635   2.225   0.500
 1648TIP3    H226504   1.778   2.210   0.546
 1649TIP3   OH226505   2.232   2.725   8.566
 1649TIP3    H126506   2.206   2.740   8.475
 1649TIP3    H226507   2.226   2.630   8.578
 1650TIP3   OH226508   2.165   0.066   2.015
 1650TIP3    H126509   2.219   0.122   1.959
 1650TIP3    H226510   2.148   6.831   1.963
 1651TIP3   OH226511   3.394   3.214   8.144
 1651TIP3    H126512   3.487   3.197   8.132
 1651TIP3    H226513   3.351   3.169   8.071
 1652TIP3   OH226514   3.569   5.683   1.675
 1652TIP3    H126515   3.656   5.680   1.715
 1652TIP3    H226516   3.528   5.762   1.710
 1653TIP3   OH226517   3.596   2.690   0.804
 1653TIP3    H126518   3.566   2.652   0.887
 1653TIP3    H226519   3.645   2.620   0.762
 1654TIP3   OH226520   0.917   3.533   7.222
 1654TIP3    H126521   0.875   3.617   7.205
 1654TIP3    H226522   0.929   3.495   7.135
 1655TIP3   OH226523   2.569   6.035   0.641
 1655TIP3    H126524   2.647   6.021   0.587
 1655TIP3    H226525   2.598   6.017   0.730
 1656TIP3   OH226526   0.665   0.442   7.617
 1656TIP3    H126527   0.738   0.490   7.655
 1656TIP3    H226528   0.699   0.409   7.534
 1657TIP3   OH226529   0.549   6.634   0.006
 1657TIP3    H126530   0.641   6.608   0.005
 1657TIP3    H226531   0.545   6.708   0.067
 1658TIP3   OH226532   0.341   0.068   7.434
 1658TIP3    H126533   0.380   0.129   7.497
 1658TIP3    H226534   0.415   0.017   7.400
 1659TIP3   OH226535   4.658   3.578   1.621
 1659TIP3    H126536   4.630   3.524   1.694
 1659TIP3    H226537   4.581   3.627   1.595
 1660TIP3   OH226538   0.629   4.316   7.837
 1660TIP3    H126539   0.694   4.364   7.786
 1660TIP3    H226540   0.546   4.359   7.816
 1661TIP3   OH226541   4.049   6.145   6.995
 1661TIP3    H126542   3.970   6.117   6.949
 1661TIP3    H226543   4.039   6.240   7.004
 1662TIP3   OH226544   5.405   4.002   8.697
 1662TIP3    H126545   5.402   3.986   8.603
 1662TIP3    H226546   5.425   3.917   0.022
 1663TIP3   OH226547   4.514   2.463   8.298
 1663TIP3    H126548   4.490   2.370   8.302
 1663TIP3    H226549   4.607   2.463   8.278
 1664TIP3   OH226550   3.142   1.882   8.124
 1664TIP3    H126551   3.181   1.882   8.037
 1664TIP3    H226552   3.193   1.946   8.174
 1665TIP3   OH226553   5.864   6.755   1.570
 1665TIP3    H126554   5.831   6.795   1.489
 1665TIP3    H226555   5.803   6.683   1.588
 1666TIP3   OH226556   2.681   5.858   6.693
 1666TIP3    H126557   2.637   5.775   6.711
 1666TIP3    H226558   2.772   5.842   6.717
 1667TIP3   OH226559   3.212   0.063   6.205
 1667TIP3    H126560   3.198   6.813   6.184
 1667TIP3    H226561   3.131   0.106   6.178
 1668TIP3   OH226562   3.166   2.177   2.194
 1668TIP3    H126563   3.114   2.155   2.271
 1668TIP3    H226564   3.111   2.154   2.120
 1669TIP3   OH226565   5.142   3.032   6.367
 1669TIP3    H126566   5.119   2.944   6.397
 1669TIP3    H226567   5.057   3.073   6.350
 1670TIP3   OH226568   1.091   3.768   1.129
 1670TIP3    H126569   1.001   3.760   1.099
 1670TIP3    H226570   1.107   3.687   1.179
 1671TIP3   OH226571   5.687   3.549   8.107
 1671TIP3    H126572   5.680   3.623   8.168
 1671TIP3    H226573   5.778   3.550   8.079
 1672TIP3   OH226574   3.448   6.444   8.491
 1672TIP3    H126575   3.354   6.438   8.469
 1672TIP3    H226576   3.489   6.379   8.434
 1673TIP3   OH226577   3.338   5.052   1.514
 1673TIP3    H126578   3.334   5.127   1.455
 1673TIP3    H226579   3.414   5.002   1.484
 1674TIP3   OH226580   4.694   4.186   6.940
 1674TIP3    H126581   4.614   4.207   6.892
 1674TIP3    H226582   4.691   4.242   7.018
 1675TIP3   OH226583   2.104   3.823   6.319
 1675TIP3    H126584   2.075   3.764   6.249
 1675TIP3    H226585   2.199   3.823   6.313
 1676TIP3   OH226586   3.243   1.841   1.482
 1676TIP3    H126587   3.268   1.749   1.492
 1676TIP3    H226588   3.212   1.867   1.568
 1677TIP3   OH226589   2.271   3.310   8.473
 1677TIP3    H126590   2.336   3.326   8.404
 1677TIP3    H226591   2.188   3.337   8.435
 1678TIP3   OH226592   1.496   6.512   1.380
 1678TIP3    H126593   1.588   6.484   1.377
 1678TIP3    H226594   1.499   6.607   1.369
 1679TIP3   OH226595   3.133   3.812   7.121
 1679TIP3    H126596   3.171   3.731   7.155
 1679TIP3    H226597   3.103   3.789   7.033
 1680TIP3   OH226598   1.136   0.706   7.625
 1680TIP3    H126599   1.097   0.788   7.654
 1680TIP3    H226600   1.221   0.703   7.668
 1681TIP3   OH226601   1.762   4.379   2.046
 1681TIP3    H126602   1.733   4.471   2.047
 1681TIP3    H226603   1.715   4.340   1.972
 1682TIP3   OH226604   0.640   6.709   2.571
 1682TIP3    H126605   0.583   6.749   2.506
 1682TIP3    H226606   0.667   6.781   2.628
 1683TIP3   OH226607   3.763   6.473   0.537
 1683TIP3    H126608   3.758   6.443   0.446
 1683TIP3    H226609   3.773   6.568   0.531
 1684TIP3   OH226610   4.289   4.686   7.900
 1684TIP3    H126611   4.320   4.764   7.854
 1684TIP3    H226612   4.257   4.628   7.831
 1685TIP3   OH226613   4.539   2.399   7.491
 1685TIP3    H126614   4.540   2.483   7.444
 1685TIP3    H226615   4.463   2.404   7.549
 1686TIP3   OH226616   1.733   0.500   6.956
 1686TIP3    H126617   1.645   0.491   6.921
 1686TIP3    H226618   1.723   0.554   7.034
 1687TIP3   OH226619   6.113   4.528   2.206
 1687TIP3    H126620   6.045   4.521   2.139
 1687TIP3    H226621   6.081   4.596   2.266
 1688TIP3   OH226622   0.687   1.039   7.286
 1688TIP3    H126623   0.740   1.113   7.318
 1688TIP3    H226624   0.706   0.968   7.347
 1689TIP3   OH226625   0.343   6.145   0.007
 1689TIP3    H126626   0.338   6.240   0.021
 1689TIP3    H226627   0.268   6.125   8.664
 1690TIP3   OH226628   0.654   0.025   0.132
 1690TIP3    H126629   0.714   0.017   0.205
 1690TIP3    H226630   0.704   0.073   0.065
 1691TIP3   OH226631   3.320   6.268   0.780
 1691TIP3    H126632   3.245   6.300   0.729
 1691TIP3    H226633   3.392   6.263   0.717
 1692TIP3   OH226634   2.955   4.969   7.484
 1692TIP3    H126635   3.038   5.016   7.482
 1692TIP3    H226636   2.944   4.937   7.394
 1693TIP3   OH226637   6.270   5.954   1.022
 1693TIP3    H126638   6.302   5.903   1.096
 1693TIP3    H226639   6.341   5.950   0.958
 1694TIP3   OH226640   1.769   6.044   1.461
 1694TIP3    H126641   1.811   6.093   1.389
 1694TIP3    H226642   1.808   6.081   1.540
 1695TIP3   OH226643   2.517   0.122   0.417
 1695TIP3    H126644   2.611   0.142   0.411
 1695TIP3    H226645   2.507   0.076   0.501
 1696TIP3   OH226646   0.582   3.009   7.338
 1696TIP3    H126647   0.628   2.948   7.280
 1696TIP3    H226648   0.549   2.953   7.409
 1697TIP3   OH226649   6.123   0.607   8.159
 1697TIP3    H126650   6.144   0.601   8.252
 1697TIP3    H226651   6.042   0.556   8.150
 1698TIP3   OH226652   2.730   2.362   0.863
 1698TIP3    H126653   2.775   2.438   0.826
 1698TIP3    H226654   2.752   2.290   0.805
 1699TIP3   OH226655   4.127   3.057   1.288
 1699TIP3    H126656   4.116   3.012   1.205
 1699TIP3    H226657   4.112   3.150   1.267
 1700TIP3   OH226658   0.399   0.307   6.750
 1700TIP3    H126659   0.333   0.343   6.691
 1700TIP3    H226660   0.422   0.380   6.808
 1701TIP3   OH226661   5.623   5.004   2.447
 1701TIP3    H126662   5.651   5.067   2.513
 1701TIP3    H226663   5.555   5.050   2.398
 1702TIP3   OH226664   6.818   3.040   7.520
 1702TIP3    H126665   6.737   2.993   7.540
 1702TIP3    H226666   6.833   3.095   7.598
 1703TIP3   OH226667   2.310   1.849   7.594
 1703TIP3    H126668   2.220   1.824   7.616
 1703TIP3    H226669   2.300   1.923   7.534
 1704TIP3   OH226670   6.665   0.335   8.628
 1704TIP3    H126671   6.745   0.368   8.586
 1704TIP3    H226672   6.619   0.413   8.658
 1705TIP3   OH226673   4.332   1.638   2.415
 1705TIP3    H126674   4.295   1.687   2.341
 1705TIP3    H226675   4.334   1.547   2.385
 1706TIP3   OH226676   3.605   3.224   7.585
 1706TIP3    H126677   3.512   3.217   7.562
 1706TIP3    H226678   3.632   3.134   7.603
 1707TIP3   OH226679   5.644   0.891   0.307
 1707TIP3    H126680   5.614   0.982   0.315
 1707TIP3    H226681   5.736   0.899   0.282
 1708TIP3   OH226682   2.746   0.099   6.842
 1708TIP3    H126683   2.779   0.181   6.880
 1708TIP3    H226684   2.661   0.123   6.805
 1709TIP3   OH226685   5.764   0.094   0.327
 1709TIP3    H126686   5.719   0.117   0.246
 1709TIP3    H226687   5.705   0.123   0.396
 1710TIP3   OH226688   0.989   1.445   7.450
 1710TIP3    H126689   1.080   1.454   7.423
 1710TIP3    H226690   0.949   1.529   7.426
 1711TIP3   OH226691   5.805   5.712   0.063
 1711TIP3    H126692   5.794   5.709   8.681
 1711TIP3    H226693   5.732   5.766   0.094
 1712TIP3   OH226694   4.557   5.252   8.164
 1712TIP3    H126695   4.596   5.310   8.099
 1712TIP3    H226696   4.623   5.243   8.232
 1713TIP3   OH226697   1.489   3.262   0.249
 1713TIP3    H126698   1.584   3.260   0.260
 1713TIP3    H226699   1.454   3.257   0.338
 1714TIP3   OH226700   4.958   0.389   1.802
 1714TIP3    H126701   4.902   0.412   1.876
 1714TIP3    H226702   5.043   0.370   1.841
 1715TIP3   OH226703   2.854   3.681   6.129
 1715TIP3    H126704   2.779   3.654   6.181
 1715TIP3    H226705   2.877   3.605   6.076
 1716TIP3   OH226706   5.698   6.346   1.053
 1716TIP3    H126707   5.736   6.394   1.127
 1716TIP3    H226708   5.628   6.403   1.021
 1717TIP3   OH226709   6.002   6.713   8.010
 1717TIP3    H126710   5.920   6.758   8.028
 1717TIP3    H226711   6.063   6.745   8.077
 1718TIP3   OH226712   6.265   2.896   0.272
 1718TIP3    H126713   6.343   2.950   0.287
 1718TIP3    H226714   6.299   2.808   0.257
 1719TIP3   OH226715   6.053   3.474   1.228
 1719TIP3    H126716   5.966   3.436   1.237
 1719TIP3    H226717   6.076   3.462   1.136
 1720TIP3   OH226718   3.280   0.809   6.724
 1720TIP3    H126719   3.331   0.777   6.650
 1720TIP3    H226720   3.329   0.886   6.755
 1721TIP3   OH226721   5.983   6.325   2.098
 1721TIP3    H126722   5.901   6.319   2.147
 1721TIP3    H226723   6.049   6.289   2.158
 1722TIP3   OH226724   0.676   3.243   0.799
 1722TIP3    H126725   0.738   3.243   0.727
 1722TIP3    H226726   0.675   3.152   0.830
 1723TIP3   OH226727   4.161   1.577   8.247
 1723TIP3    H126728   4.140   1.484   8.250
 1723TIP3    H226729   4.169   1.597   8.154
 1724TIP3   OH226730   3.228   2.969   0.659
 1724TIP3    H126731   3.224   2.880   0.624
 1724TIP3    H226732   3.293   3.014   0.604
 1725TIP3   OH226733   3.042   3.391   7.180
 1725TIP3    H126734   3.060   3.356   7.267
 1725TIP3    H226735   3.113   3.454   7.164
 1726TIP3   OH226736   1.370   3.932   7.291
 1726TIP3    H126737   1.291   3.878   7.282
 1726TIP3    H226738   1.438   3.871   7.319
 1727TIP3   OH226739   5.864   0.242   0.027
 1727TIP3    H126740   5.958   0.232   0.012
 1727TIP3    H226741   5.852   0.336   0.041
 1728TIP3   OH226742   6.021   3.414   8.298
 1728TIP3    H126743   6.083   3.487   8.301
 1728TIP3    H226744   6.022   3.378   8.387
 1729TIP3   OH226745   5.493   3.573   1.032
 1729TIP3    H126746   5.588   3.582   1.021
 1729TIP3    H226747   5.478   3.479   1.037
 1730TIP3   OH226748   0.772   3.976   8.229
 1730TIP3    H126749   0.784   3.884   8.252
 1730TIP3    H226750   0.688   3.979   8.185
 1731TIP3   OH226751   0.054   1.545   0.427
 1731TIP3    H126752   0.025   1.605   0.359
 1731TIP3    H226753   0.081   1.602   0.500
 1732TIP3   OH226754   4.423   4.950   6.346
 1732TIP3    H126755   4.348   4.895   6.323
 1732TIP3    H226756   4.496   4.889   6.353
 1733TIP3   OH226757   1.984   1.346   8.262
 1733TIP3    H126758   1.937   1.348   8.346
 1733TIP3    H226759   2.039   1.424   8.263
 1734TIP3   OH226760   3.966   3.699   0.480
 1734TIP3    H126761   3.928   3.783   0.455
 1734TIP3    H226762   3.899   3.634   0.459
 1735TIP3   OH226763   6.445   1.653   8.529
 1735TIP3    H126764   6.504   1.709   8.579
 1735TIP3    H226765   6.502   1.587   8.490
 1736TIP3   OH226766   1.048   2.088   6.920
 1736TIP3    H126767   1.014   2.177   6.920
 1736TIP3    H226768   1.143   2.098   6.918
 1737TIP3   OH226769   3.035   3.083   6.325
 1737TIP3    H126770   3.014   3.006   6.378
 1737TIP3    H226771   2.950   3.121   6.304
 1738TIP3   OH226772   5.226   4.161   1.344
 1738TIP3    H126773   5.226   4.066   1.331
 1738TIP3    H226774   5.304   4.192   1.297
 1739TIP3   OH226775   5.867   0.505   8.421
 1739TIP3    H126776   5.843   0.583   8.471
 1739TIP3    H226777   5.909   0.447   8.484
 1740TIP3   OH226778   0.758   6.779   7.213
 1740TIP3    H126779   0.731   6.737   7.132
 1740TIP3    H226780   0.832   6.727   7.244
 1741TIP3   OH226781   2.562   2.124   0.355
 1741TIP3    H126782   2.504   2.133   0.280
 1741TIP3    H226783   2.648   2.149   0.322
 1742TIP3   OH226784   2.953   4.373   0.896
 1742TIP3    H126785   2.997   4.457   0.908
 1742TIP3    H226786   2.940   4.340   0.985
 1743TIP3   OH226787   2.725   4.704   0.394
 1743TIP3    H126788   2.747   4.760   0.469
 1743TIP3    H226789   2.638   4.669   0.416
 1744TIP3   OH226790   5.578   0.950   7.928
 1744TIP3    H126791   5.538   0.954   8.015
 1744TIP3    H226792   5.651   1.011   7.933
 1745TIP3   OH226793   6.439   4.088   0.201
 1745TIP3    H126794   6.425   4.137   0.282
 1745TIP3    H226795   6.484   4.008   0.229
 1746TIP3   OH226796   5.599   1.892   1.089
 1746TIP3    H126797   5.664   1.960   1.071
 1746TIP3    H226798   5.646   1.809   1.075
 1747TIP3   OH226799   5.258   2.701   0.413
 1747TIP3    H126800   5.208   2.723   0.492
 1747TIP3    H226801   5.259   2.782   0.362
 1748TIP3   OH226802   6.702   0.034   7.917
 1748TIP3    H126803   6.699   0.007   8.009
 1748TIP3    H226804   6.726   6.797   7.870
 1749TIP3   OH226805   6.815   5.096   1.305
 1749TIP3    H126806   0.014   5.042   1.372
 1749TIP3    H226807   6.729   5.117   1.341
 1750TIP3   OH226808   6.613   1.954   0.247
 1750TIP3    H126809   6.547   2.011   0.286
 1750TIP3    H226810   6.667   1.925   0.321
 1751TIP3   OH226811   6.554   2.600   8.312
 1751TIP3    H126812   6.620   2.639   8.255
 1751TIP3    H226813   6.579   2.629   8.400
 1752TIP3   OH226814   4.767   0.780   6.658
 1752TIP3    H126815   4.699   0.843   6.680
 1752TIP3    H226816   4.740   0.699   6.700
 1753TIP3   OH226817   0.211   6.132   8.042
 1753TIP3    H126818   0.260   6.213   8.038
 1753TIP3    H226819   0.173   6.123   7.954
 1754TIP3   OH226820   6.615   0.479   6.928
 1754TIP3    H126821   6.581   0.489   7.017
 1754TIP3    H226822   6.675   0.553   6.917
 1755TIP3   OH226823   2.569   1.031   8.032
 1755TIP3    H126824   2.536   0.971   8.099
 1755TIP3    H226825   2.537   1.117   8.059
 1756TIP3   OH226826   5.231   1.608   8.437
 1756TIP3    H126827   5.289   1.677   8.470
 1756TIP3    H226828   5.182   1.650   8.367
 1757TIP3   OH226829   1.178   4.878   8.586
 1757TIP3    H126830   1.186   4.971   8.566
 1757TIP3    H226831   1.119   4.875   8.662
 1758TIP3   OH226832   2.474   5.638   7.075
 1758TIP3    H126833   2.459   5.679   7.160
 1758TIP3    H226834   2.566   5.657   7.055
 1759TIP3   OH226835   5.416   0.920   1.506
 1759TIP3    H126836   5.374   0.871   1.436
 1759TIP3    H226837   5.435   0.855   1.573
 1760TIP3   OH226838   3.949   4.806   7.754
 1760TIP3    H126839   3.976   4.739   7.816
 1760TIP3    H226840   3.853   4.806   7.760
 1761TIP3   OH226841   0.285   4.104   6.523
 1761TIP3    H126842   0.253   4.030   6.574
 1761TIP3    H226843   0.357   4.140   6.575
 1762TIP3   OH226844   2.406   6.594   1.480
 1762TIP3    H126845   2.370   6.509   1.504
 1762TIP3    H226846   2.384   6.603   1.387
 1763TIP3   OH226847   3.069   0.207   0.845
 1763TIP3    H126848   3.163   0.199   0.830
 1763TIP3    H226849   3.047   0.296   0.816
 1764TIP3   OH226850   3.766   0.932   2.287
 1764TIP3    H126851   3.690   0.983   2.257
 1764TIP3    H226852   3.748   0.915   2.379
 1765TIP3   OH226853   2.273   6.025   6.119
 1765TIP3    H126854   2.328   6.046   6.195
 1765TIP3    H226855   2.297   5.935   6.096
 1766TIP3   OH226856   4.989   4.506   7.936
 1766TIP3    H126857   4.983   4.545   8.023
 1766TIP3    H226858   5.042   4.427   7.948
 1767TIP3   OH226859   0.184   3.787   6.428
 1767TIP3    H126860   0.116   3.786   6.495
 1767TIP3    H226861   0.197   3.695   6.405
 1768TIP3   OH226862   6.351   3.879   0.657
 1768TIP3    H126863   6.368   3.936   0.732
 1768TIP3    H226864   6.436   3.841   0.637
 1769TIP3   OH226865   2.167   4.127   7.339
 1769TIP3    H126866   2.079   4.097   7.361
 1769TIP3    H226867   2.201   4.062   7.277
 1770TIP3   OH226868   3.238   4.329   2.039
 1770TIP3    H126869   3.170   4.385   2.076
 1770TIP3    H226870   3.220   4.243   2.075
 1771TIP3   OH226871   1.322   1.191   0.626
 1771TIP3    H126872   1.261   1.140   0.572
 1771TIP3    H226873   1.266   1.237   0.688
 1772TIP3   OH226874   2.799   0.475   7.691
 1772TIP3    H126875   2.856   0.399   7.708
 1772TIP3    H226876   2.857   0.542   7.656
 1773TIP3   OH226877   3.587   0.335   7.006
 1773TIP3    H126878   3.625   0.307   6.923
 1773TIP3    H226879   3.547   0.420   6.986
 1774TIP3   OH226880   3.869   0.785   2.529
 1774TIP3    H126881   3.776   0.762   2.531
 1774TIP3    H226882   3.911   0.712   2.484
 1775TIP3   OH226883   2.292   0.119   8.055
 1775TIP3    H126884   2.234   0.164   8.117
 1775TIP3    H226885   2.262   0.027   8.058
 1776TIP3   OH226886   0.861   0.480   2.496
 1776TIP3    H126887   0.940   0.437   2.529
 1776TIP3    H226888   0.821   0.414   2.438
 1777TIP3   OH226889   1.895   0.984   1.628
 1777TIP3    H126890   1.907   0.893   1.602
 1777TIP3    H226891   1.807   0.988   1.664
 1778TIP3   OH226892   5.992   3.344   0.250
 1778TIP3    H126893   6.018   3.419   0.196
 1778TIP3    H226894   6.075   3.300   0.270
 1779TIP3   OH226895   5.600   3.704   0.739
 1779TIP3    H126896   5.647   3.773   0.784
 1779TIP3    H226897   5.507   3.723   0.756
 1780TIP3   OH226898   3.326   0.268   7.943
 1780TIP3    H126899   3.340   0.266   7.849
 1780TIP3    H226900   3.337   0.177   7.971
 1781TIP3   OH226901   1.097   2.187   1.156
 1781TIP3    H126902   1.041   2.227   1.223
 1781TIP3    H226903   1.046   2.113   1.124
 1782TIP3   OH226904   3.144   4.074   1.136
 1782TIP3    H126905   3.192   4.153   1.157
 1782TIP3    H226906   3.182   4.043   1.054
 1783TIP3   OH226907   3.727   4.552   0.300
 1783TIP3    H126908   3.763   4.530   0.215
 1783TIP3    H226909   3.635   4.574   0.283
 1784TIP3   OH226910   6.023   4.403   0.898
 1784TIP3    H126911   6.049   4.458   0.972
 1784TIP3    H226912   6.100   4.350   0.880
 1785TIP3   OH226913   5.376   3.967   7.917
 1785TIP3    H126914   5.349   4.058   7.929
 1785TIP3    H226915   5.294   3.920   7.901
 1786TIP3   OH226916   3.368   4.697   6.902
 1786TIP3    H126917   3.310   4.726   6.972
 1786TIP3    H226918   3.414   4.622   6.939
 1787TIP3   OH226919   1.719   6.080   7.371
 1787TIP3    H126920   1.798   6.027   7.369
 1787TIP3    H226921   1.672   6.056   7.291
 1788TIP3   OH226922   4.212   3.885   1.313
 1788TIP3    H126923   4.236   3.830   1.238
 1788TIP3    H226924   4.250   3.970   1.293
 1789TIP3   OH226925   2.313   6.277   0.198
 1789TIP3    H126926   2.392   6.260   0.146
 1789TIP3    H226927   2.241   6.249   0.141
 1790TIP3   OH226928   2.978   1.135   7.615
 1790TIP3    H126929   2.952   1.043   7.603
 1790TIP3    H226930   3.034   1.134   7.692
 1791TIP3   OH226931   0.662   3.725   1.810
 1791TIP3    H126932   0.737   3.761   1.858
 1791TIP3    H226933   0.698   3.704   1.723
 1792TIP3   OH226934   4.985   3.784   0.713
 1792TIP3    H126935   5.077   3.811   0.718
 1792TIP3    H226936   4.942   3.832   0.784
 1793TIP3   OH226937   3.743   2.471   1.954
 1793TIP3    H126938   3.804   2.524   1.904
 1793TIP3    H226939   3.660   2.476   1.906
 1794TIP3   OH226940   2.657   5.733   0.540
 1794TIP3    H126941   2.662   5.781   0.458
 1794TIP3    H226942   2.699   5.649   0.522
 1795TIP3   OH226943   1.501   2.904   0.319
 1795TIP3    H126944   1.449   2.911   0.399
 1795TIP3    H226945   1.546   2.820   0.327
 1796TIP3   OH226946   6.516   5.428   8.343
 1796TIP3    H126947   6.533   5.498   8.280
 1796TIP3    H226948   6.596   5.422   8.394
 1797TIP3   OH226949   1.104   6.594   8.567
 1797TIP3    H126950   1.185   6.551   8.594
 1797TIP3    H226951   1.097   6.671   8.624
 1798TIP3   OH226952   1.342   2.882   0.536
 1798TIP3    H126953   1.291   2.942   0.482
 1798TIP3    H226954   1.312   2.795   0.510
 1799TIP3   OH226955   4.669   4.362   7.180
 1799TIP3    H126956   4.685   4.435   7.120
 1799TIP3    H226957   4.578   4.373   7.208
 1800TIP3   OH226958   6.310   0.231   8.059
 1800TIP3    H126959   6.397   0.204   8.032
 1800TIP3    H226960   6.302   0.321   8.028
 1801TIP3   OH226961   4.145   2.440   1.973
 1801TIP3    H126962   4.141   2.527   1.934
 1801TIP3    H226963   4.223   2.400   1.934
 1802TIP3   OH226964   0.855   6.545   0.108
 1802TIP3    H126965   0.926   6.485   0.084
 1802TIP3    H226966   0.878   6.577   0.195
 1803TIP3   OH226967   3.479   0.203   0.380
 1803TIP3    H126968   3.519   0.144   0.316
 1803TIP3    H226969   3.544   0.210   0.451
 1804TIP3   OH226970   6.840   0.162   8.315
 1804TIP3    H126971   0.010   0.104   8.240
 1804TIP3    H226972   6.819   0.104   8.388
 1805TIP3   OH226973   4.771   0.772   0.883
 1805TIP3    H126974   4.691   0.730   0.914
 1805TIP3    H226975   4.808   0.814   0.961
 1806TIP3   OH226976   0.853   0.135   6.722
 1806TIP3    H126977   0.851   0.218   6.675
 1806TIP3    H226978   0.854   0.160   6.814
 1807TIP3   OH226979   3.935   5.536   8.472
 1807TIP3    H126980   3.997   5.607   8.488
 1807TIP3    H226981   3.989   5.457   8.469
 1808TIP3   OH226982   2.429   5.475   0.743
 1808TIP3    H126983   2.404   5.555   0.698
 1808TIP3    H226984   2.374   5.474   0.822
 1809TIP3   OH226985   3.368   2.226   8.677
 1809TIP3    H126986   3.352   2.135   8.654
 1809TIP3    H226987   3.414   2.222   0.048
 1810TIP3   OH226988   4.785   4.622   7.575
 1810TIP3    H126989   4.762   4.681   7.503
 1810TIP3    H226990   4.811   4.540   7.533
 1811TIP3   OH226991   0.632   5.665   6.263
 1811TIP3    H126992   0.574   5.615   6.321
 1811TIP3    H226993   0.627   5.755   6.296
 1812TIP3   OH226994   1.852   2.325   1.155
 1812TIP3    H126995   1.921   2.391   1.162
 1812TIP3    H226996   1.788   2.364   1.095
 1813TIP3   OH226997   3.967   6.204   0.952
 1813TIP3    H126998   3.945   6.163   1.036
 1813TIP3    H226999   3.922   6.289   0.954
 1814TIP3   OH227000   5.162   6.577   0.782
 1814TIP3    H127001   5.136   6.669   0.783
 1814TIP3    H227002   5.120   6.539   0.859
 1815TIP3   OH227003   0.025   4.704   1.422
 1815TIP3    H127004   0.086   4.676   1.353
 1815TIP3    H227005   0.056   4.791   1.448
 1816TIP3   OH227006   1.260   1.973   7.703
 1816TIP3    H127007   1.311   1.988   7.623
 1816TIP3    H227008   1.174   1.945   7.671
 1817TIP3   OH227009   3.199   4.306   7.151
 1817TIP3    H127010   3.221   4.388   7.194
 1817TIP3    H227011   3.240   4.311   7.065
 1818TIP3   OH227012   1.391   0.545   0.419
 1818TIP3    H127013   1.364   0.465   0.373
 1818TIP3    H227014   1.484   0.555   0.398
 1819TIP3   OH227015   4.671   2.907   7.973
 1819TIP3    H127016   4.621   2.857   8.038
 1819TIP3    H227017   4.677   2.995   8.009
 1820TIP3   OH227018   4.633   5.769   8.540
 1820TIP3    H127019   4.610   5.826   8.467
 1820TIP3    H227020   4.704   5.714   8.506
 1821TIP3   OH227021   6.591   5.215   0.771
 1821TIP3    H127022   6.663   5.246   0.825
 1821TIP3    H227023   6.619   5.128   0.742
 1822TIP3   OH227024   0.800   0.055   7.721
 1822TIP3    H127025   0.723   0.108   7.742
 1822TIP3    H227026   0.774   6.809   7.745
 1823TIP3   OH227027   4.841   0.517   7.457
 1823TIP3    H127028   4.919   0.475   7.494
 1823TIP3    H227029   4.775   0.509   7.526
 1824TIP3   OH227030   2.750   4.625   2.602
 1824TIP3    H127031   2.782   4.630   2.512
 1824TIP3    H227032   2.807   4.683   2.651
 1825TIP3   OH227033   0.906   0.668   0.667
 1825TIP3    H127034   0.954   0.750   0.675
 1825TIP3    H227035   0.871   0.669   0.578
 1826TIP3   OH227036   3.173   3.376   8.170
 1826TIP3    H127037   3.133   3.330   8.096
 1826TIP3    H227038   3.258   3.333   8.181
 1827TIP3   OH227039   3.674   4.583   7.897
 1827TIP3    H127040   3.719   4.615   7.819
 1827TIP3    H227041   3.612   4.518   7.864
 1828TIP3   OH227042   3.371   4.044   7.014
 1828TIP3    H127043   3.338   4.086   6.934
 1828TIP3    H227044   3.424   3.971   6.982
 1829TIP3   OH227045   1.284   0.409   7.668
 1829TIP3    H127046   1.314   0.495   7.697
 1829TIP3    H227047   1.319   0.401   7.579
 1830TIP3   OH227048   1.087   5.417   7.190
 1830TIP3    H127049   1.029   5.472   7.242
 1830TIP3    H227050   1.126   5.357   7.253
 1831TIP3   OH227051   3.755   1.255   2.397
 1831TIP3    H127052   3.710   1.178   2.432
 1831TIP3    H227053   3.848   1.240   2.416
 1832TIP3   OH227054   1.160   1.133   8.438
 1832TIP3    H127055   1.071   1.106   8.460
 1832TIP3    H227056   1.216   1.071   8.485
 1833TIP3   OH227057   3.984   3.504   7.641
 1833TIP3    H127058   3.922   3.463   7.581
 1833TIP3    H227059   4.058   3.528   7.586
 1834TIP3   OH227060   6.822   5.780   7.846
 1834TIP3    H127061   6.761   5.853   7.853
 1834TIP3    H227062   6.774   5.713   7.798
 1835TIP3   OH227063   0.734   0.008   1.383
 1835TIP3    H127064   0.695   6.775   1.339
 1835TIP3    H227065   0.802   6.814   1.439
 1836TIP3   OH227066   4.134   5.367   7.608
 1836TIP3    H127067   4.130   5.327   7.521
 1836TIP3    H227068   4.176   5.452   7.593
 1837TIP3   OH227069   1.590   2.648   0.336
 1837TIP3    H127070   1.536   2.569   0.331
 1837TIP3    H227071   1.628   2.646   0.424
 1838TIP3   OH227072   0.686   3.574   1.581
 1838TIP3    H127073   0.698   3.500   1.640
 1838TIP3    H227074   0.706   3.538   1.494
 1839TIP3   OH227075   2.654   2.216   7.268
 1839TIP3    H127076   2.603   2.135   7.261
 1839TIP3    H227077   2.726   2.205   7.207
 1840TIP3   OH227078   1.803   0.574   6.248
 1840TIP3    H127079   1.850   0.614   6.174
 1840TIP3    H227080   1.862   0.506   6.279
 1841TIP3   OH227081   4.020   2.047   1.257
 1841TIP3    H127082   3.947   1.991   1.282
 1841TIP3    H227083   4.085   2.035   1.327
 1842TIP3   OH227084   3.402   5.584   0.036
 1842TIP3    H127085   3.374   5.578   0.128
 1842TIP3    H227086   3.478   5.642   0.038
 1843TIP3   OH227087   6.007   6.013   7.801
 1843TIP3    H127088   6.076   6.041   7.741
 1843TIP3    H227089   5.956   5.950   7.751
 1844TIP3   OH227090   0.432   5.793   0.415
 1844TIP3    H127091   0.398   5.845   0.489
 1844TIP3    H227092   0.467   5.858   0.355
 1845TIP3   OH227093   5.588   6.500   1.913
 1845TIP3    H127094   5.561   6.491   2.004
 1845TIP3    H227095   5.674   6.458   1.909
 1846TIP3   OH227096   4.922   6.487   0.949
 1846TIP3    H127097   4.962   6.402   0.969
 1846TIP3    H227098   4.831   6.478   0.980
 1847TIP3   OH227099   5.066   4.883   8.320
 1847TIP3    H127100   5.135   4.897   8.385
 1847TIP3    H227101   5.113   4.875   8.236
 1848TIP3   OH227102   1.767   4.671   8.080
 1848TIP3    H127103   1.685   4.623   8.066
 1848TIP3    H227104   1.835   4.613   8.048
 1849TIP3   OH227105   5.612   6.083   1.040
 1849TIP3    H127106   5.650   6.168   1.017
 1849TIP3    H227107   5.599   6.086   1.134
 1850TIP3   OH227108   1.029   3.510   0.797
 1850TIP3    H127109   0.973   3.584   0.819
 1850TIP3    H227110   0.970   3.446   0.757
 1851TIP3   OH227111   4.649   0.001   5.884
 1851TIP3    H127112   4.569   0.053   5.894
 1851TIP3    H227113   4.679   6.829   5.974
 1852TIP3   OH227114   3.080   3.208   0.696
 1852TIP3    H127115   3.145   3.138   0.696
 1852TIP3    H227116   3.094   3.254   0.779
 1853TIP3   OH227117   0.969   5.548   0.328
 1853TIP3    H127118   0.913   5.489   0.278
 1853TIP3    H227119   0.943   5.635   0.300
 1854TIP3   OH227120   2.165   1.632   8.015
 1854TIP3    H127121   2.185   1.693   8.086
 1854TIP3    H227122   2.071   1.644   8.000
 1855TIP3   OH227123   2.609   0.411   0.123
 1855TIP3    H127124   2.624   0.479   0.057
 1855TIP3    H227125   2.515   0.413   0.138
 1856TIP3   OH227126   4.370   0.896   7.917
 1856TIP3    H127127   4.328   0.810   7.926
 1856TIP3    H227128   4.455   0.885   7.959
 1857TIP3   OH227129   0.055   2.712   1.910
 1857TIP3    H127130   6.829   2.682   1.851
 1857TIP3    H227131   0.109   2.634   1.925
 1858TIP3   OH227132   5.868   4.596   7.910
 1858TIP3    H127133   5.806   4.660   7.946
 1858TIP3    H227134   5.898   4.634   7.828
 1859TIP3   OH227135   4.806   4.894   7.076
 1859TIP3    H127136   4.730   4.947   7.053
 1859TIP3    H227137   4.881   4.952   7.066
 1860TIP3   OH227138   4.817   6.581   2.400
 1860TIP3    H127139   4.778   6.634   2.330
 1860TIP3    H227140   4.751   6.581   2.469
 1861TIP3   OH227141   3.965   3.820   8.646
 1861TIP3    H127142   4.054   3.804   8.614
 1861TIP3    H227143   3.928   3.882   8.584
 1862TIP3   OH227144   6.557   2.012   1.264
 1862TIP3    H127145   6.650   2.022   1.241
 1862TIP3    H227146   6.552   1.924   1.302
 1863TIP3   OH227147   3.457   0.040   0.910
 1863TIP3    H127148   3.510   6.825   0.856
 1863TIP3    H227149   3.384   6.828   0.940
 1864TIP3   OH227150   2.052   1.495   7.271
 1864TIP3    H127151   2.142   1.479   7.300
 1864TIP3    H227152   2.057   1.501   7.176
 1865TIP3   OH227153   6.575   3.020   8.383
 1865TIP3    H127154   6.504   3.030   8.447
 1865TIP3    H227155   6.636   2.960   8.425
 1866TIP3   OH227156   4.798   2.174   6.236
 1866TIP3    H127157   4.713   2.216   6.221
 1866TIP3    H227158   4.827   2.206   6.321
 1867TIP3   OH227159   0.525   0.532   6.908
 1867TIP3    H127160   0.507   0.523   7.002
 1867TIP3    H227161   0.493   0.619   6.886
 1868TIP3   OH227162   3.093   6.127   1.062
 1868TIP3    H127163   3.147   6.184   1.116
 1868TIP3    H227164   3.027   6.092   1.122
 1869TIP3   OH227165   4.059   4.815   2.216
 1869TIP3    H127166   4.073   4.884   2.281
 1869TIP3    H227167   4.114   4.742   2.245
 1870TIP3   OH227168   0.376   2.830   7.177
 1870TIP3    H127169   0.400   2.906   7.124
 1870TIP3    H227170   0.451   2.772   7.172
 1871TIP3   OH227171   2.925   4.774   1.295
 1871TIP3    H127172   2.933   4.773   1.199
 1871TIP3    H227173   2.832   4.789   1.311
 1872TIP3   OH227174   2.209   5.830   7.351
 1872TIP3    H127175   2.161   5.846   7.433
 1872TIP3    H227176   2.300   5.822   7.378
 1873TIP3   OH227177   6.129   6.404   1.125
 1873TIP3    H127178   6.212   6.434   1.088
 1873TIP3    H227179   6.112   6.321   1.081
 1874TIP3   OH227180   6.793   1.003   1.676
 1874TIP3    H127181   6.793   0.907   1.680
 1874TIP3    H227182   6.817   1.031   1.764
 1875TIP3   OH227183   3.941   1.846   7.985
 1875TIP3    H127184   4.002   1.864   8.057
 1875TIP3    H227185   3.915   1.755   7.997
 1876TIP3   OH227186   5.225   3.050   0.063
 1876TIP3    H127187   5.147   3.096   0.094
 1876TIP3    H227188   5.203   3.025   8.686
 1877TIP3   OH227189   5.808   0.909   8.256
 1877TIP3    H127190   5.743   0.857   8.302
 1877TIP3    H227191   5.889   0.897   8.306
 1878TIP3   OH227192   1.586   4.523   6.971
 1878TIP3    H127193   1.653   4.458   6.991
 1878TIP3    H227194   1.515   4.503   7.031
 1879TIP3   OH227195   3.480   5.144   7.572
 1879TIP3    H127196   3.406   5.125   7.630
 1879TIP3    H227197   3.546   5.078   7.596
 1880TIP3   OH227198   5.635   1.924   7.978
 1880TIP3    H127199   5.716   1.967   8.004
 1880TIP3    H227200   5.589   1.990   7.926
 1881TIP3   OH227201   5.615   6.340   1.515
 1881TIP3    H127202   5.649   6.427   1.534
 1881TIP3    H227203   5.589   6.344   1.423
 1882TIP3   OH227204   2.327   0.314   0.361
 1882TIP3    H127205   2.292   0.231   0.330
 1882TIP3    H227206   2.404   0.289   0.413
 1883TIP3   OH227207   6.464   2.064   7.775
 1883TIP3    H127208   6.485   2.157   7.785
 1883TIP3    H227209   6.388   2.051   7.832
 1884TIP3   OH227210   0.032   4.049   0.703
 1884TIP3    H127211   6.779   4.053   0.708
 1884TIP3    H227212   0.059   3.999   0.780
 1885TIP3   OH227213   0.058   2.671   0.945
 1885TIP3    H127214   0.052   2.754   0.897
 1885TIP3    H227215   6.811   2.651   0.969
 1886TIP3   OH227216   2.790   0.816   1.355
 1886TIP3    H127217   2.846   0.829   1.432
 1886TIP3    H227218   2.768   0.723   1.356
 1887TIP3   OH227219   3.631   6.762   0.720
 1887TIP3    H127220   3.692   6.770   0.646
 1887TIP3    H227221   3.661   6.684   0.767
 1888TIP3   OH227222   0.624   6.666   7.662
 1888TIP3    H127223   0.678   6.620   7.727
 1888TIP3    H227224   0.625   6.608   7.586
 1889TIP3   OH227225   0.204   1.523   8.434
 1889TIP3    H127226   0.154   1.556   8.509
 1889TIP3    H227227   0.160   1.441   8.410
 1890TIP3   OH227228   5.721   6.708   7.589
 1890TIP3    H127229   5.792   6.712   7.654
 1890TIP3    H227230   5.690   6.799   7.582
 1891TIP3   OH227231   1.717   4.870   2.089
 1891TIP3    H127232   1.715   4.964   2.070
 1891TIP3    H227233   1.725   4.864   2.184
 1892TIP3   OH227234   1.000   5.461   6.016
 1892TIP3    H127235   1.050   5.399   6.070
 1892TIP3    H227236   0.911   5.456   6.050
 1893TIP3   OH227237   0.302   4.343   1.185
 1893TIP3    H127238   0.231   4.369   1.244
 1893TIP3    H227239   0.348   4.424   1.166
 1894TIP3   OH227240   0.206   6.513   2.105
 1894TIP3    H127241   0.193   6.607   2.117
 1894TIP3    H227242   0.156   6.492   2.026
 1895TIP3   OH227243   3.229   3.419   8.649
 1895TIP3    H127244   3.166   3.348   8.657
 1895TIP3    H227245   3.314   3.375   8.638
 1896TIP3   OH227246   2.386   0.488   0.754
 1896TIP3    H127247   2.312   0.540   0.784
 1896TIP3    H227248   2.459   0.515   0.810
 1897TIP3   OH227249   1.232   5.800   8.542
 1897TIP3    H127250   1.314   5.820   8.586
 1897TIP3    H227251   1.257   5.741   8.471
 1898TIP3   OH227252   5.344   6.095   7.425
 1898TIP3    H127253   5.391   6.107   7.508
 1898TIP3    H227254   5.255   6.126   7.443
 1899TIP3   OH227255   5.029   4.232   7.448
 1899TIP3    H127256   5.007   4.303   7.508
 1899TIP3    H227257   5.106   4.262   7.401
 1900TIP3   OH227258   0.877   3.751   6.548
 1900TIP3    H127259   0.969   3.775   6.535
 1900TIP3    H227260   0.835   3.769   6.464
 1901TIP3   OH227261   2.883   4.218   1.411
 1901TIP3    H127262   2.807   4.229   1.468
 1901TIP3    H227263   2.951   4.182   1.469
 1902TIP3   OH227264   0.599   0.982   7.678
 1902TIP3    H127265   0.516   0.950   7.643
 1902TIP3    H227266   0.575   1.056   7.733
 1903TIP3   OH227267   1.753   0.102   1.947
 1903TIP3    H127268   1.751   0.136   2.036
 1903TIP3    H227269   1.801   0.019   1.954
 1904TIP3   OH227270   4.133   3.770   7.634
 1904TIP3    H127271   4.162   3.690   7.591
 1904TIP3    H227272   4.215   3.815   7.657
 1905TIP3   OH227273   3.499   5.199   0.192
 1905TIP3    H127274   3.555   5.126   0.164
 1905TIP3    H227275   3.560   5.260   0.233
 1906TIP3   OH227276   0.551   3.515   8.357
 1906TIP3    H127277   0.493   3.456   8.406
 1906TIP3    H227278   0.494   3.553   8.290
 1907TIP3   OH227279   1.651   6.834   8.096
 1907TIP3    H127280   1.720   0.023   8.038
 1907TIP3    H227281   1.663   6.739   8.097
 1908TIP3   OH227282   1.364   5.066   7.592
 1908TIP3    H127283   1.345   5.159   7.593
 1908TIP3    H227284   1.278   5.024   7.580
 1909TIP3   OH227285   4.641   5.238   1.246
 1909TIP3    H127286   4.547   5.254   1.247
 1909TIP3    H227287   4.653   5.166   1.308
 1910TIP3   OH227288   6.598   1.762   1.449
 1910TIP3    H127289   6.645   1.695   1.399
 1910TIP3    H227290   6.627   1.750   1.539
 1911TIP3   OH227291   0.279   4.697   8.269
 1911TIP3    H127292   0.313   4.776   8.227
 1911TIP3    H227293   0.313   4.625   8.216
 1912TIP3   OH227294   4.774   2.469   7.554
 1912TIP3    H127295   4.799   2.407   7.623
 1912TIP3    H227296   4.681   2.451   7.539
 1913TIP3   OH227297   5.945   3.900   0.124
 1913TIP3    H127298   5.970   3.926   0.212
 1913TIP3    H227299   5.892   3.821   0.136
 1914TIP3   OH227300   2.200   2.805   2.206
 1914TIP3    H127301   2.188   2.754   2.286
 1914TIP3    H227302   2.156   2.755   2.138
 1915TIP3   OH227303   5.992   2.516   6.549
 1915TIP3    H127304   5.957   2.427   6.545
 1915TIP3    H227305   6.042   2.518   6.630
 1916TIP3   OH227306   4.875   1.182   1.677
 1916TIP3    H127307   4.856   1.264   1.632
 1916TIP3    H227308   4.816   1.182   1.752
 1917TIP3   OH227309   2.831   6.062   7.109
 1917TIP3    H127310   2.894   6.068   7.037
 1917TIP3    H227311   2.885   6.066   7.188
 1918TIP3   OH227312   3.249   4.066   7.921
 1918TIP3    H127313   3.154   4.051   7.924
 1918TIP3    H227314   3.263   4.141   7.978
 1919TIP3   OH227315   1.015   0.739   0.182
 1919TIP3    H127316   1.003   0.659   0.131
 1919TIP3    H227317   1.044   0.709   0.268
 1920TIP3   OH227318   3.204   3.755   0.750
 1920TIP3    H127319   3.133   3.709   0.796
 1920TIP3    H227320   3.277   3.693   0.750
 1921TIP3   OH227321   4.911   4.265   1.929
 1921TIP3    H127322   4.995   4.267   1.975
 1921TIP3    H227323   4.913   4.183   1.880
 1922TIP3   OH227324   6.286   6.422   8.221
 1922TIP3    H127325   6.365   6.388   8.180
 1922TIP3    H227326   6.256   6.492   8.163
 1923TIP3   OH227327   3.165   5.083   0.891
 1923TIP3    H127328   3.256   5.105   0.909
 1923TIP3    H227329   3.117   5.110   0.969
 1924TIP3   OH227330   3.576   1.700   0.122
 1924TIP3    H127331   3.566   1.770   0.187
 1924TIP3    H227332   3.626   1.740   0.051
 1925TIP3   OH227333   2.578   1.253   7.533
 1925TIP3    H127334   2.646   1.271   7.599
 1925TIP3    H227335   2.626   1.253   7.450
 1926TIP3   OH227336   1.007   1.623   0.706
 1926TIP3    H127337   0.961   1.584   0.780
 1926TIP3    H227338   1.021   1.550   0.645
 1927TIP3   OH227339   1.979   0.078   6.659
 1927TIP3    H127340   2.043   0.010   6.638
 1927TIP3    H227341   1.916   0.075   6.587
 1928TIP3   OH227342   6.696   4.010   2.813
 1928TIP3    H127343   6.667   4.101   2.820
 1928TIP3    H227344   6.790   4.014   2.829
 1929TIP3   OH227345   2.429   0.141   7.255
 1929TIP3    H127346   2.346   0.095   7.241
 1929TIP3    H227347   2.411   0.232   7.231
 1930TIP3   OH227348   6.082   0.055   0.865
 1930TIP3    H127349   6.066   0.032   0.773
 1930TIP3    H227350   6.018   0.125   0.882
 1931TIP3   OH227351   2.107   6.021   1.487
 1931TIP3    H127352   2.070   5.975   1.412
 1931TIP3    H227353   2.178   6.073   1.450
 1932TIP3   OH227354   5.696   6.293   7.254
 1932TIP3    H127355   5.745   6.351   7.195
 1932TIP3    H227356   5.678   6.346   7.331
 1933TIP3   OH227357   3.857   0.638   1.656
 1933TIP3    H127358   3.901   0.597   1.581
 1933TIP3    H227359   3.881   0.583   1.731
 1934TIP3   OH227360   4.324   1.090   0.021
 1934TIP3    H127361   4.393   1.067   8.673
 1934TIP3    H227362   4.302   1.007   0.064
 1935TIP3   OH227363   5.497   6.203   7.654
 1935TIP3    H127364   5.426   6.207   7.718
 1935TIP3    H227365   5.565   6.260   7.690
 1936TIP3   OH227366   6.716   5.001   0.344
 1936TIP3    H127367   6.662   5.079   0.357
 1936TIP3    H227368   6.682   4.961   0.264
 1937TIP3   OH227369   1.729   2.540   0.530
 1937TIP3    H127370   1.769   2.453   0.531
 1937TIP3    H227371   1.705   2.556   0.622
 1938TIP3   OH227372   2.298   2.306   7.594
 1938TIP3    H127373   2.229   2.325   7.657
 1938TIP3    H227374   2.377   2.294   7.648
 1939TIP3   OH227375   4.046   6.666   8.622
 1939TIP3    H127376   4.124   6.679   8.676
 1939TIP3    H227377   4.080   6.638   8.537
 1940TIP3   OH227378   6.803   5.677   1.119
 1940TIP3    H127379   6.777   5.765   1.145
 1940TIP3    H227380   0.024   5.650   1.185
 1941TIP3   OH227381   1.443   5.203   1.839
 1941TIP3    H127382   1.445   5.112   1.809
 1941TIP3    H227383   1.492   5.202   1.921
 1942TIP3   OH227384   5.982   0.330   1.713
 1942TIP3    H127385   6.062   0.380   1.696
 1942TIP3    H227386   6.000   0.244   1.676
 1943TIP3   OH227387   0.902   1.234   7.135
 1943TIP3    H127388   0.913   1.211   7.227
 1943TIP3    H227389   0.964   1.305   7.119
 1944TIP3   OH227390   6.429   1.573   7.590
 1944TIP3    H127391   6.426   1.647   7.651
 1944TIP3    H227392   6.429   1.495   7.646
 1945TIP3   OH227393   0.907   5.672   8.198
 1945TIP3    H127394   0.866   5.697   8.281
 1945TIP3    H227395   0.933   5.754   8.158
 1946TIP3   OH227396   0.118   3.229   8.699
 1946TIP3    H127397   0.191   3.218   0.047
 1946TIP3    H227398   0.043   3.194   0.032
 1947TIP3   OH227399   4.477   2.914   6.930
 1947TIP3    H127400   4.438   2.841   6.882
 1947TIP3    H227401   4.571   2.898   6.926
 1948TIP3   OH227402   6.583   3.588   2.148
 1948TIP3    H127403   6.528   3.663   2.124
 1948TIP3    H227404   6.624   3.614   2.231
 1949TIP3   OH227405   3.564   5.699   8.414
 1949TIP3    H127406   3.608   5.743   8.486
 1949TIP3    H227407   3.571   5.606   8.435
 1950TIP3   OH227408   1.530   3.407   8.503
 1950TIP3    H127409   1.441   3.442   8.502
 1950TIP3    H227410   1.521   3.318   8.536
 1951TIP3   OH227411   3.227   1.725   0.465
 1951TIP3    H127412   3.207   1.788   0.396
 1951TIP3    H227413   3.225   1.640   0.422
 1952TIP3   OH227414   4.218   3.544   1.483
 1952TIP3    H127415   4.303   3.589   1.485
 1952TIP3    H227416   4.210   3.510   1.394
 1953TIP3   OH227417   3.254   5.823   6.485
 1953TIP3    H127418   3.170   5.787   6.515
 1953TIP3    H227419   3.257   5.910   6.523
 1954TIP3   OH227420   3.232   0.175   1.103
 1954TIP3    H127421   3.185   0.094   1.087
 1954TIP3    H227422   3.325   0.151   1.096
 1955TIP3   OH227423   4.881   6.489   8.428
 1955TIP3    H127424   4.824   6.463   8.500
 1955TIP3    H227425   4.966   6.505   8.470
 1956TIP3   OH227426   1.848   3.321   1.818
 1956TIP3    H127427   1.915   3.283   1.874
 1956TIP3    H227428   1.835   3.409   1.853
 1957TIP3   OH227429   4.216   3.182   0.733
 1957TIP3    H127430   4.237   3.276   0.726
 1957TIP3    H227431   4.255   3.144   0.654
 1958TIP3   OH227432   5.911   4.316   6.613
 1958TIP3    H127433   5.850   4.245   6.594
 1958TIP3    H227434   5.959   4.286   6.690
 1959TIP3   OH227435   3.685   0.828   7.842
 1959TIP3    H127436   3.605   0.860   7.884
 1959TIP3    H227437   3.675   0.852   7.750
 1960TIP3   OH227438   4.340   6.309   0.661
 1960TIP3    H127439   4.339   6.404   0.674
 1960TIP3    H227440   4.298   6.274   0.739
 1961TIP3   OH227441   1.616   4.363   7.994
 1961TIP3    H127442   1.540   4.324   7.951
 1961TIP3    H227443   1.588   4.451   8.016
 1962TIP3   OH227444   1.251   3.469   6.795
 1962TIP3    H127445   1.225   3.377   6.794
 1962TIP3    H227446   1.245   3.498   6.704
 1963TIP3   OH227447   5.727   5.418   7.987
 1963TIP3    H127448   5.755   5.508   8.003
 1963TIP3    H227449   5.682   5.393   8.068
 1964TIP3   OH227450   6.779   6.059   8.246
 1964TIP3    H127451   6.756   5.982   8.298
 1964TIP3    H227452   6.751   6.036   8.157
 1965TIP3   OH227453   2.536   4.283   0.565
 1965TIP3    H127454   2.592   4.281   0.643
 1965TIP3    H227455   2.450   4.308   0.598
 1966TIP3   OH227456   4.276   5.925   0.116
 1966TIP3    H127457   4.250   5.997   0.058
 1966TIP3    H227458   4.204   5.918   0.178
 1967TIP3   OH227459   2.785   6.614   0.916
 1967TIP3    H127460   2.836   6.647   0.842
 1967TIP3    H227461   2.844   6.622   0.992
 1968TIP3   OH227462   2.830   3.160   0.960
 1968TIP3    H127463   2.924   3.172   0.944
 1968TIP3    H227464   2.788   3.195   0.881
 1969TIP3   OH227465   1.804   5.424   1.025
 1969TIP3    H127466   1.851   5.448   1.105
 1969TIP3    H227467   1.866   5.441   0.954
 1970TIP3   OH227468   4.707   4.635   7.078
 1970TIP3    H127469   4.626   4.655   7.030
 1970TIP3    H227470   4.767   4.706   7.055
 1971TIP3   OH227471   5.299   5.481   8.696
 1971TIP3    H127472   5.312   5.575   8.682
 1971TIP3    H227473   5.219   5.461   8.649
 1972TIP3   OH227474   4.865   2.307   8.480
 1972TIP3    H127475   4.844   2.349   8.564
 1972TIP3    H227476   4.808   2.351   8.417
 1973TIP3   OH227477   4.981   6.663   0.504
 1973TIP3    H127478   5.075   6.660   0.518
 1973TIP3    H227479   4.957   6.575   0.476
 1974TIP3   OH227480   5.550   2.895   0.501
 1974TIP3    H127481   5.530   2.890   0.408
 1974TIP3    H227482   5.629   2.948   0.506
 1975TIP3   OH227483   2.099   3.446   6.581
 1975TIP3    H127484   2.173   3.404   6.623
 1975TIP3    H227485   2.043   3.374   6.553
 1976TIP3   OH227486   5.795   2.256   7.066
 1976TIP3    H127487   5.736   2.327   7.090
 1976TIP3    H227488   5.828   2.282   6.980
 1977TIP3   OH227489   5.972   4.693   6.893
 1977TIP3    H127490   5.946   4.774   6.937
 1977TIP3    H227491   5.917   4.689   6.815
 1978TIP3   OH227492   5.014   5.434   8.101
 1978TIP3    H127493   4.992   5.413   8.192
 1978TIP3    H227494   5.043   5.351   8.063
 1979TIP3   OH227495   3.131   1.697   2.424
 1979TIP3    H127496   3.219   1.680   2.392
 1979TIP3    H227497   3.073   1.662   2.356
 1980TIP3   OH227498   5.704   2.115   6.732
 1980TIP3    H127499   5.689   2.110   6.637
 1980TIP3    H227500   5.650   2.044   6.768
 1981TIP3   OH227501   2.495   6.605   7.085
 1981TIP3    H127502   2.567   6.543   7.072
 1981TIP3    H227503   2.537   6.688   7.106
 1982TIP3   OH227504   1.931   1.084   7.469
 1982TIP3    H127505   1.867   1.151   7.492
 1982TIP3    H227506   1.973   1.117   7.389
 1983TIP3   OH227507   2.098   3.808   7.717
 1983TIP3    H127508   2.121   3.845   7.803
 1983TIP3    H227509   2.045   3.731   7.738
 1984TIP3   OH227510   0.031   1.894   0.051
 1984TIP3    H127511   0.089   1.878   0.126
 1984TIP3    H227512   6.841   1.982   0.065
 1985TIP3   OH227513   0.594   4.599   7.012
 1985TIP3    H127514   0.626   4.581   6.924
 1985TIP3    H227515   0.504   4.627   7.000
 1986TIP3   OH227516   3.145   0.709   8.198
 1986TIP3    H127517   3.163   0.728   8.106
 1986TIP3    H227518   3.053   0.682   8.200
 1987TIP3   OH227519   1.948   6.225   6.618
 1987TIP3    H127520   1.852   6.227   6.626
 1987TIP3    H227521   1.966   6.145   6.568
 1988TIP3   OH227522   0.066   2.161   8.429
 1988TIP3    H127523   0.093   2.185   8.518
 1988TIP3    H227524   0.143   2.118   8.391
 1989TIP3   OH227525   5.182   0.914   8.386
 1989TIP3    H127526   5.262   0.919   8.439
 1989TIP3    H227527   5.137   0.996   8.404
 1990TIP3   OH227528   5.466   2.405   0.992
 1990TIP3    H127529   5.427   2.403   0.905
 1990TIP3    H227530   5.391   2.410   1.052
 1991TIP3   OH227531   1.173   2.168   7.998
 1991TIP3    H127532   1.209   2.102   8.057
 1991TIP3    H227533   1.248   2.196   7.945
 1992TIP3   OH227534   3.450   2.425   7.269
 1992TIP3    H127535   3.382   2.465   7.324
 1992TIP3    H227536   3.402   2.369   7.208
 1993TIP3   OH227537   0.013   6.176   7.843
 1993TIP3    H127538   6.800   6.131   7.906
 1993TIP3    H227539   6.830   6.268   7.848
 1994TIP3   OH227540   3.236   3.851   8.264
 1994TIP3    H127541   3.151   3.889   8.287
 1994TIP3    H227542   3.300   3.916   8.292
 1995TIP3   OH227543   4.366   5.003   8.030
 1995TIP3    H127544   4.456   4.972   8.038
 1995TIP3    H227545   4.351   5.014   7.936
 1996TIP3   OH227546   3.318   0.114   0.688
 1996TIP3    H127547   3.287   0.030   0.653
 1996TIP3    H227548   3.375   0.090   0.761
 1997TIP3   OH227549   4.742   0.192   1.754
 1997TIP3    H127550   4.671   0.253   1.733
 1997TIP3    H227551   4.821   0.246   1.750
 1998TIP3   OH227552   2.928   2.361   7.814
 1998TIP3    H127553   2.983   2.389   7.741
 1998TIP3    H227554   2.843   2.341   7.775
 1999TIP3   OH227555   0.607   6.230   6.821
 1999TIP3    H127556   0.578   6.313   6.782
 1999TIP3    H227557   0.536   6.204   6.879
 2000TIP3   OH227558   5.516   2.490   1.463
 2000TIP3    H127559   5.433   2.536   1.454
 2000TIP3    H227560   5.502   2.429   1.535
 2001TIP3   OH227561   4.703   3.651   7.067
 2001TIP3    H127562   4.653   3.588   7.118
 2001TIP3    H227563   4.659   3.655   6.982
 2002TIP3   OH227564   3.411   6.129   1.076
 2002TIP3    H127565   3.375   6.147   0.989
 2002TIP3    H227566   3.398   6.210   1.125
 2003TIP3   OH227567   0.055   1.195   1.006
 2003TIP3    H127568   0.052   1.133   1.079
 2003TIP3    H227569   6.828   1.166   0.947
 2004TIP3   OH227570   4.373   3.303   1.037
 2004TIP3    H127571   4.380   3.336   0.948
 2004TIP3    H227572   4.456   3.326   1.079
 2005TIP3   OH227573   1.412   3.073   7.816
 2005TIP3    H127574   1.409   3.077   7.911
 2005TIP3    H227575   1.322   3.054   7.790
 2006TIP3   OH227576   1.047   2.841   0.263
 2006TIP3    H127577   1.090   2.920   0.295
 2006TIP3    H227578   1.019   2.862   0.174
 2007TIP3   OH227579   5.301   0.982   1.959
 2007TIP3    H127580   5.244   0.925   1.907
 2007TIP3    H227581   5.389   0.948   1.945
 2008TIP3   OH227582   5.298   2.727   1.044
 2008TIP3    H127583   5.392   2.732   1.029
 2008TIP3    H227584   5.284   2.640   1.082
 2009TIP3   OH227585   4.026   6.338   7.412
 2009TIP3    H127586   4.120   6.324   7.426
 2009TIP3    H227587   4.002   6.406   7.474
 2010TIP3   OH227588   0.029   5.376   0.453
 2010TIP3    H127589   0.083   5.409   0.380
 2010TIP3    H227590   0.091   5.365   0.525
 2011TIP3   OH227591   3.560   5.630   6.660
 2011TIP3    H127592   3.511   5.631   6.578
 2011TIP3    H227593   3.597   5.542   6.665
 2012TIP3   OH227594   3.610   2.550   8.351
 2012TIP3    H127595   3.564   2.619   8.303
 2012TIP3    H227596   3.539   2.494   8.385
 2013TIP3   OH227597   4.713   0.121   6.489
 2013TIP3    H127598   4.734   0.214   6.482
 2013TIP3    H227599   4.629   0.119   6.535
 2014TIP3   OH227600   6.120   1.751   7.611
 2014TIP3    H127601   6.170   1.832   7.603
 2014TIP3    H227602   6.096   1.746   7.703
 2015TIP3   OH227603   4.159   5.648   7.574
 2015TIP3    H127604   4.198   5.731   7.546
 2015TIP3    H227605   4.084   5.673   7.627
 2016TIP3   OH227606   3.851   5.913   8.395
 2016TIP3    H127607   3.918   5.855   8.358
 2016TIP3    H227608   3.871   5.917   8.489
 2017TIP3   OH227609   0.734   1.940   6.299
 2017TIP3    H127610   0.687   1.860   6.274
 2017TIP3    H227611   0.664   2.002   6.322
 2018TIP3   OH227612   3.453   5.015   7.296
 2018TIP3    H127613   3.480   4.959   7.223
 2018TIP3    H227614   3.525   5.076   7.308
 2019TIP3   OH227615   4.085   4.886   8.052
 2019TIP3    H127616   4.067   4.835   8.131
 2019TIP3    H227617   4.152   4.836   8.006
 2020TIP3   OH227618   1.783   0.664   6.708
 2020TIP3    H127619   1.795   0.677   6.802
 2020TIP3    H227620   1.816   0.575   6.691
 2021TIP3   OH227621   4.368   0.605   0.182
 2021TIP3    H127622   4.314   0.564   0.113
 2021TIP3    H227623   4.457   0.575   0.163
 2022TIP3   OH227624   6.015   4.145   6.864
 2022TIP3    H127625   6.076   4.160   6.935
 2022TIP3    H227626   6.034   4.056   6.833
 2023TIP3   OH227627   4.116   0.614   0.304
 2023TIP3    H127628   4.212   0.620   0.307
 2023TIP3    H227629   4.093   0.644   0.216
 2024TIP3   OH227630   0.560   2.695   0.908
 2024TIP3    H127631   0.511   2.758   0.960
 2024TIP3    H227632   0.630   2.745   0.868
 2025TIP3   OH227633   3.202   3.664   7.488
 2025TIP3    H127634   3.141   3.704   7.549
 2025TIP3    H227635   3.286   3.707   7.506
 2026TIP3   OH227636   5.765   6.337   2.271
 2026TIP3    H127637   5.692   6.275   2.264
 2026TIP3    H227638   5.731   6.407   2.325
 2027TIP3   OH227639   5.653   5.343   2.325
 2027TIP3    H127640   5.586   5.405   2.296
 2027TIP3    H227641   5.636   5.331   2.418
 2028TIP3   OH227642   3.688   2.948   7.607
 2028TIP3    H127643   3.737   2.996   7.540
 2028TIP3    H227644   3.717   2.857   7.598
 2029TIP3   OH227645   1.622   1.193   7.082
 2029TIP3    H127646   1.698   1.172   7.029
 2029TIP3    H227647   1.547   1.167   7.029
 2030TIP3   OH227648   1.998   4.186   0.240
 2030TIP3    H127649   1.948   4.128   0.297
 2030TIP3    H227650   2.088   4.176   0.270
 2031TIP3   OH227651   1.152   6.249   6.933
 2031TIP3    H127652   1.110   6.214   6.855
 2031TIP3    H227653   1.091   6.226   7.004
 2032TIP3   OH227654   1.033   5.124   8.606
 2032TIP3    H127655   0.951   5.126   8.656
 2032TIP3    H227656   1.023   5.193   8.541
 2033TIP3   OH227657   0.648   4.299   6.741
 2033TIP3    H127658   0.718   4.250   6.697
 2033TIP3    H227659   0.648   4.384   6.698
 2034TIP3   OH227660   4.560   4.839   0.875
 2034TIP3    H127661   4.654   4.847   0.892
 2034TIP3    H227662   4.520   4.903   0.935
 2035TIP3   OH227663   2.483   5.164   1.937
 2035TIP3    H127664   2.566   5.195   1.976
 2035TIP3    H227665   2.415   5.205   1.990
 2036TIP3   OH227666   2.429   6.215   7.556
 2036TIP3    H127667   2.435   6.267   7.476
 2036TIP3    H227668   2.345   6.241   7.595
 2037TIP3   OH227669   0.336   2.936   8.351
 2037TIP3    H127670   0.251   2.931   8.308
 2037TIP3    H227671   0.386   2.863   8.313
 2038TIP3   OH227672   2.444   2.725   2.083
 2038TIP3    H127673   2.352   2.740   2.106
 2038TIP3    H227674   2.447   2.730   1.988
 2039TIP3   OH227675   3.657   4.021   0.884
 2039TIP3    H127676   3.663   4.050   0.975
 2039TIP3    H227677   3.670   4.101   0.833
 2040TIP3   OH227678   6.591   3.353   8.625
 2040TIP3    H127679   6.539   3.329   8.548
 2040TIP3    H227680   6.526   3.374   8.692
 2041TIP3   OH227681   6.621   1.138   8.683
 2041TIP3    H127682   6.592   1.091   8.605
 2041TIP3    H227683   6.540   1.164   0.014
 2042TIP3   OH227684   1.825   5.413   2.874
 2042TIP3    H127685   1.906   5.434   2.827
 2042TIP3    H227686   1.850   5.414   2.966
 2043TIP3   OH227687   3.534   3.315   8.372
 2043TIP3    H127688   3.582   3.386   8.330
 2043TIP3    H227689   3.486   3.273   8.300
 2044TIP3   OH227690   6.524   6.814   1.145
 2044TIP3    H127691   6.564   6.750   1.087
 2044TIP3    H227692   6.492   0.040   1.087
 2045TIP3   OH227693   2.241   4.545   8.391
 2045TIP3    H127694   2.267   4.638   8.396
 2045TIP3    H227695   2.282   4.514   8.310
 2046TIP3   OH227696   0.412   1.670   2.132
 2046TIP3    H127697   0.403   1.763   2.112
 2046TIP3    H227698   0.348   1.654   2.202
 2047TIP3   OH227699   5.044   0.996   7.237
 2047TIP3    H127700   5.086   0.993   7.151
 2047TIP3    H227701   4.951   0.983   7.218
 2048TIP3   OH227702   2.349   1.239   7.216
 2048TIP3    H127703   2.401   1.275   7.144
 2048TIP3    H227704   2.405   1.174   7.256
 2049TIP3   OH227705   0.664   6.014   7.249
 2049TIP3    H127706   0.591   5.991   7.305
 2049TIP3    H227707   0.696   5.931   7.215
 2050TIP3   OH227708   3.252   2.530   2.176
 2050TIP3    H127709   3.240   2.462   2.110
 2050TIP3    H227710   3.297   2.601   2.131
 2051TIP3   OH227711   3.884   0.993   1.878
 2051TIP3    H127712   3.850   1.072   1.920
 2051TIP3    H227713   3.836   0.987   1.795
 2052TIP3   OH227714   4.777   5.262   7.085
 2052TIP3    H127715   4.775   5.353   7.056
 2052TIP3    H227716   4.699   5.251   7.139
 2053TIP3   OH227717   4.907   3.032   1.351
 2053TIP3    H127718   4.964   3.103   1.383
 2053TIP3    H227719   4.834   3.030   1.413
 2054TIP3   OH227720   1.904   1.676   7.987
 2054TIP3    H127721   1.856   1.752   8.021
 2054TIP3    H227722   1.883   1.674   7.894
 2055TIP3   OH227723   0.858   2.170   7.882
 2055TIP3    H127724   0.900   2.170   7.796
 2055TIP3    H227725   0.875   2.083   7.917
 2056TIP3   OH227726   4.284   3.024   6.555
 2056TIP3    H127727   4.232   3.091   6.600
 2056TIP3    H227728   4.227   2.994   6.484
 2057TIP3   OH227729   5.548   3.484   0.031
 2057TIP3    H127730   5.488   3.470   8.671
 2057TIP3    H227731   5.552   3.400   0.076
 2058TIP3   OH227732   5.798   3.406   8.592
 2058TIP3    H127733   5.854   3.396   8.669
 2058TIP3    H227734   5.711   3.421   8.628
 2059TIP3   OH227735   5.257   6.790   1.683
 2059TIP3    H127736   5.289   6.700   1.692
 2059TIP3    H227737   5.162   6.783   1.684
 2060TIP3   OH227738   1.228   0.738   0.963
 2060TIP3    H127739   1.256   0.823   0.930
 2060TIP3    H227740   1.273   0.674   0.908
 2061TIP3   OH227741   5.808   4.364   0.396
 2061TIP3    H127742   5.884   4.407   0.435
 2061TIP3    H227743   5.780   4.300   0.462
 2062TIP3   OH227744   5.768   1.528   1.706
 2062TIP3    H127745   5.702   1.472   1.749
 2062TIP3    H227746   5.836   1.467   1.678
 2063TIP3   OH227747   5.592   5.622   1.354
 2063TIP3    H127748   5.604   5.685   1.425
 2063TIP3    H227749   5.671   5.568   1.355
 2064TIP3   OH227750   6.777   6.123   0.849
 2064TIP3    H127751   6.751   6.049   0.795
 2064TIP3    H227752   0.029   6.115   0.857
 2065TIP3   OH227753   1.478   4.935   1.795
 2065TIP3    H127754   1.567   4.915   1.764
 2065TIP3    H227755   1.457   4.863   1.854
 2066TIP3   OH227756   6.129   6.201   8.258
 2066TIP3    H127757   6.071   6.200   8.182
 2066TIP3    H227758   6.180   6.282   8.250
 2067TIP3   OH227759   1.617   5.918   0.367
 2067TIP3    H127760   1.532   5.952   0.340
 2067TIP3    H227761   1.653   5.986   0.425
 2068TIP3   OH227762   3.319   3.074   6.511
 2068TIP3    H127763   3.250   3.022   6.469
 2068TIP3    H227764   3.399   3.025   6.495
 2069TIP3   OH227765   4.368   6.521   0.252
 2069TIP3    H127766   4.334   6.536   0.164
 2069TIP3    H227767   4.443   6.581   0.259
 2070TIP3   OH227768   5.219   3.636   7.286
 2070TIP3    H127769   5.180   3.549   7.289
 2070TIP3    H227770   5.229   3.661   7.378
 2071TIP3   OH227771   3.408   4.047   8.373
 2071TIP3    H127772   3.330   4.103   8.381
 2071TIP3    H227773   3.428   4.020   8.462
 2072TIP3   OH227774   1.522   5.485   8.162
 2072TIP3    H127775   1.605   5.502   8.207
 2072TIP3    H227776   1.545   5.485   8.069
 2073TIP3   OH227777   2.436   2.860   8.352
 2073TIP3    H127778   2.462   2.795   8.287
 2073TIP3    H227779   2.416   2.939   8.300
 2074TIP3   OH227780   1.989   6.560   7.208
 2074TIP3    H127781   2.075   6.600   7.196
 2074TIP3    H227782   1.927   6.633   7.199
 2075TIP3   OH227783   5.367   0.456   1.386
 2075TIP3    H127784   5.281   0.417   1.371
 2075TIP3    H227785   5.415   0.390   1.437
 2076TIP3   OH227786   1.033   0.568   8.028
 2076TIP3    H127787   1.026   0.494   7.968
 2076TIP3    H227788   1.060   0.529   8.111
 2077TIP3   OH227789   4.512   6.381   0.938
 2077TIP3    H127790   4.555   6.310   0.889
 2077TIP3    H227791   4.421   6.378   0.908
 2078TIP3   OH227792   1.337   0.898   8.555
 2078TIP3    H127793   1.387   0.965   8.508
 2078TIP3    H227794   1.358   0.914   8.647
 2079TIP3   OH227795   4.007   6.329   8.676
 2079TIP3    H127796   4.013   6.370   0.049
 2079TIP3    H227797   3.923   6.358   8.642
 2080TIP3   OH227798   6.631   5.810   8.212
 2080TIP3    H127799   6.614   5.862   8.134
 2080TIP3    H227800   6.547   5.769   8.232
 2081TIP3   OH227801   1.123   6.770   1.759
 2081TIP3    H127802   1.080   0.003   1.717
 2081TIP3    H227803   1.085   6.767   1.847
 2082TIP3   OH227804   5.379   5.525   6.765
 2082TIP3    H127805   5.292   5.487   6.765
 2082TIP3    H227806   5.423   5.485   6.690
 2083TIP3   OH227807   3.373   1.225   1.969
 2083TIP3    H127808   3.293   1.272   1.992
 2083TIP3    H227809   3.444   1.282   2.001
 2084TIP3   OH227810   5.037   3.999   7.121
 2084TIP3    H127811   4.950   3.974   7.090
 2084TIP3    H227812   5.092   3.922   7.104
 2085TIP3   OH227813   0.369   4.038   7.925
 2085TIP3    H127814   0.420   3.980   7.868
 2085TIP3    H227815   0.320   4.093   7.864
 2086TIP3   OH227816   2.916   5.333   7.726
 2086TIP3    H127817   2.979   5.405   7.736
 2086TIP3    H227818   2.950   5.264   7.783
 2087TIP3   OH227819   0.408   4.367   0.863
 2087TIP3    H127820   0.443   4.336   0.779
 2087TIP3    H227821   0.390   4.287   0.912
 2088TIP3   OH227822   0.999   6.059   7.073
 2088TIP3    H127823   1.013   6.055   7.167
 2088TIP3    H227824   0.911   6.098   7.064
 2089TIP3   OH227825   4.178   2.278   7.041
 2089TIP3    H127826   4.130   2.203   7.006
 2089TIP3    H227827   4.187   2.338   6.967
 2090TIP3   OH227828   6.252   3.593   8.336
 2090TIP3    H127829   6.255   3.636   8.251
 2090TIP3    H227830   6.309   3.645   8.392
 2091TIP3   OH227831   1.778   1.290   0.296
 2091TIP3    H127832   1.841   1.239   0.347
 2091TIP3    H227833   1.831   1.337   0.232
 2092TIP3   OH227834   3.212   5.892   7.112
 2092TIP3    H127835   3.155   5.968   7.100
 2092TIP3    H227836   3.162   5.833   7.169
 2093TIP3   OH227837   4.657   4.163   8.302
 2093TIP3    H127838   4.706   4.174   8.383
 2093TIP3    H227839   4.723   4.162   8.233
 2094TIP3   OH227840   2.302   5.157   7.664
 2094TIP3    H127841   2.265   5.242   7.640
 2094TIP3    H227842   2.245   5.093   7.622
 2095TIP3   OH227843   1.870   1.976   2.020
 2095TIP3    H127844   1.822   2.051   2.054
 2095TIP3    H227845   1.928   1.949   2.092
 2096TIP3   OH227846   0.762   0.458   0.706
 2096TIP3    H127847   0.813   0.378   0.711
 2096TIP3    H227848   0.826   0.528   0.716
 2097TIP3   OH227849   4.373   0.096   2.375
 2097TIP3    H127850   4.464   0.123   2.359
 2097TIP3    H227851   4.354   0.035   2.304
 2098TIP3   OH227852   5.937   3.073   1.267
 2098TIP3    H127853   5.978   3.131   1.331
 2098TIP3    H227854   5.965   3.108   1.182
 2099TIP3   OH227855   3.294   1.380   1.309
 2099TIP3    H127856   3.295   1.298   1.260
 2099TIP3    H227857   3.269   1.355   1.398
 2100TIP3   OH227858   2.027   3.542   7.822
 2100TIP3    H127859   2.006   3.605   7.891
 2100TIP3    H227860   2.020   3.457   7.865
 2101TIP3   OH227861   5.088   4.506   7.610
 2101TIP3    H127862   5.183   4.492   7.611
 2101TIP3    H227863   5.061   4.495   7.701
 2102TIP3   OH227864   2.611   3.316   7.443
 2102TIP3    H127865   2.536   3.259   7.426
 2102TIP3    H227866   2.596   3.392   7.386
 2103TIP3   OH227867   6.301   1.830   6.512
 2103TIP3    H127868   6.378   1.811   6.566
 2103TIP3    H227869   6.249   1.890   6.565
 2104TIP3   OH227870   2.036   4.957   7.027
 2104TIP3    H127871   2.125   4.990   7.039
 2104TIP3    H227872   2.000   4.952   7.116
 2105TIP3   OH227873   1.298   1.260   7.446
 2105TIP3    H127874   1.283   1.187   7.507
 2105TIP3    H227875   1.254   1.233   7.365
 2106TIP3   OH227876   0.264   3.757   7.970
 2106TIP3    H127877   0.245   3.769   7.877
 2106TIP3    H227878   0.283   3.845   8.003
 2107TIP3   OH227879   3.571   4.921   8.114
 2107TIP3    H127880   3.578   4.955   8.025
 2107TIP3    H227881   3.638   4.853   8.120
 2108TIP3   OH227882   0.311   3.836   8.266
 2108TIP3    H127883   0.241   3.897   8.289
 2108TIP3    H227884   0.298   3.761   8.325
 2109TIP3   OH227885   2.599   0.481   8.541
 2109TIP3    H127886   2.517   0.432   8.539
 2109TIP3    H227887   2.649   0.448   8.467
 2110TIP3   OH227888   1.469   0.851   7.959
 2110TIP3    H127889   1.439   0.941   7.970
 2110TIP3    H227890   1.438   0.806   8.038
 2111TIP3   OH227891   5.655   5.846   1.516
 2111TIP3    H127892   5.659   5.930   1.470
 2111TIP3    H227893   5.732   5.845   1.573
 2112TIP3   OH227894   6.114   0.256   8.576
 2112TIP3    H127895   6.189   0.285   8.627
 2112TIP3    H227896   6.129   0.291   8.488
 2113TIP3   OH227897   4.342   1.333   1.109
 2113TIP3    H127898   4.423   1.384   1.112
 2113TIP3    H227899   4.363   1.257   1.055
 2114TIP3   OH227900   3.491   5.234   7.963
 2114TIP3    H127901   3.569   5.219   7.910
 2114TIP3    H227902   3.521   5.291   8.034
 2115TIP3   OH227903   2.298   3.666   8.610
 2115TIP3    H127904   2.280   3.701   8.697
 2115TIP3    H227905   2.388   3.635   8.614
 2116TIP3   OH227906   3.452   3.649   1.727
 2116TIP3    H127907   3.482   3.562   1.752
 2116TIP3    H227908   3.407   3.682   1.804
 2117TIP3   OH227909   4.284   1.898   0.913
 2117TIP3    H127910   4.374   1.865   0.916
 2117TIP3    H227911   4.285   1.965   0.844
 2118TIP3   OH227912   2.839   5.121   6.951
 2118TIP3    H127913   2.815   5.138   6.860
 2118TIP3    H227914   2.777   5.053   6.980
 2119TIP3   OH227915   5.643   0.711   7.583
 2119TIP3    H127916   5.685   0.628   7.559
 2119TIP3    H227917   5.569   0.684   7.639
 2120TIP3   OH227918   0.130   4.861   7.723
 2120TIP3    H127919   0.188   4.908   7.663
 2120TIP3    H227920   0.088   4.930   7.775
 2121TIP3   OH227921   6.545   4.769   6.590
 2121TIP3    H127922   6.463   4.739   6.629
 2121TIP3    H227923   6.519   4.801   6.503
 2122TIP3   OH227924   1.493   3.181   0.750
 2122TIP3    H127925   1.413   3.195   0.801
 2122TIP3    H227926   1.470   3.112   0.688
 2123TIP3   OH227927   4.548   0.085   8.581
 2123TIP3    H127928   4.497   0.116   8.656
 2123TIP3    H227929   4.492   0.102   8.505
 2124TIP3   OH227930   1.187   5.027   6.925
 2124TIP3    H127931   1.166   4.964   6.857
 2124TIP3    H227932   1.246   5.090   6.883
 2125TIP3   OH227933   5.799   0.833   2.556
 2125TIP3    H127934   5.726   0.819   2.496
 2125TIP3    H227935   5.808   0.929   2.561
 2126TIP3   OH227936   4.420   4.649   1.610
 2126TIP3    H127937   4.336   4.651   1.563
 2126TIP3    H227938   4.410   4.715   1.678
 2127TIP3   OH227939   2.309   1.682   1.557
 2127TIP3    H127940   2.228   1.660   1.605
 2127TIP3    H227941   2.279   1.733   1.482
 2128TIP3   OH227942   1.581   6.191   1.200
 2128TIP3    H127943   1.625   6.266   1.240
 2128TIP3    H227944   1.520   6.161   1.267
 2129TIP3   OH227945   4.723   4.413   7.836
 2129TIP3    H127946   4.814   4.441   7.848
 2129TIP3    H227947   4.699   4.374   7.920
 2130TIP3   OH227948   0.930   6.349   2.373
 2130TIP3    H127949   0.986   6.406   2.425
 2130TIP3    H227950   0.844   6.355   2.416
 2131TIP3   OH227951   3.256   3.249   2.439
 2131TIP3    H127952   3.253   3.343   2.452
 2131TIP3    H227953   3.280   3.213   2.525
 2132TIP3   OH227954   1.180   1.381   0.827
 2132TIP3    H127955   1.217   1.396   0.914
 2132TIP3    H227956   1.231   1.437   0.769
 2133TIP3   OH227957   5.997   3.670   0.967
 2133TIP3    H127958   5.990   3.752   1.015
 2133TIP3    H227959   6.039   3.695   0.884
 2134TIP3   OH227960   4.285   2.474   1.595
 2134TIP3    H127961   4.249   2.557   1.563
 2134TIP3    H227962   4.324   2.432   1.518
 2135TIP3   OH227963   3.460   1.773   1.223
 2135TIP3    H127964   3.547   1.748   1.191
 2135TIP3    H227965   3.468   1.766   1.319
 2136TIP3   OH227966   6.073   2.537   7.759
 2136TIP3    H127967   6.132   2.532   7.683
 2136TIP3    H227968   6.057   2.630   7.771
 2137TIP3   OH227969   4.471   5.639   1.416
 2137TIP3    H127970   4.478   5.579   1.490
 2137TIP3    H227971   4.509   5.721   1.448
 2138TIP3   OH227972   5.155   6.771   7.847
 2138TIP3    H127973   5.140   6.800   7.938
 2138TIP3    H227974   5.152   0.008   7.796
 2139TIP3   OH227975   2.620   2.987   8.553
 2139TIP3    H127976   2.707   3.024   8.548
 2139TIP3    H227977   2.584   2.997   8.465
 2140TIP3   OH227978   3.113   6.795   1.694
 2140TIP3    H127979   3.187   6.827   1.745
 2140TIP3    H227980   3.065   6.738   1.754
 2141TIP3   OH227981   6.052   5.008   0.953
 2141TIP3    H127982   6.092   5.011   1.040
 2141TIP3    H227983   6.026   5.098   0.935
 2142TIP3   OH227984   1.608   3.791   1.662
 2142TIP3    H127985   1.695   3.775   1.699
 2142TIP3    H227986   1.625   3.830   1.576
 2143TIP3   OH227987   0.264   5.541   8.304
 2143TIP3    H127988   0.202   5.567   8.235
 2143TIP3    H227989   0.269   5.618   8.361
 2144TIP3   OH227990   0.309   3.357   8.238
 2144TIP3    H127991   0.224   3.317   8.257
 2144TIP3    H227992   0.366   3.329   8.310
 2145TIP3   OH227993   3.006   5.795   7.291
 2145TIP3    H127994   2.924   5.833   7.323
 2145TIP3    H227995   2.979   5.718   7.241
 2146TIP3   OH227996   5.883   5.972   8.348
 2146TIP3    H127997   5.807   5.953   8.402
 2146TIP3    H227998   5.930   6.040   8.396
 2147TIP3   OH227999   3.501   6.834   1.629
 2147TIP3    H128000   3.433   0.019   1.690
 2147TIP3    H228001   3.531   0.072   1.588
 2148TIP3   OH228002   5.802   5.718   1.730
 2148TIP3    H128003   5.722   5.684   1.768
 2148TIP3    H228004   5.827   5.792   1.786
 2149TIP3   OH228005   1.016   1.873   7.575
 2149TIP3    H128006   1.046   1.789   7.608
 2149TIP3    H228007   1.030   1.869   7.481
 2150TIP3   OH228008   0.012   1.388   1.513
 2150TIP3    H128009   0.070   1.316   1.538
 2150TIP3    H228010   0.069   1.452   1.470
 2151TIP3   OH228011   0.984   2.222   0.310
 2151TIP3    H128012   1.074   2.190   0.318
 2151TIP3    H228013   0.982   2.266   0.225
 2152TIP3   OH228014   1.451   1.834   0.139
 2152TIP3    H128015   1.536   1.871   0.161
 2152TIP3    H228016   1.389   1.886   0.190
 2153TIP3   OH228017   5.589   3.042   8.240
 2153TIP3    H128018   5.564   3.089   8.159
 2153TIP3    H228019   5.524   2.973   8.248
 2154TIP3   OH228020   1.171   2.888   0.775
 2154TIP3    H128021   1.238   2.873   0.708
 2154TIP3    H228022   1.088   2.881   0.727
 2155TIP3   OH228023   6.770   4.798   8.434
 2155TIP3    H128024   6.684   4.792   8.477
 2155TIP3    H228025   6.798   4.707   8.425
 2156TIP3   OH228026   1.273   2.378   7.299
 2156TIP3    H128027   1.242   2.416   7.216
 2156TIP3    H228028   1.280   2.453   7.358
 2157TIP3   OH228029   5.641   3.695   7.425
 2157TIP3    H128030   5.673   3.784   7.415
 2157TIP3    H228031   5.619   3.668   7.335
 2158TIP3   OH228032   3.077   5.171   8.284
 2158TIP3    H128033   3.136   5.245   8.269
 2158TIP3    H228034   3.049   5.181   8.375
 2159TIP3   OH228035   1.564   2.259   7.285
 2159TIP3    H128036   1.471   2.239   7.293
 2159TIP3    H228037   1.605   2.212   7.358
 2160TIP3   OH228038   1.773   4.924   0.910
 2160TIP3    H128039   1.822   4.856   0.955
 2160TIP3    H228040   1.789   5.003   0.961
 2161TIP3   OH228041   4.357   6.625   0.753
 2161TIP3    H128042   4.336   6.688   0.684
 2161TIP3    H228043   4.451   6.636   0.768
 2162TIP3   OH228044   5.072   1.584   8.193
 2162TIP3    H128045   5.029   1.641   8.257
 2162TIP3    H228046   5.041   1.496   8.214
 2163TIP3   OH228047   6.470   2.089   7.163
 2163TIP3    H128048   6.396   2.064   7.107
 2163TIP3    H228049   6.544   2.038   7.130
 2164TIP3   OH228050   4.352   6.524   8.199
 2164TIP3    H128051   4.294   6.553   8.269
 2164TIP3    H228052   4.395   6.447   8.233
 2165TIP3   OH228053   3.969   5.259   2.361
 2165TIP3    H128054   3.987   5.335   2.305
 2165TIP3    H228055   3.891   5.219   2.322
 2166TIP3   OH228056   0.495   5.447   7.479
 2166TIP3    H128057   0.503   5.391   7.556
 2166TIP3    H228058   0.410   5.488   7.488
 2167TIP3   OH228059   5.784   4.620   7.436
 2167TIP3    H128060   5.781   4.590   7.345
 2167TIP3    H228061   5.837   4.554   7.481
 2168TIP3   OH228062   0.554   4.483   8.548
 2168TIP3    H128063   0.608   4.406   8.528
 2168TIP3    H228064   0.551   4.486   8.643
 2169TIP3   OH228065   6.551   2.099   6.567
 2169TIP3    H128066   6.459   2.124   6.554
 2169TIP3    H228067   6.567   2.030   6.503
 2170TIP3   OH228068   3.699   0.399   7.949
 2170TIP3    H128069   3.628   0.459   7.928
 2170TIP3    H228070   3.674   0.316   7.907
 2171TIP3   OH228071   2.494   2.399   0.260
 2171TIP3    H128072   2.415   2.449   0.242
 2171TIP3    H228073   2.463   2.309   0.275
 2172TIP3   OH228074   2.738   2.837   8.244
 2172TIP3    H128075   2.697   2.897   8.307
 2172TIP3    H228076   2.826   2.822   8.280
 2173TIP3   OH228077   1.815   0.813   6.393
 2173TIP3    H128078   1.816   0.719   6.373
 2173TIP3    H228079   1.905   0.841   6.381
 2174TIP3   OH228080   2.160   5.902   1.226
 2174TIP3    H128081   2.112   5.864   1.152
 2174TIP3    H228082   2.247   5.863   1.220
 2175TIP3   OH228083   1.898   4.336   6.801
 2175TIP3    H128084   1.864   4.322   6.889
 2175TIP3    H228085   1.973   4.393   6.813
 2176TIP3   OH228086   0.458   2.862   0.129
 2176TIP3    H128087   0.399   2.934   0.153
 2176TIP3    H228088   0.405   2.805   0.073
 2177TIP3   OH228089   3.001   2.996   8.100
 2177TIP3    H128090   3.091   2.963   8.096
 2177TIP3    H228091   2.970   2.973   8.188
 2178TIP3   OH228092   2.996   1.670   7.882
 2178TIP3    H128093   2.955   1.640   7.801
 2178TIP3    H228094   3.085   1.694   7.856
 2179TIP3   OH228095   6.471   3.085   0.336
 2179TIP3    H128096   6.476   3.059   0.428
 2179TIP3    H228097   6.562   3.094   0.308
 2180TIP3   OH228098   2.926   0.656   6.545
 2180TIP3    H128099   2.948   0.749   6.557
 2180TIP3    H228100   2.844   0.657   6.495
 2181TIP3   OH228101   2.584   0.826   1.147
 2181TIP3    H128102   2.639   0.858   1.219
 2181TIP3    H228103   2.534   0.754   1.185
 2182TIP3   OH228104   5.659   4.677   8.657
 2182TIP3    H128105   5.626   4.701   8.570
 2182TIP3    H228106   5.592   4.619   8.693
 2183TIP3   OH228107   1.349   5.956   0.431
 2183TIP3    H128108   1.341   5.893   0.503
 2183TIP3    H228109   1.315   6.037   0.467
 2184TIP3   OH228110   3.694   6.152   0.124
 2184TIP3    H128111   3.706   6.199   0.041
 2184TIP3    H228112   3.603   6.169   0.149
 2185TIP3   OH228113   1.088   6.038   0.576
 2185TIP3    H128114   1.128   6.101   0.635
 2185TIP3    H228115   1.074   5.960   0.630
 2186TIP3   OH228116   2.643   5.988   7.590
 2186TIP3    H128117   2.552   5.962   7.601
 2186TIP3    H228118   2.644   6.081   7.616
 2187TIP3   OH228119   1.866   1.045   8.648
 2187TIP3    H128120   1.846   0.990   0.010
 2187TIP3    H228121   1.960   1.062   8.655
 2188TIP3   OH228122   0.556   5.258   8.053
 2188TIP3    H128123   0.612   5.334   8.040
 2188TIP3    H228124   0.616   5.184   8.059
 2189TIP3   OH228125   0.076   1.813   7.379
 2189TIP3    H128126   0.012   1.783   7.444
 2189TIP3    H228127   0.093   1.736   7.325
 2190TIP3   OH228128   6.333   0.621   2.190
 2190TIP3    H128129   6.349   0.548   2.251
 2190TIP3    H228130   6.389   0.691   2.221
 2191TIP3   OH228131   3.236   2.732   0.050
 2191TIP3    H128132   3.265   2.676   0.123
 2191TIP3    H228133   3.211   2.814   0.093
 2192TIP3   OH228134   2.500   4.439   8.119
 2192TIP3    H128135   2.454   4.355   8.123
 2192TIP3    H228136   2.553   4.441   8.199
 2193TIP3   OH228137   4.835   4.089   8.501
 2193TIP3    H128138   4.876   4.007   8.526
 2193TIP3    H228139   4.865   4.152   8.567
 2194TIP3   OH228140   3.181   0.878   1.426
 2194TIP3    H128141   3.260   0.887   1.479
 2194TIP3    H228142   3.209   0.831   1.347
 2195TIP3   OH228143   5.509   5.734   6.916
 2195TIP3    H128144   5.418   5.719   6.942
 2195TIP3    H228145   5.517   5.690   6.831
 2196TIP3   OH228146   6.346   4.077   6.892
 2196TIP3    H128147   6.405   4.002   6.883
 2196TIP3    H228148   6.359   4.127   6.812
 2197TIP3   OH228149   6.189   4.727   7.572
 2197TIP3    H128150   6.246   4.781   7.628
 2197TIP3    H228151   6.249   4.671   7.524
 2198TIP3   OH228152   2.486   2.412   0.615
 2198TIP3    H128153   2.450   2.353   0.549
 2198TIP3    H228154   2.581   2.401   0.608
 2199TIP3   OH228155   0.262   0.590   8.322
 2199TIP3    H128156   0.199   0.524   8.292
 2199TIP3    H228157   0.265   0.654   8.251
 2200TIP3   OH228158   3.256   5.616   8.452
 2200TIP3    H128159   3.170   5.637   8.489
 2200TIP3    H228160   3.309   5.588   8.526
 2201TIP3   OH228161   3.602   1.843   7.606
 2201TIP3    H128162   3.536   1.785   7.645
 2201TIP3    H228163   3.592   1.831   7.512
 2202TIP3   OH228164   2.138   2.289   0.383
 2202TIP3    H128165   2.150   2.383   0.396
 2202TIP3    H228166   2.090   2.283   0.300
 2203TIP3   OH228167   2.596   1.582   1.943
 2203TIP3    H128168   2.650   1.591   2.022
 2203TIP3    H228169   2.508   1.610   1.971
 2204TIP3   OH228170   4.492   5.096   7.123
 2204TIP3    H128171   4.456   5.169   7.073
 2204TIP3    H228172   4.530   5.037   7.057
 2205TIP3   OH228173   1.471   5.440   1.469
 2205TIP3    H128174   1.416   5.518   1.468
 2205TIP3    H228175   1.415   5.371   1.432
 2206TIP3   OH228176   1.645   3.442   7.239
 2206TIP3    H128177   1.599   3.506   7.184
 2206TIP3    H228178   1.606   3.453   7.326
 2207TIP3   OH228179   0.836   4.504   0.317
 2207TIP3    H128180   0.820   4.475   0.407
 2207TIP3    H228181   0.825   4.599   0.321
 2208TIP3   OH228182   0.279   5.178   6.672
 2208TIP3    H128183   0.359   5.125   6.663
 2208TIP3    H228184   0.213   5.116   6.704
 2209TIP3   OH228185   0.755   4.069   7.871
 2209TIP3    H128186   0.731   4.162   7.867
 2209TIP3    H228187   0.671   4.023   7.864
 2210TIP3   OH228188   1.873   0.734   0.470
 2210TIP3    H128189   1.782   0.710   0.455
 2210TIP3    H228190   1.907   0.665   0.528
 2211TIP3   OH228191   5.161   5.323   8.452
 2211TIP3    H128192   5.122   5.312   8.539
 2211TIP3    H228193   5.228   5.255   8.448
 2212TIP3   OH228194   2.626   2.858   7.996
 2212TIP3    H128195   2.664   2.864   8.083
 2212TIP3    H228196   2.592   2.769   7.991
 2213TIP3   OH228197   4.213   6.178   1.784
 2213TIP3    H128198   4.149   6.225   1.837
 2213TIP3    H228199   4.277   6.145   1.847
 2214TIP3   OH228200   0.595   1.666   0.981
 2214TIP3    H128201   0.533   1.683   1.052
 2214TIP3    H228202   0.558   1.589   0.936
 2215TIP3   OH228203   5.097   6.133   2.561
 2215TIP3    H128204   5.085   6.207   2.620
 2215TIP3    H228205   5.115   6.059   2.619
 2216TIP3   OH228206   2.650   3.646   7.318
 2216TIP3    H128207   2.680   3.646   7.409
 2216TIP3    H228208   2.728   3.624   7.267
 2217TIP3   OH228209   6.642   0.050   1.813
 2217TIP3    H128210   6.716   0.059   1.873
 2217TIP3    H228211   6.666   0.103   1.737
 2218TIP3   OH228212   2.433   1.029   0.057
 2218TIP3    H128213   2.387   1.047   0.139
 2218TIP3    H228214   2.439   0.934   0.053
 2219TIP3   OH228215   5.328   6.805   7.596
 2219TIP3    H128216   5.318   6.713   7.622
 2219TIP3    H228217   5.379   0.002   7.667
 2220TIP3   OH228218   3.238   5.171   0.268
 2220TIP3    H128219   3.325   5.185   0.231
 2220TIP3    H228220   3.249   5.185   0.362
 2221TIP3   OH228221   5.724   1.388   7.670
 2221TIP3    H128222   5.763   1.414   7.587
 2221TIP3    H228223   5.733   1.293   7.673
 2222TIP3   OH228224   1.998   2.296   0.150
 2222TIP3    H128225   1.906   2.319   0.148
 2222TIP3    H228226   2.023   2.288   0.058
 2223TIP3   OH228227   4.392   0.347   7.920
 2223TIP3    H128228   4.333   0.313   7.853
 2223TIP3    H228229   4.472   0.296   7.911
 2224TIP3   OH228230   5.615   2.349   0.448
 2224TIP3    H128231   5.705   2.319   0.461
 2224TIP3    H228232   5.621   2.445   0.450
 2225TIP3   OH228233   6.018   5.299   8.534
 2225TIP3    H128234   5.970   5.227   8.493
 2225TIP3    H228235   6.056   5.347   8.460
 2226TIP3   OH228236   6.370   1.892   6.891
 2226TIP3    H128237   6.327   1.948   6.827
 2226TIP3    H228238   6.401   1.817   6.840
 2227TIP3   OH228239   4.991   3.110   7.747
 2227TIP3    H128240   5.065   3.096   7.806
 2227TIP3    H228241   4.927   3.044   7.773
 2228TIP3   OH228242   1.895   0.969   0.319
 2228TIP3    H128243   1.912   0.907   0.390
 2228TIP3    H228244   1.895   0.915   0.240
 2229TIP3   OH228245   6.027   0.671   7.337
 2229TIP3    H128246   5.935   0.696   7.345
 2229TIP3    H228247   6.076   0.746   7.369
 2230TIP3   OH228248   5.877   1.749   8.004
 2230TIP3    H128249   5.960   1.788   7.978
 2230TIP3    H228250   5.811   1.799   7.956
 2231TIP3   OH228251   1.997   0.041   1.409
 2231TIP3    H128252   2.062   0.006   1.347
 2231TIP3    H228253   1.936   6.812   1.424
 2232TIP3   OH228254   3.245   0.922   7.313
 2232TIP3    H128255   3.167   0.893   7.265
 2232TIP3    H228256   3.317   0.874   7.273
 2233TIP3   OH228257   5.754   1.687   8.272
 2233TIP3    H128258   5.793   1.659   8.189
 2233TIP3    H228259   5.688   1.752   8.247
 2234TIP3   OH228260   5.172   1.563   6.449
 2234TIP3    H128261   5.115   1.507   6.396
 2234TIP3    H228262   5.258   1.553   6.407
 2235TIP3   OH228263   2.972   1.134   0.743
 2235TIP3    H128264   3.031   1.187   0.796
 2235TIP3    H228265   2.899   1.193   0.722
 2236TIP3   OH228266   4.294   3.772   0.326
 2236TIP3    H128267   4.326   3.740   0.241
 2236TIP3    H228268   4.227   3.836   0.303
 2237TIP3   OH228269   6.048   1.497   1.236
 2237TIP3    H128270   6.043   1.532   1.325
 2237TIP3    H228271   6.058   1.574   1.181
 2238TIP3   OH228272   2.646   0.142   0.075
 2238TIP3    H128273   2.644   0.236   0.092
 2238TIP3    H228274   2.737   0.116   0.090
 2239TIP3   OH228275   1.333   3.254   7.437
 2239TIP3    H128276   1.242   3.281   7.427
 2239TIP3    H228277   1.359   3.289   7.522
 2240TIP3   OH228278   2.426   6.785   0.156
 2240TIP3    H128279   2.500   6.820   0.106
 2240TIP3    H228280   2.432   6.826   0.242
 2241TIP3   OH228281   5.312   5.733   8.663
 2241TIP3    H128282   5.265   5.754   8.582
 2241TIP3    H228283   5.292   5.806   0.009
 2242TIP3   OH228284   0.887   6.837   1.110
 2242TIP3    H128285   0.843   6.771   1.056
 2242TIP3    H228286   0.816   0.049   1.143
 2243TIP3   OH228287   0.258   0.704   7.264
 2243TIP3    H128288   0.168   0.677   7.244
 2243TIP3    H228289   0.258   0.799   7.251
 2244TIP3   OH228290   5.979   2.051   6.817
 2244TIP3    H128291   5.894   2.093   6.805
 2244TIP3    H228292   5.990   2.047   6.912
 2245TIP3   OH228293   1.094   4.015   0.983
 2245TIP3    H128294   1.016   4.066   1.001
 2245TIP3    H228295   1.125   3.987   1.069
 2246TIP3   OH228296   0.920   5.004   2.520
 2246TIP3    H128297   0.865   5.082   2.514
 2246TIP3    H228298   0.888   4.947   2.449
 2247TIP3   OH228299   3.756   0.700   7.484
 2247TIP3    H128300   3.804   0.664   7.409
 2247TIP3    H228301   3.712   0.778   7.450
 2248TIP3   OH228302   5.878   2.967   1.712
 2248TIP3    H128303   5.854   3.058   1.694
 2248TIP3    H228304   5.808   2.934   1.769
 2249TIP3   OH228305   2.702   3.881   0.262
 2249TIP3    H128306   2.670   3.865   0.173
 2249TIP3    H228307   2.623   3.883   0.315
 2250TIP3   OH228308   0.573   6.172   8.587
 2250TIP3    H128309   0.625   6.232   8.640
 2250TIP3    H228310   0.490   6.164   8.633
 2251TIP3   OH228311   2.951   0.872   0.850
 2251TIP3    H128312   2.902   0.813   0.794
 2251TIP3    H228313   2.949   0.956   0.804
 2252TIP3   OH228314   0.379   1.396   7.240
 2252TIP3    H128315   0.376   1.335   7.167
 2252TIP3    H228316   0.391   1.340   7.317
 2253TIP3   OH228317   3.402   0.288   6.643
 2253TIP3    H128318   3.417   0.232   6.568
 2253TIP3    H228319   3.489   0.311   6.674
 2254TIP3   OH228320   1.399   5.363   7.644
 2254TIP3    H128321   1.482   5.355   7.598
 2254TIP3    H228322   1.335   5.382   7.576
 2255TIP3   OH228323   6.529   6.292   0.171
 2255TIP3    H128324   6.582   6.276   0.093
 2255TIP3    H228325   6.587   6.269   0.244
 2256TIP3   OH228326   2.163   6.015   6.833
 2256TIP3    H128327   2.202   6.101   6.853
 2256TIP3    H228328   2.229   5.970   6.781
 2257TIP3   OH228329   3.620   5.420   0.330
 2257TIP3    H128330   3.625   5.515   0.333
 2257TIP3    H228331   3.571   5.395   0.408
 2258TIP3   OH228332   5.769   2.113   1.079
 2258TIP3    H128333   5.732   2.163   1.007
 2258TIP3    H228334   5.862   2.135   1.079
 2259TIP3   OH228335   0.117   6.461   0.832
 2259TIP3    H128336   0.181   6.485   0.899
 2259TIP3    H228337   0.145   6.508   0.754
 2260TIP3   OH228338   1.792   5.810   7.189
 2260TIP3    H128339   1.831   5.735   7.234
 2260TIP3    H228340   1.786   5.782   7.097
 2261TIP3   OH228341   0.118   3.374   1.380
 2261TIP3    H128342   0.106   3.436   1.453
 2261TIP3    H228343   0.030   3.340   1.364
 2262TIP3   OH228344   2.561   1.627   1.308
 2262TIP3    H128345   2.625   1.698   1.318
 2262TIP3    H228346   2.608   1.560   1.257
 2263TIP3   OH228347   6.222   5.858   7.104
 2263TIP3    H128348   6.162   5.815   7.043
 2263TIP3    H228349   6.245   5.940   7.061
 2264TIP3   OH228350   2.625   1.117   6.937
 2264TIP3    H128351   2.554   1.081   6.884
 2264TIP3    H228352   2.699   1.059   6.920
 2265TIP3   OH228353   2.397   3.303   0.009
 2265TIP3    H128354   2.431   3.387   8.690
 2265TIP3    H228355   2.337   3.274   8.654
 2266TIP3   OH228356   3.089   3.775   1.474
 2266TIP3    H128357   3.137   3.706   1.520
 2266TIP3    H228358   3.104   3.758   1.381
 2267TIP3   OH228359   2.463   6.078   6.324
 2267TIP3    H128360   2.439   6.160   6.367
 2267TIP3    H228361   2.536   6.044   6.375
 2268TIP3   OH228362   2.214   1.611   0.824
 2268TIP3    H128363   2.270   1.660   0.765
 2268TIP3    H228364   2.263   1.609   0.907
 2269TIP3   OH228365   5.366   3.894   7.512
 2269TIP3    H128366   5.421   3.895   7.590
 2269TIP3    H228367   5.360   3.801   7.489
 2270TIP3   OH228368   5.063   1.838   0.483
 2270TIP3    H128369   5.093   1.859   0.571
 2270TIP3    H228370   5.139   1.851   0.427
 2271TIP3   OH228371   1.053   2.328   0.067
 2271TIP3    H128372   0.982   2.366   0.014
 2271TIP3    H228373   1.115   2.401   0.079
 2272TIP3   OH228374   3.319   3.063   6.998
 2272TIP3    H128375   3.357   2.975   7.000
 2272TIP3    H228376   3.370   3.110   6.932
 2273TIP3   OH228377   4.920   6.133   0.252
 2273TIP3    H128378   5.012   6.162   0.253
 2273TIP3    H228379   4.915   6.067   0.320
 2274TIP3   OH228380   5.031   6.208   2.028
 2274TIP3    H128381   4.983   6.141   2.078
 2274TIP3    H228382   5.009   6.290   2.072
 2275TIP3   OH228383   4.761   4.926   7.758
 2275TIP3    H128384   4.698   4.869   7.803
 2275TIP3    H228385   4.846   4.887   7.777
 2276TIP3   OH228386   0.149   1.772   0.585
 2276TIP3    H128387   0.109   1.818   0.658
 2276TIP3    H228388   0.240   1.802   0.584
 2277TIP3   OH228389   0.402   4.478   7.368
 2277TIP3    H128390   0.345   4.551   7.345
 2277TIP3    H228391   0.396   4.419   7.293
 2278TIP3   OH228392   3.125   5.626   8.133
 2278TIP3    H128393   3.066   5.613   8.207
 2278TIP3    H228394   3.212   5.632   8.173
 2279TIP3   OH228395   0.139   4.419   1.427
 2279TIP3    H128396   0.069   4.453   1.483
 2279TIP3    H228397   0.136   4.324   1.440
 2280TIP3   OH228398   1.535   5.132   6.840
 2280TIP3    H128399   1.538   5.139   6.745
 2280TIP3    H228400   1.548   5.039   6.858
 2281TIP3   OH228401   4.445   3.596   2.095
 2281TIP3    H128402   4.382   3.530   2.066
 2281TIP3    H228403   4.434   3.668   2.032
 2282TIP3   OH228404   6.552   5.511   2.093
 2282TIP3    H128405   6.541   5.506   2.188
 2282TIP3    H228406   6.463   5.517   2.059
 2283TIP3   OH228407   5.511   2.427   8.099
 2283TIP3    H128408   5.446   2.477   8.051
 2283TIP3    H228409   5.473   2.416   8.187
 2284TIP3   OH228410   6.438   2.129   1.573
 2284TIP3    H128411   6.445   2.156   1.482
 2284TIP3    H228412   6.357   2.078   1.576
 2285TIP3   OH228413   0.708   6.149   0.312
 2285TIP3    H128414   0.738   6.074   0.363
 2285TIP3    H228415   0.727   6.225   0.368
 2286TIP3   OH228416   0.761   4.572   7.694
 2286TIP3    H128417   0.804   4.624   7.762
 2286TIP3    H228418   0.786   4.615   7.612
 2287TIP3   OH228419   1.563   3.913   1.251
 2287TIP3    H128420   1.631   3.943   1.312
 2287TIP3    H228421   1.565   3.978   1.180
 2288TIP3   OH228422   0.609   4.848   8.363
 2288TIP3    H128423   0.696   4.858   8.401
 2288TIP3    H228424   0.561   4.926   8.390
 2289TIP3   OH228425   4.393   1.193   7.209
 2289TIP3    H128426   4.404   1.144   7.127
 2289TIP3    H228427   4.463   1.159   7.266
 2290TIP3   OH228428   5.537   0.575   0.511
 2290TIP3    H128429   5.506   0.531   0.432
 2290TIP3    H228430   5.471   0.554   0.577
 2291TIP3   OH228431   6.049   2.799   0.029
 2291TIP3    H128432   5.977   2.861   0.020
 2291TIP3    H228433   6.127   2.855   0.032
 2292TIP3   OH228434   4.481   5.734   7.110
 2292TIP3    H128435   4.522   5.757   7.027
 2292TIP3    H228436   4.387   5.733   7.092
 2293TIP3   OH228437   4.077   4.541   8.605
 2293TIP3    H128438   4.117   4.472   8.551
 2293TIP3    H228439   4.151   4.590   8.639
 2294TIP3   OH228440   5.750   6.755   8.120
 2294TIP3    H128441   5.682   6.818   8.097
 2294TIP3    H228442   5.714   6.707   8.195
 2295TIP3   OH228443   4.243   2.986   0.510
 2295TIP3    H128444   4.272   3.048   0.443
 2295TIP3    H228445   4.187   2.925   0.463
 2296TIP3   OH228446   5.066   5.833   0.082
 2296TIP3    H128447   5.110   5.918   0.074
 2296TIP3    H228448   5.066   5.816   0.176
 2297TIP3   OH228449   2.329   0.484   0.142
 2297TIP3    H128450   2.311   0.433   0.221
 2297TIP3    H228451   2.243   0.494   0.100
 2298TIP3   OH228452   4.297   0.908   8.480
 2298TIP3    H128453   4.373   0.889   8.534
 2298TIP3    H228454   4.291   1.004   8.478
 2299TIP3   OH228455   1.887   1.421   0.066
 2299TIP3    H128456   1.792   1.429   0.073
 2299TIP3    H228457   1.918   1.512   0.062
 2300TIP3   OH228458   4.163   4.323   8.465
 2300TIP3    H128459   4.128   4.269   8.394
 2300TIP3    H228460   4.253   4.293   8.476
 2301TIP3   OH228461   2.566   1.589   1.594
 2301TIP3    H128462   2.600   1.572   1.506
 2301TIP3    H228463   2.497   1.655   1.580
 2302TIP3   OH228464   5.458   5.646   7.530
 2302TIP3    H128465   5.442   5.696   7.450
 2302TIP3    H228466   5.385   5.668   7.588
 2303TIP3   OH228467   4.368   1.679   0.618
 2303TIP3    H128468   4.351   1.762   0.573
 2303TIP3    H228469   4.282   1.636   0.620
 2304TIP3   OH228470   5.719   5.126   7.122
 2304TIP3    H128471   5.728   5.055   7.058
 2304TIP3    H228472   5.768   5.199   7.084
 2305TIP3   OH228473   3.334   5.929   7.647
 2305TIP3    H128474   3.303   5.866   7.711
 2305TIP3    H228475   3.424   5.901   7.627
 2306TIP3   OH228476   0.287   3.476   2.258
 2306TIP3    H128477   0.216   3.497   2.319
 2306TIP3    H228478   0.340   3.556   2.255
 2307TIP3   OH228479   6.441   3.393   7.053
 2307TIP3    H128480   6.376   3.353   7.111
 2307TIP3    H228481   6.398   3.397   6.968
 2308TIP3   OH228482   4.774   0.943   7.191
 2308TIP3    H128483   4.729   0.936   7.107
 2308TIP3    H228484   4.740   0.870   7.243
 2309TIP3   OH228485   6.727   0.168   0.701
 2309TIP3    H128486   6.755   0.223   0.775
 2309TIP3    H228487   6.809   0.134   0.665
 2310TIP3   OH228488   2.127   4.680   7.399
 2310TIP3    H128489   2.172   4.689   7.314
 2310TIP3    H228490   2.134   4.587   7.419
 2311TIP3   OH228491   0.605   5.539   8.310
 2311TIP3    H128492   0.540   5.602   8.280
 2311TIP3    H228493   0.658   5.520   8.233
 2312TIP3   OH228494   5.905   0.864   0.278
 2312TIP3    H128495   5.963   0.902   0.344
 2312TIP3    H228496   5.956   0.865   0.197
 2313TIP3   OH228497   0.444   0.590   1.358
 2313TIP3    H128498   0.460   0.645   1.435
 2313TIP3    H228499   0.530   0.580   1.317
 2314TIP3   OH228500   2.093   5.552   1.992
 2314TIP3    H128501   2.133   5.470   2.021
 2314TIP3    H228502   2.004   5.549   2.025
 2315TIP3   OH228503   2.787   1.631   6.411
 2315TIP3    H128504   2.740   1.559   6.452
 2315TIP3    H228505   2.797   1.604   6.320
 2316TIP3   OH228506   2.769   2.959   1.166
 2316TIP3    H128507   2.756   2.995   1.078
 2316TIP3    H228508   2.788   2.866   1.151
 2317TIP3   OH228509   3.508   3.735   0.988
 2317TIP3    H128510   3.439   3.674   1.010
 2317TIP3    H228511   3.583   3.706   1.040
 2318TIP3   OH228512   2.181   2.744   8.166
 2318TIP3    H128513   2.238   2.667   8.176
 2318TIP3    H228514   2.129   2.724   8.088
 2319TIP3   OH228515   4.468   5.267   1.566
 2319TIP3    H128516   4.531   5.210   1.611
 2319TIP3    H228517   4.481   5.353   1.605
 2320TIP3   OH228518   4.678   4.780   7.358
 2320TIP3    H128519   4.693   4.870   7.387
 2320TIP3    H228520   4.722   4.774   7.274
 2321TIP3   OH228521   0.440   2.981   7.937
 2321TIP3    H128522   0.470   3.061   7.979
 2321TIP3    H228523   0.518   2.926   7.932
 2322TIP3   OH228524   4.488   3.556   8.092
 2322TIP3    H128525   4.505   3.507   8.173
 2322TIP3    H228526   4.474   3.488   8.026
 2323TIP3   OH228527   2.952   0.017   1.324
 2323TIP3    H128528   2.940   0.067   1.243
 2323TIP3    H228529   2.868   6.816   1.338
 2324TIP3   OH228530   1.239   3.154   0.862
 2324TIP3    H128531   1.263   3.084   0.923
 2324TIP3    H228532   1.187   3.215   0.915
 2325TIP3   OH228533   3.425   6.650   2.301
 2325TIP3    H128534   3.355   6.638   2.236
 2325TIP3    H228535   3.470   6.729   2.272
 2326TIP3   OH228536   4.121   3.345   8.264
 2326TIP3    H128537   4.154   3.266   8.307
 2326TIP3    H228538   4.068   3.388   8.330
 2327TIP3   OH228539   3.305   1.154   6.609
 2327TIP3    H128540   3.399   1.156   6.629
 2327TIP3    H228541   3.298   1.103   6.528
 2328TIP3   OH228542   3.036   6.112   6.937
 2328TIP3    H128543   3.050   6.035   6.882
 2328TIP3    H228544   3.030   6.185   6.876
 2329TIP3   OH228545   4.023   5.274   8.473
 2329TIP3    H128546   3.968   5.259   8.549
 2329TIP3    H228547   3.971   5.243   8.399
 2330TIP3   OH228548   2.340   5.820   0.517
 2330TIP3    H128549   2.290   5.740   0.537
 2330TIP3    H228550   2.424   5.807   0.563
 2331TIP3   OH228551   4.830   1.507   6.489
 2331TIP3    H128552   4.794   1.594   6.511
 2331TIP3    H228553   4.760   1.464   6.440
 2332TIP3   OH228554   2.045   3.307   7.976
 2332TIP3    H128555   1.973   3.261   7.933
 2332TIP3    H228556   2.112   3.240   7.990
 2333TIP3   OH228557   0.549   1.783   1.882
 2333TIP3    H128558   0.624   1.786   1.942
 2333TIP3    H228559   0.476   1.755   1.937
 2334TIP3   OH228560   2.390   5.557   8.656
 2334TIP3    H128561   2.315   5.616   8.660
 2334TIP3    H228562   2.359   5.481   8.607
 2335TIP3   OH228563   2.815   5.969   0.458
 2335TIP3    H128564   2.857   5.935   0.536
 2335TIP3    H228565   2.884   6.017   0.412
 2336TIP3   OH228566   5.253   5.174   6.775
 2336TIP3    H128567   5.221   5.264   6.760
 2336TIP3    H228568   5.180   5.119   6.747
 2337TIP3   OH228569   3.717   1.395   7.494
 2337TIP3    H128570   3.798   1.447   7.494
 2337TIP3    H228571   3.683   1.405   7.583
 2338TIP3   OH228572   5.184   0.687   8.224
 2338TIP3    H128573   5.188   0.764   8.281
 2338TIP3    H228574   5.112   0.635   8.260
 2339TIP3   OH228575   5.542   1.246   7.877
 2339TIP3    H128576   5.598   1.235   7.955
 2339TIP3    H228577   5.600   1.227   7.803
 2340TIP3   OH228578   0.024   0.977   7.737
 2340TIP3    H128579   6.825   1.006   7.655
 2340TIP3    H228580   0.108   0.941   7.709
 2341TIP3   OH228581   6.796   1.149   0.220
 2341TIP3    H128582   6.715   1.130   0.174
 2341TIP3    H228583   6.783   1.114   0.309
 2342TIP3   OH228584   0.922   6.415   0.634
 2342TIP3    H128585   0.896   6.499   0.672
 2342TIP3    H228586   0.968   6.370   0.705
 2343TIP3   OH228587   4.328   5.284   8.399
 2343TIP3    H128588   4.235   5.265   8.411
 2343TIP3    H228589   4.348   5.349   8.465
 2344TIP3   OH228590   3.116   6.665   7.727
 2344TIP3    H128591   3.081   6.575   7.727
 2344TIP3    H228592   3.078   6.706   7.649
 2345TIP3   OH228593   4.352   5.070   7.755
 2345TIP3    H128594   4.404   5.143   7.723
 2345TIP3    H228595   4.395   4.992   7.721
 2346TIP3   OH228596   1.704   4.672   8.367
 2346TIP3    H128597   1.680   4.581   8.349
 2346TIP3    H228598   1.726   4.709   8.282
 2347TIP3   OH228599   2.805   3.798   8.260
 2347TIP3    H128600   2.848   3.812   8.176
 2347TIP3    H228601   2.773   3.708   8.256
 2348TIP3   OH228602   3.758   6.812   7.117
 2348TIP3    H128603   3.812   6.738   7.089
 2348TIP3    H228604   3.699   6.828   7.044
 2349TIP3   OH228605   0.809   4.310   8.481
 2349TIP3    H128606   0.841   4.234   8.530
 2349TIP3    H228607   0.811   4.283   8.390
 2350TIP3   OH228608   6.421   4.359   2.114
 2350TIP3    H128609   6.385   4.335   2.199
 2350TIP3    H228610   6.368   4.311   2.050
 2351TIP3   OH228611   3.384   5.453   7.815
 2351TIP3    H128612   3.394   5.378   7.875
 2351TIP3    H228613   3.428   5.425   7.735
 2352TIP3   OH228614   2.289   4.787   1.624
 2352TIP3    H128615   2.334   4.711   1.662
 2352TIP3    H228616   2.207   4.752   1.590
 2353TIP3   OH228617   1.520   5.298   6.303
 2353TIP3    H128618   1.486   5.226   6.250
 2353TIP3    H228619   1.606   5.317   6.266
 2354TIP3   OH228620   2.784   1.962   0.169
 2354TIP3    H128621   2.843   1.946   0.242
 2354TIP3    H228622   2.746   1.877   0.149
 2355TIP3   OH228623   1.997   1.394   1.822
 2355TIP3    H128624   2.014   1.426   1.911
 2355TIP3    H228625   1.901   1.394   1.814
 2356TIP3   OH228626   3.848   3.537   1.526
 2356TIP3    H128627   3.788   3.470   1.559
 2356TIP3    H228628   3.796   3.617   1.523
 2357TIP3   OH228629   4.241   0.577   1.639
 2357TIP3    H128630   4.254   0.614   1.552
 2357TIP3    H228631   4.155   0.535   1.635
 2358TIP3   OH228632   2.070   6.146   6.248
 2358TIP3    H128633   2.146   6.116   6.200
 2358TIP3    H228634   2.098   6.227   6.291
 2359TIP3   OH228635   0.392   6.360   8.083
 2359TIP3    H128636   0.424   6.325   8.166
 2359TIP3    H228637   0.395   6.455   8.094
 2360TIP3   OH228638   1.448   1.944   7.045
 2360TIP3    H128639   1.539   1.973   7.040
 2360TIP3    H228640   1.427   1.913   6.957
 2361TIP3   OH228641   4.981   5.988   6.589
 2361TIP3    H128642   4.906   5.935   6.616
 2361TIP3    H228643   4.942   6.064   6.546
 2362TIP3   OH228644   1.381   4.290   0.909
 2362TIP3    H128645   1.290   4.319   0.911
 2362TIP3    H228646   1.433   4.371   0.913
 2363TIP3   OH228647   6.523   1.974   8.489
 2363TIP3    H128648   6.526   1.963   8.584
 2363TIP3    H228649   6.612   1.952   8.460
 2364TIP3   OH228650   4.192   3.325   1.256
 2364TIP3    H128651   4.266   3.300   1.312
 2364TIP3    H228652   4.230   3.335   1.169
 2365TIP3   OH228653   5.484   0.054   7.799
 2365TIP3    H128654   5.528   0.058   7.884
 2365TIP3    H228655   5.552   0.080   7.736
 2366TIP3   OH228656   5.105   4.706   8.614
 2366TIP3    H128657   5.058   4.697   8.696
 2366TIP3    H228658   5.067   4.784   8.573
 2367TIP3   OH228659   4.239   4.522   1.219
 2367TIP3    H128660   4.206   4.495   1.133
 2367TIP3    H228661   4.252   4.616   1.211
 2368TIP3   OH228662   4.130   6.101   1.470
 2368TIP3    H128663   4.038   6.077   1.457
 2368TIP3    H228664   4.165   6.032   1.526
 2369TIP3   OH228665   3.077   1.035   6.718
 2369TIP3    H128666   3.164   1.072   6.701
 2369TIP3    H228667   3.036   1.030   6.631
 2370TIP3   OH228668   3.442   1.065   8.493
 2370TIP3    H128669   3.517   1.115   8.524
 2370TIP3    H228670   3.385   1.129   8.450
 2371TIP3   OH228671   2.736   4.583   7.305
 2371TIP3    H128672   2.832   4.593   7.300
 2371TIP3    H228673   2.722   4.489   7.303
 2372TIP3   OH228674   2.837   5.533   6.924
 2372TIP3    H128675   2.846   5.613   6.872
 2372TIP3    H228676   2.785   5.474   6.869
 2373TIP3   OH228677   3.986   2.591   0.815
 2373TIP3    H128678   4.069   2.544   0.823
 2373TIP3    H228679   3.994   2.641   0.734
 2374TIP3   OH228680   0.125   3.599   8.153
 2374TIP3    H128681   0.192   3.587   8.220
 2374TIP3    H228682   0.169   3.648   8.083
 2375TIP3   OH228683   4.209   3.558   8.092
 2375TIP3    H128684   4.181   3.467   8.087
 2375TIP3    H228685   4.303   3.554   8.107
 2376TIP3   OH228686   1.292   2.995   8.273
 2376TIP3    H128687   1.329   2.992   8.361
 2376TIP3    H228688   1.299   2.905   8.241
 2377TIP3   OH228689   2.054   5.321   8.211
 2377TIP3    H128690   2.035   5.274   8.292
 2377TIP3    H228691   2.149   5.316   8.202
 2378TIP3   OH228692   5.669   4.184   1.749
 2378TIP3    H128693   5.712   4.263   1.784
 2378TIP3    H228694   5.712   4.112   1.795
 2379TIP3   OH228695   6.765   6.204   1.947
 2379TIP3    H128696   6.762   6.109   1.933
 2379TIP3    H228697   0.015   6.226   1.947
 2380TIP3   OH228698   0.312   1.216   0.939
 2380TIP3    H128699   0.366   1.137   0.948
 2380TIP3    H228700   0.227   1.191   0.977
 2381TIP3   OH228701   3.410   1.217   6.991
 2381TIP3    H128702   3.489   1.198   7.041
 2381TIP3    H228703   3.437   1.282   6.926
 2382TIP3   OH228704   4.742   0.858   1.384
 2382TIP3    H128705   4.693   0.855   1.466
 2382TIP3    H228706   4.675   0.853   1.316
 2383TIP3   OH228707   1.530   4.773   0.326
 2383TIP3    H128708   1.562   4.713   0.260
 2383TIP3    H228709   1.436   4.781   0.309
 2384TIP3   OH228710   1.578   4.109   0.603
 2384TIP3    H128711   1.639   4.141   0.537
 2384TIP3    H228712   1.569   4.016   0.585
 2385TIP3   OH228713   2.216   2.856   1.921
 2385TIP3    H128714   2.254   2.880   1.836
 2385TIP3    H228715   2.203   2.939   1.966
 2386TIP3   OH228716   0.004   2.076   1.303
 2386TIP3    H128717   0.027   2.153   1.252
 2386TIP3    H228718   6.801   2.110   1.380
 2387TIP3   OH228719   1.199   0.571   1.355
 2387TIP3    H128720   1.219   0.477   1.357
 2387TIP3    H228721   1.241   0.606   1.434
 2388TIP3   OH228722   6.205   1.756   8.556
 2388TIP3    H128723   6.178   1.753   8.464
 2388TIP3    H228724   6.280   1.697   8.560
 2389TIP3   OH228725   3.550   2.799   7.176
 2389TIP3    H128726   3.504   2.793   7.093
 2389TIP3    H228727   3.501   2.864   7.227
 2390TIP3   OH228728   0.896   5.565   7.309
 2390TIP3    H128729   0.818   5.528   7.349
 2390TIP3    H228730   0.864   5.633   7.251
 2391TIP3   OH228731   2.896   1.948   7.355
 2391TIP3    H128732   2.914   1.932   7.263
 2391TIP3    H228733   2.818   1.896   7.374
 2392TIP3   OH228734   0.756   5.322   8.543
 2392TIP3    H128735   0.684   5.366   8.498
 2392TIP3    H228736   0.713   5.257   8.599
 2393TIP3   OH228737   1.018   3.166   1.284
 2393TIP3    H128738   1.050   3.077   1.299
 2393TIP3    H228739   0.963   3.185   1.360
 2394TIP3   OH228740   5.128   1.399   0.300
 2394TIP3    H128741   5.097   1.412   0.389
 2394TIP3    H228742   5.215   1.361   0.310
 2395TIP3   OH228743   5.614   0.769   0.055
 2395TIP3    H128744   5.519   0.762   0.050
 2395TIP3    H228745   5.632   0.795   0.145
 2396TIP3   OH228746   6.006   2.157   8.673
 2396TIP3    H128747   5.954   2.199   0.028
 2396TIP3    H228748   5.983   2.065   8.678
 2397TIP3   OH228749   4.464   6.707   1.016
 2397TIP3    H128750   4.410   6.664   0.949
 2397TIP3    H228751   4.527   6.640   1.042
 2398TIP3   OH228752   5.004   3.849   8.603
 2398TIP3    H128753   5.095   3.819   8.606
 2398TIP3    H228754   4.974   3.844   8.694
 2399TIP3   OH228755   3.178   1.731   0.737
 2399TIP3    H128756   3.176   1.727   0.641
 2399TIP3    H228757   3.200   1.822   0.757
 2400TIP3   OH228758   2.470   1.851   0.308
 2400TIP3    H128759   2.422   1.829   0.388
 2400TIP3    H228760   2.506   1.938   0.324
 2401TIP3   OH228761   3.043   1.266   1.406
 2401TIP3    H128762   3.067   1.180   1.441
 2401TIP3    H228763   3.013   1.248   1.317
 2402TIP3   OH228764   1.162   2.682   6.525
 2402TIP3    H128765   1.126   2.718   6.444
 2402TIP3    H228766   1.090   2.629   6.561
 2403TIP3   OH228767   6.609   4.046   1.562
 2403TIP3    H128768   6.656   4.110   1.510
 2403TIP3    H228769   6.564   4.098   1.629
 2404TIP3   OH228770   1.846   2.582   8.081
 2404TIP3    H128771   1.871   2.527   8.155
 2404TIP3    H228772   1.776   2.534   8.037
 2405TIP3   OH228773   2.859   3.186   7.418
 2405TIP3    H128774   2.829   3.149   7.335
 2405TIP3    H228775   2.784   3.236   7.450
 2406TIP3   OH228776   2.772   1.537   8.039
 2406TIP3    H128777   2.792   1.443   8.040
 2406TIP3    H228778   2.700   1.545   7.977
 2407TIP3   OH228779   1.232   1.952   8.396
 2407TIP3    H128780   1.264   1.879   8.450
 2407TIP3    H228781   1.204   2.018   8.459
 2408TIP3   OH228782   4.669   4.387   8.581
 2408TIP3    H128783   4.618   4.316   8.620
 2408TIP3    H228784   4.758   4.375   8.615
 2409TIP3   OH228785   4.090   1.093   7.757
 2409TIP3    H128786   4.160   1.037   7.790
 2409TIP3    H228787   4.013   1.068   7.807
 2410TIP3   OH228788   6.352   3.893   8.328
 2410TIP3    H128789   6.385   3.912   8.240
 2410TIP3    H228790   6.304   3.972   8.353
 2411TIP3   OH228791   0.802   3.479   0.351
 2411TIP3    H128792   0.748   3.401   0.356
 2411TIP3    H228793   0.795   3.508   0.260
 2412TIP3   OH228794   2.031   1.760   1.702
 2412TIP3    H128795   2.009   1.849   1.728
 2412TIP3    H228796   2.091   1.729   1.770
 2413TIP3   OH228797   6.593   3.424   1.646
 2413TIP3    H128798   6.541   3.403   1.723
 2413TIP3    H228799   6.536   3.479   1.593
 2414TIP3   OH228800   0.827   5.350   6.524
 2414TIP3    H128801   0.875   5.373   6.445
 2414TIP3    H228802   0.847   5.258   6.539
 2415TIP3   OH228803   6.626   4.905   0.072
 2415TIP3    H128804   6.605   4.814   0.092
 2415TIP3    H228805   6.541   4.947   0.058
 2416TIP3   OH228806   1.393   4.855   7.201
 2416TIP3    H128807   1.361   4.813   7.120
 2416TIP3    H228808   1.368   4.947   7.191
 2417TIP3   OH228809   3.841   0.574   7.709
 2417TIP3    H128810   3.784   0.635   7.757
 2417TIP3    H228811   3.836   0.604   7.618
 2418TIP3   OH228812   5.899   3.856   1.516
 2418TIP3    H128813   5.977   3.861   1.572
 2418TIP3    H228814   5.830   3.824   1.573
 2419TIP3   OH228815   1.562   1.869   8.524
 2419TIP3    H128816   1.568   1.779   8.495
 2419TIP3    H228817   1.481   1.873   8.575
 2420TIP3   OH228818   5.137   2.239   7.649
 2420TIP3    H128819   5.187   2.297   7.707
 2420TIP3    H228820   5.046   2.255   7.672
 2421TIP3   OH228821   1.611   3.249   6.834
 2421TIP3    H128822   1.567   3.212   6.757
 2421TIP3    H228823   1.553   3.226   6.907
 2422TIP3   OH228824   2.882   1.292   7.973
 2422TIP3    H128825   2.908   1.202   7.950
 2422TIP3    H228826   2.965   1.338   7.987
 2423TIP3   OH228827   1.670   6.566   8.038
 2423TIP3    H128828   1.580   6.541   8.018
 2423TIP3    H228829   1.722   6.489   8.016
 2424TIP3   OH228830   4.506   1.690   0.213
 2424TIP3    H128831   4.506   1.644   0.129
 2424TIP3    H228832   4.414   1.711   0.230
 2425TIP3   OH228833   1.731   3.170   7.531
 2425TIP3    H128834   1.705   3.151   7.441
 2425TIP3    H228835   1.767   3.259   7.528
 2426TIP3   OH228836   2.788   0.382   1.077
 2426TIP3    H128837   2.877   0.394   1.111
 2426TIP3    H228838   2.795   0.310   1.014
 2427TIP3   OH228839   2.827   0.266   0.677
 2427TIP3    H128840   2.857   0.254   0.767
 2427TIP3    H228841   2.865   0.192   0.629
 2428TIP3   OH228842   1.830   3.298   6.689
 2428TIP3    H128843   1.773   3.320   6.763
 2428TIP3    H228844   1.791   3.219   6.652
 2429TIP3   OH228845   0.644   4.703   0.394
 2429TIP3    H128846   0.582   4.748   0.338
 2429TIP3    H228847   0.627   4.738   0.482
 2430TIP3   OH228848   4.292   6.337   7.294
 2430TIP3    H128849   4.387   6.338   7.281
 2430TIP3    H228850   4.274   6.249   7.327
 2431TIP3   OH228851   4.630   0.091   8.177
 2431TIP3    H128852   4.643   0.005   8.216
 2431TIP3    H228853   4.544   0.087   8.136
 2432TIP3   OH228854   1.277   3.697   1.571
 2432TIP3    H128855   1.271   3.704   1.476
 2432TIP3    H228856   1.333   3.770   1.597
 2433TIP3   OH228857   0.513   2.462   7.838
 2433TIP3    H128858   0.485   2.379   7.878
 2433TIP3    H228859   0.435   2.516   7.838
 2434TIP3   OH228860   4.226   2.218   2.346
 2434TIP3    H128861   4.132   2.232   2.335
 2434TIP3    H228862   4.239   2.125   2.330
 2435TIP3   OH228863   0.237   2.794   7.604
 2435TIP3    H128864   0.203   2.735   7.671
 2435TIP3    H228865   0.237   2.880   7.645
 2436TIP3   OH228866   4.475   4.097   0.851
 2436TIP3    H128867   4.570   4.105   0.858
 2436TIP3    H228868   4.441   4.179   0.886
 2437TIP3   OH228869   4.731   1.237   1.896
 2437TIP3    H128870   4.737   1.330   1.875
 2437TIP3    H228871   4.650   1.229   1.946
 2438TIP3   OH228872   3.260   1.820   6.620
 2438TIP3    H128873   3.181   1.811   6.567
 2438TIP3    H228874   3.242   1.893   6.679
 2439TIP3   OH228875   3.191   2.844   7.204
 2439TIP3    H128876   3.192   2.813   7.294
 2439TIP3    H228877   3.151   2.931   7.208
 2440TIP3   OH228878   4.960   6.094   8.178
 2440TIP3    H128879   4.929   6.047   8.256
 2440TIP3    H228880   4.933   6.038   8.105
 2441TIP3   OH228881   1.359   0.006   2.798
 2441TIP3    H128882   1.373   6.760   2.830
 2441TIP3    H228883   1.429   0.020   2.733
 2442TIP3   OH228884   1.276   4.169   7.219
 2442TIP3    H128885   1.242   4.135   7.136
 2442TIP3    H228886   1.329   4.097   7.254
 2443TIP3   OH228887   1.983   2.440   0.906
 2443TIP3    H128888   2.047   2.443   0.977
 2443TIP3    H228889   2.007   2.365   0.853
 2444TIP3   OH228890   4.154   4.815   1.214
 2444TIP3    H128891   4.171   4.825   1.121
 2444TIP3    H228892   4.158   4.904   1.249
 2445TIP3   OH228893   5.492   4.797   7.536
 2445TIP3    H128894   5.532   4.882   7.556
 2445TIP3    H228895   5.400   4.808   7.562
 2446TIP3   OH228896   0.067   2.180   6.626
 2446TIP3    H128897   0.026   2.099   6.655
 2446TIP3    H228898   0.161   2.164   6.631
 2447TIP3   OH228899   5.791   0.116   1.404
 2447TIP3    H128900   5.741   0.190   1.439
 2447TIP3    H228901   5.880   0.150   1.395
 2448TIP3   OH228902   3.922   6.430   8.041
 2448TIP3    H128903   3.909   6.516   8.000
 2448TIP3    H228904   4.017   6.419   8.043
 2449TIP3   OH228905   1.854   3.722   1.748
 2449TIP3    H128906   1.921   3.757   1.806
 2449TIP3    H228907   1.833   3.636   1.785
 2450TIP3   OH228908   0.145   0.094   1.454
 2450TIP3    H128909   0.051   0.088   1.470
 2450TIP3    H228910   0.153   0.158   1.383
 2451TIP3   OH228911   2.374   6.800   7.748
 2451TIP3    H128912   2.279   6.797   7.755
 2451TIP3    H228913   2.392   6.821   7.657
 2452TIP3   OH228914   1.169   4.076   6.981
 2452TIP3    H128915   1.177   4.006   6.916
 2452TIP3    H228916   1.152   4.155   6.929
 2453TIP3   OH228917   4.497   6.352   1.796
 2453TIP3    H128918   4.438   6.295   1.748
 2453TIP3    H228919   4.564   6.293   1.831
 2454TIP3   OH228920   1.567   5.199   2.080
 2454TIP3    H128921   1.591   5.262   2.148
 2454TIP3    H228922   1.483   5.163   2.109
 2455TIP3   OH228923   2.532   3.199   6.584
 2455TIP3    H128924   2.568   3.271   6.533
 2455TIP3    H228925   2.498   3.138   6.518
 2456TIP3   OH228926   3.066   3.113   7.129
 2456TIP3    H128927   3.150   3.130   7.087
 2456TIP3    H228928   3.023   3.199   7.133
 2457TIP3   OH228929   4.759   6.413   6.881
 2457TIP3    H128930   4.725   6.341   6.827
 2457TIP3    H228931   4.854   6.401   6.879
 2458TIP3   OH228932   3.685   4.966   7.153
 2458TIP3    H128933   3.694   4.871   7.146
 2458TIP3    H228934   3.771   4.996   7.183
 2459TIP3   OH228935   0.266   0.961   8.357
 2459TIP3    H128936   0.300   0.900   8.291
 2459TIP3    H228937   0.342   1.014   8.381
 2460TIP3   OH228938   2.731   1.346   7.739
 2460TIP3    H128939   2.758   1.298   7.817
 2460TIP3    H228940   2.791   1.420   7.734
 2461TIP3   OH228941   0.935   3.609   8.378
 2461TIP3    H128942   0.850   3.652   8.366
 2461TIP3    H228943   0.991   3.677   8.413
 2462TIP3   OH228944   0.009   5.309   0.849
 2462TIP3    H128945   0.038   5.232   0.897
 2462TIP3    H228946   0.087   5.363   0.840
 2463TIP3   OH228947   0.937   3.368   7.015
 2463TIP3    H128948   0.909   3.292   6.963
 2463TIP3    H228949   1.031   3.356   7.025
 2464TIP3   OH228950   4.892   3.873   6.149
 2464TIP3    H128951   4.976   3.837   6.119
 2464TIP3    H228952   4.910   3.965   6.168
 2465TIP3   OH228953   5.509   1.920   6.718
 2465TIP3    H128954   5.433   1.966   6.683
 2465TIP3    H228955   5.486   1.827   6.714
 2466TIP3   OH228956   2.419   6.280   0.598
 2466TIP3    H128957   2.470   6.199   0.600
 2466TIP3    H228958   2.449   6.330   0.674
 2467TIP3   OH228959   5.059   6.322   0.015
 2467TIP3    H128960   4.965   6.305   0.013
 2467TIP3    H228961   5.068   6.416   0.003
 2468TIP3   OH228962   4.365   2.107   1.184
 2468TIP3    H128963   4.439   2.052   1.157
 2468TIP3    H228964   4.358   2.173   1.116
 2469TIP3   OH228965   2.885   6.607   8.197
 2469TIP3    H128966   2.825   6.532   8.198
 2469TIP3    H228967   2.966   6.574   8.236
 2470TIP3   OH228968   5.633   0.099   0.059
 2470TIP3    H128969   5.582   0.180   0.054
 2470TIP3    H228970   5.722   0.125   0.036
 2471TIP3   OH228971   5.489   4.414   8.390
 2471TIP3    H128972   5.548   4.362   8.446
 2471TIP3    H228973   5.423   4.448   8.450
 2472TIP3   OH228974   4.527   0.952   0.280
 2472TIP3    H128975   4.581   0.906   0.216
 2472TIP3    H228976   4.443   0.907   0.278
 2473TIP3   OH228977   5.656   0.506   0.829
 2473TIP3    H128978   5.585   0.443   0.822
 2473TIP3    H228979   5.625   0.571   0.893
 2474TIP3   OH228980   6.356   6.187   1.553
 2474TIP3    H128981   6.418   6.117   1.572
 2474TIP3    H228982   6.350   6.190   1.458
 2475TIP3   OH228983   3.691   0.305   1.793
 2475TIP3    H128984   3.685   0.309   1.888
 2475TIP3    H228985   3.784   0.298   1.774
 2476TIP3   OH228986   3.934   5.807   6.979
 2476TIP3    H128987   3.933   5.896   6.944
 2476TIP3    H228988   3.968   5.754   6.907
 2477TIP3   OH228989   2.439   3.312   7.688
 2477TIP3    H128990   2.511   3.356   7.644
 2477TIP3    H228991   2.380   3.382   7.715
 2478TIP3   OH228992   6.426   1.692   6.736
 2478TIP3    H128993   6.519   1.672   6.726
 2478TIP3    H228994   6.382   1.606   6.736
 2479TIP3   OH228995   1.723   3.372   0.607
 2479TIP3    H128996   1.687   3.299   0.558
 2479TIP3    H228997   1.670   3.376   0.687
 2480TIP3   OH228998   0.599   2.220   6.993
 2480TIP3    H128999   0.681   2.185   7.028
 2480TIP3    H229000   0.626   2.293   6.937
 2481TIP3   OH229001   0.398   5.047   1.516
 2481TIP3    H129002   0.489   5.019   1.522
 2481TIP3    H229003   0.398   5.116   1.450
 2482TIP3   OH229004   5.112   2.782   8.196
 2482TIP3    H129005   5.021   2.752   8.198
 2482TIP3    H229006   5.152   2.742   8.274
 2483TIP3   OH229007   4.950   5.267   7.300
 2483TIP3    H129008   4.950   5.183   7.346
 2483TIP3    H229009   4.885   5.257   7.231
 2484TIP3   OH229010   6.357   6.454   0.325
 2484TIP3    H129011   6.406   6.446   0.407
 2484TIP3    H229012   6.417   6.421   0.258
 2485TIP3   OH229013   4.436   2.968   1.401
 2485TIP3    H129014   4.396   3.041   1.353
 2485TIP3    H229015   4.363   2.928   1.449
 2486TIP3   OH229016   5.631   0.848   2.790
 2486TIP3    H129017   5.689   0.790   2.740
 2486TIP3    H229018   5.547   0.802   2.791
 2487TIP3   OH229019   4.784   3.543   0.579
 2487TIP3    H129020   4.856   3.593   0.540
 2487TIP3    H229021   4.812   3.452   0.575
 2488TIP3   OH229022   3.888   1.586   7.990
 2488TIP3    H129023   3.952   1.545   7.931
 2488TIP3    H229024   3.879   1.524   8.063
 2489TIP3   OH229025   3.861   3.193   0.243
 2489TIP3    H129026   3.791   3.250   0.210
 2489TIP3    H229027   3.814   3.119   0.283
 2490TIP3   OH229028   5.390   5.943   8.229
 2490TIP3    H129029   5.363   6.034   8.220
 2490TIP3    H229030   5.384   5.908   8.140
 2491TIP3   OH229031   2.201   6.222   0.808
 2491TIP3    H129032   2.186   6.201   0.900
 2491TIP3    H229033   2.213   6.137   0.765
 2492TIP3   OH229034   4.813   6.019   2.110
 2492TIP3    H129035   4.772   5.967   2.041
 2492TIP3    H229036   4.861   5.955   2.162
 2493TIP3   OH229037   5.005   1.381   6.313
 2493TIP3    H129038   4.923   1.410   6.352
 2493TIP3    H229039   5.045   1.324   6.379
 2494TIP3   OH229040   0.776   4.312   7.565
 2494TIP3    H129041   0.796   4.406   7.568
 2494TIP3    H229042   0.861   4.269   7.570
 2495TIP3   OH229043   0.172   0.240   0.417
 2495TIP3    H129044   0.149   0.238   0.324
 2495TIP3    H229045   0.266   0.258   0.418
 2496TIP3   OH229046   4.898   6.698   0.212
 2496TIP3    H129047   4.965   6.637   0.180
 2496TIP3    H229048   4.915   6.705   0.306
 2497TIP3   OH229049   2.496   2.658   1.819
 2497TIP3    H129050   2.574   2.604   1.829
 2497TIP3    H229051   2.467   2.642   1.729
 2498TIP3   OH229052   5.489   0.239   1.069
 2498TIP3    H129053   5.527   0.283   0.993
 2498TIP3    H229054   5.395   0.244   1.056
 2499TIP3   OH229055   1.942   3.668   7.390
 2499TIP3    H129056   2.009   3.736   7.375
 2499TIP3    H229057   1.892   3.700   7.466
 2500TIP3   OH229058   4.384   4.313   8.253
 2500TIP3    H129059   4.440   4.282   8.324
 2500TIP3    H229060   4.374   4.407   8.269
 2501TIP3   OH229061   4.738   3.861   6.784
 2501TIP3    H129062   4.692   3.784   6.816
 2501TIP3    H229063   4.831   3.837   6.787
 2502TIP3   OH229064   2.716   6.221   8.536
 2502TIP3    H129065   2.780   6.195   8.470
 2502TIP3    H229066   2.670   6.296   8.498
 2503TIP3   OH229067   1.310   4.737   6.956
 2503TIP3    H129068   1.278   4.660   7.003
 2503TIP3    H229069   1.263   4.735   6.872
 2504TIP3   OH229070   6.411   3.055   0.796
 2504TIP3    H129071   6.328   3.061   0.843
 2504TIP3    H229072   6.477   3.046   0.865
 2505TIP3   OH229073   2.395   5.827   8.063
 2505TIP3    H129074   2.394   5.740   8.102
 2505TIP3    H229075   2.319   5.871   8.101
 2506TIP3   OH229076   0.769   2.638   8.133
 2506TIP3    H129077   0.789   2.547   8.112
 2506TIP3    H229078   0.820   2.656   8.212
 2507TIP3   OH229079   3.880   3.841   0.748
 2507TIP3    H129080   3.856   3.870   0.660
 2507TIP3    H229081   3.947   3.903   0.776
 2508TIP3   OH229082   4.758   4.371   1.544
 2508TIP3    H129083   4.843   4.408   1.522
 2508TIP3    H229084   4.737   4.409   1.630
 2509TIP3   OH229085   3.114   1.076   7.836
 2509TIP3    H129086   3.181   1.034   7.889
 2509TIP3    H229087   3.039   1.017   7.840
 2510TIP3   OH229088   0.040   2.864   0.036
 2510TIP3    H129089   0.026   2.905   8.664
 2510TIP3    H229090   0.071   2.936   0.092
 2511TIP3   OH229091   2.030   5.258   7.433
 2511TIP3    H129092   2.027   5.317   7.358
 2511TIP3    H229093   2.106   5.287   7.484
 2512TIP3   OH229094   6.660   2.759   0.301
 2512TIP3    H129095   6.711   2.805   0.234
 2512TIP3    H229096   6.681   2.804   0.382
 2513TIP3   OH229097   0.690   6.646   0.987
 2513TIP3    H129098   0.615   6.697   1.018
 2513TIP3    H229099   0.651   6.569   0.946
 2514TIP3   OH229100   3.374   2.072   0.435
 2514TIP3    H129101   3.291   2.109   0.466
 2514TIP3    H229102   3.441   2.131   0.469
 2515TIP3   OH229103   6.561   2.461   6.460
 2515TIP3    H129104   6.580   2.529   6.396
 2515TIP3    H229105   6.617   2.483   6.535
 2516TIP3   OH229106   5.874   0.662   1.528
 2516TIP3    H129107   5.838   0.734   1.579
 2516TIP3    H229108   5.797   0.615   1.495
 2517TIP3   OH229109   4.190   2.446   1.154
 2517TIP3    H129110   4.191   2.542   1.153
 2517TIP3    H229111   4.098   2.423   1.147
 2518TIP3   OH229112   4.802   2.794   1.073
 2518TIP3    H129113   4.893   2.822   1.063
 2518TIP3    H229114   4.808   2.701   1.095
 2519TIP3   OH229115   6.292   2.248   1.226
 2519TIP3    H129116   6.376   2.231   1.269
 2519TIP3    H229117   6.292   2.341   1.207
 2520TIP3   OH229118   4.620   6.517   1.157
 2520TIP3    H129119   4.605   6.462   1.080
 2520TIP3    H229120   4.558   6.485   1.222
 2521TIP3   OH229121   6.173   1.919   1.315
 2521TIP3    H129122   6.156   2.000   1.365
 2521TIP3    H229123   6.196   1.855   1.382
 2522TIP3   OH229124   5.691   0.324   8.235
 2522TIP3    H129125   5.692   0.245   8.291
 2522TIP3    H229126   5.666   0.395   8.295
 2523TIP3   OH229127   5.294   2.592   0.804
 2523TIP3    H129128   5.279   2.599   0.899
 2523TIP3    H229129   5.323   2.679   0.778
 2524TIP3   OH229130   5.822   4.915   1.223
 2524TIP3    H129131   5.841   5.006   1.203
 2524TIP3    H229132   5.748   4.892   1.167
 2525TIP3   OH229133   6.762   0.152   7.262
 2525TIP3    H129134   6.744   0.246   7.260
 2525TIP3    H229135   6.679   0.113   7.290
 2526TIP3   OH229136   0.756   5.777   0.711
 2526TIP3    H129137   0.739   5.683   0.716
 2526TIP3    H229138   0.851   5.783   0.700
 2527TIP3   OH229139   2.898   2.475   8.582
 2527TIP3    H129140   2.963   2.441   8.644
 2527TIP3    H229141   2.919   2.568   8.573
 2528TIP3   OH229142   1.063   1.417   7.046
 2528TIP3    H129143   1.148   1.395   7.085
 2528TIP3    H229144   1.084   1.483   6.980
 2529TIP3   OH229145   2.466   0.912   6.223
 2529TIP3    H129146   2.500   0.931   6.135
 2529TIP3    H229147   2.375   0.940   6.221
 2530TIP3   OH229148   1.976   2.693   0.030
 2530TIP3    H129149   1.991   2.607   0.069
 2530TIP3    H229150   2.064   2.725   0.008
 2531TIP3   OH229151   1.263   6.259   7.785
 2531TIP3    H129152   1.314   6.287   7.861
 2531TIP3    H229153   1.268   6.164   7.786
 2532TIP3   OH229154   0.404   1.447   0.234
 2532TIP3    H129155   0.327   1.392   0.249
 2532TIP3    H229156   0.472   1.409   0.291
 2533TIP3   OH229157   3.660   6.111   1.305
 2533TIP3    H129158   3.590   6.048   1.291
 2533TIP3    H229159   3.615   6.193   1.328
 2534TIP3   OH229160   1.116   4.193   8.618
 2534TIP3    H129161   1.099   4.133   8.690
 2534TIP3    H229162   1.109   4.280   8.657
 2535TIP3   OH229163   1.292   6.664   7.062
 2535TIP3    H129164   1.377   6.640   7.098
 2535TIP3    H229165   1.308   6.677   6.968
 2536TIP3   OH229166   3.282   6.349   6.954
 2536TIP3    H129167   3.196   6.344   6.913
 2536TIP3    H229168   3.343   6.324   6.884
 2537TIP3   OH229169   2.708   1.673   0.295
 2537TIP3    H129170   2.631   1.720   0.325
 2537TIP3    H229171   2.696   1.584   0.327
 2538TIP3   OH229172   2.089   2.230   0.694
 2538TIP3    H129173   2.168   2.210   0.744
 2538TIP3    H229174   2.120   2.285   0.622
 2539TIP3   OH229175   5.298   4.065   1.004
 2539TIP3    H129176   5.358   3.993   1.020
 2539TIP3    H229177   5.352   4.144   1.013
 2540TIP3   OH229178   1.808   4.972   0.228
 2540TIP3    H129179   1.779   5.063   0.239
 2540TIP3    H229180   1.804   4.957   0.134
 2541TIP3   OH229181   4.571   2.968   8.416
 2541TIP3    H129182   4.547   2.883   8.453
 2541TIP3    H229183   4.566   2.955   8.321
 2542TIP3   OH229184   1.063   3.230   6.682
 2542TIP3    H129185   0.981   3.194   6.715
 2542TIP3    H229186   1.037   3.310   6.636
 2543TIP3   OH229187   3.026   0.310   0.307
 2543TIP3    H129188   3.087   0.249   0.348
 2543TIP3    H229189   3.022   0.384   0.367
 2544TIP3   OH229190   4.573   0.430   1.675
 2544TIP3    H129191   4.643   0.495   1.683
 2544TIP3    H229192   4.516   0.447   1.750
 2545TIP3   OH229193   1.640   0.529   8.146
 2545TIP3    H129194   1.650   0.444   8.188
 2545TIP3    H229195   1.559   0.521   8.095
 2546TIP3   OH229196   3.726   6.248   8.057
 2546TIP3    H129197   3.802   6.305   8.051
 2546TIP3    H229198   3.761   6.160   8.043
 2547TIP3   OH229199   2.580   0.169   6.598
 2547TIP3    H129200   2.654   0.229   6.590
 2547TIP3    H229201   2.514   0.203   6.537
 2548TIP3   OH229202   0.535   3.797   7.151
 2548TIP3    H129203   0.446   3.795   7.115
 2548TIP3    H229204   0.586   3.844   7.085
 2549TIP3   OH229205   3.320   4.326   8.020
 2549TIP3    H129206   3.384   4.383   8.063
 2549TIP3    H229207   3.249   4.318   8.084
 2550TIP3   OH229208   0.208   6.413   7.887
 2550TIP3    H129209   0.117   6.413   7.917
 2550TIP3    H229210   0.260   6.411   7.966
 2551TIP3   OH229211   4.558   4.024   1.181
 2551TIP3    H129212   4.594   4.071   1.256
 2551TIP3    H229213   4.503   4.088   1.137
 2552TIP3   OH229214   1.904   4.002   0.647
 2552TIP3    H129215   1.997   3.978   0.653
 2552TIP3    H229216   1.903   4.097   0.652
 2553TIP3   OH229217   3.031   4.511   7.662
 2553TIP3    H129218   3.100   4.550   7.715
 2553TIP3    H229219   2.963   4.578   7.659
 2554TIP3   OH229220   6.775   0.409   6.701
 2554TIP3    H129221   6.699   0.419   6.758
 2554TIP3    H229222   6.739   0.407   6.612
 2555TIP3   OH229223   4.995   6.814   8.621
 2555TIP3    H129224   4.921   0.016   8.581
 2555TIP3    H229225   4.994   6.726   8.582
 2556TIP3   OH229226   2.460   4.565   1.716
 2556TIP3    H129227   2.515   4.616   1.775
 2556TIP3    H229228   2.450   4.480   1.758
 2557TIP3   OH229229   5.294   5.188   0.594
 2557TIP3    H129230   5.319   5.221   0.508
 2557TIP3    H229231   5.299   5.264   0.652
 2558TIP3   OH229232   2.078   1.165   1.549
 2558TIP3    H129233   2.021   1.109   1.601
 2558TIP3    H229234   2.046   1.156   1.459
 2559TIP3   OH229235   5.592   3.764   8.272
 2559TIP3    H129236   5.502   3.778   8.301
 2559TIP3    H229237   5.643   3.831   8.319
 2560TIP3   OH229238   4.253   4.558   7.620
 2560TIP3    H129239   4.275   4.469   7.594
 2560TIP3    H229240   4.172   4.577   7.572
 2561TIP3   OH229241   3.349   1.476   8.540
 2561TIP3    H129242   3.281   1.409   8.534
 2561TIP3    H229243   3.385   1.465   8.628
 2562TIP3   OH229244   2.812   6.776   7.070
 2562TIP3    H129245   2.802   6.830   6.992
 2562TIP3    H229246   2.893   6.728   7.057
 2563TIP3   OH229247   3.138   2.551   2.482
 2563TIP3    H129248   3.073   2.485   2.507
 2563TIP3    H229249   3.183   2.514   2.407
 2564TIP3   OH229250   1.629   2.555   2.362
 2564TIP3    H129251   1.705   2.573   2.307
 2564TIP3    H229252   1.579   2.489   2.313
 2565TIP3   OH229253   0.637   0.504   0.962
 2565TIP3    H129254   0.599   0.417   0.947
 2565TIP3    H229255   0.709   0.510   0.898
 2566TIP3   OH229256   4.645   4.502   1.223
 2566TIP3    H129257   4.630   4.421   1.272
 2566TIP3    H229258   4.710   4.478   1.157
 2567TIP3   OH229259   2.096   0.872   1.122
 2567TIP3    H129260   2.067   0.808   1.058
 2567TIP3    H229261   2.191   0.879   1.107
 2568TIP3   OH229262   2.861   1.452   1.755
 2568TIP3    H129263   2.817   1.536   1.768
 2568TIP3    H229264   2.874   1.417   1.843
 2569TIP3   OH229265   2.396   3.954   8.391
 2569TIP3    H129266   2.349   3.937   8.472
 2569TIP3    H229267   2.353   3.899   8.326
 2570TIP3   OH229268   2.743   6.333   0.255
 2570TIP3    H129269   2.696   6.330   0.338
 2570TIP3    H229270   2.674   6.333   0.188
 2571TIP3   OH229271   3.649   3.873   7.598
 2571TIP3    H129272   3.724   3.898   7.545
 2571TIP3    H229273   3.587   3.835   7.535
 2572TIP3   OH229274   0.996   5.923   0.944
 2572TIP3    H129275   1.083   5.930   0.982
 2572TIP3    H229276   0.937   5.930   1.019
 2573TIP3   OH229277   5.186   4.738   7.473
 2573TIP3    H129278   5.202   4.660   7.527
 2573TIP3    H229279   5.184   4.704   7.383
 2574TIP3   OH229280   0.745   5.979   6.947
 2574TIP3    H129281   0.685   6.007   7.015
 2574TIP3    H229282   0.691   5.931   6.885
 2575TIP3   OH229283   4.217   1.698   7.589
 2575TIP3    H129284   4.309   1.715   7.569
 2575TIP3    H229285   4.173   1.782   7.575
 2576TIP3   OH229286   3.010   3.261   8.701
 2576TIP3    H129287   2.963   3.336   8.665
 2576TIP3    H229288   3.018   3.281   0.081
 2577TIP3   OH229289   3.795   4.134   7.463
 2577TIP3    H129290   3.752   4.114   7.380
 2577TIP3    H229291   3.878   4.174   7.438
 2578TIP3   OH229292   3.078   1.134   7.093
 2578TIP3    H129293   3.164   1.151   7.054
 2578TIP3    H229294   3.065   1.040   7.082
 2579TIP3   OH229295   1.116   5.741   1.277
 2579TIP3    H129296   1.186   5.686   1.312
 2579TIP3    H229297   1.104   5.710   1.187
 2580TIP3   OH229298   1.376   0.718   7.257
 2580TIP3    H129299   1.347   0.754   7.173
 2580TIP3    H229300   1.370   0.792   7.318
 2581TIP3   OH229301   1.306   2.729   8.199
 2581TIP3    H129302   1.315   2.653   8.257
 2581TIP3    H229303   1.312   2.693   8.111
 2582TIP3   OH229304   2.020   4.525   8.001
 2582TIP3    H129305   2.042   4.479   7.920
 2582TIP3    H229306   2.044   4.463   8.070
 2583TIP3   OH229307   0.533   6.658   8.265
 2583TIP3    H129308   0.580   6.628   8.187
 2583TIP3    H229309   0.601   6.684   8.326
 2584TIP3   OH229310   1.853   5.585   7.309
 2584TIP3    H129311   1.855   5.563   7.402
 2584TIP3    H229312   1.932   5.545   7.273
 2585TIP3   OH229313   1.513   5.873   8.396
 2585TIP3    H129314   1.441   5.843   8.341
 2585TIP3    H229315   1.471   5.906   8.475
 2586TIP3   OH229316   3.134   4.274   7.451
 2586TIP3    H129317   3.047   4.243   7.426
 2586TIP3    H229318   3.157   4.221   7.527
 2587TIP3   OH229319   2.878   5.452   8.542
 2587TIP3    H129320   2.827   5.372   8.532
 2587TIP3    H229321   2.831   5.504   8.607
 2588TIP3   OH229322   5.676   1.632   7.065
 2588TIP3    H129323   5.590   1.675   7.059
 2588TIP3    H229324   5.715   1.645   6.978
 2589TIP3   OH229325   4.118   6.374   1.516
 2589TIP3    H129326   4.077   6.368   1.602
 2589TIP3    H229327   4.127   6.283   1.487
 2590TIP3   OH229328   3.845   4.285   7.981
 2590TIP3    H129329   3.909   4.219   7.955
 2590TIP3    H229330   3.774   4.276   7.917
 2591TIP3   OH229331   0.141   0.086   0.651
 2591TIP3    H129332   0.172   0.054   0.736
 2591TIP3    H229333   0.180   0.173   0.643
 2592TIP3   OH229334   4.934   3.518   1.561
 2592TIP3    H129335   4.851   3.566   1.567
 2592TIP3    H229336   4.966   3.536   1.473
 2593TIP3   OH229337   0.691   2.292   1.668
 2593TIP3    H129338   0.640   2.372   1.685
 2593TIP3    H229339   0.680   2.277   1.574
 2594TIP3   OH229340   5.247   2.019   2.335
 2594TIP3    H129341   5.156   2.022   2.363
 2594TIP3    H229342   5.297   2.015   2.417
 2595TIP3   OH229343   4.040   2.320   1.491
 2595TIP3    H129344   4.135   2.324   1.503
 2595TIP3    H229345   4.021   2.388   1.425
 2596TIP3   OH229346   0.340   2.130   6.715
 2596TIP3    H129347   0.344   2.077   6.636
 2596TIP3    H229348   0.324   2.068   6.786
 2597TIP3   OH229349   6.006   1.775   1.149
 2597TIP3    H129350   5.992   1.814   1.063
 2597TIP3    H229351   6.075   1.828   1.188
 2598TIP3   OH229352   0.488   4.931   7.713
 2598TIP3    H129353   0.450   4.863   7.657
 2598TIP3    H229354   0.504   4.887   7.796
 2599TIP3   OH229355   1.025   6.174   0.313
 2599TIP3    H129356   1.012   6.125   0.395
 2599TIP3    H229357   1.060   6.258   0.342
 2600TIP3   OH229358   3.895   6.240   7.703
 2600TIP3    H129359   3.924   6.323   7.667
 2600TIP3    H229360   3.802   6.253   7.722
 2601TIP3   OH229361   2.250   4.304   7.884
 2601TIP3    H129362   2.223   4.213   7.894
 2601TIP3    H229363   2.344   4.304   7.904
 2602TIP3   OH229364   5.728   1.143   8.076
 2602TIP3    H129365   5.757   1.078   8.140
 2602TIP3    H229366   5.692   1.214   8.130
 2603TIP3   OH229367   1.473   6.097   1.497
 2603TIP3    H129368   1.567   6.081   1.488
 2603TIP3    H229369   1.463   6.132   1.585
 2604TIP3   OH229370   0.125   0.528   7.594
 2604TIP3    H129371   0.179   0.462   7.551
 2604TIP3    H229372   0.042   0.524   7.547
 2605TIP3   OH229373   3.140   2.856   1.150
 2605TIP3    H129374   3.088   2.934   1.129
 2605TIP3    H229375   3.121   2.839   1.243
 2606TIP3   OH229376   5.111   1.317   6.580
 2606TIP3    H129377   5.188   1.294   6.631
 2606TIP3    H229378   5.119   1.411   6.566
 2607TIP3   OH229379   3.194   0.552   2.429
 2607TIP3    H129380   3.196   0.613   2.355
 2607TIP3    H229381   3.205   0.466   2.390
 2608TIP3   OH229382   2.152   3.076   2.139
 2608TIP3    H129383   2.180   2.994   2.179
 2608TIP3    H229384   2.186   3.145   2.197
 2609TIP3   OH229385   0.397   1.874   1.511
 2609TIP3    H129386   0.419   1.924   1.432
 2609TIP3    H229387   0.302   1.882   1.519
 2610TIP3   OH229388   2.205   1.486   2.339
 2610TIP3    H129389   2.296   1.474   2.314
 2610TIP3    H229390   2.194   1.437   2.420
 2611TIP3   OH229391   3.025   0.430   8.112
 2611TIP3    H129392   3.115   0.421   8.143
 2611TIP3    H229393   2.988   0.342   8.119
 2612TIP3   OH229394   4.295   0.596   8.618
 2612TIP3    H129395   4.305   0.658   8.546
 2612TIP3    H229396   4.204   0.567   8.611
 2613TIP3   OH229397   3.618   5.328   0.638
 2613TIP3    H129398   3.713   5.318   0.633
 2613TIP3    H229399   3.584   5.238   0.634
 2614TIP3   OH229400   5.637   3.880   8.001
 2614TIP3    H129401   5.634   3.808   8.064
 2614TIP3    H229402   5.546   3.910   7.995
 2615TIP3   OH229403   2.272   6.512   7.705
 2615TIP3    H129404   2.189   6.470   7.682
 2615TIP3    H229405   2.257   6.605   7.686
 2616TIP3   OH229406   3.551   4.453   8.130
 2616TIP3    H129407   3.569   4.534   8.178
 2616TIP3    H229408   3.596   4.464   8.046
 2617TIP3   OH229409   5.093   4.603   1.123
 2617TIP3    H129410   5.066   4.577   1.211
 2617TIP3    H229411   5.093   4.698   1.124
 2618TIP3   OH229412   2.451   1.437   2.261
 2618TIP3    H129413   2.440   1.350   2.298
 2618TIP3    H229414   2.543   1.441   2.234
 2619TIP3   OH229415   3.751   4.733   8.666
 2619TIP3    H129416   3.684   4.676   8.628
 2619TIP3    H229417   3.702   4.807   8.703
 2620TIP3   OH229418   6.473   2.058   2.060
 2620TIP3    H129419   6.427   1.983   2.097
 2620TIP3    H229420   6.434   2.134   2.103
 2621TIP3   OH229421   6.304   3.684   0.461
 2621TIP3    H129422   6.397   3.667   0.446
 2621TIP3    H229423   6.300   3.712   0.552
 2622TIP3   OH229424   3.680   5.543   7.647
 2622TIP3    H129425   3.683   5.548   7.551
 2622TIP3    H229426   3.748   5.480   7.670
 2623TIP3   OH229427   1.428   2.876   6.788
 2623TIP3    H129428   1.339   2.898   6.814
 2623TIP3    H229429   1.439   2.785   6.817
 2624TIP3   OH229430   2.784   4.915   2.754
 2624TIP3    H129431   2.740   4.919   2.839
 2624TIP3    H229432   2.832   4.832   2.756
 2625TIP3   OH229433   0.832   1.659   7.365
 2625TIP3    H129434   0.744   1.693   7.383
 2625TIP3    H229435   0.888   1.736   7.361
 2626TIP3   OH229436   3.290   3.993   6.070
 2626TIP3    H129437   3.239   3.967   6.147
 2626TIP3    H229438   3.254   3.940   5.999
 2627TIP3   OH229439   3.021   0.782   2.508
 2627TIP3    H129440   3.052   0.695   2.485
 2627TIP3    H229441   3.065   0.841   2.447
 2628TIP3   OH229442   1.741   5.223   1.687
 2628TIP3    H129443   1.667   5.260   1.639
 2628TIP3    H229444   1.749   5.133   1.653
 2629TIP3   OH229445   2.371   3.547   7.965
 2629TIP3    H129446   2.337   3.577   7.880
 2629TIP3    H229447   2.326   3.602   8.029
 2630TIP3   OH229448   0.548   3.360   1.357
 2630TIP3    H129449   0.466   3.311   1.362
 2630TIP3    H229450   0.609   3.309   1.411
 2631TIP3   OH229451   3.270   3.421   6.141
 2631TIP3    H129452   3.323   3.463   6.073
 2631TIP3    H229453   3.191   3.391   6.096
 2632TIP3   OH229454   6.380   1.114   7.873
 2632TIP3    H129455   6.381   1.202   7.835
 2632TIP3    H229456   6.288   1.086   7.865
 2633TIP3   OH229457   4.691   2.548   0.404
 2633TIP3    H129458   4.690   2.470   0.349
 2633TIP3    H229459   4.732   2.520   0.485
 2634TIP3   OH229460   1.807   3.977   0.904
 2634TIP3    H129461   1.835   3.974   0.813
 2634TIP3    H229462   1.821   3.888   0.936
 2635TIP3   OH229463   0.785   0.962   0.844
 2635TIP3    H129464   0.836   0.913   0.907
 2635TIP3    H229465   0.813   0.930   0.759
 2636TIP3   OH229466   1.950   0.499   0.601
 2636TIP3    H129467   1.863   0.481   0.638
 2636TIP3    H229468   1.975   0.416   0.560
 2637TIP3   OH229469   0.743   2.248   8.248
 2637TIP3    H129470   0.776   2.307   8.180
 2637TIP3    H229471   0.657   2.222   8.216
 2638TIP3   OH229472   2.444   6.258   7.941
 2638TIP3    H129473   2.369   6.246   7.882
 2638TIP3    H229474   2.480   6.170   7.951
 2639TIP3   OH229475   0.350   6.376   7.337
 2639TIP3    H129476   0.436   6.336   7.322
 2639TIP3    H229477   0.343   6.381   7.432
 2640TIP3   OH229478   0.529   0.139   0.672
 2640TIP3    H129479   0.624   0.148   0.670
 2640TIP3    H229480   0.505   0.165   0.761
 2641TIP3   OH229481   6.378   4.520   7.519
 2641TIP3    H129482   6.312   4.464   7.480
 2641TIP3    H229483   6.400   4.478   7.602
 2642TIP3   OH229484   0.411   0.295   7.568
 2642TIP3    H129485   0.462   0.336   7.638
 2642TIP3    H229486   0.463   0.309   7.489
 2643TIP3   OH229487   0.938   2.133   7.624
 2643TIP3    H129488   0.953   2.040   7.607
 2643TIP3    H229489   1.018   2.176   7.594
 2644TIP3   OH229490   6.651   1.520   8.418
 2644TIP3    H129491   6.690   1.514   8.331
 2644TIP3    H229492   6.708   1.466   8.473
 2645TIP3   OH229493   1.663   0.904   7.497
 2645TIP3    H129494   1.584   0.931   7.450
 2645TIP3    H229495   1.726   0.882   7.428
 2646TIP3   OH229496   6.381   3.703   7.592
 2646TIP3    H129497   6.338   3.657   7.663
 2646TIP3    H229498   6.322   3.776   7.572
 2647TIP3   OH229499   3.129   2.673   7.790
 2647TIP3    H129500   3.050   2.726   7.803
 2647TIP3    H229501   3.186   2.728   7.737
 2648TIP3   OH229502   4.757   5.646   6.414
 2648TIP3    H129503   4.690   5.589   6.376
 2648TIP3    H229504   4.838   5.620   6.371
 2649TIP3   OH229505   3.814   3.968   0.484
 2649TIP3    H129506   3.746   3.970   0.417
 2649TIP3    H229507   3.810   4.054   0.525
 2650TIP3   OH229508   0.382   2.358   1.177
 2650TIP3    H129509   0.429   2.373   1.094
 2650TIP3    H229510   0.434   2.405   1.242
 2651TIP3   OH229511   4.356   2.953   1.755
 2651TIP3    H129512   4.395   2.872   1.789
 2651TIP3    H229513   4.335   3.004   1.833
 2652TIP3   OH229514   5.470   0.884   8.216
 2652TIP3    H129515   5.506   0.842   8.293
 2652TIP3    H229516   5.389   0.836   8.198
 2653TIP3   OH229517   0.438   2.923   0.996
 2653TIP3    H129518   0.350   2.946   0.966
 2653TIP3    H229519   0.460   2.990   1.060
 2654TIP3   OH229520   6.001   5.816   0.778
 2654TIP3    H129521   5.955   5.754   0.721
 2654TIP3    H229522   5.932   5.867   0.819
 2655TIP3   OH229523   1.088   4.785   1.699
 2655TIP3    H129524   1.097   4.876   1.728
 2655TIP3    H229525   1.102   4.734   1.778
 2656TIP3   OH229526   6.180   1.152   0.832
 2656TIP3    H129527   6.176   1.074   0.778
 2656TIP3    H229528   6.158   1.122   0.920
 2657TIP3   OH229529   6.179   4.382   0.291
 2657TIP3    H129530   6.122   4.364   0.217
 2657TIP3    H229531   6.230   4.459   0.264
 2658TIP3   OH229532   3.161   5.318   7.528
 2658TIP3    H129533   3.185   5.400   7.570
 2658TIP3    H229534   3.073   5.333   7.494
 2659TIP3   OH229535   4.456   2.345   8.603
 2659TIP3    H129536   4.524   2.292   8.645
 2659TIP3    H229537   4.504   2.401   8.541
 2660TIP3   OH229538   0.565   1.005   0.533
 2660TIP3    H129539   0.496   1.067   0.508
 2660TIP3    H229540   0.529   0.956   0.606
 2661TIP3   OH229541   6.045   1.420   8.444
 2661TIP3    H129542   5.977   1.353   8.445
 2661TIP3    H229543   6.061   1.439   8.536
 2662TIP3   OH229544   6.208   0.340   1.247
 2662TIP3    H129545   6.118   0.354   1.275
 2662TIP3    H229546   6.228   0.415   1.191
 2663TIP3   OH229547   1.061   3.904   2.256
 2663TIP3    H129548   1.126   3.833   2.259
 2663TIP3    H229549   0.987   3.865   2.210
 2664TIP3   OH229550   1.495   0.465   1.108
 2664TIP3    H129551   1.539   0.533   1.160
 2664TIP3    H229552   1.473   0.397   1.172
 2665TIP3   OH229553   3.919   1.315   2.167
 2665TIP3    H129554   3.947   1.385   2.227
 2665TIP3    H229555   3.856   1.264   2.218
 2666TIP3   OH229556   2.137   6.326   1.771
 2666TIP3    H129557   2.105   6.408   1.807
 2666TIP3    H229558   2.224   6.347   1.735
 2667TIP3   OH229559   3.837   2.726   7.913
 2667TIP3    H129560   3.848   2.696   8.003
 2667TIP3    H229561   3.781   2.661   7.872
 2668TIP3   OH229562   0.882   3.615   1.339
 2668TIP3    H129563   0.876   3.565   1.257
 2668TIP3    H229564   0.950   3.570   1.388
 2669TIP3   OH229565   2.875   2.221   8.482
 2669TIP3    H129566   2.869   2.315   8.500
 2669TIP3    H229567   2.915   2.215   8.396
 2670TIP3   OH229568   3.617   1.180   7.358
 2670TIP3    H129569   3.662   1.255   7.397
 2670TIP3    H229570   3.617   1.198   7.264
 2671TIP3   OH229571   4.600   0.998   8.354
 2671TIP3    H129572   4.529   0.960   8.302
 2671TIP3    H229573   4.680   0.975   8.306
 2672TIP3   OH229574   6.120   1.188   8.704
 2672TIP3    H129575   6.030   1.220   8.694
 2672TIP3    H229576   6.163   1.210   8.622
 2673TIP3   OH229577   2.469   2.779   2.471
 2673TIP3    H129578   2.430   2.764   2.385
 2673TIP3    H229579   2.474   2.692   2.510
 2674TIP3   OH229580   1.727   0.150   1.386
 2674TIP3    H129581   1.751   0.110   1.470
 2674TIP3    H229582   1.808   0.151   1.335
 2675TIP3   OH229583   5.237   5.746   7.007
 2675TIP3    H129584   5.184   5.777   6.933
 2675TIP3    H229585   5.182   5.682   7.051
 2676TIP3   OH229586   0.206   3.043   7.353
 2676TIP3    H129587   0.142   3.041   7.424
 2676TIP3    H229588   0.282   2.998   7.388
 2677TIP3   OH229589   2.445   4.641   7.574
 2677TIP3    H129590   2.456   4.547   7.557
 2677TIP3    H229591   2.357   4.648   7.611
 2678TIP3   OH229592   2.015   3.199   8.327
 2678TIP3    H129593   1.928   3.186   8.366
 2678TIP3    H229594   2.002   3.182   8.233
 2679TIP3   OH229595   3.621   2.820   8.659
 2679TIP3    H129596   3.672   2.837   8.579
 2679TIP3    H229597   3.589   2.730   8.648
 2680TIP3   OH229598   6.229   4.596   2.745
 2680TIP3    H129599   6.168   4.655   2.701
 2680TIP3    H229600   6.176   4.552   2.812
 2681TIP3   OH229601   6.426   6.453   7.106
 2681TIP3    H129602   6.407   6.449   7.200
 2681TIP3    H229603   6.349   6.495   7.068
 2682TIP3   OH229604   6.113   4.481   7.178
 2682TIP3    H129605   6.028   4.518   7.154
 2682TIP3    H229606   6.177   4.542   7.141
 2683TIP3   OH229607   6.840   2.026   0.789
 2683TIP3    H129608   6.797   2.094   0.737
 2683TIP3    H229609   0.043   2.074   0.858
 2684TIP3   OH229610   5.268   5.614   0.787
 2684TIP3    H129611   5.331   5.632   0.857
 2684TIP3    H229612   5.263   5.695   0.737
 2685TIP3   OH229613   4.688   1.443   8.388
 2685TIP3    H129614   4.709   1.514   8.328
 2685TIP3    H229615   4.644   1.378   8.334
 2686TIP3   OH229616   4.678   1.735   1.570
 2686TIP3    H129617   4.695   1.745   1.663
 2686TIP3    H229618   4.756   1.771   1.527
 2687TIP3   OH229619   3.600   5.813   6.850
 2687TIP3    H129620   3.626   5.751   6.782
 2687TIP3    H229621   3.680   5.830   6.900
 2688TIP3   OH229622   3.367   5.261   1.345
 2688TIP3    H129623   3.414   5.320   1.285
 2688TIP3    H229624   3.276   5.293   1.344
 2689TIP3   OH229625   4.060   2.154   6.671
 2689TIP3    H129626   4.092   2.160   6.581
 2689TIP3    H229627   3.970   2.120   6.662
 2690TIP3   OH229628   2.325   2.165   0.212
 2690TIP3    H129629   2.279   2.125   0.138
 2690TIP3    H229630   2.255   2.192   0.272
 2691TIP3   OH229631   4.332   0.240   0.578
 2691TIP3    H129632   4.397   0.275   0.640
 2691TIP3    H229633   4.264   0.202   0.634
 2692TIP3   OH229634   2.199   6.740   8.666
 2692TIP3    H129635   2.178   6.809   8.604
 2692TIP3    H229636   2.287   6.761   8.698
 2693TIP3   OH229637   1.440   5.431   0.512
 2693TIP3    H129638   1.447   5.351   0.564
 2693TIP3    H229639   1.364   5.477   0.548
 2694TIP3   OH229640   2.642   6.372   0.830
 2694TIP3    H129641   2.670   6.459   0.859
 2694TIP3    H229642   2.618   6.327   0.911
 2695TIP3   OH229643   5.442   6.577   1.428
 2695TIP3    H129644   5.493   6.567   1.348
 2695TIP3    H229645   5.506   6.566   1.499
 2696TIP3   OH229646   1.819   2.976   0.650
 2696TIP3    H129647   1.840   2.902   0.706
 2696TIP3    H229648   1.886   3.042   0.669
 2697TIP3   OH229649   6.464   0.153   7.775
 2697TIP3    H129650   6.375   0.127   7.800
 2697TIP3    H229651   6.521   0.092   7.823
 2698TIP3   OH229652   3.760   2.423   0.724
 2698TIP3    H129653   3.687   2.384   0.772
 2698TIP3    H229654   3.815   2.462   0.792
 2699TIP3   OH229655   1.663   1.098   1.294
 2699TIP3    H129656   1.703   1.033   1.237
 2699TIP3    H229657   1.600   1.049   1.347
 2700TIP3   OH229658   2.766   5.669   1.802
 2700TIP3    H129659   2.734   5.726   1.732
 2700TIP3    H229660   2.774   5.583   1.760
 2701TIP3   OH229661   1.524   1.766   7.559
 2701TIP3    H129662   1.468   1.756   7.636
 2701TIP3    H229663   1.550   1.676   7.537
 2702TIP3   OH229664   2.262   0.259   2.306
 2702TIP3    H129665   2.265   0.344   2.263
 2702TIP3    H229666   2.170   0.248   2.330
 2703TIP3   OH229667   3.217   1.784   1.108
 2703TIP3    H129668   3.198   1.865   1.061
 2703TIP3    H229669   3.312   1.785   1.121
 2704TIP3   OH229670   4.823   0.167   8.519
 2704TIP3    H129671   4.852   0.258   8.513
 2704TIP3    H229672   4.728   0.173   8.523
 2705TIP3   OH229673   4.465   3.428   8.354
 2705TIP3    H129674   4.456   3.333   8.358
 2705TIP3    H229675   4.397   3.461   8.413
 2706TIP3   OH229676   2.682   1.894   0.853
 2706TIP3    H129677   2.734   1.901   0.773
 2706TIP3    H229678   2.597   1.863   0.823
 2707TIP3   OH229679   3.392   6.586   7.752
 2707TIP3    H129680   3.318   6.630   7.710
 2707TIP3    H229681   3.436   6.539   7.682
 2708TIP3   OH229682   5.786   2.875   7.381
 2708TIP3    H129683   5.839   2.936   7.330
 2708TIP3    H229684   5.830   2.871   7.466
 2709TIP3   OH229685   5.548   3.167   1.636
 2709TIP3    H129686   5.524   3.228   1.705
 2709TIP3    H229687   5.643   3.177   1.627
 2710TIP3   OH229688   2.969   4.606   1.523
 2710TIP3    H129689   2.911   4.642   1.589
 2710TIP3    H229690   2.961   4.665   1.448
 2711TIP3   OH229691   0.474   3.507   7.242
 2711TIP3    H129692   0.469   3.596   7.205
 2711TIP3    H229693   0.483   3.521   7.336
 2712TIP3   OH229694   2.345   4.034   8.678
 2712TIP3    H129695   2.258   4.004   8.706
 2712TIP3    H229696   2.384   4.070   0.044
 2713TIP3   OH229697   5.974   4.884   2.000
 2713TIP3    H129698   6.056   4.877   2.050
 2713TIP3    H229699   5.962   4.797   1.962
 2714TIP3   OH229700   6.234   2.018   1.705
 2714TIP3    H129701   6.226   1.937   1.753
 2714TIP3    H229702   6.161   2.016   1.642
 2715TIP3   OH229703   2.428   5.106   7.351
 2715TIP3    H129704   2.463   5.039   7.410
 2715TIP3    H229705   2.504   5.138   7.302
 2716TIP3   OH229706   1.603   5.546   1.196
 2716TIP3    H129707   1.653   5.515   1.271
 2716TIP3    H229708   1.668   5.578   1.135
 2717TIP3   OH229709   3.915   1.612   1.885
 2717TIP3    H129710   3.889   1.579   1.799
 2717TIP3    H229711   3.908   1.707   1.877
 2718TIP3   OH229712   3.447   2.622   8.002
 2718TIP3    H129713   3.401   2.594   8.081
 2718TIP3    H229714   3.398   2.582   7.930
 2719TIP3   OH229715   0.977   0.384   0.214
 2719TIP3    H129716   0.959   0.416   0.125
 2719TIP3    H229717   1.067   0.413   0.231
 2720TIP3   OH229718   2.959   5.353   0.371
 2720TIP3    H129719   2.979   5.443   0.394
 2720TIP3    H229720   2.904   5.321   0.443
 2721TIP3   OH229721   0.991   6.647   6.915
 2721TIP3    H129722   1.082   6.621   6.900
 2721TIP3    H229723   0.969   6.612   7.001
 2722TIP3   OH229724   3.576   0.048   6.860
 2722TIP3    H129725   3.561   6.837   6.782
 2722TIP3    H229726   3.615   0.128   6.827
 2723TIP3   OH229727   5.389   2.296   1.643
 2723TIP3    H129728   5.448   2.347   1.698
 2723TIP3    H229729   5.391   2.208   1.680
 2724TIP3   OH229730   5.379   6.145   8.520
 2724TIP3    H129731   5.472   6.164   8.516
 2724TIP3    H229732   5.344   6.176   8.436
 2725TIP3   OH229733   4.249   5.471   2.177
 2725TIP3    H129734   4.261   5.404   2.245
 2725TIP3    H229735   4.157   5.498   2.187
 2726TIP3   OH229736   6.075   2.481   0.276
 2726TIP3    H129737   6.072   2.476   0.181
 2726TIP3    H229738   5.985   2.467   0.304
 2727TIP3   OH229739   1.046   5.781   0.709
 2727TIP3    H129740   1.139   5.780   0.687
 2727TIP3    H229741   1.044   5.809   0.800
 2728TIP3   OH229742   0.151   0.827   8.617
 2728TIP3    H129743   0.056   0.817   8.604
 2728TIP3    H229744   0.182   0.861   8.533
 2729TIP3   OH229745   4.036   6.406   2.213
 2729TIP3    H129746   4.092   6.473   2.173
 2729TIP3    H229747   4.077   6.386   2.296
 2730TIP3   OH229748   0.877   4.858   0.928
 2730TIP3    H129749   0.940   4.875   0.858
 2730TIP3    H229750   0.890   4.929   0.991
 2731TIP3   OH229751   2.948   4.562   8.455
 2731TIP3    H129752   3.030   4.550   8.406
 2731TIP3    H229753   2.938   4.657   8.462
 2732TIP3   OH229754   6.711   5.591   0.510
 2732TIP3    H129755   6.745   5.672   0.472
 2732TIP3    H229756   6.782   5.527   0.500
 2733TIP3   OH229757   3.510   1.206   1.443
 2733TIP3    H129758   3.430   1.168   1.478
 2733TIP3    H229759   3.512   1.295   1.480
 2734TIP3   OH229760   5.906   0.235   7.407
 2734TIP3    H129761   5.998   0.258   7.424
 2734TIP3    H229762   5.911   0.160   7.347
 2735TIP3   OH229763   2.219   4.695   7.708
 2735TIP3    H129764   2.128   4.669   7.692
 2735TIP3    H229765   2.212   4.767   7.771
 2736TIP3   OH229766   4.618   2.242   7.256
 2736TIP3    H129767   4.649   2.184   7.325
 2736TIP3    H229768   4.572   2.312   7.302
 2737TIP3   OH229769   1.561   1.584   8.487
 2737TIP3    H129770   1.500   1.547   8.423
 2737TIP3    H229771   1.642   1.595   8.439
 2738TIP3   OH229772   5.125   1.188   1.586
 2738TIP3    H129773   5.139   1.138   1.505
 2738TIP3    H229774   5.036   1.165   1.612
 2739TIP3   OH229775   6.144   2.877   7.547
 2739TIP3    H129776   6.049   2.884   7.560
 2739TIP3    H229777   6.176   2.966   7.564
 2740TIP3   OH229778   4.154   1.079   1.060
 2740TIP3    H129779   4.096   1.146   1.024
 2740TIP3    H229780   4.128   1.073   1.152
 2741TIP3   OH229781   2.140   2.416   7.803
 2741TIP3    H129782   2.200   2.487   7.779
 2741TIP3    H229783   2.053   2.450   7.781
 2742TIP3   OH229784   4.152   4.944   7.561
 2742TIP3    H129785   4.244   4.932   7.535
 2742TIP3    H229786   4.156   4.950   7.657
 2743TIP3   OH229787   5.090   0.709   1.461
 2743TIP3    H129788   5.097   0.790   1.410
 2743TIP3    H229789   5.068   0.641   1.397
 2744TIP3   OH229790   3.465   5.844   1.366
 2744TIP3    H129791   3.497   5.879   1.449
 2744TIP3    H229792   3.455   5.750   1.382
 2745TIP3   OH229793   0.077   5.052   7.499
 2745TIP3    H129794   0.007   5.090   7.446
 2745TIP3    H229795   0.126   5.127   7.533
 2746TIP3   OH229796   1.257   1.551   7.390
 2746TIP3    H129797   1.325   1.485   7.374
 2746TIP3    H229798   1.259   1.607   7.313
 2747TIP3   OH229799   2.358   2.655   7.044
 2747TIP3    H129800   2.278   2.642   7.095
 2747TIP3    H229801   2.385   2.744   7.063
 2748TIP3   OH229802   0.764   5.398   1.401
 2748TIP3    H129803   0.773   5.385   1.306
 2748TIP3    H229804   0.796   5.487   1.416
 2749TIP3   OH229805   0.508   0.426   6.303
 2749TIP3    H129806   0.523   0.367   6.378
 2749TIP3    H229807   0.418   0.456   6.314
 2750TIP3   OH229808   0.481   1.382   0.544
 2750TIP3    H129809   0.415   1.313   0.538
 2750TIP3    H229810   0.561   1.337   0.570
 2751TIP3   OH229811   4.647   5.185   8.416
 2751TIP3    H129812   4.576   5.126   8.391
 2751TIP3    H229813   4.608   5.242   8.482
 2752TIP3   OH229814   4.653   1.684   6.805
 2752TIP3    H129815   4.571   1.635   6.803
 2752TIP3    H229816   4.643   1.750   6.736
 2753TIP3   OH229817   5.524   6.034   0.633
 2753TIP3    H129818   5.486   6.081   0.707
 2753TIP3    H229819   5.542   6.102   0.569
 2754TIP3   OH229820   1.282   0.281   0.841
 2754TIP3    H129821   1.292   0.254   0.932
 2754TIP3    H229822   1.270   0.199   0.793
 2755TIP3   OH229823   0.208   0.992   1.164
 2755TIP3    H129824   0.142   0.927   1.187
 2755TIP3    H229825   0.280   0.941   1.126
 2756TIP3   OH229826   6.283   5.593   0.353
 2756TIP3    H129827   6.320   5.633   0.275
 2756TIP3    H229828   6.189   5.588   0.335
 2757TIP3   OH229829   0.730   2.217   1.056
 2757TIP3    H129830   0.728   2.298   1.108
 2757TIP3    H229831   0.681   2.154   1.109
 2758TIP3   OH229832   0.490   5.988   0.190
 2758TIP3    H129833   0.456   6.040   0.117
 2758TIP3    H229834   0.526   6.053   0.251
 2759TIP3   OH229835   4.044   0.674   1.169
 2759TIP3    H129836   4.107   0.745   1.171
 2759TIP3    H229837   4.096   0.596   1.148
 2760TIP3   OH229838   6.626   0.878   0.818
 2760TIP3    H129839   6.628   0.969   0.850
 2760TIP3    H229840   6.658   0.826   0.892
 2761TIP3   OH229841   5.493   6.247   8.035
 2761TIP3    H129842   5.544   6.199   8.101
 2761TIP3    H229843   5.559   6.295   7.985
 2762TIP3   OH229844   4.361   6.054   8.311
 2762TIP3    H129845   4.322   6.115   8.373
 2762TIP3    H229846   4.306   6.061   8.232
 2763TIP3   OH229847   6.314   6.024   8.467
 2763TIP3    H129848   6.221   6.019   8.491
 2763TIP3    H229849   6.319   6.097   8.406
 2764TIP3   OH229850   5.189   6.082   0.007
 2764TIP3    H129851   5.154   6.171   0.019
 2764TIP3    H229852   5.256   6.092   8.652
 2765TIP3   OH229853   5.854   1.658   8.528
 2765TIP3    H129854   5.847   1.643   8.434
 2765TIP3    H229855   5.923   1.598   8.556
 2766TIP3   OH229856   6.779   6.802   0.897
 2766TIP3    H129857   6.759   0.019   0.826
 2766TIP3    H229858   0.024   6.828   0.925
 2767TIP3   OH229859   5.580   4.516   0.529
 2767TIP3    H129860   5.616   4.438   0.487
 2767TIP3    H229861   5.569   4.579   0.458
 2768TIP3   OH229862   0.601   2.550   7.134
 2768TIP3    H129863   0.595   2.478   7.196
 2768TIP3    H229864   0.668   2.523   7.072
 2769TIP3   OH229865   3.703   1.703   1.095
 2769TIP3    H129866   3.764   1.630   1.090
 2769TIP3    H229867   3.727   1.749   1.176
 2770TIP3   OH229868   3.585   0.191   7.811
 2770TIP3    H129869   3.532   0.170   7.734
 2770TIP3    H229870   3.561   0.124   7.875
 2771TIP3   OH229871   1.927   4.690   7.155
 2771TIP3    H129872   1.876   4.769   7.174
 2771TIP3    H229873   1.936   4.646   7.239
 2772TIP3   OH229874   0.590   5.566   1.081
 2772TIP3    H129875   0.670   5.614   1.104
 2772TIP3    H229876   0.605   5.477   1.114
 2773TIP3   OH229877   1.082   5.697   0.085
 2773TIP3    H129878   1.138   5.758   0.036
 2773TIP3    H229879   1.027   5.656   0.018
 2774TIP3   OH229880   2.890   1.790   7.089
 2774TIP3    H129881   2.813   1.790   7.032
 2774TIP3    H229882   2.876   1.715   7.147
 2775TIP3   OH229883   4.105   1.381   7.532
 2775TIP3    H129884   4.191   1.376   7.490
 2775TIP3    H229885   4.050   1.428   7.470
 2776TIP3   OH229886   2.039   1.101   1.281
 2776TIP3    H129887   2.062   1.016   1.242
 2776TIP3    H229888   2.113   1.158   1.258
 2777TIP3   OH229889   3.485   1.859   0.641
 2777TIP3    H129890   3.416   1.850   0.576
 2777TIP3    H229891   3.566   1.838   0.594
 2778TIP3   OH229892   1.219   2.349   1.426
 2778TIP3    H129893   1.263   2.294   1.490
 2778TIP3    H229894   1.239   2.310   1.341
 2779TIP3   OH229895   2.927   5.346   0.860
 2779TIP3    H129896   3.007   5.360   0.911
 2779TIP3    H229897   2.858   5.339   0.926
 2780TIP3   OH229898   1.225   6.682   6.471
 2780TIP3    H129899   1.279   6.762   6.470
 2780TIP3    H229900   1.148   6.706   6.523
 2781TIP3   OH229901   2.518   2.725   7.640
 2781TIP3    H129902   2.478   2.683   7.716
 2781TIP3    H229903   2.450   2.725   7.573
 2782TIP3   OH229904   0.206   5.771   0.813
 2782TIP3    H129905   0.255   5.843   0.853
 2782TIP3    H229906   0.212   5.786   0.719
 2783TIP3   OH229907   4.058   3.914   0.230
 2783TIP3    H129908   4.072   3.860   0.152
 2783TIP3    H229909   3.964   3.911   0.244
 2784TIP3   OH229910   0.140   6.592   0.572
 2784TIP3    H129911   0.114   6.518   0.517
 2784TIP3    H229912   0.084   6.664   0.544
 2785TIP3   OH229913   6.463   2.323   7.561
 2785TIP3    H129914   6.496   2.295   7.646
 2785TIP3    H229915   6.533   2.299   7.500
 2786TIP3   OH229916   3.131   6.657   8.044
 2786TIP3    H129917   3.129   6.642   7.950
 2786TIP3    H229918   3.039   6.675   8.068
 2787TIP3   OH229919   5.446   2.929   1.735
 2787TIP3    H129920   5.359   2.939   1.697
 2787TIP3    H229921   5.498   2.998   1.693
 2788TIP3   OH229922   5.000   0.841   2.175
 2788TIP3    H129923   5.036   0.762   2.135
 2788TIP3    H229924   4.961   0.889   2.102
 2789TIP3   OH229925   1.002   6.006   7.644
 2789TIP3    H129926   1.092   6.016   7.674
 2789TIP3    H229927   0.954   6.076   7.687
 2790TIP3   OH229928   5.683   2.540   0.835
 2790TIP3    H129929   5.625   2.470   0.804
 2790TIP3    H229930   5.626   2.596   0.887
 2791TIP3   OH229931   1.064   5.859   8.064
 2791TIP3    H129932   1.153   5.839   8.035
 2791TIP3    H229933   1.075   5.910   8.144
 2792TIP3   OH229934   6.758   0.884   8.713
 2792TIP3    H129935   6.757   0.979   8.705
 2792TIP3    H229936   6.676   0.863   0.045
 2793TIP3   OH229937   5.131   6.579   8.456
 2793TIP3    H129938   5.198   6.619   8.512
 2793TIP3    H229939   5.153   6.609   8.367
 2794TIP3   OH229940   3.455   6.060   7.230
 2794TIP3    H129941   3.475   6.015   7.312
 2794TIP3    H229942   3.364   6.036   7.211
 2795TIP3   OH229943   6.186   3.342   7.447
 2795TIP3    H129944   6.187   3.300   7.361
 2795TIP3    H229945   6.101   3.385   7.452
 2796TIP3   OH229946   1.542   4.862   6.863
 2796TIP3    H129947   1.630   4.833   6.884
 2796TIP3    H229948   1.486   4.787   6.882
 2797TIP3   OH229949   6.010   2.918   0.405
 2797TIP3    H129950   6.090   2.917   0.352
 2797TIP3    H229951   5.940   2.895   0.343
 2798TIP3   OH229952   4.852   3.795   7.517
 2798TIP3    H129953   4.862   3.879   7.471
 2798TIP3    H229954   4.778   3.753   7.473
 2799TIP3   OH229955   6.771   3.936   7.733
 2799TIP3    H129956   6.732   3.855   7.702
 2799TIP3    H229957   0.023   3.922   7.727
 2800TIP3   OH229958   4.513   2.680   1.593
 2800TIP3    H129959   4.441   2.702   1.533
 2800TIP3    H229960   4.470   2.664   1.677
 2801TIP3   OH229961   2.105   0.800   7.215
 2801TIP3    H129962   2.137   0.713   7.190
 2801TIP3    H229963   2.155   0.860   7.159
 2802TIP3   OH229964   4.372   6.270   0.371
 2802TIP3    H129965   4.351   6.276   0.465
 2802TIP3    H229966   4.387   6.361   0.344
 2803TIP3   OH229967   4.973   1.501   7.562
 2803TIP3    H129968   5.041   1.567   7.550
 2803TIP3    H229969   4.895   1.550   7.586
 2804TIP3   OH229970   6.090   2.565   2.372
 2804TIP3    H129971   6.006   2.518   2.368
 2804TIP3    H229972   6.156   2.496   2.372
 2805TIP3   OH229973   2.852   3.506   7.604
 2805TIP3    H129974   2.774   3.450   7.607
 2805TIP3    H229975   2.915   3.463   7.662
 2806TIP3   OH229976   4.134   3.600   7.178
 2806TIP3    H129977   4.183   3.531   7.135
 2806TIP3    H229978   4.164   3.599   7.268
 2807TIP3   OH229979   5.756   1.314   1.498
 2807TIP3    H129980   5.693   1.366   1.448
 2807TIP3    H229981   5.707   1.237   1.526
 2808TIP3   OH229982   3.569   1.385   2.139
 2808TIP3    H129983   3.609   1.471   2.151
 2808TIP3    H229984   3.580   1.342   2.224
 2809TIP3   OH229985   3.078   5.197   1.136
 2809TIP3    H129986   3.103   5.166   1.223
 2809TIP3    H229987   2.992   5.239   1.150
 2810TIP3   OH229988   3.316   4.247   0.896
 2810TIP3    H129989   3.270   4.273   0.976
 2810TIP3    H229990   3.318   4.152   0.899
 2811TIP3   OH229991   1.679   1.842   7.240
 2811TIP3    H129992   1.696   1.811   7.329
 2811TIP3    H229993   1.618   1.778   7.203
 2812TIP3   OH229994   0.117   2.905   2.112
 2812TIP3    H129995   0.087   2.979   2.060
 2812TIP3    H229996   0.095   2.828   2.058
 2813TIP3   OH229997   0.412   6.407   2.231
 2813TIP3    H129998   0.342   6.457   2.188
 2813TIP3    H229999   0.386   6.316   2.220
 2814TIP3   OH230000   4.775   0.931   1.951
 2814TIP3    H130001   4.729   1.012   1.932
 2814TIP3    H230002   4.862   0.958   1.980
 2815TIP3   OH230003   5.867   2.254   8.472
 2815TIP3    H130004   5.931   2.227   8.538
 2815TIP3    H230005   5.857   2.348   8.485
 2816TIP3   OH230006   3.614   4.653   8.309
 2816TIP3    H130007   3.672   4.686   8.241
 2816TIP3    H230008   3.672   4.607   8.370
 2817TIP3   OH230009   2.229   3.441   1.886
 2817TIP3    H130010   2.183   3.442   1.970
 2817TIP3    H230011   2.314   3.400   1.905
 2818TIP3   OH230012   3.540   3.910   0.266
 2818TIP3    H130013   3.512   3.996   0.296
 2818TIP3    H230014   3.466   3.877   0.214
 2819TIP3   OH230015   3.418   5.067   6.256
 2819TIP3    H130016   3.372   4.987   6.231
 2819TIP3    H230017   3.510   5.042   6.260
 2820TIP3   OH230018   1.516   0.219   7.738
 2820TIP3    H130019   1.448   0.222   7.671
 2820TIP3    H230020   1.468   0.202   7.819
 2821TIP3   OH230021   1.843   2.122   7.136
 2821TIP3    H130022   1.774   2.059   7.159
 2821TIP3    H230023   1.921   2.090   7.180
 2822TIP3   OH230024   5.139   4.996   8.566
 2822TIP3    H130025   5.086   5.033   8.637
 2822TIP3    H230026   5.212   4.952   8.610
 2823TIP3   OH230027   2.543   2.620   8.547
 2823TIP3    H130028   2.575   2.583   8.465
 2823TIP3    H230029   2.577   2.562   8.615
 2824TIP3   OH230030   1.732   1.943   2.253
 2824TIP3    H130031   1.787   1.965   2.328
 2824TIP3    H230032   1.712   2.028   2.213
 2825TIP3   OH230033   3.503   0.200   8.293
 2825TIP3    H130034   3.560   0.131   8.260
 2825TIP3    H230035   3.459   0.161   8.368
 2826TIP3   OH230036   1.628   0.741   0.890
 2826TIP3    H130037   1.587   0.655   0.876
 2826TIP3    H230038   1.642   0.775   0.802
 2827TIP3   OH230039   2.038   1.479   1.216
 2827TIP3    H130040   1.961   1.447   1.263
 2827TIP3    H230041   2.110   1.428   1.252
 2828TIP3   OH230042   1.394   2.527   8.347
 2828TIP3    H130043   1.467   2.588   8.355
 2828TIP3    H230044   1.414   2.475   8.269
 2829TIP3   OH230045   2.105   4.668   0.051
 2829TIP3    H130046   2.180   4.704   0.004
 2829TIP3    H230047   2.029   4.695   8.712
 2830TIP3   OH230048   6.308   5.103   0.891
 2830TIP3    H130049   6.360   5.022   0.895
 2830TIP3    H230050   6.218   5.073   0.901
 2831TIP3   OH230051   3.022   4.534   2.077
 2831TIP3    H130052   3.032   4.627   2.059
 2831TIP3    H230053   2.928   4.522   2.092
 2832TIP3   OH230054   3.172   5.836   1.352
 2832TIP3    H130055   3.135   5.922   1.373
 2832TIP3    H230056   3.266   5.847   1.367
 2833TIP3   OH230057   5.406   2.388   8.354
 2833TIP3    H130058   5.455   2.356   8.430
 2833TIP3    H230059   5.316   2.398   8.386
 2834TIP3   OH230060   2.445   1.653   7.485
 2834TIP3    H130061   2.412   1.722   7.542
 2834TIP3    H230062   2.370   1.596   7.470
 2835TIP3   OH230063   2.437   1.856   1.339
 2835TIP3    H130064   2.498   1.896   1.401
 2835TIP3    H230065   2.481   1.776   1.311
 2836TIP3   OH230066   4.539   6.798   7.690
 2836TIP3    H130067   4.552   6.711   7.652
 2836TIP3    H230068   4.572   6.790   7.780
 2837TIP3   OH230069   1.880   1.691   1.972
 2837TIP3    H130070   1.887   1.787   1.971
 2837TIP3    H230071   1.829   1.672   2.051
 2838TIP3   OH230072   4.852   2.033   0.105
 2838TIP3    H130073   4.918   2.010   0.039
 2838TIP3    H230074   4.835   1.952   0.152
 2839TIP3   OH230075   3.280   6.424   1.712
 2839TIP3    H130076   3.363   6.470   1.726
 2839TIP3    H230077   3.231   6.438   1.792
 2840TIP3   OH230078   6.109   6.360   7.537
 2840TIP3    H130079   6.187   6.396   7.495
 2840TIP3    H230080   6.143   6.295   7.599
 2841TIP3   OH230081   2.659   6.676   0.400
 2841TIP3    H130082   2.615   6.694   0.483
 2841TIP3    H230083   2.603   6.610   0.358
 2842TIP3   OH230084   6.279   5.373   1.363
 2842TIP3    H130085   6.184   5.375   1.350
 2842TIP3    H230086   6.311   5.309   1.301
 2843TIP3   OH230087   0.874   1.201   7.404
 2843TIP3    H130088   0.906   1.292   7.409
 2843TIP3    H230089   0.855   1.179   7.495
 2844TIP3   OH230090   3.728   3.289   1.417
 2844TIP3    H130091   3.804   3.322   1.369
 2844TIP3    H230092   3.760   3.210   1.461
 2845TIP3   OH230093   1.600   4.355   8.418
 2845TIP3    H130094   1.537   4.295   8.459
 2845TIP3    H230095   1.635   4.406   8.491
 2846TIP3   OH230096   4.679   5.658   0.210
 2846TIP3    H130097   4.621   5.582   0.214
 2846TIP3    H230098   4.729   5.654   0.291
 2847TIP3   OH230099   3.484   5.984   1.606
 2847TIP3    H130100   3.398   6.017   1.630
 2847TIP3    H230101   3.543   6.059   1.621
 2848TIP3   OH230102   6.803   1.348   8.575
 2848TIP3    H130103   6.739   1.284   8.607
 2848TIP3    H230104   6.799   1.420   8.639
 2849TIP3   OH230105   1.698   1.147   6.645
 2849TIP3    H130106   1.606   1.172   6.637
 2849TIP3    H230107   1.746   1.229   6.636
 2850TIP3   OH230108   5.530   5.650   8.494
 2850TIP3    H130109   5.455   5.683   8.544
 2850TIP3    H230110   5.495   5.635   8.406
 2851TIP3   OH230111   3.837   6.076   6.841
 2851TIP3    H130112   3.810   6.047   6.754
 2851TIP3    H230113   3.757   6.106   6.883
 2852TIP3   OH230114   5.638   6.601   1.655
 2852TIP3    H130115   5.617   6.693   1.673
 2852TIP3    H230116   5.609   6.554   1.734
 2853TIP3   OH230117   1.063   5.264   0.726
 2853TIP3    H130118   1.126   5.289   0.658
 2853TIP3    H230119   1.013   5.192   0.688
 2854TIP3   OH230120   2.076   0.138   0.891
 2854TIP3    H130121   2.119   0.065   0.847
 2854TIP3    H230122   1.998   0.156   0.838
 2855TIP3   OH230123   4.808   0.327   7.269
 2855TIP3    H130124   4.720   0.315   7.234
 2855TIP3    H230125   4.803   0.405   7.324
 2856TIP3   OH230126   0.560   3.252   1.953
 2856TIP3    H130127   0.556   3.156   1.952
 2856TIP3    H230128   0.479   3.279   1.995
 2857TIP3   OH230129   3.586   1.649   6.820
 2857TIP3    H130130   3.680   1.631   6.828
 2857TIP3    H230131   3.573   1.732   6.866
 2858TIP3   OH230132   5.857   5.561   2.394
 2858TIP3    H130133   5.767   5.528   2.387
 2858TIP3    H230134   5.909   5.496   2.347
 2859TIP3   OH230135   0.403   1.759   0.371
 2859TIP3    H130136   0.472   1.826   0.367
 2859TIP3    H230137   0.443   1.686   0.418
 2860TIP3   OH230138   6.136   6.525   7.830
 2860TIP3    H130139   6.222   6.493   7.857
 2860TIP3    H230140   6.100   6.567   7.908
 2861TIP3   OH230141   1.297   5.299   8.039
 2861TIP3    H130142   1.264   5.334   8.122
 2861TIP3    H230143   1.389   5.325   8.037
 2862TIP3   OH230144   0.397   2.674   6.518
 2862TIP3    H130145   0.396   2.747   6.456
 2862TIP3    H230146   0.307   2.644   6.522
 2863TIP3   OH230147   6.001   4.914   7.359
 2863TIP3    H130148   6.071   4.976   7.377
 2863TIP3    H230149   6.029   4.832   7.401
 2864TIP3   OH230150   0.544   0.749   0.168
 2864TIP3    H130151   0.543   0.654   0.176
 2864TIP3    H230152   0.517   0.766   0.078
 2865TIP3   OH230153   1.560   6.769   1.365
 2865TIP3    H130154   1.637   6.816   1.398
 2865TIP3    H230155   1.499   6.837   1.339
 2866TIP3   OH230156   3.199   6.006   8.505
 2866TIP3    H130157   3.146   5.928   8.487
 2866TIP3    H230158   3.267   5.976   8.565
 2867TIP3   OH230159   0.345   1.979   0.709
 2867TIP3    H130160   0.320   2.015   0.794
 2867TIP3    H230161   0.437   2.004   0.698
 2868TIP3   OH230162   0.479   1.297   8.443
 2868TIP3    H130163   0.420   1.295   8.518
 2868TIP3    H230164   0.422   1.305   8.367
 2869TIP3   OH230165   2.431   6.338   8.230
 2869TIP3    H130166   2.468   6.325   8.142
 2869TIP3    H230167   2.437   6.252   8.271
 2870TIP3   OH230168   2.963   5.664   1.240
 2870TIP3    H130169   3.021   5.657   1.315
 2870TIP3    H230170   3.020   5.647   1.164
 2871TIP3   OH230171   0.982   5.736   7.708
 2871TIP3    H130172   1.072   5.709   7.690
 2871TIP3    H230173   0.981   5.830   7.690
 2872TIP3   OH230174   1.748   0.896   1.066
 2872TIP3    H130175   1.786   0.970   1.020
 2872TIP3    H230176   1.691   0.854   1.001
 2873TIP3   OH230177   3.415   3.329   2.225
 2873TIP3    H130178   3.332   3.313   2.269
 2873TIP3    H230179   3.462   3.246   2.232
 2874TIP3   OH230180   0.844   1.592   0.079
 2874TIP3    H130181   0.789   1.539   0.021
 2874TIP3    H230182   0.800   1.588   0.164
 2875TIP3   OH230183   2.030   2.551   0.431
 2875TIP3    H130184   2.024   2.646   0.438
 2875TIP3    H230185   1.941   2.520   0.447
 2876TIP3   OH230186   1.696   0.895   0.649
 2876TIP3    H130187   1.629   0.864   0.588
 2876TIP3    H230188   1.778   0.887   0.600
 2877TIP3   OH230189   2.519   1.970   8.197
 2877TIP3    H130190   2.528   1.881   8.161
 2877TIP3    H230191   2.563   1.965   8.282
 2878TIP3   OH230192   6.178   0.409   7.744
 2878TIP3    H130193   6.118   0.338   7.768
 2878TIP3    H230194   6.121   0.478   7.710
 2879TIP3   OH230195   4.476   2.201   8.291
 2879TIP3    H130196   4.529   2.144   8.347
 2879TIP3    H230197   4.499   2.177   8.202
 2880TIP3   OH230198   3.415   0.456   1.366
 2880TIP3    H130199   3.383   0.370   1.391
 2880TIP3    H230200   3.508   0.455   1.389
 2881TIP3   OH230201   3.536   2.288   0.812
 2881TIP3    H130202   3.561   2.196   0.820
 2881TIP3    H230203   3.494   2.295   0.726
 2882TIP3   OH230204   5.632   0.738   8.405
 2882TIP3    H130205   5.692   0.728   8.479
 2882TIP3    H230206   5.586   0.654   8.400
 2883TIP3   OH230207   2.671   4.333   0.810
 2883TIP3    H130208   2.757   4.335   0.854
 2883TIP3    H230209   2.611   4.297   0.876
 2884TIP3   OH230210   1.222   6.564   1.280
 2884TIP3    H130211   1.305   6.515   1.281
 2884TIP3    H230212   1.212   6.595   1.370
 2885TIP3   OH230213   6.632   4.271   0.071
 2885TIP3    H130214   6.550   4.222   0.083
 2885TIP3    H230215   6.695   4.226   0.127
 2886TIP3   OH230216   6.754   3.047   0.258
 2886TIP3    H130217   6.828   2.987   0.271
 2886TIP3    H230218   6.750   3.061   0.164
 2887TIP3   OH230219   4.000   1.720   1.222
 2887TIP3    H130220   4.070   1.778   1.253
 2887TIP3    H230221   4.023   1.702   1.131
 2888TIP3   OH230222   1.760   5.739   6.902
 2888TIP3    H130223   1.677   5.706   6.867
 2888TIP3    H230224   1.810   5.766   6.825
 2889TIP3   OH230225   1.757   2.198   2.145
 2889TIP3    H130226   1.822   2.266   2.163
 2889TIP3    H230227   1.687   2.244   2.099
 2890TIP3   OH230228   2.988   0.199   6.210
 2890TIP3    H130229   2.999   0.272   6.271
 2890TIP3    H230230   2.895   0.202   6.186
 2891TIP3   OH230231   1.733   5.163   7.954
 2891TIP3    H130232   1.818   5.184   7.915
 2891TIP3    H230233   1.672   5.223   7.911
 2892TIP3   OH230234   5.422   4.509   1.688
 2892TIP3    H130235   5.375   4.537   1.766
 2892TIP3    H230236   5.357   4.511   1.618
 2893TIP3   OH230237   6.559   3.138   1.824
 2893TIP3    H130238   6.480   3.185   1.848
 2893TIP3    H230239   6.533   3.045   1.825
 2894TIP3   OH230240   3.456   1.415   1.638
 2894TIP3    H130241   3.426   1.327   1.663
 2894TIP3    H230242   3.380   1.471   1.653
 2895TIP3   OH230243   5.964   5.138   8.307
 2895TIP3    H130244   5.871   5.117   8.320
 2895TIP3    H230245   5.989   5.088   8.229
 2896TIP3   OH230246   2.722   0.420   8.286
 2896TIP3    H130247   2.804   0.465   8.303
 2896TIP3    H230248   2.746   0.344   8.233
 2897TIP3   OH230249   0.019   2.736   0.522
 2897TIP3    H130250   0.101   2.710   0.564
 2897TIP3    H230251   6.815   2.785   0.590
 2898TIP3   OH230252   3.863   5.725   0.209
 2898TIP3    H130253   3.867   5.788   0.281
 2898TIP3    H230254   3.878   5.640   0.251
 2899TIP3   OH230255   5.739   0.701   0.637
 2899TIP3    H130256   5.689   0.655   0.569
 2899TIP3    H230257   5.727   0.648   0.715
 2900TIP3   OH230258   6.128   5.637   6.775
 2900TIP3    H130259   6.083   5.690   6.708
 2900TIP3    H230260   6.085   5.661   6.857
 2901TIP3   OH230261   1.897   2.037   0.340
 2901TIP3    H130262   1.932   2.000   0.421
 2901TIP3    H230263   1.869   2.125   0.365
 2902TIP3   OH230264   2.895   2.821   0.654
 2902TIP3    H130265   2.942   2.902   0.632
 2902TIP3    H230266   2.959   2.752   0.638
 2903TIP3   OH230267   5.134   6.246   0.354
 2903TIP3    H130268   5.165   6.266   0.443
 2903TIP3    H230269   5.212   6.217   0.307
 2904TIP3   OH230270   1.912   0.087   7.907
 2904TIP3    H130271   1.896   0.181   7.918
 2904TIP3    H230272   2.001   0.082   7.872
 2905TIP3   OH230273   1.047   5.672   1.791
 2905TIP3    H130274   0.981   5.666   1.860
 2905TIP3    H230275   1.122   5.713   1.834
 2906TIP3   OH230276   2.645   2.445   1.735
 2906TIP3    H130277   2.621   2.423   1.645
 2906TIP3    H230278   2.701   2.372   1.763
 2907TIP3   OH230279   3.891   4.032   1.996
 2907TIP3    H130280   3.906   4.041   1.902
 2907TIP3    H230281   3.833   3.957   2.005
 2908TIP3   OH230282   3.216   0.492   6.689
 2908TIP3    H130283   3.284   0.552   6.719
 2908TIP3    H230284   3.264   0.419   6.649
 2909TIP3   OH230285   1.492   3.906   0.091
 2909TIP3    H130286   1.581   3.902   0.125
 2909TIP3    H230287   1.446   3.833   0.132
 2910TIP3   OH230288   6.770   0.716   8.159
 2910TIP3    H130289   6.829   0.640   8.156
 2910TIP3    H230290   6.775   0.754   8.071
 2911TIP3   OH230291   3.510   0.576   7.578
 2911TIP3    H130292   3.599   0.610   7.562
 2911TIP3    H230293   3.478   0.551   7.491
 2912TIP3   OH230294   3.647   4.086   6.095
 2912TIP3    H130295   3.613   4.168   6.131
 2912TIP3    H230296   3.718   4.061   6.155
 2913TIP3   OH230297   1.794   2.906   1.520
 2913TIP3    H130298   1.811   2.921   1.427
 2913TIP3    H230299   1.839   2.978   1.564
 2914TIP3   OH230300   4.331   6.283   6.426
 2914TIP3    H130301   4.328   6.207   6.368
 2914TIP3    H230302   4.368   6.250   6.508
 2915TIP3   OH230303   2.139   2.884   0.692
 2915TIP3    H130304   2.224   2.843   0.708
 2915TIP3    H230305   2.141   2.964   0.745
 2916TIP3   OH230306   6.114   2.100   7.100
 2916TIP3    H130307   6.118   2.170   7.164
 2916TIP3    H230308   6.141   2.021   7.148
 2917TIP3   OH230309   5.407   1.774   1.408
 2917TIP3    H130310   5.500   1.756   1.419
 2917TIP3    H230311   5.399   1.869   1.420
 2918TIP3   OH230312   1.161   6.541   0.764
 2918TIP3    H130313   1.092   6.563   0.826
 2918TIP3    H230314   1.207   6.623   0.747
 2919TIP3   OH230315   3.048   5.331   7.188
 2919TIP3    H130316   3.100   5.407   7.216
 2919TIP3    H230317   2.988   5.316   7.261
 2920TIP3   OH230318   2.058   4.819   7.951
 2920TIP3    H130319   2.015   4.864   8.023
 2920TIP3    H230320   2.050   4.726   7.971
 2921TIP3   OH230321   4.224   3.110   8.374
 2921TIP3    H130322   4.292   3.097   8.440
 2921TIP3    H230323   4.146   3.071   8.412
 2922TIP3   OH230324   3.895   3.805   2.341
 2922TIP3    H130325   3.960   3.743   2.307
 2922TIP3    H230326   3.849   3.837   2.263
 2923TIP3   OH230327   0.786   1.232   6.532
 2923TIP3    H130328   0.696   1.256   6.553
 2923TIP3    H230329   0.840   1.290   6.585
 2924TIP3   OH230330   3.825   0.281   8.551
 2924TIP3    H130331   3.828   0.186   8.543
 2924TIP3    H230332   3.776   0.310   8.473
 2925TIP3   OH230333   4.057   4.176   1.537
 2925TIP3    H130334   3.980   4.192   1.482
 2925TIP3    H230335   4.031   4.103   1.594
 2926TIP3   OH230336   6.777   6.825   0.413
 2926TIP3    H130337   6.706   0.046   0.427
 2926TIP3    H230338   0.014   0.030   0.434
 2927TIP3   OH230339   3.407   4.876   7.781
 2927TIP3    H130340   3.384   4.785   7.763
 2927TIP3    H230341   3.335   4.927   7.744
 2928TIP3   OH230342   4.976   1.899   6.990
 2928TIP3    H130343   4.935   1.930   6.909
 2928TIP3    H230344   4.907   1.849   7.033
 2929TIP3   OH230345   6.503   0.010   1.426
 2929TIP3    H130346   6.409   0.003   1.444
 2929TIP3    H230347   6.511   6.834   1.333
 2930TIP3   OH230348   3.038   4.052   6.992
 2930TIP3    H130349   2.975   3.981   6.979
 2930TIP3    H230350   3.019   4.113   6.921
 2931TIP3   OH230351   5.058   1.718   1.691
 2931TIP3    H130352   5.059   1.794   1.749
 2931TIP3    H230353   5.057   1.756   1.603
 2932TIP3   OH230354   3.176   0.597   0.053
 2932TIP3    H130355   3.112   0.568   8.701
 2932TIP3    H230356   3.128   0.594   0.136
 2933TIP3   OH230357   6.104   3.143   1.044
 2933TIP3    H130358   6.094   3.107   0.956
 2933TIP3    H230359   6.095   3.237   1.033
 2934TIP3   OH230360   4.772   2.724   2.198
 2934TIP3    H130361   4.838   2.778   2.155
 2934TIP3    H230362   4.769   2.643   2.147
 2935TIP3   OH230363   4.297   0.373   6.670
 2935TIP3    H130364   4.268   0.285   6.645
 2935TIP3    H230365   4.392   0.364   6.682
 2936TIP3   OH230366   2.001   2.342   7.278
 2936TIP3    H130367   1.974   2.334   7.187
 2936TIP3    H230368   1.927   2.386   7.321
 2937TIP3   OH230369   4.205   5.259   0.135
 2937TIP3    H130370   4.145   5.191   0.105
 2937TIP3    H230371   4.272   5.211   0.184
 2938TIP3   OH230372   6.276   4.205   1.242
 2938TIP3    H130373   6.356   4.187   1.193
 2938TIP3    H230374   6.305   4.255   1.318
 2939TIP3   OH230375   2.443   0.639   7.810
 2939TIP3    H130376   2.385   0.607   7.879
 2939TIP3    H230377   2.477   0.560   7.768
 2940TIP3   OH230378   2.122   1.763   1.311
 2940TIP3    H130379   2.042   1.805   1.344
 2940TIP3    H230380   2.100   1.670   1.306
 2941TIP3   OH230381   0.483   5.529   0.534
 2941TIP3    H130382   0.472   5.622   0.516
 2941TIP3    H230383   0.578   5.514   0.530
 2942TIP3   OH230384   6.687   3.682   8.619
 2942TIP3    H130385   6.666   3.588   8.614
 2942TIP3    H230386   6.717   3.705   8.532
 2943TIP3   OH230387   0.689   0.487   7.953
 2943TIP3    H130388   0.731   0.541   7.886
 2943TIP3    H230389   0.632   0.547   8.000
 2944TIP3   OH230390   3.870   6.040   1.464
 2944TIP3    H130391   3.790   6.077   1.426
 2944TIP3    H230392   3.842   6.002   1.547
 2945TIP3   OH230393   3.579   1.097   6.687
 2945TIP3    H130394   3.616   1.177   6.725
 2945TIP3    H230395   3.616   1.092   6.599
 2946TIP3   OH230396   6.832   3.266   7.725
 2946TIP3    H130397   0.043   3.343   7.706
 2946TIP3    H230398   6.752   3.301   7.763
 2947TIP3   OH230399   1.730   1.238   7.561
 2947TIP3    H130400   1.704   1.212   7.649
 2947TIP3    H230401   1.654   1.216   7.506
 2948TIP3   OH230402   3.213   3.761   0.396
 2948TIP3    H130403   3.197   3.766   0.490
 2948TIP3    H230404   3.240   3.671   0.380
 2949TIP3   OH230405   0.541   5.897   8.550
 2949TIP3    H130406   0.571   5.987   8.567
 2949TIP3    H230407   0.559   5.850   8.631
 2950TIP3   OH230408   3.097   3.260   7.484
 2950TIP3    H130409   3.010   3.251   7.446
 2950TIP3    H230410   3.084   3.309   7.565
 2951TIP3   OH230411   5.132   3.094   7.269
 2951TIP3    H130412   5.191   3.024   7.297
 2951TIP3    H230413   5.052   3.081   7.321
 2952TIP3   OH230414   0.369   6.006   8.330
 2952TIP3    H130415   0.429   5.969   8.396
 2952TIP3    H230416   0.311   6.063   8.381
 2953TIP3   OH230417   1.556   2.871   0.724
 2953TIP3    H130418   1.487   2.867   0.658
 2953TIP3    H230419   1.634   2.900   0.676
 2954TIP3   OH230420   4.085   3.810   7.040
 2954TIP3    H130421   4.043   3.785   6.958
 2954TIP3    H230422   4.094   3.728   7.088
 2955TIP3   OH230423   4.127   2.838   7.452
 2955TIP3    H130424   4.140   2.747   7.426
 2955TIP3    H230425   4.096   2.834   7.542
 2956TIP3   OH230426   3.865   2.296   0.224
 2956TIP3    H130427   3.853   2.322   0.315
 2956TIP3    H230428   3.864   2.378   0.175
 2957TIP3   OH230429   6.250   0.958   8.396
 2957TIP3    H130430   6.340   0.960   8.364
 2957TIP3    H230431   6.231   1.049   8.418
 2958TIP3   OH230432   3.315   2.264   7.635
 2958TIP3    H130433   3.271   2.184   7.607
 2958TIP3    H230434   3.404   2.256   7.601
 2959TIP3   OH230435   4.008   0.549   1.449
 2959TIP3    H130436   3.955   0.511   1.379
 2959TIP3    H230437   4.094   0.562   1.409
 2960TIP3   OH230438   1.234   3.780   6.286
 2960TIP3    H130439   1.199   3.852   6.234
 2960TIP3    H230440   1.182   3.780   6.366
 2961TIP3   OH230441   5.323   3.922   1.676
 2961TIP3    H130442   5.235   3.890   1.698
 2961TIP3    H230443   5.382   3.870   1.729
 2962TIP3   OH230444   4.480   4.001   8.188
 2962TIP3    H130445   4.507   4.085   8.225
 2962TIP3    H230446   4.427   3.960   8.256
 2963TIP3   OH230447   3.853   2.859   0.866
 2963TIP3    H130448   3.905   2.842   0.944
 2963TIP3    H230449   3.783   2.793   0.869
 2964TIP3   OH230450   1.711   0.805   8.201
 2964TIP3    H130451   1.721   0.804   8.297
 2964TIP3    H230452   1.677   0.718   8.180
 2965TIP3   OH230453   3.447   5.028   1.147
 2965TIP3    H130454   3.377   5.041   1.210
 2965TIP3    H230455   3.514   4.979   1.195
 2966TIP3   OH230456   5.074   3.820   1.765
 2966TIP3    H130457   5.076   3.781   1.677
 2966TIP3    H230458   5.048   3.749   1.823
 2967TIP3   OH230459   2.478   5.370   2.226
 2967TIP3    H130460   2.426   5.310   2.279
 2967TIP3    H230461   2.461   5.456   2.264
 2968TIP3   OH230462   0.085   3.951   0.098
 2968TIP3    H130463   0.080   3.866   0.141
 2968TIP3    H230464   0.010   4.000   0.133
 2969TIP3   OH230465   4.405   2.119   0.142
 2969TIP3    H130466   4.348   2.138   0.068
 2969TIP3    H230467   4.354   2.060   0.197
 2970TIP3   OH230468   1.378   0.961   0.794
 2970TIP3    H130469   1.392   1.037   0.736
 2970TIP3    H230470   1.383   0.886   0.736
 2971TIP3   OH230471   2.093   5.938   1.742
 2971TIP3    H130472   2.037   5.860   1.749
 2971TIP3    H230473   2.083   5.967   1.652
 2972TIP3   OH230474   2.177   5.193   6.291
 2972TIP3    H130475   2.114   5.151   6.232
 2972TIP3    H230476   2.124   5.256   6.341
 2973TIP3   OH230477   0.672   3.466   7.053
 2973TIP3    H130478   0.759   3.442   7.086
 2973TIP3    H230479   0.627   3.500   7.130
 2974TIP3   OH230480   6.013   6.743   0.356
 2974TIP3    H130481   5.930   6.774   0.320
 2974TIP3    H230482   5.994   6.654   0.388
 2975TIP3   OH230483   2.749   4.030   0.547
 2975TIP3    H130484   2.824   4.001   0.496
 2975TIP3    H230485   2.700   4.087   0.488
 2976TIP3   OH230486   2.845   4.332   7.868
 2976TIP3    H130487   2.839   4.422   7.901
 2976TIP3    H230488   2.839   4.341   7.773
 2977TIP3   OH230489   1.197   0.665   8.567
 2977TIP3    H130490   1.222   0.619   8.487
 2977TIP3    H230491   1.227   0.755   8.554
 2978TIP3   OH230492   1.943   5.005   7.763
 2978TIP3    H130493   1.979   4.952   7.834
 2978TIP3    H230494   1.966   4.956   7.684
 2979TIP3   OH230495   4.085   5.016   0.848
 2979TIP3    H130496   4.133   4.952   0.900
 2979TIP3    H230497   4.131   5.020   0.764
 2980TIP3   OH230498   4.832   5.615   7.564
 2980TIP3    H130499   4.849   5.703   7.529
 2980TIP3    H230500   4.815   5.561   7.487
 2981TIP3   OH230501   4.335   3.901   8.389
 2981TIP3    H130502   4.265   3.835   8.383
 2981TIP3    H230503   4.337   3.924   8.482
 2982TIP3   OH230504   3.201   5.770   0.839
 2982TIP3    H130505   3.260   5.811   0.902
 2982TIP3    H230506   3.171   5.690   0.882
 2983TIP3   OH230507   3.131   2.167   0.483
 2983TIP3    H130508   3.067   2.208   0.541
 2983TIP3    H230509   3.079   2.129   0.413
 2984TIP3   OH230510   0.810   0.514   6.979
 2984TIP3    H130511   0.727   0.501   6.933
 2984TIP3    H230512   0.837   0.426   7.005
 2985TIP3   OH230513   1.250   2.115   1.555
 2985TIP3    H130514   1.319   2.050   1.569
 2985TIP3    H230515   1.183   2.069   1.504
 2986TIP3   OH230516   1.349   5.440   6.116
 2986TIP3    H130517   1.319   5.520   6.074
 2986TIP3    H230518   1.444   5.442   6.108
 2987TIP3   OH230519   0.795   2.549   0.562
 2987TIP3    H130520   0.749   2.612   0.507
 2987TIP3    H230521   0.774   2.464   0.524
 2988TIP3   OH230522   2.052   6.127   1.947
 2988TIP3    H130523   2.035   6.062   1.879
 2988TIP3    H230524   2.078   6.206   1.899
 2989TIP3   OH230525   4.836   3.387   8.037
 2989TIP3    H130526   4.831   3.481   8.055
 2989TIP3    H230527   4.929   3.370   8.024
 2990TIP3   OH230528   3.537   1.454   8.336
 2990TIP3    H130529   3.498   1.459   8.423
 2990TIP3    H230530   3.622   1.497   8.346
 2991TIP3   OH230531   0.981   5.109   7.942
 2991TIP3    H130532   0.994   5.199   7.970
 2991TIP3    H230533   1.067   5.068   7.954
 2992TIP3   OH230534   2.570   5.269   0.241
 2992TIP3    H130535   2.544   5.359   0.258
 2992TIP3    H230536   2.638   5.275   0.174
 2993TIP3   OH230537   4.458   2.622   7.937
 2993TIP3    H130538   4.432   2.695   7.993
 2993TIP3    H230539   4.467   2.660   7.850
 2994TIP3   OH230540   0.905   3.703   8.036
 2994TIP3    H130541   0.923   3.724   7.945
 2994TIP3    H230542   0.983   3.657   8.066
 2995TIP3   OH230543   0.621   4.590   8.292
 2995TIP3    H130544   0.619   4.683   8.314
 2995TIP3    H230545   0.603   4.546   8.375
 2996TIP3   OH230546   0.578   4.753   7.913
 2996TIP3    H130547   0.618   4.668   7.896
 2996TIP3    H230548   0.507   4.735   7.973
 2997TIP3   OH230549   3.554   4.147   2.146
 2997TIP3    H130550   3.488   4.142   2.215
 2997TIP3    H230551   3.503   4.161   2.066
 2998TIP3   OH230552   0.104   0.895   0.568
 2998TIP3    H130553   0.034   0.855   0.517
 2998TIP3    H230554   0.174   0.912   0.504
 2999TIP3   OH230555   6.676   2.813   1.190
 2999TIP3    H130556   6.758   2.853   1.162
 2999TIP3    H230557   6.612   2.885   1.188
 3000TIP3   OH230558   2.297   3.967   7.164
 3000TIP3    H130559   2.388   3.961   7.193
 3000TIP3    H230560   2.293   4.047   7.111
 3001TIP3   OH230561   2.413   2.963   7.075
 3001TIP3    H130562   2.318   2.979   7.079
 3001TIP3    H230563   2.442   3.012   6.998
 3002TIP3   OH230564   2.124   6.761   1.199
 3002TIP3    H130565   2.079   6.744   1.116
 3002TIP3    H230566   2.208   6.800   1.173
 3003TIP3   OH230567   6.599   4.691   7.440
 3003TIP3    H130568   6.536   4.635   7.486
 3003TIP3    H230569   6.585   4.672   7.348
 3004TIP3   OH230570   4.329   6.555   1.585
 3004TIP3    H130571   4.391   6.587   1.520
 3004TIP3    H230572   4.267   6.502   1.535
 3005TIP3   OH230573   0.074   2.617   8.408
 3005TIP3    H130574   0.141   2.566   8.453
 3005TIP3    H230575   0.105   2.622   8.317
 3006TIP3   OH230576   0.342   2.883   6.368
 3006TIP3    H130577   0.315   2.931   6.290
 3006TIP3    H230578   0.387   2.948   6.422
 3007TIP3   OH230579   2.655   1.695   8.388
 3007TIP3    H130580   2.616   1.639   8.321
 3007TIP3    H230581   2.580   1.728   8.439
 3008TIP3   OH230582   1.935   5.088   6.179
 3008TIP3    H130583   1.859   5.039   6.212
 3008TIP3    H230584   1.913   5.180   6.199
 3009TIP3   OH230585   4.625   2.196   8.041
 3009TIP3    H130586   4.697   2.260   8.036
 3009TIP3    H230587   4.659   2.118   7.997
 3010TIP3   OH230588   0.461   5.082   8.405
 3010TIP3    H130589   0.400   5.138   8.356
 3010TIP3    H230590   0.417   5.066   8.489
 3011TIP3   OH230591   5.603   5.956   8.410
 3011TIP3    H130592   5.566   5.937   8.496
 3011TIP3    H230593   5.534   5.932   8.349
 3012TIP3   OH230594   5.849   4.360   0.694
 3012TIP3    H130595   5.920   4.394   0.638
 3012TIP3    H230596   5.888   4.356   0.782
 3013TIP3   OH230597   6.091   1.551   6.531
 3013TIP3    H130598   6.172   1.595   6.505
 3013TIP3    H230599   6.030   1.569   6.460
 3014TIP3   OH230600   6.379   1.326   8.247
 3014TIP3    H130601   6.312   1.351   8.183
 3014TIP3    H230602   6.445   1.394   8.240
 3015TIP3   OH230603   2.066   0.826   0.797
 3015TIP3    H130604   2.137   0.768   0.823
 3015TIP3    H230605   1.989   0.769   0.790
 3016TIP3   OH230606   3.644   2.533   7.837
 3016TIP3    H130607   3.702   2.466   7.872
 3016TIP3    H230608   3.587   2.557   7.910
 3017TIP3   OH230609   5.908   5.941   7.519
 3017TIP3    H130610   5.815   5.939   7.499
 3017TIP3    H230611   5.938   6.025   7.484
 3018TIP3   OH230612   2.290   4.360   8.600
 3018TIP3    H130613   2.263   4.424   8.535
 3018TIP3    H230614   2.313   4.282   8.549
 3019TIP3   OH230615   6.793   4.376   7.636
 3019TIP3    H130616   0.012   4.449   7.647
 3019TIP3    H230617   6.819   4.313   7.703
 3020TIP3   OH230618   1.174   1.285   0.077
 3020TIP3    H130619   1.253   1.279   0.131
 3020TIP3    H230620   1.131   1.200   0.087
 3021TIP3   OH230621   6.103   3.375   6.937
 3021TIP3    H130622   6.179   3.399   6.883
 3021TIP3    H230623   6.041   3.337   6.875
 3022TIP3   OH230624   6.794   0.270   7.810
 3022TIP3    H130625   6.728   0.204   7.831
 3022TIP3    H230626   0.015   0.223   7.755
 3023TIP3   OH230627   4.746   5.532   1.543
 3023TIP3    H130628   4.682   5.572   1.603
 3023TIP3    H230629   4.795   5.607   1.507
 3024TIP3   OH230630   4.271   6.801   1.700
 3024TIP3    H130631   4.232   6.803   1.787
 3024TIP3    H230632   4.285   6.708   1.682
 3025TIP3   OH230633   1.358   4.431   7.130
 3025TIP3    H130634   1.277   4.482   7.124
 3025TIP3    H230635   1.339   4.363   7.194
 3026TIP3   OH230636   4.689   5.957   1.278
 3026TIP3    H130637   4.779   5.936   1.257
 3026TIP3    H230638   4.675   5.919   1.364
 3027TIP3   OH230639   5.206   3.741   7.847
 3027TIP3    H130640   5.134   3.772   7.902
 3027TIP3    H230641   5.163   3.708   7.768
 3028TIP3   OH230642   4.258   1.859   1.257
 3028TIP3    H130643   4.274   1.948   1.225
 3028TIP3    H230644   4.336   1.810   1.229
 3029TIP3   OH230645   6.081   2.845   2.445
 3029TIP3    H130646   6.100   2.751   2.439
 3029TIP3    H230647   5.987   2.849   2.462
 3030TIP3   OH230648   0.234   3.026   7.762
 3030TIP3    H130649   0.307   3.003   7.820
 3030TIP3    H230650   0.201   3.109   7.795
 3031TIP3   OH230651   6.029   5.529   1.247
 3031TIP3    H130652   6.121   5.541   1.225
 3031TIP3    H230653   6.018   5.574   1.331
 3032TIP3   OH230654   0.985   3.468   0.010
 3032TIP3    H130655   1.073   3.480   0.045
 3032TIP3    H230656   0.998   3.451   8.629
 3033TIP3   OH230657   0.350   6.393   0.252
 3033TIP3    H130658   0.258   6.396   0.279
 3033TIP3    H230659   0.397   6.364   0.330
 3034TIP3   OH230660   2.314   5.917   6.571
 3034TIP3    H130661   2.293   5.825   6.555
 3034TIP3    H230662   2.251   5.965   6.517
 3035TIP3   OH230663   2.430   3.064   8.177
 3035TIP3    H130664   2.454   3.156   8.172
 3035TIP3    H230665   2.473   3.023   8.102
 3036TIP3   OH230666   5.019   6.205   1.751
 3036TIP3    H130667   5.049   6.115   1.736
 3036TIP3    H230668   5.007   6.211   1.846
 3037TIP3   OH230669   2.021   1.684   2.383
 3037TIP3    H130670   2.086   1.614   2.382
 3037TIP3    H230671   2.034   1.726   2.468
 3038TIP3   OH230672   2.747   5.901   8.544
 3038TIP3    H130673   2.757   5.993   8.570
 3038TIP3    H230674   2.669   5.900   8.487
 3039TIP3   OH230675   4.024   0.954   0.019
 3039TIP3    H130676   4.103   0.907   0.046
 3039TIP3    H230677   4.036   0.969   8.638
 3040TIP3   OH230678   3.748   1.252   0.341
 3040TIP3    H130679   3.677   1.208   0.388
 3040TIP3    H230680   3.815   1.185   0.330
 3041TIP3   OH230681   5.408   1.625   1.628
 3041TIP3    H130682   5.394   1.664   1.541
 3041TIP3    H230683   5.327   1.578   1.646
 3042TIP3   OH230684   0.011   1.009   8.384
 3042TIP3    H130685   0.101   1.001   8.354
 3042TIP3    H230686   6.808   0.935   8.345
 3043TIP3   OH230687   2.784   4.958   0.208
 3043TIP3    H130688   2.715   4.922   0.263
 3043TIP3    H230689   2.844   5.000   0.269
 3044TIP3   OH230690   4.219   5.619   8.492
 3044TIP3    H130691   4.263   5.545   8.533
 3044TIP3    H230692   4.214   5.686   8.561
 3045TIP3   OH230693   1.891   4.027   7.905
 3045TIP3    H130694   1.820   3.970   7.935
 3045TIP3    H230695   1.862   4.057   7.818
 3046TIP3   OH230696   1.973   2.122   7.492
 3046TIP3    H130697   2.060   2.119   7.453
 3046TIP3    H230698   1.963   2.037   7.535
 3047TIP3   OH230699   4.630   4.528   1.751
 3047TIP3    H130700   4.696   4.595   1.767
 3047TIP3    H230701   4.571   4.567   1.687
 3048TIP3   OH230702   5.948   0.314   0.371
 3048TIP3    H130703   5.881   0.335   0.436
 3048TIP3    H230704   5.908   0.246   0.316
 3049TIP3   OH230705   2.063   6.249   0.096
 3049TIP3    H130706   2.066   6.153   0.099
 3049TIP3    H230707   1.978   6.271   0.136
 3050TIP3   OH230708   2.494   2.022   8.689
 3050TIP3    H130709   2.400   2.011   8.705
 3050TIP3    H230710   2.532   1.937   8.711
 3051TIP3   OH230711   0.418   4.922   8.130
 3051TIP3    H130712   0.473   4.947   8.056
 3051TIP3    H230713   0.480   4.900   8.200
 3052TIP3   OH230714   0.974   0.554   6.407
 3052TIP3    H130715   1.027   0.630   6.382
 3052TIP3    H230716   0.934   0.525   6.325
 3053TIP3   OH230717   3.257   6.172   0.510
 3053TIP3    H130718   3.334   6.129   0.548
 3053TIP3    H230719   3.220   6.105   0.452
 3054TIP3   OH230720   4.367   2.335   1.345
 3054TIP3    H130721   4.319   2.373   1.271
 3054TIP3    H230722   4.368   2.241   1.327
 3055TIP3   OH230723   4.885   0.429   0.568
 3055TIP3    H130724   4.933   0.428   0.485
 3055TIP3    H230725   4.873   0.521   0.588
 3056TIP3   OH230726   5.716   6.747   2.204
 3056TIP3    H130727   5.700   6.658   2.237
 3056TIP3    H230728   5.664   6.753   2.124
 3057TIP3   OH230729   1.320   1.384   1.118
 3057TIP3    H130730   1.415   1.382   1.119
 3057TIP3    H230731   1.296   1.426   1.201
 3058TIP3   OH230732   3.347   0.169   8.547
 3058TIP3    H130733   3.288   0.120   8.490
 3058TIP3    H230734   3.322   0.143   8.636
 3059TIP3   OH230735   0.978   1.903   8.262
 3059TIP3    H130736   0.987   1.994   8.292
 3059TIP3    H230737   1.053   1.858   8.300
 3060TIP3   OH230738   3.999   5.670   6.767
 3060TIP3    H130739   3.952   5.587   6.767
 3060TIP3    H230740   4.086   5.648   6.734
 3061TIP3   OH230741   0.455   3.256   2.788
 3061TIP3    H130742   0.391   3.246   2.718
 3061TIP3    H230743   0.539   3.264   2.743
 3062TIP3   OH230744   4.177   0.571   2.643
 3062TIP3    H130745   4.171   0.664   2.662
 3062TIP3    H230746   4.239   0.537   2.707
 3063TIP3   OH230747   2.280   3.321   1.634
 3063TIP3    H130748   2.304   3.234   1.665
 3063TIP3    H230749   2.219   3.355   1.700
 3064TIP3   OH230750   5.950   6.841   7.269
 3064TIP3    H130751   5.874   6.786   7.254
 3064TIP3    H230752   6.023   6.780   7.280
 3065TIP3   OH230753   3.515   6.794   0.152
 3065TIP3    H130754   3.519   6.786   0.057
 3065TIP3    H230755   3.516   6.704   0.184
 3066TIP3   OH230756   2.399   3.695   1.456
 3066TIP3    H130757   2.367   3.770   1.406
 3066TIP3    H230758   2.325   3.670   1.511
 3067TIP3   OH230759   0.173   5.991   8.558
 3067TIP3    H130760   0.083   5.986   8.592
 3067TIP3    H230761   0.216   5.914   8.594
 3068TIP3   OH230762   0.431   0.944   2.064
 3068TIP3    H130763   0.491   0.938   2.139
 3068TIP3    H230764   0.446   0.864   2.014
 3069TIP3   OH230765   2.098   4.048   8.173
 3069TIP3    H130766   2.088   3.994   8.252
 3069TIP3    H230767   2.038   4.121   8.186
 3070TIP3   OH230768   4.633   1.327   7.014
 3070TIP3    H130769   4.632   1.232   7.010
 3070TIP3    H230770   4.592   1.355   6.932
 3071TIP3   OH230771   0.132   2.254   0.216
 3071TIP3    H130772   0.193   2.211   0.276
 3071TIP3    H230773   0.131   2.346   0.244
 3072TIP3   OH230774   4.826   1.233   0.607
 3072TIP3    H130775   4.813   1.306   0.667
 3072TIP3    H230776   4.806   1.155   0.660
 3073TIP3   OH230777   5.860   4.755   6.301
 3073TIP3    H130778   5.856   4.676   6.246
 3073TIP3    H230779   5.791   4.812   6.265
 3074TIP3   OH230780   6.789   3.864   1.694
 3074TIP3    H130781   0.041   3.857   1.682
 3074TIP3    H230782   6.758   3.913   1.617
 3075TIP3   OH230783   2.209   0.369   1.652
 3075TIP3    H130784   2.179   0.330   1.570
 3075TIP3    H230785   2.257   0.447   1.624
 3076TIP3   OH230786   2.299   0.164   0.058
 3076TIP3    H130787   2.232   0.142   0.123
 3076TIP3    H230788   2.379   0.176   0.110
 3077TIP3   OH230789   1.892   4.949   7.262
 3077TIP3    H130790   1.800   4.939   7.285
 3077TIP3    H230791   1.937   4.958   7.346
 3078TIP3   OH230792   0.231   3.691   7.322
 3078TIP3    H130793   0.280   3.744   7.385
 3078TIP3    H230794   0.140   3.714   7.337
 3079TIP3   OH230795   2.494   5.536   0.243
 3079TIP3    H130796   2.462   5.490   0.166
 3079TIP3    H230797   2.440   5.615   0.248
 3080TIP3   OH230798   2.776   6.074   1.166
 3080TIP3    H130799   2.794   6.060   1.073
 3080TIP3    H230800   2.717   6.003   1.191
 3081TIP3   OH230801   2.941   3.822   8.012
 3081TIP3    H130802   2.988   3.775   7.943
 3081TIP3    H230803   2.946   3.914   7.987
 3082TIP3   OH230804   0.147   3.728   2.013
 3082TIP3    H130805   0.090   3.654   1.991
 3082TIP3    H230806   0.188   3.703   2.096
 3083TIP3   OH230807   5.060   3.439   0.336
 3083TIP3    H130808   5.110   3.407   0.411
 3083TIP3    H230809   5.023   3.522   0.366
 3084TIP3   OH230810   5.606   1.223   7.296
 3084TIP3    H130811   5.665   1.148   7.299
 3084TIP3    H230812   5.519   1.184   7.284
 3085TIP3   OH230813   6.408   0.156   6.970
 3085TIP3    H130814   6.358   0.081   7.001
 3085TIP3    H230815   6.416   0.143   6.876
 3086TIP3   OH230816   3.884   5.478   8.007
 3086TIP3    H130817   3.911   5.454   7.918
 3086TIP3    H230818   3.789   5.488   8.001
 3087TIP3   OH230819   5.878   1.619   7.263
 3087TIP3    H130820   5.814   1.624   7.192
 3087TIP3    H230821   5.944   1.557   7.231
 3088TIP3   OH230822   5.879   0.815   8.009
 3088TIP3    H130823   5.815   0.844   8.074
 3088TIP3    H230824   5.964   0.831   8.050
 3089TIP3   OH230825   3.774   5.408   0.106
 3089TIP3    H130826   3.711   5.407   0.178
 3089TIP3    H230827   3.745   5.480   0.050
 3090TIP3   OH230828   2.813   3.238   7.718
 3090TIP3    H130829   2.872   3.216   7.789
 3090TIP3    H230830   2.801   3.157   7.669
 3091TIP3   OH230831   5.022   0.854   0.266
 3091TIP3    H130832   5.007   0.938   0.223
 3091TIP3    H230833   5.085   0.874   0.336
 3092TIP3   OH230834   3.033   6.704   8.610
 3092TIP3    H130835   3.065   6.706   8.700
 3092TIP3    H230836   2.961   6.641   8.610
 3093TIP3   OH230837   4.399   0.100   0.119
 3093TIP3    H130838   4.464   0.135   0.179
 3093TIP3    H230839   4.315   0.117   0.161
 3094TIP3   OH230840   6.621   3.954   8.445
 3094TIP3    H130841   6.526   3.954   8.440
 3094TIP3    H230842   6.648   3.872   8.404
 3095TIP3   OH230843   2.090   4.874   0.254
 3095TIP3    H130844   2.082   4.926   0.174
 3095TIP3    H230845   2.135   4.794   0.226
 3096TIP3   OH230846   0.213   1.770   2.378
 3096TIP3    H130847   0.120   1.749   2.368
 3096TIP3    H230848   0.228   1.841   2.315
 3097TIP3   OH230849   0.858   4.442   1.327
 3097TIP3    H130850   0.872   4.532   1.298
 3097TIP3    H230851   0.768   4.422   1.304
 3098TIP3   OH230852   5.311   1.730   0.963
 3098TIP3    H130853   5.349   1.685   1.038
 3098TIP3    H230854   5.257   1.800   1.001
 3099TIP3   OH230855   3.151   6.464   0.982
 3099TIP3    H130856   3.210   6.421   0.920
 3099TIP3    H230857   3.066   6.465   0.939
 3100TIP3   OH230858   3.485   3.491   7.287
 3100TIP3    H130859   3.476   3.485   7.382
 3100TIP3    H230860   3.540   3.416   7.263
 3101TIP3   OH230861   6.447   3.411   1.889
 3101TIP3    H130862   6.460   3.496   1.931
 3101TIP3    H230863   6.362   3.382   1.921
 3102TIP3   OH230864   1.783   4.926   8.657
 3102TIP3    H130865   1.810   4.839   8.627
 3102TIP3    H230866   1.821   4.987   8.593
 3103TIP3   OH230867   5.306   1.228   1.810
 3103TIP3    H130868   5.250   1.220   1.733
 3103TIP3    H230869   5.317   1.138   1.840
 3104TIP3   OH230870   4.562   3.466   6.486
 3104TIP3    H130871   4.601   3.553   6.475
 3104TIP3    H230872   4.549   3.434   6.397
 3105TIP3   OH230873   5.792   2.562   0.322
 3105TIP3    H130874   5.819   2.642   0.278
 3105TIP3    H230875   5.800   2.581   0.416
 3106TIP3   OH230876   1.509   0.930   6.930
 3106TIP3    H130877   1.539   0.931   6.840
 3106TIP3    H230878   1.572   0.873   6.976
 3107TIP3   OH230879   1.365   3.169   8.079
 3107TIP3    H130880   1.328   3.117   8.151
 3107TIP3    H230881   1.396   3.249   8.122
 3108TIP3   OH230882   6.443   3.429   7.515
 3108TIP3    H130883   6.392   3.506   7.539
 3108TIP3    H230884   6.380   3.370   7.474
 3109TIP3   OH230885   0.258   3.246   7.921
 3109TIP3    H130886   0.243   3.312   7.854
 3109TIP3    H230887   0.353   3.230   7.917
 3110TIP3   OH230888   2.360   2.783   0.530
 3110TIP3    H130889   2.277   2.775   0.483
 3110TIP3    H230890   2.427   2.772   0.462
 3111TIP3   OH230891   5.854   2.055   8.069
 3111TIP3    H130892   5.933   2.067   8.121
 3111TIP3    H230893   5.820   2.144   8.057
 3112TIP3   OH230894   0.747   5.103   1.573
 3112TIP3    H130895   0.748   5.014   1.538
 3112TIP3    H230896   0.789   5.156   1.505
 3113TIP3   OH230897   3.267   6.571   1.983
 3113TIP3    H130898   3.185   6.620   1.976
 3113TIP3    H230899   3.243   6.489   2.025
 3114TIP3   OH230900   2.759   1.752   1.108
 3114TIP3    H130901   2.711   1.796   1.038
 3114TIP3    H230902   2.846   1.735   1.071
 3115TIP3   OH230903   1.554   3.183   1.435
 3115TIP3    H130904   1.594   3.197   1.521
 3115TIP3    H230905   1.465   3.152   1.455
 3116TIP3   OH230906   2.476   3.843   7.976
 3116TIP3    H130907   2.404   3.818   8.034
 3116TIP3    H230908   2.539   3.887   8.033
 3117TIP3   OH230909   6.538   4.170   7.510
 3117TIP3    H130910   6.539   4.183   7.604
 3117TIP3    H230911   6.569   4.253   7.474
 3118TIP3   OH230912   2.802   2.686   1.119
 3118TIP3    H130913   2.763   2.702   1.032
 3118TIP3    H230914   2.798   2.591   1.130
 3119TIP3   OH230915   5.402   1.693   7.070
 3119TIP3    H130916   5.357   1.623   7.117
 3119TIP3    H230917   5.370   1.774   7.109
 3120TIP3   OH230918   3.677   5.230   7.279
 3120TIP3    H130919   3.684   5.151   7.225
 3120TIP3    H230920   3.767   5.263   7.284
 3121TIP3   OH230921   3.426   4.733   0.506
 3121TIP3    H130922   3.483   4.692   0.571
 3121TIP3    H230923   3.471   4.815   0.484
 3122TIP3   OH230924   2.663   2.935   6.101
 3122TIP3    H130925   2.592   2.999   6.094
 3122TIP3    H230926   2.644   2.888   6.182
 3123TIP3   OH230927   0.109   1.299   0.699
 3123TIP3    H130928   0.074   1.388   0.700
 3123TIP3    H230929   0.166   1.295   0.775
 3124TIP3   OH230930   1.072   5.978   8.308
 3124TIP3    H130931   1.020   5.931   8.373
 3124TIP3    H230932   1.153   6.000   8.354
 3125TIP3   OH230933   5.287   3.887   1.354
 3125TIP3    H130934   5.358   3.858   1.297
 3125TIP3    H230935   5.331   3.918   1.433
 3126TIP3   OH230936   0.140   2.664   7.860
 3126TIP3    H130937   0.231   2.671   7.890
 3126TIP3    H230938   0.087   2.673   7.939
 3127TIP3   OH230939   6.739   0.047   1.563
 3127TIP3    H130940   6.661   0.044   1.507
 3127TIP3    H230941   6.753   6.800   1.591
 3128TIP3   OH230942   5.169   6.404   2.625
 3128TIP3    H130943   5.253   6.409   2.579
 3128TIP3    H230944   5.105   6.438   2.563
 3129TIP3   OH230945   3.839   0.555   7.002
 3129TIP3    H130946   3.828   0.510   6.919
 3129TIP3    H230947   3.798   0.641   6.989
 3130TIP3   OH230948   4.757   6.790   5.520
 3130TIP3    H130949   4.826   0.005   5.551
 3130TIP3    H230950   4.684   6.807   5.579
 3131TIP3   OH230951   5.964   1.691   1.832
 3131TIP3    H130952   5.921   1.776   1.840
 3131TIP3    H230953   5.912   1.644   1.767
 3132TIP3   OH230954   0.569   1.021   0.024
 3132TIP3    H130955   0.574   0.968   0.104
 3132TIP3    H230956   0.660   1.045   0.007
 3133TIP3   OH230957   1.592   1.382   1.157
 3133TIP3    H130958   1.621   1.291   1.163
 3133TIP3    H230959   1.657   1.424   1.101
 3134TIP3   OH230960   6.455   3.986   8.079
 3134TIP3    H130961   6.538   4.034   8.085
 3134TIP3    H230962   6.394   4.048   8.040
 3135TIP3   OH230963   1.446   3.226   7.180
 3135TIP3    H130964   1.410   3.249   7.266
 3135TIP3    H230965   1.534   3.262   7.180
 3136TIP3   OH230966   4.374   1.177   8.463
 3136TIP3    H130967   4.313   1.220   8.403
 3136TIP3    H230968   4.425   1.119   8.406
 3137TIP3   OH230969   0.184   3.164   7.078
 3137TIP3    H130970   0.243   3.233   7.106
 3137TIP3    H230971   0.178   3.105   7.153
 3138TIP3   OH230972   1.629   2.704   8.366
 3138TIP3    H130973   1.717   2.675   8.391
 3138TIP3    H230974   1.644   2.770   8.299
 3139TIP3   OH230975   2.809   1.338   2.033
 3139TIP3    H130976   2.772   1.399   2.096
 3139TIP3    H230977   2.748   1.264   2.033
 3140TIP3   OH230978   4.286   4.625   2.667
 3140TIP3    H130979   4.237   4.543   2.657
 3140TIP3    H230980   4.371   4.598   2.701
 3141TIP3   OH230981   6.337   2.922   1.621
 3141TIP3    H130982   6.254   2.876   1.631
 3141TIP3    H230983   6.380   2.914   1.706
 3142TIP3   OH230984   2.855   1.354   0.186
 3142TIP3    H130985   2.853   1.314   0.099
 3142TIP3    H230986   2.764   1.351   0.216
 3143TIP3   OH230987   4.476   3.383   8.692
 3143TIP3    H130988   4.529   3.369   0.057
 3143TIP3    H230989   4.482   3.301   8.643
 3144TIP3   OH230990   1.337   1.064   7.660
 3144TIP3    H130991   1.275   1.017   7.716
 3144TIP3    H230992   1.387   1.119   7.721
 3145TIP3   OH230993   2.235   4.409   0.920
 3145TIP3    H130994   2.195   4.331   0.957
 3145TIP3    H230995   2.309   4.428   0.978
 3146TIP3   OH230996   2.862   4.895   8.449
 3146TIP3    H130997   2.885   4.889   8.542
 3146TIP3    H230998   2.870   4.988   8.428
 3147TIP3   OH230999   6.056   2.966   8.280
 3147TIP3    H131000   6.018   3.054   8.286
 3147TIP3    H231001   6.150   2.981   8.271
 3148TIP3   OH231002   3.283   1.113   1.208
 3148TIP3    H131003   3.244   1.027   1.223
 3148TIP3    H231004   3.303   1.113   1.114
 3149TIP3   OH231005   1.624   0.751   0.383
 3149TIP3    H131006   1.535   0.776   0.406
 3149TIP3    H231007   1.636   0.782   0.294
 3150TIP3   OH231008   6.555   4.107   7.764
 3150TIP3    H131009   6.573   4.148   7.848
 3150TIP3    H231010   6.623   4.040   7.755
 3151TIP3   OH231011   4.817   4.290   0.277
 3151TIP3    H131012   4.812   4.385   0.275
 3151TIP3    H231013   4.825   4.268   0.370
 3152TIP3   OH231014   2.849   4.292   7.556
 3152TIP3    H131015   2.921   4.354   7.558
 3152TIP3    H231016   2.777   4.340   7.517
 3153TIP3   OH231017   5.037   4.173   0.905
 3153TIP3    H131018   5.123   4.213   0.918
 3153TIP3    H231019   4.989   4.195   0.985
 3154TIP3   OH231020   3.915   3.790   7.825
 3154TIP3    H131021   3.855   3.715   7.825
 3154TIP3    H231022   3.967   3.779   7.746
 3155TIP3   OH231023   6.644   1.165   8.328
 3155TIP3    H131024   6.721   1.115   8.353
 3155TIP3    H231025   6.572   1.126   8.377
 3156TIP3   OH231026   5.252   2.774   0.049
 3156TIP3    H131027   5.271   2.866   0.067
 3156TIP3    H231028   5.183   2.751   0.111
 3157TIP3   OH231029   5.606   1.390   8.669
 3157TIP3    H131030   5.582   1.479   8.642
 3157TIP3    H231031   5.641   1.349   8.590
 3158TIP3   OH231032   0.211   3.228   1.662
 3158TIP3    H131033   0.117   3.223   1.676
 3158TIP3    H231034   0.248   3.169   1.728
 3159TIP3   OH231035   6.775   4.117   0.265
 3159TIP3    H131036   6.733   4.124   0.351
 3159TIP3    H231037   0.023   4.093   0.285
 3160TIP3   OH231038   0.370   1.383   1.185
 3160TIP3    H131039   0.347   1.313   1.247
 3160TIP3    H231040   0.367   1.341   1.099
 3161TIP3   OH231041   3.149   0.026   7.046
 3161TIP3    H131042   3.125   0.088   6.977
 3161TIP3    H231043   3.220   0.069   7.093
 3162TIP3   OH231044   4.754   2.508   8.664
 3162TIP3    H131045   4.802   2.459   0.018
 3162TIP3    H231046   4.816   2.575   8.636
 3163TIP3   OH231047   6.256   3.114   6.970
 3163TIP3    H131048   6.204   3.127   6.890
 3163TIP3    H231049   6.258   3.019   6.982
 3164TIP3   OH231050   5.214   3.527   1.638
 3164TIP3    H131051   5.124   3.544   1.607
 3164TIP3    H231052   5.203   3.471   1.714
 3165TIP3   OH231053   5.160   3.721   1.146
 3165TIP3    H131054   5.151   3.807   1.105
 3165TIP3    H231055   5.223   3.734   1.217
 3166TIP3   OH231056   1.071   1.838   0.072
 3166TIP3    H131057   1.146   1.855   0.014
 3166TIP3    H231058   0.997   1.824   0.012
 3167TIP3   OH231059   2.208   5.418   7.621
 3167TIP3    H131060   2.200   5.488   7.685
 3167TIP3    H231061   2.274   5.449   7.560
 3168TIP3   OH231062   1.092   6.183   1.076
 3168TIP3    H131063   1.027   6.228   1.131
 3168TIP3    H231064   1.169   6.175   1.132
 3169TIP3   OH231065   5.147   4.878   0.343
 3169TIP3    H131066   5.116   4.942   0.407
 3169TIP3    H231067   5.227   4.918   0.308
 3170TIP3   OH231068   0.598   2.267   1.402
 3170TIP3    H131069   0.680   2.296   1.361
 3170TIP3    H231070   0.571   2.191   1.351
 3171TIP3   OH231071   1.024   5.438   8.138
 3171TIP3    H131072   1.074   5.439   8.056
 3171TIP3    H231073   0.992   5.527   8.148
 3172TIP3   OH231074   3.323   3.849   7.644
 3172TIP3    H131075   3.344   3.905   7.569
 3172TIP3    H231076   3.399   3.857   7.702
 3173TIP3   OH231077   2.862   3.007   0.030
 3173TIP3    H131078   2.908   3.088   0.009
 3173TIP3    H231079   2.783   3.035   0.077
 3174TIP3   OH231080   6.276   5.215   0.324
 3174TIP3    H131081   6.301   5.297   0.281
 3174TIP3    H231082   6.183   5.206   0.308
 3175TIP3   OH231083   4.683   2.772   1.895
 3175TIP3    H131084   4.590   2.749   1.895
 3175TIP3    H231085   4.725   2.701   1.943
 3176TIP3   OH231086   6.432   2.888   7.353
 3176TIP3    H131087   6.440   2.802   7.394
 3176TIP3    H231088   6.413   2.869   7.261
 3177TIP3   OH231089   5.815   6.219   7.844
 3177TIP3    H131090   5.836   6.308   7.815
 3177TIP3    H231091   5.891   6.167   7.820
 3178TIP3   OH231092   3.234   4.814   7.110
 3178TIP3    H131093   3.230   4.909   7.114
 3178TIP3    H231094   3.145   4.786   7.130
 3179TIP3   OH231095   1.166   0.719   2.093
 3179TIP3    H131096   1.075   0.724   2.122
 3179TIP3    H231097   1.215   0.769   2.158
 3180TIP3   OH231098   3.392   4.326   7.419
 3180TIP3    H131099   3.408   4.287   7.505
 3180TIP3    H231100   3.298   4.344   7.418
 3181TIP3   OH231101   3.879   1.378   8.176
 3181TIP3    H131102   3.939   1.311   8.210
 3181TIP3    H231103   3.803   1.329   8.146
 3182TIP3   OH231104   0.268   3.496   0.962
 3182TIP3    H131105   0.251   3.481   0.869
 3182TIP3    H231106   0.342   3.439   0.982
 3183TIP3   OH231107   3.990   1.784   8.674
 3183TIP3    H131108   4.066   1.750   8.627
 3183TIP3    H231109   4.013   1.875   8.695
 3184TIP3   OH231110   6.383   6.118   1.263
 3184TIP3    H131111   6.438   6.196   1.258
 3184TIP3    H231112   6.444   6.045   1.257
 3185TIP3   OH231113   2.276   1.989   7.066
 3185TIP3    H131114   2.286   2.074   7.107
 3185TIP3    H231115   2.228   2.006   6.985
 3186TIP3   OH231116   2.683   5.194   7.207
 3186TIP3    H131117   2.661   5.195   7.114
 3186TIP3    H231118   2.746   5.122   7.216
 3187TIP3   OH231119   1.686   1.953   7.725
 3187TIP3    H131120   1.639   1.926   7.804
 3187TIP3    H231121   1.643   1.906   7.654
 3188TIP3   OH231122   5.978   1.655   6.309
 3188TIP3    H131123   6.043   1.720   6.281
 3188TIP3    H231124   5.894   1.692   6.283
 3189TIP3   OH231125   0.526   2.532   1.386
 3189TIP3    H131126   0.554   2.451   1.428
 3189TIP3    H231127   0.524   2.596   1.457
 3190TIP3   OH231128   0.103   4.638   7.076
 3190TIP3    H131129   0.030   4.648   7.015
 3190TIP3    H231130   0.164   4.580   7.030
 3191TIP3   OH231131   1.986   2.738   6.509
 3191TIP3    H131132   2.017   2.658   6.466
 3191TIP3    H231133   1.986   2.717   6.602
 3192TIP3   OH231134   1.212   4.451   6.353
 3192TIP3    H131135   1.281   4.401   6.311
 3192TIP3    H231136   1.139   4.448   6.292
 3193TIP3   OH231137   6.628   4.474   6.325
 3193TIP3    H131138   6.665   4.486   6.412
 3193TIP3    H231139   6.605   4.381   6.321
 3194TIP3   OH231140   3.020   0.728   6.801
 3194TIP3    H131141   3.001   0.666   6.731
 3194TIP3    H231142   3.111   0.753   6.787
 3195TIP3   OH231143   4.832   3.520   8.709
 3195TIP3    H131144   4.778   3.539   0.073
 3195TIP3    H231145   4.815   3.594   8.650
 3196TIP3   OH231146   5.582   1.424   0.232
 3196TIP3    H131147   5.646   1.494   0.229
 3196TIP3    H231148   5.542   1.424   0.145
 3197TIP3   OH231149   4.742   4.529   8.299
 3197TIP3    H131150   4.723   4.478   8.378
 3197TIP3    H231151   4.680   4.496   8.234
 3198TIP3   OH231152   2.658   2.009   8.446
 3198TIP3    H131153   2.592   2.011   8.516
 3198TIP3    H231154   2.684   2.100   8.435
 3199TIP3   OH231155   4.698   6.720   8.689
 3199TIP3    H131156   4.729   6.767   0.053
 3199TIP3    H231157   4.666   6.789   8.631
 3200TIP3   OH231158   6.804   1.920   7.954
 3200TIP3    H131159   6.817   1.862   8.028
 3200TIP3    H231160   6.735   1.981   7.983
 3201TIP3   OH231161   2.211   1.649   1.908
 3201TIP3    H131162   2.130   1.611   1.942
 3201TIP3    H231163   2.257   1.683   1.985
 3202TIP3   OH231164   1.852   5.803   8.238
 3202TIP3    H131165   1.943   5.777   8.224
 3202TIP3    H231166   1.812   5.727   8.281
 3203TIP3   OH231167   2.372   3.391   0.750
 3203TIP3    H131168   2.313   3.410   0.823
 3203TIP3    H231169   2.318   3.339   0.690
 3204TIP3   OH231170   0.055   2.325   1.182
 3204TIP3    H131171   0.113   2.401   1.170
 3204TIP3    H231172   6.811   2.357   1.160
 3205TIP3   OH231173   0.364   6.818   1.569
 3205TIP3    H131174   0.381   6.735   1.524
 3205TIP3    H231175   0.283   0.007   1.529
 3206TIP3   OH231176   6.134   0.585   8.678
 3206TIP3    H131177   6.145   0.654   0.030
 3206TIP3    H231178   6.148   0.503   0.013
 3207TIP3   OH231179   5.503   2.611   0.500
 3207TIP3    H131180   5.413   2.628   0.472
 3207TIP3    H231181   5.542   2.699   0.507
 3208TIP3   OH231182   4.361   0.380   6.945
 3208TIP3    H131183   4.277   0.406   6.984
 3208TIP3    H231184   4.413   0.460   6.943
 3209TIP3   OH231185   2.456   5.918   8.485
 3209TIP3    H131186   2.393   5.935   8.555
 3209TIP3    H231187   2.446   5.825   8.466
 3210TIP3   OH231188   3.075   0.233   1.435
 3210TIP3    H131189   3.041   0.145   1.416
 3210TIP3    H231190   3.030   0.259   1.516
 3211TIP3   OH231191   4.052   4.935   0.381
 3211TIP3    H131192   4.143   4.966   0.388
 3211TIP3    H231193   4.055   4.870   0.310
 3212TIP3   OH231194   6.385   2.822   6.400
 3212TIP3    H131195   6.311   2.761   6.393
 3212TIP3    H231196   6.460   2.772   6.366
 3213TIP3   OH231197   2.980   6.701   7.306
 3213TIP3    H131198   2.934   6.726   7.226
 3213TIP3    H231199   2.956   6.769   7.369
 3214TIP3   OH231200   5.991   0.861   6.929
 3214TIP3    H131201   5.942   0.832   7.006
 3214TIP3    H231202   6.040   0.937   6.959
 3215TIP3   OH231203   6.630   1.127   0.916
 3215TIP3    H131204   6.582   1.158   0.992
 3215TIP3    H231205   6.596   1.179   0.843
 3216TIP3   OH231206   0.682   4.040   1.620
 3216TIP3    H131207   0.696   3.950   1.592
 3216TIP3    H231208   0.662   4.033   1.713
 3217TIP3   OH231209   4.593   1.563   0.471
 3217TIP3    H131210   4.523   1.611   0.514
 3217TIP3    H231211   4.592   1.595   0.380
 3218TIP3   OH231212   4.636   5.085   1.693
 3218TIP3    H131213   4.584   5.091   1.773
 3218TIP3    H231214   4.725   5.070   1.723
 3219TIP3   OH231215   4.953   5.921   1.186
 3219TIP3    H131216   4.971   5.839   1.232
 3219TIP3    H231217   5.037   5.945   1.146
 3220TIP3   OH231218   2.113   5.044   0.694
 3220TIP3    H131219   2.161   5.000   0.624
 3220TIP3    H231220   2.113   4.982   0.767
 3221TIP3   OH231221   1.870   1.131   2.135
 3221TIP3    H131222   1.794   1.109   2.081
 3221TIP3    H231223   1.878   1.226   2.127
 3222TIP3   OH231224   2.185   5.743   1.510
 3222TIP3    H131225   2.121   5.813   1.517
 3222TIP3    H231226   2.267   5.782   1.540
 3223TIP3   OH231227   0.732   5.324   1.140
 3223TIP3    H131228   0.684   5.255   1.186
 3223TIP3    H231229   0.719   5.304   1.047
 3224TIP3   OH231230   5.880   4.703   8.491
 3224TIP3    H131231   5.918   4.770   8.548
 3224TIP3    H231232   5.804   4.670   8.540
 3225TIP3   OH231233   5.805   5.689   8.502
 3225TIP3    H131234   5.840   5.662   8.416
 3225TIP3    H231235   5.711   5.693   8.489
 3226TIP3   OH231236   1.951   0.311   0.019
 3226TIP3    H131237   2.025   0.370   0.010
 3226TIP3    H231238   1.944   0.294   0.113
 3227TIP3   OH231239   0.109   6.477   8.216
 3227TIP3    H131240   0.163   6.502   8.292
 3227TIP3    H231241   0.111   6.381   8.217
 3228TIP3   OH231242   1.368   3.149   1.837
 3228TIP3    H131243   1.399   3.096   1.910
 3228TIP3    H231244   1.448   3.175   1.791
 3229TIP3   OH231245   5.192   6.061   1.092
 3229TIP3    H131246   5.248   6.012   1.032
 3229TIP3    H231247   5.238   6.058   1.176
 3230TIP3   OH231248   1.508   3.647   0.976
 3230TIP3    H131249   1.500   3.553   0.993
 3230TIP3    H231250   1.520   3.686   1.063
 3231TIP3   OH231251   3.690   3.588   0.734
 3231TIP3    H131252   3.739   3.506   0.742
 3231TIP3    H231253   3.729   3.632   0.659
 3232TIP3   OH231254   6.603   0.051   2.473
 3232TIP3    H131255   6.649   6.815   2.447
 3232TIP3    H231256   6.667   0.100   2.525
 3233TIP3   OH231257   3.918   5.398   7.209
 3233TIP3    H131258   3.913   5.401   7.113
 3233TIP3    H231259   3.983   5.330   7.228
 3234TIP3   OH231260   5.610   4.102   7.593
 3234TIP3    H131261   5.657   4.174   7.635
 3234TIP3    H231262   5.617   4.029   7.655
 3235TIP3   OH231263   1.362   0.462   7.410
 3235TIP3    H131264   1.295   0.504   7.355
 3235TIP3    H231265   1.429   0.530   7.422
 3236TIP3   OH231266   5.842   1.970   1.779
 3236TIP3    H131267   5.815   2.062   1.789
 3236TIP3    H231268   5.761   1.924   1.757
 3237TIP3   OH231269   5.777   0.740   7.265
 3237TIP3    H131270   5.700   0.773   7.310
 3237TIP3    H231271   5.744   0.667   7.212
 3238TIP3   OH231272   1.404   0.671   6.763
 3238TIP3    H131273   1.349   0.663   6.841
 3238TIP3    H231274   1.410   0.582   6.728
 3239TIP3   OH231275   4.126   3.166   6.933
 3239TIP3    H131276   4.100   3.205   6.850
 3239TIP3    H231277   4.057   3.192   6.995
 3240TIP3   OH231278   3.883   1.011   0.253
 3240TIP3    H131279   3.885   0.962   0.171
 3240TIP3    H231280   3.972   1.044   0.263
 3241TIP3   OH231281   1.367   5.959   6.336
 3241TIP3    H131282   1.399   6.000   6.255
 3241TIP3    H231283   1.364   6.031   6.399
 3242TIP3   OH231284   3.055   4.799   0.352
 3242TIP3    H131285   3.030   4.881   0.395
 3242TIP3    H231286   2.973   4.764   0.319
 3243TIP3   OH231287   5.380   0.161   1.776
 3243TIP3    H131288   5.319   0.089   1.757
 3243TIP3    H231289   5.327   0.225   1.823
 3244TIP3   OH231290   4.369   5.302   1.286
 3244TIP3    H131291   4.381   5.322   1.379
 3244TIP3    H231292   4.339   5.385   1.248
 3245TIP3   OH231293   4.617   5.730   7.333
 3245TIP3    H131294   4.654   5.644   7.353
 3245TIP3    H231295   4.562   5.716   7.256
 3246TIP3   OH231296   6.044   3.727   7.847
 3246TIP3    H131297   6.034   3.694   7.758
 3246TIP3    H231298   6.069   3.819   7.836
 3247TIP3   OH231299   3.485   2.471   1.819
 3247TIP3    H131300   3.392   2.495   1.821
 3247TIP3    H231301   3.520   2.519   1.744
 3248TIP3   OH231302   6.497   4.688   7.165
 3248TIP3    H131303   6.483   4.716   7.075
 3248TIP3    H231304   6.425   4.627   7.183
 3249TIP3   OH231305   5.527   3.264   1.117
 3249TIP3    H131306   5.549   3.173   1.095
 3249TIP3    H231307   5.561   3.277   1.205
 3250TIP3   OH231308   0.082   3.756   1.376
 3250TIP3    H131309   0.156   3.699   1.354
 3250TIP3    H231310   0.109   3.799   1.458
 3251TIP3   OH231311   0.800   1.532   7.081
 3251TIP3    H131312   0.846   1.452   7.055
 3251TIP3    H231313   0.851   1.566   7.154
 3252TIP3   OH231314   1.335   0.182   7.202
 3252TIP3    H131315   1.315   0.197   7.109
 3252TIP3    H231316   1.332   0.269   7.241
 3253TIP3   OH231317   1.442   2.005   7.472
 3253TIP3    H131318   1.523   2.053   7.489
 3253TIP3    H231319   1.467   1.913   7.479
 3254TIP3   OH231320   0.445   1.158   7.408
 3254TIP3    H131321   0.406   1.075   7.438
 3254TIP3    H231322   0.508   1.132   7.341
 3255TIP3   OH231323   2.295   4.105   1.308
 3255TIP3    H131324   2.302   4.053   1.388
 3255TIP3    H231325   2.378   4.151   1.302
 3256TIP3   OH231326   0.373   5.634   7.990
 3256TIP3    H131327   0.292   5.656   8.035
 3256TIP3    H231328   0.440   5.687   8.033
 3257TIP3   OH231329   0.266   6.636   6.422
 3257TIP3    H131330   0.231   6.719   6.389
 3257TIP3    H231331   0.193   6.598   6.471
 3258TIP3   OH231332   2.215   2.027   8.682
 3258TIP3    H131333   2.188   2.016   8.590
 3258TIP3    H231334   2.162   1.963   0.017
 3259TIP3   OH231335   0.747   6.045   8.341
 3259TIP3    H131336   0.799   6.101   8.398
 3259TIP3    H231337   0.754   5.957   8.380
 3260TIP3   OH231338   5.465   3.626   7.857
 3260TIP3    H131339   5.506   3.577   7.929
 3260TIP3    H231340   5.373   3.635   7.884
 3261TIP3   OH231341   4.381   3.911   7.704
 3261TIP3    H131342   4.403   3.955   7.786
 3261TIP3    H231343   4.417   3.967   7.636
 3262TIP3   OH231344   5.797   1.970   7.099
 3262TIP3    H131345   5.799   2.066   7.101
 3262TIP3    H231346   5.834   1.944   7.184
 3263TIP3   OH231347   2.307   1.280   7.622
 3263TIP3    H131348   2.392   1.247   7.593
 3263TIP3    H231349   2.248   1.205   7.616
 3264TIP3   OH231350   0.976   6.680   8.271
 3264TIP3    H131351   1.027   6.730   8.335
 3264TIP3    H231352   0.974   6.591   8.308
 3265TIP3   OH231353   3.482   1.452   0.493
 3265TIP3    H131354   3.418   1.462   0.563
 3265TIP3    H231355   3.559   1.414   0.535
 3266TIP3   OH231356   4.473   1.350   1.400
 3266TIP3    H131357   4.526   1.341   1.321
 3266TIP3    H231358   4.440   1.262   1.417
 3267TIP3   OH231359   5.542   4.304   0.778
 3267TIP3    H131360   5.488   4.368   0.730
 3267TIP3    H231361   5.631   4.323   0.750
 3268TIP3   OH231362   4.259   3.424   8.521
 3268TIP3    H131363   4.226   3.456   8.605
 3268TIP3    H231364   4.260   3.328   8.532
 3269TIP3   OH231365   3.556   4.625   6.223
 3269TIP3    H131366   3.533   4.566   6.152
 3269TIP3    H231367   3.647   4.606   6.242
 3270TIP3   OH231368   6.694   2.498   2.075
 3270TIP3    H131369   6.771   2.507   2.020
 3270TIP3    H231370   6.624   2.542   2.026
 3271TIP3   OH231371   4.644   1.269   8.149
 3271TIP3    H131372   4.556   1.231   8.156
 3271TIP3    H231373   4.642   1.319   8.068
 3272TIP3   OH231374   4.691   2.300   1.115
 3272TIP3    H131375   4.735   2.222   1.149
 3272TIP3    H231376   4.669   2.278   1.025
 3273TIP3   OH231377   4.542   1.248   1.662
 3273TIP3    H131378   4.573   1.250   1.571
 3273TIP3    H231379   4.551   1.338   1.693
 3274TIP3   OH231380   0.990   5.820   0.314
 3274TIP3    H131381   1.033   5.798   0.231
 3274TIP3    H231382   1.061   5.852   0.370
 3275TIP3   OH231383   5.120   2.167   8.048
 3275TIP3    H131384   5.131   2.085   7.999
 3275TIP3    H231385   5.195   2.169   8.108
 3276TIP3   OH231386   4.895   5.345   8.331
 3276TIP3    H131387   4.828   5.307   8.387
 3276TIP3    H231388   4.976   5.300   8.357
 3277TIP3   OH231389   3.187   3.660   6.595
 3277TIP3    H131390   3.118   3.726   6.598
 3277TIP3    H231391   3.210   3.644   6.686
 3278TIP3   OH231392   3.661   6.302   8.613
 3278TIP3    H131393   3.599   6.364   8.574
 3278TIP3    H231394   3.716   6.275   8.539
 3279TIP3   OH231395   6.439   2.553   1.396
 3279TIP3    H131396   6.511   2.601   1.437
 3279TIP3    H231397   6.474   2.465   1.381
 3280TIP3   OH231398   2.918   2.667   1.937
 3280TIP3    H131399   2.848   2.684   2.000
 3280TIP3    H231400   2.877   2.679   1.851
 3281TIP3   OH231401   1.428   0.316   1.596
 3281TIP3    H131402   1.476   0.246   1.640
 3281TIP3    H231403   1.453   0.396   1.642
 3282TIP3   OH231404   0.903   4.912   7.760
 3282TIP3    H131405   0.931   4.991   7.806
 3282TIP3    H231406   0.923   4.840   7.821
 3283TIP3   OH231407   6.322   4.651   6.705
 3283TIP3    H131408   6.261   4.578   6.699
 3283TIP3    H231409   6.310   4.686   6.793
 3284TIP3   OH231410   3.234   6.591   0.569
 3284TIP3    H131411   3.318   6.547   0.559
 3284TIP3    H231412   3.227   6.646   0.491
 3285TIP3   OH231413   0.087   1.120   7.986
 3285TIP3    H131414   0.053   1.058   7.921
 3285TIP3    H231415   0.010   1.171   8.012
 3286TIP3   OH231416   0.448   3.202   7.191
 3286TIP3    H131417   0.465   3.127   7.248
 3286TIP3    H231418   0.479   3.277   7.240
 3287TIP3   OH231419   5.759   4.315   7.344
 3287TIP3    H131420   5.821   4.259   7.297
 3287TIP3    H231421   5.810   4.354   7.415
 3288TIP3   OH231422   0.341   5.673   6.757
 3288TIP3    H131423   0.340   5.718   6.672
 3288TIP3    H231424   0.358   5.582   6.735
 3289TIP3   OH231425   6.274   0.212   1.492
 3289TIP3    H131426   6.232   0.232   1.409
 3289TIP3    H231427   6.217   0.147   1.533
 3290TIP3   OH231428   0.198   2.646   1.211
 3290TIP3    H131429   0.281   2.600   1.202
 3290TIP3    H231430   0.176   2.673   1.122
 3291TIP3   OH231431   1.790   1.406   7.220
 3291TIP3    H131432   1.867   1.430   7.168
 3291TIP3    H231433   1.755   1.329   7.177
 3292TIP3   OH231434   0.385   0.480   7.170
 3292TIP3    H131435   0.353   0.556   7.217
 3292TIP3    H231436   0.346   0.488   7.083
 3293TIP3   OH231437   1.293   5.054   2.418
 3293TIP3    H131438   1.271   4.998   2.492
 3293TIP3    H231439   1.347   5.123   2.455
 3294TIP3   OH231440   2.026   1.385   7.568
 3294TIP3    H131441   1.984   1.395   7.483
 3294TIP3    H231442   2.119   1.375   7.549
 3295TIP3   OH231443   6.689   4.381   0.576
 3295TIP3    H131444   6.617   4.367   0.637
 3295TIP3    H231445   6.682   4.473   0.552
 3296TIP3   OH231446   0.363   0.899   7.500
 3296TIP3    H131447   0.270   0.875   7.490
 3296TIP3    H231448   0.408   0.815   7.507
 3297TIP3   OH231449   4.063   1.127   1.299
 3297TIP3    H131450   4.082   1.218   1.323
 3297TIP3    H231451   3.993   1.101   1.360
 3298TIP3   OH231452   4.431   6.767   8.089
 3298TIP3    H131453   4.421   6.678   8.122
 3298TIP3    H231454   4.347   6.786   8.046
 3299TIP3   OH231455   5.353   0.634   7.980
 3299TIP3    H131456   5.300   0.653   8.057
 3299TIP3    H231457   5.442   0.657   8.005
 3300TIP3   OH231458   6.738   2.119   2.107
 3300TIP3    H131459   6.786   2.070   2.040
 3300TIP3    H231460   6.647   2.091   2.097
 3301TIP3   OH231461   5.285   4.938   0.724
 3301TIP3    H131462   5.279   4.969   0.814
 3301TIP3    H231463   5.284   5.018   0.671
 3302TIP3   OH231464   0.657   3.334   6.312
 3302TIP3    H131465   0.750   3.341   6.287
 3302TIP3    H231466   0.658   3.284   6.394
 3303TIP3   OH231467   5.264   4.916   7.735
 3303TIP3    H131468   5.287   4.837   7.783
 3303TIP3    H231469   5.216   4.970   7.799
 3304TIP3   OH231470   1.319   5.046   1.567
 3304TIP3    H131471   1.304   5.078   1.656
 3304TIP3    H231472   1.382   4.975   1.579
 3305TIP3   OH231473   0.371   0.053   8.179
 3305TIP3    H131474   0.448   0.110   8.172
 3305TIP3    H231475   0.391   6.839   8.253
 3306TIP3   OH231476   4.716   1.258   7.586
 3306TIP3    H131477   4.745   1.168   7.575
 3306TIP3    H231478   4.775   1.295   7.652
 3307TIP3   OH231479   2.944   0.358   7.327
 3307TIP3    H131480   2.910   0.270   7.310
 3307TIP3    H231481   2.918   0.409   7.251
 3308TIP3   OH231482   3.113   4.878   6.467
 3308TIP3    H131483   3.117   4.788   6.500
 3308TIP3    H231484   3.177   4.880   6.396
 3309TIP3   OH231485   5.626   4.815   7.036
 3309TIP3    H131486   5.622   4.742   7.098
 3309TIP3    H231487   5.719   4.839   7.034
 3310TIP3   OH231488   5.225   1.881   7.223
 3310TIP3    H131489   5.189   1.825   7.292
 3310TIP3    H231490   5.148   1.916   7.178
 3311TIP3   OH231491   3.846   2.880   0.126
 3311TIP3    H131492   3.799   2.900   0.206
 3311TIP3    H231493   3.782   2.895   0.056
 3312TIP3   OH231494   1.794   0.526   1.608
 3312TIP3    H131495   1.849   0.601   1.631
 3312TIP3    H231496   1.853   0.451   1.611
 3313TIP3   OH231497   1.774   5.300   0.741
 3313TIP3    H131498   1.798   5.354   0.666
 3313TIP3    H231499   1.691   5.338   0.772
 3314TIP3   OH231500   6.074   3.239   0.614
 3314TIP3    H131501   6.114   3.248   0.527
 3314TIP3    H231502   6.007   3.308   0.616
 3315TIP3   OH231503   5.354   1.054   7.298
 3315TIP3    H131504   5.290   1.047   7.369
 3315TIP3    H231505   5.321   1.125   7.243
 3316TIP3   OH231506   3.133   0.265   6.856
 3316TIP3    H131507   3.063   0.305   6.803
 3316TIP3    H231508   3.213   0.287   6.809
 3317TIP3   OH231509   1.927   4.015   7.401
 3317TIP3    H131510   1.910   4.007   7.308
 3317TIP3    H231511   1.874   3.947   7.442
 3318TIP3   OH231512   0.956   0.069   7.435
 3318TIP3    H131513   1.026   0.015   7.473
 3318TIP3    H231514   0.882   0.057   7.495
 3319TIP3   OH231515   2.844   1.884   8.246
 3319TIP3    H131516   2.786   1.889   8.321
 3319TIP3    H231517   2.909   1.953   8.261
 3320TIP3   OH231518   1.932   3.771   1.006
 3320TIP3    H131519   1.911   3.694   0.953
 3320TIP3    H231520   2.009   3.745   1.057
 3321TIP3   OH231521   0.287   2.176   1.370
 3321TIP3    H131522   0.278   2.231   1.293
 3321TIP3    H231523   0.342   2.103   1.341
 3322TIP3   OH231524   6.799   4.507   0.039
 3322TIP3    H131525   6.831   4.435   8.699
 3322TIP3    H231526   6.795   4.472   0.128
 3323TIP3   OH231527   6.830   1.445   2.635
 3323TIP3    H131528   0.060   1.488   2.590
 3323TIP3    H231529   6.764   1.514   2.644
 3324TIP3   OH231530   0.336   3.790   8.609
 3324TIP3    H131531   0.279   3.845   8.663
 3324TIP3    H231532   0.409   3.848   8.585
 3325TIP3   OH231533   1.521   2.011   7.961
 3325TIP3    H131534   1.488   1.980   8.045
 3325TIP3    H231535   1.448   2.059   7.922
 3326TIP3   OH231536   0.443   6.729   2.381
 3326TIP3    H131537   0.423   6.639   2.354
 3326TIP3    H231538   0.400   6.739   2.466
 3327TIP3   OH231539   5.079   1.788   6.589
 3327TIP3    H131540   5.059   1.729   6.516
 3327TIP3    H231541   5.135   1.737   6.647
 3328TIP3   OH231542   4.794   2.469   8.272
 3328TIP3    H131543   4.824   2.560   8.277
 3328TIP3    H231544   4.834   2.436   8.191
 3329TIP3   OH231545   2.704   5.275   2.073
 3329TIP3    H131546   2.749   5.354   2.042
 3329TIP3    H231547   2.629   5.308   2.121
 3330TIP3   OH231548   5.097   4.779   1.448
 3330TIP3    H131549   5.020   4.812   1.402
 3330TIP3    H231550   5.161   4.850   1.443
 3331TIP3   OH231551   6.311   5.053   8.027
 3331TIP3    H131552   6.227   5.035   8.070
 3331TIP3    H231553   6.366   5.089   8.097
 3332TIP3   OH231554   5.761   6.679   0.144
 3332TIP3    H131555   5.745   6.773   0.133
 3332TIP3    H231556   5.769   6.668   0.238
 3333TIP3   OH231557   5.833   4.496   1.376
 3333TIP3    H131558   5.853   4.457   1.462
 3333TIP3    H231559   5.765   4.560   1.394
 3334TIP3   OH231560   3.824   1.513   8.403
 3334TIP3    H131561   3.860   1.451   8.467
 3334TIP3    H231562   3.852   1.479   8.318
 3335TIP3   OH231563   3.789   4.498   2.185
 3335TIP3    H131564   3.695   4.514   2.183
 3335TIP3    H231565   3.797   4.403   2.175
 3336TIP3   OH231566   4.414   2.699   7.137
 3336TIP3    H131567   4.396   2.652   7.056
 3336TIP3    H231568   4.455   2.633   7.194
 3337TIP3   OH231569   2.036   5.400   0.210
 3337TIP3    H131570   2.057   5.484   0.251
 3337TIP3    H231571   2.002   5.346   0.282
 3338TIP3   OH231572   3.512   2.272   2.002
 3338TIP3    H131573   3.495   2.350   1.948
 3338TIP3    H231574   3.606   2.276   2.021
 3339TIP3   OH231575   5.900   3.835   8.225
 3339TIP3    H131576   5.882   3.810   8.316
 3339TIP3    H231577   5.950   3.762   8.189
 3340TIP3   OH231578   6.603   3.395   7.790
 3340TIP3    H131579   6.530   3.373   7.848
 3340TIP3    H231580   6.566   3.393   7.702
 3341TIP3   OH231581   4.330   3.687   0.070
 3341TIP3    H131582   4.379   3.652   8.709
 3341TIP3    H231583   4.248   3.639   0.071
 3342TIP3   OH231584   3.282   4.586   1.365
 3342TIP3    H131585   3.221   4.521   1.400
 3342TIP3    H231586   3.239   4.670   1.379
 3343TIP3   OH231587   0.055   6.689   7.779
 3343TIP3    H131588   0.077   6.712   7.870
 3343TIP3    H231589   0.137   6.702   7.731
 3344TIP3   OH231590   5.909   6.644   8.351
 3344TIP3    H131591   5.926   6.641   8.446
 3344TIP3    H231592   5.838   6.580   8.338
 3345TIP3   OH231593   0.541   3.378   0.426
 3345TIP3    H131594   0.546   3.282   0.426
 3345TIP3    H231595   0.502   3.400   0.510
 3346TIP3   OH231596   6.325   4.036   7.614
 3346TIP3    H131597   6.420   4.028   7.615
 3346TIP3    H231598   6.304   4.070   7.527
 3347TIP3   OH231599   1.808   5.138   1.957
 3347TIP3    H131600   1.785   5.183   1.876
 3347TIP3    H231601   1.756   5.181   2.024
 3348TIP3   OH231602   1.494   1.094   8.361
 3348TIP3    H131603   1.568   1.146   8.330
 3348TIP3    H231604   1.446   1.070   8.282
 3349TIP3   OH231605   5.279   6.191   8.251
 3349TIP3    H131606   5.333   6.230   8.183
 3349TIP3    H231607   5.201   6.247   8.254
 3350TIP3   OH231608   0.910   2.256   0.800
 3350TIP3    H131609   0.849   2.226   0.868
 3350TIP3    H231610   0.994   2.216   0.824
 3351TIP3   OH231611   3.133   0.967   0.510
 3351TIP3    H131612   3.186   0.901   0.555
 3351TIP3    H231613   3.046   0.928   0.503
 3352TIP3   OH231614   0.662   5.880   6.000
 3352TIP3    H131615   0.684   5.895   6.092
 3352TIP3    H231616   0.630   5.789   5.997
 3353TIP3   OH231617   6.336   1.851   2.251
 3353TIP3    H131618   6.300   1.932   2.288
 3353TIP3    H231619   6.412   1.832   2.305
 3354TIP3   OH231620   2.460   0.570   6.999
 3354TIP3    H131621   2.530   0.634   6.992
 3354TIP3    H231622   2.396   0.596   6.933
 3355TIP3   OH231623   0.814   1.113   6.249
 3355TIP3    H131624   0.812   1.151   6.337
 3355TIP3    H231625   0.774   1.026   6.260
 3356TIP3   OH231626   2.903   4.972   7.204
 3356TIP3    H131627   2.913   4.879   7.182
 3356TIP3    H231628   2.947   5.018   7.132
 3357TIP3   OH231629   1.852   2.827   7.928
 3357TIP3    H131630   1.847   2.748   7.982
 3357TIP3    H231631   1.852   2.794   7.838
 3358TIP3   OH231632   5.325   4.019   7.267
 3358TIP3    H131633   5.350   3.974   7.347
 3358TIP3    H231634   5.357   4.108   7.278
 3359TIP3   OH231635   4.989   2.938   0.545
 3359TIP3    H131636   4.896   2.922   0.556
 3359TIP3    H231637   5.030   2.854   0.565
 3360TIP3   OH231638   1.284   0.800   7.009
 3360TIP3    H131639   1.224   0.871   7.031
 3360TIP3    H231640   1.360   0.843   6.969
 3361TIP3   OH231641   4.193   0.970   1.570
 3361TIP3    H131642   4.163   1.049   1.616
 3361TIP3    H231643   4.173   0.898   1.629
 3362TIP3   OH231644   3.589   0.549   0.477
 3362TIP3    H131645   3.592   0.454   0.491
 3362TIP3    H231646   3.644   0.564   0.400
 3363TIP3   OH231647   4.205   6.614   7.789
 3363TIP3    H131648   4.204   6.635   7.695
 3363TIP3    H231649   4.211   6.699   7.832
 3364TIP3   OH231650   3.732   5.599   8.637
 3364TIP3    H131651   3.740   5.692   8.661
 3364TIP3    H231652   3.802   5.585   8.573
 3365TIP3   OH231653   4.723   3.440   1.086
 3365TIP3    H131654   4.799   3.397   1.047
 3365TIP3    H231655   4.737   3.533   1.071
 3366TIP3   OH231656   5.400   6.018   7.181
 3366TIP3    H131657   5.495   6.017   7.176
 3366TIP3    H231658   5.380   6.061   7.264
 3367TIP3   OH231659   6.561   1.500   1.913
 3367TIP3    H131660   6.487   1.451   1.877
 3367TIP3    H231661   6.587   1.559   1.842
 3368TIP3   OH231662   4.443   1.712   8.306
 3368TIP3    H131663   4.437   1.793   8.256
 3368TIP3    H231664   4.355   1.675   8.302
 3369TIP3   OH231665   5.857   1.852   0.446
 3369TIP3    H131666   5.941   1.897   0.457
 3369TIP3    H231667   5.810   1.869   0.528
 3370TIP3   OH231668   6.789   3.230   7.312
 3370TIP3    H131669   0.033   3.268   7.298
 3370TIP3    H231670   6.801   3.170   7.386
 3371TIP3   OH231671   1.548   6.065   7.671
 3371TIP3    H131672   1.539   6.152   7.632
 3371TIP3    H231673   1.553   6.080   7.765
 3372TIP3   OH231674   3.513   5.119   8.318
 3372TIP3    H131675   3.529   5.172   8.240
 3372TIP3    H231676   3.545   5.032   8.295
 3373TIP3   OH231677   5.480   2.880   1.424
 3373TIP3    H131678   5.425   2.917   1.494
 3373TIP3    H231679   5.567   2.917   1.439
 3374TIP3   OH231680   4.110   0.415   0.942
 3374TIP3    H131681   4.023   0.376   0.940
 3374TIP3    H231682   4.136   0.412   1.034
 3375TIP3   OH231683   4.905   5.075   0.715
 3375TIP3    H131684   4.973   5.033   0.767
 3375TIP3    H231685   4.885   5.156   0.764
 3376TIP3   OH231686   3.732   4.712   0.503
 3376TIP3    H131687   3.685   4.678   0.578
 3376TIP3    H231688   3.735   4.639   0.441
 3377TIP3   OH231689   3.542   1.697   1.518
 3377TIP3    H131690   3.547   1.793   1.511
 3377TIP3    H231691   3.487   1.682   1.595
 3378TIP3   OH231692   5.539   4.031   0.739
 3378TIP3    H131693   5.535   4.126   0.744
 3378TIP3    H231694   5.448   4.002   0.739
 3379TIP3   OH231695   3.882   4.725   1.174
 3379TIP3    H131696   3.853   4.657   1.234
 3379TIP3    H231697   3.964   4.757   1.212
 3380TIP3   OH231698   1.903   1.610   7.709
 3380TIP3    H131699   1.936   1.534   7.660
 3380TIP3    H231700   1.815   1.585   7.735
 3381TIP3   OH231701   3.294   3.949   0.910
 3381TIP3    H131702   3.374   3.897   0.911
 3381TIP3    H231703   3.229   3.892   0.868
 3382TIP3   OH231704   0.502   2.867   7.544
 3382TIP3    H131705   0.411   2.854   7.570
 3382TIP3    H231706   0.542   2.780   7.549
 3383TIP3   OH231707   2.203   5.566   0.610
 3383TIP3    H131708   2.144   5.585   0.683
 3383TIP3    H231709   2.201   5.471   0.602
 3384TIP3   OH231710   6.291   5.550   7.787
 3384TIP3    H131711   6.235   5.590   7.721
 3384TIP3    H231712   6.300   5.617   7.855
 3385TIP3   OH231713   2.662   0.825   7.852
 3385TIP3    H131714   2.594   0.758   7.865
 3385TIP3    H231715   2.630   0.900   7.901
 3386TIP3   OH231716   1.707   6.635   7.636
 3386TIP3    H131717   1.693   6.726   7.610
 3386TIP3    H231718   1.736   6.592   7.556
 3387TIP3   OH231719   4.096   4.528   6.905
 3387TIP3    H131720   4.176   4.488   6.870
 3387TIP3    H231721   4.052   4.566   6.828
 3388TIP3   OH231722   3.602   5.892   0.372
 3388TIP3    H131723   3.693   5.917   0.383
 3388TIP3    H231724   3.593   5.811   0.423
 3389TIP3   OH231725   3.652   4.131   1.135
 3389TIP3    H131726   3.596   4.138   1.213
 3389TIP3    H231727   3.701   4.213   1.132
 3390TIP3   OH231728   1.697   0.340   0.957
 3390TIP3    H131729   1.616   0.367   1.000
 3390TIP3    H231730   1.766   0.384   1.008
 3391TIP3   OH231731   1.388   3.345   7.710
 3391TIP3    H131732   1.311   3.397   7.733
 3391TIP3    H231733   1.393   3.278   7.778
 3392TIP3   OH231734   3.400   3.669   6.336
 3392TIP3    H131735   3.417   3.691   6.245
 3392TIP3    H231736   3.465   3.603   6.358
 3393TIP3   OH231737   2.673   3.463   1.054
 3393TIP3    H131738   2.628   3.524   1.113
 3393TIP3    H231739   2.727   3.409   1.111
 3394TIP3   OH231740   5.316   6.798   1.303
 3394TIP3    H131741   5.399   6.817   1.259
 3394TIP3    H231742   5.339   6.736   1.373
 3395TIP3   OH231743   4.080   4.739   7.219
 3395TIP3    H131744   4.077   4.760   7.312
 3395TIP3    H231745   4.124   4.655   7.214
 3396TIP3   OH231746   2.273   1.237   1.218
 3396TIP3    H131747   2.323   1.266   1.141
 3396TIP3    H231748   2.273   1.313   1.276
 3397TIP3   OH231749   0.240   1.721   7.054
 3397TIP3    H131750   0.164   1.779   7.062
 3397TIP3    H231751   0.261   1.722   6.961
 3398TIP3   OH231752   4.473   3.740   1.514
 3398TIP3    H131753   4.516   3.771   1.434
 3398TIP3    H231754   4.458   3.819   1.565
 3399TIP3   OH231755   1.615   2.088   8.364
 3399TIP3    H131756   1.539   2.053   8.317
 3399TIP3    H231757   1.607   2.051   8.452
 3400TIP3   OH231758   6.598   1.821   0.024
 3400TIP3    H131759   6.630   1.866   0.102
 3400TIP3    H231760   6.670   1.764   8.711
 3401TIP3   OH231761   5.858   3.629   8.420
 3401TIP3    H131762   5.814   3.563   8.474
 3401TIP3    H231763   5.898   3.579   8.348
 3402TIP3   OH231764   6.150   3.356   1.704
 3402TIP3    H131765   6.098   3.318   1.774
 3402TIP3    H231766   6.107   3.439   1.684
 3403TIP3   OH231767   5.308   2.565   7.996
 3403TIP3    H131768   5.279   2.623   7.925
 3403TIP3    H231769   5.340   2.625   8.064
 3404TIP3   OH231770   3.904   4.467   1.852
 3404TIP3    H131771   3.922   4.518   1.773
 3404TIP3    H231772   3.941   4.520   1.923
 3405TIP3   OH231773   1.806   4.557   6.348
 3405TIP3    H131774   1.726   4.547   6.399
 3405TIP3    H231775   1.815   4.474   6.301
 3406TIP3   OH231776   3.296   4.323   1.459
 3406TIP3    H131777   3.367   4.306   1.520
 3406TIP3    H231778   3.217   4.291   1.504
 3407TIP3   OH231779   1.014   6.645   7.233
 3407TIP3    H131780   1.095   6.676   7.190
 3407TIP3    H231781   1.042   6.622   7.321
 3408TIP3   OH231782   5.928   2.185   0.241
 3408TIP3    H131783   5.878   2.111   0.206
 3408TIP3    H231784   6.018   2.154   0.245
 3409TIP3   OH231785   3.710   3.540   8.351
 3409TIP3    H131786   3.651   3.597   8.401
 3409TIP3    H231787   3.769   3.601   8.307
 3410TIP3   OH231788   5.292   1.265   7.108
 3410TIP3    H131789   5.305   1.221   7.024
 3410TIP3    H231790   5.209   1.312   7.098
 3411TIP3   OH231791   1.686   0.488   0.695
 3411TIP3    H131792   1.597   0.524   0.697
 3411TIP3    H231793   1.696   0.445   0.780
 3412TIP3   OH231794   2.607   4.160   7.892
 3412TIP3    H131795   2.702   4.171   7.890
 3412TIP3    H231796   2.589   4.119   7.976
 3413TIP3   OH231797   2.949   4.911   0.000
 3413TIP3    H131798   2.906   4.916   0.085
 3413TIP3    H231799   3.006   4.835   0.007
 3414TIP3   OH231800   5.035   0.591   2.468
 3414TIP3    H131801   5.094   0.621   2.399
 3414TIP3    H231802   5.065   0.636   2.547
 3415TIP3   OH231803   3.846   0.422   8.178
 3415TIP3    H131804   3.910   0.352   8.161
 3415TIP3    H231805   3.793   0.425   8.099
 3416TIP3   OH231806   4.926   4.067   1.556
 3416TIP3    H131807   4.899   4.041   1.645
 3416TIP3    H231808   5.001   4.125   1.570
 3417TIP3   OH231809   5.255   6.522   2.163
 3417TIP3    H131810   5.218   6.591   2.107
 3417TIP3    H231811   5.180   6.488   2.212
 3418TIP3   OH231812   0.206   5.645   1.447
 3418TIP3    H131813   0.165   5.731   1.460
 3418TIP3    H231814   0.146   5.584   1.488
 3419TIP3   OH231815   3.183   0.028   2.235
 3419TIP3    H131816   3.265   0.072   2.211
 3419TIP3    H231817   3.119   0.063   2.172
 3420TIP3   OH231818   0.304   3.508   1.546
 3420TIP3    H131819   0.287   3.417   1.523
 3420TIP3    H231820   0.312   3.508   1.641
 3421TIP3   OH231821   2.755   2.172   1.769
 3421TIP3    H131822   2.837   2.137   1.801
 3421TIP3    H231823   2.730   2.115   1.697
 3422TIP3   OH231824   1.213   6.526   6.812
 3422TIP3    H131825   1.225   6.442   6.858
 3422TIP3    H231826   1.185   6.501   6.724
 3423TIP3   OH231827   6.207   5.574   8.421
 3423TIP3    H131828   6.257   5.497   8.449
 3423TIP3    H231829   6.149   5.541   8.352
 3424TIP3   OH231830   2.862   3.780   7.630
 3424TIP3    H131831   2.839   3.687   7.627
 3424TIP3    H231832   2.786   3.824   7.590
 3425TIP3   OH231833   0.829   4.909   2.259
 3425TIP3    H131834   0.799   4.825   2.225
 3425TIP3    H231835   0.759   4.970   2.236
 3426TIP3   OH231836   0.556   3.265   0.107
 3426TIP3    H131837   0.613   3.197   0.071
 3426TIP3    H231838   0.600   3.347   0.085
 3427TIP3   OH231839   1.112   6.399   0.453
 3427TIP3    H131840   1.143   6.489   0.444
 3427TIP3    H231841   1.059   6.399   0.533
 3428TIP3   OH231842   0.124   6.378   8.559
 3428TIP3    H131843   0.196   6.413   8.612
 3428TIP3    H231844   0.167   6.342   8.482
 3429TIP3   OH231845   0.307   0.993   0.781
 3429TIP3    H131846   0.383   0.937   0.799
 3429TIP3    H231847   0.233   0.932   0.776
 3430TIP3   OH231848   1.321   1.053   1.049
 3430TIP3    H131849   1.320   1.010   0.964
 3430TIP3    H231850   1.371   1.134   1.034
 3431TIP3   OH231851   2.847   4.505   1.809
 3431TIP3    H131852   2.831   4.459   1.891
 3431TIP3    H231853   2.774   4.567   1.803
 3432TIP3   OH231854   4.166   1.179   1.746
 3432TIP3    H131855   4.199   1.269   1.737
 3432TIP3    H231856   4.175   1.160   1.839
 3433TIP3   OH231857   1.188   2.638   7.826
 3433TIP3    H131858   1.138   2.698   7.881
 3433TIP3    H231859   1.149   2.552   7.841
 3434TIP3   OH231860   4.057   0.809   1.753
 3434TIP3    H131861   3.998   0.869   1.799
 3434TIP3    H231862   4.004   0.730   1.738
 3435TIP3   OH231863   0.557   4.071   0.108
 3435TIP3    H131864   0.525   3.987   0.142
 3435TIP3    H231865   0.478   4.124   0.098
 3436TIP3   OH231866   0.420   0.564   0.627
 3436TIP3    H131867   0.513   0.555   0.606
 3436TIP3    H231868   0.384   0.616   0.555
 3437TIP3   OH231869   1.014   1.188   0.723
 3437TIP3    H131870   1.063   1.247   0.779
 3437TIP3    H231871   0.930   1.176   0.767
 3438TIP3   OH231872   2.873   1.434   8.349
 3438TIP3    H131873   2.815   1.434   8.273
 3438TIP3    H231874   2.928   1.511   8.337
 3439TIP3   OH231875   3.971   2.716   2.062
 3439TIP3    H131876   3.898   2.776   2.067
 3439TIP3    H231877   4.032   2.745   2.129
 3440TIP3   OH231878   1.881   0.054   6.910
 3440TIP3    H131879   1.924   0.048   6.825
 3440TIP3    H231880   1.787   0.055   6.890
 3441TIP3   OH231881   4.422   5.308   6.961
 3441TIP3    H131882   4.467   5.385   6.926
 3441TIP3    H231883   4.333   5.338   6.978
 3442TIP3   OH231884   6.201   4.060   1.698
 3442TIP3    H131885   6.164   4.105   1.773
 3442TIP3    H231886   6.250   3.987   1.735
 3443TIP3   OH231887   3.265   1.722   0.063
 3443TIP3    H131888   3.359   1.714   0.083
 3443TIP3    H231889   3.263   1.754   8.686
 3444TIP3   OH231890   2.737   0.131   7.264
 3444TIP3    H131891   2.761   0.063   7.201
 3444TIP3    H231892   2.644   0.147   7.247
 3445TIP3   OH231893   2.564   3.105   0.513
 3445TIP3    H131894   2.553   3.010   0.524
 3445TIP3    H231895   2.485   3.133   0.466
 3446TIP3   OH231896   5.652   4.839   6.720
 3446TIP3    H131897   5.568   4.851   6.764
 3446TIP3    H231898   5.704   4.914   6.749
 3447TIP3   OH231899   3.682   2.282   7.311
 3447TIP3    H131900   3.688   2.310   7.402
 3447TIP3    H231901   3.617   2.340   7.271
 3448TIP3   OH231902   6.652   2.611   8.564
 3448TIP3    H131903   6.739   2.653   8.565
 3448TIP3    H231904   6.666   2.528   8.609
 3449TIP3   OH231905   3.740   2.060   7.986
 3449TIP3    H131906   3.745   2.153   8.004
 3449TIP3    H231907   3.831   2.030   7.986
 3450TIP3   OH231908   6.651   2.254   7.396
 3450TIP3    H131909   6.708   2.212   7.462
 3450TIP3    H231910   6.696   2.336   7.375
 3451TIP3   OH231911   1.136   3.364   0.969
 3451TIP3    H131912   1.116   3.430   0.902
 3451TIP3    H231913   1.051   3.347   1.011
 3452TIP3   OH231914   3.310   3.486   1.318
 3452TIP3    H131915   3.245   3.442   1.264
 3452TIP3    H231916   3.263   3.510   1.398
 3453TIP3   OH231917   3.143   1.490   0.598
 3453TIP3    H131918   3.196   1.411   0.614
 3453TIP3    H231919   3.191   1.560   0.642
 3454TIP3   OH231920   4.141   0.385   7.270
 3454TIP3    H131921   4.121   0.420   7.183
 3454TIP3    H231922   4.057   0.385   7.315
 3455TIP3   OH231923   3.818   2.247   7.677
 3455TIP3    H131924   3.726   2.249   7.653
 3455TIP3    H231925   3.842   2.154   7.677
 3456TIP3   OH231926   5.206   0.322   8.152
 3456TIP3    H131927   5.146   0.397   8.153
 3456TIP3    H231928   5.155   0.250   8.189
 3457TIP3   OH231929   3.103   4.235   8.169
 3457TIP3    H131930   3.092   4.300   8.238
 3457TIP3    H231931   3.014   4.206   8.149
 3458TIP3   OH231932   2.502   4.198   1.502
 3458TIP3    H131933   2.456   4.196   1.586
 3458TIP3    H231934   2.592   4.172   1.524
 3459TIP3   OH231935   3.250   3.981   1.509
 3459TIP3    H131936   3.192   3.906   1.503
 3459TIP3    H231937   3.309   3.960   1.581
 3460TIP3   OH231938   1.474   6.317   7.594
 3460TIP3    H131939   1.397   6.321   7.651
 3460TIP3    H231940   1.464   6.392   7.535
 3461TIP3   OH231941   0.037   4.313   1.855
 3461TIP3    H131942   0.006   4.223   1.844
 3461TIP3    H231943   6.814   4.354   1.910
 3462TIP3   OH231944   0.241   5.857   8.076
 3462TIP3    H131945   0.236   5.952   8.067
 3462TIP3    H231946   0.151   5.827   8.071
 3463TIP3   OH231947   0.918   2.931   1.092
 3463TIP3    H131948   0.883   2.965   1.010
 3463TIP3    H231949   0.971   3.003   1.127
 3464TIP3   OH231950   3.455   1.036   0.447
 3464TIP3    H131951   3.495   1.099   0.508
 3464TIP3    H231952   3.520   0.967   0.438
 3465TIP3   OH231953   6.631   1.340   1.347
 3465TIP3    H131954   6.570   1.397   1.394
 3465TIP3    H231955   6.715   1.354   1.391
 3466TIP3   OH231956   5.753   5.061   6.853
 3466TIP3    H131957   5.677   5.105   6.815
 3466TIP3    H231958   5.821   5.129   6.856
 3467TIP3   OH231959   0.575   0.140   8.371
 3467TIP3    H131960   0.527   0.111   8.448
 3467TIP3    H231961   0.655   0.087   8.372
 3468TIP3   OH231962   3.732   4.082   8.556
 3468TIP3    H131963   3.720   4.173   8.530
 3468TIP3    H231964   3.793   4.046   8.492
 3469TIP3   OH231965   6.672   2.302   6.818
 3469TIP3    H131966   6.649   2.391   6.789
 3469TIP3    H231967   6.719   2.264   6.744
 3470TIP3   OH231968   3.620   5.875   6.332
 3470TIP3    H131969   3.676   5.842   6.402
 3470TIP3    H231970   3.678   5.880   6.256
 3471TIP3   OH231971   6.483   4.631   0.773
 3471TIP3    H131972   6.441   4.686   0.707
 3471TIP3    H231973   6.576   4.657   0.769
 3472TIP3   OH231974   3.470   3.991   6.341
 3472TIP3    H131975   3.524   3.967   6.266
 3472TIP3    H231976   3.380   3.988   6.308
 3473TIP3   OH231977   0.233   5.754   7.734
 3473TIP3    H131978   0.246   5.749   7.829
 3473TIP3    H231979   0.140   5.772   7.723
 3474TIP3   OH231980   2.109   2.584   7.115
 3474TIP3    H131981   2.035   2.593   7.055
 3474TIP3    H231982   2.068   2.578   7.202
 3475TIP3   OH231983   3.284   5.200   1.745
 3475TIP3    H131984   3.318   5.142   1.678
 3475TIP3    H231985   3.241   5.271   1.697
 3476TIP3   OH231986   1.698   2.944   6.862
 3476TIP3    H131987   1.643   2.979   6.932
 3476TIP3    H231988   1.636   2.922   6.792
 3477TIP3   OH231989   5.031   6.730   7.119
 3477TIP3    H131990   4.978   6.712   7.197
 3477TIP3    H231991   4.974   6.707   7.046
 3478TIP3   OH231992   6.677   5.331   7.875
 3478TIP3    H131993   6.587   5.312   7.900
 3478TIP3    H231994   6.671   5.409   7.819
 3479TIP3   OH231995   4.875   4.017   1.845
 3479TIP3    H131996   4.801   3.965   1.879
 3479TIP3    H231997   4.951   3.961   1.858
 3480TIP3   OH231998   5.920   3.484   0.636
 3480TIP3    H131999   5.951   3.564   0.592
 3480TIP3    H232000   5.931   3.503   0.729
 3481TIP3   OH232001   6.223   4.794   2.083
 3481TIP3    H132002   6.298   4.741   2.056
 3481TIP3    H232003   6.214   4.777   2.177
 3482TIP3   OH232004   6.012   3.726   1.804
 3482TIP3    H132005   5.994   3.645   1.756
 3482TIP3    H232006   5.971   3.713   1.889
 3483TIP3   OH232007   2.377   2.640   1.557
 3483TIP3    H132008   2.294   2.688   1.552
 3483TIP3    H232009   2.422   2.663   1.476
 3484TIP3   OH232010   5.698   5.095   8.246
 3484TIP3    H132011   5.639   5.046   8.189
 3484TIP3    H232012   5.705   5.181   8.206
 3485TIP3   OH232013   3.352   5.864   1.062
 3485TIP3    H132014   3.330   5.851   1.154
 3485TIP3    H232015   3.368   5.958   1.054
 3486TIP3   OH232016   1.742   5.510   0.217
 3486TIP3    H132017   1.810   5.500   0.151
 3486TIP3    H232018   1.708   5.599   0.203
 3487TIP3   OH232019   2.456   0.258   1.026
 3487TIP3    H132020   2.385   0.320   1.043
 3487TIP3    H232021   2.458   0.203   1.104
 3488TIP3   OH232022   5.553   2.793   7.888
 3488TIP3    H132023   5.609   2.861   7.924
 3488TIP3    H232024   5.484   2.781   7.954
 3489TIP3   OH232025   4.532   2.664   0.599
 3489TIP3    H132026   4.577   2.715   0.666
 3489TIP3    H232027   4.595   2.657   0.527
 3490TIP3   OH232028   5.658   4.305   0.164
 3490TIP3    H132029   5.704   4.337   0.242
 3490TIP3    H232030   5.591   4.371   0.147
 3491TIP3   OH232031   0.689   1.241   0.721
 3491TIP3    H132032   0.673   1.147   0.718
 3491TIP3    H232033   0.739   1.254   0.802
 3492TIP3   OH232034   3.868   5.063   0.575
 3492TIP3    H132035   3.924   4.990   0.550
 3492TIP3    H232036   3.921   5.112   0.639
 3493TIP3   OH232037   1.288   5.514   0.140
 3493TIP3    H132038   1.346   5.574   0.186
 3493TIP3    H232039   1.204   5.561   0.137
 3494TIP3   OH232040   3.052   4.167   1.602
 3494TIP3    H132041   3.018   4.113   1.673
 3494TIP3    H232042   3.109   4.108   1.553
 3495TIP3   OH232043   3.854   2.191   1.894
 3495TIP3    H132044   3.818   2.194   1.806
 3495TIP3    H232045   3.872   2.283   1.916
 3496TIP3   OH232046   0.472   2.910   6.858
 3496TIP3    H132047   0.400   2.953   6.811
 3496TIP3    H232048   0.550   2.953   6.825
 3497TIP3   OH232049   5.223   3.369   8.094
 3497TIP3    H132050   5.178   3.320   8.163
 3497TIP3    H232051   5.192   3.329   8.013
 3498TIP3   OH232052   0.980   1.672   7.843
 3498TIP3    H132053   0.907   1.709   7.793
 3498TIP3    H232054   1.031   1.625   7.777
 3499TIP3   OH232055   4.055   5.021   6.199
 3499TIP3    H132056   3.985   4.965   6.165
 3499TIP3    H232057   4.128   4.962   6.213
 3500TIP3   OH232058   4.542   2.685   7.406
 3500TIP3    H132059   4.511   2.690   7.496
 3500TIP3    H232060   4.621   2.740   7.405
 3501TIP3   OH232061   6.129   1.675   0.650
 3501TIP3    H132062   6.087   1.643   0.730
 3501TIP3    H232063   6.213   1.710   0.679
 3502TIP3   OH232064   0.619   6.229   1.250
 3502TIP3    H132065   0.548   6.187   1.202
 3502TIP3    H232066   0.593   6.221   1.342
 3503TIP3   OH232067   5.833   0.686   1.956
 3503TIP3    H132068   5.868   0.599   1.973
 3503TIP3    H232069   5.745   0.670   1.922
 3504TIP3   OH232070   0.675   6.347   0.987
 3504TIP3    H132071   0.735   6.282   0.950
 3504TIP3    H232072   0.673   6.326   1.080
 3505TIP3   OH232073   3.536   6.836   7.557
 3505TIP3    H132074   3.589   6.814   7.480
 3505TIP3    H232075   3.452   6.793   7.542
 3506TIP3   OH232076   4.310   5.778   6.862
 3506TIP3    H132077   4.280   5.695   6.825
 3506TIP3    H232078   4.389   5.800   6.812
 3507TIP3   OH232079   3.981   5.158   1.455
 3507TIP3    H132080   3.896   5.116   1.447
 3507TIP3    H232081   3.967   5.231   1.515
 3508TIP3   OH232082   5.141   0.922   7.910
 3508TIP3    H132083   5.216   0.873   7.877
 3508TIP3    H232084   5.074   0.855   7.923
 3509TIP3   OH232085   2.028   4.338   7.062
 3509TIP3    H132086   2.108   4.307   7.104
 3509TIP3    H232087   2.058   4.402   6.997
 3510TIP3   OH232088   4.241   6.779   1.142
 3510TIP3    H132089   4.328   6.772   1.102
 3510TIP3    H232090   4.217   6.689   1.162
 3511TIP3   OH232091   3.169   0.886   1.051
 3511TIP3    H132092   3.225   0.924   0.983
 3511TIP3    H232093   3.082   0.883   1.011
 3512TIP3   OH232094   3.893   0.828   8.237
 3512TIP3    H132095   3.806   0.859   8.263
 3512TIP3    H232096   3.924   0.777   8.312
 3513TIP3   OH232097   2.161   3.610   0.642
 3513TIP3    H132098   2.129   3.646   0.724
 3513TIP3    H232099   2.245   3.569   0.665
 3514TIP3   OH232100   4.101   5.795   8.283
 3514TIP3    H132101   4.160   5.870   8.274
 3514TIP3    H232102   4.142   5.740   8.349
 3515TIP3   OH232103   3.415   1.285   7.518
 3515TIP3    H132104   3.330   1.245   7.498
 3515TIP3    H232105   3.472   1.256   7.448
 3516TIP3   OH232106   0.948   5.160   0.292
 3516TIP3    H132107   0.889   5.173   0.217
 3516TIP3    H232108   1.028   5.208   0.269
 3517TIP3   OH232109   0.869   0.249   1.424
 3517TIP3    H132110   0.893   0.288   1.340
 3517TIP3    H232111   0.801   0.185   1.404
 3518TIP3   OH232112   6.221   4.575   8.341
 3518TIP3    H132113   6.272   4.564   8.260
 3518TIP3    H232114   6.130   4.568   8.313
 3519TIP3   OH232115   4.831   2.254   1.454
 3519TIP3    H132116   4.874   2.335   1.426
 3519TIP3    H232117   4.811   2.208   1.372
 3520TIP3   OH232118   2.172   1.337   0.030
 3520TIP3    H132119   2.229   1.401   8.702
 3520TIP3    H232120   2.098   1.388   0.064
 3521TIP3   OH232121   3.256   6.733   7.485
 3521TIP3    H132122   3.305   6.701   7.409
 3521TIP3    H232123   3.167   6.747   7.452
 3522TIP3   OH232124   4.671   3.659   0.168
 3522TIP3    H132125   4.641   3.687   0.255
 3522TIP3    H232126   4.616   3.707   0.107
 3523TIP3   OH232127   3.301   2.025   7.508
 3523TIP3    H132128   3.289   2.043   7.415
 3523TIP3    H232129   3.364   1.953   7.510
 3524TIP3   OH232130   4.278   3.362   7.120
 3524TIP3    H132131   4.359   3.334   7.162
 3524TIP3    H232132   4.246   3.284   7.075
 3525TIP3   OH232133   4.437   4.267   1.681
 3525TIP3    H132134   4.367   4.294   1.741
 3525TIP3    H232135   4.503   4.336   1.689
 3526TIP3   OH232136   3.873   0.547   7.294
 3526TIP3    H132137   3.860   0.554   7.200
 3526TIP3    H232138   3.866   0.454   7.313
 3527TIP3   OH232139   2.183   4.727   7.001
 3527TIP3    H132140   2.233   4.727   7.082
 3527TIP3    H232141   2.092   4.741   7.029
 3528TIP3   OH232142   6.798   6.227   1.110
 3528TIP3    H132143   6.780   6.223   1.016
 3528TIP3    H232144   6.745   6.157   1.148
 3529TIP3   OH232145   6.634   2.679   7.191
 3529TIP3    H132146   6.628   2.706   7.283
 3529TIP3    H232147   6.596   2.591   7.189
 3530TIP3   OH232148   1.532   4.491   0.439
 3530TIP3    H132149   1.513   4.585   0.437
 3530TIP3    H232150   1.464   4.454   0.495
 3531TIP3   OH232151   4.255   0.234   7.696
 3531TIP3    H132152   4.233   0.187   7.616
 3531TIP3    H232153   4.234   0.326   7.677
 3532TIP3   OH232154   3.594   3.210   6.922
 3532TIP3    H132155   3.553   3.283   6.969
 3532TIP3    H232156   3.667   3.251   6.874
 3533TIP3   OH232157   6.641   1.437   0.507
 3533TIP3    H132158   6.643   1.412   0.599
 3533TIP3    H232159   6.732   1.433   0.479
 3534TIP3   OH232160   1.962   5.714   1.802
 3534TIP3    H132161   1.907   5.664   1.742
 3534TIP3    H232162   2.018   5.649   1.844
 3535TIP3   OH232163   3.535   1.914   6.632
 3535TIP3    H132164   3.440   1.911   6.621
 3535TIP3    H232165   3.549   1.889   6.723
 3536TIP3   OH232166   0.818   1.272   0.979
 3536TIP3    H132167   0.744   1.212   0.980
 3536TIP3    H232168   0.869   1.248   1.057
 3537TIP3   OH232169   1.932   5.853   6.717
 3537TIP3    H132170   1.994   5.901   6.771
 3537TIP3    H232171   1.947   5.885   6.628
 3538TIP3   OH232172   2.571   4.840   7.430
 3538TIP3    H132173   2.531   4.784   7.496
 3538TIP3    H232174   2.643   4.788   7.394
 3539TIP3   OH232175   2.252   1.187   8.272
 3539TIP3    H132176   2.186   1.255   8.289
 3539TIP3    H232177   2.335   1.230   8.290
 3540TIP3   OH232178   6.065   1.429   7.201
 3540TIP3    H132179   6.099   1.362   7.259
 3540TIP3    H232180   6.114   1.418   7.120
 3541TIP3   OH232181   5.644   1.052   1.471
 3541TIP3    H132182   5.571   0.999   1.503
 3541TIP3    H232183   5.722   1.001   1.493
 3542TIP3   OH232184   3.944   1.485   1.318
 3542TIP3    H132185   3.962   1.575   1.289
 3542TIP3    H232186   4.029   1.442   1.314
 3543TIP3   OH232187   0.353   5.769   1.080
 3543TIP3    H132188   0.418   5.710   1.120
 3543TIP3    H232189   0.273   5.716   1.075
 3544TIP3   OH232190   1.012   5.487   1.141
 3544TIP3    H132191   1.033   5.401   1.104
 3544TIP3    H232192   0.918   5.496   1.129
 3545TIP3   OH232193   0.165   1.570   1.356
 3545TIP3    H132194   0.180   1.646   1.299
 3545TIP3    H232195   0.147   1.498   1.295
 3546TIP3   OH232196   0.491   3.924   6.619
 3546TIP3    H132197   0.581   3.951   6.640
 3546TIP3    H232198   0.436   3.985   6.669
 3547TIP3   OH232199   1.965   3.560   8.419
 3547TIP3    H132200   1.880   3.602   8.432
 3547TIP3    H232201   1.968   3.491   8.485
 3548TIP3   OH232202   5.939   6.774   7.744
 3548TIP3    H132203   5.991   6.733   7.676
 3548TIP3    H232204   5.962   6.726   7.824
 3549TIP3   OH232205   2.888   4.352   7.130
 3549TIP3    H132206   2.977   4.369   7.160
 3549TIP3    H232207   2.879   4.405   7.051
 3550TIP3   OH232208   4.938   1.545   6.785
 3550TIP3    H132209   4.897   1.598   6.716
 3550TIP3    H232210   5.008   1.601   6.819
 3551TIP3   OH232211   2.160   4.897   0.949
 3551TIP3    H132212   2.210   4.966   0.993
 3551TIP3    H232213   2.075   4.897   0.993
 3552TIP3   OH232214   4.541   0.261   7.252
 3552TIP3    H132215   4.496   0.182   7.222
 3552TIP3    H232216   4.563   0.242   7.343
 3553TIP3   OH232217   4.545   1.383   7.889
 3553TIP3    H132218   4.477   1.346   7.833
 3553TIP3    H232219   4.512   1.469   7.914
 3554TIP3   OH232220   5.726   5.226   8.516
 3554TIP3    H132221   5.687   5.277   8.445
 3554TIP3    H232222   5.662   5.157   8.533
 3555TIP3   OH232223   4.758   1.036   0.077
 3555TIP3    H132224   4.834   1.056   0.132
 3555TIP3    H232225   4.754   0.941   0.075
 3556TIP3   OH232226   2.536   6.319   7.300
 3556TIP3    H132227   2.615   6.284   7.341
 3556TIP3    H232228   2.566   6.354   7.217
 3557TIP3   OH232229   2.736   0.203   6.289
 3557TIP3    H132230   2.644   0.179   6.291
 3557TIP3    H232231   2.737   0.297   6.304
 3558TIP3   OH232232   4.515   3.186   1.695
 3558TIP3    H132233   4.463   3.252   1.741
 3558TIP3    H232234   4.460   3.108   1.694
 3559TIP3   OH232235   3.680   1.851   7.036
 3559TIP3    H132236   3.757   1.864   6.981
 3559TIP3    H232237   3.682   1.924   7.098
 3560TIP3   OH232238   0.764   3.356   8.237
 3560TIP3    H132239   0.771   3.304   8.317
 3560TIP3    H232240   0.715   3.434   8.262
 3561TIP3   OH232241   4.016   3.009   8.508
 3561TIP3    H132242   3.925   2.982   8.491
 3561TIP3    H232243   4.022   3.014   8.603
 3562TIP3   OH232244   3.365   0.734   0.809
 3562TIP3    H132245   3.457   0.742   0.783
 3562TIP3    H232246   3.338   0.824   0.827
 3563TIP3   OH232247   0.205   3.840   7.713
 3563TIP3    H132248   0.251   3.875   7.637
 3563TIP3    H232249   0.178   3.752   7.686
 3564TIP3   OH232250   0.631   4.523   2.379
 3564TIP3    H132251   0.619   4.453   2.443
 3564TIP3    H232252   0.543   4.538   2.343
 3565TIP3   OH232253   5.133   4.298   8.370
 3565TIP3    H132254   5.149   4.254   8.453
 3565TIP3    H232255   5.160   4.236   8.303
 3566TIP3   OH232256   3.798   6.146   7.353
 3566TIP3    H132257   3.854   6.211   7.396
 3566TIP3    H232258   3.753   6.195   7.284
 3567TIP3   OH232259   5.938   2.482   0.889
 3567TIP3    H132260   5.843   2.492   0.878
 3567TIP3    H232261   5.966   2.563   0.933
 3568TIP3   OH232262   0.979   4.060   7.236
 3568TIP3    H132263   1.016   4.018   7.159
 3568TIP3    H232264   1.044   4.125   7.261
 3569TIP3   OH232265   0.523   3.971   8.142
 3569TIP3    H132266   0.465   3.918   8.196
 3569TIP3    H232267   0.468   4.001   8.070
 3570TIP3   OH232268   6.255   3.140   0.060
 3570TIP3    H132269   6.209   3.111   0.139
 3570TIP3    H232270   6.188   3.188   0.011
 3571TIP3   OH232271   2.612   0.705   1.592
 3571TIP3    H132272   2.650   0.791   1.611
 3571TIP3    H232273   2.682   0.656   1.550
 3572TIP3   OH232274   1.153   6.051   1.553
 3572TIP3    H132275   1.237   6.007   1.541
 3572TIP3    H232276   1.090   5.979   1.566
 3573TIP3   OH232277   1.103   4.424   1.499
 3573TIP3    H132278   1.008   4.415   1.488
 3573TIP3    H232279   1.129   4.346   1.546
 3574TIP3   OH232280   3.102   1.153   2.022
 3574TIP3    H132281   3.010   1.143   1.998
 3574TIP3    H232282   3.129   1.067   2.052
 3575TIP3   OH232283   5.953   4.961   8.588
 3575TIP3    H132284   6.038   4.963   8.544
 3575TIP3    H232285   5.894   5.006   8.528
 3576TIP3   OH232286   4.538   6.064   7.111
 3576TIP3    H132287   4.530   6.058   7.016
 3576TIP3    H232288   4.449   6.048   7.143
 3577TIP3   OH232289   3.785   2.327   2.162
 3577TIP3    H132290   3.772   2.395   2.096
 3577TIP3    H232291   3.881   2.321   2.172
 3578TIP3   OH232292   3.467   1.332   8.034
 3578TIP3    H132293   3.431   1.328   7.945
 3578TIP3    H232294   3.402   1.382   8.083
 3579TIP3   OH232295   6.336   2.824   1.328
 3579TIP3    H132296   6.342   2.730   1.344
 3579TIP3    H232297   6.322   2.862   1.415
 3580TIP3   OH232298   4.146   5.763   1.584
 3580TIP3    H132299   4.082   5.748   1.514
 3580TIP3    H232300   4.109   5.835   1.635
 3581TIP3   OH232301   0.738   5.146   7.350
 3581TIP3    H132302   0.705   5.075   7.406
 3581TIP3    H232303   0.802   5.191   7.405
 3582TIP3   OH232304   1.486   5.825   6.709
 3582TIP3    H132305   1.489   5.789   6.797
 3582TIP3    H232306   1.445   5.757   6.656
 3583TIP3   OH232307   5.079   6.807   8.094
 3583TIP3    H132308   5.149   6.757   8.136
 3583TIP3    H232309   5.028   6.843   8.166
 3584TIP3   OH232310   3.458   4.419   8.433
 3584TIP3    H132311   3.520   4.347   8.428
 3584TIP3    H232312   3.481   4.476   8.359
 3585TIP3   OH232313   0.976   2.897   0.007
 3585TIP3    H132314   0.954   2.825   8.660
 3585TIP3    H232315   0.978   2.974   8.664
 3586TIP3   OH232316   2.932   6.470   1.828
 3586TIP3    H132317   2.935   6.545   1.887
 3586TIP3    H232318   2.925   6.509   1.740
 3587TIP3   OH232319   3.009   3.972   8.338
 3587TIP3    H132320   2.982   4.062   8.357
 3587TIP3    H232321   2.928   3.924   8.322
 3588TIP3   OH232322   2.578   6.330   1.375
 3588TIP3    H132323   2.592   6.391   1.448
 3588TIP3    H232324   2.664   6.295   1.355
 3589TIP3   OH232325   6.277   0.892   7.454
 3589TIP3    H132326   6.319   0.879   7.539
 3589TIP3    H232327   6.332   0.844   7.392
 3590TIP3   OH232328   3.574   0.445   1.086
 3590TIP3    H132329   3.576   0.375   1.151
 3590TIP3    H232330   3.490   0.489   1.100
 3591TIP3   OH232331   5.607   5.572   6.396
 3591TIP3    H132332   5.699   5.558   6.418
 3591TIP3    H232333   5.592   5.665   6.413
 3592TIP3   OH232334   4.566   6.344   7.207
 3592TIP3    H132335   4.557   6.253   7.178
 3592TIP3    H232336   4.630   6.340   7.278
 3593TIP3   OH232337   4.111   3.438   0.492
 3593TIP3    H132338   4.106   3.532   0.478
 3593TIP3    H232339   4.143   3.429   0.581
 3594TIP3   OH232340   5.860   3.752   2.050
 3594TIP3    H132341   5.773   3.715   2.036
 3594TIP3    H232342   5.875   3.744   2.144
 3595TIP3   OH232343   2.777   1.188   1.577
 3595TIP3    H132344   2.818   1.211   1.494
 3595TIP3    H232345   2.823   1.240   1.642
 3596TIP3   OH232346   2.285   4.825   8.359
 3596TIP3    H132347   2.319   4.910   8.386
 3596TIP3    H232348   2.194   4.841   8.336
 3597TIP3   OH232349   6.534   3.655   7.033
 3597TIP3    H132350   6.505   3.563   7.028
 3597TIP3    H232351   6.505   3.684   7.119
 3598TIP3   OH232352   0.152   3.448   1.873
 3598TIP3    H132353   0.149   3.364   1.920
 3598TIP3    H232354   0.243   3.455   1.844
 3599TIP3   OH232355   1.484   2.673   7.294
 3599TIP3    H132356   1.431   2.737   7.342
 3599TIP3    H232357   1.434   2.655   7.214
 3600TIP3   OH232358   5.992   4.231   8.230
 3600TIP3    H132359   5.907   4.194   8.251
 3600TIP3    H232360   6.019   4.188   8.149
 3601TIP3   OH232361   4.967   5.796   2.135
 3601TIP3    H132362   4.970   5.757   2.222
 3601TIP3    H232363   5.035   5.864   2.137
 3602TIP3   OH232364   5.361   4.867   1.089
 3602TIP3    H132365   5.447   4.855   1.049
 3602TIP3    H232366   5.365   4.956   1.126
 3603TIP3   OH232367   0.473   1.845   8.417
 3603TIP3    H132368   0.539   1.878   8.356
 3603TIP3    H232369   0.433   1.771   8.372
 3604TIP3   OH232370   1.753   6.134   0.553
 3604TIP3    H132371   1.757   6.224   0.585
 3604TIP3    H232372   1.840   6.099   0.569
 3605TIP3   OH232373   1.680   3.858   7.899
 3605TIP3    H132374   1.627   3.916   7.954
 3605TIP3    H232375   1.624   3.782   7.883
 3606TIP3   OH232376   0.728   5.209   6.257
 3606TIP3    H132377   0.658   5.145   6.258
 3606TIP3    H232378   0.797   5.170   6.312
 3607TIP3   OH232379   0.621   4.861   0.850
 3607TIP3    H132380   0.584   4.935   0.899
 3607TIP3    H232381   0.707   4.847   0.889
 3608TIP3   OH232382   3.128   3.027   7.686
 3608TIP3    H132383   3.159   2.954   7.632
 3608TIP3    H232384   3.144   3.105   7.632
 3609TIP3   OH232385   3.814   0.307   7.633
 3609TIP3    H132386   3.763   0.252   7.693
 3609TIP3    H232387   3.814   0.393   7.674
 3610TIP3   OH232388   5.220   5.788   0.348
 3610TIP3    H132389   5.315   5.785   0.347
 3610TIP3    H232390   5.199   5.873   0.387
 3611TIP3   OH232391   4.455   5.554   6.508
 3611TIP3    H132392   4.445   5.531   6.415
 3611TIP3    H232393   4.452   5.650   6.510
 3612TIP3   OH232394   1.046   0.043   0.851
 3612TIP3    H132395   1.020   6.813   0.907
 3612TIP3    H232396   1.133   0.019   0.820
 3613TIP3   OH232397   1.802   4.711   6.904
 3613TIP3    H132398   1.744   4.644   6.939
 3613TIP3    H232399   1.841   4.751   6.982
 3614TIP3   OH232400   1.678   0.693   7.176
 3614TIP3    H132401   1.586   0.694   7.203
 3614TIP3    H232402   1.721   0.755   7.235
 3615TIP3   OH232403   3.334   2.719   1.045
 3615TIP3    H132404   3.311   2.628   1.027
 3615TIP3    H232405   3.258   2.756   1.089
 3616TIP3   OH232406   4.164   5.387   6.953
 3616TIP3    H132407   4.167   5.479   6.980
 3616TIP3    H232408   4.071   5.364   6.959
 3617TIP3   OH232409   2.468   1.717   7.217
 3617TIP3    H132410   2.459   1.708   7.312
 3617TIP3    H232411   2.378   1.729   7.186
 3618TIP3   OH232412   6.256   5.830   0.664
 3618TIP3    H132413   6.284   5.745   0.697
 3618TIP3    H232414   6.168   5.843   0.699
 3619TIP3   OH232415   5.210   1.476   0.830
 3619TIP3    H132416   5.247   1.564   0.829
 3619TIP3    H232417   5.143   1.479   0.898
 3620TIP3   OH232418   1.774   5.826   8.566
 3620TIP3    H132419   1.734   5.845   8.651
 3620TIP3    H232420   1.713   5.863   8.502
 3621TIP3   OH232421   4.498   6.504   8.669
 3621TIP3    H132422   4.444   6.581   8.648
 3621TIP3    H232423   4.566   6.538   0.014
 3622TIP3   OH232424   3.347   0.196   1.450
 3622TIP3    H132425   3.376   0.117   1.404
 3622TIP3    H232426   3.254   0.202   1.432
 3623TIP3   OH232427   3.372   6.000   0.069
 3623TIP3    H132428   3.447   5.945   0.091
 3623TIP3    H232429   3.296   5.941   0.071
 3624TIP3   OH232430   4.840   0.952   7.874
 3624TIP3    H132431   4.892   0.882   7.912
 3624TIP3    H232432   4.889   1.032   7.892
 3625TIP3   OH232433   3.105   3.659   0.040
 3625TIP3    H132434   3.053   3.702   8.685
 3625TIP3    H232435   3.156   3.593   8.706
 3626TIP3   OH232436   4.424   2.560   0.108
 3626TIP3    H132437   4.413   2.512   0.026
 3626TIP3    H232438   4.402   2.496   0.176
 3627TIP3   OH232439   0.979   2.184   8.373
 3627TIP3    H132440   1.038   2.226   8.310
 3627TIP3    H232441   0.895   2.179   8.328
 3628TIP3   OH232442   0.954   2.582   0.877
 3628TIP3    H132443   1.048   2.591   0.858
 3628TIP3    H232444   0.927   2.505   0.827
 3629TIP3   OH232445   0.652   6.235   8.198
 3629TIP3    H132446   0.609   6.295   8.259
 3629TIP3    H232447   0.684   6.164   8.253
 3630TIP3   OH232448   6.525   5.328   0.175
 3630TIP3    H132449   6.546   5.421   0.169
 3630TIP3    H232450   6.530   5.308   0.269
 3631TIP3   OH232451   0.352   1.636   8.256
 3631TIP3    H132452   0.274   1.603   8.301
 3631TIP3    H232453   0.389   1.560   8.212
 3632TIP3   OH232454   0.746   3.216   1.100
 3632TIP3    H132455   0.728   3.125   1.076
 3632TIP3    H232456   0.665   3.246   1.142
 3633TIP3   OH232457   0.279   0.685   0.939
 3633TIP3    H132458   0.208   0.692   0.875
 3633TIP3    H232459   0.278   0.592   0.965
 3634TIP3   OH232460   5.019   5.932   1.831
 3634TIP3    H132461   4.957   5.917   1.903
 3634TIP3    H232462   5.006   5.857   1.773
 3635TIP3   OH232463   0.241   4.888   0.623
 3635TIP3    H132464   0.215   4.870   0.533
 3635TIP3    H232465   0.309   4.823   0.641
 3636TIP3   OH232466   2.487   0.756   8.499
 3636TIP3    H132467   2.453   0.671   8.469
 3636TIP3    H232468   2.524   0.738   8.585
 3637TIP3   OH232469   5.997   2.367   7.439
 3637TIP3    H132470   5.989   2.292   7.497
 3637TIP3    H232471   5.955   2.439   7.487
 3638TIP3   OH232472   0.891   2.258   1.348
 3638TIP3    H132473   0.966   2.232   1.402
 3638TIP3    H232474   0.877   2.351   1.369
 3639TIP3   OH232475   3.660   0.281   0.584
 3639TIP3    H132476   3.741   0.331   0.596
 3639TIP3    H232477   3.613   0.291   0.667
 3640TIP3   OH232478   0.796   0.211   2.398
 3640TIP3    H132479   0.797   0.174   2.309
 3640TIP3    H232480   0.888   0.227   2.418
 3641TIP3   OH232481   2.744   4.142   1.932
 3641TIP3    H132482   2.712   4.231   1.944
 3641TIP3    H232483   2.664   4.089   1.929
 3642TIP3   OH232484   2.020   0.809   6.653
 3642TIP3    H132485   2.052   0.841   6.569
 3642TIP3    H232486   1.943   0.757   6.631
 3643TIP3   OH232487   1.374   4.710   7.494
 3643TIP3    H132488   1.310   4.749   7.553
 3643TIP3    H232489   1.407   4.784   7.442
 3644TIP3   OH232490   3.194   6.760   0.940
 3644TIP3    H132491   3.196   6.668   0.968
 3644TIP3    H232492   3.115   6.767   0.887
 3645TIP3   OH232493   6.098   6.373   1.866
 3645TIP3    H132494   6.150   6.453   1.868
 3645TIP3    H232495   6.097   6.342   1.956
 3646TIP3   OH232496   0.678   4.565   7.283
 3646TIP3    H132497   0.656   4.588   7.193
 3646TIP3    H232498   0.597   4.530   7.320
 3647TIP3   OH232499   4.652   4.797   8.320
 3647TIP3    H132500   4.701   4.715   8.317
 3647TIP3    H232501   4.717   4.863   8.344
 3648TIP3   OH232502   6.821   3.613   7.037
 3648TIP3    H132503   6.840   3.705   7.057
 3648TIP3    H232504   6.726   3.606   7.042
 3649TIP3   OH232505   0.764   0.788   7.817
 3649TIP3    H132506   0.708   0.855   7.777
 3649TIP3    H232507   0.824   0.837   7.873
 3650TIP3   OH232508   3.765   4.024   6.919
 3650TIP3    H132509   3.814   4.054   6.995
 3650TIP3    H232510   3.831   4.013   6.851
 3651TIP3   OH232511   6.615   5.056   7.067
 3651TIP3    H132512   6.666   5.080   6.989
 3651TIP3    H232513   6.641   4.966   7.086
 3652TIP3   OH232514   4.521   5.295   7.717
 3652TIP3    H132515   4.463   5.371   7.728
 3652TIP3    H232516   4.604   5.333   7.689
 3653TIP3   OH232517   4.429   6.132   7.893
 3653TIP3    H132518   4.345   6.094   7.921
 3653TIP3    H232519   4.405   6.215   7.853
 3654TIP3   OH232520   3.022   4.832   0.845
 3654TIP3    H132521   3.087   4.902   0.843
 3654TIP3    H232522   3.025   4.794   0.757
 3655TIP3   OH232523   4.379   2.116   7.508
 3655TIP3    H132524   4.429   2.146   7.432
 3655TIP3    H232525   4.417   2.163   7.582
 3656TIP3   OH232526   1.536   3.541   7.552
 3656TIP3    H132527   1.628   3.515   7.553
 3656TIP3    H232528   1.490   3.467   7.592
 3657TIP3   OH232529   4.858   3.214   0.590
 3657TIP3    H132530   4.923   3.201   0.659
 3657TIP3    H232531   4.889   3.159   0.517
 3658TIP3   OH232532   4.822   1.521   8.010
 3658TIP3    H132533   4.874   1.445   8.038
 3658TIP3    H232534   4.804   1.569   8.091
 3659TIP3   OH232535   1.142   3.760   7.217
 3659TIP3    H132536   1.153   3.730   7.127
 3659TIP3    H232537   1.171   3.687   7.271
 3660TIP3   OH232538   4.275   4.751   8.712
 3660TIP3    H132539   4.339   4.719   8.649
 3660TIP3    H232540   4.326   4.771   0.077
 3661TIP3   OH232541   6.372   1.056   8.153
 3661TIP3    H132542   6.410   1.140   8.178
 3661TIP3    H232543   6.365   1.060   8.058
 3662TIP3   OH232544   6.729   3.716   8.342
 3662TIP3    H132545   6.704   3.736   8.252
 3662TIP3    H232546   6.820   3.687   8.336
 3663TIP3   OH232547   2.627   6.570   7.624
 3663TIP3    H132548   2.569   6.581   7.699
 3663TIP3    H232549   2.683   6.648   7.626
 3664TIP3   OH232550   3.672   5.467   2.330
 3664TIP3    H132551   3.744   5.530   2.336
 3664TIP3    H232552   3.597   5.519   2.304
 3665TIP3   OH232553   3.788   3.832   0.203
 3665TIP3    H132554   3.768   3.828   0.109
 3665TIP3    H232555   3.707   3.863   0.243
 3666TIP3   OH232556   1.649   5.627   7.694
 3666TIP3    H132557   1.729   5.649   7.647
 3666TIP3    H232558   1.591   5.701   7.676
 3667TIP3   OH232559   5.533   1.501   2.124
 3667TIP3    H132560   5.539   1.575   2.063
 3667TIP3    H232561   5.464   1.445   2.088
 3668TIP3   OH232562   5.576   3.899   1.865
 3668TIP3    H132563   5.522   3.977   1.880
 3668TIP3    H232564   5.665   3.927   1.888
 3669TIP3   OH232565   0.467   2.450   1.721
 3669TIP3    H132566   0.391   2.417   1.673
 3669TIP3    H232567   0.484   2.536   1.682
 3670TIP3   OH232568   1.404   3.649   0.187
 3670TIP3    H132569   1.332   3.593   0.159
 3670TIP3    H232570   1.403   3.644   0.282
 3671TIP3   OH232571   3.366   5.888   0.641
 3671TIP3    H132572   3.446   5.923   0.682
 3671TIP3    H232573   3.320   5.845   0.713
 3672TIP3   OH232574   2.361   0.646   7.466
 3672TIP3    H132575   2.390   0.568   7.515
 3672TIP3    H232576   2.274   0.665   7.501
 3673TIP3   OH232577   2.200   2.485   0.021
 3673TIP3    H132578   2.268   2.421   0.001
 3673TIP3    H232579   2.123   2.453   8.687
 3674TIP3   OH232580   2.782   4.024   2.304
 3674TIP3    H132581   2.710   4.084   2.323
 3674TIP3    H232582   2.740   3.949   2.262
 3675TIP3   OH232583   2.989   3.456   6.305
 3675TIP3    H132584   2.932   3.523   6.268
 3675TIP3    H232585   2.960   3.375   6.263
 3676TIP3   OH232586   1.827   5.507   8.270
 3676TIP3    H132587   1.819   5.419   8.308
 3676TIP3    H232588   1.918   5.511   8.239
 3677TIP3   OH232589   2.095   4.514   6.872
 3677TIP3    H132590   2.100   4.605   6.900
 3677TIP3    H232591   2.186   4.488   6.861
 3678TIP3   OH232592   4.167   0.980   2.227
 3678TIP3    H132593   4.210   0.914   2.282
 3678TIP3    H232594   4.076   0.951   2.223
 3679TIP3   OH232595   3.320   0.070   1.870
 3679TIP3    H132596   3.265   0.126   1.926
 3679TIP3    H232597   3.386   0.035   1.929
 3680TIP3   OH232598   3.017   6.694   1.977
 3680TIP3    H132599   3.016   6.785   2.006
 3680TIP3    H232600   2.969   6.646   2.045
 3681TIP3   OH232601   5.037   4.992   1.739
 3681TIP3    H132602   5.059   5.062   1.800
 3681TIP3    H232603   4.969   5.030   1.682
 3682TIP3   OH232604   4.091   1.857   1.526
 3682TIP3    H132605   4.086   1.768   1.560
 3682TIP3    H232606   4.174   1.860   1.480
 3683TIP3   OH232607   3.626   3.702   1.482
 3683TIP3    H132608   3.565   3.673   1.550
 3683TIP3    H232609   3.615   3.798   1.480
 3684TIP3   OH232610   4.007   6.043   7.886
 3684TIP3    H132611   3.938   5.987   7.922
 3684TIP3    H232612   3.962   6.101   7.825
 3685TIP3   OH232613   0.855   4.852   8.469
 3685TIP3    H132614   0.909   4.773   8.465
 3685TIP3    H232615   0.882   4.896   8.549
 3686TIP3   OH232616   2.177   5.636   6.660
 3686TIP3    H132617   2.190   5.613   6.752
 3686TIP3    H232618   2.155   5.553   6.617
 3687TIP3   OH232619   4.323   2.609   8.465
 3687TIP3    H132620   4.385   2.646   8.528
 3687TIP3    H232621   4.379   2.570   8.398
 3688TIP3   OH232622   1.644   0.541   7.562
 3688TIP3    H132623   1.664   0.537   7.655
 3688TIP3    H232624   1.724   0.574   7.521
 3689TIP3   OH232625   0.568   5.103   0.944
 3689TIP3    H132626   0.513   5.178   0.967
 3689TIP3    H232627   0.639   5.140   0.891
 3690TIP3   OH232628   3.017   4.204   6.755
 3690TIP3    H132629   3.037   4.294   6.730
 3690TIP3    H232630   3.053   4.151   6.684
 3691TIP3   OH232631   6.090   1.315   1.734
 3691TIP3    H132632   6.099   1.235   1.682
 3691TIP3    H232633   6.010   1.300   1.785
 3692TIP3   OH232634   6.243   6.010   8.040
 3692TIP3    H132635   6.160   5.980   8.002
 3692TIP3    H232636   6.238   5.983   8.132
 3693TIP3   OH232637   6.552   3.730   1.865
 3693TIP3    H132638   6.631   3.782   1.877
 3693TIP3    H232639   6.548   3.714   1.771
 3694TIP3   OH232640   1.810   3.859   8.678
 3694TIP3    H132641   1.778   3.942   8.642
 3694TIP3    H232642   1.763   3.792   8.628
 3695TIP3   OH232643   5.062   0.315   2.414
 3695TIP3    H132644   4.969   0.297   2.428
 3695TIP3    H232645   5.070   0.410   2.420
 3696TIP3   OH232646   0.035   5.873   1.433
 3696TIP3    H132647   6.809   5.810   1.454
 3696TIP3    H232648   0.010   5.909   1.348
 3697TIP3   OH232649   3.065   5.886   2.137
 3697TIP3    H132650   3.055   5.828   2.062
 3697TIP3    H232651   3.160   5.893   2.150
 3698TIP3   OH232652   0.114   2.315   2.033
 3698TIP3    H132653   0.152   2.372   1.967
 3698TIP3    H232654   0.158   2.231   2.021
 3699TIP3   OH232655   2.071   1.026   7.802
 3699TIP3    H132656   2.104   0.990   7.884
 3699TIP3    H232657   2.060   1.119   7.819
 3700TIP3   OH232658   5.270   2.335   7.863
 3700TIP3    H132659   5.253   2.422   7.900
 3700TIP3    H232660   5.237   2.274   7.929
 3701TIP3   OH232661   2.053   0.660   8.338
 3701TIP3    H132662   2.066   0.582   8.283
 3701TIP3    H232663   1.959   0.663   8.354
 3702TIP3   OH232664   6.301   6.555   1.935
 3702TIP3    H132665   6.281   6.607   2.013
 3702TIP3    H232666   6.391   6.578   1.913
 3703TIP3   OH232667   2.947   1.210   1.149
 3703TIP3    H132668   2.951   1.115   1.149
 3703TIP3    H232669   2.950   1.235   1.057
 3704TIP3   OH232670   4.509   4.561   0.225
 3704TIP3    H132671   4.505   4.640   0.170
 3704TIP3    H232672   4.433   4.569   0.283
 3705TIP3   OH232673   1.466   5.773   1.281
 3705TIP3    H132674   1.507   5.847   1.236
 3705TIP3    H232675   1.522   5.699   1.259
 3706TIP3   OH232676   6.637   3.318   6.626
 3706TIP3    H132677   6.634   3.336   6.532
 3706TIP3    H232678   6.548   3.292   6.649
 3707TIP3   OH232679   0.092   6.419   7.029
 3707TIP3    H132680   0.151   6.483   7.070
 3707TIP3    H232681   0.059   6.463   6.951
 3708TIP3   OH232682   6.630   6.238   7.569
 3708TIP3    H132683   6.692   6.306   7.597
 3708TIP3    H232684   6.549   6.286   7.552
 3709TIP3   OH232685   5.826   6.487   7.441
 3709TIP3    H132686   5.807   6.559   7.500
 3709TIP3    H232687   5.890   6.523   7.380
 3710TIP3   OH232688   0.628   4.576   0.793
 3710TIP3    H132689   0.613   4.670   0.806
 3710TIP3    H232690   0.564   4.534   0.850
 3711TIP3   OH232691   3.940   5.755   1.403
 3711TIP3    H132692   3.865   5.811   1.381
 3711TIP3    H232693   3.901   5.674   1.437
 3712TIP3   OH232694   0.586   5.344   7.241
 3712TIP3    H132695   0.642   5.271   7.265
 3712TIP3    H232696   0.552   5.377   7.324
 3713TIP3   OH232697   3.629   2.419   7.571
 3713TIP3    H132698   3.669   2.465   7.645
 3713TIP3    H232699   3.567   2.482   7.535
 3714TIP3   OH232700   0.970   4.016   8.035
 3714TIP3    H132701   0.919   4.022   8.116
 3714TIP3    H232702   0.906   4.021   7.965
 3715TIP3   OH232703   4.346   1.306   7.688
 3715TIP3    H132704   4.353   1.362   7.611
 3715TIP3    H232705   4.387   1.224   7.662
 3716TIP3   OH232706   3.828   3.361   6.830
 3716TIP3    H132707   3.866   3.404   6.906
 3716TIP3    H232708   3.864   3.408   6.755
 3717TIP3   OH232709   0.202   5.652   0.311
 3717TIP3    H132710   0.274   5.686   0.364
 3717TIP3    H232711   0.243   5.586   0.254
 3718TIP3   OH232712   1.835   6.513   0.543
 3718TIP3    H132713   1.914   6.459   0.544
 3718TIP3    H232714   1.823   6.540   0.634
 3719TIP3   OH232715   1.942   6.612   6.869
 3719TIP3    H132716   1.854   6.646   6.880
 3719TIP3    H232717   1.936   6.521   6.897
 3720TIP3   OH232718   3.289   5.604   0.312
 3720TIP3    H132719   3.294   5.669   0.382
 3720TIP3    H232720   3.330   5.526   0.348
 3721TIP3   OH232721   5.250   2.733   7.201
 3721TIP3    H132722   5.271   2.806   7.260
 3721TIP3    H232723   5.292   2.657   7.240
 3722TIP3   OH232724   0.709   3.953   6.991
 3722TIP3    H132725   0.728   3.945   6.898
 3722TIP3    H232726   0.756   4.033   7.018
 3723TIP3   OH232727   5.767   5.076   7.951
 3723TIP3    H132728   5.823   5.117   7.885
 3723TIP3    H232729   5.818   5.080   8.032
 3724TIP3   OH232730   0.569   3.922   8.534
 3724TIP3    H132731   0.496   3.978   8.506
 3724TIP3    H232732   0.630   3.983   8.576
 3725TIP3   OH232733   1.931   1.243   7.008
 3725TIP3    H132734   1.888   1.174   6.957
 3725TIP3    H232735   1.958   1.308   6.943
 3726TIP3   OH232736   3.035   6.135   0.802
 3726TIP3    H132737   3.048   6.227   0.777
 3726TIP3    H232738   3.092   6.123   0.878
 3727TIP3   OH232739   6.048   5.473   7.520
 3727TIP3    H132740   6.134   5.513   7.504
 3727TIP3    H232741   5.994   5.544   7.555
 3728TIP3   OH232742   4.151   1.250   2.011
 3728TIP3    H132743   4.183   1.336   2.038
 3728TIP3    H232744   4.061   1.246   2.044
 3729TIP3   OH232745   6.181   0.602   1.963
 3729TIP3    H132746   6.229   0.614   2.044
 3729TIP3    H232747   6.143   0.515   1.969
 3730TIP3   OH232748   3.771   6.006   1.736
 3730TIP3    H132749   3.764   6.090   1.781
 3730TIP3    H232750   3.743   5.942   1.801
 3731TIP3   OH232751   5.713   2.479   1.128
 3731TIP3    H132752   5.785   2.451   1.071
 3731TIP3    H232753   5.634   2.452   1.081
 3732TIP3   OH232754   1.335   0.193   7.465
 3732TIP3    H132755   1.367   0.282   7.451
 3732TIP3    H232756   1.316   0.160   7.377
 3733TIP3   OH232757   0.055   0.248   6.923
 3733TIP3    H132758   0.011   0.293   6.851
 3733TIP3    H232759   6.842   0.173   6.942
 3734TIP3   OH232760   5.228   0.369   8.512
 3734TIP3    H132761   5.219   0.399   8.422
 3734TIP3    H232762   5.228   0.274   8.506
 3735TIP3   OH232763   1.902   4.650   6.648
 3735TIP3    H132764   1.857   4.623   6.728
 3735TIP3    H232765   1.887   4.578   6.587
 3736TIP3   OH232766   3.724   3.342   7.823
 3736TIP3    H132767   3.706   3.434   7.806
 3736TIP3    H232768   3.669   3.295   7.759
 3737TIP3   OH232769   2.788   4.413   6.569
 3737TIP3    H132770   2.810   4.433   6.660
 3737TIP3    H232771   2.693   4.402   6.570
 3738TIP3   OH232772   2.811   4.630   0.766
 3738TIP3    H132773   2.895   4.612   0.725
 3738TIP3    H232774   2.765   4.546   0.765
 3739TIP3   OH232775   1.157   3.772   8.485
 3739TIP3    H132776   1.169   3.861   8.451
 3739TIP3    H232777   1.128   3.785   8.575
 3740TIP3   OH232778   0.349   3.537   0.001
 3740TIP3    H132779   0.345   3.628   8.684
 3740TIP3    H232780   0.413   3.539   0.072
 3741TIP3   OH232781   5.079   6.020   0.601
 3741TIP3    H132782   5.095   6.115   0.603
 3741TIP3    H232783   5.021   6.004   0.675
 3742TIP3   OH232784   6.162   0.897   2.253
 3742TIP3    H132785   6.171   0.874   2.345
 3742TIP3    H232786   6.248   0.931   2.227
 3743TIP3   OH232787   3.102   4.296   0.292
 3743TIP3    H132788   3.040   4.366   0.271
 3743TIP3    H232789   3.068   4.219   0.246
 3744TIP3   OH232790   0.698   4.161   2.194
 3744TIP3    H132791   0.666   4.071   2.195
 3744TIP3    H232792   0.767   4.164   2.261
 3745TIP3   OH232793   5.940   5.979   2.076
 3745TIP3    H132794   5.945   5.884   2.076
 3745TIP3    H232795   5.988   6.006   2.154
 3746TIP3   OH232796   0.181   0.274   1.872
 3746TIP3    H132797   0.112   0.340   1.872
 3746TIP3    H232798   0.142   0.199   1.918
 3747TIP3   OH232799   6.270   2.273   8.093
 3747TIP3    H132800   6.246   2.364   8.113
 3747TIP3    H232801   6.352   2.259   8.141
 3748TIP3   OH232802   4.522   1.750   0.841
 3748TIP3    H132803   4.550   1.662   0.865
 3748TIP3    H232804   4.467   1.738   0.764
 3749TIP3   OH232805   1.315   0.916   7.412
 3749TIP3    H132806   1.353   0.959   7.489
 3749TIP3    H232807   1.225   0.949   7.407
 3750TIP3   OH232808   6.139   4.344   7.396
 3750TIP3    H132809   6.173   4.263   7.359
 3750TIP3    H232810   6.125   4.402   7.321
 3751TIP3   OH232811   4.276   1.413   1.763
 3751TIP3    H132812   4.270   1.458   1.847
 3751TIP3    H232813   4.367   1.425   1.736
 3752TIP3   OH232814   3.917   1.267   1.674
 3752TIP3    H132815   3.873   1.266   1.759
 3752TIP3    H232816   4.003   1.229   1.691
 3753TIP3   OH232817   3.830   1.043   1.160
 3753TIP3    H132818   3.923   1.022   1.173
 3753TIP3    H232819   3.803   0.988   1.087
 3754TIP3   OH232820   3.580   1.912   8.434
 3754TIP3    H132821   3.495   1.887   8.471
 3754TIP3    H232822   3.640   1.845   8.465
 3755TIP3   OH232823   4.874   1.270   1.016
 3755TIP3    H132824   4.896   1.191   0.967
 3755TIP3    H232825   4.847   1.238   1.102
 3756TIP3   OH232826   4.015   1.025   2.604
 3756TIP3    H132827   3.990   1.104   2.557
 3756TIP3    H232828   3.937   0.970   2.601
 3757TIP3   OH232829   0.289   0.532   2.307
 3757TIP3    H132830   0.246   0.599   2.254
 3757TIP3    H232831   0.217   0.476   2.338
 3758TIP3   OH232832   6.564   6.778   8.140
 3758TIP3    H132833   6.623   6.702   8.145
 3758TIP3    H232834   6.573   6.820   8.226
 3759TIP3   OH232835   2.929   1.954   0.421
 3759TIP3    H132836   3.010   1.903   0.419
 3759TIP3    H232837   2.868   1.899   0.469
 3760TIP3   OH232838   3.534   0.007   6.154
 3760TIP3    H132839   3.606   6.832   6.094
 3760TIP3    H232840   3.463   6.791   6.126
 3761TIP3   OH232841   0.790   3.791   7.276
 3761TIP3    H132842   0.814   3.883   7.265
 3761TIP3    H232843   0.697   3.788   7.256
 3762TIP3   OH232844   3.529   6.534   1.664
 3762TIP3    H132845   3.568   6.524   1.577
 3762TIP3    H232846   3.507   6.627   1.670
 3763TIP3   OH232847   1.307   0.300   0.256
 3763TIP3    H132848   1.324   0.237   0.325
 3763TIP3    H232849   1.339   0.258   0.176
 3764TIP3   OH232850   2.289   3.699   0.170
 3764TIP3    H132851   2.278   3.793   0.180
 3764TIP3    H232852   2.201   3.663   0.177
 3765TIP3   OH232853   0.962   6.097   1.838
 3765TIP3    H132854   0.961   6.025   1.901
 3765TIP3    H232855   1.022   6.068   1.769
 3766TIP3   OH232856   3.499   3.892   7.850
 3766TIP3    H132857   3.561   3.917   7.919
 3766TIP3    H232858   3.531   3.936   7.771
 3767TIP3   OH232859   6.064   3.680   7.565
 3767TIP3    H132860   6.039   3.587   7.561
 3767TIP3    H232861   6.073   3.706   7.473
 3768TIP3   OH232862   2.605   3.137   0.064
 3768TIP3    H132863   2.587   3.061   0.009
 3768TIP3    H232864   2.526   3.190   0.059
 3769TIP3   OH232865   6.565   4.930   7.734
 3769TIP3    H132866   6.544   4.982   7.656
 3769TIP3    H232867   6.480   4.907   7.770
 3770TIP3   OH232868   3.885   4.408   8.218
 3770TIP3    H132869   3.972   4.449   8.212
 3770TIP3    H232870   3.864   4.385   8.127
 3771TIP3   OH232871   6.009   4.546   8.143
 3771TIP3    H132872   6.018   4.454   8.167
 3771TIP3    H232873   5.970   4.545   8.056
 3772TIP3   OH232874   6.208   3.168   7.251
 3772TIP3    H132875   6.287   3.174   7.306
 3772TIP3    H232876   6.241   3.149   7.164
 3773TIP3   OH232877   3.398   5.333   8.665
 3773TIP3    H132878   3.418   5.299   0.039
 3773TIP3    H232879   3.403   5.428   8.674
 3774TIP3   OH232880   1.952   3.179   6.890
 3774TIP3    H132881   1.876   3.139   6.931
 3774TIP3    H232882   1.917   3.225   6.814
 3775TIP3   OH232883   5.120   0.682   0.957
 3775TIP3    H132884   5.198   0.629   0.974
 3775TIP3    H232885   5.152   0.753   0.901
 3776TIP3   OH232886   0.281   2.021   8.363
 3776TIP3    H132887   0.305   2.024   8.270
 3776TIP3    H232888   0.340   1.957   8.401
 3777TIP3   OH232889   4.663   3.798   1.785
 3777TIP3    H132890   4.695   3.708   1.784
 3777TIP3    H232891   4.593   3.799   1.720
 3778TIP3   OH232892   3.166   0.796   7.927
 3778TIP3    H132893   3.088   0.815   7.874
 3778TIP3    H232894   3.212   0.728   7.878
 3779TIP3   OH232895   3.882   1.814   6.851
 3779TIP3    H132896   3.898   1.720   6.849
 3779TIP3    H232897   3.969   1.854   6.858
 3780TIP3   OH232898   0.534   6.181   1.704
 3780TIP3    H132899   0.486   6.246   1.755
 3780TIP3    H232900   0.476   6.158   1.632
 3781TIP3   OH232901   1.892   3.487   2.273
 3781TIP3    H132902   1.863   3.572   2.238
 3781TIP3    H232903   1.819   3.428   2.254
 3782TIP3   OH232904   3.261   2.075   1.321
 3782TIP3    H132905   3.353   2.091   1.340
 3782TIP3    H232906   3.240   1.996   1.372
 3783TIP3   OH232907   2.749   1.708   1.762
 3783TIP3    H132908   2.715   1.649   1.695
 3783TIP3    H232909   2.679   1.713   1.827
 3784TIP3   OH232910   3.689   2.106   8.265
 3784TIP3    H132911   3.784   2.095   8.257
 3784TIP3    H232912   3.663   2.041   8.330
 3785TIP3   OH232913   0.847   0.899   7.069
 3785TIP3    H132914   0.919   0.962   7.079
 3785TIP3    H232915   0.787   0.920   7.141
 3786TIP3   OH232916   4.278   5.761   1.111
 3786TIP3    H132917   4.246   5.803   1.191
 3786TIP3    H232918   4.320   5.831   1.062
 3787TIP3   OH232919   3.082   3.750   6.310
 3787TIP3    H132920   3.127   3.834   6.301
 3787TIP3    H232921   3.002   3.759   6.259
 3788TIP3   OH232922   4.485   3.134   8.175
 3788TIP3    H132923   4.399   3.104   8.206
 3788TIP3    H232924   4.465   3.182   8.095
 3789TIP3   OH232925   4.086   2.274   0.683
 3789TIP3    H132926   4.086   2.352   0.628
 3789TIP3    H232927   4.001   2.234   0.668
 3790TIP3   OH232928   5.926   1.895   7.322
 3790TIP3    H132929   5.895   1.805   7.333
 3790TIP3    H232930   6.021   1.886   7.317
 3791TIP3   OH232931   0.875   4.235   1.051
 3791TIP3    H132932   0.856   4.220   1.144
 3791TIP3    H232933   0.791   4.221   1.007
 3792TIP3   OH232934   1.069   4.588   7.395
 3792TIP3    H132935   1.141   4.650   7.386
 3792TIP3    H232936   0.998   4.639   7.435
 3793TIP3   OH232937   3.691   4.430   7.451
 3793TIP3    H132938   3.612   4.420   7.398
 3793TIP3    H232939   3.712   4.341   7.480
 3794TIP3   OH232940   1.716   0.939   7.924
 3794TIP3    H132941   1.759   0.962   8.006
 3794TIP3    H232942   1.630   0.906   7.949
 3795TIP3   OH232943   0.502   4.515   6.622
 3795TIP3    H132944   0.514   4.588   6.561
 3795TIP3    H232945   0.564   4.533   6.693
 3796TIP3   OH232946   1.423   4.973   8.389
 3796TIP3    H132947   1.485   5.008   8.324
 3796TIP3    H232948   1.347   4.947   8.338
 3797TIP3   OH232949   2.658   4.608   7.046
 3797TIP3    H132950   2.694   4.623   7.133
 3797TIP3    H232951   2.581   4.554   7.061
 3798TIP3   OH232952   5.536   4.200   1.489
 3798TIP3    H132953   5.579   4.279   1.456
 3798TIP3    H232954   5.551   4.202   1.583
 3799TIP3   OH232955   6.256   0.119   0.173
 3799TIP3    H132956   6.323   0.127   0.106
 3799TIP3    H232957   6.191   0.060   0.135
 3800TIP3   OH232958   6.700   2.721   7.690
 3800TIP3    H132959   6.669   2.739   7.779
 3800TIP3    H232960   6.735   2.632   7.694
 3801TIP3   OH232961   2.543   2.277   8.290
 3801TIP3    H132962   2.563   2.369   8.274
 3801TIP3    H232963   2.616   2.229   8.251
 3802TIP3   OH232964   1.331   5.567   7.838
 3802TIP3    H132965   1.251   5.523   7.866
 3802TIP3    H232966   1.387   5.498   7.803
 3803TIP3   OH232967   0.444   0.196   0.153
 3803TIP3    H132968   0.514   0.144   0.114
 3803TIP3    H232969   0.419   0.147   0.231
 3804TIP3   OH232970   5.208   5.675   7.715
 3804TIP3    H132971   5.144   5.746   7.724
 3804TIP3    H232972   5.155   5.595   7.717
 3805TIP3   OH232973   5.691   5.974   0.160
 3805TIP3    H132974   5.737   6.003   0.239
 3805TIP3    H232975   5.722   6.032   0.091
 3806TIP3   OH232976   3.483   6.550   0.299
 3806TIP3    H132977   3.461   6.458   0.281
 3806TIP3    H232978   3.549   6.546   0.368
 3807TIP3   OH232979   5.041   2.455   1.736
 3807TIP3    H132980   5.007   2.492   1.655
 3807TIP3    H232981   5.129   2.492   1.745
 3808TIP3   OH232982   5.303   3.737   8.584
 3808TIP3    H132983   5.317   3.706   8.673
 3808TIP3    H232984   5.250   3.669   8.542
 3809TIP3   OH232985   0.185   6.723   7.218
 3809TIP3    H132986   0.243   6.659   7.178
 3809TIP3    H232987   0.126   6.671   7.273
 3810TIP3   OH232988   0.106   5.350   1.427
 3810TIP3    H132989   0.046   5.287   1.388
 3810TIP3    H232990   0.091   5.342   1.521
 3811TIP3   OH232991   3.721   1.146   8.522
 3811TIP3    H132992   3.791   1.205   8.493
 3811TIP3    H232993   3.713   1.162   8.616
 3812TIP3   OH232994   1.113   6.248   0.792
 3812TIP3    H132995   1.125   6.213   0.880
 3812TIP3    H232996   1.167   6.327   0.790
 3813TIP3   OH232997   2.272   3.860   7.531
 3813TIP3    H132998   2.218   3.842   7.607
 3813TIP3    H232999   2.362   3.842   7.560
 3814TIP3   OH233000   2.055   6.103   8.322
 3814TIP3    H133001   2.095   6.171   8.376
 3814TIP3    H233002   2.081   6.021   8.364
 3815TIP3   OH233003   4.521   6.025   1.729
 3815TIP3    H133004   4.597   6.079   1.751
 3815TIP3    H233005   4.464   6.031   1.806
 3816TIP3   OH233006   2.922   6.125   8.374
 3816TIP3    H133007   2.935   6.068   8.297
 3816TIP3    H233008   2.985   6.093   8.438
 3817TIP3   OH233009   6.009   1.871   0.885
 3817TIP3    H133010   5.926   1.891   0.842
 3817TIP3    H233011   6.067   1.944   0.861
 3818TIP3   OH233012   2.853   4.300   1.124
 3818TIP3    H133013   2.842   4.289   1.218
 3818TIP3    H233014   2.872   4.211   1.092
 3819TIP3   OH233015   0.811   5.472   6.210
 3819TIP3    H133016   0.740   5.537   6.216
 3819TIP3    H233017   0.767   5.388   6.223
 3820TIP3   OH233018   1.584   3.673   8.303
 3820TIP3    H133019   1.566   3.717   8.385
 3820TIP3    H233020   1.505   3.684   8.251
 3821TIP3   OH233021   4.880   4.354   0.549
 3821TIP3    H133022   4.786   4.369   0.557
 3821TIP3    H233023   4.919   4.418   0.609
 3822TIP3   OH233024   1.776   3.831   7.558
 3822TIP3    H133025   1.806   3.861   7.644
 3822TIP3    H233026   1.694   3.786   7.577
 3823TIP3   OH233027   2.496   2.191   7.924
 3823TIP3    H133028   2.573   2.234   7.886
 3823TIP3    H233029   2.524   2.164   8.011
 3824TIP3   OH233030   5.100   6.751   1.067
 3824TIP3    H133031   5.170   6.728   1.129
 3824TIP3    H233032   5.047   6.671   1.060
 3825TIP3   OH233033   2.297   2.713   7.509
 3825TIP3    H133034   2.250   2.653   7.451
 3825TIP3    H233035   2.244   2.793   7.509
 3826TIP3   OH233036   3.820   2.438   8.506
 3826TIP3    H133037   3.894   2.499   8.505
 3826TIP3    H233038   3.753   2.482   8.454
 3827TIP3   OH233039   3.431   2.186   1.708
 3827TIP3    H133040   3.466   2.248   1.772
 3827TIP3    H233041   3.376   2.239   1.650
 3828TIP3   OH233042   1.874   6.020   0.952
 3828TIP3    H133043   1.801   6.017   0.890
 3828TIP3    H233044   1.934   5.952   0.921
 3829TIP3   OH233045   4.936   3.097   7.472
 3829TIP3    H133046   4.969   3.093   7.562
 3829TIP3    H233047   4.899   3.185   7.465
 3830TIP3   OH233048   0.156   0.950   1.519
 3830TIP3    H133049   0.075   0.985   1.557
 3830TIP3    H233050   0.142   0.856   1.515
 3831TIP3   OH233051   6.810   0.726   7.868
 3831TIP3    H133052   6.716   0.742   7.865
 3831TIP3    H233053   0.006   0.806   7.834
 3832TIP3   OH233054   0.286   1.703   7.542
 3832TIP3    H133055   0.377   1.727   7.561
 3832TIP3    H233056   0.253   1.776   7.489
 3833TIP3   OH233057   3.436   4.104   0.502
 3833TIP3    H133058   3.431   4.141   0.414
 3833TIP3    H233059   3.344   4.093   0.528
 3834TIP3   OH233060   1.893   5.644   7.590
 3834TIP3    H133061   1.935   5.713   7.537
 3834TIP3    H233062   1.910   5.670   7.681
 3835TIP3   OH233063   6.276   3.694   8.056
 3835TIP3    H133064   6.200   3.726   8.008
 3835TIP3    H233065   6.344   3.759   8.040
 3836TIP3   OH233066   4.276   0.750   8.199
 3836TIP3    H133067   4.334   0.704   8.259
 3836TIP3    H233068   4.259   0.835   8.240
 3837TIP3   OH233069   0.566   0.324   7.329
 3837TIP3    H133070   0.527   0.379   7.260
 3837TIP3    H233071   0.621   0.262   7.282
 3838TIP3   OH233072   3.825   4.422   6.759
 3838TIP3    H133073   3.885   4.481   6.713
 3838TIP3    H233074   3.847   4.335   6.727
 3839TIP3   OH233075   4.218   2.756   1.479
 3839TIP3    H133076   4.160   2.784   1.549
 3839TIP3    H233077   4.166   2.763   1.399
 3840TIP3   OH233078   0.946   4.665   7.881
 3840TIP3    H133079   0.898   4.660   7.964
 3840TIP3    H233080   1.006   4.591   7.883
 3841TIP3   OH233081   0.165   4.204   6.301
 3841TIP3    H133082   0.198   4.165   6.381
 3841TIP3    H233083   0.167   4.298   6.316
 3842TIP3   OH233084   5.084   6.238   7.466
 3842TIP3    H133085   5.110   6.234   7.374
 3842TIP3    H233086   5.081   6.331   7.486
 3843TIP3   OH233087   0.737   1.380   5.874
 3843TIP3    H133088   0.761   1.395   5.966
 3843TIP3    H233089   0.738   1.285   5.865
 3844TIP3   OH233090   1.248   2.115   7.279
 3844TIP3    H133091   1.307   2.092   7.350
 3844TIP3    H233092   1.210   2.198   7.305
 3845TIP3   OH233093   3.391   4.070   7.307
 3845TIP3    H133094   3.369   4.161   7.324
 3845TIP3    H233095   3.471   4.074   7.254
 3846TIP3   OH233096   5.217   2.385   1.433
 3846TIP3    H133097   5.247   2.407   1.521
 3846TIP3    H233098   5.278   2.318   1.404
 3847TIP3   OH233099   0.824   1.207   6.874
 3847TIP3    H133100   0.854   1.210   6.965
 3847TIP3    H233101   0.891   1.254   6.825
 3848TIP3   OH233102   3.795   4.178   1.475
 3848TIP3    H133103   3.723   4.204   1.417
 3848TIP3    H233104   3.805   4.084   1.461
 3849TIP3   OH233105   2.598   5.308   8.569
 3849TIP3    H133106   2.630   5.297   8.659
 3849TIP3    H233107   2.590   5.219   8.535
 3850TIP3   OH233108   3.644   0.430   8.355
 3850TIP3    H133109   3.587   0.356   8.332
 3850TIP3    H233110   3.705   0.437   8.281
 3851TIP3   OH233111   0.370   1.515   1.544
 3851TIP3    H133112   0.418   1.598   1.548
 3851TIP3    H233113   0.299   1.531   1.481
 3852TIP3   OH233114   2.750   6.320   8.226
 3852TIP3    H133115   2.675   6.269   8.258
 3852TIP3    H233116   2.827   6.273   8.258
 3853TIP3   OH233117   3.611   1.195   0.605
 3853TIP3    H133118   3.583   1.172   0.694
 3853TIP3    H233119   3.706   1.201   0.611
 3854TIP3   OH233120   6.385   2.326   0.764
 3854TIP3    H133121   6.358   2.410   0.728
 3854TIP3    H233122   6.358   2.329   0.856
 3855TIP3   OH233123   1.864   0.859   7.323
 3855TIP3    H133124   1.940   0.846   7.265
 3855TIP3    H233125   1.884   0.941   7.369
 3856TIP3   OH233126   1.010   1.073   8.138
 3856TIP3    H133127   1.101   1.093   8.117
 3856TIP3    H233128   0.966   1.158   8.141
 3857TIP3   OH233129   0.449   2.443   8.170
 3857TIP3    H133130   0.438   2.418   8.262
 3857TIP3    H233131   0.391   2.383   8.123
 3858TIP3   OH233132   4.167   6.031   0.584
 3858TIP3    H133133   4.161   5.956   0.526
 3858TIP3    H233134   4.116   6.099   0.541
 3859TIP3   OH233135   5.530   0.380   0.019
 3859TIP3    H133136   5.504   0.387   8.640
 3859TIP3    H233137   5.611   0.431   0.024
 3860TIP3   OH233138   2.775   6.793   1.809
 3860TIP3    H133139   2.741   6.729   1.872
 3860TIP3    H233140   2.810   0.021   1.863
 3861TIP3   OH233141   3.560   4.725   1.138
 3861TIP3    H133142   3.564   4.792   1.207
 3861TIP3    H233143   3.544   4.644   1.186
 3862TIP3   OH233144   2.061   6.470   1.004
 3862TIP3    H133145   2.095   6.444   1.090
 3862TIP3    H233146   2.085   6.398   0.946
 3863TIP3   OH233147   0.115   0.239   0.147
 3863TIP3    H133148   0.045   0.275   0.093
 3863TIP3    H233149   0.154   0.170   0.094
 3864TIP3   OH233150   0.636   4.473   0.104
 3864TIP3    H133151   0.709   4.468   0.165
 3864TIP3    H233152   0.559   4.487   0.159
 3865TIP3   OH233153   3.745   6.789   2.536
 3865TIP3    H133154   3.733   6.713   2.480
 3865TIP3    H233155   3.663   6.795   2.586
 3866TIP3   OH233156   5.216   0.156   7.442
 3866TIP3    H133157   5.265   0.166   7.360
 3866TIP3    H233158   5.256   0.082   7.486
 3867TIP3   OH233159   2.591   6.003   7.958
 3867TIP3    H133160   2.638   5.927   7.923
 3867TIP3    H233161   2.532   5.967   8.024
 3868TIP3   OH233162   3.516   4.472   1.256
 3868TIP3    H133163   3.447   4.481   1.322
 3868TIP3    H233164   3.570   4.399   1.287
 3869TIP3   OH233165   5.825   4.723   8.226
 3869TIP3    H133166   5.885   4.654   8.197
 3869TIP3    H233167   5.818   4.710   8.320
 3870TIP3   OH233168   6.574   4.611   0.149
 3870TIP3    H133169   6.585   4.591   0.242
 3870TIP3    H233170   6.648   4.568   0.106
 3871TIP3   OH233171   2.703   0.765   0.358
 3871TIP3    H133172   2.615   0.801   0.362
 3871TIP3    H233173   2.691   0.670   0.369
 3872TIP3   OH233174   4.445   1.076   0.508
 3872TIP3    H133175   4.482   1.048   0.424
 3872TIP3    H233176   4.351   1.064   0.498
 3873TIP3   OH233177   2.926   2.999   1.390
 3873TIP3    H133178   2.899   3.049   1.467
 3873TIP3    H233179   2.854   3.011   1.328
 3874TIP3   OH233180   3.207   4.187   8.525
 3874TIP3    H133181   3.124   4.223   8.493
 3874TIP3    H233182   3.184   4.102   8.560
 3875TIP3   OH233183   2.834   1.157   8.699
 3875TIP3    H133184   2.842   1.087   8.634
 3875TIP3    H233185   2.773   1.122   0.051
 3876TIP3   OH233186   5.590   1.357   1.823
 3876TIP3    H133187   5.594   1.392   1.912
 3876TIP3    H233188   5.500   1.326   1.814
 3877TIP3   OH233189   0.624   2.960   8.457
 3877TIP3    H133190   0.533   2.980   8.474
 3877TIP3    H233191   0.624   2.867   8.434
 3878TIP3   OH233192   4.776   3.705   8.515
 3878TIP3    H133193   4.717   3.713   8.440
 3878TIP3    H233194   4.820   3.789   8.520
 3879TIP3   OH233195   3.081   1.464   0.328
 3879TIP3    H133196   3.079   1.491   0.420
 3879TIP3    H233197   2.997   1.493   0.293
 3880TIP3   OH233198   5.968   4.370   1.569
 3880TIP3    H133199   6.008   4.287   1.542
 3880TIP3    H233200   6.015   4.393   1.649
 3881TIP3   OH233201   3.962   0.162   0.098
 3881TIP3    H133202   3.911   0.131   0.023
 3881TIP3    H233203   4.024   0.224   0.061
 3882TIP3   OH233204   5.869   3.964   7.779
 3882TIP3    H133205   5.865   4.042   7.834
 3882TIP3    H233206   5.779   3.931   7.778
 3883TIP3   OH233207   0.920   3.388   6.218
 3883TIP3    H133208   0.985   3.458   6.210
 3883TIP3    H233209   0.936   3.331   6.143
 3884TIP3   OH233210   2.293   1.483   1.348
 3884TIP3    H133211   2.264   1.467   1.438
 3884TIP3    H233212   2.378   1.524   1.357
 3885TIP3   OH233213   2.076   1.423   1.554
 3885TIP3    H133214   2.092   1.328   1.549
 3885TIP3    H233215   2.060   1.439   1.647
 3886TIP3   OH233216   5.630   0.682   8.035
 3886TIP3    H133217   5.704   0.704   7.978
 3886TIP3    H233218   5.593   0.767   8.060
 3887TIP3   OH233219   2.073   3.169   1.890
 3887TIP3    H133220   2.100   3.165   1.982
 3887TIP3    H233221   2.149   3.138   1.841
 3888TIP3   OH233222   0.202   0.161   7.723
 3888TIP3    H133223   0.284   0.197   7.688
 3888TIP3    H233224   0.209   0.173   7.817
 3889TIP3   OH233225   1.509   2.193   0.213
 3889TIP3    H133226   1.495   2.098   0.219
 3889TIP3    H233227   1.572   2.203   0.141
 3890TIP3   OH233228   1.138   5.281   0.982
 3890TIP3    H133229   1.233   5.273   0.993
 3890TIP3    H233230   1.124   5.279   0.887
 3891TIP3   OH233231   0.422   5.518   6.396
 3891TIP3    H133232   0.390   5.597   6.438
 3891TIP3    H233233   0.467   5.470   6.466
 3892TIP3   OH233234   5.885   1.195   8.449
 3892TIP3    H133235   5.927   1.117   8.413
 3892TIP3    H233236   5.810   1.161   8.499
 3893TIP3   OH233237   4.556   6.255   8.619
 3893TIP3    H133238   4.576   6.343   8.651
 3893TIP3    H233239   4.642   6.212   8.611
 3894TIP3   OH233240   2.957   3.516   8.295
 3894TIP3    H133241   3.011   3.497   8.219
 3894TIP3    H233242   2.867   3.499   8.266
 3895TIP3   OH233243   4.686   0.711   8.585
 3895TIP3    H133244   4.649   0.676   8.504
 3895TIP3    H233245   4.764   0.759   8.557
 3896TIP3   OH233246   3.619   2.198   0.454
 3896TIP3    H133247   3.664   2.120   0.420
 3896TIP3    H233248   3.686   2.242   0.506
 3897TIP3   OH233249   5.182   1.059   2.196
 3897TIP3    H133250   5.137   0.975   2.195
 3897TIP3    H233251   5.258   1.046   2.139
 3898TIP3   OH233252   3.760   0.011   1.266
 3898TIP3    H133253   3.780   0.048   1.353
 3898TIP3    H233254   3.847   6.836   1.228
 3899TIP3   OH233255   5.221   5.311   7.274
 3899TIP3    H133256   5.226   5.338   7.182
 3899TIP3    H233257   5.130   5.284   7.286
 3900TIP3   OH233258   1.818   6.307   8.513
 3900TIP3    H133259   1.883   6.331   8.447
 3900TIP3    H233260   1.808   6.386   8.566
 3901TIP3   OH233261   3.501   3.830   0.611
 3901TIP3    H133262   3.493   3.760   0.546
 3901TIP3    H233263   3.464   3.907   0.568
 3902TIP3   OH233264   3.368   1.547   2.013
 3902TIP3    H133265   3.398   1.634   1.984
 3902TIP3    H233266   3.449   1.499   2.031
 3903TIP3   OH233267   3.605   6.717   1.062
 3903TIP3    H133268   3.546   6.792   1.050
 3903TIP3    H233269   3.673   6.749   1.121
 3904TIP3   OH233270   1.124   2.459   1.663
 3904TIP3    H133271   1.215   2.487   1.664
 3904TIP3    H233272   1.110   2.426   1.574
 3905TIP3   OH233273   0.280   5.379   7.894
 3905TIP3    H133274   0.328   5.320   7.951
 3905TIP3    H233275   0.323   5.464   7.905
 3906TIP3   OH233276   5.530   1.572   7.701
 3906TIP3    H133277   5.576   1.488   7.697
 3906TIP3    H233278   5.472   1.572   7.625
 3907TIP3   OH233279   0.838   2.453   7.065
 3907TIP3    H133280   0.923   2.409   7.054
 3907TIP3    H233281   0.800   2.452   6.977
 3908TIP3   OH233282   0.372   6.678   0.919
 3908TIP3    H133283   0.403   6.655   0.831
 3908TIP3    H233284   0.315   6.753   0.906
 3909TIP3   OH233285   4.594   5.440   8.535
 3909TIP3    H133286   4.510   5.484   8.522
 3909TIP3    H233287   4.660   5.502   8.505
 3910TIP3   OH233288   6.767   5.415   1.683
 3910TIP3    H133289   6.796   5.324   1.683
 3910TIP3    H233290   6.681   5.413   1.641
 3911TIP3   OH233291   3.239   3.583   7.228
 3911TIP3    H133292   3.219   3.598   7.321
 3911TIP3    H233293   3.326   3.543   7.228
 3912TIP3   OH233294   6.833   5.804   0.377
 3912TIP3    H133295   0.002   5.877   0.317
 3912TIP3    H233296   0.068   5.749   0.365
 3913TIP3   OH233297   4.081   2.120   0.419
 3913TIP3    H133298   4.076   2.189   0.486
 3913TIP3    H233299   4.005   2.136   0.363
 3914TIP3   OH233300   4.008   5.773   1.943
 3914TIP3    H133301   3.984   5.829   2.017
 3914TIP3    H233302   4.103   5.785   1.934
 3915TIP3   OH233303   5.623   2.186   8.645
 3915TIP3    H133304   5.670   2.209   8.564
 3915TIP3    H233305   5.651   2.251   8.709
 3916TIP3   OH233306   2.236   5.852   7.059
 3916TIP3    H133307   2.228   5.834   7.153
 3916TIP3    H233308   2.181   5.928   7.044
 3917TIP3   OH233309   4.691   0.061   0.244
 3917TIP3    H133310   4.657   0.088   0.329
 3917TIP3    H233311   4.672   6.810   0.239
 3918TIP3   OH233312   2.982   5.056   0.414
 3918TIP3    H133313   3.021   5.140   0.392
 3918TIP3    H233314   2.990   5.050   0.510
 3919TIP3   OH233315   3.051   2.658   0.514
 3919TIP3    H133316   3.061   2.569   0.479
 3919TIP3    H233317   3.049   2.714   0.437
 3920TIP3   OH233318   3.184   1.263   8.426
 3920TIP3    H133319   3.167   1.216   8.508
 3920TIP3    H233320   3.118   1.230   8.365
 3921TIP3   OH233321   4.330   4.537   8.375
 3921TIP3    H133322   4.397   4.556   8.441
 3921TIP3    H233323   4.354   4.592   8.300
 3922TIP3   OH233324   4.884   0.202   1.239
 3922TIP3    H133325   4.964   0.178   1.286
 3922TIP3    H233326   4.820   0.137   1.267
 3923TIP3   OH233327   4.472   5.920   1.010
 3923TIP3    H133328   4.551   5.870   1.028
 3923TIP3    H233329   4.443   5.891   0.924
 3924TIP3   OH233330   6.679   0.043   0.109
 3924TIP3    H133331   6.649   6.798   0.083
 3924TIP3    H233332   6.745   0.027   0.177
 3925TIP3   OH233333   4.050   1.724   0.958
 3925TIP3    H133334   4.096   1.641   0.969
 3925TIP3    H233335   4.119   1.790   0.959
 3926TIP3   OH233336   0.710   3.748   8.390
 3926TIP3    H133337   0.656   3.670   8.377
 3926TIP3    H233338   0.660   3.803   8.449
 3927TIP3   OH233339   0.459   2.378   6.635
 3927TIP3    H133340   0.451   2.370   6.540
 3927TIP3    H233341   0.413   2.301   6.669
 3928TIP3   OH233342   2.562   5.574   8.427
 3928TIP3    H133343   2.546   5.580   8.521
 3928TIP3    H233344   2.575   5.480   8.411
 3929TIP3   OH233345   3.738   6.058   2.243
 3929TIP3    H133346   3.680   5.986   2.219
 3929TIP3    H233347   3.707   6.086   2.329
 3930TIP3   OH233348   0.169   3.918   6.804
 3930TIP3    H133349   0.240   3.883   6.858
 3930TIP3    H233350   0.145   3.845   6.746
 3931TIP3   OH233351   3.176   6.333   7.258
 3931TIP3    H133352   3.112   6.263   7.249
 3931TIP3    H233353   3.219   6.337   7.172
 3932TIP3   OH233354   3.848   3.176   8.312
 3932TIP3    H133355   3.861   3.228   8.391
 3932TIP3    H233356   3.890   3.228   8.243
 3933TIP3   OH233357   3.899   5.341   6.941
 3933TIP3    H133358   3.808   5.312   6.945
 3933TIP3    H233359   3.911   5.372   6.851
 3934TIP3   OH233360   6.697   1.214   8.058
 3934TIP3    H133361   6.616   1.191   8.012
 3934TIP3    H233362   6.676   1.201   8.150
 3935TIP3   OH233363   4.379   2.430   7.196
 3935TIP3    H133364   4.306   2.387   7.153
 3935TIP3    H233365   4.339   2.492   7.257
 3936TIP3   OH233366   0.005   2.126   7.517
 3936TIP3    H133367   0.063   2.112   7.442
 3936TIP3    H233368   0.063   2.155   7.587
 3937TIP3   OH233369   0.735   1.728   7.731
 3937TIP3    H133370   0.748   1.658   7.668
 3937TIP3    H233371   0.655   1.705   7.778
 3938TIP3   OH233372   1.023   4.980   8.251
 3938TIP3    H133373   0.966   4.918   8.298
 3938TIP3    H233374   0.995   5.066   8.282
 3939TIP3   OH233375   1.111   2.059   0.788
 3939TIP3    H133376   1.186   2.000   0.794
 3939TIP3    H233377   1.064   2.031   0.709
 3940TIP3   OH233378   3.241   3.497   7.936
 3940TIP3    H133379   3.199   3.464   8.015
 3940TIP3    H233380   3.239   3.592   7.946
 3941TIP3   OH233381   1.711   2.458   1.590
 3941TIP3    H133382   1.688   2.396   1.659
 3941TIP3    H233383   1.712   2.405   1.510
 3942TIP3   OH233384   3.764   6.381   0.277
 3942TIP3    H133385   3.746   6.425   0.193
 3942TIP3    H233386   3.747   6.289   0.259
 3943TIP3   OH233387   2.451   5.286   7.951
 3943TIP3    H133388   2.498   5.259   7.872
 3943TIP3    H233389   2.389   5.215   7.967
 3944TIP3   OH233390   4.222   5.776   0.482
 3944TIP3    H133391   4.276   5.853   0.467
 3944TIP3    H233392   4.226   5.728   0.400
 3945TIP3   OH233393   4.317   4.273   7.622
 3945TIP3    H133394   4.406   4.306   7.638
 3945TIP3    H233395   4.329   4.202   7.559
 3946TIP3   OH233396   1.945   3.672   0.456
 3946TIP3    H133397   1.979   3.625   0.380
 3946TIP3    H233398   2.011   3.662   0.524
 3947TIP3   OH233399   0.859   0.797   6.220
 3947TIP3    H133400   0.941   0.774   6.264
 3947TIP3    H233401   0.886   0.834   6.137
 3948TIP3   OH233402   5.532   0.409   7.696
 3948TIP3    H133403   5.547   0.373   7.609
 3948TIP3    H233404   5.497   0.336   7.747
 3949TIP3   OH233405   5.832   4.594   7.146
 3949TIP3    H133406   5.756   4.547   7.112
 3949TIP3    H233407   5.862   4.648   7.073
 3950TIP3   OH233408   0.317   5.409   2.010
 3950TIP3    H133409   0.365   5.348   2.067
 3950TIP3    H233410   0.353   5.495   2.032
 3951TIP3   OH233411   4.528   0.568   1.248
 3951TIP3    H133412   4.611   0.522   1.239
 3951TIP3    H233413   4.537   0.645   1.191
 3952TIP3   OH233414   1.632   0.122   6.829
 3952TIP3    H133415   1.619   0.149   6.738
 3952TIP3    H233416   1.587   0.189   6.880
 3953TIP3   OH233417   2.064   1.367   0.934
 3953TIP3    H133418   2.020   1.430   0.992
 3953TIP3    H233419   2.100   1.421   0.864
 3954TIP3   OH233420   3.538   4.921   0.882
 3954TIP3    H133421   3.631   4.924   0.903
 3954TIP3    H233422   3.494   4.936   0.966
 3955TIP3   OH233423   4.664   4.046   7.755
 3955TIP3    H133424   4.630   4.052   7.666
 3955TIP3    H233425   4.586   4.057   7.811
 3956TIP3   OH233426   5.773   5.867   8.119
 3956TIP3    H133427   5.753   5.793   8.178
 3956TIP3    H233428   5.797   5.938   8.178
 3957TIP3   OH233429   5.419   3.609   7.581
 3957TIP3    H133430   5.506   3.630   7.547
 3957TIP3    H233431   5.432   3.599   7.675
 3958TIP3   OH233432   0.495   5.781   8.187
 3958TIP3    H133433   0.406   5.811   8.170
 3958TIP3    H233434   0.550   5.858   8.172
 3959TIP3   OH233435   4.033   3.175   1.538
 3959TIP3    H133436   3.946   3.140   1.522
 3959TIP3    H233437   4.088   3.132   1.472
 3960TIP3   OH233438   4.333   2.865   0.187
 3960TIP3    H133439   4.336   2.826   0.274
 3960TIP3    H233440   4.389   2.808   0.133
 3961TIP3   OH233441   5.641   3.693   0.468
 3961TIP3    H133442   5.594   3.609   0.466
 3961TIP3    H233443   5.658   3.708   0.561
 3962TIP3   OH233444   3.187   1.814   7.043
 3962TIP3    H133445   3.096   1.789   7.024
 3962TIP3    H233446   3.220   1.744   7.099
 3963TIP3   OH233447   4.106   3.000   0.103
 3963TIP3    H133448   4.178   2.951   0.143
 3963TIP3    H233449   4.029   2.974   0.153
 3964TIP3   OH233450   3.645   5.730   0.965
 3964TIP3    H133451   3.731   5.771   0.956
 3964TIP3    H233452   3.584   5.803   0.973
 3965TIP3   OH233453   1.458   4.554   8.155
 3965TIP3    H133454   1.403   4.513   8.221
 3965TIP3    H233455   1.398   4.577   8.084
 3966TIP3   OH233456   6.520   0.684   7.689
 3966TIP3    H133457   6.515   0.773   7.724
 3966TIP3    H233458   6.439   0.642   7.718
 3967TIP3   OH233459   1.837   1.811   1.389
 3967TIP3    H133460   1.817   1.892   1.437
 3967TIP3    H233461   1.842   1.744   1.457
 3968TIP3   OH233462   2.647   1.806   6.964
 3968TIP3    H133463   2.632   1.738   6.899
 3968TIP3    H233464   2.578   1.794   7.029
 3969TIP3   OH233465   5.779   3.669   7.840
 3969TIP3    H133466   5.866   3.662   7.880
 3969TIP3    H233467   5.731   3.729   7.897
 3970TIP3   OH233468   1.937   4.337   7.816
 3970TIP3    H133469   1.930   4.245   7.790
 3970TIP3    H233470   1.866   4.350   7.879
 3971TIP3   OH233471   4.883   4.143   7.885
 3971TIP3    H133472   4.940   4.153   7.809
 3971TIP3    H233473   4.798   4.119   7.848
 3972TIP3   OH233474   6.687   4.391   2.044
 3972TIP3    H133475   6.592   4.385   2.040
 3972TIP3    H233476   6.714   4.315   2.095
 3973TIP3   OH233477   5.822   2.924   8.676
 3973TIP3    H133478   5.844   2.852   8.616
 3973TIP3    H233479   5.740   2.959   8.642
 3974TIP3   OH233480   4.104   0.507   7.030
 3974TIP3    H133481   4.017   0.548   7.028
 3974TIP3    H233482   4.146   0.536   6.949
 3975TIP3   OH233483   2.823   5.966   8.164
 3975TIP3    H133484   2.760   5.905   8.128
 3975TIP3    H233485   2.885   5.981   8.092
 3976TIP3   OH233486   5.199   0.347   0.080
 3976TIP3    H133487   5.217   0.424   0.133
 3976TIP3    H233488   5.211   0.377   8.703
 3977TIP3   OH233489   5.256   6.464   1.612
 3977TIP3    H133490   5.309   6.509   1.546
 3977TIP3    H233491   5.182   6.428   1.563
 3978TIP3   OH233492   0.963   0.454   1.217
 3978TIP3    H133493   0.981   0.412   1.133
 3978TIP3    H233494   1.029   0.523   1.224
 3979TIP3   OH233495   1.562   6.766   2.143
 3979TIP3    H133496   1.575   6.820   2.065
 3979TIP3    H233497   1.576   6.676   2.113
 3980TIP3   OH233498   0.774   6.345   7.650
 3980TIP3    H133499   0.741   6.306   7.731
 3980TIP3    H233500   0.864   6.370   7.669
 3981TIP3   OH233501   3.060   3.967   7.656
 3981TIP3    H133502   3.143   3.922   7.675
 3981TIP3    H233503   2.998   3.896   7.640
 3982TIP3   OH233504   5.048   5.524   0.560
 3982TIP3    H133505   5.046   5.513   0.465
 3982TIP3    H233506   5.123   5.582   0.575
 3983TIP3   OH233507   0.408   6.508   1.154
 3983TIP3    H133508   0.420   6.555   1.072
 3983TIP3    H233509   0.319   6.473   1.149
 3984TIP3   OH233510   4.266   6.284   1.184
 3984TIP3    H133511   4.227   6.234   1.255
 3984TIP3    H233512   4.357   6.253   1.180
 3985TIP3   OH233513   4.833   1.547   7.055
 3985TIP3    H133514   4.775   1.505   6.993
 3985TIP3    H233515   4.800   1.637   7.061
 3986TIP3   OH233516   6.657   1.808   1.738
 3986TIP3    H133517   6.625   1.894   1.710
 3986TIP3    H233518   6.723   1.828   1.804
 3987TIP3   OH233519   6.327   2.580   0.719
 3987TIP3    H133520   6.309   2.626   0.638
 3987TIP3    H233521   6.336   2.648   0.785
 3988TIP3   OH233522   2.572   4.766   7.799
 3988TIP3    H133523   2.513   4.727   7.735
 3988TIP3    H233524   2.520   4.773   7.879
 3989TIP3   OH233525   3.298   2.450   7.834
 3989TIP3    H133526   3.265   2.526   7.788
 3989TIP3    H233527   3.309   2.383   7.766
 3990TIP3   OH233528   2.246   5.299   2.034
 3990TIP3    H133529   2.194   5.227   1.997
 3990TIP3    H233530   2.280   5.264   2.116
 3991TIP3   OH233531   0.809   3.748   1.095
 3991TIP3    H133532   0.811   3.792   1.180
 3991TIP3    H233533   0.736   3.687   1.100
 3992TIP3   OH233534   0.678   6.437   2.474
 3992TIP3    H133535   0.659   6.477   2.389
 3992TIP3    H233536   0.659   6.506   2.538
 3993TIP3   OH233537   5.607   1.107   2.754
 3993TIP3    H133538   5.679   1.117   2.692
 3993TIP3    H233539   5.623   1.022   2.796
 3994TIP3   OH233540   5.706   1.201   0.297
 3994TIP3    H133541   5.759   1.210   0.376
 3994TIP3    H233542   5.669   1.288   0.284
 3995TIP3   OH233543   6.310   4.621   0.193
 3995TIP3    H133544   6.381   4.613   0.130
 3995TIP3    H233545   6.328   4.704   0.238
 3996TIP3   OH233546   2.639   3.261   1.675
 3996TIP3    H133547   2.555   3.300   1.700
 3996TIP3    H233548   2.672   3.223   1.756
 3997TIP3   OH233549   3.920   3.262   7.135
 3997TIP3    H133550   3.829   3.241   7.114
 3997TIP3    H233551   3.923   3.358   7.137
 3998TIP3   OH233552   6.159   3.660   2.137
 3998TIP3    H133553   6.111   3.705   2.206
 3998TIP3    H233554   6.198   3.730   2.085
 3999TIP3   OH233555   6.148   3.010   0.812
 3999TIP3    H133556   6.123   3.051   0.729
 3999TIP3    H233557   6.136   2.916   0.797
 4000TIP3   OH233558   5.235   2.957   1.565
 4000TIP3    H133559   5.203   2.981   1.478
 4000TIP3    H233560   5.155   2.946   1.618
 4001TIP3   OH233561   2.956   1.620   8.555
 4001TIP3    H133562   2.962   1.595   8.647
 4001TIP3    H233563   2.940   1.538   8.508
 4002TIP3   OH233564   6.364   1.200   0.198
 4002TIP3    H133565   6.274   1.199   0.163
 4002TIP3    H233566   6.384   1.293   0.210
 4003TIP3   OH233567   3.877   1.250   7.807
 4003TIP3    H133568   3.879   1.210   7.894
 4003TIP3    H233569   3.785   1.270   7.791
 4004TIP3   OH233570   2.501   1.552   0.893
 4004TIP3    H133571   2.596   1.542   0.899
 4004TIP3    H233572   2.488   1.605   0.814
 4005TIP3   OH233573   5.442   4.995   7.149
 4005TIP3    H133574   5.516   5.046   7.182
 4005TIP3    H233575   5.482   4.925   7.097
 4006TIP3   OH233576   0.864   2.589   7.784
 4006TIP3    H133577   0.932   2.643   7.744
 4006TIP3    H233578   0.912   2.516   7.823
 4007TIP3   OH233579   6.229   2.407   6.732
 4007TIP3    H133580   6.227   2.498   6.760
 4007TIP3    H233581   6.177   2.360   6.797
 4008TIP3   OH233582   2.368   0.931   1.404
 4008TIP3    H133583   2.419   0.945   1.483
 4008TIP3    H233584   2.397   1.001   1.344
 4009TIP3   OH233585   2.825   3.354   0.549
 4009TIP3    H133586   2.766   3.329   0.621
 4009TIP3    H233587   2.798   3.299   0.476
 4010TIP3   OH233588   0.085   4.938   0.022
 4010TIP3    H133589   0.134   4.969   0.098
 4010TIP3    H233590   6.841   4.916   0.057
 4011TIP3   OH233591   0.823   6.343   6.934
 4011TIP3    H133592   0.741   6.316   6.893
 4011TIP3    H233593   0.886   6.345   6.862
 4012TIP3   OH233594   3.348   2.813   7.672
 4012TIP3    H133595   3.391   2.854   7.747
 4012TIP3    H233596   3.413   2.818   7.602
 4013TIP3   OH233597   1.889   2.872   7.047
 4013TIP3    H133598   1.861   2.781   7.058
 4013TIP3    H233599   1.819   2.912   6.995
 4014TIP3   OH233600   2.653   4.320   7.275
 4014TIP3    H133601   2.592   4.350   7.207
 4014TIP3    H233602   2.738   4.322   7.232
 4015TIP3   OH233603   6.772   0.650   1.256
 4015TIP3    H133604   6.843   0.679   1.314
 4015TIP3    H233605   6.713   0.601   1.314
 4016TIP3   OH233606   1.435   0.497   8.617
 4016TIP3    H133607   1.420   0.434   8.547
 4016TIP3    H233608   1.348   0.527   8.642
 4017TIP3   OH233609   2.662   6.345   1.867
 4017TIP3    H133610   2.663   6.420   1.926
 4017TIP3    H233611   2.754   6.318   1.861
 4018TIP3   OH233612   0.340   3.113   8.560
 4018TIP3    H133613   0.328   3.077   8.473
 4018TIP3    H233614   0.251   3.119   8.596
 4019TIP3   OH233615   6.073   3.401   0.977
 4019TIP3    H133616   6.022   3.367   0.904
 4019TIP3    H233617   6.071   3.496   0.965
 4020TIP3   OH233618   3.134   1.185   8.685
 4020TIP3    H133619   3.056   1.142   0.005
 4020TIP3    H233620   3.119   1.278   8.701
 4021TIP3   OH233621   0.422   5.044   6.879
 4021TIP3    H133622   0.360   4.972   6.867
 4021TIP3    H233623   0.409   5.073   6.969
 4022TIP3   OH233624   6.162   4.059   0.541
 4022TIP3    H133625   6.214   4.125   0.496
 4022TIP3    H233626   6.226   3.993   0.569
 4023TIP3   OH233627   3.474   5.601   7.191
 4023TIP3    H133628   3.409   5.577   7.256
 4023TIP3    H233629   3.558   5.586   7.234
 4024TIP3   OH233630   1.266   6.104   7.380
 4024TIP3    H133631   1.256   6.013   7.352
 4024TIP3    H233632   1.347   6.104   7.431
 4025TIP3   OH233633   1.820   6.276   0.198
 4025TIP3    H133634   1.807   6.205   0.135
 4025TIP3    H233635   1.741   6.274   0.253
 4026TIP3   OH233636   5.345   4.479   7.663
 4026TIP3    H133637   5.357   4.513   7.752
 4026TIP3    H233638   5.430   4.491   7.622
 4027TIP3   OH233639   6.166   3.236   8.106
 4027TIP3    H133640   6.087   3.285   8.130
 4027TIP3    H233641   6.195   3.195   8.188
 4028TIP3   OH233642   2.982   6.130   7.312
 4028TIP3    H133643   2.910   6.157   7.370
 4028TIP3    H233644   3.038   6.076   7.368
 4029TIP3   OH233645   1.751   3.857   6.357
 4029TIP3    H133646   1.657   3.842   6.341
 4029TIP3    H233647   1.794   3.782   6.315
 4030TIP3   OH233648   4.280   3.932   1.707
 4030TIP3    H133649   4.204   3.902   1.657
 4030TIP3    H233650   4.337   3.974   1.642
 4031TIP3   OH233651   1.100   3.089   6.440
 4031TIP3    H133652   1.092   3.149   6.513
 4031TIP3    H233653   1.193   3.070   6.433
 4032TIP3   OH233654   4.032   2.859   1.659
 4032TIP3    H133655   4.056   2.951   1.665
 4032TIP3    H233656   3.939   2.860   1.636
 4033TIP3   OH233657   3.214   5.057   7.462
 4033TIP3    H133658   3.292   5.038   7.409
 4033TIP3    H233659   3.217   5.151   7.476
 4034TIP3   OH233660   0.759   5.434   8.026
 4034TIP3    H133661   0.775   5.512   7.973
 4034TIP3    H233662   0.832   5.433   8.089
 4035TIP3   OH233663   3.796   4.447   7.029
 4035TIP3    H133664   3.859   4.387   7.071
 4035TIP3    H233665   3.796   4.420   6.937
 4036TIP3   OH233666   0.196   5.511   1.212
 4036TIP3    H133667   0.150   5.450   1.268
 4036TIP3    H233668   0.270   5.542   1.265
 4037TIP3   OH233669   2.722   5.815   7.044
 4037TIP3    H133670   2.749   5.902   7.073
 4037TIP3    H233671   2.764   5.804   6.959
 4038TIP3   OH233672   1.590   0.741   1.588
 4038TIP3    H133673   1.651   0.668   1.596
 4038TIP3    H233674   1.624   0.808   1.647
 4039TIP3   OH233675   4.154   4.285   0.765
 4039TIP3    H133676   4.059   4.288   0.776
 4039TIP3    H233677   4.168   4.283   0.670
 4040TIP3   OH233678   6.011   3.990   7.540
 4040TIP3    H133679   5.955   4.008   7.615
 4040TIP3    H233680   6.093   3.958   7.578
 4041TIP3   OH233681   1.472   6.282   0.918
 4041TIP3    H133682   1.508   6.266   1.005
 4041TIP3    H233683   1.428   6.367   0.926
 4042TIP3   OH233684   3.257   4.473   0.435
 4042TIP3    H133685   3.321   4.437   0.496
 4042TIP3    H233686   3.203   4.399   0.409
 4043TIP3   OH233687   1.798   5.929   1.942
 4043TIP3    H133688   1.829   6.018   1.926
 4043TIP3    H233689   1.859   5.873   1.894
 4044TIP3   OH233690   3.713   3.570   0.388
 4044TIP3    H133691   3.636   3.515   0.404
 4044TIP3    H233692   3.732   3.558   0.295
 4045TIP3   OH233693   4.920   5.311   7.879
 4045TIP3    H133694   4.877   5.235   7.917
 4045TIP3    H233695   4.897   5.383   7.937
 4046TIP3   OH233696   2.120   6.698   6.607
 4046TIP3    H133697   2.126   6.651   6.690
 4046TIP3    H233698   2.187   6.659   6.552
 4047TIP3   OH233699   2.798   5.894   2.148
 4047TIP3    H133700   2.892   5.915   2.146
 4047TIP3    H233701   2.795   5.801   2.168
 4048TIP3   OH233702   1.925   3.272   0.427
 4048TIP3    H133703   1.874   3.323   0.490
 4048TIP3    H233704   1.904   3.309   0.342
 4049TIP3   OH233705   0.295   3.548   0.546
 4049TIP3    H133706   0.209   3.554   0.589
 4049TIP3    H233707   0.337   3.472   0.587
 4050TIP3   OH233708   5.823   4.163   1.033
 4050TIP3    H133709   5.879   4.239   1.044
 4050TIP3    H233710   5.862   4.115   0.959
 4051TIP3   OH233711   4.830   6.368   7.384
 4051TIP3    H133712   4.872   6.449   7.412
 4051TIP3    H233713   4.799   6.328   7.466
 4052TIP3   OH233714   2.088   5.505   1.436
 4052TIP3    H133715   2.099   5.597   1.458
 4052TIP3    H233716   2.133   5.458   1.506
 4053TIP3   OH233717   6.650   4.326   8.521
 4053TIP3    H133718   6.658   4.282   8.606
 4053TIP3    H233719   6.575   4.284   8.479
 4054TIP3   OH233720   4.581   3.456   1.903
 4054TIP3    H133721   4.571   3.496   1.989
 4054TIP3    H233722   4.495   3.418   1.885
 4055TIP3   OH233723   2.643   2.788   6.343
 4055TIP3    H133724   2.690   2.807   6.424
 4055TIP3    H233725   2.683   2.707   6.311
 4056TIP3   OH233726   6.018   5.793   7.317
 4056TIP3    H133727   6.103   5.837   7.311
 4056TIP3    H233728   5.978   5.829   7.395
 4057TIP3   OH233729   6.425   2.230   6.864
 4057TIP3    H133730   6.520   2.246   6.863
 4057TIP3    H233731   6.393   2.270   6.784
 4058TIP3   OH233732   1.894   3.969   7.140
 4058TIP3    H133733   1.862   4.007   7.058
 4058TIP3    H233734   1.941   3.890   7.112
 4059TIP3   OH233735   1.153   4.759   6.744
 4059TIP3    H133736   1.076   4.810   6.718
 4059TIP3    H233737   1.130   4.669   6.721
 4060TIP3   OH233738   0.118   0.507   2.012
 4060TIP3    H133739   0.158   0.583   2.054
 4060TIP3    H233740   0.060   0.470   2.079
 4061TIP3   OH233741   3.512   3.388   6.625
 4061TIP3    H133742   3.565   3.333   6.567
 4061TIP3    H233743   3.564   3.467   6.638
 4062TIP3   OH233744   1.617   1.181   7.810
 4062TIP3    H133745   1.659   1.098   7.829
 4062TIP3    H233746   1.548   1.188   7.876
 4063TIP3   OH233747   6.227   5.478   2.516
 4063TIP3    H133748   6.201   5.467   2.607
 4063TIP3    H233749   6.152   5.520   2.474
 4064TIP3   OH233750   0.354   1.260   8.199
 4064TIP3    H133751   0.412   1.231   8.129
 4064TIP3    H233752   0.268   1.268   8.157
 4065TIP3   OH233753   5.416   0.848   0.786
 4065TIP3    H133754   5.488   0.887   0.836
 4065TIP3    H233755   5.457   0.777   0.736
 4066TIP3   OH233756   3.260   6.395   6.615
 4066TIP3    H133757   3.185   6.382   6.674
 4066TIP3    H233758   3.291   6.483   6.634
 4067TIP3   OH233759   1.361   0.435   6.622
 4067TIP3    H133760   1.364   0.367   6.554
 4067TIP3    H233761   1.272   0.431   6.656
 4068TIP3   OH233762   3.246   5.893   8.124
 4068TIP3    H133763   3.175   5.829   8.124
 4068TIP3    H233764   3.207   5.971   8.164
 4069TIP3   OH233765   5.068   2.234   0.862
 4069TIP3    H133766   5.015   2.154   0.861
 4069TIP3    H233767   5.115   2.231   0.945
 4070TIP3   OH233768   1.863   3.544   1.143
 4070TIP3    H133769   1.788   3.579   1.191
 4070TIP3    H233770   1.937   3.597   1.173
 4071TIP3   OH233771   6.070   0.575   0.382
 4071TIP3    H133772   6.001   0.638   0.363
 4071TIP3    H233773   6.031   0.490   0.360
 4072TIP3   OH233774   4.582   4.342   7.618
 4072TIP3    H133775   4.634   4.356   7.697
 4072TIP3    H233776   4.646   4.340   7.547
 4073TIP3   OH233777   4.201   6.206   2.365
 4073TIP3    H133778   4.228   6.125   2.323
 4073TIP3    H233779   4.263   6.218   2.437
 4074TIP3   OH233780   0.658   5.823   2.032
 4074TIP3    H133781   0.645   5.844   2.124
 4074TIP3    H233782   0.747   5.786   2.028
 4075TIP3   OH233783   0.668   1.530   8.390
 4075TIP3    H133784   0.593   1.491   8.345
 4075TIP3    H233785   0.668   1.490   8.477
 4076TIP3   OH233786   5.115   2.249   1.138
 4076TIP3    H133787   5.035   2.283   1.179
 4076TIP3    H233788   5.124   2.160   1.172
 4077TIP3   OH233789   4.284   0.867   0.153
 4077TIP3    H133790   4.321   0.779   0.155
 4077TIP3    H233791   4.222   0.869   0.226
 4078TIP3   OH233792   3.621   2.177   0.108
 4078TIP3    H133793   3.656   2.188   0.020
 4078TIP3    H233794   3.698   2.169   0.164
 4079TIP3   OH233795   3.419   2.377   8.465
 4079TIP3    H133796   3.415   2.333   8.550
 4079TIP3    H233797   3.431   2.306   8.402
 4080TIP3   OH233798   4.227   4.890   8.403
 4080TIP3    H133799   4.133   4.907   8.408
 4080TIP3    H233800   4.256   4.887   8.494
 4081TIP3   OH233801   4.111   0.936   0.447
 4081TIP3    H133802   4.036   0.919   0.504
 4081TIP3    H233803   4.131   1.029   0.462
 4082TIP3   OH233804   2.366   3.856   1.232
 4082TIP3    H133805   2.333   3.942   1.257
 4082TIP3    H233806   2.447   3.874   1.186
 4083TIP3   OH233807   1.641   4.618   2.007
 4083TIP3    H133808   1.563   4.650   1.963
 4083TIP3    H233809   1.677   4.695   2.051
 4084TIP3   OH233810   2.078   6.783   7.705
 4084TIP3    H133811   2.052   6.779   7.613
 4084TIP3    H233812   2.013   6.729   7.750
 4085TIP3   OH233813   1.563   5.956   1.810
 4085TIP3    H133814   1.552   6.050   1.798
 4085TIP3    H233815   1.644   5.948   1.861
 4086TIP3   OH233816   5.387   0.241   7.219
 4086TIP3    H133817   5.298   0.230   7.185
 4086TIP3    H233818   5.435   0.280   7.146
 4087TIP3   OH233819   4.554   4.753   1.372
 4087TIP3    H133820   4.551   4.700   1.293
 4087TIP3    H233821   4.506   4.702   1.437
 4088TIP3   OH233822   6.653   3.662   7.641
 4088TIP3    H133823   6.677   3.621   7.724
 4088TIP3    H233824   6.560   3.643   7.630
 4089TIP3   OH233825   2.953   2.505   2.192
 4089TIP3    H133826   3.033   2.510   2.245
 4089TIP3    H233827   2.906   2.586   2.213
 4090TIP3   OH233828   6.688   0.747   8.426
 4090TIP3    H133829   6.680   0.735   8.332
 4090TIP3    H233830   6.764   0.694   8.451
 4091TIP3   OH233831   1.996   1.102   6.680
 4091TIP3    H133832   1.958   1.186   6.654
 4091TIP3    H233833   1.929   1.037   6.656
 4092TIP3   OH233834   0.144   0.692   1.430
 4092TIP3    H133835   0.116   0.619   1.486
 4092TIP3    H233836   0.232   0.668   1.403
 4093TIP3   OH233837   6.622   2.388   0.234
 4093TIP3    H133838   6.553   2.324   0.247
 4093TIP3    H233839   6.637   2.387   0.139
 4094TIP3   OH233840   1.447   2.348   8.137
 4094TIP3    H133841   1.504   2.271   8.135
 4094TIP3    H233842   1.480   2.404   8.067
 4095TIP3   OH233843   4.223   5.738   0.745
 4095TIP3    H133844   4.224   5.765   0.653
 4095TIP3    H233845   4.185   5.813   0.792
 4096TIP3   OH233846   2.299   2.082   7.433
 4096TIP3    H133847   2.330   2.120   7.351
 4096TIP3    H233848   2.284   2.157   7.491
 4097TIP3   OH233849   2.782   0.659   6.128
 4097TIP3    H133850   2.867   0.627   6.098
 4097TIP3    H233851   2.752   0.594   6.190
 4098TIP3   OH233852   1.024   4.675   0.516
 4098TIP3    H133853   0.970   4.738   0.468
 4098TIP3    H233854   0.965   4.604   0.538
 4099TIP3   OH233855   3.701   0.493   1.383
 4099TIP3    H133856   3.765   0.438   1.338
 4099TIP3    H233857   3.688   0.568   1.324
 4100TIP3   OH233858   2.276   3.559   7.703
 4100TIP3    H133859   2.257   3.638   7.652
 4100TIP3    H233860   2.194   3.538   7.747
 4101TIP3   OH233861   5.095   4.098   7.675
 4101TIP3    H133862   5.087   4.124   7.583
 4101TIP3    H233863   5.109   4.003   7.671
 4102TIP3   OH233864   4.550   4.112   7.227
 4102TIP3    H133865   4.560   4.033   7.174
 4102TIP3    H233866   4.626   4.166   7.205
 4103TIP3   OH233867   0.127   1.802   1.219
 4103TIP3    H133868   0.093   1.889   1.242
 4103TIP3    H233869   0.055   1.760   1.172
 4104TIP3   OH233870   0.254   1.019   1.846
 4104TIP3    H133871   0.164   1.004   1.877
 4104TIP3    H233872   0.305   1.027   1.927
 4105TIP3   OH233873   3.205   2.525   1.259
 4105TIP3    H133874   3.151   2.595   1.296
 4105TIP3    H233875   3.164   2.444   1.291
 4106TIP3   OH233876   1.035   4.751   0.088
 4106TIP3    H133877   1.050   4.775   0.179
 4106TIP3    H233878   1.013   4.658   0.090
 4107TIP3   OH233879   0.533   6.746   7.344
 4107TIP3    H133880   0.624   6.774   7.336
 4107TIP3    H233881   0.538   6.658   7.382
 4108TIP3   OH233882   0.747   2.834   7.897
 4108TIP3    H133883   0.745   2.796   7.985
 4108TIP3    H233884   0.752   2.758   7.839
 4109TIP3   OH233885   4.935   0.711   7.994
 4109TIP3    H133886   4.988   0.666   8.060
 4109TIP3    H233887   4.931   0.649   7.920
 4110TIP3   OH233888   5.798   4.503   6.450
 4110TIP3    H133889   5.824   4.496   6.358
 4110TIP3    H233890   5.832   4.423   6.490
 4111TIP3   OH233891   6.688   4.379   7.359
 4111TIP3    H133892   6.742   4.375   7.281
 4111TIP3    H233893   6.744   4.420   7.425
 4112TIP3   OH233894   4.161   4.110   8.272
 4112TIP3    H133895   4.235   4.054   8.296
 4112TIP3    H233896   4.202   4.190   8.239
 4113TIP3   OH233897   0.376   3.316   7.676
 4113TIP3    H133898   0.353   3.335   7.585
 4113TIP3    H233899   0.414   3.228   7.674
 4114TIP3   OH233900   6.360   5.755   1.387
 4114TIP3    H133901   6.344   5.705   1.306
 4114TIP3    H233902   6.283   5.811   1.395
 4115TIP3   OH233903   6.353   1.143   7.116
 4115TIP3    H133904   6.290   1.212   7.096
 4115TIP3    H233905   6.438   1.181   7.093
 4116TIP3   OH233906   0.485   2.408   0.355
 4116TIP3    H133907   0.578   2.392   0.373
 4116TIP3    H233908   0.440   2.384   0.436
 4117TIP3   OH233909   6.404   4.258   0.414
 4117TIP3    H133910   6.332   4.284   0.356
 4117TIP3    H233911   6.387   4.304   0.496
 4118TIP3   OH233912   0.019   0.551   7.203
 4118TIP3    H133913   6.785   0.498   7.224
 4118TIP3    H233914   6.840   0.595   7.121
 4119TIP3   OH233915   1.036   3.842   8.709
 4119TIP3    H133916   0.954   3.856   0.044
 4119TIP3    H233917   1.099   3.902   0.037
 4120TIP3   OH233918   5.549   5.586   0.204
 4120TIP3    H133919   5.490   5.530   0.153
 4120TIP3    H233920   5.637   5.559   0.177
 4121TIP3   OH233921   1.776   1.658   8.310
 4121TIP3    H133922   1.784   1.753   8.320
 4121TIP3    H233923   1.867   1.627   8.317
 4122TIP3   OH233924   4.536   6.477   6.334
 4122TIP3    H133925   4.530   6.477   6.239
 4122TIP3    H233926   4.466   6.419   6.363
 4123TIP3   OH233927   6.315   4.129   7.357
 4123TIP3    H133928   6.328   4.088   7.271
 4123TIP3    H233929   6.401   4.167   7.378
 4124TIP3   OH233930   6.218   0.286   1.998
 4124TIP3    H133931   6.165   0.253   2.070
 4124TIP3    H233932   6.304   0.247   2.011
 4125TIP3   OH233933   1.379   1.215   7.949
 4125TIP3    H133934   1.305   1.189   8.003
 4125TIP3    H233935   1.359   1.304   7.922
 4126TIP3   OH233936   1.490   0.387   6.864
 4126TIP3    H133937   1.452   0.403   6.778
 4126TIP3    H233938   1.416   0.357   6.918
 4127TIP3   OH233939   2.951   1.241   2.328
 4127TIP3    H133940   2.953   1.277   2.416
 4127TIP3    H233941   2.874   1.184   2.327
 4128TIP3   OH233942   2.718   5.689   0.237
 4128TIP3    H133943   2.643   5.631   0.229
 4128TIP3    H233944   2.760   5.685   0.151
 4129TIP3   OH233945   6.684   5.633   1.403
 4129TIP3    H133946   6.619   5.566   1.423
 4129TIP3    H233947   6.644   5.686   1.334
 4130TIP3   OH233948   6.511   5.299   1.927
 4130TIP3    H133949   6.479   5.230   1.986
 4130TIP3    H233950   6.507   5.379   1.980
 4131TIP3   OH233951   0.837   1.246   7.905
 4131TIP3    H133952   0.776   1.199   7.962
 4131TIP3    H233953   0.861   1.324   7.954
 4132TIP3   OH233954   2.198   6.510   8.312
 4132TIP3    H133955   2.205   6.577   8.244
 4132TIP3    H233956   2.267   6.447   8.290
 4133TIP3   OH233957   5.854   5.069   1.630
 4133TIP3    H133958   5.853   5.141   1.567
 4133TIP3    H233959   5.946   5.058   1.652
 4134TIP3   OH233960   3.661   5.508   1.135
 4134TIP3    H133961   3.644   5.435   1.075
 4134TIP3    H233962   3.655   5.586   1.080
 4135TIP3   OH233963   6.724   4.171   2.220
 4135TIP3    H133964   6.671   4.179   2.299
 4135TIP3    H233965   6.729   4.077   2.203
 4136TIP3   OH233966   6.180   2.080   7.627
 4136TIP3    H133967   6.248   2.073   7.560
 4136TIP3    H233968   6.210   2.151   7.684
 4137TIP3   OH233969   6.417   6.704   7.656
 4137TIP3    H133970   6.383   6.792   7.644
 4137TIP3    H233971   6.366   6.650   7.595
 4138TIP3   OH233972   5.677   4.356   8.055
 4138TIP3    H133973   5.693   4.348   7.961
 4138TIP3    H233974   5.759   4.326   8.095
 4139TIP3   OH233975   0.945   0.676   2.277
 4139TIP3    H133976   0.862   0.695   2.234
 4139TIP3    H233977   0.930   0.594   2.324
 4140TIP3   OH233978   0.280   0.364   1.034
 4140TIP3    H133979   0.187   0.379   1.054
 4140TIP3    H233980   0.326   0.390   1.113
 4141TIP3   OH233981   1.221   2.012   6.447
 4141TIP3    H133982   1.312   2.005   6.419
 4141TIP3    H233983   1.185   1.924   6.436
 4142TIP3   OH233984   3.826   3.931   1.395
 4142TIP3    H133985   3.827   3.969   1.307
 4142TIP3    H233986   3.861   3.843   1.383
 4143TIP3   OH233987   4.762   5.136   0.988
 4143TIP3    H133988   4.723   5.160   1.072
 4143TIP3    H233989   4.690   5.139   0.926
 4144TIP3   OH233990   2.211   0.194   7.529
 4144TIP3    H133991   2.207   0.117   7.471
 4144TIP3    H233992   2.269   0.167   7.600
 4145TIP3   OH233993   0.859   4.045   8.555
 4145TIP3    H133994   0.837   4.018   8.466
 4145TIP3    H233995   0.890   3.965   8.598
 4146TIP3   OH233996   2.112   5.395   1.056
 4146TIP3    H133997   2.090   5.359   0.970
 4146TIP3    H233998   2.200   5.362   1.073
 4147TIP3   OH233999   6.647   4.454   7.905
 4147TIP3    H134000   6.742   4.459   7.912
 4147TIP3    H234001   6.618   4.545   7.899
 4148TIP3   OH234002   6.497   3.646   6.481
 4148TIP3    H134003   6.545   3.660   6.563
 4148TIP3    H234004   6.566   3.637   6.415
 4149TIP3   OH234005   6.530   5.385   1.546
 4149TIP3    H134006   6.446   5.390   1.500
 4149TIP3    H234007   6.553   5.292   1.543
 4150TIP3   OH234008   2.844   6.825   8.340
 4150TIP3    H134009   2.919   6.782   8.298
 4150TIP3    H234010   2.768   6.774   8.312
 4151TIP3   OH234011   0.502   2.692   1.600
 4151TIP3    H134012   0.558   2.770   1.597
 4151TIP3    H234013   0.413   2.726   1.599
 4152TIP3   OH234014   6.323   6.577   1.359
 4152TIP3    H134015   6.340   6.562   1.266
 4152TIP3    H234016   6.249   6.521   1.380
 4153TIP3   OH234017   2.101   1.117   1.935
 4153TIP3    H134018   2.062   1.166   1.863
 4153TIP3    H234019   2.027   1.095   1.992
 4154TIP3   OH234020   5.743   1.691   7.568
 4154TIP3    H134021   5.680   1.643   7.622
 4154TIP3    H234022   5.812   1.627   7.551
 4155TIP3   OH234023   1.914   0.273   1.616
 4155TIP3    H134024   1.844   0.209   1.633
 4155TIP3    H234025   1.988   0.220   1.588
 4156TIP3   OH234026   6.401   5.176   8.298
 4156TIP3    H134027   6.442   5.259   8.323
 4156TIP3    H234028   6.318   5.175   8.345
 4157TIP3   OH234029   5.622   6.461   7.735
 4157TIP3    H134030   5.717   6.468   7.738
 4157TIP3    H234031   5.595   6.526   7.670
 4158TIP3   OH234032   0.986   2.792   7.573
 4158TIP3    H134033   0.954   2.828   7.490
 4158TIP3    H234034   0.987   2.866   7.633
 4159TIP3   OH234035   6.811   0.353   2.182
 4159TIP3    H134036   6.800   0.263   2.153
 4159TIP3    H234037   0.013   0.346   2.266
 4160TIP3   OH234038   1.826   3.716   8.207
 4160TIP3    H134039   1.842   3.784   8.272
 4160TIP3    H234040   1.743   3.677   8.232
 4161TIP3   OH234041   2.362   0.554   1.209
 4161TIP3    H134042   2.309   0.615   1.260
 4161TIP3    H234043   2.430   0.525   1.269
 4162TIP3   OH234044   1.768   4.251   0.080
 4162TIP3    H134045   1.699   4.267   0.144
 4162TIP3    H234046   1.848   4.245   0.133
 4163TIP3   OH234047   5.374   0.911   7.756
 4163TIP3    H134048   5.439   0.905   7.826
 4163TIP3    H234049   5.398   0.991   7.708
 4164TIP3   OH234050   1.745   1.594   0.320
 4164TIP3    H134051   1.828   1.623   0.282
 4164TIP3    H234052   1.767   1.517   0.372
 4165TIP3   OH234053   5.928   2.316   2.006
 4165TIP3    H134054   5.854   2.255   2.002
 4165TIP3    H234055   5.982   2.284   2.079
 4166TIP3   OH234056   6.650   3.636   1.335
 4166TIP3    H134057   6.739   3.671   1.343
 4166TIP3    H234058   6.608   3.658   1.418
 4167TIP3   OH234059   4.518   1.921   0.427
 4167TIP3    H134060   4.482   1.861   0.362
 4167TIP3    H234061   4.443   1.975   0.453
 4168TIP3   OH234062   0.415   6.556   0.617
 4168TIP3    H134063   0.447   6.469   0.593
 4168TIP3    H234064   0.320   6.552   0.601
 4169TIP3   OH234065   2.222   1.654   0.296
 4169TIP3    H134066   2.152   1.589   0.304
 4169TIP3    H234067   2.224   1.676   0.203
 4170TIP3   OH234068   1.671   0.959   1.763
 4170TIP3    H134069   1.603   1.026   1.769
 4170TIP3    H234070   1.705   0.952   1.852
 4171TIP3   OH234071   3.326   2.855   0.363
 4171TIP3    H134072   3.363   2.930   0.408
 4171TIP3    H234073   3.264   2.893   0.300
 4172TIP3   OH234074   0.243   3.056   0.634
 4172TIP3    H134075   0.318   2.997   0.641
 4172TIP3    H234076   0.170   3.007   0.672
 4173TIP3   OH234077   2.457   2.845   0.106
 4173TIP3    H134078   2.474   2.826   0.198
 4173TIP3    H234079   2.387   2.910   0.106
 4174TIP3   OH234080   3.174   5.484   0.983
 4174TIP3    H134081   3.220   5.485   1.067
 4174TIP3    H234082   3.212   5.410   0.935
 4175TIP3   OH234083   3.747   0.699   1.190
 4175TIP3    H134084   3.734   0.653   1.107
 4175TIP3    H234085   3.842   0.700   1.203
 4176TIP3   OH234086   4.100   4.140   8.682
 4176TIP3    H134087   4.189   4.104   8.673
 4176TIP3    H234088   4.094   4.206   8.614
 4177TIP3   OH234089   1.629   4.172   7.280
 4177TIP3    H134090   1.581   4.202   7.357
 4177TIP3    H234091   1.592   4.085   7.261
 4178TIP3   OH234092   0.264   3.843   7.093
 4178TIP3    H134093   0.180   3.819   7.052
 4178TIP3    H234094   0.252   3.824   7.186
 4179TIP3   OH234095   4.136   5.096   8.220
 4179TIP3    H134096   4.046   5.127   8.212
 4179TIP3    H234097   4.144   5.029   8.153
 4180TIP3   OH234098   5.429   6.109   2.242
 4180TIP3    H134099   5.406   6.027   2.199
 4180TIP3    H234100   5.522   6.101   2.261
 4181TIP3   OH234101   3.419   3.050   7.287
 4181TIP3    H134102   3.366   3.063   7.366
 4181TIP3    H234103   3.363   3.079   7.215
 4182TIP3   OH234104   6.616   4.688   1.522
 4182TIP3    H134105   6.614   4.715   1.614
 4182TIP3    H234106   6.707   4.666   1.506
 4183TIP3   OH234107   2.112   0.835   1.902
 4183TIP3    H134108   2.127   0.926   1.877
 4183TIP3    H234109   2.170   0.820   1.976
 4184TIP3   OH234110   6.110   2.556   7.177
 4184TIP3    H134111   6.106   2.647   7.208
 4184TIP3    H234112   6.187   2.520   7.220
 4185TIP3   OH234113   2.316   5.277   8.226
 4185TIP3    H134114   2.319   5.220   8.150
 4185TIP3    H234115   2.372   5.351   8.203
 4186TIP3   OH234116   2.367   1.323   0.987
 4186TIP3    H134117   2.429   1.395   0.995
 4186TIP3    H234118   2.357   1.311   0.892
 4187TIP3   OH234119   5.842   2.847   0.976
 4187TIP3    H134120   5.926   2.814   0.944
 4187TIP3    H234121   5.852   2.848   1.072
 4188TIP3   OH234122   3.252   1.612   7.808
 4188TIP3    H134123   3.315   1.662   7.861
 4188TIP3    H234124   3.281   1.625   7.718
 4189TIP3   OH234125   5.362   4.945   0.018
 4189TIP3    H134126   5.340   5.010   0.085
 4189TIP3    H234127   5.428   4.889   0.059
 4190TIP3   OH234128   3.747   0.588   0.911
 4190TIP3    H134129   3.698   0.529   0.969
 4190TIP3    H234130   3.679   0.633   0.860
 4191TIP3   OH234131   2.916   6.575   1.580
 4191TIP3    H134132   2.825   6.561   1.608
 4191TIP3    H234133   2.928   6.670   1.584
 4192TIP3   OH234134   3.102   6.107   1.413
 4192TIP3    H134135   3.131   6.195   1.389
 4192TIP3    H234136   3.143   6.091   1.498
 4193TIP3   OH234137   4.408   4.384   0.868
 4193TIP3    H134138   4.343   4.340   0.813
 4193TIP3    H234139   4.410   4.474   0.835
 4194TIP3   OH234140   6.462   0.462   1.068
 4194TIP3    H134141   6.431   0.376   1.041
 4194TIP3    H234142   6.433   0.522   0.999
 4195TIP3   OH234143   0.194   4.382   6.613
 4195TIP3    H134144   0.227   4.452   6.557
 4195TIP3    H234145   0.214   4.302   6.565
 4196TIP3   OH234146   0.255   5.594   7.512
 4196TIP3    H134147   0.221   5.665   7.459
 4196TIP3    H234148   0.235   5.619   7.602
 4197TIP3   OH234149   6.412   0.963   2.238
 4197TIP3    H134150   6.479   1.017   2.197
 4197TIP3    H234151   6.453   0.931   2.319
 4198TIP3   OH234152   3.910   4.424   0.810
 4198TIP3    H134153   3.881   4.417   0.719
 4198TIP3    H234154   3.840   4.473   0.853
 4199TIP3   OH234155   1.792   4.486   7.334
 4199TIP3    H134156   1.698   4.500   7.337
 4199TIP3    H234157   1.809   4.460   7.243
 4200TIP3   OH234158   5.933   4.717   7.669
 4200TIP3    H134159   6.017   4.694   7.628
 4200TIP3    H234160   5.872   4.726   7.596
 4201TIP3   OH234161   4.651   0.656   8.046
 4201TIP3    H134162   4.618   0.738   8.083
 4201TIP3    H234163   4.733   0.679   8.004
 4202TIP3   OH234164   0.396   1.878   7.822
 4202TIP3    H134165   0.466   1.814   7.808
 4202TIP3    H234166   0.352   1.849   7.902
 4203TIP3   OH234167   3.374   3.690   6.046
 4203TIP3    H134168   3.401   3.779   6.022
 4203TIP3    H234169   3.426   3.634   5.989
 4204TIP3   OH234170   4.209   3.478   0.771
 4204TIP3    H134171   4.286   3.511   0.816
 4204TIP3    H234172   4.138   3.536   0.799
 4205TIP3   OH234173   0.167   6.215   8.293
 4205TIP3    H134174   0.213   6.176   8.220
 4205TIP3    H234175   0.083   6.170   8.296
 4206TIP3   OH234176   3.213   5.080   7.111
 4206TIP3    H134177   3.254   5.085   7.197
 4206TIP3    H234178   3.148   5.150   7.111
 4207TIP3   OH234179   1.919   6.138   1.238
 4207TIP3    H134180   1.997   6.194   1.240
 4207TIP3    H234181   1.915   6.106   1.148
 4208TIP3   OH234182   6.259   0.708   6.996
 4208TIP3    H134183   6.303   0.783   6.955
 4208TIP3    H234184   6.283   0.715   7.089
 4209TIP3   OH234185   0.064   4.406   0.973
 4209TIP3    H134186   0.019   4.378   0.893
 4209TIP3    H234187   0.156   4.385   0.958
 4210TIP3   OH234188   1.643   0.677   0.050
 4210TIP3    H134189   1.550   0.665   0.035
 4210TIP3    H234190   1.668   0.748   8.704
 4211TIP3   OH234191   0.207   6.296   1.402
 4211TIP3    H134192   0.294   6.258   1.414
 4211TIP3    H234193   0.169   6.296   1.490
 4212TIP3   OH234194   1.565   4.069   7.669
 4212TIP3    H134195   1.570   3.975   7.689
 4212TIP3    H234196   1.514   4.106   7.742
 4213TIP3   OH234197   5.173   4.147   1.628
 4213TIP3    H134198   5.223   4.155   1.547
 4213TIP3    H234199   5.224   4.085   1.681
 4214TIP3   OH234200   6.395   6.100   0.711
 4214TIP3    H134201   6.458   6.074   0.778
 4214TIP3    H234202   6.351   6.018   0.687
 4215TIP3   OH234203   4.706   3.703   6.529
 4215TIP3    H134204   4.687   3.684   6.621
 4215TIP3    H234205   4.801   3.691   6.522
 4216TIP3   OH234206   1.296   3.564   1.799
 4216TIP3    H134207   1.280   3.627   1.729
 4216TIP3    H234208   1.253   3.600   1.876
 4217TIP3   OH234209   3.822   2.191   1.595
 4217TIP3    H134210   3.915   2.214   1.596
 4217TIP3    H234211   3.777   2.275   1.577
 4218TIP3   OH234212   0.525   0.801   0.754
 4218TIP3    H134213   0.611   0.807   0.796
 4218TIP3    H234214   0.484   0.724   0.794
 4219TIP3   OH234215   4.618   0.403   2.003
 4219TIP3    H134216   4.534   0.361   2.022
 4219TIP3    H234217   4.675   0.375   2.074
 4220TIP3   OH234218   4.811   1.394   1.496
 4220TIP3    H134219   4.817   1.438   1.412
 4220TIP3    H234220   4.860   1.450   1.556
 4221TIP3   OH234221   3.520   1.494   1.047
 4221TIP3    H134222   3.461   1.507   1.121
 4221TIP3    H234223   3.558   1.581   1.031
 4222TIP3   OH234224   1.493   5.634   6.888
 4222TIP3    H134225   1.462   5.632   6.978
 4222TIP3    H234226   1.423   5.594   6.837
 4223TIP3   OH234227   5.297   1.406   8.650
 4223TIP3    H134228   5.337   1.470   8.709
 4223TIP3    H234229   5.301   1.447   8.564
 4224TIP3   OH234230   1.247   5.062   0.540
 4224TIP3    H134231   1.313   5.108   0.591
 4224TIP3    H234232   1.296   5.023   0.467
 4225TIP3   OH234233   5.679   6.195   8.255
 4225TIP3    H134234   5.766   6.174   8.220
 4225TIP3    H234235   5.649   6.113   8.294
 4226TIP3   OH234236   6.328   0.306   0.355
 4226TIP3    H134237   6.301   0.227   0.308
 4226TIP3    H234238   6.324   0.283   0.447
 4227TIP3   OH234239   0.881   2.536   1.453
 4227TIP3    H134240   0.828   2.579   1.385
 4227TIP3    H234241   0.952   2.599   1.470
 4228TIP3   OH234242   2.399   6.535   7.404
 4228TIP3    H134243   2.446   6.543   7.487
 4228TIP3    H234244   2.439   6.461   7.360
 4229TIP3   OH234245   0.704   4.942   7.552
 4229TIP3    H134246   0.612   4.938   7.579
 4229TIP3    H234247   0.753   4.918   7.631
 4230TIP3   OH234248   4.399   3.147   6.831
 4230TIP3    H134249   4.422   3.059   6.860
 4230TIP3    H234250   4.305   3.153   6.844
 4231TIP3   OH234251   5.159   0.980   8.695
 4231TIP3    H134252   5.222   1.048   0.005
 4231TIP3    H234253   5.122   1.009   8.611
 4232TIP3   OH234254   3.290   0.814   8.637
 4232TIP3    H134255   3.208   0.834   8.590
 4232TIP3    H234256   3.270   0.735   8.687
 4233TIP3   OH234257   6.113   2.365   1.488
 4233TIP3    H134258   6.057   2.308   1.435
 4233TIP3    H234259   6.201   2.351   1.453
 4234TIP3   OH234260   0.246   6.729   1.805
 4234TIP3    H134261   0.264   6.749   1.714
 4234TIP3    H234262   0.239   6.634   1.808
 4235TIP3   OH234263   5.180   3.133   0.520
 4235TIP3    H134264   5.109   3.073   0.542
 4235TIP3    H234265   5.239   3.129   0.596
 4236TIP3   OH234266   1.639   0.111   7.254
 4236TIP3    H134267   1.544   0.121   7.250
 4236TIP3    H234268   1.668   0.177   7.317
 4237TIP3   OH234269   2.558   1.019   1.578
 4237TIP3    H134270   2.590   0.971   1.654
 4237TIP3    H234271   2.628   1.081   1.557
 4238TIP3   OH234272   6.545   0.568   8.694
 4238TIP3    H134273   6.578   0.650   8.656
 4238TIP3    H234274   6.575   0.570   0.071
 4239TIP3   OH234275   3.286   0.325   8.216
 4239TIP3    H134276   3.358   0.269   8.245
 4239TIP3    H234277   3.286   0.317   8.121
 4240TIP3   OH234278   0.224   4.449   6.899
 4240TIP3    H134279   0.212   4.360   6.932
 4240TIP3    H234280   0.203   4.443   6.806
 4241TIP3   OH234281   1.193   3.325   7.935
 4241TIP3    H134282   1.125   3.334   8.001
 4241TIP3    H234283   1.255   3.263   7.973
 4242TIP3   OH234284   4.580   3.466   7.226
 4242TIP3    H134285   4.553   3.520   7.300
 4242TIP3    H234286   4.548   3.378   7.247
 4243TIP3   OH234287   4.852   1.938   6.752
 4243TIP3    H134288   4.757   1.928   6.743
 4243TIP3    H234289   4.889   1.874   6.692
 4244TIP3   OH234290   4.907   6.610   7.981
 4244TIP3    H134291   4.820   6.648   7.974
 4244TIP3    H234292   4.960   6.677   8.024
 4245TIP3   OH234293   0.707   2.998   0.887
 4245TIP3    H134294   0.737   2.931   0.824
 4245TIP3    H234295   0.663   2.948   0.955
 4246TIP3   OH234296   0.679   0.765   1.044
 4246TIP3    H134297   0.772   0.785   1.036
 4246TIP3    H234298   0.672   0.672   1.021
 4247TIP3   OH234299   4.556   5.457   0.916
 4247TIP3    H134300   4.569   5.500   1.000
 4247TIP3    H234301   4.542   5.365   0.938
 4248TIP3   OH234302   6.796   4.552   6.535
 4248TIP3    H134303   6.805   4.476   6.592
 4248TIP3    H234304   6.792   4.627   6.594
 4249TIP3   OH234305   5.472   5.071   7.656
 4249TIP3    H134306   5.450   5.156   7.693
 4249TIP3    H234307   5.396   5.017   7.673
 4250TIP3   OH234308   3.635   6.599   1.386
 4250TIP3    H134309   3.693   6.547   1.332
 4250TIP3    H234310   3.654   6.690   1.362
 4251TIP3   OH234311   1.835   0.163   0.738
 4251TIP3    H134312   1.788   0.213   0.804
 4251TIP3    H234313   1.766   0.123   0.685
 4252TIP3   OH234314   1.083   3.120   2.096
 4252TIP3    H134315   1.078   3.099   2.189
 4252TIP3    H234316   1.136   3.200   2.092
 4253TIP3   OH234317   2.169   0.091   0.323
 4253TIP3    H134318   2.166   0.002   0.288
 4253TIP3    H234319   2.084   0.104   0.365
 4254TIP3   OH234320   3.712   6.410   7.067
 4254TIP3    H134321   3.656   6.386   7.142
 4254TIP3    H234322   3.659   6.472   7.017
 4255TIP3   OH234323   5.672   1.681   1.457
 4255TIP3    H134324   5.655   1.637   1.540
 4255TIP3    H234325   5.767   1.691   1.454
 4256TIP3   OH234326   3.657   2.629   7.343
 4256TIP3    H134327   3.588   2.565   7.331
 4256TIP3    H234328   3.626   2.707   7.297
 4257TIP3   OH234329   2.961   0.578   7.046
 4257TIP3    H134330   2.975   0.606   6.955
 4257TIP3    H234331   2.868   0.597   7.062
 4258TIP3   OH234332   3.026   0.315   7.714
 4258TIP3    H134333   3.121   0.316   7.710
 4258TIP3    H234334   3.005   0.240   7.771
 4259TIP3   OH234335   3.524   6.133   0.508
 4259TIP3    H134336   3.585   6.098   0.573
 4259TIP3    H234337   3.552   6.094   0.426
 4260TIP3   OH234338   4.124   3.991   0.799
 4260TIP3    H134339   4.177   3.982   0.720
 4260TIP3    H234340   4.090   4.081   0.795
 4261TIP3   OH234341   4.725   1.800   7.035
 4261TIP3    H134342   4.723   1.778   6.942
 4261TIP3    H234343   4.676   1.882   7.041
 4262TIP3   OH234344   5.968   0.215   7.782
 4262TIP3    H134345   5.958   0.131   7.739
 4262TIP3    H234346   5.954   0.197   7.875
 4263TIP3   OH234347   2.432   6.252   0.988
 4263TIP3    H134348   2.427   6.159   1.011
 4263TIP3    H234349   2.379   6.260   0.909
 4264TIP3   OH234350   1.686   6.701   1.111
 4264TIP3    H134351   1.619   6.752   1.065
 4264TIP3    H234352   1.660   6.705   1.203
 4265TIP3   OH234353   2.074   4.969   1.356
 4265TIP3    H134354   2.119   4.937   1.278
 4265TIP3    H234355   2.043   5.057   1.332
 4266TIP3   OH234356   2.747   5.187   0.497
 4266TIP3    H134357   2.799   5.110   0.475
 4266TIP3    H234358   2.684   5.195   0.425
 4267TIP3   OH234359   4.187   1.971   8.107
 4267TIP3    H134360   4.260   1.912   8.090
 4267TIP3    H234361   4.228   2.055   8.126
 4268TIP3   OH234362   5.928   6.487   0.399
 4268TIP3    H134363   5.844   6.490   0.444
 4268TIP3    H234364   5.914   6.423   0.328
 4269TIP3   OH234365   3.001   5.159   8.557
 4269TIP3    H134366   2.986   5.083   8.613
 4269TIP3    H234367   3.032   5.227   8.616
 4270TIP3   OH234368   4.455   4.850   2.544
 4270TIP3    H134369   4.549   4.866   2.550
 4270TIP3    H234370   4.446   4.755   2.551
 4271TIP3   OH234371   1.978   0.609   0.252
 4271TIP3    H134372   1.909   0.542   0.257
 4271TIP3    H234373   1.968   0.658   0.334
 4272TIP3   OH234374   4.795   3.209   7.164
 4272TIP3    H134375   4.848   3.129   7.161
 4272TIP3    H234376   4.705   3.177   7.171
 4273TIP3   OH234377   0.276   3.060   1.878
 4273TIP3    H134378   0.289   3.131   1.941
 4273TIP3    H234379   0.346   2.998   1.897
 4274TIP3   OH234380   5.831   2.630   0.606
 4274TIP3    H134381   5.902   2.566   0.613
 4274TIP3    H234382   5.773   2.610   0.680
 4275TIP3   OH234383   2.687   4.008   8.103
 4275TIP3    H134384   2.707   3.955   8.180
 4275TIP3    H234385   2.742   4.086   8.112
 4276TIP3   OH234386   0.210   1.445   7.518
 4276TIP3    H134387   0.257   1.529   7.523
 4276TIP3    H234388   0.156   1.453   7.440
 4277TIP3   OH234389   0.309   3.615   1.272
 4277TIP3    H134390   0.277   3.572   1.193
 4277TIP3    H234391   0.294   3.550   1.341
 4278TIP3   OH234392   2.720   0.905   7.092
 4278TIP3    H134393   2.648   0.864   7.045
 4278TIP3    H234394   2.786   0.923   7.025
 4279TIP3   OH234395   2.646   1.601   6.771
 4279TIP3    H134396   2.645   1.562   6.684
 4279TIP3    H234397   2.598   1.538   6.826
 4280TIP3   OH234398   6.816   3.476   1.123
 4280TIP3    H134399   0.040   3.408   1.126
 4280TIP3    H234400   6.764   3.462   1.203
 4281TIP3   OH234401   4.785   5.900   7.599
 4281TIP3    H134402   4.715   5.868   7.657
 4281TIP3    H234403   4.740   5.924   7.518
 4282TIP3   OH234404   1.284   1.471   7.877
 4282TIP3    H134405   1.212   1.444   7.820
 4282TIP3    H234406   1.355   1.495   7.817
 4283TIP3   OH234407   0.742   2.351   0.376
 4283TIP3    H134408   0.704   2.286   0.434
 4283TIP3    H234409   0.828   2.316   0.353
 4284TIP3   OH234410   0.963   1.958   1.023
 4284TIP3    H134411   0.873   1.984   1.000
 4284TIP3    H234412   1.008   1.950   0.940
 4285TIP3   OH234413   2.594   5.118   0.902
 4285TIP3    H134414   2.675   5.073   0.925
 4285TIP3    H234415   2.615   5.211   0.911
 4286TIP3   OH234416   4.443   4.659   6.917
 4286TIP3    H134417   4.390   4.598   6.866
 4286TIP3    H234418   4.510   4.690   6.855
 4287TIP3   OH234419   6.479   0.199   1.990
 4287TIP3    H134420   6.547   0.241   2.043
 4287TIP3    H234421   6.517   0.115   1.965
 4288TIP3   OH234422   3.640   6.139   7.013
 4288TIP3    H134423   3.677   6.211   7.063
 4288TIP3    H234424   3.577   6.097   7.072
 4289TIP3   OH234425   4.852   1.715   7.793
 4289TIP3    H134426   4.941   1.749   7.802
 4289TIP3    H234427   4.839   1.660   7.870
 4290TIP3   OH234428   1.964   3.652   0.015
 4290TIP3    H134429   1.923   3.734   8.700
 4290TIP3    H234430   1.949   3.591   8.655
 4291TIP3   OH234431   1.615   1.647   8.066
 4291TIP3    H134432   1.694   1.651   8.120
 4291TIP3    H234433   1.554   1.593   8.117
 4292TIP3   OH234434   0.901   6.254   1.273
 4292TIP3    H134435   0.806   6.259   1.277
 4292TIP3    H234436   0.922   6.165   1.301
 4293TIP3   OH234437   4.954   2.402   0.079
 4293TIP3    H134438   4.945   2.429   0.171
 4293TIP3    H234439   5.048   2.405   0.062
 4294TIP3   OH234440   6.346   0.771   8.588
 4294TIP3    H134441   6.298   0.688   8.587
 4294TIP3    H234442   6.285   0.834   8.549
 4295TIP3   OH234443   6.260   5.299   1.787
 4295TIP3    H134444   6.352   5.324   1.797
 4295TIP3    H234445   6.246   5.229   1.850
 4296TIP3   OH234446   0.098   2.784   7.184
 4296TIP3    H134447   0.064   2.825   7.264
 4296TIP3    H234448   0.192   2.802   7.186
 4297TIP3   OH234449   6.308   3.183   1.553
 4297TIP3    H134450   6.289   3.244   1.624
 4297TIP3    H234451   6.321   3.099   1.597
 4298TIP3   OH234452   0.255   0.955   7.175
 4298TIP3    H134453   0.235   0.922   7.087
 4298TIP3    H234454   0.343   0.992   7.167
 4299TIP3   OH234455   5.846   4.052   1.315
 4299TIP3    H134456   5.846   3.994   1.391
 4299TIP3    H234457   5.910   4.120   1.336
 4300TIP3   OH234458   5.181   1.583   1.423
 4300TIP3    H134459   5.094   1.620   1.439
 4300TIP3    H234460   5.239   1.658   1.416
 4301TIP3   OH234461   6.733   3.111   1.221
 4301TIP3    H134462   6.725   3.028   1.269
 4301TIP3    H234463   6.715   3.178   1.287
 4302TIP3   OH234464   6.113   5.565   0.609
 4302TIP3    H134465   6.026   5.585   0.575
 4302TIP3    H234466   6.173   5.597   0.541
 4303TIP3   OH234467   5.508   3.110   7.165
 4303TIP3    H134468   5.584   3.132   7.112
 4303TIP3    H234469   5.496   3.187   7.222
 4304TIP3   OH234470   2.503   6.437   0.378
 4304TIP3    H134471   2.466   6.386   0.450
 4304TIP3    H234472   2.441   6.425   0.306
 4305TIP3   OH234473   4.265   3.317   0.305
 4305TIP3    H134474   4.199   3.368   0.353
 4305TIP3    H234475   4.221   3.293   0.223
 4306TIP3   OH234476   5.580   3.024   8.569
 4306TIP3    H134477   5.591   2.959   8.499
 4306TIP3    H234478   5.491   3.058   8.556
 4307TIP3   OH234479   2.876   0.583   1.525
 4307TIP3    H134480   2.966   0.614   1.530
 4307TIP3    H234481   2.864   0.559   1.433
 4308TIP3   OH234482   3.755   0.901   1.635
 4308TIP3    H134483   3.666   0.895   1.601
 4308TIP3    H234484   3.781   0.810   1.650
 4309TIP3   OH234485   3.232   6.343   1.209
 4309TIP3    H134486   3.249   6.391   1.290
 4309TIP3    H234487   3.186   6.406   1.153
 4310TIP3   OH234488   2.035   1.624   8.358
 4310TIP3    H134489   2.089   1.694   8.322
 4310TIP3    H234490   2.073   1.606   8.444
 4311TIP3   OH234491   3.089   2.349   0.041
 4311TIP3    H134492   3.151   2.293   8.708
 4311TIP3    H234493   3.074   2.305   0.124
 4312TIP3   OH234494   0.566   5.836   7.856
 4312TIP3    H134495   0.537   5.914   7.904
 4312TIP3    H234496   0.486   5.785   7.844
 4313TIP3   OH234497   4.141   1.946   6.838
 4313TIP3    H134498   4.131   2.025   6.785
 4313TIP3    H234499   4.235   1.926   6.832
 4314TIP3   OH234500   4.790   0.748   1.645
 4314TIP3    H134501   4.858   0.813   1.630
 4314TIP3    H234502   4.810   0.712   1.731
 4315TIP3   OH234503   0.584   5.665   6.993
 4315TIP3    H134504   0.507   5.609   7.000
 4315TIP3    H234505   0.650   5.610   6.950
 4316TIP3   OH234506   2.315   3.021   8.612
 4316TIP3    H134507   2.280   3.047   8.698
 4316TIP3    H234508   2.261   3.069   8.549
 4317TIP3   OH234509   3.439   0.964   6.867
 4317TIP3    H134510   3.513   1.002   6.820
 4317TIP3    H234511   3.397   1.039   6.909
 4318TIP3   OH234512   0.064   1.298   7.713
 4318TIP3    H134513   0.107   1.363   7.658
 4318TIP3    H234514   0.090   1.214   7.676
 4319TIP3   OH234515   1.871   1.763   7.050
 4319TIP3    H134516   1.865   1.845   7.000
 4319TIP3    H234517   1.787   1.758   7.096
 4320TIP3   OH234518   6.586   4.992   7.447
 4320TIP3    H134519   6.649   5.008   7.378
 4320TIP3    H234520   6.594   4.898   7.466
 4321TIP3   OH234521   5.710   3.199   7.011
 4321TIP3    H134522   5.650   3.263   6.974
 4321TIP3    H234523   5.781   3.252   7.049
 4322TIP3   OH234524   2.302   2.928   7.818
 4322TIP3    H134525   2.359   2.983   7.873
 4322TIP3    H234526   2.332   2.946   7.729
 4323TIP3   OH234527   6.768   4.631   0.776
 4323TIP3    H134528   6.797   4.685   0.850
 4323TIP3    H234529   6.811   4.546   0.790
 4324TIP3   OH234530   5.412   3.177   7.813
 4324TIP3    H134531   5.372   3.091   7.822
 4324TIP3    H234532   5.444   3.198   7.901
 4325TIP3   OH234533   0.674   1.540   2.276
 4325TIP3    H134534   0.594   1.501   2.312
 4325TIP3    H234535   0.669   1.632   2.302
 4326TIP3   OH234536   1.490   4.878   7.801
 4326TIP3    H134537   1.576   4.916   7.783
 4326TIP3    H234538   1.428   4.940   7.762
 4327TIP3   OH234539   0.902   3.089   1.865
 4327TIP3    H134540   0.972   3.041   1.910
 4327TIP3    H234541   0.935   3.179   1.859
 4328TIP3   OH234542   2.524   0.473   1.426
 4328TIP3    H134543   2.494   0.540   1.488
 4328TIP3    H234544   2.470   0.397   1.446
 4329TIP3   OH234545   6.170   5.139   7.404
 4329TIP3    H134546   6.259   5.172   7.420
 4329TIP3    H234547   6.118   5.174   7.476
 4330TIP3   OH234548   6.533   2.851   6.885
 4330TIP3    H134549   6.467   2.907   6.846
 4330TIP3    H234550   6.579   2.811   6.811
 4331TIP3   OH234551   5.473   4.704   1.955
 4331TIP3    H134552   5.561   4.668   1.966
 4331TIP3    H234553   5.416   4.646   2.005
 4332TIP3   OH234554   1.891   3.631   1.484
 4332TIP3    H134555   1.900   3.699   1.552
 4332TIP3    H234556   1.798   3.635   1.460
 4333TIP3   OH234557   3.059   3.635   0.973
 4333TIP3    H134558   3.119   3.651   1.045
 4333TIP3    H234559   2.989   3.699   0.984
 4334TIP3   OH234560   5.715   4.320   7.733
 4334TIP3    H134561   5.682   4.404   7.703
 4334TIP3    H234562   5.802   4.339   7.768
 4335TIP3   OH234563   5.581   3.220   0.086
 4335TIP3    H134564   5.571   3.178   0.000
 4335TIP3    H234565   5.613   3.150   0.142
 4336TIP3   OH234566   0.439   4.048   6.999
 4336TIP3    H134567   0.521   4.050   7.049
 4336TIP3    H234568   0.382   3.990   7.050
 4337TIP3   OH234569   6.627   2.297   7.807
 4337TIP3    H134570   6.697   2.353   7.773
 4337TIP3    H234571   6.597   2.342   7.886
 4338TIP3   OH234572   2.172   4.539   1.293
 4338TIP3    H134573   2.187   4.472   1.360
 4338TIP3    H234574   2.239   4.523   1.227
 4339TIP3   OH234575   6.290   5.602   7.478
 4339TIP3    H134576   6.349   5.673   7.504
 4339TIP3    H234577   6.341   5.522   7.494
 4340TIP3   OH234578   0.219   6.740   8.018
 4340TIP3    H134579   0.258   6.806   8.075
 4340TIP3    H234580   0.294   6.697   7.977
 4341TIP3   OH234581   4.111   1.467   1.021
 4341TIP3    H134582   4.197   1.436   1.050
 4341TIP3    H234583   4.079   1.398   0.963
 4342TIP3   OH234584   0.420   5.686   2.026
 4342TIP3    H134585   0.497   5.741   2.038
 4342TIP3    H234586   0.349   5.748   2.007
 4343TIP3   OH234587   2.811   6.069   1.914
 4343TIP3    H134588   2.730   6.050   1.961
 4343TIP3    H234589   2.877   6.083   1.983
 4344TIP3   OH234590   6.402   3.377   0.094
 4344TIP3    H134591   6.312   3.403   0.077
 4344TIP3    H234592   6.396   3.284   0.118
 4345TIP3   OH234593   0.234   2.457   0.876
 4345TIP3    H134594   0.171   2.398   0.833
 4345TIP3    H234595   0.190   2.543   0.875
 4346TIP3   OH234596   1.390   6.471   6.383
 4346TIP3    H134597   1.340   6.538   6.431
 4346TIP3    H234598   1.333   6.447   6.310
 4347TIP3   OH234599   4.373   1.068   8.125
 4347TIP3    H134600   4.301   1.124   8.152
 4347TIP3    H234601   4.349   1.037   8.038
 4348TIP3   OH234602   3.915   0.340   1.271
 4348TIP3    H134603   3.988   0.280   1.282
 4348TIP3    H234604   3.868   0.308   1.194
 4349TIP3   OH234605   2.923   5.179   1.820
 4349TIP3    H134606   2.849   5.175   1.880
 4349TIP3    H234607   3.000   5.171   1.876
 4350TIP3   OH234608   5.625   6.349   8.527
 4350TIP3    H134609   5.640   6.344   8.433
 4350TIP3    H234610   5.675   6.425   8.556
 4351TIP3   OH234611   6.361   6.730   0.757
 4351TIP3    H134612   6.326   6.788   0.689
 4351TIP3    H234613   6.289   6.669   0.774
 4352TIP3   OH234614   0.742   5.807   0.042
 4352TIP3    H134615   0.775   5.873   8.694
 4352TIP3    H234616   0.718   5.857   0.120
 4353TIP3   OH234617   2.744   2.730   1.421
 4353TIP3    H134618   2.761   2.697   1.332
 4353TIP3    H234619   2.770   2.822   1.418
 4354TIP3   OH234620   1.944   4.810   7.547
 4354TIP3    H134621   2.002   4.750   7.500
 4354TIP3    H234622   1.865   4.757   7.565
 4355TIP3   OH234623   5.802   0.369   7.151
 4355TIP3    H134624   5.801   0.380   7.246
 4355TIP3    H234625   5.730   0.425   7.120
 4356TIP3   OH234626   0.741   3.482   7.585
 4356TIP3    H134627   0.706   3.409   7.535
 4356TIP3    H234628   0.669   3.510   7.641
 4357TIP3   OH234629   3.581   6.300   1.792
 4357TIP3    H134630   3.549   6.359   1.723
 4357TIP3    H234631   3.548   6.337   1.873
 4358TIP3   OH234632   5.397   3.741   6.119
 4358TIP3    H134633   5.419   3.834   6.131
 4358TIP3    H234634   5.471   3.694   6.155
 4359TIP3   OH234635   3.677   4.147   7.698
 4359TIP3    H134636   3.717   4.092   7.766
 4359TIP3    H234637   3.712   4.111   7.616
 4360TIP3   OH234638   3.503   3.057   0.116
 4360TIP3    H134639   3.540   3.077   0.031
 4360TIP3    H234640   3.447   2.982   0.101
 4361TIP3   OH234641   2.681   3.531   8.203
 4361TIP3    H134642   2.669   3.529   8.107
 4361TIP3    H234643   2.592   3.537   8.238
 4362TIP3   OH234644   4.514   2.498   0.853
 4362TIP3    H134645   4.563   2.565   0.900
 4362TIP3    H234646   4.577   2.461   0.791
 4363TIP3   OH234647   6.349   0.749   0.620
 4363TIP3    H134648   6.305   0.742   0.704
 4363TIP3    H234649   6.390   0.836   0.621
 4364TIP3   OH234650   3.716   5.060   1.515
 4364TIP3    H134651   3.670   5.144   1.507
 4364TIP3    H234652   3.702   5.034   1.606
 4365TIP3   OH234653   5.805   6.338   1.866
 4365TIP3    H134654   5.885   6.332   1.918
 4365TIP3    H234655   5.821   6.282   1.791
 4366TIP3   OH234656   6.410   4.656   7.991
 4366TIP3    H134657   6.435   4.691   8.076
 4366TIP3    H234658   6.413   4.561   8.002
 4367TIP3   OH234659   0.785   5.768   8.452
 4367TIP3    H134660   0.768   5.735   8.540
 4367TIP3    H234661   0.714   5.733   8.398
 4368TIP3   OH234662   1.229   3.055   0.311
 4368TIP3    H134663   1.237   3.149   0.327
 4368TIP3    H234664   1.272   3.041   0.227
 4369TIP3   OH234665   0.788   2.767   0.764
 4369TIP3    H134666   0.850   2.786   0.693
 4369TIP3    H234667   0.809   2.678   0.792
 4370TIP3   OH234668   2.646   5.992   0.250
 4370TIP3    H134669   2.677   5.986   0.341
 4370TIP3    H234670   2.721   5.965   0.197
 4371TIP3   OH234671   0.844   1.369   1.436
 4371TIP3    H134672   0.934   1.340   1.445
 4371TIP3    H234673   0.836   1.394   1.344
 4372TIP3   OH234674   1.078   5.535   6.326
 4372TIP3    H134675   1.115   5.616   6.291
 4372TIP3    H234676   0.990   5.530   6.287
 4373TIP3   OH234677   4.324   3.955   8.672
 4373TIP3    H134678   4.418   3.969   8.664
 4373TIP3    H234679   4.316   3.863   8.699
 4374TIP3   OH234680   4.417   5.125   6.750
 4374TIP3    H134681   4.343   5.150   6.694
 4374TIP3    H234682   4.418   5.191   6.819
 4375TIP3   OH234683   2.923   3.665   6.918
 4375TIP3    H134684   2.886   3.749   6.891
 4375TIP3    H234685   2.883   3.648   7.004
 4376TIP3   OH234686   3.519   1.462   0.050
 4376TIP3    H134687   3.602   1.423   0.076
 4376TIP3    H234688   3.524   1.553   0.081
 4377TIP3   OH234689   4.378   2.414   7.731
 4377TIP3    H134690   4.436   2.459   7.793
 4377TIP3    H234691   4.352   2.334   7.776
 4378TIP3   OH234692   0.553   4.346   2.548
 4378TIP3    H134693   0.478   4.396   2.580
 4378TIP3    H234694   0.544   4.260   2.589
 4379TIP3   OH234695   0.299   6.574   8.412
 4379TIP3    H134696   0.376   6.608   8.367
 4379TIP3    H234697   0.283   6.636   8.482
 4380TIP3   OH234698   3.454   5.154   7.018
 4380TIP3    H134699   3.443   5.146   7.113
 4380TIP3    H234700   3.368   5.130   6.983
 4381TIP3   OH234701   4.448   2.547   2.062
 4381TIP3    H134702   4.412   2.592   2.138
 4381TIP3    H234703   4.435   2.454   2.082
 4382TIP3   OH234704   5.047   2.142   0.387
 4382TIP3    H134705   4.976   2.080   0.403
 4382TIP3    H234706   5.124   2.102   0.430
 4383TIP3   OH234707   4.961   2.650   7.488
 4383TIP3    H134708   4.916   2.566   7.501
 4383TIP3    H234709   4.891   2.711   7.464
 4384TIP3   OH234710   5.292   0.209   0.759
 4384TIP3    H134711   5.254   0.246   0.679
 4384TIP3    H234712   5.236   0.134   0.779
 4385TIP3   OH234713   1.106   0.638   0.418
 4385TIP3    H134714   1.175   0.572   0.429
 4385TIP3    H234715   1.119   0.698   0.491
 4386TIP3   OH234716   2.803   4.465   6.851
 4386TIP3    H134717   2.887   4.511   6.844
 4386TIP3    H234718   2.747   4.524   6.900
 4387TIP3   OH234719   2.046   5.891   7.572
 4387TIP3    H134720   2.036   5.893   7.667
 4387TIP3    H234721   2.068   5.981   7.548
 4388TIP3   OH234722   0.396   5.458   7.084
 4388TIP3    H134723   0.340   5.380   7.079
 4388TIP3    H234724   0.457   5.439   7.155
 4389TIP3   OH234725   4.599   2.026   2.154
 4389TIP3    H134726   4.582   2.121   2.154
 4389TIP3    H234727   4.516   1.987   2.181
 4390TIP3   OH234728   5.107   5.822   6.777
 4390TIP3    H134729   5.090   5.851   6.687
 4390TIP3    H234730   5.047   5.750   6.791
 4391TIP3   OH234731   0.318   5.016   1.779
 4391TIP3    H134732   0.404   4.996   1.814
 4391TIP3    H234733   0.332   5.032   1.686
 4392TIP3   OH234734   2.970   1.926   8.595
 4392TIP3    H134735   2.951   1.842   8.554
 4392TIP3    H234736   2.906   1.986   8.557
 4393TIP3   OH234737   4.605   6.505   0.679
 4393TIP3    H134738   4.650   6.582   0.647
 4393TIP3    H234739   4.645   6.487   0.764
 4394TIP3   OH234740   3.624   5.849   1.921
 4394TIP3    H134741   3.630   5.846   2.016
 4394TIP3    H234742   3.555   5.912   1.902
 4395TIP3   OH234743   1.081   5.305   1.885
 4395TIP3    H134744   1.099   5.399   1.882
 4395TIP3    H234745   1.059   5.282   1.795
 4396TIP3   OH234746   4.927   1.486   1.753
 4396TIP3    H134747   4.961   1.564   1.709
 4396TIP3    H234748   4.886   1.518   1.833
 4397TIP3   OH234749   5.042   3.951   0.366
 4397TIP3    H134750   4.980   3.985   0.430
 4397TIP3    H234751   5.121   4.004   0.378
 4398TIP3   OH234752   3.791   2.168   8.594
 4398TIP3    H134753   3.837   2.242   8.555
 4398TIP3    H234754   3.814   2.093   8.538
 4399TIP3   OH234755   1.687   3.428   7.909
 4399TIP3    H134756   1.718   3.342   7.880
 4399TIP3    H234757   1.723   3.438   7.997
 4400TIP3   OH234758   0.313   2.116   0.356
 4400TIP3    H134759   0.404   2.087   0.350
 4400TIP3    H234760   0.262   2.036   0.365
 4401TIP3   OH234761   3.262   1.039   8.109
 4401TIP3    H134762   3.183   1.088   8.129
 4401TIP3    H234763   3.231   0.949   8.095
 4402TIP3   OH234764   0.650   3.214   2.561
 4402TIP3    H134765   0.696   3.170   2.490
 4402TIP3    H234766   0.566   3.239   2.523
 4403TIP3   OH234767   6.596   4.293   2.786
 4403TIP3    H134768   6.550   4.376   2.795
 4403TIP3    H234769   6.533   4.235   2.743
 4404TIP3   OH234770   5.626   2.104   0.581
 4404TIP3    H134771   5.563   2.171   0.554
 4404TIP3    H234772   5.710   2.150   0.581
 4405TIP3   OH234773   2.880   3.800   2.135
 4405TIP3    H134774   2.893   3.715   2.177
 4405TIP3    H234775   2.961   3.815   2.086
 4406TIP3   OH234776   4.071   5.249   6.366
 4406TIP3    H134777   4.055   5.187   6.295
 4406TIP3    H234778   3.984   5.268   6.402
 4407TIP3   OH234779   4.055   6.039   7.401
 4407TIP3    H134780   4.021   5.950   7.410
 4407TIP3    H234781   3.976   6.094   7.396
 4408TIP3   OH234782   3.977   0.006   7.412
 4408TIP3    H134783   3.926   6.800   7.347
 4408TIP3    H234784   4.057   6.799   7.423
 4409TIP3   OH234785   0.050   6.513   6.523
 4409TIP3    H134786   6.819   6.458   6.549
 4409TIP3    H234787   0.034   6.596   6.568
 4410TIP3   OH234788   5.466   3.594   1.578
 4410TIP3    H134789   5.453   3.622   1.487
 4410TIP3    H234790   5.379   3.565   1.606
 4411TIP3   OH234791   0.434   6.296   0.844
 4411TIP3    H134792   0.477   6.256   0.769
 4411TIP3    H234793   0.503   6.346   0.887
 4412TIP3   OH234794   4.848   5.049   8.039
 4412TIP3    H134795   4.916   5.001   7.992
 4412TIP3    H234796   4.766   5.006   8.014
 4413TIP3   OH234797   2.046   5.755   6.449
 4413TIP3    H134798   2.097   5.712   6.517
 4413TIP3    H234799   2.036   5.689   6.381
 4414TIP3   OH234800   3.445   3.103   0.530
 4414TIP3    H134801   3.484   3.083   0.615
 4414TIP3    H234802   3.507   3.162   0.488
 4415TIP3   OH234803   6.676   6.544   0.314
 4415TIP3    H134804   6.702   6.636   0.313
 4415TIP3    H234805   6.622   6.535   0.393
 4416TIP3   OH234806   5.036   2.686   0.698
 4416TIP3    H134807   5.117   2.643   0.727
 4416TIP3    H234808   5.014   2.746   0.769
 4417TIP3   OH234809   4.673   0.493   0.868
 4417TIP3    H134810   4.637   0.509   0.781
 4417TIP3    H234811   4.767   0.489   0.855
 4418TIP3   OH234812   3.225   5.901   0.414
 4418TIP3    H134813   3.139   5.892   0.455
 4418TIP3    H234814   3.287   5.892   0.486
 4419TIP3   OH234815   1.206   6.683   0.457
 4419TIP3    H134816   1.299   6.676   0.434
 4419TIP3    H234817   1.205   6.740   0.534
 4420TIP3   OH234818   2.003   1.563   0.666
 4420TIP3    H134819   2.076   1.565   0.727
 4420TIP3    H234820   1.960   1.648   0.677
 4421TIP3   OH234821   6.722   4.729   7.851
 4421TIP3    H134822   6.660   4.786   7.806
 4421TIP3    H234823   6.807   4.752   7.815
 4422TIP3   OH234824   3.605   5.055   0.642
 4422TIP3    H134825   3.557   5.006   0.709
 4422TIP3    H234826   3.697   5.033   0.658
 4423TIP3   OH234827   6.720   1.059   7.530
 4423TIP3    H134828   6.639   1.102   7.501
 4423TIP3    H234829   6.770   1.046   7.450
 4424TIP3   OH234830   3.984   3.931   1.101
 4424TIP3    H134831   3.974   3.880   1.181
 4424TIP3    H234832   4.078   3.949   1.095
 4425TIP3   OH234833   3.280   2.048   1.918
 4425TIP3    H134834   3.191   2.078   1.902
 4425TIP3    H234835   3.331   2.082   1.844
 4426TIP3   OH234836   2.167   6.384   6.697
 4426TIP3    H134837   2.086   6.350   6.658
 4426TIP3    H234838   2.147   6.392   6.790
 4427TIP3   OH234839   4.890   0.437   8.580
 4427TIP3    H134840   4.857   0.525   8.599
 4427TIP3    H234841   4.970   0.429   8.633
 4428TIP3   OH234842   2.192   0.034   1.620
 4428TIP3    H134843   2.269   6.830   1.652
 4428TIP3    H234844   2.226   0.095   1.555
 4429TIP3   OH234845   4.261   2.437   8.109
 4429TIP3    H134846   4.352   2.465   8.115
 4429TIP3    H234847   4.211   2.518   8.095
 4430TIP3   OH234848   1.918   6.605   7.830
 4430TIP3    H134849   1.907   6.663   7.905
 4430TIP3    H234850   1.846   6.629   7.771
 4431TIP3   OH234851   2.361   5.957   7.629
 4431TIP3    H134852   2.348   5.982   7.720
 4431TIP3    H234853   2.362   6.039   7.581
 4432TIP3   OH234854   5.385   2.062   0.959
 4432TIP3    H134855   5.432   1.991   1.002
 4432TIP3    H234856   5.359   2.120   1.030
 4433TIP3   OH234857   6.614   1.972   6.954
 4433TIP3    H134858   6.633   2.048   6.899
 4433TIP3    H234859   6.521   1.954   6.940
 4434TIP3   OH234860   0.629   4.275   7.010
 4434TIP3    H134861   0.599   4.366   7.010
 4434TIP3    H234862   0.644   4.254   6.917
 4435TIP3   OH234863   1.427   3.472   0.758
 4435TIP3    H134864   1.410   3.430   0.843
 4435TIP3    H234865   1.423   3.566   0.777
 4436TIP3   OH234866   5.975   4.673   1.789
 4436TIP3    H134867   5.894   4.683   1.741
 4436TIP3    H234868   5.995   4.579   1.785
 4437TIP3   OH234869   4.140   5.049   2.342
 4437TIP3    H134870   4.151   5.037   2.437
 4437TIP3    H234871   4.069   5.113   2.334
 4438TIP3   OH234872   0.115   3.705   1.047
 4438TIP3    H134873   0.193   3.652   1.027
 4438TIP3    H234874   0.055   3.643   1.088
 4439TIP3   OH234875   0.109   4.318   0.720
 4439TIP3    H134876   0.103   4.223   0.723
 4439TIP3    H234877   0.065   4.343   0.638
 4440TIP3   OH234878   0.036   1.295   7.106
 4440TIP3    H134879   6.841   1.314   7.020
 4440TIP3    H234880   0.130   1.296   7.091
 4441TIP3   OH234881   6.702   2.319   8.292
 4441TIP3    H134882   6.641   2.368   8.348
 4441TIP3    H234883   6.763   2.278   8.354
 4442TIP3   OH234884   3.392   1.515   0.754
 4442TIP3    H134885   3.352   1.601   0.770
 4442TIP3    H234886   3.485   1.528   0.775
 4443TIP3   OH234887   5.880   6.048   1.317
 4443TIP3    H134888   5.908   6.130   1.359
 4443TIP3    H234889   5.785   6.050   1.323
 4444TIP3   OH234890   4.990   1.021   0.946
 4444TIP3    H134891   4.963   0.959   1.014
 4444TIP3    H234892   5.028   0.966   0.877
 4445TIP3   OH234893   1.482   0.242   1.302
 4445TIP3    H134894   1.459   0.244   1.394
 4445TIP3    H234895   1.577   0.230   1.301
 4446TIP3   OH234896   2.819   6.802   8.015
 4446TIP3    H134897   2.735   6.774   7.978
 4446TIP3    H234898   2.836   6.739   8.085
 4447TIP3   OH234899   0.208   1.568   7.780
 4447TIP3    H134900   0.134   1.618   7.815
 4447TIP3    H234901   0.227   1.610   7.696
 4448TIP3   OH234902   0.705   3.224   1.563
 4448TIP3    H134903   0.737   3.241   1.652
 4448TIP3    H234904   0.773   3.171   1.523
 4449TIP3   OH234905   1.883   3.001   6.511
 4449TIP3    H134906   1.789   2.988   6.527
 4449TIP3    H234907   1.918   2.912   6.504
 4450TIP3   OH234908   3.036   4.614   6.944
 4450TIP3    H134909   3.074   4.568   6.869
 4450TIP3    H234910   3.045   4.707   6.922
 4451TIP3   OH234911   4.831   4.725   8.030
 4451TIP3    H134912   4.880   4.702   7.951
 4451TIP3    H234913   4.791   4.642   8.058
 4452TIP3   OH234914   0.959   3.089   8.095
 4452TIP3    H134915   1.019   3.146   8.143
 4452TIP3    H234916   0.876   3.098   8.140
 4453TIP3   OH234917   1.380   4.314   6.179
 4453TIP3    H134918   1.431   4.287   6.256
 4453TIP3    H234919   1.420   4.397   6.152
 4454TIP3   OH234920   6.390   2.614   6.954
 4454TIP3    H134921   6.395   2.527   6.994
 4454TIP3    H234922   6.479   2.630   6.922
 4455TIP3   OH234923   2.340   3.196   0.359
 4455TIP3    H134924   2.305   3.219   0.445
 4455TIP3    H234925   2.363   3.280   0.319
 4456TIP3   OH234926   2.419   0.243   8.386
 4456TIP3    H134927   2.464   0.196   8.456
 4456TIP3    H234928   2.477   0.235   8.310
 4457TIP3   OH234929   2.881   4.954   6.342
 4457TIP3    H134930   2.850   4.878   6.293
 4457TIP3    H234931   2.974   4.937   6.357
 4458TIP3   OH234932   0.172   5.591   1.765
 4458TIP3    H134933   0.152   5.573   1.858
 4458TIP3    H234934   0.197   5.505   1.730
 4459TIP3   OH234935   6.259   4.632   1.728
 4459TIP3    H134936   6.231   4.644   1.637
 4459TIP3    H234937   6.190   4.580   1.768
 4460TIP3   OH234938   3.078   3.361   0.915
 4460TIP3    H134939   3.029   3.435   0.880
 4460TIP3    H234940   3.125   3.397   0.990
 4461TIP3   OH234941   6.171   5.075   1.480
 4461TIP3    H134942   6.150   5.021   1.557
 4461TIP3    H234943   6.166   5.165   1.512
 4462TIP3   OH234944   4.119   0.511   8.267
 4462TIP3    H134945   4.049   0.513   8.202
 4462TIP3    H234946   4.114   0.596   8.311
 4463TIP3   OH234947   1.160   6.006   2.174
 4463TIP3    H134948   1.073   6.043   2.187
 4463TIP3    H234949   1.149   5.912   2.186
 4464TIP3   OH234950   3.574   3.715   8.563
 4464TIP3    H134951   3.503   3.686   8.620
 4464TIP3    H234952   3.532   3.770   8.497
 4465TIP3   OH234953   3.809   5.720   2.248
 4465TIP3    H134954   3.879   5.785   2.251
 4465TIP3    H234955   3.731   5.768   2.221
 4466TIP3   OH234956   3.553   3.548   1.240
 4466TIP3    H134957   3.591   3.606   1.307
 4466TIP3    H234958   3.465   3.529   1.272
 4467TIP3   OH234959   1.852   0.862   2.138
 4467TIP3    H134960   1.888   0.949   2.155
 4467TIP3    H234961   1.912   0.802   2.182
 4468TIP3   OH234962   6.536   5.713   1.821
 4468TIP3    H134963   6.569   5.723   1.910
 4468TIP3    H234964   6.607   5.668   1.774
 4469TIP3   OH234965   0.964   3.231   0.150
 4469TIP3    H134966   1.010   3.166   0.097
 4469TIP3    H234967   0.985   3.314   0.108
 4470TIP3   OH234968   3.323   5.495   0.591
 4470TIP3    H134969   3.360   5.538   0.668
 4470TIP3    H234970   3.235   5.532   0.583
 4471TIP3   OH234971   6.086   1.219   0.276
 4471TIP3    H134972   6.006   1.246   0.321
 4471TIP3    H234973   6.070   1.240   0.184
 4472TIP3   OH234974   1.455   0.511   0.838
 4472TIP3    H134975   1.462   0.467   0.923
 4472TIP3    H234976   1.388   0.462   0.791
 4473TIP3   OH234977   5.411   0.880   8.536
 4473TIP3    H134978   5.382   0.845   8.620
 4473TIP3    H234979   5.494   0.835   8.519
 4474TIP3   OH234980   1.335   3.290   0.507
 4474TIP3    H134981   1.371   3.298   0.596
 4474TIP3    H234982   1.307   3.379   0.485
 4475TIP3   OH234983   1.953   5.999   6.461
 4475TIP3    H134984   1.988   5.913   6.443
 4475TIP3    H234985   1.965   6.049   6.380
 4476TIP3   OH234986   6.120   6.637   7.582
 4476TIP3    H134987   6.122   6.579   7.658
 4476TIP3    H234988   6.165   6.589   7.513
 4477TIP3   OH234989   6.397   1.707   8.253
 4477TIP3    H134990   6.312   1.663   8.256
 4477TIP3    H234991   6.438   1.682   8.336
 4478TIP3   OH234992   0.589   3.106   7.733
 4478TIP3    H134993   0.579   3.012   7.745
 4478TIP3    H234994   0.677   3.125   7.765
 4479TIP3   OH234995   3.121   5.289   1.969
 4479TIP3    H134996   3.167   5.304   1.886
 4479TIP3    H234997   3.127   5.195   1.983
 4480TIP3   OH234998   6.187   2.672   6.779
 4480TIP3    H134999   6.211   2.761   6.753
 4480TIP3    H235000   6.250   2.649   6.848
 4481TIP3   OH235001   0.244   3.078   2.293
 4481TIP3    H135002   0.182   3.151   2.288
 4481TIP3    H235003   0.197   3.003   2.256
 4482TIP3   OH235004   5.612   4.375   6.065
 4482TIP3    H135005   5.548   4.315   6.103
 4482TIP3    H235006   5.654   4.323   5.996
 4483TIP3   OH235007   4.060   3.690   0.894
 4483TIP3    H135008   4.083   3.778   0.864
 4483TIP3    H235009   3.965   3.692   0.905
 4484TIP3   OH235010   5.663   5.329   1.037
 4484TIP3    H135011   5.714   5.326   0.956
 4484TIP3    H235012   5.661   5.422   1.061
 4485TIP3   OH235013   0.022   4.523   0.338
 4485TIP3    H135014   6.787   4.572   0.364
 4485TIP3    H235015   0.022   4.447   0.396
 4486TIP3   OH235016   2.777   5.198   0.037
 4486TIP3    H135017   2.768   5.108   0.069
 4486TIP3    H235018   2.867   5.222   0.056
 4487TIP3   OH235019   5.134   4.250   7.074
 4487TIP3    H135020   5.135   4.161   7.109
 4487TIP3    H235021   5.082   4.244   6.994
 4488TIP3   OH235022   3.564   0.914   1.293
 4488TIP3    H135023   3.605   0.847   1.239
 4488TIP3    H235024   3.476   0.879   1.312
 4489TIP3   OH235025   2.961   1.711   0.119
 4489TIP3    H135026   2.887   1.703   0.179
 4489TIP3    H235027   2.935   1.779   0.057
 4490TIP3   OH235028   1.664   1.494   7.836
 4490TIP3    H135029   1.623   1.549   7.902
 4490TIP3    H235030   1.660   1.405   7.873
 4491TIP3   OH235031   1.895   4.710   8.569
 4491TIP3    H135032   1.830   4.659   8.521
 4491TIP3    H235033   1.917   4.782   8.510
 4492TIP3   OH235034   4.781   2.827   6.907
 4492TIP3    H135035   4.828   2.758   6.860
 4492TIP3    H235036   4.763   2.894   6.841
 4493TIP3   OH235037   4.815   3.913   8.209
 4493TIP3    H135038   4.743   3.895   8.270
 4493TIP3    H235039   4.827   4.008   8.213
 4494TIP3   OH235040   4.838   2.693   1.629
 4494TIP3    H135041   4.803   2.782   1.618
 4494TIP3    H235042   4.865   2.689   1.721
 4495TIP3   OH235043   2.977   3.479   0.214
 4495TIP3    H135044   2.885   3.500   0.228
 4495TIP3    H235045   3.001   3.528   0.135
 4496TIP3   OH235046   2.204   6.197   0.461
 4496TIP3    H135047   2.288   6.174   0.501
 4496TIP3    H235048   2.227   6.244   0.381
 4497TIP3   OH235049   6.139   5.726   2.214
 4497TIP3    H135050   6.208   5.792   2.219
 4497TIP3    H235051   6.123   5.715   2.121
 4498TIP3   OH235052   2.822   0.293   1.632
 4498TIP3    H135053   2.797   0.360   1.569
 4498TIP3    H235054   2.747   0.287   1.692
 4499TIP3   OH235055   5.292   4.215   7.805
 4499TIP3    H135056   5.238   4.162   7.746
 4499TIP3    H235057   5.327   4.284   7.750
 4500TIP3   OH235058   4.236   4.244   7.885
 4500TIP3    H135059   4.240   4.270   7.793
 4500TIP3    H235060   4.186   4.163   7.885
 4501TIP3   OH235061   0.809   4.549   1.058
 4501TIP3    H135062   0.777   4.464   1.088
 4501TIP3    H235063   0.794   4.549   0.963
 4502TIP3   OH235064   5.517   2.838   0.231
 4502TIP3    H135065   5.426   2.853   0.205
 4502TIP3    H235066   5.532   2.745   0.212
 4503TIP3   OH235067   5.857   3.583   7.175
 4503TIP3    H135068   5.883   3.658   7.122
 4503TIP3    H235069   5.762   3.593   7.186
 4504TIP3   OH235070   4.160   4.586   2.357
 4504TIP3    H135071   4.148   4.533   2.436
 4504TIP3    H235072   4.246   4.561   2.324
 4505TIP3   OH235073   5.293   2.593   1.680
 4505TIP3    H135074   5.290   2.652   1.605
 4505TIP3    H235075   5.333   2.646   1.749
 4506TIP3   OH235076   1.031   5.431   6.907
 4506TIP3    H135077   1.108   5.450   6.854
 4506TIP3    H235078   1.067   5.408   6.993
 4507TIP3   OH235079   0.871   0.230   7.003
 4507TIP3    H135080   0.789   0.218   7.051
 4507TIP3    H235081   0.939   0.210   7.067
 4508TIP3   OH235082   6.214   2.095   0.850
 4508TIP3    H135083   6.215   2.131   0.761
 4508TIP3    H235084   6.306   2.094   0.877
 4509TIP3   OH235085   3.910   6.468   1.012
 4509TIP3    H135086   3.942   6.513   1.091
 4509TIP3    H235087   3.965   6.503   0.941
 4510TIP3   OH235088   3.834   6.762   6.722
 4510TIP3    H135089   3.773   6.731   6.656
 4510TIP3    H235090   3.790   6.836   6.764
 4511TIP3   OH235091   0.792   0.015   0.375
 4511TIP3    H135092   0.859   6.789   0.366
 4511TIP3    H235093   0.841   0.092   0.403
 4512TIP3   OH235094   4.649   1.158   7.308
 4512TIP3    H135095   4.704   1.080   7.300
 4512TIP3    H235096   4.692   1.210   7.376
 4513TIP3   OH235097   1.493   4.285   7.513
 4513TIP3    H135098   1.411   4.296   7.561
 4513TIP3    H235099   1.530   4.204   7.547
 4514TIP3   OH235100   4.649   2.175   0.598
 4514TIP3    H135101   4.698   2.111   0.546
 4514TIP3    H235102   4.569   2.191   0.547
 4515TIP3   OH235103   0.472   0.821   6.926
 4515TIP3    H135104   0.562   0.839   6.896
 4515TIP3    H235105   0.473   0.849   7.018
 4516TIP3   OH235106   1.059   0.167   8.329
 4516TIP3    H135107   1.113   0.129   8.260
 4516TIP3    H235108   1.005   0.232   8.285
 4517TIP3   OH235109   5.733   1.200   0.831
 4517TIP3    H135110   5.794   1.188   0.758
 4517TIP3    H235111   5.664   1.256   0.795
 4518TIP3   OH235112   2.143   0.150   8.544
 4518TIP3    H135113   2.112   0.237   8.519
 4518TIP3    H235114   2.210   0.166   8.611
 4519TIP3   OH235115   6.368   4.404   8.146
 4519TIP3    H135116   6.344   4.360   8.227
 4519TIP3    H235117   6.461   4.423   8.155
 4520TIP3   OH235118   1.112   3.178   0.610
 4520TIP3    H135119   1.142   3.154   0.698
 4520TIP3    H235120   1.191   3.208   0.565
 4521TIP3   OH235121   6.038   2.004   0.568
 4521TIP3    H135122   6.050   1.934   0.632
 4521TIP3    H235123   6.125   2.043   0.558
 4522TIP3   OH235124   6.131   0.911   8.095
 4522TIP3    H135125   6.177   0.972   8.152
 4522TIP3    H235126   6.174   0.826   8.111
 4523TIP3   OH235127   5.428   4.721   1.293
 4523TIP3    H135128   5.406   4.777   1.219
 4523TIP3    H235129   5.384   4.762   1.368
 4524TIP3   OH235130   3.938   1.323   8.589
 4524TIP3    H135131   3.959   1.230   8.585
 4524TIP3    H235132   4.020   1.368   8.568
 4525TIP3   OH235133   2.790   3.167   8.368
 4525TIP3    H135134   2.878   3.198   8.389
 4525TIP3    H235135   2.732   3.224   8.418
 4526TIP3   OH235136   5.605   3.637   2.002
 4526TIP3    H135137   5.546   3.567   2.029
 4526TIP3    H235138   5.556   3.686   1.937
 4527TIP3   OH235139   0.499   5.441   0.285
 4527TIP3    H135140   0.586   5.481   0.280
 4527TIP3    H235141   0.466   5.466   0.371
 4528TIP3   OH235142   2.490   0.089   6.300
 4528TIP3    H135143   2.412   0.061   6.347
 4528TIP3    H235144   2.517   0.011   6.251
 4529TIP3   OH235145   1.989   4.534   2.545
 4529TIP3    H135146   1.994   4.621   2.585
 4529TIP3    H235147   2.077   4.518   2.511
 4530TIP3   OH235148   1.232   4.466   6.640
 4530TIP3    H135149   1.225   4.460   6.545
 4530TIP3    H235150   1.144   4.444   6.672
 4531TIP3   OH235151   5.771   5.443   0.093
 4531TIP3    H135152   5.830   5.519   0.094
 4531TIP3    H235153   5.806   5.386   0.025
 4532TIP3   OH235154   3.978   3.721   6.802
 4532TIP3    H135155   3.956   3.788   6.737
 4532TIP3    H235156   4.000   3.644   6.750
 4533TIP3   OH235157   4.758   2.854   7.514
 4533TIP3    H135158   4.681   2.911   7.520
 4533TIP3    H235159   4.802   2.864   7.597
 4534TIP3   OH235160   0.574   1.691   1.597
 4534TIP3    H135161   0.543   1.687   1.687
 4534TIP3    H235162   0.532   1.768   1.560
 4535TIP3   OH235163   6.325   3.521   6.811
 4535TIP3    H135164   6.307   3.527   6.717
 4535TIP3    H235165   6.317   3.611   6.842
 4536TIP3   OH235166   2.472   1.308   8.050
 4536TIP3    H135167   2.499   1.353   7.970
 4536TIP3    H235168   2.376   1.306   8.044
 4537TIP3   OH235169   5.360   2.959   7.335
 4537TIP3    H135170   5.378   3.015   7.411
 4537TIP3    H235171   5.396   3.007   7.261
 4538TIP3   OH235172   0.014   6.663   1.262
 4538TIP3    H135173   0.046   6.583   1.222
 4538TIP3    H235174   6.774   6.638   1.303
 4539TIP3   OH235175   6.343   1.884   0.063
 4539TIP3    H135176   6.433   1.851   0.062
 4539TIP3    H235177   6.306   1.857   8.692
 4540TIP3   OH235178   2.098   1.441   2.083
 4540TIP3    H135179   2.005   1.430   2.104
 4540TIP3    H235180   2.140   1.453   2.169
 4541TIP3   OH235181   4.577   1.942   1.120
 4541TIP3    H135182   4.570   1.852   1.154
 4541TIP3    H235183   4.602   1.931   1.029
 4542TIP3   OH235184   4.159   4.434   2.123
 4542TIP3    H135185   4.142   4.355   2.174
 4542TIP3    H235186   4.109   4.503   2.167
 4543TIP3   OH235187   5.095   3.314   8.570
 4543TIP3    H135188   5.056   3.334   8.655
 4543TIP3    H235189   5.021   3.312   8.510
 4544TIP3   OH235190   2.421   0.916   2.473
 4544TIP3    H135191   2.375   0.942   2.553
 4544TIP3    H235192   2.368   0.846   2.437
 4545TIP3   OH235193   0.024   4.629   8.109
 4545TIP3    H135194   6.806   4.678   8.053
 4545TIP3    H235195   0.041   4.687   8.183
 4546TIP3   OH235196   3.858   1.767   0.769
 4546TIP3    H135197   3.919   1.753   0.842
 4546TIP3    H235198   3.786   1.816   0.808
 4547TIP3   OH235199   1.647   5.433   7.879
 4547TIP3    H135200   1.738   5.438   7.907
 4547TIP3    H235201   1.641   5.493   7.805
 4548TIP3   OH235202   2.307   0.313   6.518
 4548TIP3    H135203   2.290   0.362   6.599
 4548TIP3    H235204   2.360   0.372   6.465
 4549TIP3   OH235205   3.088   0.235   1.753
 4549TIP3    H135206   3.007   0.270   1.715
 4549TIP3    H235207   3.080   0.140   1.742
 4550TIP3   OH235208   2.346   4.121   2.353
 4550TIP3    H135209   2.352   4.180   2.278
 4550TIP3    H235210   2.405   4.049   2.331
 4551TIP3   OH235211   6.639   5.655   2.427
 4551TIP3    H135212   6.670   5.730   2.375
 4551TIP3    H235213   6.715   5.630   2.480
 4552TIP3   OH235214   6.798   5.699   8.390
 4552TIP3    H135215   6.748   5.727   8.313
 4552TIP3    H235216   0.019   5.637   8.355
 4553TIP3   OH235217   3.675   3.103   1.000
 4553TIP3    H135218   3.682   3.196   1.022
 4553TIP3    H235219   3.679   3.059   1.085
 4554TIP3   OH235220   1.480   0.218   8.488
 4554TIP3    H135221   1.436   0.168   8.419
 4554TIP3    H235222   1.528   0.286   8.441
 4555TIP3   OH235223   0.387   5.411   6.681
 4555TIP3    H135224   0.480   5.390   6.687
 4555TIP3    H235225   0.343   5.329   6.704
 4556TIP3   OH235226   5.242   2.606   6.550
 4556TIP3    H135227   5.179   2.535   6.538
 4556TIP3    H235228   5.206   2.678   6.499
 4557TIP3   OH235229   4.025   4.618   0.358
 4557TIP3    H135230   4.025   4.710   0.384
 4557TIP3    H235231   3.970   4.616   0.279
 4558TIP3   OH235232   3.887   1.787   0.478
 4558TIP3    H135233   3.849   1.725   0.416
 4558TIP3    H235234   3.846   1.766   0.562
 4559TIP3   OH235235   2.528   3.698   0.950
 4559TIP3    H135236   2.565   3.637   0.886
 4559TIP3    H235237   2.564   3.783   0.925
 4560TIP3   OH235238   5.927   2.184   7.640
 4560TIP3    H135239   6.012   2.157   7.675
 4560TIP3    H235240   5.884   2.102   7.615
 4561TIP3   OH235241   3.595   5.392   6.957
 4561TIP3    H135242   3.592   5.426   7.047
 4561TIP3    H235243   3.544   5.311   6.961
 4562TIP3   OH235244   2.499   2.874   1.080
 4562TIP3    H135245   2.511   2.779   1.086
 4562TIP3    H235246   2.564   2.903   1.015
 4563TIP3   OH235247   6.197   0.227   7.465
 4563TIP3    H135248   6.257   0.271   7.525
 4563TIP3    H235249   6.247   0.216   7.385
 4564TIP3   OH235250   4.788   6.677   1.341
 4564TIP3    H135251   4.735   6.746   1.382
 4564TIP3    H235252   4.739   6.652   1.263
 4565TIP3   OH235253   1.618   5.259   6.563
 4565TIP3    H135254   1.586   5.265   6.473
 4565TIP3    H235255   1.689   5.323   6.568
 4566TIP3   OH235256   1.537   6.028   6.127
 4566TIP3    H135257   1.462   6.033   6.069
 4566TIP3    H235258   1.602   5.976   6.079
 4567TIP3   OH235259   0.831   4.705   7.475
 4567TIP3    H135260   0.801   4.795   7.464
 4567TIP3    H235261   0.779   4.654   7.413
 4568TIP3   OH235262   3.584   3.707   1.988
 4568TIP3    H135263   3.492   3.722   1.967
 4568TIP3    H235264   3.606   3.625   1.944
 4569TIP3   OH235265   2.194   6.179   7.815
 4569TIP3    H135266   2.136   6.246   7.778
 4569TIP3    H235267   2.135   6.107   7.839
 4570TIP3   OH235268   6.612   3.919   1.233
 4570TIP3    H135269   6.616   3.904   1.328
 4570TIP3    H235270   6.700   3.950   1.210
 4571TIP3   OH235271   3.937   4.162   0.649
 4571TIP3    H135272   4.011   4.121   0.604
 4571TIP3    H235273   3.909   4.233   0.590
 4572TIP3   OH235274   0.914   4.873   0.347
 4572TIP3    H135275   0.830   4.857   0.303
 4572TIP3    H235276   0.930   4.966   0.334
 4573TIP3   OH235277   0.337   3.826   1.829
 4573TIP3    H135278   0.401   3.765   1.793
 4573TIP3    H235279   0.276   3.770   1.877
 4574TIP3   OH235280   4.439   2.896   0.986
 4574TIP3    H135281   4.464   2.886   0.894
 4574TIP3    H235282   4.519   2.929   1.029
 4575TIP3   OH235283   1.065   1.919   1.662
 4575TIP3    H135284   1.149   1.883   1.692
 4575TIP3    H235285   1.020   1.945   1.742
 4576TIP3   OH235286   5.659   0.535   1.408
 4576TIP3    H135287   5.575   0.515   1.449
 4576TIP3    H235288   5.658   0.487   1.325
 4577TIP3   OH235289   1.026   3.428   7.634
 4577TIP3    H135290   0.942   3.470   7.621
 4577TIP3    H235291   1.074   3.486   7.693
 4578TIP3   OH235292   5.967   1.176   1.970
 4578TIP3    H135293   6.027   1.239   2.009
 4578TIP3    H235294   6.000   1.091   1.998
 4579TIP3   OH235295   2.250   3.006   0.175
 4579TIP3    H135296   2.163   2.994   0.212
 4579TIP3    H235297   2.297   3.058   0.240
 4580TIP3   OH235298   0.014   0.080   7.543
 4580TIP3    H135299   0.025   6.835   7.582
 4580TIP3    H235300   0.082   0.133   7.586
 4581TIP3   OH235301   3.372   0.221   7.321
 4581TIP3    H135302   3.462   0.191   7.336
 4581TIP3    H235303   3.347   0.181   7.238
 4582TIP3   OH235304   4.079   3.778   6.456
 4582TIP3    H135305   3.984   3.781   6.444
 4582TIP3    H235306   4.107   3.704   6.403
 4583TIP3   OH235307   3.192   4.439   8.347
 4583TIP3    H135308   3.268   4.402   8.391
 4583TIP3    H235309   3.225   4.521   8.309
 4584TIP3   OH235310   3.169   1.158   7.412
 4584TIP3    H135311   3.212   1.083   7.371
 4584TIP3    H235312   3.112   1.121   7.479
 4585TIP3   OH235313   3.066   3.187   6.068
 4585TIP3    H135314   3.025   3.104   6.044
 4585TIP3    H235315   3.098   3.172   6.157
 4586TIP3   OH235316   2.995   6.719   0.751
 4586TIP3    H135317   3.075   6.693   0.706
 4586TIP3    H235318   2.950   6.776   0.689
 4587TIP3   OH235319   4.005   1.057   8.457
 4587TIP3    H135320   3.958   1.004   8.392
 4587TIP3    H235321   4.056   1.119   8.405
 4588TIP3   OH235322   4.613   5.858   0.687
 4588TIP3    H135323   4.644   5.909   0.612
 4588TIP3    H235324   4.522   5.884   0.697
 4589TIP3   OH235325   4.761   3.148   8.677
 4589TIP3    H135326   4.688   3.193   0.006
 4589TIP3    H235327   4.784   3.204   8.603
 4590TIP3   OH235328   5.396   4.325   8.169
 4590TIP3    H135329   5.417   4.360   8.255
 4590TIP3    H235330   5.481   4.308   8.128
 4591TIP3   OH235331   4.061   3.294   7.403
 4591TIP3    H135332   4.074   3.274   7.311
 4591TIP3    H235333   4.112   3.374   7.418
 4592TIP3   OH235334   3.404   0.119   7.064
 4592TIP3    H135335   3.450   0.070   6.996
 4592TIP3    H235336   3.457   0.197   7.078
 4593TIP3   OH235337   5.165   0.226   2.764
 4593TIP3    H135338   5.124   0.140   2.751
 4593TIP3    H235339   5.241   0.225   2.707
 4594TIP3   OH235340   2.889   2.128   1.425
 4594TIP3    H135341   2.805   2.168   1.448
 4594TIP3    H235342   2.918   2.084   1.506
 4595TIP3   OH235343   6.549   3.860   0.956
 4595TIP3    H135344   6.616   3.819   0.901
 4595TIP3    H235345   6.581   3.852   1.045
 4596TIP3   OH235346   3.217   4.564   6.146
 4596TIP3    H135347   3.138   4.512   6.132
 4596TIP3    H235348   3.284   4.521   6.093
 4597TIP3   OH235349   6.301   1.494   0.135
 4597TIP3    H135350   6.287   1.583   0.169
 4597TIP3    H235351   6.378   1.462   0.183
 4598TIP3   OH235352   5.825   5.437   6.471
 4598TIP3    H135353   5.917   5.425   6.492
 4598TIP3    H235354   5.793   5.349   6.452
 4599TIP3   OH235355   0.910   0.546   7.723
 4599TIP3    H135356   0.872   0.630   7.750
 4599TIP3    H235357   0.994   0.569   7.683
 4600TIP3   OH235358   5.512   3.407   1.759
 4600TIP3    H135359   5.493   3.487   1.710
 4600TIP3    H235360   5.493   3.429   1.850
 4601TIP3   OH235361   6.416   3.247   1.302
 4601TIP3    H135362   6.381   3.328   1.339
 4601TIP3    H235363   6.405   3.182   1.372
 4602TIP3   OH235364   3.865   2.676   7.510
 4602TIP3    H135365   3.782   2.655   7.468
 4602TIP3    H235366   3.907   2.591   7.524
 4603TIP3   OH235367   4.544   2.312   6.174
 4603TIP3    H135368   4.550   2.365   6.254
 4603TIP3    H235369   4.595   2.360   6.109
 4604TIP3   OH235370   0.507   4.570   1.585
 4604TIP3    H135371   0.510   4.475   1.573
 4604TIP3    H235372   0.588   4.601   1.544
 4605TIP3   OH235373   3.334   1.596   6.906
 4605TIP3    H135374   3.414   1.604   6.958
 4605TIP3    H235375   3.361   1.620   6.817
 4606TIP3   OH235376   3.200   3.024   8.348
 4606TIP3    H135377   3.254   3.027   8.269
 4606TIP3    H235378   3.250   2.970   8.409
 4607TIP3   OH235379   0.959   3.201   6.022
 4607TIP3    H135380   0.868   3.208   5.995
 4607TIP3    H235381   0.959   3.134   6.091
 4608TIP3   OH235382   0.594   6.260   7.241
 4608TIP3    H135383   0.620   6.171   7.216
 4608TIP3    H235384   0.676   6.306   7.257
 4609TIP3   OH235385   2.401   1.391   6.853
 4609TIP3    H135386   2.347   1.435   6.917
 4609TIP3    H235387   2.471   1.351   6.904
 4610TIP3   OH235388   5.632   4.384   6.730
 4610TIP3    H135389   5.703   4.416   6.674
 4610TIP3    H235390   5.612   4.297   6.697
 4611TIP3   OH235391   0.822   3.784   2.152
 4611TIP3    H135392   0.873   3.773   2.072
 4611TIP3    H235393   0.743   3.831   2.125
 4612TIP3   OH235394   6.609   0.176   0.329
 4612TIP3    H135395   6.521   0.208   0.309
 4612TIP3    H235396   6.649   0.160   0.243
 4613TIP3   OH235397   1.360   1.804   6.625
 4613TIP3    H135398   1.323   1.798   6.537
 4613TIP3    H235399   1.356   1.897   6.647
 4614TIP3   OH235400   4.608   3.148   0.621
 4614TIP3    H135401   4.604   3.155   0.716
 4614TIP3    H235402   4.692   3.188   0.598
 4615TIP3   OH235403   3.246   4.344   1.171
 4615TIP3    H135404   3.248   4.338   1.267
 4615TIP3    H235405   3.258   4.438   1.154
 4616TIP3   OH235406   3.268   5.864   1.887
 4616TIP3    H135407   3.316   5.946   1.899
 4616TIP3    H235408   3.254   5.831   1.975
 4617TIP3   OH235409   3.643   3.908   8.292
 4617TIP3    H135410   3.622   3.847   8.221
 4617TIP3    H235411   3.572   3.972   8.289
 4618TIP3   OH235412   6.738   4.353   2.546
 4618TIP3    H135413   6.703   4.345   2.635
 4618TIP3    H235414   6.702   4.279   2.499
 4619TIP3   OH235415   2.555   6.221   0.077
 4619TIP3    H135416   2.593   6.211   8.703
 4619TIP3    H235417   2.597   6.154   0.130
 4620TIP3   OH235418   6.011   0.507   2.700
 4620TIP3    H135419   5.962   0.440   2.749
 4620TIP3    H235420   6.006   0.585   2.755
 4621TIP3   OH235421   1.362   2.098   6.752
 4621TIP3    H135422   1.330   2.187   6.742
 4621TIP3    H235423   1.456   2.106   6.761
 4622TIP3   OH235424   5.469   1.520   1.146
 4622TIP3    H135425   5.485   1.516   1.240
 4622TIP3    H235426   5.385   1.476   1.133
 4623TIP3   OH235427   4.901   6.346   7.904
 4623TIP3    H135428   4.863   6.419   7.952
 4623TIP3    H235429   4.858   6.268   7.939
 4624TIP3   OH235430   1.803   1.674   2.224
 4624TIP3    H135431   1.877   1.681   2.285
 4624TIP3    H235432   1.758   1.757   2.232
 4625TIP3   OH235433   3.468   6.549   8.005
 4625TIP3    H135434   3.545   6.605   8.013
 4625TIP3    H235435   3.436   6.564   7.916
 4626TIP3   OH235436   2.844   1.026   8.063
 4626TIP3    H135437   2.846   0.930   8.057
 4626TIP3    H235438   2.751   1.049   8.057
 4627TIP3   OH235439   2.143   0.596   8.051
 4627TIP3    H135440   2.180   0.510   8.030
 4627TIP3    H235441   2.053   0.592   8.017
 4628TIP3   OH235442   4.100   6.418   0.213
 4628TIP3    H135443   4.188   6.427   0.251
 4628TIP3    H235444   4.059   6.503   0.227
 4629TIP3   OH235445   6.641   6.514   8.211
 4629TIP3    H135446   6.590   6.445   8.168
 4629TIP3    H235447   6.684   6.469   8.284
 4630TIP3   OH235448   4.353   5.077   0.308
 4630TIP3    H135449   4.446   5.074   0.286
 4630TIP3    H235450   4.350   5.067   0.403
 4631TIP3   OH235451   3.987   4.237   2.425
 4631TIP3    H135452   4.040   4.158   2.422
 4631TIP3    H235453   3.924   4.226   2.353
 4632TIP3   OH235454   0.538   3.603   2.004
 4632TIP3    H135455   0.576   3.658   1.935
 4632TIP3    H235456   0.505   3.664   2.069
 4633TIP3   OH235457   6.088   3.598   1.487
 4633TIP3    H135458   6.060   3.595   1.395
 4633TIP3    H235459   6.137   3.680   1.494
 4634TIP3   OH235460   3.464   2.260   8.188
 4634TIP3    H135461   3.546   2.215   8.209
 4634TIP3    H235462   3.467   2.273   8.094
 4635TIP3   OH235463   3.102   1.492   1.980
 4635TIP3    H135464   3.075   1.562   1.919
 4635TIP3    H235465   3.192   1.513   2.003
 4636TIP3   OH235466   3.133   5.612   7.579
 4636TIP3    H135467   3.202   5.657   7.628
 4636TIP3    H235468   3.052   5.650   7.612
 4637TIP3   OH235469   2.372   2.291   8.617
 4637TIP3    H135470   2.358   2.199   8.637
 4637TIP3    H235471   2.460   2.295   8.580
 4638TIP3   OH235472   5.031   2.435   0.345
 4638TIP3    H135473   5.037   2.476   0.431
 4638TIP3    H235474   5.074   2.350   0.355
 4639TIP3   OH235475   5.253   0.033   0.328
 4639TIP3    H135476   5.175   0.087   0.344
 4639TIP3    H235477   5.258   0.027   0.232
 4640TIP3   OH235478   6.603   4.500   1.157
 4640TIP3    H135479   6.576   4.448   1.082
 4640TIP3    H235480   6.535   4.483   1.223
 4641TIP3   OH235481   1.518   3.609   7.068
 4641TIP3    H135482   1.577   3.591   6.995
 4641TIP3    H235483   1.440   3.646   7.026
 4642TIP3   OH235484   1.426   5.206   8.517
 4642TIP3    H135485   1.434   5.186   8.610
 4642TIP3    H235486   1.412   5.121   8.475
 4643TIP3   OH235487   5.734   2.972   1.454
 4643TIP3    H135488   5.800   2.922   1.503
 4643TIP3    H235489   5.784   3.014   1.384
 4644TIP3   OH235490   2.261   5.244   7.170
 4644TIP3    H135491   2.300   5.201   7.094
 4644TIP3    H235492   2.293   5.194   7.245
 4645TIP3   OH235493   1.857   0.784   6.960
 4645TIP3    H135494   1.834   0.744   7.044
 4645TIP3    H235495   1.949   0.761   6.947
 4646TIP3   OH235496   5.025   1.344   2.074
 4646TIP3    H135497   4.961   1.413   2.058
 4646TIP3    H235498   5.102   1.390   2.106
 4647TIP3   OH235499   6.763   3.745   0.824
 4647TIP3    H135500   6.736   3.655   0.809
 4647TIP3    H235501   6.841   3.739   0.879
 4648TIP3   OH235502   5.447   1.563   0.527
 4648TIP3    H135503   5.454   1.649   0.567
 4648TIP3    H235504   5.441   1.580   0.433
 4649TIP3   OH235505   0.715   0.521   1.337
 4649TIP3    H135506   0.781   0.529   1.269
 4649TIP3    H235507   0.759   0.474   1.408
 4650TIP3   OH235508   1.040   1.314   1.139
 4650TIP3    H135509   0.991   1.396   1.139
 4650TIP3    H235510   1.131   1.340   1.151
 4651TIP3   OH235511   2.624   0.368   6.868
 4651TIP3    H135512   2.607   0.396   6.778
 4651TIP3    H235513   2.556   0.410   6.920
 4652TIP3   OH235514   1.990   6.733   1.718
 4652TIP3    H135515   2.054   6.717   1.787
 4652TIP3    H235516   2.036   6.787   1.655
 4653TIP3   OH235517   2.663   4.406   8.332
 4653TIP3    H135518   2.642   4.386   8.423
 4653TIP3    H235519   2.713   4.487   8.336
 4654TIP3   OH235520   1.392   6.771   1.763
 4654TIP3    H135521   1.298   6.790   1.771
 4654TIP3    H235522   1.395   6.682   1.729
 4655TIP3   OH235523   5.651   0.091   7.093
 4655TIP3    H135524   5.678   0.152   7.162
 4655TIP3    H235525   5.694   0.009   7.117
 4656TIP3   OH235526   6.403   0.749   7.253
 4656TIP3    H135527   6.491   0.783   7.238
 4656TIP3    H235528   6.417   0.661   7.287
 4657TIP3   OH235529   1.531   4.501   7.378
 4657TIP3    H135530   1.514   4.411   7.405
 4657TIP3    H235531   1.450   4.548   7.400
 4658TIP3   OH235532   3.773   4.198   1.818
 4658TIP3    H135533   3.796   4.171   1.729
 4658TIP3    H235534   3.827   4.275   1.835
 4659TIP3   OH235535   6.352   6.121   7.832
 4659TIP3    H135536   6.291   6.103   7.904
 4659TIP3    H235537   6.437   6.091   7.865
 4660TIP3   OH235538   4.456   4.006   6.420
 4660TIP3    H135539   4.491   4.006   6.509
 4660TIP3    H235540   4.524   3.966   6.366
 4661TIP3   OH235541   2.357   4.648   7.225
 4661TIP3    H135542   2.441   4.688   7.246
 4661TIP3    H235543   2.378   4.577   7.165
 4662TIP3   OH235544   2.284   4.216   0.323
 4662TIP3    H135545   2.268   4.272   0.247
 4662TIP3    H235546   2.322   4.274   0.389
 4663TIP3   OH235547   2.286   1.725   6.991
 4663TIP3    H135548   2.203   1.679   7.000
 4663TIP3    H235549   2.273   1.808   7.037
 4664TIP3   OH235550   6.243   5.923   6.812
 4664TIP3    H135551   6.163   5.884   6.779
 4664TIP3    H235552   6.313   5.867   6.778
 4665TIP3   OH235553   5.335   3.373   0.195
 4665TIP3    H135554   5.310   3.289   0.156
 4665TIP3    H235555   5.365   3.426   0.122
 4666TIP3   OH235556   2.392   3.271   1.379
 4666TIP3    H135557   2.332   3.273   1.453
 4666TIP3    H235558   2.364   3.195   1.328
 4667TIP3   OH235559   0.488   3.851   0.241
 4667TIP3    H135560   0.473   3.760   0.215
 4667TIP3    H235561   0.452   3.857   0.329
 4668TIP3   OH235562   5.872   2.337   6.823
 4668TIP3    H135563   5.886   2.276   6.751
 4668TIP3    H235564   5.959   2.373   6.841
 4669TIP3   OH235565   5.712   4.709   0.705
 4669TIP3    H135566   5.675   4.631   0.663
 4669TIP3    H235567   5.781   4.737   0.646
 4670TIP3   OH235568   3.248   4.872   6.737
 4670TIP3    H135569   3.284   4.824   6.811
 4670TIP3    H235570   3.230   4.805   6.671
 4671TIP3   OH235571   6.509   0.839   0.090
 4671TIP3    H135572   6.434   0.801   0.046
 4671TIP3    H235573   6.477   0.865   0.176
 4672TIP3   OH235574   1.958   1.192   0.462
 4672TIP3    H135575   1.964   1.175   0.556
 4672TIP3    H235576   1.956   1.105   0.422
 4673TIP3   OH235577   4.553   0.818   1.115
 4673TIP3    H135578   4.504   0.822   1.033
 4673TIP3    H235579   4.559   0.909   1.144
 4674TIP3   OH235580   5.777   5.116   7.397
 4674TIP3    H135581   5.844   5.064   7.353
 4674TIP3    H235582   5.702   5.114   7.337
 4675TIP3   OH235583   3.285   4.562   7.830
 4675TIP3    H135584   3.290   4.478   7.877
 4675TIP3    H235585   3.233   4.618   7.888
 4676TIP3   OH235586   4.231   6.694   7.524
 4676TIP3    H135587   4.272   6.654   7.448
 4676TIP3    H235588   4.294   6.758   7.555
 4677TIP3   OH235589   3.815   6.834   0.252
 4677TIP3    H135590   3.737   6.814   0.200
 4677TIP3    H235591   3.866   0.051   0.197
 4678TIP3   OH235592   1.897   3.996   6.873
 4678TIP3    H135593   1.896   3.919   6.816
 4678TIP3    H235594   1.968   4.050   6.838
 4679TIP3   OH235595   3.858   4.234   0.067
 4679TIP3    H135596   3.937   4.183   0.054
 4679TIP3    H235597   3.792   4.193   0.010
 4680TIP3   OH235598   0.452   1.084   1.692
 4680TIP3    H135599   0.515   1.129   1.749
 4680TIP3    H235600   0.386   1.049   1.752
 4681TIP3   OH235601   0.965   5.047   6.161
 4681TIP3    H135602   1.020   5.123   6.140
 4681TIP3    H235603   1.019   4.993   6.219
 4682TIP3   OH235604   1.318   1.894   0.971
 4682TIP3    H135605   1.275   1.853   0.895
 4682TIP3    H235606   1.269   1.860   1.046
 4683TIP3   OH235607   1.857   0.357   0.313
 4683TIP3    H135608   1.844   0.275   0.361
 4683TIP3    H235609   1.771   0.377   0.278
 4684TIP3   OH235610   6.705   3.916   2.170
 4684TIP3    H135611   6.767   3.921   2.098
 4684TIP3    H235612   6.739   3.847   2.226
 4685TIP3   OH235613   4.103   6.756   0.573
 4685TIP3    H135614   4.090   6.729   0.482
 4685TIP3    H235615   4.197   6.772   0.579
 4686TIP3   OH235616   1.853   6.060   6.918
 4686TIP3    H135617   1.868   6.015   6.835
 4686TIP3    H235618   1.934   6.047   6.968
 4687TIP3   OH235619   2.523   1.072   8.485
 4687TIP3    H135620   2.494   0.997   8.432
 4687TIP3    H235621   2.499   1.048   8.575
 4688TIP3   OH235622   4.122   1.551   0.579
 4688TIP3    H135623   4.145   1.472   0.627
 4688TIP3    H235624   4.031   1.538   0.552
 4689TIP3   OH235625   5.968   3.591   8.062
 4689TIP3    H135626   6.019   3.632   7.993
 4689TIP3    H235627   5.986   3.497   8.052
 4690TIP3   OH235628   2.657   0.515   0.873
 4690TIP3    H135629   2.703   0.491   0.953
 4690TIP3    H235630   2.700   0.464   0.805
 4691TIP3   OH235631   1.765   3.434   8.169
 4691TIP3    H135632   1.807   3.497   8.229
 4691TIP3    H235633   1.758   3.354   8.220
 4692TIP3   OH235634   1.356   6.279   7.165
 4692TIP3    H135635   1.279   6.280   7.108
 4692TIP3    H235636   1.349   6.198   7.214
 4693TIP3   OH235637   2.880   6.012   0.094
 4693TIP3    H135638   2.955   5.963   0.060
 4693TIP3    H235639   2.918   6.085   0.142
 4694TIP3   OH235640   4.491   3.828   0.841
 4694TIP3    H135641   4.429   3.812   0.769
 4694TIP3    H235642   4.485   3.922   0.857
 4695TIP3   OH235643   0.716   0.164   1.705
 4695TIP3    H135644   0.723   0.173   1.801
 4695TIP3    H235645   0.689   0.250   1.675
 4696TIP3   OH235646   0.668   4.802   1.225
 4696TIP3    H135647   0.747   4.753   1.200
 4696TIP3    H235648   0.596   4.749   1.192
 4697TIP3   OH235649   5.793   1.728   2.590
 4697TIP3    H135650   5.723   1.664   2.576
 4697TIP3    H235651   5.795   1.742   2.684
 4698TIP3   OH235652   6.738   1.456   7.849
 4698TIP3    H135653   6.768   1.543   7.822
 4698TIP3    H235654   6.806   1.397   7.816
 4699TIP3   OH235655   0.225   1.603   6.762
 4699TIP3    H135656   0.277   1.553   6.698
 4699TIP3    H235657   0.189   1.676   6.711
 4700TIP3   OH235658   2.543   6.784   7.947
 4700TIP3    H135659   2.538   6.689   7.947
 4700TIP3    H235660   2.480   6.811   7.879
 4701TIP3   OH235661   5.998   1.670   1.473
 4701TIP3    H135662   6.084   1.665   1.516
 4701TIP3    H235663   5.969   1.761   1.488
 4702TIP3   OH235664   3.865   1.818   7.472
 4702TIP3    H135665   3.888   1.888   7.533
 4702TIP3    H235666   3.779   1.842   7.439
 4703TIP3   OH235667   0.856   3.164   8.415
 4703TIP3    H135668   0.790   3.121   8.469
 4703TIP3    H235669   0.922   3.097   8.398
 4704TIP3   OH235670   1.178   1.508   1.337
 4704TIP3    H135671   1.210   1.575   1.396
 4704TIP3    H235672   1.146   1.438   1.394
 4705TIP3   OH235673   5.249   5.336   0.809
 4705TIP3    H135674   5.235   5.430   0.820
 4705TIP3    H235675   5.181   5.295   0.862
 4706TIP3   OH235676   5.195   2.675   7.762
 4706TIP3    H135677   5.100   2.667   7.774
 4706TIP3    H235678   5.217   2.607   7.699
 4707TIP3   OH235679   0.747   5.370   7.663
 4707TIP3    H135680   0.760   5.420   7.744
 4707TIP3    H235681   0.676   5.309   7.684
 4708TIP3   OH235682   5.114   0.975   6.989
 4708TIP3    H135683   5.195   1.017   6.959
 4708TIP3    H235684   5.090   0.916   6.918
 4709TIP3   OH235685   1.594   5.890   8.111
 4709TIP3    H135686   1.602   5.895   8.206
 4709TIP3    H235687   1.674   5.847   8.082
 4710TIP3   OH235688   3.583   5.953   7.452
 4710TIP3    H135689   3.632   5.904   7.518
 4710TIP3    H235690   3.645   6.019   7.421
 4711TIP3   OH235691   0.725   5.756   7.208
 4711TIP3    H135692   0.656   5.755   7.275
 4711TIP3    H235693   0.679   5.735   7.127
 4712TIP3   OH235694   4.635   3.118   0.888
 4712TIP3    H135695   4.583   3.102   0.967
 4712TIP3    H235696   4.718   3.154   0.921
 4713TIP3   OH235697   2.402   4.612   0.461
 4713TIP3    H135698   2.432   4.674   0.528
 4713TIP3    H235699   2.323   4.573   0.498
 4714TIP3   OH235700   3.358   3.184   6.756
 4714TIP3    H135701   3.437   3.239   6.756
 4714TIP3    H235702   3.336   3.173   6.664
 4715TIP3   OH235703   3.463   2.884   7.939
 4715TIP3    H135704   3.485   2.791   7.950
 4715TIP3    H235705   3.547   2.929   7.941
 4716TIP3   OH235706   0.199   5.374   0.194
 4716TIP3    H135707   0.125   5.366   0.135
 4716TIP3    H235708   0.274   5.390   0.137
 4717TIP3   OH235709   1.823   1.407   2.119
 4717TIP3    H135710   1.767   1.391   2.042
 4717TIP3    H235711   1.790   1.490   2.155
 4718TIP3   OH235712   5.458   2.439   0.055
 4718TIP3    H135713   5.553   2.429   0.061
 4718TIP3    H235714   5.426   2.413   0.141
 4719TIP3   OH235715   0.011   5.723   7.148
 4719TIP3    H135716   0.078   5.745   7.213
 4719TIP3    H235717   0.057   5.728   7.064
 4720TIP3   OH235718   5.326   0.052   8.377
 4720TIP3    H135719   5.393   6.833   8.407
 4720TIP3    H235720   5.373   0.111   8.318
 4721TIP3   OH235721   5.147   0.885   0.748
 4721TIP3    H135722   5.239   0.860   0.743
 4721TIP3    H235723   5.141   0.961   0.690
 4722TIP3   OH235724   5.039   3.512   1.296
 4722TIP3    H135725   5.107   3.447   1.313
 4722TIP3    H235726   5.082   3.579   1.244
 4723TIP3   OH235727   1.551   6.586   0.801
 4723TIP3    H135728   1.475   6.632   0.766
 4723TIP3    H235729   1.583   6.641   0.873
 4724TIP3   OH235730   2.198   4.946   7.528
 4724TIP3    H135731   2.116   4.900   7.508
 4724TIP3    H235732   2.266   4.884   7.502
 4725TIP3   OH235733   1.934   1.742   7.331
 4725TIP3    H135734   1.988   1.665   7.349
 4725TIP3    H235735   1.915   1.738   7.237
 4726TIP3   OH235736   4.966   4.230   6.861
 4726TIP3    H135737   4.877   4.197   6.872
 4726TIP3    H235738   4.963   4.281   6.780
 4727TIP3   OH235739   5.479   5.371   7.001
 4727TIP3    H135740   5.476   5.409   6.913
 4727TIP3    H235741   5.568   5.388   7.031
 4728TIP3   OH235742   1.420   5.980   8.654
 4728TIP3    H135743   1.331   6.013   8.640
 4728TIP3    H235744   1.464   6.049   8.704
 4729TIP3   OH235745   0.675   6.497   7.431
 4729TIP3    H135746   0.681   6.420   7.488
 4729TIP3    H235747   0.747   6.486   7.369
 4730TIP3   OH235748   2.351   6.103   1.707
 4730TIP3    H135749   2.428   6.047   1.714
 4730TIP3    H235750   2.281   6.052   1.748
 4731TIP3   OH235751   0.667   6.526   1.289
 4731TIP3    H135752   0.605   6.459   1.259
 4731TIP3    H235753   0.736   6.527   1.223
 4732TIP3   OH235754   5.446   2.367   0.712
 4732TIP3    H135755   5.471   2.382   0.621
 4732TIP3    H235756   5.370   2.423   0.726
 4733TIP3   OH235757   2.634   4.738   1.268
 4733TIP3    H135758   2.584   4.683   1.327
 4733TIP3    H235759   2.672   4.678   1.204
 4734TIP3   OH235760   1.748   4.612   0.742
 4734TIP3    H135761   1.822   4.591   0.686
 4734TIP3    H235762   1.751   4.707   0.752
 4735TIP3   OH235763   5.579   0.035   1.219
 4735TIP3    H135764   5.644   0.068   1.281
 4735TIP3    H235765   5.557   0.111   1.165
 4736TIP3   OH235766   3.067   3.497   0.506
 4736TIP3    H135767   2.989   3.444   0.522
 4736TIP3    H235768   3.057   3.526   0.415
 4737TIP3   OH235769   4.709   5.773   0.930
 4737TIP3    H135770   4.690   5.827   0.854
 4737TIP3    H235771   4.801   5.748   0.920
 4738TIP3   OH235772   3.022   5.712   1.895
 4738TIP3    H135773   3.057   5.784   1.844
 4738TIP3    H235774   2.935   5.695   1.857
 4739TIP3   OH235775   2.800   5.809   7.936
 4739TIP3    H135776   2.818   5.800   7.842
 4739TIP3    H235777   2.865   5.753   7.978
 4740TIP3   OH235778   1.489   0.994   1.499
 4740TIP3    H135779   1.484   1.038   1.583
 4740TIP3    H235780   1.534   0.912   1.517
 4741TIP3   OH235781   4.627   0.103   1.232
 4741TIP3    H135782   4.625   0.193   1.201
 4741TIP3    H235783   4.577   0.054   1.168
 4742TIP3   OH235784   3.423   5.329   6.513
 4742TIP3    H135785   3.504   5.359   6.554
 4742TIP3    H235786   3.368   5.302   6.587
 4743TIP3   OH235787   3.918   6.718   7.973
 4743TIP3    H135788   3.942   6.740   7.883
 4743TIP3    H235789   3.988   6.755   8.026
 4744TIP3   OH235790   1.817   5.568   8.643
 4744TIP3    H135791   1.832   5.662   8.638
 4744TIP3    H235792   1.736   5.554   8.593
 4745TIP3   OH235793   6.457   2.703   0.066
 4745TIP3    H135794   6.505   2.673   8.702
 4745TIP3    H235795   6.499   2.658   0.139
 4746TIP3   OH235796   2.107   6.162   7.464
 4746TIP3    H135797   2.140   6.250   7.442
 4746TIP3    H235798   2.055   6.137   7.388
 4747TIP3   OH235799   0.021   3.504   1.636
 4747TIP3    H135800   0.072   3.486   1.715
 4747TIP3    H235801   6.774   3.484   1.661
 4748TIP3   OH235802   3.327   1.284   0.319
 4748TIP3    H135803   3.289   1.352   0.264
 4748TIP3    H235804   3.385   1.330   0.379
 4749TIP3   OH235805   4.001   2.457   7.573
 4749TIP3    H135806   4.031   2.461   7.663
 4749TIP3    H235807   3.964   2.369   7.564
 4750TIP3   OH235808   0.582   0.473   0.182
 4750TIP3    H135809   0.617   0.474   0.272
 4750TIP3    H235810   0.550   0.384   0.170
 4751TIP3   OH235811   2.816   0.744   0.640
 4751TIP3    H135812   2.880   0.681   0.608
 4751TIP3    H235813   2.783   0.787   0.561
 4752TIP3   OH235814   2.182   3.423   0.954
 4752TIP3    H135815   2.212   3.368   1.026
 4752TIP3    H235816   2.106   3.378   0.918
 4753TIP3   OH235817   1.230   1.820   7.932
 4753TIP3    H135818   1.168   1.755   7.898
 4753TIP3    H235819   1.240   1.883   7.861
 4754TIP3   OH235820   0.459   3.805   1.074
 4754TIP3    H135821   0.485   3.713   1.081
 4754TIP3    H235822   0.514   3.840   1.004
 4755TIP3   OH235823   1.968   0.744   1.488
 4755TIP3    H135824   1.934   0.745   1.398
 4755TIP3    H235825   2.057   0.711   1.479
 4756TIP3   OH235826   0.380   6.574   7.133
 4756TIP3    H135827   0.369   6.512   7.205
 4756TIP3    H235828   0.438   6.641   7.168
 4757TIP3   OH235829   1.884   0.075   0.394
 4757TIP3    H135830   1.846   0.059   0.480
 4757TIP3    H235831   1.897   6.830   0.358
 4758TIP3   OH235832   3.490   2.552   1.312
 4758TIP3    H135833   3.395   2.552   1.311
 4758TIP3    H235834   3.514   2.517   1.398
 4759TIP3   OH235835   3.918   3.687   8.212
 4759TIP3    H135836   3.931   3.649   8.125
 4759TIP3    H235837   3.934   3.781   8.200
 4760TIP3   OH235838   0.757   4.089   7.412
 4760TIP3    H135839   0.739   4.176   7.448
 4760TIP3    H235840   0.829   4.103   7.350
 4761TIP3   OH235841   3.321   6.617   8.253
 4761TIP3    H135842   3.283   6.628   8.166
 4761TIP3    H235843   3.416   6.617   8.237
 4762TIP3   OH235844   2.776   6.066   0.889
 4762TIP3    H135845   2.726   6.133   0.841
 4762TIP3    H235846   2.864   6.072   0.852
 4763TIP3   OH235847   5.399   1.149   0.016
 4763TIP3    H135848   5.364   1.234   8.701
 4763TIP3    H235849   5.468   1.130   8.666
 4764TIP3   OH235850   1.571   5.153   0.405
 4764TIP3    H135851   1.503   5.164   0.339
 4764TIP3    H235852   1.558   5.226   0.466
 4765TIP3   OH235853   3.282   4.811   6.251
 4765TIP3    H135854   3.375   4.790   6.237
 4765TIP3    H235855   3.236   4.735   6.217
 4766TIP3   OH235856   0.166   4.670   0.113
 4766TIP3    H135857   0.118   4.746   0.080
 4766TIP3    H235858   0.108   4.596   0.095
 4767TIP3   OH235859   6.523   1.530   1.046
 4767TIP3    H135860   6.538   1.447   1.002
 4767TIP3    H235861   6.461   1.577   0.990
 4768TIP3   OH235862   2.611   4.621   6.236
 4768TIP3    H135863   2.681   4.655   6.290
 4768TIP3    H235864   2.534   4.621   6.293
 4769TIP3   OH235865   6.227   2.337   8.601
 4769TIP3    H135866   6.201   2.246   8.585
 4769TIP3    H235867   6.185   2.359   8.685
 4770TIP3   OH235868   2.118   2.724   7.883
 4770TIP3    H135869   2.176   2.799   7.868
 4770TIP3    H235870   2.049   2.733   7.818
 4771TIP3   OH235871   5.094   0.058   0.819
 4771TIP3    H135872   5.038   0.136   0.825
 4771TIP3    H235873   5.073   0.007   0.897
 4772TIP3   OH235874   5.189   5.240   1.529
 4772TIP3    H135875   5.262   5.180   1.513
 4772TIP3    H235876   5.180   5.241   1.624
 4773TIP3   OH235877   5.578   5.919   2.663
 4773TIP3    H135878   5.624   5.999   2.638
 4773TIP3    H235879   5.628   5.849   2.620
 4774TIP3   OH235880   4.706   1.670   8.254
 4774TIP3    H135881   4.762   1.745   8.233
 4774TIP3    H235882   4.631   1.708   8.300
 4775TIP3   OH235883   6.793   3.096   1.970
 4775TIP3    H135884   6.793   3.174   2.026
 4775TIP3    H235885   6.721   3.110   1.909
 4776TIP3   OH235886   2.908   0.546   8.483
 4776TIP3    H135887   2.893   0.484   8.555
 4776TIP3    H235888   2.998   0.528   8.455
 4777TIP3   OH235889   5.845   5.744   2.152
 4777TIP3    H135890   5.751   5.751   2.138
 4777TIP3    H235891   5.869   5.659   2.116
 4778TIP3   OH235892   4.493   3.945   7.008
 4778TIP3    H135893   4.544   4.008   6.958
 4778TIP3    H235894   4.505   3.862   6.962
 4779TIP3   OH235895   6.670   6.511   7.240
 4779TIP3    H135896   6.608   6.511   7.312
 4779TIP3    H235897   6.750   6.550   7.276
 4780TIP3   OH235898   4.479   3.630   7.683
 4780TIP3    H135899   4.387   3.613   7.663
 4780TIP3    H235900   4.482   3.724   7.700
 4781TIP3   OH235901   3.920   5.779   7.479
 4781TIP3    H135902   3.889   5.763   7.569
 4781TIP3    H235903   3.845   5.757   7.424
 4782TIP3   OH235904   4.633   3.174   1.436
 4782TIP3    H135905   4.606   3.175   1.528
 4782TIP3    H235906   4.667   3.262   1.419
 4783TIP3   OH235907   4.797   3.777   2.184
 4783TIP3    H135908   4.850   3.815   2.254
 4783TIP3    H235909   4.736   3.847   2.159
 4784TIP3   OH235910   6.331   5.575   6.396
 4784TIP3    H135911   6.416   5.618   6.394
 4784TIP3    H235912   6.352   5.481   6.402
 4785TIP3   OH235913   3.217   4.831   8.571
 4785TIP3    H135914   3.233   4.776   8.494
 4785TIP3    H235915   3.275   4.907   8.558
 4786TIP3   OH235916   2.936   6.542   0.314
 4786TIP3    H135917   2.855   6.496   0.289
 4786TIP3    H235918   3.000   6.472   0.327
 4787TIP3   OH235919   5.282   2.237   7.379
 4787TIP3    H135920   5.217   2.249   7.448
 4787TIP3    H235921   5.362   2.211   7.424
 4788TIP3   OH235922   0.670   0.668   2.442
 4788TIP3    H135923   0.746   0.617   2.470
 4788TIP3    H235924   0.602   0.602   2.426
 4789TIP3   OH235925   6.784   1.936   8.440
 4789TIP3    H135926   6.829   1.880   8.503
 4789TIP3    H235927   6.824   2.022   8.453
 4790TIP3   OH235928   3.230   2.449   0.996
 4790TIP3    H135929   3.294   2.379   0.987
 4790TIP3    H235930   3.211   2.452   1.090
 4791TIP3   OH235931   2.186   1.607   8.641
 4791TIP3    H135932   2.256   1.654   8.685
 4791TIP3    H235933   2.106   1.633   8.687
 4792TIP3   OH235934   0.884   3.991   0.662
 4792TIP3    H135935   0.910   3.969   0.751
 4792TIP3    H235936   0.859   3.906   0.623
 4793TIP3   OH235937   4.102   3.771   1.556
 4793TIP3    H135938   4.131   3.813   1.475
 4793TIP3    H235939   4.107   3.677   1.536
 4794TIP3   OH235940   0.372   3.889   1.332
 4794TIP3    H135941   0.416   3.824   1.386
 4794TIP3    H235942   0.381   3.857   1.242
 4795TIP3   OH235943   6.014   3.213   1.906
 4795TIP3    H135944   5.979   3.298   1.932
 4795TIP3    H235945   5.961   3.150   1.954
 4796TIP3   OH235946   5.996   0.909   1.976
 4796TIP3    H135947   5.983   0.817   1.954
 4796TIP3    H235948   6.029   0.908   2.066
 4797TIP3   OH235949   6.161   6.390   1.603
 4797TIP3    H135950   6.133   6.386   1.695
 4797TIP3    H235951   6.248   6.351   1.604
 4798TIP3   OH235952   3.137   2.367   8.048
 4798TIP3    H135953   3.065   2.382   7.987
 4798TIP3    H235954   3.216   2.380   7.996
 4799TIP3   OH235955   1.237   1.587   2.092
 4799TIP3    H135956   1.271   1.665   2.048
 4799TIP3    H235957   1.270   1.594   2.182
 4800TIP3   OH235958   5.301   3.819   8.198
 4800TIP3    H135959   5.239   3.769   8.251
 4800TIP3    H235960   5.246   3.878   8.146
 4801TIP3   OH235961   6.547   5.904   0.934
 4801TIP3    H135962   6.622   5.853   0.904
 4801TIP3    H235963   6.571   5.933   1.021
 4802TIP3   OH235964   0.925   4.571   8.497
 4802TIP3    H135965   0.869   4.496   8.479
 4802TIP3    H235966   0.979   4.543   8.571
 4803TIP3   OH235967   4.027   4.727   7.491
 4803TIP3    H135968   4.078   4.800   7.525
 4803TIP3    H235969   3.952   4.720   7.549
 4804TIP3   OH235970   0.248   5.403   0.617
 4804TIP3    H135971   0.253   5.431   0.709
 4804TIP3    H235972   0.336   5.420   0.583
 4805TIP3   OH235973   2.681   5.626   7.461
 4805TIP3    H135974   2.689   5.547   7.513
 4805TIP3    H235975   2.722   5.605   7.377
 4806TIP3   OH235976   3.341   0.436   0.763
 4806TIP3    H135977   3.416   0.386   0.791
 4806TIP3    H235978   3.369   0.528   0.769
 4807TIP3   OH235979   5.293   2.673   1.408
 4807TIP3    H135980   5.363   2.738   1.406
 4807TIP3    H235981   5.215   2.721   1.378
 4808TIP3   OH235982   5.067   1.267   7.435
 4808TIP3    H135983   5.017   1.267   7.354
 4808TIP3    H235984   5.032   1.342   7.485
 4809TIP3   OH235985   5.036   0.681   1.953
 4809TIP3    H135986   5.061   0.595   1.987
 4809TIP3    H235987   4.940   0.677   1.946
 4810TIP3   OH235988   5.819   2.852   8.123
 4810TIP3    H135989   5.879   2.894   8.184
 4810TIP3    H235990   5.806   2.915   8.053
 4811TIP3   OH235991   4.300   5.818   8.028
 4811TIP3    H135992   4.239   5.887   8.056
 4811TIP3    H235993   4.262   5.737   8.061
 4812TIP3   OH235994   4.270   1.657   0.325
 4812TIP3    H135995   4.238   1.690   0.409
 4812TIP3    H235996   4.283   1.564   0.339
 4813TIP3   OH235997   2.670   2.551   8.317
 4813TIP3    H135998   2.676   2.640   8.284
 4813TIP3    H235999   2.760   2.526   8.338
 4814TIP3   OH236000   3.405   2.192   7.921
 4814TIP3    H136001   3.459   2.176   7.844
 4814TIP3    H236002   3.341   2.256   7.893
 4815TIP3   OH236003   1.276   3.520   8.492
 4815TIP3    H136004   1.241   3.609   8.482
 4815TIP3    H236005   1.200   3.463   8.484
 4816TIP3   OH236006   1.044   2.614   8.260
 4816TIP3    H136007   1.082   2.532   8.228
 4816TIP3    H236008   1.064   2.679   8.193
 4817TIP3   OH236009   2.501   0.858   0.586
 4817TIP3    H136010   2.448   0.836   0.510
 4817TIP3    H236011   2.480   0.791   0.651
 4818TIP3   OH236012   3.716   4.596   0.937
 4818TIP3    H136013   3.767   4.676   0.925
 4818TIP3    H236014   3.654   4.617   1.007
 4819TIP3   OH236015   5.513   0.117   6.594
 4819TIP3    H136016   5.544   0.160   6.674
 4819TIP3    H236017   5.581   0.052   6.575
 4820TIP3   OH236018   3.016   5.492   0.622
 4820TIP3    H136019   3.022   5.423   0.688
 4820TIP3    H236020   2.934   5.537   0.642
 4821TIP3   OH236021   0.615   2.638   8.613
 4821TIP3    H136022   0.572   2.698   8.674
 4821TIP3    H236023   0.657   2.573   8.670
 4822TIP3   OH236024   4.058   1.233   0.158
 4822TIP3    H136025   4.082   1.152   0.113
 4822TIP3    H236026   4.004   1.280   0.095
 4823TIP3   OH236027   0.111   4.925   1.553
 4823TIP3    H136028   0.057   4.940   1.631
 4823TIP3    H236029   0.196   4.962   1.577
 4824TIP3   OH236030   1.644   1.784   1.205
 4824TIP3    H136031   1.714   1.776   1.270
 4824TIP3    H236032   1.593   1.859   1.235
 4825TIP3   OH236033   6.631   1.418   0.824
 4825TIP3    H136034   6.635   1.500   0.873
 4825TIP3    H236035   6.538   1.405   0.806
 4826TIP3   OH236036   4.580   6.592   2.571
 4826TIP3    H136037   4.547   6.682   2.566
 4826TIP3    H236038   4.502   6.538   2.570
 4827TIP3   OH236039   1.916   4.356   2.356
 4827TIP3    H136040   1.923   4.411   2.434
 4827TIP3    H236041   1.851   4.400   2.301
 4828TIP3   OH236042   5.612   0.599   1.827
 4828TIP3    H136043   5.546   0.619   1.761
 4828TIP3    H236044   5.561   0.572   1.904
 4829TIP3   OH236045   4.041   6.622   0.821
 4829TIP3    H136046   4.137   6.620   0.823
 4829TIP3    H236047   4.020   6.660   0.735
 4830TIP3   OH236048   3.685   4.970   7.646
 4830TIP3    H136049   3.655   4.930   7.728
 4830TIP3    H236050   3.657   4.908   7.578
 4831TIP3   OH236051   3.607   3.014   0.728
 4831TIP3    H136052   3.610   3.059   0.812
 4831TIP3    H236053   3.647   2.928   0.746
 4832TIP3   OH236054   4.771   1.782   0.196
 4832TIP3    H136055   4.767   1.768   0.102
 4832TIP3    H236056   4.682   1.766   0.227
 4833TIP3   OH236057   0.372   6.416   8.691
 4833TIP3    H136058   0.370   6.425   0.073
 4833TIP3    H236059   0.430   6.486   8.661
 4834TIP3   OH236060   0.699   3.829   1.380
 4834TIP3    H136061   0.644   3.802   1.454
 4834TIP3    H236062   0.754   3.753   1.361
 4835TIP3   OH236063   1.790   3.799   6.672
 4835TIP3    H136064   1.760   3.814   6.583
 4835TIP3    H236065   1.878   3.761   6.662
 4836TIP3   OH236066   3.405   3.318   7.789
 4836TIP3    H136067   3.374   3.394   7.838
 4836TIP3    H236068   3.364   3.243   7.833
 4837TIP3   OH236069   5.777   1.881   0.746
 4837TIP3    H136070   5.706   1.930   0.705
 4837TIP3    H236071   5.733   1.809   0.791
 4838TIP3   OH236072   3.792   3.743   1.015
 4838TIP3    H136073   3.843   3.824   1.023
 4838TIP3    H236074   3.814   3.694   1.094
 4839TIP3   OH236075   5.475   6.546   0.208
 4839TIP3    H136076   5.440   6.583   0.127
 4839TIP3    H236077   5.512   6.461   0.182
 4840TIP3   OH236078   6.478   1.525   8.075
 4840TIP3    H136079   6.464   1.591   8.143
 4840TIP3    H236080   6.573   1.510   8.076
 4841TIP3   OH236081   4.733   6.127   7.846
 4841TIP3    H136082   4.782   6.054   7.884
 4841TIP3    H236083   4.648   6.125   7.891
 4842TIP3   OH236084   2.383   6.198   7.080
 4842TIP3    H136085   2.403   6.224   7.170
 4842TIP3    H236086   2.297   6.237   7.062
 4843TIP3   OH236087   0.740   3.052   2.352
 4843TIP3    H136088   0.741   2.971   2.302
 4843TIP3    H236089   0.752   3.121   2.286
 4844TIP3   OH236090   4.708   3.424   1.359
 4844TIP3    H136091   4.736   3.504   1.403
 4844TIP3    H236092   4.732   3.436   1.268
 4845TIP3   OH236093   5.483   1.988   2.497
 4845TIP3    H136094   5.466   1.912   2.553
 4845TIP3    H236095   5.554   1.961   2.440
 4846TIP3   OH236096   4.303   0.303   8.317
 4846TIP3    H136097   4.388   0.341   8.336
 4846TIP3    H236098   4.245   0.379   8.304
 4847TIP3   OH236099   4.735   3.275   2.381
 4847TIP3    H136100   4.827   3.300   2.371
 4847TIP3    H236101   4.685   3.350   2.348
 4848TIP3   OH236102   0.249   0.310   7.954
 4848TIP3    H136103   0.306   0.319   8.030
 4848TIP3    H236104   0.161   0.295   7.991
 4849TIP3   OH236105   0.977   0.723   6.916
 4849TIP3    H136106   0.938   0.771   6.989
 4849TIP3    H236107   0.930   0.639   6.915
 4850TIP3   OH236108   6.682   0.494   0.224
 4850TIP3    H136109   6.720   0.411   0.254
 4850TIP3    H236110   6.757   0.548   0.202
 4851TIP3   OH236111   0.003   4.801   7.442
 4851TIP3    H136112   0.032   4.869   7.503
 4851TIP3    H236113   6.762   4.771   7.477
 4852TIP3   OH236114   4.424   6.607   7.316
 4852TIP3    H136115   4.511   6.638   7.339
 4852TIP3    H236116   4.432   6.511   7.315
 4853TIP3   OH236117   2.731   5.880   1.585
 4853TIP3    H136118   2.727   5.852   1.493
 4853TIP3    H236119   2.704   5.972   1.583
 4854TIP3   OH236120   4.031   5.590   1.094
 4854TIP3    H136121   4.124   5.604   1.113
 4854TIP3    H236122   4.002   5.528   1.162
 4855TIP3   OH236123   4.208   0.058   8.423
 4855TIP3    H136124   4.234   0.142   8.385
 4855TIP3    H236125   4.164   0.012   8.351
 4856TIP3   OH236126   4.355   1.010   7.660
 4856TIP3    H136127   4.360   0.967   7.744
 4856TIP3    H236128   4.388   0.946   7.597
 4857TIP3   OH236129   1.480   6.365   6.937
 4857TIP3    H136130   1.434   6.343   7.019
 4857TIP3    H236131   1.473   6.285   6.884
 4858TIP3   OH236132   4.790   1.228   0.339
 4858TIP3    H136133   4.698   1.254   0.327
 4858TIP3    H236134   4.804   1.235   0.434
 4859TIP3   OH236135   0.946   3.363   1.925
 4859TIP3    H136136   1.021   3.376   1.867
 4859TIP3    H236137   0.982   3.375   2.014
 4860TIP3   OH236138   2.502   5.752   0.765
 4860TIP3    H136139   2.570   5.737   0.699
 4860TIP3    H236140   2.544   5.732   0.848
 4861TIP3   OH236141   0.787   6.580   1.551
 4861TIP3    H136142   0.739   6.549   1.474
 4861TIP3    H236143   0.719   6.594   1.617
 4862TIP3   OH236144   1.815   6.805   2.537
 4862TIP3    H136145   1.829   6.735   2.473
 4862TIP3    H236146   1.802   0.040   2.485
 4863TIP3   OH236147   3.595   5.310   1.514
 4863TIP3    H136148   3.511   5.305   1.468
 4863TIP3    H236149   3.636   5.390   1.480
 4864TIP3   OH236150   4.323   5.869   7.766
 4864TIP3    H136151   4.294   5.950   7.723
 4864TIP3    H236152   4.297   5.879   7.857
 4865TIP3   OH236153   0.853   6.337   1.788
 4865TIP3    H136154   0.888   6.250   1.806
 4865TIP3    H236155   0.759   6.328   1.803
 4866TIP3   OH236156   1.108   1.259   1.461
 4866TIP3    H136157   1.172   1.219   1.402
 4866TIP3    H236158   1.140   1.239   1.549
 4867TIP3   OH236159   1.752   0.365   6.660
 4867TIP3    H136160   1.693   0.298   6.625
 4867TIP3    H236161   1.709   0.394   6.740
 4868TIP3   OH236162   1.752   6.271   7.597
 4868TIP3    H136163   1.661   6.285   7.623
 4868TIP3    H236164   1.746   6.226   7.513
 4869TIP3   OH236165   2.070   5.282   0.815
 4869TIP3    H136166   2.122   5.210   0.777
 4869TIP3    H236167   1.979   5.253   0.806
 4870TIP3   OH236168   6.670   5.555   0.910
 4870TIP3    H136169   6.721   5.593   0.981
 4870TIP3    H236170   6.711   5.471   0.892
 4871TIP3   OH236171   6.328   2.312   6.485
 4871TIP3    H136172   6.290   2.362   6.557
 4871TIP3    H236173   6.421   2.334   6.487
 4872TIP3   OH236174   6.191   1.559   7.954
 4872TIP3    H136175   6.186   1.574   8.048
 4872TIP3    H236176   6.272   1.603   7.927
 4873TIP3   OH236177   0.061   6.551   7.370
 4873TIP3    H136178   0.119   6.591   7.436
 4873TIP3    H236179   0.026   6.473   7.413
 4874TIP3   OH236180   2.134   6.238   8.546
 4874TIP3    H136181   2.132   6.204   8.636
 4874TIP3    H236182   2.129   6.333   8.556
 4875TIP3   OH236183   3.070   5.136   6.603
 4875TIP3    H136184   2.976   5.140   6.621
 4875TIP3    H236185   3.087   5.043   6.588
 4876TIP3   OH236186   4.380   4.878   1.773
 4876TIP3    H136187   4.372   4.930   1.693
 4876TIP3    H236188   4.419   4.937   1.837
 4877TIP3   OH236189   4.982   3.740   6.520
 4877TIP3    H136190   4.994   3.823   6.475
 4877TIP3    H236191   5.071   3.709   6.537
 4878TIP3   OH236192   2.633   4.109   8.445
 4878TIP3    H136193   2.618   4.201   8.469
 4878TIP3    H236194   2.547   4.076   8.422
 4879TIP3   OH236195   4.998   5.731   0.905
 4879TIP3    H136196   5.043   5.740   0.990
 4879TIP3    H236197   5.066   5.698   0.846
 4880TIP3   OH236198   2.638   3.861   0.722
 4880TIP3    H136199   2.684   3.908   0.653
 4880TIP3    H236200   2.667   3.770   0.713
 4881TIP3   OH236201   2.933   3.758   8.557
 4881TIP3    H136202   2.919   3.756   8.462
 4881TIP3    H236203   2.897   3.842   8.585
 4882TIP3   OH236204   0.966   2.223   1.655
 4882TIP3    H136205   0.872   2.219   1.673
 4882TIP3    H236206   0.989   2.315   1.671
 4883TIP3   OH236207   4.549   2.022   7.023
 4883TIP3    H136208   4.492   2.071   7.082
 4883TIP3    H236209   4.490   1.985   6.958
 4884TIP3   OH236210   5.478   6.813   0.674
 4884TIP3    H136211   5.489   6.719   0.662
 4884TIP3    H236212   5.410   6.821   0.742
 4885TIP3   OH236213   0.462   5.210   7.641
 4885TIP3    H136214   0.370   5.204   7.663
 4885TIP3    H236215   0.495   5.120   7.646
 4886TIP3   OH236216   0.442   2.492   7.455
 4886TIP3    H136217   0.493   2.435   7.398
 4886TIP3    H236218   0.507   2.542   7.504
 4887TIP3   OH236219   2.401   4.699   0.915
 4887TIP3    H136220   2.456   4.633   0.958
 4887TIP3    H236221   2.360   4.746   0.988
 4888TIP3   OH236222   6.334   1.652   0.868
 4888TIP3    H136223   6.254   1.599   0.871
 4888TIP3    H236224   6.314   1.728   0.923
 4889TIP3   OH236225   2.229   4.440   0.142
 4889TIP3    H136226   2.238   4.417   0.050
 4889TIP3    H236227   2.193   4.529   0.141
 4890TIP3   OH236228   1.499   3.158   1.159
 4890TIP3    H136229   1.494   3.078   1.108
 4890TIP3    H236230   1.560   3.137   1.230
 4891TIP3   OH236231   1.425   6.085   6.765
 4891TIP3    H136232   1.460   5.998   6.742
 4891TIP3    H236233   1.385   6.116   6.684
 4892TIP3   OH236234   5.082   2.969   8.562
 4892TIP3    H136235   5.050   2.880   8.547
 4892TIP3    H236236   5.005   3.024   8.550
 4893TIP3   OH236237   3.805   3.844   7.231
 4893TIP3    H136238   3.837   3.815   7.316
 4893TIP3    H236239   3.872   3.905   7.199
 4894TIP3   OH236240   5.703   1.112   2.170
 4894TIP3    H136241   5.788   1.113   2.126
 4894TIP3    H236242   5.681   1.019   2.176
 4895TIP3   OH236243   3.741   2.528   6.781
 4895TIP3    H136244   3.673   2.498   6.842
 4895TIP3    H236245   3.821   2.487   6.813
 4896TIP3   OH236246   2.723   2.902   2.383
 4896TIP3    H136247   2.637   2.921   2.422
 4896TIP3    H236248   2.786   2.922   2.452
 4897TIP3   OH236249   0.405   4.308   7.156
 4897TIP3    H136250   0.332   4.263   7.114
 4897TIP3    H236251   0.483   4.272   7.114
 4898TIP3   OH236252   4.900   0.065   6.670
 4898TIP3    H136253   4.860   0.076   6.584
 4898TIP3    H236254   4.865   0.137   6.722
 4899TIP3   OH236255   0.365   5.251   1.059
 4899TIP3    H136256   0.273   5.235   1.041
 4899TIP3    H236257   0.380   5.340   1.026
 4900TIP3   OH236258   4.740   0.072   2.005
 4900TIP3    H136259   4.658   0.121   2.008
 4900TIP3    H236260   4.767   0.076   1.913
 4901TIP3   OH236261   0.526   1.655   7.243
 4901TIP3    H136262   0.556   1.570   7.212
 4901TIP3    H236263   0.440   1.667   7.201
 4902TIP3   OH236264   1.978   3.380   8.639
 4902TIP3    H136265   1.987   3.300   8.587
 4902TIP3    H236266   2.044   3.372   8.708
 4903TIP3   OH236267   4.679   2.930   1.581
 4903TIP3    H136268   4.619   2.983   1.527
 4903TIP3    H236269   4.641   2.842   1.578
 4904TIP3   OH236270   5.532   6.334   0.648
 4904TIP3    H136271   5.484   6.413   0.627
 4904TIP3    H236272   5.500   6.308   0.735
 4905TIP3   OH236273   0.434   4.548   8.082
 4905TIP3    H136274   0.506   4.555   8.145
 4905TIP3    H236275   0.408   4.456   8.086
 4906TIP3   OH236276   3.425   6.808   1.309
 4906TIP3    H136277   3.488   6.756   1.358
 4906TIP3    H236278   3.339   6.774   1.334
 4907TIP3   OH236279   1.543   4.541   0.899
 4907TIP3    H136280   1.479   4.611   0.902
 4907TIP3    H236281   1.619   4.579   0.854
 4908TIP3   OH236282   5.554   4.753   1.653
 4908TIP3    H136283   5.485   4.689   1.640
 4908TIP3    H236284   5.619   4.733   1.585
 4909TIP3   OH236285   4.998   5.108   6.983
 4909TIP3    H136286   4.917   5.154   7.008
 4909TIP3    H236287   4.999   5.113   6.887
 4910TIP3   OH236288   2.864   1.586   0.609
 4910TIP3    H136289   2.948   1.541   0.605
 4910TIP3    H236290   2.799   1.515   0.612
 4911TIP3   OH236291   3.158   4.823   1.418
 4911TIP3    H136292   3.072   4.820   1.374
 4911TIP3    H236293   3.166   4.913   1.448
 4912TIP3   OH236294   5.034   1.319   8.673
 4912TIP3    H136295   5.119   1.328   8.629
 4912TIP3    H236296   4.977   1.281   8.606
 4913TIP3   OH236297   4.682   3.887   6.312
 4913TIP3    H136298   4.679   3.819   6.378
 4913TIP3    H236299   4.760   3.867   6.260
 4914TIP3   OH236300   2.715   4.013   7.547
 4914TIP3    H136301   2.637   4.035   7.496
 4914TIP3    H236302   2.764   4.095   7.553
 4915TIP3   OH236303   5.848   2.633   7.227
 4915TIP3    H136304   5.928   2.582   7.212
 4915TIP3    H236305   5.831   2.623   7.321
 4916TIP3   OH236306   5.956   3.562   0.071
 4916TIP3    H136307   6.028   3.608   0.114
 4916TIP3    H236308   5.877   3.603   0.105
 4917TIP3   OH236309   4.919   0.235   0.966
 4917TIP3    H136310   4.900   0.329   0.967
 4917TIP3    H236311   4.898   0.205   1.054
 4918TIP3   OH236312   1.702   0.010   8.383
 4918TIP3    H136313   1.625   0.006   8.439
 4918TIP3    H236314   1.669   6.831   8.296
 4919TIP3   OH236315   1.776   1.041   6.893
 4919TIP3    H136316   1.722   1.056   6.816
 4919TIP3    H236317   1.816   0.955   6.878
 4920TIP3   OH236318   5.438   1.997   2.129
 4920TIP3    H136319   5.523   1.961   2.155
 4920TIP3    H236320   5.387   1.998   2.210
 4921TIP3   OH236321   1.345   4.697   0.650
 4921TIP3    H136322   1.254   4.699   0.620
 4921TIP3    H236323   1.356   4.609   0.687
 4922TIP3   OH236324   2.750   2.208   0.044
 4922TIP3    H136325   2.745   2.116   0.067
 4922TIP3    H236326   2.772   2.209   8.664
 4923TIP3   OH236327   1.926   5.603   1.245
 4923TIP3    H136328   1.996   5.566   1.299
 4923TIP3    H236329   1.883   5.667   1.301
 4924TIP3   OH236330   3.636   6.290   7.792
 4924TIP3    H136331   3.673   6.282   7.880
 4924TIP3    H236332   3.546   6.259   7.801
 4925TIP3   OH236333   2.013   2.342   1.861
 4925TIP3    H136334   2.048   2.431   1.857
 4925TIP3    H236335   1.974   2.336   1.948
 4926TIP3   OH236336   2.772   0.516   7.964
 4926TIP3    H136337   2.843   0.466   8.004
 4926TIP3    H236338   2.762   0.478   7.877
 4927TIP3   OH236339   4.236   6.266   0.917
 4927TIP3    H136340   4.142   6.263   0.898
 4927TIP3    H236341   4.242   6.279   1.011
 4928TIP3   OH236342   1.667   5.203   1.329
 4928TIP3    H136343   1.725   5.132   1.301
 4928TIP3    H236344   1.724   5.262   1.378
 4929TIP3   OH236345   4.518   1.717   7.245
 4929TIP3    H136346   4.545   1.703   7.336
 4929TIP3    H236347   4.599   1.736   7.198
 4930TIP3   OH236348   1.861   1.919   0.994
 4930TIP3    H136349   1.846   1.846   1.054
 4930TIP3    H236350   1.775   1.935   0.955
 4931TIP3   OH236351   2.673   6.110   6.892
 4931TIP3    H136352   2.707   6.194   6.859
 4931TIP3    H236353   2.729   6.089   6.966
 4932TIP3   OH236354   3.622   1.800   7.324
 4932TIP3    H136355   3.611   1.710   7.292
 4932TIP3    H236356   3.627   1.853   7.245
 4933TIP3   OH236357   6.292   2.916   1.081
 4933TIP3    H136358   6.248   2.995   1.113
 4933TIP3    H236359   6.337   2.881   1.158
 4934TIP3   OH236360   5.171   2.102   7.034
 4934TIP3    H136361   5.090   2.055   7.015
 4934TIP3    H236362   5.200   2.136   6.949
 4935TIP3   OH236363   6.664   5.583   7.686
 4935TIP3    H136364   6.589   5.626   7.646
 4935TIP3    H236365   6.699   5.525   7.618
 4936TIP3   OH236366   0.594   3.217   6.959
 4936TIP3    H136367   0.626   3.299   6.997
 4936TIP3    H236368   0.527   3.187   7.021
 4937TIP3   OH236369   0.466   2.838   0.632
 4937TIP3    H136370   0.534   2.815   0.569
 4937TIP3    H236371   0.500   2.805   0.716
 4938TIP3   OH236372   4.041   5.979   1.709
 4938TIP3    H136373   4.104   6.047   1.732
 4938TIP3    H236374   3.961   6.003   1.757
 4939TIP3   OH236375   6.635   2.111   8.087
 4939TIP3    H136376   6.633   2.164   8.166
 4939TIP3    H236377   6.591   2.166   8.021
 4940TIP3   OH236378   3.309   5.511   6.207
 4940TIP3    H136379   3.231   5.557   6.176
 4940TIP3    H236380   3.362   5.579   6.248
 4941TIP3   OH236381   5.411   2.076   1.429
 4941TIP3    H136382   5.467   2.131   1.374
 4941TIP3    H236383   5.402   2.126   1.510
 4942TIP3   OH236384   1.979   3.732   7.035
 4942TIP3    H136385   2.031   3.734   6.955
 4942TIP3    H236386   1.927   3.652   7.027
 4943TIP3   OH236387   1.451   2.341   7.585
 4943TIP3    H136388   1.523   2.377   7.637
 4943TIP3    H236389   1.467   2.373   7.496
 4944TIP3   OH236390   2.479   2.507   2.548
 4944TIP3    H136391   2.492   2.418   2.580
 4944TIP3    H236392   2.388   2.509   2.518
 4945TIP3   OH236393   6.017   5.389   2.257
 4945TIP3    H136394   6.103   5.353   2.236
 4945TIP3    H236395   5.990   5.434   2.177
 4946TIP3   OH236396   3.146   1.413   2.512
 4946TIP3    H136397   3.098   1.495   2.505
 4946TIP3    H236398   3.222   1.434   2.567
 4947TIP3   OH236399   6.776   5.135   8.468
 4947TIP3    H136400   6.754   5.179   8.386
 4947TIP3    H236401   6.707   5.162   8.528
 4948TIP3   OH236402   6.648   6.431   6.596
 4948TIP3    H136403   6.609   6.369   6.534
 4948TIP3    H236404   6.574   6.470   6.641
 4949TIP3   OH236405   1.228   1.809   0.714
 4949TIP3    H136406   1.287   1.734   0.702
 4949TIP3    H236407   1.140   1.772   0.702
 4950TIP3   OH236408   6.339   5.409   0.906
 4950TIP3    H136409   6.388   5.489   0.887
 4950TIP3    H236410   6.252   5.440   0.933
 4951TIP3   OH236411   4.955   2.469   1.360
 4951TIP3    H136412   4.967   2.513   1.276
 4951TIP3    H236413   5.043   2.449   1.390
 4952TIP3   OH236414   1.170   4.152   7.935
 4952TIP3    H136415   1.168   4.214   8.008
 4952TIP3    H236416   1.109   4.083   7.961
 4953TIP3   OH236417   4.201   5.087   1.280
 4953TIP3    H136418   4.127   5.112   1.336
 4953TIP3    H236419   4.257   5.164   1.279
 4954TIP3   OH236420   6.643   1.714   0.435
 4954TIP3    H136421   6.644   1.620   0.452
 4954TIP3    H236422   6.554   1.733   0.407
 4955TIP3   OH236423   3.332   2.772   7.005
 4955TIP3    H136424   3.275   2.798   7.077
 4955TIP3    H236425   3.327   2.676   7.004
 4956TIP3   OH236426   6.104   2.736   1.009
 4956TIP3    H136427   6.169   2.805   1.018
 4956TIP3    H236428   6.046   2.748   1.084
 4957TIP3   OH236429   1.959   1.283   7.803
 4957TIP3    H136430   1.870   1.316   7.816
 4957TIP3    H236431   1.980   1.306   7.713
 4958TIP3   OH236432   4.652   5.004   1.392
 4958TIP3    H136433   4.613   4.927   1.349
 4958TIP3    H236434   4.635   4.991   1.485
 4959TIP3   OH236435   1.222   3.575   7.809
 4959TIP3    H136436   1.201   3.500   7.866
 4959TIP3    H236437   1.220   3.650   7.868
 4960TIP3   OH236438   2.530   5.445   7.275
 4960TIP3    H136439   2.532   5.496   7.194
 4960TIP3    H236440   2.603   5.383   7.265
 4961TIP3   OH236441   2.758   2.445   7.476
 4961TIP3    H136442   2.712   2.383   7.533
 4961TIP3    H236443   2.693   2.470   7.410
 4962TIP3   OH236444   2.809   4.005   8.607
 4962TIP3    H136445   2.801   4.066   8.680
 4962TIP3    H236446   2.750   4.039   8.540
 4963TIP3   OH236447   0.350   2.357   0.581
 4963TIP3    H136448   0.271   2.304   0.577
 4963TIP3    H236449   0.399   2.323   0.656
 4964TIP3   OH236450   3.139   4.904   7.726
 4964TIP3    H136451   3.107   4.815   7.738
 4964TIP3    H236452   3.122   4.923   7.633
 4965TIP3   OH236453   6.675   4.729   1.789
 4965TIP3    H136454   6.602   4.779   1.826
 4965TIP3    H236455   6.734   4.716   1.863
 4966TIP3   OH236456   6.065   0.078   1.630
 4966TIP3    H136457   6.138   0.017   1.642
 4966TIP3    H236458   5.989   0.022   1.618
 4967TIP3   OH236459   1.672   6.223   6.668
 4967TIP3    H136460   1.628   6.226   6.583
 4967TIP3    H236461   1.602   6.202   6.730
 4968TIP3   OH236462   2.490   1.110   0.367
 4968TIP3    H136463   2.404   1.147   0.348
 4968TIP3    H236464   2.495   1.111   0.463
 4969TIP3   OH236465   1.659   3.656   1.315
 4969TIP3    H136466   1.621   3.737   1.283
 4969TIP3    H236467   1.589   3.591   1.307
 4970TIP3   OH236468   0.418   0.091   6.920
 4970TIP3    H136469   0.335   0.060   6.885
 4970TIP3    H236470   0.442   0.165   6.864
 4971TIP3   OH236471   0.686   4.953   0.588
 4971TIP3    H136472   0.658   4.911   0.669
 4971TIP3    H236473   0.606   4.992   0.553
 4972TIP3   OH236474   6.706   0.126   2.764
 4972TIP3    H136475   6.723   0.199   2.704
 4972TIP3    H236476   6.633   0.157   2.819
 4973TIP3   OH236477   0.386   4.517   7.808
 4973TIP3    H136478   0.403   4.533   7.901
 4973TIP3    H236479   0.451   4.571   7.763
 4974TIP3   OH236480   5.167   4.267   8.068
 4974TIP3    H136481   5.187   4.225   7.984
 4974TIP3    H236482   5.250   4.302   8.098
 4975TIP3   OH236483   0.437   0.689   1.944
 4975TIP3    H136484   0.355   0.689   1.895
 4975TIP3    H236485   0.442   0.603   1.984
 4976TIP3   OH236486   1.491   6.199   0.088
 4976TIP3    H136487   1.412   6.249   0.111
 4976TIP3    H236488   1.552   6.215   0.160
 4977TIP3   OH236489   3.000   1.716   1.372
 4977TIP3    H136490   3.019   1.695   1.280
 4977TIP3    H236491   3.083   1.746   1.407
 4978TIP3   OH236492   0.940   0.591   8.691
 4978TIP3    H136493   1.026   0.612   8.655
 4978TIP3    H236494   0.878   0.626   8.626
 4979TIP3   OH236495   0.653   3.063   8.157
 4979TIP3    H136496   0.633   3.056   8.250
 4979TIP3    H236497   0.584   3.120   8.122
 4980TIP3   OH236498   6.461   5.905   2.219
 4980TIP3    H136499   6.408   5.947   2.287
 4980TIP3    H236500   6.544   5.883   2.262
 4981TIP3   OH236501   6.410   2.157   0.286
 4981TIP3    H136502   6.354   2.115   0.221
 4981TIP3    H236503   6.357   2.229   0.320
 4982TIP3   OH236504   4.874   5.349   1.343
 4982TIP3    H136505   4.840   5.413   1.406
 4982TIP3    H236506   4.797   5.323   1.292
 4983TIP3   OH236507   5.552   4.193   1.017
 4983TIP3    H136508   5.647   4.184   1.014
 4983TIP3    H236509   5.531   4.252   0.945
 4984TIP3   OH236510   4.290   1.377   0.264
 4984TIP3    H136511   4.230   1.374   0.190
 4984TIP3    H236512   4.358   1.313   0.244
 4985TIP3   OH236513   6.658   2.541   0.796
 4985TIP3    H136514   6.579   2.544   0.742
 4985TIP3    H236515   6.697   2.627   0.786
 4986TIP3   OH236516   0.808   6.625   6.708
 4986TIP3    H136517   0.860   6.549   6.680
 4986TIP3    H236518   0.846   6.650   6.793
 4987TIP3   OH236519   2.429   5.847   6.860
 4987TIP3    H136520   2.378   5.855   6.941
 4987TIP3    H236521   2.450   5.754   6.855
 4988TIP3   OH236522   6.200   6.661   0.181
 4988TIP3    H136523   6.235   6.587   0.230
 4988TIP3    H236524   6.137   6.701   0.240
 4989TIP3   OH236525   6.298   3.546   7.791
 4989TIP3    H136526   6.279   3.453   7.806
 4989TIP3    H236527   6.278   3.588   7.874
 4990TIP3   OH236528   0.967   5.268   7.504
 4990TIP3    H136529   1.037   5.332   7.511
 4990TIP3    H236530   0.902   5.295   7.569
 4991TIP3   OH236531   4.094   0.259   8.099
 4991TIP3    H136532   4.069   0.307   8.020
 4991TIP3    H236533   4.178   0.297   8.124
 4992TIP3   OH236534   1.581   6.221   0.336
 4992TIP3    H136535   1.500   6.192   0.378
 4992TIP3    H236536   1.648   6.207   0.403
 4993TIP3   OH236537   1.002   2.937   1.412
 4993TIP3    H136538   0.930   2.955   1.471
 4993TIP3    H236539   1.018   2.843   1.423
 4994TIP3   OH236540   5.045   6.357   8.195
 4994TIP3    H136541   5.002   6.279   8.161
 4994TIP3    H236542   4.993   6.381   8.272
 4995TIP3   OH236543   5.947   6.303   1.441
 4995TIP3    H136544   6.025   6.325   1.491
 4995TIP3    H236545   5.926   6.383   1.393
 4996TIP3   OH236546   0.723   0.904   6.828
 4996TIP3    H136547   0.703   0.998   6.829
 4996TIP3    H236548   0.780   0.891   6.904
 4997TIP3   OH236549   3.571   6.050   6.690
 4997TIP3    H136550   3.581   5.967   6.737
 4997TIP3    H236551   3.492   6.039   6.638
 4998TIP3   OH236552   1.542   4.638   1.409
 4998TIP3    H136553   1.495   4.646   1.492
 4998TIP3    H236554   1.510   4.711   1.356
 4999TIP3   OH236555   2.139   3.009   7.044
 4999TIP3    H136556   2.109   3.079   6.986
 4999TIP3    H236557   2.071   2.942   7.038
 5000TIP3   OH236558   1.112   4.480   8.705
 5000TIP3    H136559   1.152   4.486   0.079
 5000TIP3    H236560   1.173   4.527   8.649
 5001TIP3   OH236561   6.129   1.163   2.301
 5001TIP3    H136562   6.083   1.183   2.382
 5001TIP3    H236563   6.133   1.067   2.299
 5002TIP3   OH236564   0.763   6.225   1.536
 5002TIP3    H136565   0.803   6.311   1.524
 5002TIP3    H236566   0.697   6.240   1.605
 5003TIP3   OH236567   3.306   2.802   8.482
 5003TIP3    H136568   3.382   2.745   8.494
 5003TIP3    H236569   3.259   2.798   8.565
 5004TIP3   OH236570   6.215   0.717   0.190
 5004TIP3    H136571   6.152   0.717   0.262
 5004TIP3    H236572   6.294   0.679   0.227
 5005TIP3   OH236573   3.470   1.364   6.751
 5005TIP3    H136574   3.401   1.402   6.698
 5005TIP3    H236575   3.508   1.437   6.799
 5006TIP3   OH236576   2.355   4.199   8.268
 5006TIP3    H136577   2.374   4.114   8.308
 5006TIP3    H236578   2.264   4.193   8.241
 5007TIP3   OH236579   1.548   1.421   0.794
 5007TIP3    H136580   1.625   1.383   0.753
 5007TIP3    H236581   1.579   1.455   0.878
 5008TIP3   OH236582   3.816   0.864   0.946
 5008TIP3    H136583   3.851   0.884   0.859
 5008TIP3    H236584   3.799   0.770   0.944
 5009TIP3   OH236585   4.618   4.678   7.784
 5009TIP3    H136586   4.679   4.670   7.711
 5009TIP3    H236587   4.608   4.589   7.816
 5010TIP3   OH236588   3.704   1.804   2.269
 5010TIP3    H136589   3.748   1.772   2.347
 5010TIP3    H236590   3.715   1.734   2.204
 5011TIP3   OH236591   3.146   6.150   7.825
 5011TIP3    H136592   3.129   6.241   7.800
 5011TIP3    H236593   3.093   6.098   7.765
 5012TIP3   OH236594   1.538   4.927   1.366
 5012TIP3    H136595   1.622   4.882   1.369
 5012TIP3    H236596   1.559   5.018   1.385
 5013TIP3   OH236597   2.035   0.352   7.413
 5013TIP3    H136598   2.096   0.285   7.445
 5013TIP3    H236599   2.070   0.377   7.327
 5014TIP3   OH236600   5.228   0.312   0.496
 5014TIP3    H136601   5.245   0.358   0.414
 5014TIP3    H236602   5.138   0.279   0.486
 5015TIP3   OH236603   3.558   0.286   0.870
 5015TIP3    H136604   3.563   0.332   0.953
 5015TIP3    H236605   3.504   0.209   0.888
 5016TIP3   OH236606   1.670   4.679   7.562
 5016TIP3    H136607   1.603   4.625   7.521
 5016TIP3    H236608   1.640   4.769   7.547
 5017TIP3   OH236609   1.187   3.536   6.217
 5017TIP3    H136610   1.213   3.627   6.232
 5017TIP3    H236611   1.259   3.499   6.166
 5018TIP3   OH236612   3.458   4.673   7.247
 5018TIP3    H136613   3.460   4.580   7.226
 5018TIP3    H236614   3.381   4.706   7.200
 5019TIP3   OH236615   5.559   2.372   6.720
 5019TIP3    H136616   5.610   2.445   6.685
 5019TIP3    H236617   5.624   2.308   6.749
 5020TIP3   OH236618   3.255   0.330   0.450
 5020TIP3    H136619   3.253   0.333   0.546
 5020TIP3    H236620   3.337   0.286   0.430
 5021TIP3   OH236621   1.091   6.619   1.517
 5021TIP3    H136622   0.996   6.626   1.512
 5021TIP3    H236623   1.115   6.662   1.599
 5022TIP3   OH236624   0.463   6.681   7.917
 5022TIP3    H136625   0.512   6.718   7.844
 5022TIP3    H236626   0.465   6.586   7.902
 5023TIP3   OH236627   6.438   5.671   0.844
 5023TIP3    H136628   6.458   5.764   0.849
 5023TIP3    H236629   6.516   5.627   0.879
 5024TIP3   OH236630   2.537   6.672   6.233
 5024TIP3    H136631   2.477   6.605   6.265
 5024TIP3    H236632   2.520   6.677   6.139
 5025TIP3   OH236633   2.105   5.674   8.313
 5025TIP3    H136634   2.131   5.763   8.336
 5025TIP3    H236635   2.177   5.641   8.260
 5026TIP3   OH236636   1.428   6.775   0.337
 5026TIP3    H136637   1.487   0.002   0.307
 5026TIP3    H236638   1.486   6.713   0.383
 5027TIP3   OH236639   4.735   0.131   0.769
 5027TIP3    H136640   4.643   0.116   0.791
 5027TIP3    H236641   4.775   0.159   0.851
 5028TIP3   OH236642   3.757   5.078   8.495
 5028TIP3    H136643   3.664   5.084   8.474
 5028TIP3    H236644   3.761   5.088   8.591
 5029TIP3   OH236645   3.115   2.301   1.385
 5029TIP3    H136646   3.169   2.224   1.364
 5029TIP3    H236647   3.033   2.264   1.417
 5030TIP3   OH236648   4.017   4.225   1.056
 5030TIP3    H136649   4.108   4.252   1.051
 5030TIP3    H236650   4.017   4.134   1.024
 5031TIP3   OH236651   1.605   4.248   0.315
 5031TIP3    H136652   1.516   4.214   0.327
 5031TIP3    H236653   1.603   4.336   0.353
 5032TIP3   OH236654   0.965   2.580   0.232
 5032TIP3    H136655   0.990   2.672   0.247
 5032TIP3    H236656   0.871   2.583   0.217
 5033TIP3   OH236657   5.783   2.517   8.490
 5033TIP3    H136658   5.837   2.594   8.473
 5033TIP3    H236659   5.698   2.538   8.451
 5034TIP3   OH236660   3.640   6.653   7.336
 5034TIP3    H136661   3.562   6.610   7.302
 5034TIP3    H236662   3.679   6.697   7.260
 5035TIP3   OH236663   1.115   6.336   7.319
 5035TIP3    H136664   1.046   6.312   7.382
 5035TIP3    H236665   1.173   6.260   7.317
 5036TIP3   OH236666   5.244   3.362   7.628
 5036TIP3    H136667   5.310   3.425   7.600
 5036TIP3    H236668   5.240   3.372   7.723
 5037TIP3   OH236669   2.491   4.217   0.995
 5037TIP3    H136670   2.537   4.153   1.050
 5037TIP3    H236671   2.451   4.165   0.926
 5038TIP3   OH236672   4.593   0.011   1.572
 5038TIP3    H136673   4.574   0.072   1.501
 5038TIP3    H236674   4.661   0.053   1.623
 5039TIP3   OH236675   3.759   3.179   0.527
 5039TIP3    H136676   3.820   3.245   0.495
 5039TIP3    H236677   3.811   3.127   0.589
 5040TIP3   OH236678   6.285   3.274   7.857
 5040TIP3    H136679   6.360   3.216   7.871
 5040TIP3    H236680   6.235   3.270   7.939
 5041TIP3   OH236681   2.234   5.407   1.672
 5041TIP3    H136682   2.295   5.458   1.725
 5041TIP3    H236683   2.151   5.410   1.721
 5042TIP3   OH236684   3.434   5.579   1.468
 5042TIP3    H136685   3.364   5.542   1.523
 5042TIP3    H236686   3.498   5.613   1.530
 5043TIP3   OH236687   0.966   0.521   7.350
 5043TIP3    H136688   1.055   0.513   7.316
 5043TIP3    H236689   0.964   0.462   7.426
 5044TIP3   OH236690   0.171   1.323   0.326
 5044TIP3    H136691   0.099   1.265   0.300
 5044TIP3    H236692   0.127   1.397   0.368
 5045TIP3   OH236693   1.842   6.675   1.961
 5045TIP3    H136694   1.766   6.623   1.936
 5045TIP3    H236695   1.893   6.684   1.881
 5046TIP3   OH236696   3.910   5.163   0.020
 5046TIP3    H136697   3.874   5.126   0.101
 5046TIP3    H236698   3.873   5.251   0.015
 5047TIP3   OH236699   5.551   5.026   0.519
 5047TIP3    H136700   5.524   5.106   0.564
 5047TIP3    H236701   5.517   4.955   0.574
 5048TIP3   OH236702   5.410   5.157   1.172
 5048TIP3    H136703   5.408   5.179   1.265
 5048TIP3    H236704   5.491   5.195   1.140
 5049TIP3   OH236705   6.149   5.807   1.926
 5049TIP3    H136706   6.110   5.848   1.848
 5049TIP3    H236707   6.208   5.741   1.891
 5050TIP3   OH236708   0.014   1.129   6.559
 5050TIP3    H136709   0.018   1.220   6.587
 5050TIP3    H236710   6.764   1.107   6.562
 5051TIP3   OH236711   0.142   2.155   0.996
 5051TIP3    H136712   0.123   2.225   1.058
 5051TIP3    H236713   0.180   2.086   1.050
 5052TIP3   OH236714   4.169   4.762   1.891
 5052TIP3    H136715   4.100   4.766   1.825
 5052TIP3    H236716   4.245   4.800   1.848
 5053TIP3   OH236717   2.280   0.340   2.677
 5053TIP3    H136718   2.225   0.371   2.749
 5053TIP3    H236719   2.278   0.411   2.613
 5054TIP3   OH236720   6.277   4.413   1.046
 5054TIP3    H136721   6.207   4.472   1.075
 5054TIP3    H236722   6.282   4.346   1.114
 5055TIP3   OH236723   1.323   6.521   1.007
 5055TIP3    H136724   1.265   6.465   1.059
 5055TIP3    H236725   1.323   6.604   1.053
 5056TIP3   OH236726   5.666   2.252   0.859
 5056TIP3    H136727   5.577   2.251   0.894
 5056TIP3    H236728   5.655   2.267   0.765
 5057TIP3   OH236729   1.418   4.956   1.119
 5057TIP3    H136730   1.337   4.905   1.125
 5057TIP3    H236731   1.455   4.954   1.207
 5058TIP3   OH236732   2.668   5.499   2.466
 5058TIP3    H136733   2.582   5.506   2.425
 5058TIP3    H236734   2.650   5.476   2.557
 5059TIP3   OH236735   2.236   5.973   0.721
 5059TIP3    H136736   2.304   5.966   0.788
 5059TIP3    H236737   2.259   5.908   0.655
 5060TIP3   OH236738   5.802   5.140   2.213
 5060TIP3    H136739   5.754   5.146   2.131
 5060TIP3    H236740   5.779   5.220   2.260
 5061TIP3   OH236741   3.492   6.483   0.615
 5061TIP3    H136742   3.586   6.476   0.597
 5061TIP3    H236743   3.486   6.476   0.711
 5062TIP3   OH236744   1.290   5.263   1.384
 5062TIP3    H136745   1.209   5.252   1.333
 5062TIP3    H236746   1.296   5.184   1.437
 5063TIP3   OH236747   6.836   2.490   0.381
 5063TIP3    H136748   6.746   2.470   0.356
 5063TIP3    H236749   6.830   2.574   0.427
 5064TIP3   OH236750   0.129   4.985   6.862
 5064TIP3    H136751   0.043   5.026   6.858
 5064TIP3    H236752   0.147   4.974   6.955
 5065TIP3   OH236753   5.235   0.528   0.276
 5065TIP3    H136754   5.198   0.596   0.333
 5065TIP3    H236755   5.330   0.537   0.285
 5066TIP3   OH236756   4.118   0.166   1.314
 5066TIP3    H136757   4.134   0.148   1.407
 5066TIP3    H236758   4.150   0.087   1.270
 5067TIP3   OH236759   3.044   2.171   0.870
 5067TIP3    H136760   2.975   2.207   0.814
 5067TIP3    H236761   3.018   2.195   0.959
 5068TIP3   OH236762   6.704   3.485   7.334
 5068TIP3    H136763   6.642   3.482   7.407
 5068TIP3    H236764   6.698   3.399   7.294
 5069TIP3   OH236765   4.679   3.523   2.246
 5069TIP3    H136766   4.724   3.606   2.229
 5069TIP3    H236767   4.589   3.539   2.219
 5070TIP3   OH236768   2.256   2.302   8.015
 5070TIP3    H136769   2.343   2.287   7.978
 5070TIP3    H236770   2.205   2.339   7.942
 5071TIP3   OH236771   2.240   6.710   8.053
 5071TIP3    H136772   2.336   6.705   8.056
 5071TIP3    H236773   2.214   6.634   8.001
 5072TIP3   OH236774   2.157   1.103   2.226
 5072TIP3    H136775   2.151   1.156   2.305
 5072TIP3    H236776   2.103   1.150   2.162
 5073TIP3   OH236777   4.247   3.067   7.347
 5073TIP3    H136778   4.329   3.027   7.321
 5073TIP3    H236779   4.195   2.995   7.384
 5074TIP3   OH236780   5.025   1.133   8.027
 5074TIP3    H136781   5.073   1.056   7.999
 5074TIP3    H236782   5.023   1.190   7.950
 5075TIP3   OH236783   4.078   2.992   6.363
 5075TIP3    H136784   3.987   3.013   6.383
 5075TIP3    H236785   4.095   3.036   6.280
 5076TIP3   OH236786   5.147   3.447   0.965
 5076TIP3    H136787   5.188   3.470   0.882
 5076TIP3    H236788   5.143   3.530   1.013
 5077TIP3   OH236789   1.204   4.184   1.630
 5077TIP3    H136790   1.299   4.195   1.633
 5077TIP3    H236791   1.191   4.103   1.582
 5078TIP3   OH236792   5.857   4.459   6.178
 5078TIP3    H136793   5.860   4.364   6.188
 5078TIP3    H236794   5.809   4.473   6.096
 5079TIP3   OH236795   6.253   2.640   7.561
 5079TIP3    H136796   6.334   2.645   7.511
 5079TIP3    H236797   6.210   2.725   7.546
 5080TIP3   OH236798   2.607   0.067   8.499
 5080TIP3    H136799   2.637   0.094   8.586
 5080TIP3    H236800   2.687   0.047   8.451
 5081TIP3   OH236801   0.686   2.422   6.846
 5081TIP3    H136802   0.613   2.467   6.804
 5081TIP3    H236803   0.725   2.369   6.777
 5082TIP3   OH236804   5.106   2.470   7.304
 5082TIP3    H136805   5.116   2.551   7.354
 5082TIP3    H236806   5.171   2.410   7.341
 5083TIP3   OH236807   5.381   2.382   0.289
 5083TIP3    H136808   5.439   2.367   0.363
 5083TIP3    H236809   5.348   2.471   0.301
 5084TIP3   OH236810   4.232   5.548   6.662
 5084TIP3    H136811   4.196   5.460   6.670
 5084TIP3    H236812   4.313   5.536   6.612
 5085TIP3   OH236813   1.327   1.987   8.142
 5085TIP3    H136814   1.288   1.916   8.091
 5085TIP3    H236815   1.297   1.971   8.231
 5086TIP3   OH236816   5.390   2.797   8.158
 5086TIP3    H136817   5.401   2.771   8.249
 5086TIP3    H236818   5.301   2.834   8.154
 5087TIP3   OH236819   2.810   3.527   6.700
 5087TIP3    H136820   2.864   3.567   6.768
 5087TIP3    H236821   2.813   3.588   6.627
 5088TIP3   OH236822   2.345   2.495   8.181
 5088TIP3    H136823   2.319   2.468   8.269
 5088TIP3    H236824   2.305   2.430   8.123
 5089TIP3   OH236825   1.857   3.255   1.124
 5089TIP3    H136826   1.806   3.226   1.048
 5089TIP3    H236827   1.840   3.348   1.131
 5090TIP3   OH236828   5.971   0.058   8.306
 5090TIP3    H136829   6.062   0.056   8.276
 5090TIP3    H236830   5.935   6.815   8.280
 5091TIP3   OH236831   6.744   5.787   0.799
 5091TIP3    H136832   6.713   5.699   0.781
 5091TIP3    H236833   6.833   5.775   0.833
 5092TIP3   OH236834   0.013   0.562   8.507
 5092TIP3    H136835   0.076   0.541   8.576
 5092TIP3    H236836   0.058   0.537   8.426
 5093TIP3   OH236837   1.019   0.984   1.205
 5093TIP3    H136838   1.095   1.042   1.218
 5093TIP3    H236839   0.945   1.033   1.242
 5094TIP3   OH236840   4.231   2.264   8.696
 5094TIP3    H136841   4.306   2.277   8.638
 5094TIP3    H236842   4.177   2.342   8.683
 5095TIP3   OH236843   4.488   1.067   1.896
 5095TIP3    H136844   4.499   0.977   1.867
 5095TIP3    H236845   4.523   1.120   1.824
 5096TIP3   OH236846   3.896   5.018   7.435
 5096TIP3    H136847   3.987   4.996   7.456
 5096TIP3    H236848   3.848   4.996   7.515
 5097TIP3   OH236849   4.252   0.146   7.407
 5097TIP3    H136850   4.193   0.215   7.377
 5097TIP3    H236851   4.301   0.121   7.329
 5098TIP3   OH236852   0.404   0.476   8.517
 5098TIP3    H136853   0.356   0.529   8.453
 5098TIP3    H236854   0.344   0.405   8.540
 5099TIP3   OH236855   4.136   6.533   1.211
 5099TIP3    H136856   4.171   6.443   1.207
 5099TIP3    H236857   4.090   6.537   1.294
 5100TIP3   OH236858   6.782   6.432   7.936
 5100TIP3    H136859   6.828   6.481   8.005
 5100TIP3    H236860   6.718   6.493   7.900
 5101TIP3   OH236861   5.566   1.525   8.396
 5101TIP3    H136862   5.659   1.546   8.385
 5101TIP3    H236863   5.543   1.477   8.316
 5102TIP3   OH236864   1.049   3.978   1.472
 5102TIP3    H136865   1.050   3.895   1.424
 5102TIP3    H236866   1.071   4.043   1.405
 5103TIP3   OH236867   3.579   5.802   7.704
 5103TIP3    H136868   3.590   5.708   7.692
 5103TIP3    H236869   3.627   5.822   7.784
 5104TIP3   OH236870   2.527   2.664   6.657
 5104TIP3    H136871   2.461   2.714   6.609
 5104TIP3    H236872   2.610   2.699   6.625
 5105TIP3   OH236873   1.375   0.080   8.273
 5105TIP3    H136874   1.361   6.837   8.313
 5105TIP3    H236875   1.343   0.070   8.183
 5106TIP3   OH236876   5.540   2.048   7.322
 5106TIP3    H136877   5.573   1.960   7.342
 5106TIP3    H236878   5.616   2.106   7.336
 5107TIP3   OH236879   5.341   6.500   1.069
 5107TIP3    H136880   5.296   6.559   1.129
 5107TIP3    H236881   5.414   6.551   1.034
 5108TIP3   OH236882   3.233   6.084   1.653
 5108TIP3    H136883   3.248   6.157   1.713
 5108TIP3    H236884   3.157   6.038   1.689
 5109TIP3   OH236885   0.687   5.517   0.073
 5109TIP3    H136886   0.743   5.586   0.108
 5109TIP3    H236887   0.649   5.556   8.707
 5110TIP3   OH236888   0.260   1.331   7.955
 5110TIP3    H136889   0.217   1.401   7.906
 5110TIP3    H236890   0.202   1.256   7.945
 5111TIP3   OH236891   4.839   2.955   7.251
 5111TIP3    H136892   4.812   2.864   7.239
 5111TIP3    H236893   4.845   2.965   7.346
 5112TIP3   OH236894   3.319   5.235   0.514
 5112TIP3    H136895   3.375   5.177   0.566
 5112TIP3    H236896   3.305   5.311   0.571
 5113TIP3   OH236897   2.638   3.242   8.112
 5113TIP3    H136898   2.632   3.336   8.128
 5113TIP3    H236899   2.677   3.207   8.192
 5114TIP3   OH236900   3.769   6.596   0.061
 5114TIP3    H136901   3.825   6.668   0.030
 5114TIP3    H236902   3.692   6.600   0.005
 5115TIP3   OH236903   0.154   1.840   0.314
 5115TIP3    H136904   0.098   1.852   0.391
 5115TIP3    H236905   0.238   1.811   0.349
 5116TIP3   OH236906   0.942   2.645   7.233
 5116TIP3    H136907   0.873   2.704   7.204
 5116TIP3    H236908   0.933   2.568   7.176
 5117TIP3   OH236909   1.845   6.669   1.464
 5117TIP3    H136910   1.784   6.715   1.522
 5117TIP3    H236911   1.807   6.581   1.455
 5118TIP3   OH236912   2.977   4.699   7.187
 5118TIP3    H136913   3.033   4.644   7.241
 5118TIP3    H236914   2.999   4.674   7.097
 5119TIP3   OH236915   2.629   4.729   1.864
 5119TIP3    H136916   2.556   4.791   1.865
 5119TIP3    H236917   2.692   4.766   1.927
 5120TIP3   OH236918   4.647   5.036   0.337
 5120TIP3    H136919   4.741   5.042   0.325
 5120TIP3    H236920   4.636   5.023   0.431
 5121TIP3   OH236921   4.051   5.753   8.672
 5121TIP3    H136922   4.035   5.706   0.041
 5121TIP3    H236923   4.029   5.845   8.692
 5122TIP3   OH236924   4.757   1.185   6.490
 5122TIP3    H136925   4.731   1.093   6.482
 5122TIP3    H236926   4.721   1.226   6.411
 5123TIP3   OH236927   0.982   0.172   1.660
 5123TIP3    H136928   0.886   0.171   1.663
 5123TIP3    H236929   1.002   0.201   1.571
 5124TIP3   OH236930   1.999   5.979   7.858
 5124TIP3    H136931   1.944   5.903   7.875
 5124TIP3    H236932   1.937   6.052   7.850
 5125TIP3   OH236933   6.060   6.737   2.503
 5125TIP3    H136934   6.038   6.824   2.470
 5125TIP3    H236935   6.150   6.722   2.476
 5126TIP3   OH236936   4.916   1.199   2.333
 5126TIP3    H136937   4.988   1.210   2.270
 5126TIP3    H236938   4.901   1.287   2.367
 5127TIP3   OH236939   5.906   2.242   6.545
 5127TIP3    H136940   5.956   2.202   6.475
 5127TIP3    H236941   5.817   2.209   6.532
 5128TIP3   OH236942   3.133   1.456   0.032
 5128TIP3    H136943   3.185   1.536   0.037
 5128TIP3    H236944   3.100   1.443   0.121
 5129TIP3   OH236945   5.621   5.257   0.256
 5129TIP3    H136946   5.566   5.235   0.181
 5129TIP3    H236947   5.682   5.323   0.223
 5130TIP3   OH236948   0.600   5.011   1.826
 5130TIP3    H136949   0.642   5.063   1.894
 5130TIP3    H236950   0.652   5.028   1.747
 5131TIP3   OH236951   2.936   4.257   8.456
 5131TIP3    H136952   2.938   4.346   8.420
 5131TIP3    H236953   2.843   4.238   8.469
 5132TIP3   OH236954   3.040   5.901   0.663
 5132TIP3    H136955   3.056   5.989   0.697
 5132TIP3    H236956   3.087   5.844   0.724
 5133TIP3   OH236957   4.455   0.173   2.089
 5133TIP3    H136958   4.396   0.098   2.100
 5133TIP3    H236959   4.514   0.168   2.165
 5134TIP3   OH236960   6.212   6.245   0.375
 5134TIP3    H136961   6.184   6.274   0.461
 5134TIP3    H236962   6.256   6.322   0.337
 5135TIP3   OH236963   2.153   0.730   6.878
 5135TIP3    H136964   2.214   0.792   6.919
 5135TIP3    H236965   2.125   0.775   6.799
 5136TIP3   OH236966   2.513   0.514   1.936
 5136TIP3    H136967   2.456   0.590   1.921
 5136TIP3    H236968   2.507   0.498   2.030
 5137TIP3   OH236969   3.959   4.586   1.595
 5137TIP3    H136970   3.915   4.533   1.529
 5137TIP3    H236971   4.052   4.583   1.571
 5138TIP3   OH236972   5.100   1.463   7.089
 5138TIP3    H136973   5.045   1.531   7.050
 5138TIP3    H236974   5.059   1.445   7.174
 5139TIP3   OH236975   4.854   6.175   1.267
 5139TIP3    H136976   4.929   6.119   1.249
 5139TIP3    H236977   4.778   6.119   1.251
 5140TIP3   OH236978   2.464   4.542   1.407
 5140TIP3    H136979   2.427   4.585   1.484
 5140TIP3    H236980   2.536   4.490   1.442
 5141TIP3   OH236981   1.741   2.432   0.221
 5141TIP3    H136982   1.707   2.372   0.287
 5141TIP3    H236983   1.697   2.515   0.240
 5142TIP3   OH236984   1.798   3.619   0.738
 5142TIP3    H136985   1.773   3.569   0.660
 5142TIP3    H236986   1.728   3.683   0.749
 5143TIP3   OH236987   3.395   4.158   7.654
 5143TIP3    H136988   3.488   4.153   7.674
 5143TIP3    H236989   3.351   4.133   7.735
 5144TIP3   OH236990   3.218   0.360   1.980
 5144TIP3    H136991   3.125   0.342   1.993
 5144TIP3    H236992   3.234   0.338   1.888
 5145TIP3   OH236993   4.360   3.275   1.454
 5145TIP3    H136994   4.349   3.270   1.549
 5145TIP3    H236995   4.454   3.288   1.442
 5146TIP3   OH236996   6.573   6.592   7.840
 5146TIP3    H136997   6.512   6.603   7.913
 5146TIP3    H236998   6.529   6.632   7.765
 5147TIP3   OH236999   5.199   0.187   7.755
 5147TIP3    H137000   5.269   0.207   7.818
 5147TIP3    H237001   5.241   0.194   7.669
 5148TIP3   OH237002   3.559   5.262   0.997
 5148TIP3    H137003   3.650   5.246   0.975
 5148TIP3    H237004   3.536   5.191   1.057
 5149TIP3   OH237005   1.512   1.457   8.237
 5149TIP3    H137006   1.561   1.379   8.262
 5149TIP3    H237007   1.431   1.422   8.198
 5150TIP3   OH237008   1.397   3.012   0.099
 5150TIP3    H137009   1.339   2.957   0.045
 5150TIP3    H237010   1.456   2.949   0.142
 5151TIP3   OH237011   3.966   3.513   7.934
 5151TIP3    H137012   4.049   3.552   7.961
 5151TIP3    H237013   3.971   3.512   7.838
 5152TIP3   OH237014   0.320   4.376   1.824
 5152TIP3    H137015   0.232   4.392   1.857
 5152TIP3    H237016   0.345   4.292   1.862
 5153TIP3   OH237017   4.438   0.823   7.463
 5153TIP3    H137018   4.425   0.752   7.526
 5153TIP3    H237019   4.524   0.807   7.426
 5154TIP3   OH237020   0.201   3.076   1.041
 5154TIP3    H137021   0.154   3.048   0.962
 5154TIP3    H237022   0.193   3.003   1.101
 5155TIP3   OH237023   3.436   6.116   7.906
 5155TIP3    H137024   3.347   6.093   7.881
 5155TIP3    H237025   3.426   6.175   7.981
 5156TIP3   OH237026   0.788   1.797   0.647
 5156TIP3    H137027   0.706   1.754   0.623
 5156TIP3    H237028   0.855   1.730   0.636
 5157TIP3   OH237029   5.372   6.110   0.281
 5157TIP3    H137030   5.460   6.146   0.294
 5157TIP3    H237031   5.386   6.030   0.229
 5158TIP3   OH237032   4.662   2.900   0.046
 5158TIP3    H137033   4.736   2.946   0.007
 5158TIP3    H237034   4.601   2.969   0.071
 5159TIP3   OH237035   4.045   4.304   7.067
 5159TIP3    H137036   4.049   4.380   7.010
 5159TIP3    H237037   4.135   4.288   7.093
 5160TIP3   OH237038   0.888   1.353   6.106
 5160TIP3    H137039   0.898   1.380   6.198
 5160TIP3    H237040   0.867   1.259   6.111
 5161TIP3   OH237041   1.314   6.498   7.397
 5161TIP3    H137042   1.236   6.468   7.350
 5161TIP3    H237043   1.380   6.510   7.328
 5162TIP3   OH237044   2.059   2.690   1.381
 5162TIP3    H137045   2.091   2.780   1.377
 5162TIP3    H237046   2.000   2.689   1.457
 5163TIP3   OH237047   3.530   0.608   6.938
 5163TIP3    H137048   3.583   0.681   6.969
 5163TIP3    H237049   3.538   0.612   6.842
 5164TIP3   OH237050   3.357   6.187   7.556
 5164TIP3    H137051   3.264   6.191   7.534
 5164TIP3    H237052   3.368   6.102   7.599
 5165TIP3   OH237053   5.079   0.397   7.538
 5165TIP3    H137054   5.156   0.445   7.567
 5165TIP3    H237055   5.113   0.313   7.506
 5166TIP3   OH237056   5.158   2.013   1.278
 5166TIP3    H137057   5.111   1.940   1.317
 5166TIP3    H237058   5.233   2.027   1.336
 5167TIP3   OH237059   1.575   2.602   0.754
 5167TIP3    H137060   1.546   2.691   0.772
 5167TIP3    H237061   1.612   2.571   0.837
 5168TIP3   OH237062   2.435   5.802   1.596
 5168TIP3    H137063   2.484   5.794   1.677
 5168TIP3    H237064   2.501   5.818   1.529
 5169TIP3   OH237065   4.651   5.570   0.695
 5169TIP3    H137066   4.606   5.536   0.772
 5169TIP3    H237067   4.648   5.666   0.706
 5170TIP3   OH237068   3.528   3.485   7.009
 5170TIP3    H137069   3.603   3.545   7.005
 5170TIP3    H237070   3.494   3.497   7.098
 5171TIP3   OH237071   1.026   0.183   8.610
 5171TIP3    H137072   1.108   0.224   8.639
 5171TIP3    H237073   1.033   0.181   8.514
 5172TIP3   OH237074   2.526   2.501   7.303
 5172TIP3    H137075   2.536   2.596   7.294
 5172TIP3    H237076   2.458   2.478   7.241
 5173TIP3   OH237077   2.634   1.909   7.695
 5173TIP3    H137078   2.634   1.898   7.600
 5173TIP3    H237079   2.635   1.820   7.730
 5174TIP3   OH237080   2.570   3.869   7.189
 5174TIP3    H137081   2.597   3.787   7.230
 5174TIP3    H237082   2.600   3.861   7.098
 5175TIP3   OH237083   1.104   1.000   7.110
 5175TIP3    H137084   1.074   0.978   7.199
 5175TIP3    H237085   1.134   1.091   7.117
 5176TIP3   OH237086   4.461   1.654   7.825
 5176TIP3    H137087   4.490   1.653   7.734
 5176TIP3    H237088   4.453   1.747   7.847
 5177TIP3   OH237089   5.262   2.477   1.161
 5177TIP3    H137090   5.207   2.400   1.143
 5177TIP3    H237091   5.236   2.504   1.249
 5178TIP3   OH237092   3.103   1.418   1.622
 5178TIP3    H137093   3.068   1.369   1.547
 5178TIP3    H237094   3.026   1.436   1.675
 5179TIP3   OH237095   1.142   2.898   1.950
 5179TIP3    H137096   1.113   2.953   2.023
 5179TIP3    H237097   1.222   2.855   1.982
 5180TIP3   OH237098   4.520   1.509   1.724
 5180TIP3    H137099   4.607   1.526   1.760
 5180TIP3    H237100   4.516   1.562   1.644
 5181TIP3   OH237101   5.608   4.577   7.674
 5181TIP3    H137102   5.652   4.593   7.590
 5181TIP3    H237103   5.558   4.657   7.690
 5182TIP3   OH237104   3.287   0.999   1.829
 5182TIP3    H137105   3.233   0.952   1.893
 5182TIP3    H237106   3.325   1.071   1.879
 5183TIP3   OH237107   2.638   5.383   0.902
 5183TIP3    H137108   2.573   5.378   0.832
 5183TIP3    H237109   2.617   5.464   0.948
 5184TIP3   OH237110   4.573   5.999   8.154
 5184TIP3    H137111   4.488   5.995   8.199
 5184TIP3    H237112   4.637   6.014   8.223
 5185TIP3   OH237113   4.780   0.982   7.594
 5185TIP3    H137114   4.734   0.900   7.576
 5185TIP3    H237115   4.818   0.969   7.681
 5186TIP3   OH237116   6.760   6.659   2.446
 5186TIP3    H137117   6.764   6.660   2.350
 5186TIP3    H237118   6.722   6.574   2.467
 5187TIP3   OH237119   3.727   5.598   7.342
 5187TIP3    H137120   3.734   5.676   7.287
 5187TIP3    H237121   3.795   5.540   7.309
 5188TIP3   OH237122   1.639   6.145   6.388
 5188TIP3    H137123   1.618   6.142   6.295
 5188TIP3    H237124   1.714   6.086   6.397
 5189TIP3   OH237125   5.505   1.854   0.583
 5189TIP3    H137126   5.532   1.946   0.590
 5189TIP3    H237127   5.540   1.825   0.499
 5190TIP3   OH237128   4.612   3.109   1.161
 5190TIP3    H137129   4.586   3.090   1.251
 5190TIP3    H237130   4.632   3.202   1.161
 5191TIP3   OH237131   2.748   3.599   1.460
 5191TIP3    H137132   2.683   3.551   1.408
 5191TIP3    H237133   2.810   3.531   1.489
 5192TIP3   OH237134   3.788   4.261   6.400
 5192TIP3    H137135   3.872   4.287   6.361
 5192TIP3    H237136   3.812   4.225   6.486
 5193TIP3   OH237137   4.135   2.500   7.327
 5193TIP3    H137138   4.118   2.469   7.416
 5193TIP3    H237139   4.052   2.488   7.281
 5194TIP3   OH237140   4.200   4.794   0.938
 5194TIP3    H137141   4.145   4.715   0.947
 5194TIP3    H237142   4.249   4.780   0.857
 5195TIP3   OH237143   1.235   2.496   8.576
 5195TIP3    H137144   1.293   2.461   8.644
 5195TIP3    H237145   1.287   2.495   8.496
 5196TIP3   OH237146   5.529   3.927   0.346
 5196TIP3    H137147   5.528   3.861   0.415
 5196TIP3    H237148   5.578   3.886   0.275
 5197TIP3   OH237149   4.828   1.913   6.306
 5197TIP3    H137150   4.794   1.994   6.269
 5197TIP3    H237151   4.923   1.923   6.301
 5198TIP3   OH237152   4.225   0.508   0.705
 5198TIP3    H137153   4.169   0.472   0.773
 5198TIP3    H237154   4.164   0.543   0.640
 5199TIP3   OH237155   4.734   3.209   8.224
 5199TIP3    H137156   4.760   3.263   8.148
 5199TIP3    H237157   4.643   3.187   8.207
 5200TIP3   OH237158   0.523   1.243   1.498
 5200TIP3    H137159   0.453   1.239   1.433
 5200TIP3    H237160   0.514   1.162   1.548
 5201TIP3   OH237161   4.236   3.121   1.953
 5201TIP3    H137162   4.158   3.141   2.004
 5201TIP3    H237163   4.270   3.207   1.926
 5202TIP3   OH237164   0.665   3.005   0.013
 5202TIP3    H137165   0.591   2.960   0.054
 5202TIP3    H237166   0.653   2.990   8.632
 5203TIP3   OH237167   6.444   5.079   2.066
 5203TIP3    H137168   6.435   5.104   2.157
 5203TIP3    H237169   6.525   5.028   2.062
 5204TIP3   OH237170   5.947   0.409   1.333
 5204TIP3    H137171   5.913   0.446   1.251
 5204TIP3    H237172   5.904   0.459   1.402
 5205TIP3   OH237173   3.693   4.710   1.529
 5205TIP3    H137174   3.788   4.721   1.523
 5205TIP3    H237175   3.671   4.739   1.617
 5206TIP3   OH237176   2.982   0.491   0.787
 5206TIP3    H137177   2.972   0.519   0.878
 5206TIP3    H237178   3.052   0.547   0.753
 5207TIP3   OH237179   3.846   0.764   8.613
 5207TIP3    H137180   3.782   0.695   8.632
 5207TIP3    H237181   3.805   0.844   8.645
 5208TIP3   OH237182   5.783   2.880   0.241
 5208TIP3    H137183   5.688   2.875   0.244
 5208TIP3    H237184   5.804   2.899   0.149
 5209TIP3   OH237185   5.046   4.476   0.728
 5209TIP3    H137186   5.096   4.558   0.730
 5209TIP3    H237187   5.064   4.434   0.812
 5210TIP3   OH237188   5.833   3.980   1.921
 5210TIP3    H137189   5.862   3.896   1.957
 5210TIP3    H237190   5.914   4.031   1.909
 5211TIP3   OH237191   5.099   0.122   1.383
 5211TIP3    H137192   5.165   0.058   1.357
 5211TIP3    H237193   5.065   0.088   1.466
 5212TIP3   OH237194   3.518   1.524   7.355
 5212TIP3    H137195   3.446   1.462   7.358
 5212TIP3    H237196   3.596   1.472   7.374
 5213TIP3   OH237197   3.334   1.670   1.680
 5213TIP3    H137198   3.241   1.676   1.702
 5213TIP3    H237199   3.378   1.709   1.755
 5214TIP3   OH237200   1.740   5.201   7.422
 5214TIP3    H137201   1.725   5.291   7.450
 5214TIP3    H237202   1.836   5.191   7.425
 5215TIP3   OH237203   3.797   3.602   8.681
 5215TIP3    H137204   3.863   3.671   8.678
 5215TIP3    H237205   3.716   3.644   8.651
 5216TIP3   OH237206   5.789   6.467   8.029
 5216TIP3    H137207   5.708   6.472   8.080
 5216TIP3    H237208   5.825   6.556   8.032
 5217TIP3   OH237209   6.094   0.661   1.704
 5217TIP3    H137210   6.075   0.664   1.798
 5217TIP3    H237211   6.010   0.637   1.664
 5218TIP3   OH237212   1.236   2.930   1.028
 5218TIP3    H137213   1.194   2.896   0.949
 5218TIP3    H237214   1.224   2.862   1.093
 5219TIP3   OH237215   6.205   2.036   6.659
 5219TIP3    H137216   6.124   2.046   6.708
 5219TIP3    H237217   6.218   2.120   6.616
 5220TIP3   OH237218   1.930   3.126   1.594
 5220TIP3    H137219   1.878   3.185   1.540
 5220TIP3    H237220   1.949   3.175   1.673
 5221TIP3   OH237221   5.448   5.845   1.235
 5221TIP3    H137222   5.383   5.813   1.298
 5221TIP3    H237223   5.518   5.780   1.238
 5222TIP3   OH237224   2.400   5.825   0.248
 5222TIP3    H137225   2.388   5.847   0.340
 5222TIP3    H237226   2.476   5.877   0.221
 5223TIP3   OH237227   3.904   2.816   1.359
 5223TIP3    H137228   3.883   2.821   1.453
 5223TIP3    H237229   3.855   2.888   1.320
 5224TIP3   OH237230   6.206   4.200   0.795
 5224TIP3    H137231   6.228   4.172   0.883
 5224TIP3    H237232   6.161   4.125   0.756
 5225TIP3   OH237233   6.217   1.778   1.790
 5225TIP3    H137234   6.275   1.731   1.851
 5225TIP3    H237235   6.129   1.749   1.814
 5226TIP3   OH237236   5.740   5.013   7.659
 5226TIP3    H137237   5.767   5.022   7.568
 5226TIP3    H237238   5.656   5.060   7.663
 5227TIP3   OH237239   3.250   0.347   2.253
 5227TIP3    H137240   3.317   0.281   2.234
 5227TIP3    H237241   3.229   0.385   2.168
 5228TIP3   OH237242   4.157   1.195   0.438
 5228TIP3    H137243   4.202   1.276   0.462
 5228TIP3    H237244   4.130   1.208   0.347
 5229TIP3   OH237245   1.209   3.232   7.060
 5229TIP3    H137246   1.241   3.220   6.971
 5229TIP3    H237247   1.289   3.236   7.113
 5230TIP3   OH237248   4.462   2.343   0.291
 5230TIP3    H137249   4.457   2.258   0.248
 5230TIP3    H237250   4.430   2.328   0.380
 5231TIP3   OH237251   2.059   1.176   7.235
 5231TIP3    H137252   2.146   1.200   7.203
 5231TIP3    H237253   2.001   1.193   7.162
 5232TIP3   OH237254   4.068   6.388   7.146
 5232TIP3    H137255   4.023   6.355   7.224
 5232TIP3    H237256   4.160   6.394   7.172
 5233TIP3   OH237257   4.740   0.409   1.321
 5233TIP3    H137258   4.789   0.412   1.403
 5233TIP3    H237259   4.791   0.350   1.266
 5234TIP3   OH237260   1.421   3.397   1.017
 5234TIP3    H137261   1.327   3.400   1.035
 5234TIP3    H237262   1.453   3.320   1.065
 5235TIP3   OH237263   4.239   1.056   0.802
 5235TIP3    H137264   4.200   1.063   0.889
 5235TIP3    H237265   4.244   0.962   0.785
 5236TIP3   OH237266   1.721   2.264   1.388
 5236TIP3    H137267   1.769   2.283   1.307
 5236TIP3    H237268   1.657   2.197   1.363
 5237TIP3   OH237269   1.900   0.327   8.476
 5237TIP3    H137270   1.897   0.420   8.498
 5237TIP3    H237271   1.897   0.282   8.561
 5238TIP3   OH237272   4.572   3.976   7.486
 5238TIP3    H137273   4.662   3.986   7.453
 5238TIP3    H237274   4.533   3.910   7.429
 5239TIP3   OH237275   5.253   1.272   7.776
 5239TIP3    H137276   5.213   1.217   7.709
 5239TIP3    H237277   5.345   1.248   7.777
 5240TIP3   OH237278   2.290   5.093   8.445
 5240TIP3    H137279   2.306   5.148   8.368
 5240TIP3    H237280   2.360   5.118   8.506
 5241TIP3   OH237281   1.485   3.002   7.049
 5241TIP3    H137282   1.453   3.076   7.102
 5241TIP3    H237283   1.422   2.993   6.979
 5242TIP3   OH237284   6.744   2.213   1.513
 5242TIP3    H137285   6.764   2.163   1.593
 5242TIP3    H237286   6.777   2.301   1.532
 5243TIP3   OH237287   4.949   1.748   8.381
 5243TIP3    H137288   4.867   1.717   8.419
 5243TIP3    H237289   4.946   1.843   8.391
 5244TIP3   OH237290   5.403   2.589   6.780
 5244TIP3    H137291   5.347   2.591   6.702
 5244TIP3    H237292   5.467   2.521   6.762
 5245TIP3   OH237293   4.385   5.070   8.630
 5245TIP3    H137294   4.299   5.031   8.613
 5245TIP3    H237295   4.367   5.144   8.688
 5246TIP3   OH237296   0.443   5.028   0.499
 5246TIP3    H137297   0.435   5.123   0.492
 5246TIP3    H237298   0.373   5.002   0.559
 5247TIP3   OH237299   2.288   4.042   6.802
 5247TIP3    H137300   2.291   4.101   6.877
 5247TIP3    H237301   2.211   4.070   6.752
 5248TIP3   OH237302   3.340   4.698   8.359
 5248TIP3    H137303   3.435   4.685   8.355
 5248TIP3    H237304   3.320   4.746   8.279
 5249TIP3   OH237305   6.660   2.283   0.705
 5249TIP3    H137306   6.680   2.371   0.737
 5249TIP3    H237307   6.566   2.272   0.720
 5250TIP3   OH237308   5.657   1.291   2.939
 5250TIP3    H137309   5.723   1.239   2.986
 5250TIP3    H237310   5.629   1.234   2.867
 5251TIP3   OH237311   0.915   4.345   7.095
 5251TIP3    H137312   0.899   4.360   7.188
 5251TIP3    H237313   0.835   4.304   7.063
 5252TIP3   OH237314   5.120   4.359   0.088
 5252TIP3    H137315   5.176   4.336   0.162
 5252TIP3    H237316   5.101   4.453   0.101
 5253TIP3   OH237317   4.335   1.016   2.492
 5253TIP3    H137318   4.260   1.071   2.468
 5253TIP3    H237319   4.409   1.058   2.448
 5254TIP3   OH237320   3.351   1.326   0.944
 5254TIP3    H137321   3.375   1.383   0.871
 5254TIP3    H237322   3.413   1.349   1.013
 5255TIP3   OH237323   2.098   6.647   0.710
 5255TIP3    H137324   2.006   6.668   0.728
 5255TIP3    H237325   2.095   6.561   0.667
 5256TIP3   OH237326   5.263   4.615   8.100
 5256TIP3    H137327   5.344   4.566   8.112
 5256TIP3    H237328   5.198   4.567   8.152
 5257TIP3   OH237329   1.479   3.366   8.232
 5257TIP3    H137330   1.544   3.433   8.251
 5257TIP3    H237331   1.396   3.403   8.262
 5258TIP3   OH237332   5.774   0.363   0.581
 5258TIP3    H137333   5.754   0.453   0.555
 5258TIP3    H237334   5.725   0.351   0.663
 5259TIP3   OH237335   5.805   3.213   1.600
 5259TIP3    H137336   5.877   3.224   1.538
 5259TIP3    H237337   5.793   3.300   1.639
 5260TIP3   OH237338   3.288   3.349   6.475
 5260TIP3    H137339   3.361   3.380   6.528
 5260TIP3    H237340   3.305   3.256   6.462
 5261TIP3   OH237341   3.377   4.422   8.691
 5261TIP3    H137342   3.330   4.396   8.612
 5261TIP3    H237343   3.463   4.449   8.659
 5262TIP3   OH237344   6.263   3.043   2.499
 5262TIP3    H137345   6.214   3.125   2.498
 5262TIP3    H237346   6.199   2.976   2.474
 5263TIP3   OH237347   6.072   1.550   0.387
 5263TIP3    H137348   6.112   1.466   0.411
 5263TIP3    H237349   6.075   1.602   0.467
 5264TIP3   OH237350   6.219   3.224   0.389
 5264TIP3    H137351   6.217   3.132   0.416
 5264TIP3    H237352   6.312   3.242   0.374
 5265TIP3   OH237353   0.440   6.286   0.488
 5265TIP3    H137354   0.399   6.200   0.487
 5265TIP3    H237355   0.524   6.273   0.530
 5266TIP3   OH237356   6.034   0.170   7.064
 5266TIP3    H137357   5.974   0.131   7.127
 5266TIP3    H237358   6.118   0.128   7.081
 5267TIP3   OH237359   2.375   6.440   2.132
 5267TIP3    H137360   2.469   6.449   2.148
 5267TIP3    H237361   2.368   6.367   2.071
 5268TIP3   OH237362   5.549   1.701   0.816
 5268TIP3    H137363   5.488   1.724   0.885
 5268TIP3    H237364   5.539   1.769   0.750
 5269TIP3   OH237365   2.706   2.933   7.744
 5269TIP3    H137366   2.682   2.925   7.836
 5269TIP3    H237367   2.655   2.865   7.700
 5270TIP3   OH237368   0.046   0.694   0.762
 5270TIP3    H137369   0.094   0.746   0.697
 5270TIP3    H237370   6.806   0.740   0.773
 5271TIP3   OH237371   0.878   5.648   0.952
 5271TIP3    H137372   0.881   5.743   0.938
 5271TIP3    H237373   0.869   5.611   0.865
 5272TIP3   OH237374   4.694   5.872   1.901
 5272TIP3    H137375   4.664   5.792   1.858
 5272TIP3    H237376   4.616   5.907   1.944
 5273TIP3   OH237377   5.514   1.401   1.406
 5273TIP3    H137378   5.477   1.444   1.484
 5273TIP3    H237379   5.454   1.329   1.388
 5274TIP3   OH237380   5.397   3.602   1.297
 5274TIP3    H137381   5.385   3.514   1.333
 5274TIP3    H237382   5.424   3.587   1.207
 5275TIP3   OH237383   6.650   0.910   7.213
 5275TIP3    H137384   6.687   0.881   7.130
 5275TIP3    H237385   6.717   0.967   7.251
 5276TIP3   OH237386   5.043   3.362   7.867
 5276TIP3    H137387   4.972   3.417   7.834
 5276TIP3    H237388   5.030   3.278   7.824
 5277TIP3   OH237389   1.042   4.314   7.353
 5277TIP3    H137390   1.136   4.295   7.355
 5277TIP3    H237391   1.035   4.407   7.375
 5278TIP3   OH237392   5.064   1.434   0.578
 5278TIP3    H137393   5.108   1.456   0.660
 5278TIP3    H237394   4.980   1.480   0.584
 5279TIP3   OH237395   0.036   3.263   2.258
 5279TIP3    H137396   0.062   3.327   2.325
 5279TIP3    H237397   6.825   3.314   2.197
 5280TIP3   OH237398   0.726   1.986   1.525
 5280TIP3    H137399   0.692   1.992   1.436
 5280TIP3    H237400   0.819   1.966   1.515
 5281TIP3   OH237401   5.198   5.834   1.442
 5281TIP3    H137402   5.156   5.805   1.523
 5281TIP3    H237403   5.181   5.764   1.379
 5282TIP3   OH237404   5.869   5.451   0.395
 5282TIP3    H137405   5.898   5.491   0.313
 5282TIP3    H237406   5.891   5.359   0.386
 5283TIP3   OH237407   6.143   3.819   7.334
 5283TIP3    H137408   6.171   3.883   7.268
 5283TIP3    H237409   6.062   3.855   7.369
 5284TIP3   OH237410   1.366   3.697   8.167
 5284TIP3    H137411   1.421   3.671   8.093
 5284TIP3    H237412   1.285   3.728   8.126
 5285TIP3   OH237413   4.718   2.896   0.578
 5285TIP3    H137414   4.668   2.977   0.576
 5285TIP3    H237415   4.703   2.857   0.492
 5286TIP3   OH237416   0.903   6.120   2.191
 5286TIP3    H137417   0.920   6.186   2.259
 5286TIP3    H237418   0.845   6.164   2.129
 5287TIP3   OH237419   3.894   2.828   0.584
 5287TIP3    H137420   3.871   2.849   0.675
 5287TIP3    H237421   3.836   2.882   0.531
 5288TIP3   OH237422   1.300   5.648   1.466
 5288TIP3    H137423   1.357   5.713   1.424
 5288TIP3    H237424   1.304   5.669   1.559
 5289TIP3   OH237425   1.769   0.033   1.629
 5289TIP3    H137426   1.698   6.839   1.681
 5289TIP3    H237427   1.848   6.837   1.666
 5290TIP3   OH237428   0.568   1.144   6.837
 5290TIP3    H137429   0.538   1.175   6.751
 5290TIP3    H237430   0.643   1.200   6.857
 5291TIP3   OH237431   4.935   5.907   8.565
 5291TIP3    H137432   5.023   5.890   8.533
 5291TIP3    H237433   4.936   5.876   8.656
 5292TIP3   OH237434   0.811   6.000   1.410
 5292TIP3    H137435   0.803   6.079   1.464
 5292TIP3    H237436   0.857   5.937   1.466
 5293TIP3   OH237437   2.414   1.682   2.124
 5293TIP3    H137438   2.435   1.629   2.202
 5293TIP3    H237439   2.393   1.768   2.159
 5294TIP3   OH237440   0.778   4.222   0.736
 5294TIP3    H137441   0.814   4.146   0.689
 5294TIP3    H237442   0.714   4.184   0.796
 5295TIP3   OH237443   4.048   6.778   1.479
 5295TIP3    H137444   4.120   6.792   1.540
 5295TIP3    H237445   4.005   6.698   1.510
 5296TIP3   OH237446   1.246   4.679   1.452
 5296TIP3    H137447   1.220   4.587   1.448
 5296TIP3    H237448   1.243   4.701   1.545
 5297TIP3   OH237449   3.138   6.714   0.159
 5297TIP3    H137450   3.177   6.628   0.141
 5297TIP3    H237451   3.062   6.694   0.213
 5298TIP3   OH237452   5.487   1.939   8.335
 5298TIP3    H137453   5.551   2.010   8.328
 5298TIP3    H237454   5.448   1.933   8.248
 5299TIP3   OH237455   2.420   4.941   1.371
 5299TIP3    H137456   2.375   4.939   1.455
 5299TIP3    H237457   2.411   5.031   1.341
 5300TIP3   OH237458   0.124   3.985   1.190
 5300TIP3    H137459   0.076   3.915   1.144
 5300TIP3    H237460   0.169   3.941   1.261
 5301TIP3   OH237461   1.955   0.358   6.898
 5301TIP3    H137462   1.883   0.420   6.906
 5301TIP3    H237463   1.913   0.273   6.887
 5302TIP3   OH237464   3.649   1.510   2.480
 5302TIP3    H137465   3.681   1.429   2.439
 5302TIP3    H237466   3.728   1.556   2.507
 5303TIP3   OH237467   1.640   5.939   1.116
 5303TIP3    H137468   1.644   6.032   1.137
 5303TIP3    H237469   1.723   5.921   1.070
 5304TIP3   OH237470   3.379   0.835   1.619
 5304TIP3    H137471   3.426   0.758   1.650
 5304TIP3    H237472   3.358   0.884   1.698
 5305TIP3   OH237473   1.807   2.253   8.461
 5305TIP3    H137474   1.748   2.191   8.418
 5305TIP3    H237475   1.750   2.310   8.512
 5306TIP3   OH237476   1.024   6.415   7.785
 5306TIP3    H137477   1.082   6.338   7.787
 5306TIP3    H237478   1.083   6.489   7.798
 5307TIP3   OH237479   0.670   0.680   0.504
 5307TIP3    H137480   0.644   0.761   0.548
 5307TIP3    H237481   0.719   0.708   0.427
 5308TIP3   OH237482   3.243   1.393   2.268
 5308TIP3    H137483   3.317   1.447   2.241
 5308TIP3    H237484   3.230   1.414   2.360
 5309TIP3   OH237485   0.584   2.172   0.799
 5309TIP3    H137486   0.638   2.112   0.849
 5309TIP3    H237487   0.579   2.251   0.853
 5310TIP3   OH237488   2.167   3.280   0.560
 5310TIP3    H137489   2.160   3.253   0.652
 5310TIP3    H237490   2.079   3.268   0.525
 5311TIP3   OH237491   4.869   6.489   7.151
 5311TIP3    H137492   4.851   6.413   7.207
 5311TIP3    H237493   4.933   6.457   7.087
 5312TIP3   OH237494   1.986   5.341   1.821
 5312TIP3    H137495   1.924   5.317   1.752
 5312TIP3    H237496   1.933   5.341   1.901
 5313TIP3   OH237497   6.063   6.162   0.965
 5313TIP3    H137498   6.145   6.114   0.978
 5313TIP3    H237499   6.028   6.127   0.883
 5314TIP3   OH237500   1.259   6.054   1.906
 5314TIP3    H137501   1.339   6.004   1.892
 5314TIP3    H237502   1.223   6.021   1.988
 5315TIP3   OH237503   0.488   6.463   6.322
 5315TIP3    H137504   0.538   6.542   6.301
 5315TIP3    H237505   0.404   6.496   6.354
 5316TIP3   OH237506   0.616   6.741   6.985
 5316TIP3    H137507   0.654   6.727   6.898
 5316TIP3    H237508   0.522   6.743   6.971
 5317TIP3   OH237509   3.495   4.386   0.550
 5317TIP3    H137510   3.529   4.369   0.637
 5317TIP3    H237511   3.511   4.304   0.502
 5318TIP3   OH237512   1.251   1.231   7.148
 5318TIP3    H137513   1.328   1.273   7.186
 5318TIP3    H237514   1.264   1.237   7.053
 5319TIP3   OH237515   3.040   3.165   1.676
 5319TIP3    H137516   3.126   3.132   1.703
 5319TIP3    H237517   3.055   3.199   1.588
 5320TIP3   OH237518   1.820   6.103   8.678
 5320TIP3    H137519   1.832   6.188   8.635
 5320TIP3    H237520   1.821   6.040   8.607
 5321TIP3   OH237521   2.578   1.108   0.634
 5321TIP3    H137522   2.597   1.115   0.728
 5321TIP3    H237523   2.546   1.018   0.623
 5322TIP3   OH237524   1.030   3.376   8.482
 5322TIP3    H137525   1.018   3.446   8.418
 5322TIP3    H237526   0.975   3.305   8.450
 5323TIP3   OH237527   1.376   0.804   1.235
 5323TIP3    H137528   1.353   0.719   1.197
 5323TIP3    H237529   1.350   0.868   1.169
 5324TIP3   OH237530   5.727   2.294   8.020
 5324TIP3    H137531   5.780   2.327   7.947
 5324TIP3    H237532   5.659   2.360   8.032
 5325TIP3   OH237533   3.860   0.012   8.560
 5325TIP3    H137534   3.830   6.838   8.471
 5325TIP3    H237535   3.933   6.795   8.573
 5326TIP3   OH237536   5.297   0.029   2.088
 5326TIP3    H137537   5.253   0.114   2.085
 5326TIP3    H237538   5.226   6.808   2.083
 5327TIP3   OH237539   5.301   5.030   7.383
 5327TIP3    H137540   5.235   4.963   7.401
 5327TIP3    H237541   5.338   5.005   7.298
 5328TIP3   OH237542   4.809   6.689   6.380
 5328TIP3    H137543   4.767   6.630   6.443
 5328TIP3    H237544   4.771   6.775   6.400
 5329TIP3   OH237545   1.979   2.065   1.798
 5329TIP3    H137546   1.998   2.159   1.799
 5329TIP3    H237547   1.948   2.046   1.887
 5330TIP3   OH237548   3.565   6.295   7.279
 5330TIP3    H137549   3.509   6.218   7.266
 5330TIP3    H237550   3.554   6.318   7.371
 5331TIP3   OH237551   0.597   2.145   8.587
 5331TIP3    H137552   0.550   2.181   8.662
 5331TIP3    H237553   0.536   2.082   8.548
 5332TIP3   OH237554   3.570   3.148   8.580
 5332TIP3    H137555   3.609   3.066   8.550
 5332TIP3    H237556   3.576   3.207   8.506
 5333TIP3   OH237557   5.876   3.540   1.639
 5333TIP3    H137558   5.929   3.541   1.559
 5333TIP3    H237559   5.787   3.557   1.608
 5334TIP3   OH237560   0.085   5.643   2.186
 5334TIP3    H137561   0.032   5.598   2.121
 5334TIP3    H237562   0.167   5.594   2.189
 5335TIP3   OH237563   5.645   4.896   0.141
 5335TIP3    H137564   5.658   4.808   0.106
 5335TIP3    H237565   5.655   4.954   0.066
 5336TIP3   OH237566   4.874   5.146   1.585
 5336TIP3    H137567   4.843   5.082   1.521
 5336TIP3    H237568   4.906   5.219   1.531
 5337TIP3   OH237569   6.767   0.446   0.854
 5337TIP3    H137570   6.801   0.527   0.814
 5337TIP3    H237571   6.807   0.444   0.941
 5338TIP3   OH237572   5.378   5.973   0.905
 5338TIP3    H137573   5.371   5.882   0.878
 5338TIP3    H237574   5.456   5.977   0.959
 5339TIP3   OH237575   2.110   3.934   0.102
 5339TIP3    H137576   2.043   3.998   0.128
 5339TIP3    H237577   2.060   3.861   0.066
 5340TIP3   OH237578   5.725   2.149   2.033
 5340TIP3    H137579   5.648   2.091   2.041
 5340TIP3    H237580   5.772   2.136   2.116
 5341TIP3   OH237581   5.381   0.543   7.382
 5341TIP3    H137582   5.375   0.612   7.448
 5341TIP3    H237583   5.362   0.588   7.299
 5342TIP3   OH237584   0.214   0.066   0.944
 5342TIP3    H137585   0.237   0.034   1.031
 5342TIP3    H237586   0.217   0.162   0.951
 5343TIP3   OH237587   5.798   1.520   2.845
 5343TIP3    H137588   5.820   1.470   2.766
 5343TIP3    H237589   5.748   1.459   2.899
 5344TIP3   OH237590   3.935   5.687   7.795
 5344TIP3    H137591   3.921   5.594   7.775
 5344TIP3    H237592   3.952   5.689   7.889
 5345TIP3   OH237593   3.762   6.415   1.239
 5345TIP3    H137594   3.775   6.424   1.145
 5345TIP3    H237595   3.769   6.320   1.255
 5346TIP3   OH237596   6.273   5.623   1.797
 5346TIP3    H137597   6.367   5.626   1.813
 5346TIP3    H237598   6.247   5.535   1.825
 5347TIP3   OH237599   1.738   3.972   1.496
 5347TIP3    H137600   1.833   3.960   1.496
 5347TIP3    H237601   1.724   4.049   1.551
 5348TIP3   OH237602   4.862   2.995   8.371
 5348TIP3    H137603   4.831   3.055   8.303
 5348TIP3    H237604   4.787   2.987   8.430
 5349TIP3   OH237605   0.999   6.408   8.377
 5349TIP3    H137606   0.946   6.342   8.422
 5349TIP3    H237607   1.041   6.456   8.448
 5350TIP3   OH237608   0.210   6.797   2.183
 5350TIP3    H137609   0.277   0.021   2.197
 5350TIP3    H237610   0.139   6.822   2.242
 5351TIP3   OH237611   4.185   4.911   2.576
 5351TIP3    H137612   4.274   4.881   2.562
 5351TIP3    H237613   4.146   4.845   2.634
 5352TIP3   OH237614   1.523   0.976   0.050
 5352TIP3    H137615   1.566   0.985   0.135
 5352TIP3    H237616   1.504   1.066   0.024
 5353TIP3   OH237617   0.973   0.869   7.981
 5353TIP3    H137618   0.981   0.930   8.054
 5353TIP3    H237619   0.993   0.783   8.020
 5354TIP3   OH237620   6.253   4.708   1.172
 5354TIP3    H137621   6.184   4.641   1.168
 5354TIP3    H237622   6.302   4.688   1.251
 5355TIP3   OH237623   3.117   6.322   1.949
 5355TIP3    H137624   3.042   6.352   1.897
 5355TIP3    H237625   3.081   6.254   2.006
 5356TIP3   OH237626   0.150   4.486   6.349
 5356TIP3    H137627   0.166   4.575   6.318
 5356TIP3    H237628   0.076   4.494   6.409
 5357TIP3   OH237629   1.530   6.590   7.193
 5357TIP3    H137630   1.566   6.512   7.150
 5357TIP3    H237631   1.601   6.654   7.192
 5358TIP3   OH237632   1.318   2.954   2.259
 5358TIP3    H137633   1.340   2.867   2.293
 5358TIP3    H237634   1.255   2.989   2.321
 5359TIP3   OH237635   1.119   0.059   6.339
 5359TIP3    H137636   1.024   0.056   6.325
 5359TIP3    H237637   1.140   6.818   6.380
 5360TIP3   OH237638   6.123   5.201   0.060
 5360TIP3    H137639   6.075   5.245   8.703
 5360TIP3    H237640   6.201   5.165   0.018
 5361TIP3   OH237641   6.503   1.137   7.383
 5361TIP3    H137642   6.424   1.084   7.385
 5361TIP3    H237643   6.526   1.143   7.290
 5362TIP3   OH237644   2.421   5.457   1.063
 5362TIP3    H137645   2.479   5.386   1.092
 5362TIP3    H237646   2.403   5.507   1.143
 5363TIP3   OH237647   6.472   2.987   8.658
 5363TIP3    H137648   6.397   3.019   8.709
 5363TIP3    H237649   6.472   2.892   8.673
 5364TIP3   OH237650   5.923   4.041   0.727
 5364TIP3    H137651   6.015   4.034   0.701
 5364TIP3    H237652   5.881   4.089   0.657
 5365TIP3   OH237653   4.025   0.634   0.559
 5365TIP3    H137654   4.046   0.645   0.466
 5365TIP3    H237655   3.958   0.700   0.576
 5366TIP3   OH237656   1.710   3.550   1.881
 5366TIP3    H137657   1.661   3.550   1.799
 5366TIP3    H237658   1.643   3.541   1.949
 5367TIP3   OH237659   0.451   4.168   1.305
 5367TIP3    H137660   0.388   4.229   1.267
 5367TIP3    H237661   0.405   4.084   1.305
 5368TIP3   OH237662   4.869   3.169   1.063
 5368TIP3    H137663   4.793   3.117   1.089
 5368TIP3    H237664   4.937   3.146   1.127
 5369TIP3   OH237665   0.786   3.923   6.730
 5369TIP3    H137666   0.814   3.856   6.668
 5369TIP3    H237667   0.837   4.001   6.706
 5370TIP3   OH237668   5.797   0.364   6.872
 5370TIP3    H137669   5.715   0.315   6.877
 5370TIP3    H237670   5.825   0.353   6.781
 5371TIP3   OH237671   1.095   3.385   7.381
 5371TIP3    H137672   1.067   3.409   7.470
 5371TIP3    H237673   1.034   3.431   7.323
 5372TIP3   OH237674   6.192   3.133   7.641
 5372TIP3    H137675   6.212   3.178   7.723
 5372TIP3    H237676   6.195   3.202   7.575
 5373TIP3   OH237677   0.687   1.906   8.697
 5373TIP3    H137678   0.750   1.911   0.056
 5373TIP3    H237679   0.637   1.987   8.704
 5374TIP3   OH237680   6.751   6.184   0.340
 5374TIP3    H137681   6.719   6.136   0.417
 5374TIP3    H237682   6.744   6.122   0.268
 5375TIP3   OH237683   3.500   2.568   8.662
 5375TIP3    H137684   3.453   2.543   0.029
 5375TIP3    H237685   3.460   2.514   8.593
 5376TIP3   OH237686   5.386   6.562   0.608
 5376TIP3    H137687   5.340   6.571   0.525
 5376TIP3    H237688   5.317   6.551   0.673
 5377TIP3   OH237689   4.278   5.477   0.870
 5377TIP3    H137690   4.367   5.498   0.898
 5377TIP3    H237691   4.248   5.555   0.824
 5378TIP3   OH237692   4.603   3.753   8.318
 5378TIP3    H137693   4.518   3.759   8.361
 5378TIP3    H237694   4.582   3.739   8.225
 5379TIP3   OH237695   2.586   2.379   6.636
 5379TIP3    H137696   2.637   2.459   6.631
 5379TIP3    H237697   2.501   2.402   6.600
 5380TIP3   OH237698   0.096   4.913   0.850
 5380TIP3    H137699   0.000   4.916   0.848
 5380TIP3    H237700   0.122   4.915   0.758
 5381TIP3   OH237701   3.466   4.446   2.144
 5381TIP3    H137702   3.474   4.444   2.239
 5381TIP3    H237703   3.398   4.381   2.124
 5382TIP3   OH237704   2.801   4.831   2.035
 5382TIP3    H137705   2.804   4.917   2.078
 5382TIP3    H237706   2.893   4.803   2.032
 5383TIP3   OH237707   2.462   2.990   6.390
 5383TIP3    H137708   2.526   2.923   6.369
 5383TIP3    H237709   2.452   3.039   6.308
 5384TIP3   OH237710   2.969   4.122   0.818
 5384TIP3    H137711   3.051   4.128   0.769
 5384TIP3    H237712   2.948   4.213   0.840
 5385TIP3   OH237713   5.539   2.731   7.344
 5385TIP3    H137714   5.628   2.733   7.309
 5385TIP3    H237715   5.503   2.817   7.323
 5386TIP3   OH237716   2.485   2.259   0.987
 5386TIP3    H137717   2.535   2.178   0.992
 5386TIP3    H237718   2.548   2.325   0.960
 5387TIP3   OH237719   4.080   5.503   1.800
 5387TIP3    H137720   4.028   5.479   1.724
 5387TIP3    H237721   4.017   5.512   1.871
 5388TIP3   OH237722   2.188   4.042   7.928
 5388TIP3    H137723   2.095   4.036   7.907
 5388TIP3    H237724   2.195   4.003   8.015
 5389TIP3   OH237725   2.963   4.078   7.896
 5389TIP3    H137726   3.002   4.069   7.809
 5389TIP3    H237727   2.931   4.168   7.898
 5390TIP3   OH237728   5.633   5.749   7.750
 5390TIP3    H137729   5.563   5.704   7.704
 5390TIP3    H237730   5.602   5.838   7.761
 5391TIP3   OH237731   2.996   6.413   7.752
 5391TIP3    H137732   2.953   6.378   7.673
 5391TIP3    H237733   2.933   6.396   7.822
 5392TIP3   OH237734   4.382   2.394   1.821
 5392TIP3    H137735   4.455   2.456   1.830
 5392TIP3    H237736   4.335   2.425   1.744
 5393TIP3   OH237737   5.061   4.380   1.325
 5393TIP3    H137738   5.012   4.366   1.244
 5393TIP3    H237739   5.106   4.297   1.340
 5394TIP3   OH237740   3.607   1.070   0.840
 5394TIP3    H137741   3.672   1.012   0.803
 5394TIP3    H237742   3.656   1.127   0.900
 5395TIP3   OH237743   0.250   0.332   0.712
 5395TIP3    H137744   0.334   0.352   0.754
 5395TIP3    H237745   0.267   0.342   0.619
 5396TIP3   OH237746   6.684   3.476   0.873
 5396TIP3    H137747   6.604   3.424   0.864
 5396TIP3    H237748   6.715   3.456   0.962
 5397TIP3   OH237749   3.610   1.413   7.743
 5397TIP3    H137750   3.538   1.356   7.770
 5397TIP3    H237751   3.626   1.468   7.819
 5398TIP3   OH237752   2.313   3.280   7.291
 5398TIP3    H137753   2.281   3.217   7.226
 5398TIP3    H237754   2.303   3.365   7.248
 5399TIP3   OH237755   4.005   0.561   2.438
 5399TIP3    H137756   4.057   0.518   2.370
 5399TIP3    H237757   4.053   0.545   2.519
 5400TIP3   OH237758   6.624   6.171   7.293
 5400TIP3    H137759   6.532   6.167   7.268
 5400TIP3    H237760   6.623   6.181   7.388
 5401TIP3   OH237761   3.647   5.670   0.520
 5401TIP3    H137762   3.714   5.606   0.546
 5401TIP3    H237763   3.584   5.668   0.591
 5402TIP3   OH237764   4.178   6.421   8.001
 5402TIP3    H137765   4.214   6.443   7.915
 5402TIP3    H237766   4.239   6.458   8.064
 5403TIP3   OH237767   6.268   3.249   2.016
 5403TIP3    H137768   6.186   3.238   1.967
 5403TIP3    H237769   6.246   3.225   2.106
 5404TIP3   OH237770   2.354   4.790   0.025
 5404TIP3    H137771   2.426   4.754   8.685
 5404TIP3    H237772   2.371   4.884   0.028
 5405TIP3   OH237773   3.551   1.502   1.331
 5405TIP3    H137774   3.464   1.465   1.318
 5405TIP3    H237775   3.542   1.556   1.410
 5406TIP3   OH237776   6.078   2.632   1.490
 5406TIP3    H137777   5.997   2.641   1.439
 5406TIP3    H237778   6.084   2.538   1.508
 5407TIP3   OH237779   2.282   0.996   7.534
 5407TIP3    H137780   2.320   0.954   7.456
 5407TIP3    H237781   2.346   0.979   7.603
 5408TIP3   OH237782   6.664   2.682   1.504
 5408TIP3    H137783   6.741   2.634   1.472
 5408TIP3    H237784   6.665   2.764   1.454
 5409TIP3   OH237785   2.889   0.206   8.169
 5409TIP3    H137786   2.892   0.172   8.258
 5409TIP3    H237787   2.886   0.128   8.114
 5410TIP3   OH237788   3.709   1.273   0.985
 5410TIP3    H137789   3.700   1.360   0.945
 5410TIP3    H237790   3.723   1.291   1.078
 5411TIP3   OH237791   0.759   2.751   1.256
 5411TIP3    H137792   0.801   2.804   1.189
 5411TIP3    H237793   0.692   2.808   1.294
 5412TIP3   OH237794   4.669   4.306   0.984
 5412TIP3    H137795   4.609   4.359   0.932
 5412TIP3    H237796   4.698   4.237   0.925
 5413TIP3   OH237797   4.302   1.849   8.653
 5413TIP3    H137798   4.255   1.932   8.667
 5413TIP3    H237799   4.262   1.813   8.574
 5414TIP3   OH237800   0.038   3.736   6.656
 5414TIP3    H137801   6.808   3.718   6.715
 5414TIP3    H237802   0.053   3.654   6.610
 5415TIP3   OH237803   5.611   0.032   1.727
 5415TIP3    H137804   5.658   0.115   1.734
 5415TIP3    H237805   5.518   0.057   1.728
 5416TIP3   OH237806   3.031   1.104   8.270
 5416TIP3    H137807   2.974   1.097   8.193
 5416TIP3    H237808   2.972   1.095   8.345
 5417TIP3   OH237809   6.518   4.228   1.739
 5417TIP3    H137810   6.489   4.186   1.819
 5417TIP3    H237811   6.511   4.322   1.757
 5418TIP3   OH237812   6.756   6.509   7.619
 5418TIP3    H137813   6.821   6.548   7.677
 5418TIP3    H237814   6.672   6.532   7.657
 5419TIP3   OH237815   6.258   3.827   1.379
 5419TIP3    H137816   6.306   3.791   1.304
 5419TIP3    H237817   6.263   3.922   1.368
 5420TIP3   OH237818   4.700   2.223   6.507
 5420TIP3    H137819   4.673   2.299   6.454
 5420TIP3    H237820   4.638   2.222   6.580
 5421TIP3   OH237821   0.820   1.849   0.239
 5421TIP3    H137822   0.902   1.828   0.195
 5421TIP3    H237823   0.788   1.764   0.272
 5422TIP3   OH237824   1.901   5.285   7.748
 5422TIP3    H137825   1.953   5.332   7.683
 5422TIP3    H237826   1.925   5.193   7.735
 5423TIP3   OH237827   6.315   1.426   1.854
 5423TIP3    H137828   6.242   1.379   1.813
 5423TIP3    H237829   6.273   1.490   1.911
 5424TIP3   OH237830   1.413   6.516   1.657
 5424TIP3    H137831   1.432   6.511   1.564
 5424TIP3    H237832   1.327   6.476   1.667
 5425TIP3   OH237833   4.715   0.600   0.353
 5425TIP3    H137834   4.696   0.583   0.446
 5425TIP3    H237835   4.792   0.547   0.334
 5426TIP3   OH237836   2.739   1.949   1.607
 5426TIP3    H137837   2.781   1.896   1.674
 5426TIP3    H237838   2.739   1.894   1.529
 5427TIP3   OH237839   3.832   4.585   6.229
 5427TIP3    H137840   3.860   4.494   6.219
 5427TIP3    H237841   3.852   4.606   6.321
 5428TIP3   OH237842   5.917   1.690   0.210
 5428TIP3    H137843   5.906   1.774   0.255
 5428TIP3    H237844   5.974   1.639   0.267
 5429TIP3   OH237845   5.364   2.862   8.456
 5429TIP3    H137846   5.326   2.780   8.487
 5429TIP3    H237847   5.304   2.930   8.487
 5430TIP3   OH237848   5.794   6.175   8.702
 5430TIP3    H137849   5.877   6.175   8.655
 5430TIP3    H237850   5.744   6.247   8.662
 5431TIP3   OH237851   0.424   3.473   1.783
 5431TIP3    H137852   0.495   3.421   1.744
 5431TIP3    H237853   0.458   3.500   1.868
 5432TIP3   OH237854   3.156   2.255   7.349
 5432TIP3    H137855   3.113   2.173   7.374
 5432TIP3    H237856   3.193   2.237   7.263
 5433TIP3   OH237857   5.123   2.374   0.641
 5433TIP3    H137858   5.193   2.335   0.589
 5433TIP3    H237859   5.115   2.317   0.717
 5434TIP3   OH237860   5.856   3.141   8.219
 5434TIP3    H137861   5.770   3.102   8.238
 5434TIP3    H237862   5.842   3.236   8.228
 5435TIP3   OH237863   4.031   3.187   7.748
 5435TIP3    H137864   3.973   3.120   7.712
 5435TIP3    H237865   4.012   3.265   7.696
 5436TIP3   OH237866   5.114   6.554   1.831
 5436TIP3    H137867   5.171   6.527   1.759
 5436TIP3    H237868   5.025   6.551   1.793
 5437TIP3   OH237869   0.503   1.068   7.096
 5437TIP3    H137870   0.588   1.044   7.132
 5437TIP3    H237871   0.521   1.096   7.007
 5438TIP3   OH237872   2.773   5.905   7.346
 5438TIP3    H137873   2.727   5.943   7.421
 5438TIP3    H237874   2.729   5.940   7.269
 5439TIP3   OH237875   1.306   3.170   6.796
 5439TIP3    H137876   1.358   3.157   6.716
 5439TIP3    H237877   1.217   3.187   6.765
 5440TIP3   OH237878   3.330   4.144   6.722
 5440TIP3    H137879   3.411   4.099   6.698
 5440TIP3    H237880   3.261   4.091   6.681
 5441TIP3   OH237881   5.002   5.346   8.700
 5441TIP3    H137882   4.971   5.292   0.059
 5441TIP3    H237883   4.952   5.427   8.708
 5442TIP3   OH237884   6.332   3.275   8.446
 5442TIP3    H137885   6.267   3.294   8.514
 5442TIP3    H237886   6.325   3.349   8.385
 5443TIP3   OH237887   5.059   5.177   8.144
 5443TIP3    H137888   5.121   5.104   8.134
 5443TIP3    H237889   4.977   5.144   8.107
 5444TIP3   OH237890   3.084   6.485   8.359
 5444TIP3    H137891   3.113   6.403   8.397
 5444TIP3    H237892   3.161   6.520   8.315
 5445TIP3   OH237893   4.609   0.505   7.582
 5445TIP3    H137894   4.530   0.554   7.607
 5445TIP3    H237895   4.580   0.414   7.577
 5446TIP3   OH237896   0.972   4.455   8.208
 5446TIP3    H137897   0.906   4.386   8.203
 5446TIP3    H237898   0.967   4.499   8.124
 5447TIP3   OH237899   1.510   1.915   1.553
 5447TIP3    H137900   1.587   1.921   1.610
 5447TIP3    H237901   1.526   1.837   1.500
 5448TIP3   OH237902   4.195   6.062   8.079
 5448TIP3    H137903   4.217   6.155   8.083
 5448TIP3    H237904   4.127   6.056   8.012
 5449TIP3   OH237905   1.826   5.558   2.088
 5449TIP3    H137906   1.766   5.502   2.137
 5449TIP3    H237907   1.772   5.630   2.056
 5450TIP3   OH237908   4.097   4.322   0.259
 5450TIP3    H137909   4.085   4.414   0.235
 5450TIP3    H237910   4.013   4.281   0.237
 5451TIP3   OH237911   1.705   5.658   1.730
 5451TIP3    H137912   1.689   5.723   1.798
 5451TIP3    H237913   1.640   5.589   1.747
 5452TIP3   OH237914   2.134   1.894   0.469
 5452TIP3    H137915   2.193   1.832   0.512
 5452TIP3    H237916   2.154   1.978   0.510
 5453TIP3   OH237917   5.382   1.620   7.449
 5453TIP3    H137918   5.429   1.694   7.409
 5453TIP3    H237919   5.375   1.555   7.379
 5454TIP3   OH237920   0.620   5.775   1.399
 5454TIP3    H137921   0.683   5.846   1.408
 5454TIP3    H237922   0.661   5.713   1.339
 5455TIP3   OH237923   1.286   1.338   1.954
 5455TIP3    H137924   1.268   1.420   2.001
 5455TIP3    H237925   1.380   1.342   1.935
 5456TIP3   OH237926   5.303   6.253   2.419
 5456TIP3    H137927   5.370   6.203   2.373
 5456TIP3    H237928   5.240   6.188   2.449
 5457TIP3   OH237929   1.518   6.175   7.924
 5457TIP3    H137930   1.530   6.245   7.988
 5457TIP3    H237931   1.527   6.094   7.975
 5458TIP3   OH237932   2.039   1.469   0.392
 5458TIP3    H137933   2.019   1.384   0.432
 5458TIP3    H237934   2.029   1.531   0.463
 5459TIP3   OH237935   0.020   5.732   6.167
 5459TIP3    H137936   6.819   5.789   6.231
 5459TIP3    H237937   0.033   5.788   6.091
 5460TIP3   OH237938   4.859   4.012   7.362
 5460TIP3    H137939   4.916   4.086   7.386
 5460TIP3    H237940   4.858   4.012   7.267
 5461TIP3   OH237941   2.424   1.469   8.462
 5461TIP3    H137942   2.367   1.450   8.537
 5461TIP3    H237943   2.507   1.426   8.485
 5462TIP3   OH237944   6.829   3.203   0.599
 5462TIP3    H137945   6.734   3.212   0.605
 5462TIP3    H237946   0.007   3.130   0.658
 5463TIP3   OH237947   6.760   5.691   1.658
 5463TIP3    H137948   6.800   5.604   1.665
 5463TIP3    H237949   6.727   5.694   1.568
 5464TIP3   OH237950   3.075   1.737   1.782
 5464TIP3    H137951   3.009   1.672   1.759
 5464TIP3    H237952   3.026   1.817   1.799
 5465TIP3   OH237953   4.315   5.632   0.238
 5465TIP3    H137954   4.379   5.566   0.264
 5465TIP3    H237955   4.348   5.667   0.155
 5466TIP3   OH237956   5.693   6.035   7.163
 5466TIP3    H137957   5.776   6.013   7.120
 5466TIP3    H237958   5.701   6.128   7.183
 5467TIP3   OH237959   4.833   3.497   7.759
 5467TIP3    H137960   4.743   3.480   7.732
 5467TIP3    H237961   4.832   3.588   7.791
 5468TIP3   OH237962   4.548   5.543   6.863
 5468TIP3    H137963   4.644   5.553   6.863
 5468TIP3    H237964   4.518   5.607   6.799
 5469TIP3   OH237965   2.721   4.440   1.495
 5469TIP3    H137966   2.787   4.452   1.426
 5469TIP3    H237967   2.771   4.440   1.576
 5470TIP3   OH237968   3.321   4.522   0.764
 5470TIP3    H137969   3.314   4.431   0.790
 5470TIP3    H237970   3.380   4.521   0.689
 5471TIP3   OH237971   5.912   5.355   7.293
 5471TIP3    H137972   5.861   5.295   7.347
 5471TIP3    H237973   5.959   5.409   7.356
 5472TIP3   OH237974   2.860   6.265   7.974
 5472TIP3    H137975   2.812   6.278   8.055
 5472TIP3    H237976   2.930   6.204   7.996
 5473TIP3   OH237977   2.471   6.727   1.844
 5473TIP3    H137978   2.527   6.666   1.892
 5473TIP3    H237979   2.530   6.769   1.781
 5474TIP3   OH237980   5.229   3.667   0.163
 5474TIP3    H137981   5.181   3.594   0.202
 5474TIP3    H237982   5.164   3.737   0.153
 5475TIP3   OH237983   4.281   5.033   1.589
 5475TIP3    H137984   4.325   5.118   1.595
 5475TIP3    H237985   4.210   5.048   1.525
 5476TIP3   OH237986   5.049   5.235   0.981
 5476TIP3    H137987   4.973   5.183   1.007
 5476TIP3    H237988   5.021   5.278   0.899
 5477TIP3   OH237989   3.284   6.491   0.076
 5477TIP3    H137990   3.275   6.396   0.077
 5477TIP3    H237991   3.335   6.510   8.711
 5478TIP3   OH237992   3.762   1.857   1.325
 5478TIP3    H137993   3.846   1.813   1.338
 5478TIP3    H237994   3.739   1.892   1.411
 5479TIP3   OH237995   4.657   1.884   7.700
 5479TIP3    H137996   4.709   1.814   7.740
 5479TIP3    H237997   4.713   1.961   7.707
 5480TIP3   OH237998   6.570   0.629   1.890
 5480TIP3    H137999   6.648   0.657   1.842
 5480TIP3    H238000   6.524   0.571   1.829
 5481TIP3   OH238001   0.635   2.744   0.431
 5481TIP3    H138002   0.561   2.711   0.380
 5481TIP3    H238003   0.681   2.803   0.371
 5482TIP3   OH238004   2.316   0.310   7.853
 5482TIP3    H138005   2.313   0.233   7.910
 5482TIP3    H238006   2.391   0.360   7.885
 5483TIP3   OH238007   3.161   4.020   0.582
 5483TIP3    H138008   3.083   3.997   0.532
 5483TIP3    H238009   3.154   3.969   0.663
 5484TIP3   OH238010   6.031   6.559   7.265
 5484TIP3    H138011   6.108   6.503   7.272
 5484TIP3    H238012   5.979   6.521   7.195
 5485TIP3   OH238013   6.662   6.313   8.612
 5485TIP3    H138014   6.755   6.300   8.594
 5485TIP3    H238015   6.619   6.289   8.530
 5486TIP3   OH238016   4.703   0.747   7.355
 5486TIP3    H138017   4.705   0.683   7.284
 5486TIP3    H238018   4.750   0.704   7.427
 5487TIP3   OH238019   4.363   2.005   7.225
 5487TIP3    H138020   4.345   2.035   7.314
 5487TIP3    H238021   4.377   1.911   7.233
 5488TIP3   OH238022   4.770   1.534   0.662
 5488TIP3    H138023   4.712   1.554   0.588
 5488TIP3    H238024   4.829   1.609   0.667
 5489TIP3   OH238025   6.525   4.395   0.922
 5489TIP3    H138026   6.436   4.401   0.957
 5489TIP3    H238027   6.538   4.478   0.876
 5490TIP3   OH238028   3.468   4.762   8.642
 5490TIP3    H138029   3.468   4.857   8.640
 5490TIP3    H238030   3.375   4.738   8.642
 5491TIP3   OH238031   4.044   2.812   7.722
 5491TIP3    H138032   3.991   2.770   7.655
 5491TIP3    H238033   4.023   2.765   7.803
 5492TIP3   OH238034   4.683   2.766   1.352
 5492TIP3    H138035   4.728   2.791   1.272
 5492TIP3    H238036   4.591   2.786   1.336
 5493TIP3   OH238037   2.548   2.598   8.040
 5493TIP3    H138038   2.488   2.547   8.094
 5493TIP3    H238039   2.634   2.559   8.055
 5494TIP3   OH238040   4.173   4.422   8.101
 5494TIP3    H138041   4.247   4.367   8.126
 5494TIP3    H238042   4.194   4.451   8.012
 5495TIP3   OH238043   0.440   0.289   0.451
 5495TIP3    H138044   0.468   0.260   0.538
 5495TIP3    H238045   0.521   0.320   0.410
 5496TIP3   OH238046   1.348   2.130   1.072
 5496TIP3    H138047   1.259   2.147   1.103
 5496TIP3    H238048   1.344   2.042   1.036
 5497TIP3   OH238049   5.895   6.455   7.729
 5497TIP3    H138050   5.980   6.462   7.772
 5497TIP3    H238051   5.915   6.446   7.637
 5498TIP3   OH238052   0.059   1.316   8.310
 5498TIP3    H138053   0.082   1.240   8.256
 5498TIP3    H238054   0.024   1.278   8.391
 5499TIP3   OH238055   3.914   4.846   8.453
 5499TIP3    H138056   3.873   4.932   8.449
 5499TIP3    H238057   3.853   4.792   8.502
 5500TIP3   OH238058   3.441   5.681   6.365
 5500TIP3    H138059   3.509   5.745   6.345
 5500TIP3    H238060   3.376   5.730   6.416
 5501TIP3   OH238061   0.431   6.602   1.427
 5501TIP3    H138062   0.388   6.573   1.346
 5501TIP3    H238063   0.520   6.568   1.420
 5502TIP3   OH238064   1.064   4.635   0.869
 5502TIP3    H138065   0.971   4.653   0.887
 5502TIP3    H238066   1.108   4.718   0.888
 5503TIP3   OH238067   3.694   4.701   1.818
 5503TIP3    H138068   3.753   4.679   1.890
 5503TIP3    H238069   3.691   4.797   1.819
 5504TIP3   OH238070   0.875   1.919   7.998
 5504TIP3    H138071   0.895   1.916   8.092
 5504TIP3    H238072   0.908   1.837   7.963
 5505TIP3   OH238073   5.394   5.170   8.270
 5505TIP3    H138074   5.329   5.179   8.201
 5505TIP3    H238075   5.381   5.081   8.304
 5506TIP3   OH238076   1.369   6.647   0.092
 5506TIP3    H138077   1.456   6.613   0.116
 5506TIP3    H238078   1.340   6.694   0.170
 5507TIP3   OH238079   6.388   1.446   1.511
 5507TIP3    H138080   6.449   1.466   1.583
 5507TIP3    H238081   6.339   1.527   1.498
 5508TIP3   OH238082   4.517   1.339   0.667
 5508TIP3    H138083   4.490   1.259   0.621
 5508TIP3    H238084   4.560   1.392   0.601
 5509TIP3   OH238085   5.905   4.864   7.089
 5509TIP3    H138086   5.930   4.855   7.181
 5509TIP3    H238087   5.960   4.935   7.056
 5510TIP3   OH238088   2.706   6.423   7.072
 5510TIP3    H138089   2.740   6.374   6.998
 5510TIP3    H238090   2.782   6.440   7.128
 5511TIP3   OH238091   5.656   5.910   7.408
 5511TIP3    H138092   5.570   5.874   7.385
 5511TIP3    H238093   5.688   5.948   7.326
 5512TIP3   OH238094   4.730   2.107   7.492
 5512TIP3    H138095   4.658   2.050   7.518
 5512TIP3    H238096   4.741   2.168   7.565
 5513TIP3   OH238097   3.942   4.869   1.433
 5513TIP3    H138098   3.856   4.902   1.407
 5513TIP3    H238099   3.960   4.911   1.517
 5514TIP3   OH238100   4.051   4.813   0.139
 5514TIP3    H138101   4.083   4.882   0.081
 5514TIP3    H238102   4.087   4.732   0.104
 5515TIP3   OH238103   4.499   3.997   1.563
 5515TIP3    H138104   4.537   4.041   1.487
 5515TIP3    H238105   4.497   4.064   1.632
 5516TIP3   OH238106   3.572   4.349   7.872
 5516TIP3    H138107   3.486   4.333   7.912
 5516TIP3    H238108   3.567   4.308   7.786
 5517TIP3   OH238109   4.980   1.796   1.089
 5517TIP3    H138110   4.993   1.704   1.068
 5517TIP3    H238111   4.945   1.796   1.178
 5518TIP3   OH238112   6.683   4.649   0.504
 5518TIP3    H138113   6.603   4.701   0.510
 5518TIP3    H238114   6.739   4.682   0.575
 5519TIP3   OH238115   3.911   2.413   7.136
 5519TIP3    H138116   3.825   2.435   7.172
 5519TIP3    H238117   3.891   2.367   7.054
 5520TIP3   OH238118   2.821   4.841   1.627
 5520TIP3    H138119   2.763   4.824   1.701
 5520TIP3    H238120   2.768   4.893   1.567
 5521TIP3   OH238121   5.528   0.114   2.248
 5521TIP3    H138122   5.606   0.059   2.241
 5521TIP3    H238123   5.455   0.054   2.230
 5522TIP3   OH238124   1.875   2.671   1.587
 5522TIP3    H138125   1.805   2.608   1.574
 5522TIP3    H238126   1.836   2.755   1.563
 5523TIP3   OH238127   2.174   1.115   6.882
 5523TIP3    H138128   2.126   1.071   6.812
 5523TIP3    H238129   2.106   1.151   6.939
 5524TIP3   OH238130   1.895   2.677   8.482
 5524TIP3    H138131   1.905   2.685   8.577
 5524TIP3    H238132   1.941   2.752   8.446
 5525TIP3   OH238133   1.527   2.361   1.768
 5525TIP3    H138134   1.547   2.277   1.727
 5525TIP3    H238135   1.507   2.339   1.859
 5526TIP3   OH238136   5.175   0.649   1.713
 5526TIP3    H138137   5.105   0.655   1.779
 5526TIP3    H238138   5.138   0.693   1.636
 5527TIP3   OH238139   4.532   3.186   7.127
 5527TIP3    H138140   4.514   3.188   7.033
 5527TIP3    H238141   4.508   3.097   7.154
 5528TIP3   OH238142   2.234   0.648   0.944
 5528TIP3    H138143   2.242   0.590   1.020
 5528TIP3    H238144   2.277   0.729   0.970
 5529TIP3   OH238145   6.061   0.641   7.674
 5529TIP3    H138146   6.098   0.713   7.725
 5529TIP3    H238147   5.971   0.632   7.707
 5530TIP3   OH238148   1.427   0.766   0.606
 5530TIP3    H138149   1.380   0.830   0.552
 5530TIP3    H238150   1.421   0.685   0.556
 5531TIP3   OH238151   4.347   0.520   7.428
 5531TIP3    H138152   4.281   0.476   7.374
 5531TIP3    H238153   4.417   0.543   7.367
 5532TIP3   OH238154   5.887   0.215   1.079
 5532TIP3    H138155   5.928   0.253   1.157
 5532TIP3    H238156   5.876   0.288   1.019
 5533TIP3   OH238157   5.208   5.445   7.028
 5533TIP3    H138158   5.301   5.422   7.021
 5533TIP3    H238159   5.180   5.455   6.937
 5534TIP3   OH238160   3.789   3.346   0.782
 5534TIP3    H138161   3.820   3.256   0.769
 5534TIP3    H238162   3.786   3.357   0.877
 5535TIP3   OH238163   2.023   2.043   7.812
 5535TIP3    H138164   2.002   1.971   7.753
 5535TIP3    H238165   2.118   2.038   7.822
 5536TIP3   OH238166   1.957   4.516   7.599
 5536TIP3    H138167   1.883   4.513   7.538
 5536TIP3    H238168   1.923   4.476   7.679
 5537TIP3   OH238169   1.078   1.880   7.294
 5537TIP3    H138170   1.116   1.968   7.291
 5537TIP3    H238171   1.130   1.829   7.232
 5538TIP3   OH238172   3.511   0.267   0.054
 5538TIP3    H138173   3.448   0.228   0.115
 5538TIP3    H238174   3.482   0.238   8.681
 5539TIP3   OH238175   1.256   2.461   1.066
 5539TIP3    H138176   1.199   2.533   1.094
 5539TIP3    H238177   1.201   2.383   1.072
 5540TIP3   OH238178   0.259   2.689   0.038
 5540TIP3    H138179   0.253   2.641   0.120
 5540TIP3    H238180   0.176   2.735   0.031
 5541TIP3   OH238181   0.146   4.876   0.367
 5541TIP3    H138182   0.061   4.919   0.360
 5541TIP3    H238183   0.141   4.803   0.305
 5542TIP3   OH238184   3.270   5.705   7.814
 5542TIP3    H138185   3.307   5.619   7.833
 5542TIP3    H238186   3.199   5.715   7.877
 5543TIP3   OH238187   1.659   3.586   6.817
 5543TIP3    H138188   1.591   3.545   6.763
 5543TIP3    H238189   1.682   3.666   6.771
 5544TIP3   OH238190   1.124   2.682   1.154
 5544TIP3    H138191   1.057   2.728   1.104
 5544TIP3    H238192   1.108   2.705   1.245
 5545TIP3   OH238193   6.680   1.722   7.496
 5545TIP3    H138194   6.636   1.805   7.518
 5545TIP3    H238195   6.608   1.658   7.491
 5546TIP3   OH238196   5.626   2.461   1.793
 5546TIP3    H138197   5.657   2.540   1.750
 5546TIP3    H238198   5.599   2.490   1.880
 5547TIP3   OH238199   2.747   1.813   1.369
 5547TIP3    H138200   2.826   1.761   1.384
 5547TIP3    H238201   2.748   1.833   1.276
 5548TIP3   OH238202   5.693   3.097   7.670
 5548TIP3    H138203   5.625   3.100   7.603
 5548TIP3    H238204   5.704   3.188   7.698
 5549TIP3   OH238205   1.047   2.792   8.024
 5549TIP3    H138206   0.956   2.788   7.993
 5549TIP3    H238207   1.070   2.884   8.018
 5550TIP3   OH238208   4.622   2.474   6.411
 5550TIP3    H138209   4.540   2.514   6.384
 5550TIP3    H238210   4.684   2.547   6.414
 5551TIP3   OH238211   5.501   4.221   7.348
 5551TIP3    H138212   5.506   4.176   7.433
 5551TIP3    H238213   5.588   4.259   7.337
 5552TIP3   OH238214   6.794   4.812   6.669
 5552TIP3    H138215   6.817   4.902   6.646
 5552TIP3    H238216   6.698   4.809   6.665
 5553TIP3   OH238217   1.049   4.312   0.304
 5553TIP3    H138218   1.076   4.280   0.390
 5553TIP3    H238219   1.014   4.399   0.321
 5554TIP3   OH238220   4.265   5.295   2.371
 5554TIP3    H138221   4.298   5.205   2.373
 5554TIP3    H238222   4.174   5.287   2.397
 5555TIP3   OH238223   6.320   1.643   2.039
 5555TIP3    H138224   6.318   1.713   2.104
 5555TIP3    H238225   6.402   1.596   2.057
 5556TIP3   OH238226   0.383   5.892   7.548
 5556TIP3    H138227   0.401   5.983   7.574
 5556TIP3    H238228   0.313   5.864   7.605
 5557TIP3   OH238229   0.104   6.147   7.591
 5557TIP3    H138230   0.160   6.168   7.665
 5557TIP3    H238231   0.018   6.128   7.630
 5558TIP3   OH238232   5.477   5.407   6.561
 5558TIP3    H138233   5.504   5.318   6.537
 5558TIP3    H238234   5.520   5.463   6.496
 5559TIP3   OH238235   1.477   3.031   8.479
 5559TIP3    H138236   1.506   3.060   8.565
 5559TIP3    H238237   1.557   3.015   8.430
 5560TIP3   OH238238   6.613   3.974   7.291
 5560TIP3    H138239   6.563   3.896   7.312
 5560TIP3    H238240   6.624   4.020   7.374
 5561TIP3   OH238241   0.167   6.811   0.053
 5561TIP3    H138242   0.110   6.752   0.004
 5561TIP3    H238243   0.208   6.755   0.119
 5562TIP3   OH238244   2.218   3.720   0.899
 5562TIP3    H138245   2.199   3.720   0.993
 5562TIP3    H238246   2.306   3.683   0.892
 5563TIP3   OH238247   3.588   0.252   6.419
 5563TIP3    H138248   3.668   0.266   6.470
 5563TIP3    H238249   3.557   0.341   6.399
 5564TIP3   OH238250   3.283   3.024   0.931
 5564TIP3    H138251   3.304   2.997   0.842
 5564TIP3    H238252   3.297   2.946   0.985
 5565TIP3   OH238253   0.003   5.830   7.551
 5565TIP3    H138254   6.777   5.777   7.511
 5565TIP3    H238255   6.800   5.889   7.610
 5566TIP3   OH238256   4.262   4.275   0.514
 5566TIP3    H138257   4.210   4.304   0.439
 5566TIP3    H238258   4.348   4.254   0.477
 5567TIP3   OH238259   1.316   1.778   8.602
 5567TIP3    H138260   1.298   1.688   8.574
 5567TIP3    H238261   1.361   1.769   8.686
 5568TIP3   OH238262   6.814   5.090   7.796
 5568TIP3    H138263   6.744   5.027   7.779
 5568TIP3    H238264   6.771   5.160   7.844
 5569TIP3   OH238265   1.888   5.118   8.483
 5569TIP3    H138266   1.936   5.172   8.545
 5569TIP3    H238267   1.825   5.178   8.443
 5570TIP3   OH238268   3.714   2.954   8.428
 5570TIP3    H138269   3.653   2.925   8.361
 5570TIP3    H238270   3.757   3.031   8.389
 5571TIP3   OH238271   5.301   0.516   0.658
 5571TIP3    H138272   5.237   0.572   0.615
 5571TIP3    H238273   5.294   0.432   0.614
 5572TIP3   OH238274   1.089   0.360   7.838
 5572TIP3    H138275   1.013   0.398   7.793
 5572TIP3    H238276   1.162   0.374   7.778
 5573TIP3   OH238277   3.640   3.941   1.617
 5573TIP3    H138278   3.679   4.025   1.641
 5573TIP3    H238279   3.696   3.876   1.659
 5574TIP3   OH238280   4.303   4.119   0.263
 5574TIP3    H138281   4.232   4.183   0.253
 5574TIP3    H238282   4.291   4.058   0.190
 5575TIP3   OH238283   6.258   4.318   8.639
 5575TIP3    H138284   6.165   4.308   8.618
 5575TIP3    H238285   6.287   4.230   8.662
 5576TIP3   OH238286   0.823   4.168   0.156
 5576TIP3    H138287   0.738   4.177   0.113
 5576TIP3    H238288   0.876   4.238   0.118
 5577TIP3   OH238289   4.777   3.934   7.063
 5577TIP3    H138290   4.774   3.844   7.095
 5577TIP3    H238291   4.762   3.927   6.969
 5578TIP3   OH238292   0.013   5.403   8.386
 5578TIP3    H138293   6.809   5.390   8.303
 5578TIP3    H238294   0.103   5.425   8.359
 5579TIP3   OH238295   6.205   4.321   7.944
 5579TIP3    H138296   6.262   4.331   7.868
 5579TIP3    H238297   6.262   4.335   8.019
 5580TIP3   OH238298   1.380   6.769   7.578
 5580TIP3    H138299   1.363   0.019   7.564
 5580TIP3    H238300   1.429   6.741   7.500
 5581TIP3   OH238301   2.412   2.375   1.554
 5581TIP3    H138302   2.499   2.386   1.515
 5581TIP3    H238303   2.373   2.462   1.551
 5582TIP3   OH238304   2.244   6.674   7.163
 5582TIP3    H138305   2.335   6.648   7.153
 5582TIP3    H238306   2.220   6.713   7.079
 5583TIP3   OH238307   2.908   2.815   7.875
 5583TIP3    H138308   2.900   2.895   7.927
 5583TIP3    H238309   2.855   2.831   7.797
 5584TIP3   OH238310   5.891   0.471   8.104
 5584TIP3    H138311   5.842   0.413   8.162
 5584TIP3    H238312   5.827   0.536   8.076
 5585TIP3   OH238313   2.381   3.482   0.316
 5585TIP3    H138314   2.415   3.527   0.393
 5585TIP3    H238315   2.353   3.552   0.258
 5586TIP3   OH238316   0.544   1.979   8.165
 5586TIP3    H138317   0.559   2.041   8.093
 5586TIP3    H238318   0.571   1.894   8.130
 5587TIP3   OH238319   5.703   3.441   7.496
 5587TIP3    H138320   5.693   3.535   7.479
 5587TIP3    H238321   5.626   3.401   7.458
 5588TIP3   OH238322   6.483   4.694   8.253
 5588TIP3    H138323   6.434   4.754   8.310
 5588TIP3    H238324   6.525   4.633   8.313
 5589TIP3   OH238325   5.005   1.843   7.431
 5589TIP3    H138326   4.988   1.913   7.368
 5589TIP3    H238327   5.022   1.888   7.513
 5590TIP3   OH238328   6.725   4.841   7.186
 5590TIP3    H138329   6.637   4.806   7.195
 5590TIP3    H238330   6.767   4.823   7.270
 5591TIP3   OH238331   4.788   1.428   0.156
 5591TIP3    H138332   4.704   1.412   0.114
 5591TIP3    H238333   4.789   1.367   0.230
 5592TIP3   OH238334   0.071   4.117   7.507
 5592TIP3    H138335   6.828   4.087   7.537
 5592TIP3    H238336   0.057   4.209   7.484
 5593TIP3   OH238337   0.498   3.075   1.223
 5593TIP3    H138338   0.542   3.007   1.274
 5593TIP3    H238339   0.429   3.107   1.280
 5594TIP3   OH238340   5.838   2.467   2.359
 5594TIP3    H138341   5.792   2.507   2.285
 5594TIP3    H238342   5.834   2.373   2.342
 5595TIP3   OH238343   3.744   0.189   1.502
 5595TIP3    H138344   3.748   0.284   1.487
 5595TIP3    H238345   3.813   0.172   1.566
 5596TIP3   OH238346   5.350   0.680   0.031
 5596TIP3    H138347   5.368   0.692   0.124
 5596TIP3    H238348   5.255   0.670   0.026
 5597TIP3   OH238349   4.833   1.194   1.290
 5597TIP3    H138350   4.784   1.260   1.339
 5597TIP3    H238351   4.893   1.156   1.354
 5598TIP3   OH238352   3.219   2.573   1.874
 5598TIP3    H138353   3.128   2.544   1.864
 5598TIP3    H238354   3.212   2.667   1.887
 5599TIP3   OH238355   3.461   3.830   7.397
 5599TIP3    H138356   3.450   3.920   7.369
 5599TIP3    H238357   3.440   3.777   7.320
 5600TIP3   OH238358   5.273   6.607   0.368
 5600TIP3    H138359   5.352   6.585   0.319
 5600TIP3    H238360   5.271   6.702   0.368
 5601TIP3   OH238361   6.106   4.929   1.696
 5601TIP3    H138362   6.105   4.837   1.719
 5601TIP3    H238363   6.144   4.973   1.772
 5602TIP3   OH238364   4.155   4.015   2.444
 5602TIP3    H138365   4.176   3.937   2.392
 5602TIP3    H238366   4.231   4.026   2.501
 5603TIP3   OH238367   6.525   1.265   1.120
 5603TIP3    H138368   6.444   1.221   1.145
 5603TIP3    H238369   6.560   1.299   1.202
 5604TIP3   OH238370   3.367   0.019   7.989
 5604TIP3    H138371   3.306   6.805   8.036
 5604TIP3    H238372   3.451   6.815   7.994
 5605TIP3   OH238373   3.560   3.700   8.101
 5605TIP3    H138374   3.532   3.616   8.138
 5605TIP3    H238375   3.480   3.735   8.060
 5606TIP3   OH238376   4.818   4.514   6.837
 5606TIP3    H138377   4.883   4.491   6.771
 5606TIP3    H238378   4.845   4.467   6.915
 5607TIP3   OH238379   5.064   0.164   8.330
 5607TIP3    H138380   5.135   0.106   8.356
 5607TIP3    H238381   4.992   0.141   8.388
 5608TIP3   OH238382   0.716   6.289   0.075
 5608TIP3    H138383   0.716   6.229   0.150
 5608TIP3    H238384   0.718   6.376   0.114
 5609TIP3   OH238385   2.756   4.867   0.921
 5609TIP3    H138386   2.746   4.787   0.869
 5609TIP3    H238387   2.851   4.878   0.928
 5610TIP3   OH238388   5.345   1.409   6.753
 5610TIP3    H138389   5.312   1.499   6.756
 5610TIP3    H238390   5.440   1.418   6.752
 5611TIP3   OH238391   1.245   1.296   8.206
 5611TIP3    H138392   1.170   1.355   8.193
 5611TIP3    H238393   1.217   1.236   8.274
 5612TIP3   OH238394   2.543   2.259   6.974
 5612TIP3    H138395   2.481   2.262   7.047
 5612TIP3    H238396   2.551   2.349   6.945
 5613TIP3   OH238397   3.288   3.069   2.119
 5613TIP3    H138398   3.234   3.024   2.184
 5613TIP3    H238399   3.376   3.066   2.156
 5614TIP3   OH238400   1.743   4.299   7.055
 5614TIP3    H138401   1.707   4.262   7.136
 5614TIP3    H238402   1.837   4.301   7.069
 5615TIP3   OH238403   2.221   0.713   1.336
 5615TIP3    H138404   2.162   0.761   1.278
 5615TIP3    H238405   2.262   0.781   1.390
 5616TIP3   OH238406   0.647   2.005   7.699
 5616TIP3    H138407   0.665   1.913   7.681
 5616TIP3    H238408   0.731   2.049   7.686
 5617TIP3   OH238409   5.397   2.105   8.143
 5617TIP3    H138410   5.482   2.149   8.147
 5617TIP3    H238411   5.406   2.043   8.070
 5618TIP3   OH238412   2.396   5.164   1.668
 5618TIP3    H138413   2.421   5.179   1.760
 5618TIP3    H238414   2.316   5.216   1.656
 5619TIP3   OH238415   4.848   2.757   8.252
 5619TIP3    H138416   4.756   2.771   8.228
 5619TIP3    H238417   4.876   2.840   8.289
 5620TIP3   OH238418   2.673   1.802   7.398
 5620TIP3    H138419   2.624   1.839   7.325
 5620TIP3    H238420   2.613   1.742   7.440
 5621TIP3   OH238421   0.289   1.549   2.561
 5621TIP3    H138422   0.253   1.607   2.494
 5621TIP3    H238423   0.346   1.489   2.512
 5622TIP3   OH238424   4.488   1.689   1.240
 5622TIP3    H138425   4.438   1.650   1.311
 5622TIP3    H238426   4.559   1.628   1.223
 5623TIP3   OH238427   6.607   4.207   8.012
 5623TIP3    H138428   6.608   4.303   8.014
 5623TIP3    H238429   6.697   4.182   8.035
 5624TIP3   OH238430   1.596   2.996   8.233
 5624TIP3    H138431   1.507   2.997   8.198
 5624TIP3    H238432   1.653   3.005   8.157
 5625TIP3   OH238433   3.664   0.920   8.368
 5625TIP3    H138434   3.602   0.947   8.299
 5625TIP3    H238435   3.670   0.996   8.425
 5626TIP3   OH238436   0.489   6.131   7.602
 5626TIP3    H138437   0.477   6.219   7.566
 5626TIP3    H238438   0.577   6.133   7.641
 5627TIP3   OH238439   6.735   5.989   0.149
 5627TIP3    H138440   6.763   5.934   0.076
 5627TIP3    H238441   6.645   5.960   0.167
 5628TIP3   OH238442   6.437   6.755   0.013
 5628TIP3    H138443   6.475   6.671   8.700
 5628TIP3    H238444   6.366   6.731   0.074
 5629TIP3   OH238445   5.008   1.095   1.929
 5629TIP3    H138446   5.075   1.144   1.976
 5629TIP3    H238447   4.944   1.162   1.902
 5630TIP3   OH238448   6.217   0.452   0.592
 5630TIP3    H138449   6.155   0.466   0.664
 5630TIP3    H238450   6.174   0.490   0.516
 5631TIP3   OH238451   4.829   6.447   1.471
 5631TIP3    H138452   4.817   6.527   1.419
 5631TIP3    H238453   4.780   6.380   1.424
 5632TIP3   OH238454   2.628   5.661   2.018
 5632TIP3    H138455   2.693   5.646   2.086
 5632TIP3    H238456   2.679   5.682   1.940
 5633TIP3   OH238457   3.401   2.806   6.735
 5633TIP3    H138458   3.314   2.792   6.697
 5633TIP3    H238459   3.386   2.806   6.829
 5634TIP3   OH238460   0.313   2.021   7.592
 5634TIP3    H138461   0.231   2.000   7.638
 5634TIP3    H238462   0.380   2.020   7.661
 5635TIP3   OH238463   4.624   0.305   8.351
 5635TIP3    H138464   4.642   0.383   8.298
 5635TIP3    H238465   4.640   0.232   8.292
 5636TIP3   OH238466   1.470   1.412   7.248
 5636TIP3    H138467   1.560   1.393   7.276
 5636TIP3    H238468   1.480   1.481   7.182
 5637TIP3   OH238469   6.630   4.981   0.615
 5637TIP3    H138470   6.541   5.012   0.601
 5637TIP3    H238471   6.669   4.981   0.528
 5638TIP3   OH238472   5.903   2.780   8.433
 5638TIP3    H138473   5.828   2.766   8.374
 5638TIP3    H238474   5.962   2.837   8.383
 5639TIP3   OH238475   0.742   0.837   7.457
 5639TIP3    H138476   0.763   0.747   7.431
 5639TIP3    H238477   0.671   0.828   7.520
 5640TIP3   OH238478   5.786   5.583   7.579
 5640TIP3    H138479   5.722   5.635   7.628
 5640TIP3    H238480   5.757   5.586   7.488
 5641TIP3   OH238481   1.045   1.004   0.149
 5641TIP3    H138482   1.023   0.911   0.154
 5641TIP3    H238483   0.977   1.042   0.092
 5642TIP3   OH238484   6.114   6.033   6.456
 5642TIP3    H138485   6.126   5.966   6.389
 5642TIP3    H238486   6.066   6.103   6.411
 5643TIP3   OH238487   2.422   5.987   1.039
 5643TIP3    H138488   2.500   5.941   1.007
 5643TIP3    H238489   2.416   5.961   1.131
 5644TIP3   OH238490   2.743   0.979   7.530
 5644TIP3    H138491   2.688   0.954   7.604
 5644TIP3    H238492   2.758   1.073   7.541
 5645TIP3   OH238493   5.007   1.498   1.048
 5645TIP3    H138494   4.959   1.417   1.034
 5645TIP3    H238495   5.078   1.474   1.109
 5646TIP3   OH238496   3.815   6.737   0.505
 5646TIP3    H138497   3.908   6.761   0.513
 5646TIP3    H238498   3.794   6.756   0.414
 5647TIP3   OH238499   1.357   4.954   6.658
 5647TIP3    H138500   1.359   4.892   6.731
 5647TIP3    H238501   1.265   4.980   6.652
 5648TIP3   OH238502   3.409   0.395   1.696
 5648TIP3    H138503   3.478   0.329   1.709
 5648TIP3    H238504   3.343   0.351   1.642
 5649TIP3   OH238505   2.114   2.065   6.869
 5649TIP3    H138506   2.146   2.012   6.796
 5649TIP3    H238507   2.024   2.036   6.882
 5650TIP3   OH238508   0.111   0.802   7.541
 5650TIP3    H138509   0.028   0.786   7.496
 5650TIP3    H238510   0.134   0.718   7.581
 5651TIP3   OH238511   4.585   3.383   0.211
 5651TIP3    H138512   4.618   3.471   0.193
 5651TIP3    H238513   4.540   3.390   0.295
 5652TIP3   OH238514   4.956   1.982   0.841
 5652TIP3    H138515   4.867   1.959   0.813
 5652TIP3    H238516   4.970   1.931   0.922
 5653TIP3   OH238517   4.946   4.090   0.580
 5653TIP3    H138518   4.921   4.044   0.660
 5653TIP3    H238519   4.948   4.183   0.605
 5654TIP3   OH238520   0.360   5.284   8.251
 5654TIP3    H138521   0.445   5.286   8.206
 5654TIP3    H238522   0.338   5.376   8.264
 5655TIP3   OH238523   4.599   1.486   7.487
 5655TIP3    H138524   4.620   1.405   7.533
 5655TIP3    H238525   4.682   1.515   7.449
 5656TIP3   OH238526   5.961   4.345   7.827
 5656TIP3    H138527   6.044   4.322   7.870
 5656TIP3    H238528   5.944   4.435   7.855
 5657TIP3   OH238529   6.801   4.455   1.633
 5657TIP3    H138530   6.750   4.522   1.680
 5657TIP3    H238531   0.013   4.415   1.701
 5658TIP3   OH238532   0.810   4.693   8.117
 5658TIP3    H138533   0.788   4.614   8.166
 5658TIP3    H238534   0.796   4.765   8.179
 5659TIP3   OH238535   6.257   2.904   8.003
 5659TIP3    H138536   6.333   2.869   7.955
 5659TIP3    H238537   6.268   2.999   7.998
 5660TIP3   OH238538   0.263   2.306   7.564
 5660TIP3    H138539   0.286   2.216   7.545
 5660TIP3    H238540   0.320   2.358   7.507
 5661TIP3   OH238541   5.417   0.653   1.594
 5661TIP3    H138542   5.329   0.647   1.630
 5661TIP3    H238543   5.412   0.610   1.509
 5662TIP3   OH238544   5.551   5.649   8.021
 5662TIP3    H138545   5.624   5.634   7.960
 5662TIP3    H238546   5.516   5.735   7.996
 5663TIP3   OH238547   2.733   0.768   7.349
 5663TIP3    H138548   2.717   0.837   7.414
 5663TIP3    H238549   2.696   0.803   7.268
 5664TIP3   OH238550   0.294   5.728   8.485
 5664TIP3    H138551   0.267   5.739   8.576
 5664TIP3    H238552   0.263   5.808   8.442
 5665TIP3   OH238553   2.350   6.149   1.344
 5665TIP3    H138554   2.360   6.055   1.360
 5665TIP3    H238555   2.439   6.180   1.329
 5666TIP3   OH238556   2.215   0.997   8.037
 5666TIP3    H138557   2.231   0.914   8.081
 5666TIP3    H238558   2.207   1.061   8.108
 5667TIP3   OH238559   6.186   4.892   8.453
 5667TIP3    H138560   6.172   4.801   8.428
 5667TIP3    H238561   6.281   4.902   8.457
 5668TIP3   OH238562   6.063   0.952   0.635
 5668TIP3    H138563   5.969   0.965   0.632
 5668TIP3    H238564   6.089   0.945   0.543
 5669TIP3   OH238565   5.288   3.888   6.704
 5669TIP3    H138566   5.331   3.865   6.621
 5669TIP3    H238567   5.252   3.976   6.688
 5670TIP3   OH238568   0.237   6.690   7.565
 5670TIP3    H138569   0.295   6.615   7.578
 5670TIP3    H238570   0.292   6.756   7.523
 5671TIP3   OH238571   5.517   0.123   0.460
 5671TIP3    H138572   5.427   0.114   0.428
 5671TIP3    H238573   5.517   0.076   0.544
 5672TIP3   OH238574   6.336   3.510   1.432
 5672TIP3    H138575   6.242   3.497   1.449
 5672TIP3    H238576   6.339   3.570   1.358
 5673TIP3   OH238577   5.156   1.011   7.495
 5673TIP3    H138578   5.098   0.981   7.425
 5673TIP3    H238579   5.124   1.099   7.517
 5674TIP3   OH238580   6.204   1.282   2.079
 5674TIP3    H138581   6.175   1.255   2.166
 5674TIP3    H238582   6.283   1.333   2.095
 5675TIP3   OH238583   1.348   4.019   0.841
 5675TIP3    H138584   1.268   4.002   0.889
 5675TIP3    H238585   1.359   4.114   0.845
 5676TIP3   OH238586   6.503   5.861   8.650
 5676TIP3    H138587   6.459   5.937   8.613
 5676TIP3    H238588   6.463   5.849   0.023
 5677TIP3   OH238589   1.637   2.863   1.033
 5677TIP3    H138590   1.573   2.799   1.064
 5677TIP3    H238591   1.613   2.881   0.943
 5678TIP3   OH238592   2.104   3.261   1.220
 5678TIP3    H138593   2.102   3.339   1.276
 5678TIP3    H238594   2.020   3.261   1.175
 5679TIP3   OH238595   3.136   2.068   0.026
 5679TIP3    H138596   3.086   2.116   0.091
 5679TIP3    H238597   3.072   2.041   8.674
 5680TIP3   OH238598   4.753   1.759   6.523
 5680TIP3    H138599   4.800   1.805   6.453
 5680TIP3    H238600   4.681   1.818   6.546
 5681TIP3   OH238601   3.650   0.257   7.267
 5681TIP3    H138602   3.694   0.172   7.256
 5681TIP3    H238603   3.636   0.288   7.177
 5682TIP3   OH238604   1.576   5.117   8.208
 5682TIP3    H138605   1.628   5.195   8.226
 5682TIP3    H238606   1.598   5.094   8.117
 5683TIP3   OH238607   2.929   4.505   0.272
 5683TIP3    H138608   2.903   4.528   0.182
 5683TIP3    H238609   2.874   4.560   0.328
 5684TIP3   OH238610   6.420   4.832   1.811
 5684TIP3    H138611   6.376   4.895   1.868
 5684TIP3    H238612   6.350   4.794   1.758
 5685TIP3   OH238613   5.501   0.321   1.575
 5685TIP3    H138614   5.581   0.324   1.627
 5685TIP3    H238615   5.447   0.254   1.617
 5686TIP3   OH238616   0.731   0.610   6.677
 5686TIP3    H138617   0.791   0.676   6.712
 5686TIP3    H238618   0.654   0.660   6.651
 5687TIP3   OH238619   5.776   5.194   6.421
 5687TIP3    H138620   5.760   5.189   6.327
 5687TIP3    H238621   5.698   5.155   6.460
 5688TIP3   OH238622   1.108   5.068   1.354
 5688TIP3    H138623   1.152   5.009   1.415
 5688TIP3    H238624   1.083   5.012   1.280
 5689TIP3   OH238625   5.192   0.569   2.230
 5689TIP3    H138626   5.247   0.646   2.246
 5689TIP3    H238627   5.254   0.499   2.211
 5690TIP3   OH238628   5.301   4.448   6.981
 5690TIP3    H138629   5.289   4.418   6.891
 5690TIP3    H238630   5.230   4.406   7.030
 5691TIP3   OH238631   4.374   2.154   0.498
 5691TIP3    H138632   4.372   2.151   0.594
 5691TIP3    H238633   4.283   2.169   0.472
 5692TIP3   OH238634   2.696   1.353   8.569
 5692TIP3    H138635   2.733   1.273   8.605
 5692TIP3    H238636   2.753   1.375   8.495
 5693TIP3   OH238637   2.934   1.539   7.193
 5693TIP3    H138638   2.905   1.454   7.160
 5693TIP3    H238639   3.000   1.517   7.259
 5694TIP3   OH238640   1.009   6.231   8.167
 5694TIP3    H138641   1.008   6.305   8.227
 5694TIP3    H238642   1.040   6.157   8.219
 5695TIP3   OH238643   3.948   5.562   0.840
 5695TIP3    H138644   3.978   5.575   0.930
 5695TIP3    H238645   4.023   5.522   0.795
 5696TIP3   OH238646   0.184   0.915   0.167
 5696TIP3    H138647   0.164   0.890   0.077
 5696TIP3    H238648   0.167   1.009   0.170
 5697TIP3   OH238649   3.553   5.883   7.997
 5697TIP3    H138650   3.534   5.977   7.986
 5697TIP3    H238651   3.468   5.841   7.990
 5698TIP3   OH238652   0.723   0.650   8.547
 5698TIP3    H138653   0.707   0.558   8.566
 5698TIP3    H238654   0.649   0.696   8.586
 5699TIP3   OH238655   6.098   1.059   7.098
 5699TIP3    H138656   6.100   1.063   7.193
 5699TIP3    H238657   6.181   1.097   7.070
 5700TIP3   OH238658   1.589   1.853   0.520
 5700TIP3    H138659   1.662   1.802   0.556
 5700TIP3    H238660   1.526   1.787   0.492
 5701TIP3   OH238661   4.540   0.831   0.593
 5701TIP3    H138662   4.566   0.747   0.556
 5701TIP3    H238663   4.571   0.895   0.529
 5702TIP3   OH238664   1.903   4.961   6.784
 5702TIP3    H138665   1.947   4.953   6.868
 5702TIP3    H238666   1.849   4.882   6.777
 5703TIP3   OH238667   0.769   5.065   1.282
 5703TIP3    H138668   0.749   4.977   1.248
 5703TIP3    H238669   0.685   5.100   1.309
 5704TIP3   OH238670   0.977   4.698   1.225
 5704TIP3    H138671   0.945   4.672   1.139
 5704TIP3    H238672   1.067   4.727   1.210
 5705TIP3   OH238673   6.736   5.273   8.155
 5705TIP3    H138674   6.768   5.282   8.066
 5705TIP3    H238675   6.659   5.330   8.159
 5706TIP3   OH238676   1.111   5.037   1.823
 5706TIP3    H138677   1.077   4.988   1.898
 5706TIP3    H238678   1.143   5.120   1.860
 5707TIP3   OH238679   6.477   5.867   0.222
 5707TIP3    H138680   6.417   5.937   0.194
 5707TIP3    H238681   6.471   5.868   0.317
 5708TIP3   OH238682   6.281   6.315   8.646
 5708TIP3    H138683   6.346   6.301   0.002
 5708TIP3    H238684   6.329   6.365   8.579
 5709TIP3   OH238685   4.907   2.336   8.027
 5709TIP3    H138686   4.983   2.288   8.061
 5709TIP3    H238687   4.893   2.299   7.939
 5710TIP3   OH238688   0.812   0.362   6.583
 5710TIP3    H138689   0.785   0.442   6.628
 5710TIP3    H238690   0.843   0.392   6.497
 5711TIP3   OH238691   4.246   4.514   7.232
 5711TIP3    H138692   4.328   4.488   7.275
 5711TIP3    H238693   4.251   4.474   7.145
 5712TIP3   OH238694   0.090   5.126   1.037
 5712TIP3    H138695   0.060   5.138   1.127
 5712TIP3    H238696   0.089   5.031   1.024
 5713TIP3   OH238697   3.070   0.824   7.133
 5713TIP3    H138698   3.139   0.803   7.070
 5713TIP3    H238699   3.022   0.742   7.143
 5714TIP3   OH238700   3.140   2.070   6.731
 5714TIP3    H138701   3.077   2.139   6.751
 5714TIP3    H238702   3.225   2.114   6.732
 5715TIP3   OH238703   5.957   5.116   0.659
 5715TIP3    H138704   6.011   5.053   0.611
 5715TIP3    H238705   5.870   5.075   0.663
 5716TIP3   OH238706   3.923   0.292   7.389
 5716TIP3    H138707   3.934   0.197   7.378
 5716TIP3    H238708   3.894   0.302   7.480
 5717TIP3   OH238709   3.475   4.135   1.335
 5717TIP3    H138710   3.415   4.204   1.363
 5717TIP3    H238711   3.454   4.061   1.393
 5718TIP3   OH238712   5.592   5.045   1.470
 5718TIP3    H138713   5.636   5.006   1.546
 5718TIP3    H238714   5.627   5.134   1.466
 5719TIP3   OH238715   1.978   1.684   0.095
 5719TIP3    H138716   1.896   1.719   0.059
 5719TIP3    H238717   2.024   1.760   0.130
 5720TIP3   OH238718   3.808   1.613   7.681
 5720TIP3    H138719   3.729   1.638   7.730
 5720TIP3    H238720   3.795   1.651   7.594
 5721TIP3   OH238721   0.379   6.098   1.467
 5721TIP3    H138722   0.439   6.032   1.433
 5721TIP3    H238723   0.318   6.048   1.522
 5722TIP3   OH238724   5.240   5.992   7.753
 5722TIP3    H138725   5.256   6.077   7.794
 5722TIP3    H238726   5.154   6.001   7.712
 5723TIP3   OH238727   2.858   1.556   7.654
 5723TIP3    H138728   2.859   1.625   7.589
 5723TIP3    H238729   2.935   1.502   7.635
 5724TIP3   OH238730   4.665   2.239   0.037
 5724TIP3    H138731   4.730   2.169   0.046
 5724TIP3    H238732   4.682   2.297   0.110
 5725TIP3   OH238733   6.829   4.056   8.110
 5725TIP3    H138734   6.803   3.965   8.125
 5725TIP3    H238735   0.009   4.060   8.018
 5726TIP3   OH238736   4.729   2.411   1.656
 5726TIP3    H138737   4.716   2.385   1.747
 5726TIP3    H238738   4.760   2.332   1.612
 5727TIP3   OH238739   1.398   2.421   0.638
 5727TIP3    H138740   1.455   2.495   0.656
 5727TIP3    H238741   1.386   2.378   0.722
 5728TIP3   OH238742   6.684   4.197   6.307
 5728TIP3    H138743   6.724   4.133   6.365
 5728TIP3    H238744   6.742   4.200   6.231
 5729TIP3   OH238745   5.809   3.888   8.528
 5729TIP3    H138746   5.840   3.918   8.614
 5729TIP3    H238747   5.852   3.804   8.514
 5730TIP3   OH238748   4.173   2.793   8.320
 5730TIP3    H138749   4.194   2.718   8.376
 5730TIP3    H238750   4.155   2.864   8.381
 5731TIP3   OH238751   5.218   2.629   8.387
 5731TIP3    H138752   5.277   2.557   8.362
 5731TIP3    H238753   5.176   2.598   8.467
 5732TIP3   OH238754   6.072   1.070   7.397
 5732TIP3    H138755   6.119   1.152   7.415
 5732TIP3    H238756   6.122   1.003   7.442
 5733TIP3   OH238757   3.129   5.854   0.059
 5733TIP3    H138758   3.068   5.795   0.014
 5733TIP3    H238759   3.168   5.801   0.128
 5734TIP3   OH238760   2.989   0.106   7.877
 5734TIP3    H138761   2.921   0.060   7.925
 5734TIP3    H238762   3.056   0.039   7.861
 5735TIP3   OH238763   5.467   4.491   0.059
 5735TIP3    H138764   5.426   4.466   0.142
 5735TIP3    H238765   5.413   4.448   8.706
 5736TIP3   OH238766   1.797   5.243   2.326
 5736TIP3    H138767   1.890   5.266   2.334
 5736TIP3    H238768   1.755   5.324   2.299
 5737TIP3   OH238769   4.948   3.784   0.151
 5737TIP3    H138770   4.948   3.856   0.214
 5737TIP3    H238771   4.861   3.745   0.159
 5738TIP3   OH238772   0.237   2.226   8.681
 5738TIP3    H138773   0.200   2.242   0.055
 5738TIP3    H238774   0.261   2.313   8.649
 5739TIP3   OH238775   6.761   1.503   8.164
 5739TIP3    H138776   6.759   1.475   8.072
 5739TIP3    H238777   6.813   1.436   8.208
 5740TIP3   OH238778   4.185   1.381   7.998
 5740TIP3    H138779   4.224   1.461   8.033
 5740TIP3    H238780   4.151   1.336   8.076
 5741TIP3   OH238781   4.474   0.279   0.350
 5741TIP3    H138782   4.556   0.274   0.398
 5741TIP3    H238783   4.408   0.300   0.416
 5742TIP3   OH238784   2.041   4.482   0.330
 5742TIP3    H138785   1.977   4.414   0.308
 5742TIP3    H238786   2.114   4.468   0.270
 5743TIP3   OH238787   3.633   3.493   6.335
 5743TIP3    H138788   3.700   3.512   6.400
 5743TIP3    H238789   3.607   3.403   6.353
 5744TIP3   OH238790   3.285   0.730   6.996
 5744TIP3    H138791   3.324   0.789   6.931
 5744TIP3    H238792   3.324   0.645   6.977
 5745TIP3   OH238793   0.570   1.937   7.101
 5745TIP3    H138794   0.655   1.973   7.077
 5745TIP3    H238795   0.590   1.852   7.141
 5746TIP3   OH238796   4.297   2.242   7.934
 5746TIP3    H138797   4.269   2.278   8.018
 5746TIP3    H238798   4.225   2.183   7.909
 5747TIP3   OH238799   0.767   5.639   7.859
 5747TIP3    H138800   0.702   5.708   7.876
 5747TIP3    H238801   0.837   5.683   7.811
 5748TIP3   OH238802   3.349   4.251   6.062
 5748TIP3    H138803   3.332   4.264   6.155
 5748TIP3    H238804   3.329   4.159   6.047
 5749TIP3   OH238805   0.790   4.460   0.584
 5749TIP3    H138806   0.713   4.510   0.610
 5749TIP3    H238807   0.781   4.377   0.630
 5750TIP3   OH238808   1.440   2.419   0.369
 5750TIP3    H138809   1.449   2.404   0.463
 5750TIP3    H238810   1.448   2.332   0.330
 5751TIP3   OH238811   1.840   4.128   7.654
 5751TIP3    H138812   1.876   4.099   7.570
 5751TIP3    H238813   1.748   4.099   7.652
 5752TIP3   OH238814   0.508   4.190   0.606
 5752TIP3    H138815   0.595   4.175   0.570
 5752TIP3    H238816   0.452   4.204   0.529
 5753TIP3   OH238817   3.329   1.029   0.866
 5753TIP3    H138818   3.304   1.108   0.819
 5753TIP3    H238819   3.424   1.037   0.879
 5754TIP3   OH238820   6.015   4.981   8.084
 5754TIP3    H138821   5.969   4.899   8.102
 5754TIP3    H238822   6.021   4.985   7.989
 5755TIP3   OH238823   1.006   2.870   0.552
 5755TIP3    H138824   1.013   2.829   0.466
 5755TIP3    H238825   1.034   2.961   0.538
 5756TIP3   OH238826   0.784   2.838   2.185
 5756TIP3    H138827   0.794   2.795   2.100
 5756TIP3    H238828   0.829   2.780   2.247
 5757TIP3   OH238829   6.150   4.968   0.473
 5757TIP3    H138830   6.103   4.890   0.444
 5757TIP3    H238831   6.109   5.040   0.425
 5758TIP3   OH238832   6.771   4.052   1.885
 5758TIP3    H138833   6.680   4.058   1.912
 5758TIP3    H238834   6.772   3.981   1.821
 5759TIP3   OH238835   1.433   1.451   7.627
 5759TIP3    H138836   1.396   1.404   7.553
 5759TIP3    H238837   1.528   1.446   7.614
 5760TIP3   OH238838   1.199   4.290   8.180
 5760TIP3    H138839   1.199   4.386   8.176
 5760TIP3    H238840   1.243   4.270   8.263
 5761TIP3   OH238841   2.693   2.796   0.863
 5761TIP3    H138842   2.756   2.807   0.792
 5761TIP3    H238843   2.638   2.723   0.835
 5762TIP3   OH238844   5.575   0.884   7.372
 5762TIP3    H138845   5.493   0.922   7.338
 5762TIP3    H238846   5.547   0.824   7.440
 5763TIP3   OH238847   1.664   4.863   6.520
 5763TIP3    H138848   1.594   4.882   6.582
 5763TIP3    H238849   1.660   4.768   6.508
 5764TIP3   OH238850   5.128   0.655   0.519
 5764TIP3    H138851   5.041   0.662   0.558
 5764TIP3    H238852   5.161   0.745   0.516
 5765TIP3   OH238853   2.696   5.680   8.219
 5765TIP3    H138854   2.632   5.649   8.283
 5765TIP3    H238855   2.646   5.692   8.139
 5766TIP3   OH238856   5.526   6.436   2.181
 5766TIP3    H138857   5.431   6.432   2.166
 5766TIP3    H238858   5.539   6.514   2.234
 5767TIP3   OH238859   4.912   4.982   0.028
 5767TIP3    H138860   4.903   4.905   0.084
 5767TIP3    H238861   4.858   4.962   8.664
 5768TIP3   OH238862   1.677   3.112   0.443
 5768TIP3    H138863   1.733   3.061   0.501
 5768TIP3    H238864   1.638   3.048   0.384
 5769TIP3   OH238865   5.512   1.955   7.023
 5769TIP3    H138866   5.599   1.963   7.062
 5769TIP3    H238867   5.528   1.929   6.933
 5770TIP3   OH238868   3.649   6.772   8.010
 5770TIP3    H138869   3.677   6.781   8.101
 5770TIP3    H238870   3.729   6.780   7.959
 5771TIP3   OH238871   0.376   6.459   7.652
 5771TIP3    H138872   0.465   6.451   7.686
 5771TIP3    H238873   0.320   6.423   7.720
 5772TIP3   OH238874   0.473   3.856   6.327
 5772TIP3    H138875   0.458   3.907   6.407
 5772TIP3    H238876   0.389   3.814   6.309
 5773TIP3   OH238877   1.657   6.695   6.848
 5773TIP3    H138878   1.580   6.663   6.800
 5773TIP3    H238879   1.650   6.790   6.843
 5774TIP3   OH238880   6.064   5.529   7.972
 5774TIP3    H138881   5.990   5.584   7.946
 5774TIP3    H238882   6.107   5.506   7.890
 5775TIP3   OH238883   1.755   3.368   0.114
 5775TIP3    H138884   1.836   3.364   0.063
 5775TIP3    H238885   1.723   3.457   0.101
 5776TIP3   OH238886   6.208   3.857   1.931
 5776TIP3    H138887   6.152   3.793   1.887
 5776TIP3    H238888   6.155   3.937   1.935
 5777TIP3   OH238889   6.187   5.251   6.800
 5777TIP3    H138890   6.206   5.273   6.709
 5777TIP3    H238891   6.110   5.304   6.822
 5778TIP3   OH238892   2.684   0.262   7.536
 5778TIP3    H138893   2.696   0.227   7.448
 5778TIP3    H238894   2.714   0.353   7.530
 5779TIP3   OH238895   6.182   5.613   1.552
 5779TIP3    H138896   6.260   5.634   1.499
 5779TIP3    H238897   6.214   5.609   1.642
 5780TIP3   OH238898   4.391   5.996   0.710
 5780TIP3    H138899   4.307   6.001   0.663
 5780TIP3    H238900   4.425   6.085   0.706
 5781TIP3   OH238901   5.885   2.888   7.633
 5781TIP3    H138902   5.829   2.963   7.651
 5781TIP3    H238903   5.924   2.866   7.717
 5782TIP3   OH238904   3.531   6.708   8.563
 5782TIP3    H138905   3.587   6.751   8.497
 5782TIP3    H238906   3.506   6.625   8.522
 5783TIP3   OH238907   1.833   0.831   7.689
 5783TIP3    H138908   1.768   0.862   7.626
 5783TIP3    H238909   1.798   0.858   7.775
 5784TIP3   OH238910   3.263   1.358   7.268
 5784TIP3    H138911   3.224   1.284   7.315
 5784TIP3    H238912   3.282   1.323   7.181
 5785TIP3   OH238913   5.207   4.952   6.996
 5785TIP3    H138914   5.127   5.004   6.998
 5785TIP3    H238915   5.276   5.015   7.018
 5786TIP3   OH238916   5.613   3.217   1.370
 5786TIP3    H138917   5.568   3.252   1.447
 5786TIP3    H238918   5.633   3.127   1.392
 5787TIP3   OH238919   0.230   1.627   0.117
 5787TIP3    H138920   0.268   1.550   0.159
 5787TIP3    H238921   0.303   1.666   0.069
 5788TIP3   OH238922   1.300   2.185   7.020
 5788TIP3    H138923   1.359   2.112   7.002
 5788TIP3    H238924   1.289   2.183   7.115
 5789TIP3   OH238925   5.906   5.602   1.484
 5789TIP3    H138926   6.000   5.604   1.506
 5789TIP3    H238927   5.865   5.650   1.557
 5790TIP3   OH238928   4.404   1.923   7.872
 5790TIP3    H138929   4.326   1.978   7.880
 5790TIP3    H238930   4.467   1.978   7.825
 5791TIP3   OH238931   2.378   6.197   6.671
 5791TIP3    H138932   2.403   6.245   6.591
 5791TIP3    H238933   2.285   6.217   6.682
 5792TIP3   OH238934   3.077   6.386   0.675
 5792TIP3    H138935   2.989   6.397   0.642
 5792TIP3    H238936   3.124   6.465   0.649
 5793TIP3   OH238937   1.985   6.663   0.354
 5793TIP3    H138938   2.058   6.607   0.327
 5793TIP3    H238939   1.934   6.608   0.414
 5794TIP3   OH238940   0.700   2.468   1.204
 5794TIP3    H138941   0.634   2.498   1.265
 5794TIP3    H238942   0.734   2.548   1.164
 5795TIP3   OH238943   5.231   1.067   1.118
 5795TIP3    H138944   5.292   1.115   1.061
 5795TIP3    H238945   5.156   1.048   1.062
 5796TIP3   OH238946   5.939   4.416   0.089
 5796TIP3    H138947   5.974   4.399   0.002
 5796TIP3    H238948   5.868   4.352   0.099
 5797TIP3   OH238949   2.370   0.612   1.684
 5797TIP3    H138950   2.451   0.653   1.653
 5797TIP3    H238951   2.343   0.665   1.758
 5798TIP3   OH238952   0.725   1.608   0.332
 5798TIP3    H138953   0.631   1.614   0.349
 5798TIP3    H238954   0.759   1.559   0.407
 5799TIP3   OH238955   5.024   4.507   8.244
 5799TIP3    H138956   5.052   4.422   8.278
 5799TIP3    H238957   4.931   4.512   8.262
 5800TIP3   OH238958   1.979   4.507   1.017
 5800TIP3    H138959   2.064   4.487   0.978
 5800TIP3    H238960   1.935   4.422   1.022
 5801TIP3   OH238961   5.802   1.138   7.613
 5801TIP3    H138962   5.889   1.132   7.573
 5801TIP3    H238963   5.784   1.050   7.644
 5802TIP3   OH238964   1.772   4.944   1.745
 5802TIP3    H138965   1.782   4.945   1.840
 5802TIP3    H238966   1.862   4.950   1.711
 5803TIP3   OH238967   6.205   2.297   7.278
 5803TIP3    H138968   6.125   2.315   7.328
 5803TIP3    H238969   6.269   2.272   7.344
 5804TIP3   OH238970   3.300   3.504   0.383
 5804TIP3    H138971   3.361   3.430   0.379
 5804TIP3    H238972   3.221   3.468   0.423
 5805TIP3   OH238973   2.008   0.363   6.598
 5805TIP3    H138974   1.913   0.367   6.609
 5805TIP3    H238975   2.033   0.280   6.637
 5806TIP3   OH238976   3.982   3.035   2.293
 5806TIP3    H138977   3.907   3.003   2.243
 5806TIP3    H238978   4.021   3.102   2.239
 5807TIP3   OH238979   0.283   4.204   7.742
 5807TIP3    H138980   0.225   4.177   7.670
 5807TIP3    H238981   0.354   4.251   7.699
 5808TIP3   OH238982   1.816   1.951   8.029
 5808TIP3    H138983   1.732   1.992   8.009
 5808TIP3    H238984   1.865   1.956   7.948
 5809TIP3   OH238985   4.362   4.667   6.630
 5809TIP3    H138986   4.267   4.663   6.641
 5809TIP3    H238987   4.392   4.577   6.643
 5810TIP3   OH238988   2.704   3.250   0.317
 5810TIP3    H138989   2.691   3.201   0.235
 5810TIP3    H238990   2.661   3.196   0.384
 5811TIP3   OH238991   0.260   1.376   6.963
 5811TIP3    H138992   0.227   1.458   6.926
 5811TIP3    H238993   0.355   1.388   6.966
 5812TIP3   OH238994   0.614   2.638   7.629
 5812TIP3    H138995   0.705   2.627   7.603
 5812TIP3    H238996   0.603   2.580   7.704
 5813TIP3   OH238997   2.970   5.554   7.931
 5813TIP3    H138998   3.022   5.564   8.011
 5813TIP3    H238999   2.934   5.466   7.938
 5814TIP3   OH239000   4.243   0.878   1.219
 5814TIP3    H139001   4.251   0.941   1.290
 5814TIP3    H239002   4.223   0.931   1.142
 5815TIP3   OH239003   2.202   0.924   0.240
 5815TIP3    H139004   2.193   1.010   0.281
 5815TIP3    H239005   2.148   0.928   0.162
 5816TIP3   OH239006   3.555   1.486   7.088
 5816TIP3    H139007   3.527   1.493   7.179
 5816TIP3    H239008   3.577   1.393   7.077
 5817TIP3   OH239009   4.427   2.272   2.172
 5817TIP3    H139010   4.351   2.280   2.230
 5817TIP3    H239011   4.498   2.313   2.220
 5818TIP3   OH239012   2.196   6.376   7.306
 5818TIP3    H139013   2.246   6.455   7.325
 5818TIP3    H239014   2.105   6.404   7.305
 5819TIP3   OH239015   3.015   4.894   6.891
 5819TIP3    H139016   3.104   4.911   6.859
 5819TIP3    H239017   2.975   4.981   6.896
 5820TIP3   OH239018   4.852   3.111   1.671
 5820TIP3    H139019   4.783   3.057   1.632
 5820TIP3    H239020   4.806   3.186   1.708
 5821TIP3   OH239021   2.566   4.981   8.100
 5821TIP3    H139022   2.599   5.010   8.015
 5821TIP3    H239023   2.501   4.915   8.079
 5822TIP3   OH239024   5.959   1.943   6.555
 5822TIP3    H139025   5.931   2.007   6.621
 5822TIP3    H239026   5.983   1.997   6.479
 5823TIP3   OH239027   2.518   0.459   7.606
 5823TIP3    H139028   2.537   0.365   7.606
 5823TIP3    H239029   2.602   0.501   7.629
 5824TIP3   OH239030   5.508   5.567   0.569
 5824TIP3    H139031   5.463   5.610   0.642
 5824TIP3    H239032   5.566   5.635   0.534
 5825TIP3   OH239033   3.215   4.073   2.125
 5825TIP3    H139034   3.162   4.013   2.072
 5825TIP3    H239035   3.212   4.037   2.213
 5826TIP3   OH239036   5.846   5.694   7.908
 5826TIP3    H139037   5.857   5.780   7.950
 5826TIP3    H239038   5.783   5.711   7.838
 5827TIP3   OH239039   1.194   1.670   7.650
 5827TIP3    H139040   1.278   1.694   7.689
 5827TIP3    H239041   1.217   1.616   7.574
 5828TIP3   OH239042   6.749   3.799   8.082
 5828TIP3    H139043   6.670   3.810   8.030
 5828TIP3    H239044   6.799   3.731   8.037
 5829TIP3   OH239045   6.347   1.714   0.402
 5829TIP3    H139046   6.264   1.762   0.400
 5829TIP3    H239047   6.322   1.624   0.421
 5830TIP3   OH239048   3.133   6.810   8.365
 5830TIP3    H139049   3.096   6.772   8.445
 5830TIP3    H239050   3.200   6.749   8.338
 5831TIP3   OH239051   3.581   2.529   1.020
 5831TIP3    H139052   3.630   2.448   1.030
 5831TIP3    H239053   3.552   2.551   1.108
 5832TIP3   OH239054   4.642   6.603   0.243
 5832TIP3    H139055   4.731   6.634   0.226
 5832TIP3    H239056   4.652   6.509   0.259
 5833TIP3   OH239057   0.336   4.119   1.946
 5833TIP3    H139058   0.301   4.068   2.018
 5833TIP3    H239059   0.350   4.055   1.876
 5834TIP3   OH239060   1.132   0.030   8.088
 5834TIP3    H139061   1.194   6.812   8.049
 5834TIP3    H239062   1.048   0.007   8.049
 5835TIP3   OH239063   3.871   0.272   0.997
 5835TIP3    H139064   3.897   0.182   0.976
 5835TIP3    H239065   3.796   0.289   0.940
 5836TIP3   OH239066   1.537   1.227   8.635
 5836TIP3    H139067   1.524   1.251   8.543
 5836TIP3    H239068   1.554   1.310   8.680
 5837TIP3   OH239069   4.632   0.922   8.054
 5837TIP3    H139070   4.656   0.942   7.963
 5837TIP3    H239071   4.588   1.001   8.085
 5838TIP3   OH239072   4.194   4.729   1.474
 5838TIP3    H139073   4.183   4.734   1.379
 5838TIP3    H239074   4.128   4.790   1.509
 5839TIP3   OH239075   3.838   4.344   1.204
 5839TIP3    H139076   3.888   4.400   1.264
 5839TIP3    H239077   3.903   4.292   1.159
 5840TIP3   OH239078   1.086   0.047   7.788
 5840TIP3    H139079   1.117   0.133   7.816
 5840TIP3    H239080   0.999   0.063   7.752
 5841TIP3   OH239081   4.052   4.412   1.385
 5841TIP3    H139082   4.082   4.372   1.467
 5841TIP3    H239083   4.126   4.466   1.357
 5842TIP3   OH239084   2.522   4.076   7.378
 5842TIP3    H139085   2.544   3.999   7.326
 5842TIP3    H239086   2.578   4.146   7.343
 5843TIP3   OH239087   4.692   2.741   7.144
 5843TIP3    H139088   4.604   2.752   7.107
 5843TIP3    H239089   4.750   2.737   7.067
 5844TIP3   OH239090   2.744   1.333   0.645
 5844TIP3    H139091   2.822   1.315   0.593
 5844TIP3    H239092   2.690   1.255   0.635
 5845TIP3   OH239093   1.480   2.612   1.119
 5845TIP3    H139094   1.566   2.569   1.115
 5845TIP3    H239095   1.417   2.541   1.107
 5846TIP3   OH239096   2.687   2.999   6.947
 5846TIP3    H139097   2.744   2.960   6.881
 5846TIP3    H239098   2.604   3.015   6.902
 5847TIP3   OH239099   5.917   6.187   8.085
 5847TIP3    H139100   5.891   6.124   8.018
 5847TIP3    H239101   5.886   6.272   8.052
 5848TIP3   OH239102   6.337   0.736   0.895
 5848TIP3    H139103   6.345   0.722   0.989
 5848TIP3    H239104   6.416   0.783   0.870
 5849TIP3   OH239105   3.072   4.625   0.628
 5849TIP3    H139106   3.100   4.609   0.538
 5849TIP3    H239107   3.149   4.606   0.682
 5850TIP3   OH239108   5.063   5.445   7.664
 5850TIP3    H139109   4.993   5.485   7.612
 5850TIP3    H239110   5.018   5.403   7.737
 5851TIP3   OH239111   1.433   2.724   2.397
 5851TIP3    H139112   1.507   2.664   2.400
 5851TIP3    H239113   1.450   2.787   2.468
 5852TIP3   OH239114   0.965   0.921   0.646
 5852TIP3    H139115   1.027   0.991   0.666
 5852TIP3    H239116   0.922   0.950   0.566
 5853TIP3   OH239117   5.209   0.078   0.073
 5853TIP3    H139118   5.225   0.171   0.056
 5853TIP3    H239119   5.129   0.059   0.024
 5854TIP3   OH239120   6.359   5.408   8.594
 5854TIP3    H139121   6.445   5.425   8.557
 5854TIP3    H239122   6.376   5.381   8.684
 5855TIP3   OH239123   2.547   5.984   7.160
 5855TIP3    H139124   2.587   5.933   7.089
 5855TIP3    H239125   2.509   6.060   7.116
 5856TIP3   OH239126   1.311   3.860   1.352
 5856TIP3    H139127   1.257   3.936   1.332
 5856TIP3    H239128   1.376   3.857   1.282
 5857TIP3   OH239129   2.962   2.804   0.308
 5857TIP3    H139130   2.897   2.774   0.245
 5857TIP3    H239131   2.918   2.872   0.359
 5858TIP3   OH239132   6.461   5.434   2.358
 5858TIP3    H139133   6.373   5.450   2.393
 5858TIP3    H239134   6.512   5.510   2.386
 5859TIP3   OH239135   6.836   6.710   8.200
 5859TIP3    H139136   0.067   6.723   8.141
 5859TIP3    H239137   0.004   6.622   8.234
 5860TIP3   OH239138   0.327   4.125   0.985
 5860TIP3    H139139   0.303   4.151   1.074
 5860TIP3    H239140   0.275   4.046   0.970
 5861TIP3   OH239141   0.402   6.170   7.015
 5861TIP3    H139142   0.339   6.100   7.032
 5861TIP3    H239143   0.424   6.204   7.102
 5862TIP3   OH239144   5.231   2.527   8.660
 5862TIP3    H139145   5.244   2.621   8.672
 5862TIP3    H239146   5.317   2.488   8.677
 5863TIP3   OH239147   5.603   0.713   1.005
 5863TIP3    H139148   5.524   0.695   1.055
 5863TIP3    H239149   5.616   0.808   1.014
 5864TIP3   OH239150   3.928   6.080   1.198
 5864TIP3    H139151   3.909   6.077   1.292
 5864TIP3    H239152   3.934   5.988   1.172
 5865TIP3   OH239153   2.797   2.731   7.480
 5865TIP3    H139154   2.761   2.643   7.491
 5865TIP3    H239155   2.737   2.787   7.530
 5866TIP3   OH239156   2.853   0.990   0.462
 5866TIP3    H139157   2.810   1.055   0.517
 5866TIP3    H239158   2.784   0.927   0.440
 5867TIP3   OH239159   4.453   4.622   0.735
 5867TIP3    H139160   4.498   4.678   0.798
 5867TIP3    H239161   4.417   4.683   0.670
 5868TIP3   OH239162   4.542   3.604   0.457
 5868TIP3    H139163   4.627   3.577   0.492
 5868TIP3    H239164   4.485   3.528   0.472
 5869TIP3   OH239165   5.859   2.264   0.556
 5869TIP3    H139166   5.912   2.341   0.578
 5869TIP3    H239167   5.921   2.199   0.524
 5870TIP3   OH239168   3.181   5.971   7.422
 5870TIP3    H139169   3.143   5.890   7.389
 5870TIP3    H239170   3.249   5.943   7.483
 5871TIP3   OH239171   1.356   4.365   1.444
 5871TIP3    H139172   1.393   4.395   1.528
 5871TIP3    H239173   1.264   4.388   1.449
 5872TIP3   OH239174   2.812   3.515   7.127
 5872TIP3    H139175   2.750   3.442   7.129
 5872TIP3    H239176   2.897   3.475   7.146
 5873TIP3   OH239177   1.742   1.928   1.681
 5873TIP3    H139178   1.814   1.968   1.632
 5873TIP3    H239179   1.740   1.974   1.764
 5874TIP3   OH239180   4.341   2.651   0.403
 5874TIP3    H139181   4.389   2.660   0.486
 5874TIP3    H239182   4.403   2.611   0.343
 5875TIP3   OH239183   3.652   6.538   0.887
 5875TIP3    H139184   3.626   6.598   0.956
 5875TIP3    H239185   3.733   6.499   0.918
 5876TIP3   OH239186   5.428   5.723   0.999
 5876TIP3    H139187   5.421   5.774   1.079
 5876TIP3    H239188   5.450   5.634   1.028
 5877TIP3   OH239189   1.183   3.816   1.926
 5877TIP3    H139190   1.213   3.753   1.991
 5877TIP3    H239191   1.264   3.849   1.886
 5878TIP3   OH239192   4.292   5.138   6.521
 5878TIP3    H139193   4.235   5.170   6.451
 5878TIP3    H239194   4.332   5.059   6.484
 5879TIP3   OH239195   4.864   6.755   7.622
 5879TIP3    H139196   4.871   6.823   7.688
 5879TIP3    H239197   4.912   6.789   7.546
 5880TIP3   OH239198   0.339   4.199   0.405
 5880TIP3    H139199   0.357   4.207   0.312
 5880TIP3    H239200   0.275   4.128   0.411
 5881TIP3   OH239201   2.205   6.434   7.992
 5881TIP3    H139202   2.196   6.380   8.071
 5881TIP3    H239203   2.236   6.374   7.925
 5882TIP3   OH239204   2.525   4.144   0.179
 5882TIP3    H139205   2.590   4.189   0.124
 5882TIP3    H239206   2.484   4.215   0.229
 5883TIP3   OH239207   1.639   5.428   7.152
 5883TIP3    H139208   1.718   5.469   7.188
 5883TIP3    H239209   1.578   5.425   7.226
 5884TIP3   OH239210   1.301   4.682   7.949
 5884TIP3    H139211   1.345   4.737   7.884
 5884TIP3    H239212   1.266   4.744   8.013
 5885TIP3   OH239213   4.383   0.660   7.681
 5885TIP3    H139214   4.341   0.675   7.766
 5885TIP3    H239215   4.333   0.589   7.641
 5886TIP3   OH239216   1.281   4.630   8.554
 5886TIP3    H139217   1.373   4.644   8.576
 5886TIP3    H239218   1.244   4.719   8.550
 5887TIP3   OH239219   5.762   2.170   7.344
 5887TIP3    H139220   5.836   2.192   7.288
 5887TIP3    H239221   5.729   2.255   7.375
 5888TIP3   OH239222   5.816   0.549   7.792
 5888TIP3    H139223   5.816   0.477   7.855
 5888TIP3    H239224   5.807   0.506   7.707
 5889TIP3   OH239225   3.487   2.808   8.276
 5889TIP3    H139226   3.414   2.831   8.334
 5889TIP3    H239227   3.454   2.827   8.188
 5890TIP3   OH239228   1.912   6.369   2.100
 5890TIP3    H139229   1.984   6.425   2.129
 5890TIP3    H239230   1.844   6.430   2.072
 5891TIP3   OH239231   6.416   0.919   6.906
 5891TIP3    H139232   6.383   0.981   6.971
 5891TIP3    H239233   6.511   0.919   6.918
 5892TIP3   OH239234   1.541   0.014   2.610
 5892TIP3    H139235   1.628   6.819   2.622
 5892TIP3    H239236   1.538   0.037   2.517
 5893TIP3   OH239237   5.937   3.805   7.019
 5893TIP3    H139238   5.966   3.843   6.936
 5893TIP3    H239239   5.986   3.854   7.086
 5894TIP3   OH239240   6.003   2.002   1.560
 5894TIP3    H139241   5.945   2.007   1.484
 5894TIP3    H239242   5.945   1.990   1.635
 5895TIP3   OH239243   5.341   1.339   8.332
 5895TIP3    H139244   5.347   1.435   8.332
 5895TIP3    H239245   5.354   1.315   8.241
 5896TIP3   OH239246   3.934   3.703   1.283
 5896TIP3    H139247   3.996   3.658   1.226
 5896TIP3    H239248   3.905   3.635   1.345
 5897TIP3   OH239249   5.360   5.385   1.047
 5897TIP3    H139250   5.321   5.313   1.097
 5897TIP3    H239251   5.365   5.352   0.957
 5898TIP3   OH239252   6.398   4.304   8.390
 5898TIP3    H139253   6.366   4.364   8.458
 5898TIP3    H239254   6.346   4.224   8.402
 5899TIP3   OH239255   5.813   3.395   1.278
 5899TIP3    H139256   5.774   3.480   1.302
 5899TIP3    H239257   5.760   3.331   1.325
 5900TIP3   OH239258   4.838   4.097   6.600
 5900TIP3    H139259   4.762   4.098   6.541
 5900TIP3    H239260   4.813   4.036   6.669
 5901TIP3   OH239261   1.900   2.931   7.333
 5901TIP3    H139262   1.905   2.928   7.238
 5901TIP3    H239263   1.806   2.930   7.352
 5902TIP3   OH239264   2.929   5.585   8.309
 5902TIP3    H139265   2.916   5.533   8.389
 5902TIP3    H239266   2.841   5.612   8.283
 5903TIP3   OH239267   5.361   5.840   7.968
 5903TIP3    H139268   5.295   5.772   7.956
 5903TIP3    H239269   5.321   5.918   7.930
 5904TIP3   OH239270   6.111   1.053   7.846
 5904TIP3    H139271   6.027   1.008   7.858
 5904TIP3    H239272   6.089   1.146   7.853
 5905TIP3   OH239273   4.201   0.207   1.564
 5905TIP3    H139274   4.237   0.133   1.613
 5905TIP3    H239275   4.278   0.258   1.539
 5906TIP3   OH239276   0.091   3.452   0.743
 5906TIP3    H139277   0.052   3.387   0.684
 5906TIP3    H239278   0.024   3.466   0.810
 5907TIP3   OH239279   5.140   3.036   7.995
 5907TIP3    H139280   5.106   2.954   8.029
 5907TIP3    H239281   5.141   3.095   8.070
 5908TIP3   OH239282   5.179   4.525   1.510
 5908TIP3    H139283   5.162   4.613   1.477
 5908TIP3    H239284   5.130   4.468   1.451
 5909TIP3   OH239285   6.283   4.901   8.708
 5909TIP3    H139286   6.266   4.807   8.706
 5909TIP3    H239287   6.214   4.939   8.653
 5910TIP3   OH239288   4.911   0.684   2.772
 5910TIP3    H139289   4.972   0.732   2.716
 5910TIP3    H239290   4.948   0.596   2.777
 5911TIP3   OH239291   0.703   2.129   0.527
 5911TIP3    H139292   0.779   2.075   0.548
 5911TIP3    H239293   0.669   2.156   0.612
 5912TIP3   OH239294   6.193   4.707   0.572
 5912TIP3    H139295   6.109   4.725   0.531
 5912TIP3    H239296   6.190   4.756   0.654
 5913TIP3   OH239297   3.244   2.034   7.201
 5913TIP3    H139298   3.236   1.952   7.153
 5913TIP3    H239299   3.304   2.087   7.147
 5914TIP3   OH239300   4.769   3.773   7.779
 5914TIP3    H139301   4.808   3.793   7.694
 5914TIP3    H239302   4.723   3.853   7.803
 5915TIP3   OH239303   3.216   0.820   0.254
 5915TIP3    H139304   3.265   0.741   0.276
 5915TIP3    H239305   3.125   0.792   0.246
 5916TIP3   OH239306   2.625   6.692   8.295
 5916TIP3    H139307   2.630   6.596   8.296
 5916TIP3    H239308   2.585   6.714   8.378
 5917TIP3   OH239309   5.554   1.177   8.444
 5917TIP3    H139310   5.509   1.235   8.382
 5917TIP3    H239311   5.496   1.101   8.452
 5918TIP3   OH239312   0.859   1.110   7.667
 5918TIP3    H139313   0.780   1.055   7.668
 5918TIP3    H239314   0.844   1.175   7.736
 5919TIP3   OH239315   4.978   2.020   8.426
 5919TIP3    H139316   5.062   2.024   8.379
 5919TIP3    H239317   4.945   2.110   8.423
 5920TIP3   OH239318   1.166   0.426   7.191
 5920TIP3    H139319   1.140   0.338   7.164
 5920TIP3    H239320   1.180   0.473   7.109
 5921TIP3   OH239321   1.922   2.714   6.766
 5921TIP3    H139322   1.877   2.680   6.844
 5921TIP3    H239323   1.948   2.803   6.791
 5922TIP3   OH239324   3.400   1.798   1.924
 5922TIP3    H139325   3.338   1.871   1.916
 5922TIP3    H239326   3.485   1.836   1.902
 5923TIP3   OH239327   5.606   2.579   7.725
 5923TIP3    H139328   5.674   2.525   7.766
 5923TIP3    H239329   5.589   2.648   7.789
 5924TIP3   OH239330   3.086   2.709   7.460
 5924TIP3    H139331   3.093   2.644   7.530
 5924TIP3    H239332   2.992   2.717   7.444
 5925TIP3   OH239333   1.026   6.780   6.628
 5925TIP3    H139334   0.955   6.843   6.644
 5925TIP3    H239335   0.998   6.700   6.672
 5926TIP3   OH239336   2.320   5.037   7.917
 5926TIP3    H139337   2.252   4.986   7.962
 5926TIP3    H239338   2.283   5.056   7.831
 5927TIP3   OH239339   3.869   5.291   8.234
 5927TIP3    H139340   3.899   5.346   8.161
 5927TIP3    H239341   3.775   5.305   8.238
 5928TIP3   OH239342   6.217   0.068   7.814
 5928TIP3    H139343   6.206   0.108   7.900
 5928TIP3    H239344   6.144   0.101   7.762
 5929TIP3   OH239345   0.315   4.882   7.418
 5929TIP3    H139346   0.268   4.814   7.370
 5929TIP3    H239347   0.248   4.947   7.440
 5930TIP3   OH239348   6.774   1.954   6.708
 5930TIP3    H139349   6.787   1.900   6.630
 5930TIP3    H239350   6.688   1.994   6.695
 5931TIP3   OH239351   1.542   1.361   1.443
 5931TIP3    H139352   1.592   1.285   1.474
 5931TIP3    H239353   1.560   1.364   1.349
 5932TIP3   OH239354   4.937   4.594   1.644
 5932TIP3    H139355   4.957   4.661   1.579
 5932TIP3    H239356   5.012   4.536   1.643
 5933TIP3   OH239357   5.222   5.619   1.847
 5933TIP3    H139358   5.262   5.653   1.927
 5933TIP3    H239359   5.182   5.536   1.874
 5934TIP3   OH239360   2.913   4.769   7.646
 5934TIP3    H139361   2.923   4.858   7.612
 5934TIP3    H239362   2.827   4.768   7.688
 5935TIP3   OH239363   3.393   3.082   1.510
 5935TIP3    H139364   3.306   3.120   1.524
 5935TIP3    H239365   3.398   3.068   1.415
 5936TIP3   OH239366   6.822   2.464   7.389
 5936TIP3    H139367   0.011   2.456   7.478
 5936TIP3    H239368   6.839   2.555   7.365
 5937TIP3   OH239369   6.281   5.605   1.145
 5937TIP3    H139370   6.222   5.620   1.072
 5937TIP3    H239371   6.359   5.566   1.106
 5938TIP3   OH239372   2.890   0.059   8.684
 5938TIP3    H139373   2.843   6.821   8.706
 5938TIP3    H239374   2.970   0.029   8.642
 5939TIP3   OH239375   6.027   5.868   6.655
 5939TIP3    H139376   5.934   5.857   6.637
 5939TIP3    H239377   6.060   5.918   6.580
 5940TIP3   OH239378   4.959   2.696   1.896
 5940TIP3    H139379   5.030   2.674   1.957
 5940TIP3    H239380   4.890   2.633   1.916
 5941TIP3   OH239381   2.815   3.008   1.801
 5941TIP3    H139382   2.890   3.065   1.781
 5941TIP3    H239383   2.756   3.064   1.853
 5942TIP3   OH239384   2.752   5.427   0.630
 5942TIP3    H139385   2.740   5.345   0.582
 5942TIP3    H239386   2.760   5.401   0.722
 5943TIP3   OH239387   4.979   6.731   1.551
 5943TIP3    H139388   4.950   6.714   1.461
 5943TIP3    H239389   4.924   6.674   1.604
 5944TIP3   OH239390   3.078   5.289   1.417
 5944TIP3    H139391   3.046   5.373   1.451
 5944TIP3    H239392   3.014   5.225   1.448
 5945TIP3   OH239393   5.213   3.465   0.710
 5945TIP3    H139394   5.254   3.549   0.692
 5945TIP3    H239395   5.268   3.401   0.665
 5946TIP3   OH239396   3.970   0.879   6.879
 5946TIP3    H139397   3.911   0.935   6.929
 5946TIP3    H239398   4.055   0.921   6.884
 5947TIP3   OH239399   2.605   5.329   8.222
 5947TIP3    H139400   2.673   5.325   8.156
 5947TIP3    H239401   2.610   5.245   8.267
 5948TIP3   OH239402   4.531   4.012   6.670
 5948TIP3    H139403   4.598   3.961   6.715
 5948TIP3    H239404   4.513   4.085   6.728
 5949TIP3   OH239405   6.728   1.725   0.722
 5949TIP3    H139406   6.642   1.766   0.737
 5949TIP3    H239407   6.747   1.743   0.630
 5950TIP3   OH239408   0.505   0.669   7.597
 5950TIP3    H139409   0.425   0.650   7.646
 5950TIP3    H239410   0.553   0.587   7.597
 5951TIP3   OH239411   1.605   4.627   7.844
 5951TIP3    H139412   1.635   4.629   7.753
 5951TIP3    H239413   1.571   4.715   7.860
 5952TIP3   OH239414   1.533   0.153   1.801
 5952TIP3    H139415   1.497   0.065   1.792
 5952TIP3    H239416   1.603   0.144   1.866
 5953TIP3   OH239417   4.396   0.025   7.190
 5953TIP3    H139418   4.396   6.793   7.250
 5953TIP3    H239419   4.354   6.835   7.110
 5954TIP3   OH239420   0.807   0.049   8.026
 5954TIP3    H139421   0.758   0.061   7.945
 5954TIP3    H239422   0.781   6.805   8.057
 5955TIP3   OH239423   5.081   6.713   2.142
 5955TIP3    H139424   5.008   6.667   2.100
 5955TIP3    H239425   5.041   6.793   2.177
 5956TIP3   OH239426   1.061   4.289   6.840
 5956TIP3    H139427   1.025   4.301   6.927
 5956TIP3    H239428   1.012   4.350   6.785
 5957TIP3   OH239429   4.427   3.275   7.423
 5957TIP3    H139430   4.377   3.353   7.444
 5957TIP3    H239431   4.365   3.203   7.432
 5958TIP3   OH239432   2.202   3.431   7.095
 5958TIP3    H139433   2.110   3.422   7.119
 5958TIP3    H239434   2.220   3.525   7.103
 5959TIP3   OH239435   4.994   1.000   1.421
 5959TIP3    H139436   5.005   0.940   1.495
 5959TIP3    H239437   4.909   0.976   1.384
 5960TIP3   OH239438   4.713   2.280   0.832
 5960TIP3    H139439   4.784   2.327   0.787
 5960TIP3    H239440   4.662   2.241   0.761
 5961TIP3   OH239441   5.121   3.504   2.121
 5961TIP3    H139442   5.192   3.462   2.170
 5961TIP3    H239443   5.130   3.469   2.032
 5962TIP3   OH239444   3.405   3.624   8.326
 5962TIP3    H139445   3.373   3.708   8.292
 5962TIP3    H239446   3.328   3.567   8.324
 5963TIP3   OH239447   1.873   5.238   7.163
 5963TIP3    H139448   1.865   5.155   7.211
 5963TIP3    H239449   1.785   5.274   7.163
 5964TIP3   OH239450   2.149   3.809   6.824
 5964TIP3    H139451   2.145   3.797   6.729
 5964TIP3    H239452   2.205   3.885   6.837
 5965TIP3   OH239453   6.448   2.774   7.825
 5965TIP3    H139454   6.504   2.745   7.898
 5965TIP3    H239455   6.379   2.708   7.820
 5966TIP3   OH239456   4.485   6.116   1.212
 5966TIP3    H139457   4.558   6.072   1.254
 5966TIP3    H239458   4.451   6.052   1.149
 5967TIP3   OH239459   2.850   3.699   6.481
 5967TIP3    H139460   2.923   3.725   6.425
 5967TIP3    H239461   2.791   3.651   6.423
 5968TIP3   OH239462   0.852   2.175   7.340
 5968TIP3    H139463   0.879   2.239   7.406
 5968TIP3    H239464   0.825   2.098   7.391
 5969TIP3   OH239465   1.777   6.320   8.098
 5969TIP3    H139466   1.829   6.390   8.138
 5969TIP3    H239467   1.771   6.253   8.165
 5970TIP3   OH239468   0.942   6.528   1.224
 5970TIP3    H139469   0.920   6.445   1.267
 5970TIP3    H239470   1.031   6.547   1.254
 5971TIP3   OH239471   0.696   4.893   0.158
 5971TIP3    H139472   0.620   4.916   0.104
 5971TIP3    H239473   0.733   4.816   0.115
 5972TIP3   OH239474   4.057   0.435   8.549
 5972TIP3    H139475   3.976   0.385   8.541
 5972TIP3    H239476   4.076   0.464   8.460
 5973TIP3   OH239477   3.782   2.494   0.065
 5973TIP3    H139478   3.695   2.514   0.100
 5973TIP3    H239479   3.766   2.463   8.689
 5974TIP3   OH239480   0.010   0.407   1.124
 5974TIP3    H139481   6.793   0.356   1.179
 5974TIP3    H239482   0.008   0.495   1.164
 5975TIP3   OH239483   6.768   2.977   1.479
 5975TIP3    H139484   6.745   3.064   1.510
 5975TIP3    H239485   6.781   2.926   1.559
 5976TIP3   OH239486   5.761   3.651   1.347
 5976TIP3    H139487   5.732   3.687   1.263
 5976TIP3    H239488   5.805   3.724   1.390
 5977TIP3   OH239489   0.732   0.764   2.145
 5977TIP3    H139490   0.666   0.792   2.208
 5977TIP3    H239491   0.766   0.845   2.108
 5978TIP3   OH239492   2.856   5.412   1.659
 5978TIP3    H139493   2.908   5.343   1.701
 5978TIP3    H239494   2.767   5.378   1.659
 5979TIP3   OH239495   4.490   0.865   2.157
 5979TIP3    H139496   4.548   0.928   2.201
 5979TIP3    H239497   4.501   0.884   2.064
 5980TIP3   OH239498   0.054   0.047   1.961
 5980TIP3    H139499   0.112   0.009   1.895
 5980TIP3    H239500   0.081   0.007   2.044
 5981TIP3   OH239501   1.727   0.314   7.408
 5981TIP3    H139502   1.696   0.380   7.470
 5981TIP3    H239503   1.810   0.348   7.376
 5982TIP3   OH239504   4.139   4.008   0.522
 5982TIP3    H139505   4.109   3.936   0.467
 5982TIP3    H239506   4.206   4.051   0.470
 5983TIP3   OH239507   1.439   5.692   6.411
 5983TIP3    H139508   1.393   5.771   6.381
 5983TIP3    H239509   1.507   5.725   6.469
 5984TIP3   OH239510   0.327   1.166   0.568
 5984TIP3    H139511   0.244   1.213   0.577
 5984TIP3    H239512   0.340   1.124   0.653
 5985TIP3   OH239513   3.637   4.948   0.119
 5985TIP3    H139514   3.718   4.984   0.084
 5985TIP3    H239515   3.650   4.945   0.213
 5986TIP3   OH239516   3.257   3.060   1.795
 5986TIP3    H139517   3.286   3.095   1.879
 5986TIP3    H239518   3.292   2.971   1.793
 5987TIP3   OH239519   2.590   6.103   8.279
 5987TIP3    H139520   2.662   6.068   8.227
 5987TIP3    H239521   2.553   6.026   8.322
 5988TIP3   OH239522   6.500   5.293   7.341
 5988TIP3    H139523   6.588   5.253   7.345
 5988TIP3    H239524   6.477   5.309   7.432
 5989TIP3   OH239525   2.358   0.883   1.023
 5989TIP3    H139526   2.439   0.850   1.061
 5989TIP3    H239527   2.385   0.959   0.971
 5990TIP3   OH239528   5.598   6.076   1.325
 5990TIP3    H139529   5.552   6.159   1.332
 5990TIP3    H239530   5.528   6.011   1.314
 5991TIP3   OH239531   2.671   3.329   0.783
 5991TIP3    H139532   2.576   3.322   0.774
 5991TIP3    H239533   2.684   3.371   0.868
 5992TIP3   OH239534   1.876   0.688   1.215
 5992TIP3    H139535   1.859   0.769   1.167
 5992TIP3    H239536   1.788   0.654   1.235
 5993TIP3   OH239537   5.979   3.929   0.386
 5993TIP3    H139538   6.050   3.985   0.418
 5993TIP3    H239539   5.900   3.962   0.429
 5994TIP3   OH239540   0.432   0.865   1.075
 5994TIP3    H139541   0.374   0.793   1.049
 5994TIP3    H239542   0.519   0.827   1.075
 5995TIP3   OH239543   2.875   0.972   6.884
 5995TIP3    H139544   2.920   0.888   6.898
 5995TIP3    H239545   2.934   1.021   6.826
 5996TIP3   OH239546   5.677   3.766   1.637
 5996TIP3    H139547   5.628   3.811   1.705
 5996TIP3    H239548   5.619   3.697   1.606
 5997TIP3   OH239549   4.913   6.480   7.618
 5997TIP3    H139550   4.919   6.569   7.653
 5997TIP3    H239551   4.946   6.424   7.689
 5998TIP3   OH239552   6.396   0.800   6.652
 5998TIP3    H139553   6.422   0.851   6.729
 5998TIP3    H239554   6.308   0.830   6.632
 5999TIP3   OH239555   4.237   0.393   2.326
 5999TIP3    H139556   4.315   0.349   2.363
 5999TIP3    H239557   4.170   0.325   2.326
 6000TIP3   OH239558   1.554   4.866   0.620
 6000TIP3    H139559   1.488   4.798   0.630
 6000TIP3    H239560   1.544   4.921   0.698
 6001TIP3   OH239561   6.594   3.882   0.280
 6001TIP3    H139562   6.613   3.803   0.330
 6001TIP3    H239563   6.668   3.940   0.297
 6002TIP3   OH239564   3.524   4.443   2.404
 6002TIP3    H139565   3.559   4.531   2.418
 6002TIP3    H239566   3.586   4.385   2.450
 6003TIP3   OH239567   3.911   1.886   1.924
 6003TIP3    H139568   4.006   1.876   1.928
 6003TIP3    H239569   3.897   1.980   1.908
 6004TIP3   OH239570   3.730   2.958   0.375
 6004TIP3    H139571   3.664   2.889   0.371
 6004TIP3    H239572   3.687   3.030   0.421
 6005TIP3   OH239573   1.411   5.250   0.705
 6005TIP3    H139574   1.453   5.307   0.770
 6005TIP3    H239575   1.392   5.169   0.751
 6006TIP3   OH239576   5.407   2.839   0.765
 6006TIP3    H139577   5.464   2.855   0.690
 6006TIP3    H239578   5.361   2.922   0.779
 6007TIP3   OH239579   1.016   2.984   7.367
 6007TIP3    H139580   0.979   3.023   7.287
 6007TIP3    H239581   1.003   3.051   7.434
 6008TIP3   OH239582   5.217   0.215   1.100
 6008TIP3    H139583   5.132   0.236   1.061
 6008TIP3    H239584   5.213   0.121   1.117
 6009TIP3   OH239585   2.888   2.191   7.131
 6009TIP3    H139586   2.864   2.131   7.060
 6009TIP3    H239587   2.967   2.235   7.100
 6010TIP3   OH239588   2.516   0.706   0.083
 6010TIP3    H139589   2.504   0.754   0.166
 6010TIP3    H239590   2.445   0.642   0.082
 6011TIP3   OH239591   3.519   5.579   0.763
 6011TIP3    H139592   3.571   5.509   0.725
 6011TIP3    H239593   3.572   5.611   0.836
 6012TIP3   OH239594   1.996   2.874   8.312
 6012TIP3    H139595   2.079   2.841   8.278
 6012TIP3    H239596   1.956   2.921   8.238
 6013TIP3   OH239597   0.512   3.106   0.408
 6013TIP3    H139598   0.440   3.052   0.442
 6013TIP3    H239599   0.569   3.045   0.362
 6014TIP3   OH239600   0.884   6.202   8.514
 6014TIP3    H139601   0.936   6.127   8.543
 6014TIP3    H239602   0.841   6.232   8.593
 6015TIP3   OH239603   4.829   4.985   8.384
 6015TIP3    H139604   4.819   5.075   8.352
 6015TIP3    H239605   4.924   4.969   8.380
 6016TIP3   OH239606   6.452   3.759   0.023
 6016TIP3    H139607   6.470   3.807   0.104
 6016TIP3    H239608   6.538   3.752   8.694
 6017TIP3   OH239609   2.692   5.586   1.239
 6017TIP3    H139610   2.662   5.674   1.264
 6017TIP3    H239611   2.785   5.585   1.258
 6018TIP3   OH239612   4.417   0.578   1.838
 6018TIP3    H139613   4.370   0.541   1.914
 6018TIP3    H239614   4.353   0.574   1.767
 6019TIP3   OH239615   2.217   6.627   1.884
 6019TIP3    H139616   2.233   6.588   1.970
 6019TIP3    H239617   2.305   6.639   1.847
 6020TIP3   OH239618   4.540   1.336   8.653
 6020TIP3    H139619   4.543   1.415   8.601
 6020TIP3    H239620   4.460   1.291   8.626
 6021TIP3   OH239621   3.833   1.927   1.616
 6021TIP3    H139622   3.822   2.022   1.610
 6021TIP3    H239623   3.927   1.913   1.613
 6022TIP3   OH239624   0.299   2.478   8.563
 6022TIP3    H139625   0.295   2.566   8.601
 6022TIP3    H239626   0.391   2.465   8.543
 6023TIP3   OH239627   0.791   6.643   0.647
 6023TIP3    H139628   0.719   6.620   0.588
 6023TIP3    H239629   0.775   6.734   0.671
 6024TIP3   OH239630   1.848   6.363   6.897
 6024TIP3    H139631   1.769   6.399   6.938
 6024TIP3    H239632   1.833   6.269   6.893
 6025TIP3   OH239633   1.073   2.228   6.610
 6025TIP3    H139634   1.122   2.151   6.580
 6025TIP3    H239635   1.137   2.281   6.657
 6026TIP3   OH239636   3.871   6.366   1.757
 6026TIP3    H139637   3.912   6.315   1.827
 6026TIP3    H239638   3.779   6.341   1.761
 6027TIP3   OH239639   6.552   5.515   8.072
 6027TIP3    H139640   6.500   5.593   8.050
 6027TIP3    H239641   6.493   5.442   8.053
 6028TIP3   OH239642   2.226   1.194   0.316
 6028TIP3    H139643   2.183   1.231   0.394
 6028TIP3    H239644   2.182   1.236   0.243
 6029TIP3   OH239645   5.995   4.895   0.142
 6029TIP3    H139646   6.030   4.808   0.123
 6029TIP3    H239647   5.975   4.932   0.056
 6030TIP3   OH239648   0.858   0.103   6.349
 6030TIP3    H139649   0.797   0.066   6.413
 6030TIP3    H239650   0.825   0.192   6.334
 6031TIP3   OH239651   5.528   0.316   7.450
 6031TIP3    H139652   5.519   0.266   7.369
 6031TIP3    H239653   5.471   0.392   7.438
 6032TIP3   OH239654   4.761   2.783   0.283
 6032TIP3    H139655   4.735   2.691   0.283
 6032TIP3    H239656   4.700   2.825   0.222
 6033TIP3   OH239657   4.519   4.572   7.368
 6033TIP3    H139658   4.572   4.647   7.342
 6033TIP3    H239659   4.499   4.587   7.460
 6034TIP3   OH239660   5.025   0.202   0.360
 6034TIP3    H139661   5.031   0.253   0.279
 6034TIP3    H239662   4.933   0.179   0.367
 6035TIP3   OH239663   5.067   0.760   7.674
 6035TIP3    H139664   5.073   0.848   7.635
 6035TIP3    H239665   5.131   0.709   7.627
 6036TIP3   OH239666   0.272   2.528   1.905
 6036TIP3    H139667   0.312   2.585   1.970
 6036TIP3    H239668   0.346   2.492   1.856
 6037TIP3   OH239669   6.495   6.303   8.078
 6037TIP3    H139670   6.471   6.215   8.050
 6037TIP3    H239671   6.527   6.346   7.999
 6038TIP3   OH239672   0.351   0.837   0.391
 6038TIP3    H139673   0.304   0.896   0.332
 6038TIP3    H239674   0.436   0.824   0.349
 6039TIP3   OH239675   1.127   4.302   0.846
 6039TIP3    H139676   1.045   4.263   0.818
 6039TIP3    H239677   1.102   4.381   0.894
 6040TIP3   OH239678   1.509   1.360   0.486
 6040TIP3    H139679   1.582   1.357   0.548
 6040TIP3    H239680   1.448   1.293   0.519
 6041TIP3   OH239681   1.941   5.623   2.527
 6041TIP3    H139682   2.013   5.588   2.476
 6041TIP3    H239683   1.982   5.663   2.603
 6042TIP3   OH239684   4.304   4.144   7.363
 6042TIP3    H139685   4.298   4.055   7.329
 6042TIP3    H239686   4.392   4.173   7.339
 6043TIP3   OH239687   2.824   5.613   7.203
 6043TIP3    H139688   2.758   5.673   7.169
 6043TIP3    H239689   2.850   5.560   7.127
 6044TIP3   OH239690   1.879   1.120   8.082
 6044TIP3    H139691   1.936   1.091   8.010
 6044TIP3    H239692   1.920   1.201   8.114
 6045TIP3   OH239693   6.303   0.578   6.760
 6045TIP3    H139694   6.325   0.655   6.708
 6045TIP3    H239695   6.303   0.610   6.851
 6046TIP3   OH239696   6.034   5.656   0.245
 6046TIP3    H139697   5.966   5.681   0.182
 6046TIP3    H239698   6.116   5.673   0.199
 6047TIP3   OH239699   0.327   4.509   0.256
 6047TIP3    H139700   0.244   4.552   0.235
 6047TIP3    H239701   0.339   4.526   0.350
 6048TIP3   OH239702   6.381   2.060   7.417
 6048TIP3    H139703   6.467   2.062   7.460
 6048TIP3    H239704   6.400   2.064   7.324
 6049TIP3   OH239705   6.824   4.666   1.115
 6049TIP3    H139706   0.036   4.593   1.085
 6049TIP3    H239707   6.748   4.623   1.154
 6050TIP3   OH239708   5.608   1.774   7.347
 6050TIP3    H139709   5.655   1.750   7.427
 6050TIP3    H239710   5.645   1.716   7.280
 6051TIP3   OH239711   1.766   6.228   1.888
 6051TIP3    H139712   1.830   6.279   1.938
 6051TIP3    H239713   1.688   6.225   1.945
 6052TIP3   OH239714   2.332   6.331   1.544
 6052TIP3    H139715   2.392   6.305   1.474
 6052TIP3    H239716   2.323   6.253   1.599
 6053TIP3   OH239717   1.229   4.792   0.320
 6053TIP3    H139718   1.223   4.700   0.295
 6053TIP3    H239719   1.166   4.802   0.391
 6054TIP3   OH239720   2.948   3.451   1.295
 6054TIP3    H139721   2.873   3.395   1.272
 6054TIP3    H239722   2.909   3.537   1.311
 6055TIP3   OH239723   2.409   0.945   7.775
 6055TIP3    H139724   2.399   0.992   7.858
 6055TIP3    H239725   2.456   0.865   7.799
 6056TIP3   OH239726   3.868   4.413   0.527
 6056TIP3    H139727   3.811   4.388   0.454
 6056TIP3    H239728   3.936   4.467   0.487
 6057TIP3   OH239729   0.366   0.329   1.293
 6057TIP3    H139730   0.366   0.412   1.342
 6057TIP3    H239731   0.440   0.280   1.329
 6058TIP3   OH239732   4.572   3.987   0.573
 6058TIP3    H139733   4.517   4.033   0.636
 6058TIP3    H239734   4.586   3.900   0.612
 6059TIP3   OH239735   3.907   3.792   7.479
 6059TIP3    H139736   3.886   3.701   7.499
 6059TIP3    H239737   3.995   3.804   7.514
 6060TIP3   OH239738   4.927   5.411   0.798
 6060TIP3    H139739   4.846   5.461   0.797
 6060TIP3    H239740   4.964   5.423   0.711
 6061TIP3   OH239741   1.608   4.086   1.051
 6061TIP3    H139742   1.685   4.055   1.004
 6061TIP3    H239743   1.554   4.128   0.984
 6062TIP3   OH239744   6.182   3.978   7.832
 6062TIP3    H139745   6.124   4.051   7.855
 6062TIP3    H239746   6.222   4.005   7.749
 6063TIP3   OH239747   5.778   5.944   2.442
 6063TIP3    H139748   5.786   6.022   2.496
 6063TIP3    H239749   5.748   5.976   2.357
 6064TIP3   OH239750   5.493   3.251   8.071
 6064TIP3    H139751   5.545   3.330   8.089
 6064TIP3    H239752   5.402   3.281   8.080
 6065TIP3   OH239753   3.812   4.566   7.634
 6065TIP3    H139754   3.892   4.518   7.658
 6065TIP3    H239755   3.772   4.512   7.566
 6066TIP3   OH239756   4.094   2.817   0.356
 6066TIP3    H139757   4.113   2.728   0.326
 6066TIP3    H239758   4.031   2.805   0.427
 6067TIP3   OH239759   0.185   5.012   8.260
 6067TIP3    H139760   0.278   5.002   8.240
 6067TIP3    H239761   0.160   5.094   8.218
 6068TIP3   OH239762   0.351   4.286   8.156
 6068TIP3    H139763   0.263   4.324   8.156
 6068TIP3    H239764   0.340   4.202   8.111
 6069TIP3   OH239765   1.893   3.623   6.257
 6069TIP3    H139766   1.868   3.578   6.338
 6069TIP3    H239767   1.872   3.561   6.187
 6070TIP3   OH239768   5.327   4.167   6.638
 6070TIP3    H139769   5.420   4.179   6.617
 6070TIP3    H239770   5.297   4.254   6.663
 6071TIP3   OH239771   2.692   5.061   7.528
 6071TIP3    H139772   2.646   4.991   7.483
 6071TIP3    H239773   2.785   5.044   7.510
 6072TIP3   OH239774   2.747   2.418   2.447
 6072TIP3    H139775   2.687   2.470   2.394
 6072TIP3    H239776   2.708   2.330   2.449
 6073TIP3   OH239777   2.268   2.303   7.104
 6073TIP3    H139778   2.190   2.351   7.131
 6073TIP3    H239779   2.276   2.321   7.010
 6074TIP3   OH239780   4.319   2.388   2.529
 6074TIP3    H139781   4.309   2.333   2.451
 6074TIP3    H239782   4.412   2.413   2.528
 6075TIP3   OH239783   2.182   0.233   6.894
 6075TIP3    H139784   2.235   0.299   6.849
 6075TIP3    H239785   2.093   0.267   6.890
 6076TIP3   OH239786   0.450   6.305   8.375
 6076TIP3    H139787   0.392   6.367   8.419
 6076TIP3    H239788   0.490   6.254   8.445
 6077TIP3   OH239789   3.625   0.707   0.707
 6077TIP3    H139790   3.597   0.651   0.634
 6077TIP3    H239791   3.682   0.772   0.666
 6078TIP3   OH239792   4.287   5.327   8.029
 6078TIP3    H139793   4.200   5.299   8.000
 6078TIP3    H239794   4.343   5.317   7.952
 6079TIP3   OH239795   0.208   0.650   1.760
 6079TIP3    H139796   0.134   0.697   1.724
 6079TIP3    H239797   0.169   0.584   1.817
 6080TIP3   OH239798   0.137   2.462   6.494
 6080TIP3    H139799   0.135   2.367   6.506
 6080TIP3    H239800   0.121   2.498   6.581
 6081TIP3   OH239801   6.565   2.315   2.280
 6081TIP3    H139802   6.486   2.303   2.227
 6081TIP3    H239803   6.546   2.390   2.336
 6082TIP3   OH239804   5.388   3.262   0.638
 6082TIP3    H139805   5.395   3.301   0.551
 6082TIP3    H239806   5.478   3.251   0.667
 6083TIP3   OH239807   5.935   1.475   7.491
 6083TIP3    H139808   5.948   1.512   7.404
 6083TIP3    H239809   6.020   1.483   7.534
 6084TIP3   OH239810   2.199   4.625   0.719
 6084TIP3    H139811   2.207   4.558   0.786
 6084TIP3    H239812   2.249   4.699   0.753
 6085TIP3   OH239813   3.260   1.801   2.635
 6085TIP3    H139814   3.243   1.892   2.661
 6085TIP3    H239815   3.203   1.786   2.560
 6086TIP3   OH239816   0.059   3.098   8.359
 6086TIP3    H139817   0.092   3.073   8.273
 6086TIP3    H239818   6.836   3.166   8.341
 6087TIP3   OH239819   2.597   1.061   0.902
 6087TIP3    H139820   2.626   0.971   0.918
 6087TIP3    H239821   2.637   1.112   0.972
 6088TIP3   OH239822   2.117   3.170   6.562
 6088TIP3    H139823   2.026   3.152   6.586
 6088TIP3    H239824   2.141   3.097   6.504
 6089TIP3   OH239825   1.224   0.273   6.971
 6089TIP3    H139826   1.219   0.368   6.958
 6089TIP3    H239827   1.164   0.237   6.907
 6090TIP3   OH239828   2.402   3.515   6.897
 6090TIP3    H139829   2.372   3.426   6.881
 6090TIP3    H239830   2.383   3.531   6.989
 6091TIP3   OH239831   0.914   5.834   6.335
 6091TIP3    H139832   0.866   5.862   6.256
 6091TIP3    H239833   0.998   5.802   6.302
 6092TIP3   OH239834   0.586   1.971   0.335
 6092TIP3    H139835   0.667   1.936   0.300
 6092TIP3    H239836   0.613   2.050   0.383
 6093TIP3   OH239837   4.615   1.486   0.883
 6093TIP3    H139838   4.567   1.412   0.847
 6093TIP3    H239839   4.664   1.521   0.809
 6094TIP3   OH239840   2.890   5.462   2.025
 6094TIP3    H139841   2.930   5.548   2.036
 6094TIP3    H239842   2.964   5.403   2.015
 6095TIP3   OH239843   0.356   5.964   0.624
 6095TIP3    H139844   0.412   5.941   0.698
 6095TIP3    H239845   0.293   6.026   0.660
 6096TIP3   OH239846   0.307   4.840   0.992
 6096TIP3    H139847   0.231   4.872   0.944
 6096TIP3    H239848   0.366   4.915   0.999
 6097TIP3   OH239849   0.637   6.122   1.948
 6097TIP3    H139850   0.620   6.147   1.857
 6097TIP3    H239851   0.644   6.027   1.946
 6098TIP3   OH239852   3.577   4.567   6.567
 6098TIP3    H139853   3.584   4.518   6.649
 6098TIP3    H239854   3.666   4.598   6.551
 6099TIP3   OH239855   6.304   4.855   7.832
 6099TIP3    H139856   6.291   4.922   7.899
 6099TIP3    H239857   6.332   4.778   7.881
 6100TIP3   OH239858   6.486   5.904   1.634
 6100TIP3    H139859   6.439   5.849   1.572
 6100TIP3    H239860   6.498   5.849   1.712
 6101TIP3   OH239861   5.474   5.006   2.047
 6101TIP3    H139862   5.435   5.092   2.032
 6101TIP3    H239863   5.458   4.989   2.140
 6102TIP3   OH239864   6.278   2.173   0.590
 6102TIP3    H139865   6.341   2.230   0.635
 6102TIP3    H239866   6.269   2.211   0.503
 6103TIP3   OH239867   1.205   3.875   0.368
 6103TIP3    H139868   1.247   3.822   0.436
 6103TIP3    H239869   1.130   3.915   0.412
 6104TIP3   OH239870   6.374   1.351   0.759
 6104TIP3    H139871   6.322   1.396   0.692
 6104TIP3    H239872   6.312   1.290   0.800
 6105TIP3   OH239873   4.955   4.742   7.747
 6105TIP3    H139874   4.907   4.681   7.691
 6105TIP3    H239875   5.038   4.756   7.701
 6106TIP3   OH239876   2.879   3.389   1.633
 6106TIP3    H139877   2.925   3.306   1.641
 6106TIP3    H239878   2.788   3.364   1.616
 6107TIP3   OH239879   1.408   6.020   0.839
 6107TIP3    H139880   1.348   5.974   0.898
 6107TIP3    H239881   1.401   6.112   0.866
 6108TIP3   OH239882   6.617   6.314   1.297
 6108TIP3    H139883   6.687   6.293   1.236
 6108TIP3    H239884   6.628   6.252   1.369
 6109TIP3   OH239885   3.256   6.368   2.202
 6109TIP3    H139886   3.215   6.453   2.221
 6109TIP3    H239887   3.201   6.305   2.248
 6110TIP3   OH239888   6.116   2.341   6.978
 6110TIP3    H139889   6.131   2.255   7.018
 6110TIP3    H239890   6.115   2.402   7.052
 6111TIP3   OH239891   0.553   0.830   6.620
 6111TIP3    H139892   0.463   0.813   6.650
 6111TIP3    H239893   0.588   0.893   6.684
 6112TIP3   OH239894   3.481   2.004   0.873
 6112TIP3    H139895   3.479   1.952   0.792
 6112TIP3    H239896   3.572   1.999   0.902
 6113TIP3   OH239897   3.514   6.588   6.920
 6113TIP3    H139898   3.508   6.506   6.871
 6113TIP3    H239899   3.462   6.650   6.868
 6114TIP3   OH239900   3.925   0.050   0.832
 6114TIP3    H139901   3.830   0.046   0.831
 6114TIP3    H239902   3.949   0.094   0.750
 6115TIP3   OH239903   1.645   1.477   7.453
 6115TIP3    H139904   1.682   1.494   7.366
 6115TIP3    H239905   1.713   1.426   7.498
 6116TIP3   OH239906   1.178   5.798   6.258
 6116TIP3    H139907   1.219   5.763   6.179
 6116TIP3    H239908   1.242   5.861   6.292
 6117TIP3   OH239909   4.304   6.054   7.304
 6117TIP3    H139910   4.310   5.990   7.233
 6117TIP3    H239911   4.217   6.042   7.341
 6118TIP3   OH239912   1.836   6.184   7.850
 6118TIP3    H139913   1.806   6.231   7.928
 6118TIP3    H239914   1.783   6.219   7.779
 6119TIP3   OH239915   2.206   0.484   6.741
 6119TIP3    H139916   2.184   0.568   6.782
 6119TIP3    H239917   2.126   0.458   6.696
 6120TIP3   OH239918   2.116   2.941   7.489
 6120TIP3    H139919   2.138   3.030   7.514
 6120TIP3    H239920   2.040   2.951   7.430
 6121TIP3   OH239921   5.735   1.655   1.084
 6121TIP3    H139922   5.677   1.607   1.143
 6121TIP3    H239923   5.819   1.656   1.130
 6122TIP3   OH239924   6.029   1.506   8.705
 6122TIP3    H139925   6.107   1.513   0.047
 6122TIP3    H239926   5.958   1.542   0.045
 6123TIP3   OH239927   5.491   3.449   0.434
 6123TIP3    H139928   5.581   3.420   0.418
 6123TIP3    H239929   5.440   3.407   0.364
 6124TIP3   OH239930   0.553   2.975   1.962
 6124TIP3    H139931   0.588   2.947   2.047
 6124TIP3    H239932   0.601   2.923   1.898
 6125TIP3   OH239933   1.542   0.482   1.769
 6125TIP3    H139934   1.624   0.492   1.721
 6125TIP3    H239935   1.568   0.477   1.861
 6126TIP3   OH239936   0.592   3.436   2.241
 6126TIP3    H139937   0.567   3.476   2.158
 6126TIP3    H239938   0.510   3.408   2.281
 6127TIP3   OH239939   2.776   1.524   0.898
 6127TIP3    H139940   2.832   1.602   0.898
 6127TIP3    H239941   2.812   1.469   0.829
 6128TIP3   OH239942   0.236   0.166   7.112
 6128TIP3    H139943   0.186   0.199   7.037
 6128TIP3    H239944   0.314   0.126   7.073
 6129TIP3   OH239945   2.610   5.365   1.397
 6129TIP3    H139946   2.633   5.446   1.352
 6129TIP3    H239947   2.620   5.385   1.490
 6130TIP3   OH239948   1.053   5.786   7.326
 6130TIP3    H139949   1.017   5.869   7.356
 6130TIP3    H239950   0.988   5.721   7.353
 6131TIP3   OH239951   1.907   0.824   0.070
 6131TIP3    H139952   1.858   0.743   0.083
 6131TIP3    H239953   1.970   0.802   0.000
 6132TIP3   OH239954   3.347   3.200   7.551
 6132TIP3    H139955   3.372   3.233   7.637
 6132TIP3    H239956   3.257   3.230   7.538
 6133TIP3   OH239957   1.220   2.510   0.187
 6133TIP3    H139958   1.290   2.528   0.250
 6133TIP3    H239959   1.139   2.517   0.239
 6134TIP3   OH239960   5.214   5.807   8.409
 6134TIP3    H139961   5.276   5.857   8.357
 6134TIP3    H239962   5.210   5.722   8.366
 6135TIP3   OH239963   1.773   5.062   0.627
 6135TIP3    H139964   1.816   4.995   0.681
 6135TIP3    H239965   1.779   5.142   0.680
 6136TIP3   OH239966   1.475   1.610   0.376
 6136TIP3    H139967   1.558   1.627   0.331
 6136TIP3    H239968   1.476   1.516   0.394
 6137TIP3   OH239969   3.216   2.078   2.661
 6137TIP3    H139970   3.292   2.095   2.606
 6137TIP3    H239971   3.147   2.134   2.625
 6138TIP3   OH239972   3.317   4.664   7.542
 6138TIP3    H139973   3.398   4.705   7.513
 6138TIP3    H239974   3.337   4.629   7.629
 6139TIP3   OH239975   0.653   1.454   8.663
 6139TIP3    H139976   0.597   1.376   8.658
 6139TIP3    H239977   0.591   1.526   8.678
 6140TIP3   OH239978   3.420   5.692   8.187
 6140TIP3    H139979   3.468   5.701   8.269
 6140TIP3    H239980   3.381   5.779   8.172
 6141TIP3   OH239981   4.992   4.716   0.201
 6141TIP3    H139982   4.933   4.652   0.242
 6141TIP3    H239983   5.047   4.747   0.272
 6142TIP3   OH239984   6.208   2.723   0.509
 6142TIP3    H139985   6.191   2.816   0.524
 6142TIP3    H239986   6.157   2.701   0.430
 6143TIP3   OH239987   3.672   3.350   0.037
 6143TIP3    H139988   3.727   3.417   8.709
 6143TIP3    H239989   3.645   3.293   8.678
 6144TIP3   OH239990   2.557   6.444   8.467
 6144TIP3    H139991   2.488   6.425   8.404
 6144TIP3    H239992   2.512   6.475   8.545
 6145TIP3   OH239993   5.093   1.114   0.591
 6145TIP3    H139994   5.027   1.179   0.566
 6145TIP3    H239995   5.149   1.160   0.654
 6146TIP3   OH239996   2.299   2.282   6.797
 6146TIP3    H139997   2.283   2.218   6.727
 6146TIP3    H239998   2.392   2.271   6.818
 6147TIP3   OH239999   2.452   1.847   1.809
 6147TIP3    H140000   2.476   1.800   1.728
 6147TIP3    H240001   2.356   1.849   1.808
 6148TIP3   OH240002   0.481   1.583   7.808
 6148TIP3    H140003   0.497   1.513   7.744
 6148TIP3    H240004   0.390   1.569   7.836
 6149TIP3   OH240005   5.452   5.256   0.026
 6149TIP3    H140006   5.417   5.344   0.035
 6149TIP3    H240007   5.476   5.248   8.647
 6150TIP3   OH240008   5.912   5.903   1.089
 6150TIP3    H140009   6.006   5.920   1.081
 6150TIP3    H240010   5.879   5.976   1.142
 6151TIP3   OH240011   6.429   4.813   6.341
 6151TIP3    H140012   6.433   4.907   6.324
 6151TIP3    H240013   6.512   4.778   6.309
 6152TIP3   OH240014   3.885   2.423   0.457
 6152TIP3    H140015   3.839   2.424   0.540
 6152TIP3    H240016   3.965   2.473   0.473
 6153TIP3   OH240017   4.124   5.136   7.917
 6153TIP3    H140018   4.117   5.061   7.977
 6153TIP3    H240019   4.170   5.102   7.841
 6154TIP3   OH240020   5.949   4.789   0.456
 6154TIP3    H140021   5.902   4.871   0.441
 6154TIP3    H240022   5.937   4.739   0.375
 6155TIP3   OH240023   6.384   0.352   7.610
 6155TIP3    H140024   6.427   0.303   7.680
 6155TIP3    H240025   6.311   0.396   7.653
 6156TIP3   OH240026   0.180   5.517   0.924
 6156TIP3    H140027   0.198   5.607   0.898
 6156TIP3    H240028   0.182   5.519   1.020
 6157TIP3   OH240029   0.944   6.604   0.947
 6157TIP3    H140030   0.953   6.565   1.034
 6157TIP3    H240031   0.849   6.614   0.934
 6158TIP3   OH240032   5.095   6.583   2.430
 6158TIP3    H140033   5.109   6.643   2.356
 6158TIP3    H240034   5.008   6.605   2.462
 6159TIP3   OH240035   5.655   2.741   1.699
 6159TIP3    H140036   5.576   2.796   1.701
 6159TIP3    H240037   5.706   2.769   1.775
 6160TIP3   OH240038   4.845   4.767   1.304
 6160TIP3    H140039   4.788   4.691   1.297
 6160TIP3    H240040   4.787   4.839   1.330
 6161TIP3   OH240041   6.034   2.141   6.331
 6161TIP3    H140042   6.066   2.227   6.306
 6161TIP3    H240043   6.071   2.081   6.265
 6162TIP3   OH240044   1.772   5.430   1.449
 6162TIP3    H140045   1.682   5.427   1.480
 6162TIP3    H240046   1.801   5.520   1.468
 6163TIP3   OH240047   4.134   2.710   1.857
 6163TIP3    H140048   4.117   2.771   1.785
 6163TIP3    H240049   4.053   2.710   1.908
 6164TIP3   OH240050   1.162   3.336   1.776
 6164TIP3    H140051   1.227   3.281   1.819
 6164TIP3    H240052   1.202   3.423   1.773
 6165TIP3   OH240053   1.739   3.169   0.880
 6165TIP3    H140054   1.735   3.073   0.886
 6165TIP3    H240055   1.663   3.192   0.827
 6166TIP3   OH240056   1.312   0.697   1.859
 6166TIP3    H140057   1.273   0.717   1.943
 6166TIP3    H240058   1.406   0.709   1.872
 6167TIP3   OH240059   5.574   4.991   8.574
 6167TIP3    H140060   5.480   4.990   8.592
 6167TIP3    H240061   5.585   4.927   8.503
 6168TIP3   OH240062   5.744   3.017   0.770
 6168TIP3    H140063   5.767   2.943   0.827
 6168TIP3    H240064   5.754   2.983   0.681
 6169TIP3   OH240065   1.767   6.363   1.395
 6169TIP3    H140066   1.805   6.334   1.478
 6169TIP3    H240067   1.830   6.335   1.329
 6170TIP3   OH240068   3.410   5.048   8.580
 6170TIP3    H140069   3.428   5.124   8.635
 6170TIP3    H240070   3.397   5.083   8.492
 6171TIP3   OH240071   3.762   5.828   7.201
 6171TIP3    H140072   3.756   5.918   7.234
 6171TIP3    H240073   3.808   5.836   7.117
 6172TIP3   OH240074   0.268   6.797   1.203
 6172TIP3    H140075   0.323   6.730   1.243
 6172TIP3    H240076   0.180   6.779   1.238
 6173TIP3   OH240077   2.906   5.125   1.547
 6173TIP3    H140078   2.815   5.094   1.542
 6173TIP3    H240079   2.936   5.097   1.633
 6174TIP3   OH240080   2.972   0.084   0.564
 6174TIP3    H140081   3.051   0.136   0.578
 6174TIP3    H240082   2.972   0.066   0.470
 6175TIP3   OH240083   0.482   4.970   6.547
 6175TIP3    H140084   0.519   4.895   6.501
 6175TIP3    H240085   0.407   4.934   6.595
 6176TIP3   OH240086   4.237   0.882   1.950
 6176TIP3    H140087   4.208   0.850   1.864
 6176TIP3    H240088   4.234   0.805   2.007
 6177TIP3   OH240089   6.327   5.963   0.451
 6177TIP3    H140090   6.293   6.051   0.464
 6177TIP3    H240091   6.289   5.912   0.523
 6178TIP3   OH240092   4.434   1.911   1.493
 6178TIP3    H140093   4.468   1.925   1.405
 6178TIP3    H240094   4.478   1.832   1.524
 6179TIP3   OH240095   4.860   0.922   8.517
 6179TIP3    H140096   4.894   0.887   8.435
 6179TIP3    H240097   4.848   1.016   8.500
 6180TIP3   OH240098   0.275   5.914   7.092
 6180TIP3    H140099   0.286   5.822   7.067
 6180TIP3    H240100   0.255   5.912   7.185
 6181TIP3   OH240101   4.693   1.750   1.839
 6181TIP3    H140102   4.758   1.813   1.873
 6181TIP3    H240103   4.707   1.671   1.891
 6182TIP3   OH240104   1.012   1.649   6.535
 6182TIP3    H140105   1.094   1.671   6.490
 6182TIP3    H240106   1.011   1.706   6.612
 6183TIP3   OH240107   2.505   3.683   0.496
 6183TIP3    H140108   2.472   3.765   0.458
 6183TIP3    H240109   2.496   3.696   0.591
 6184TIP3   OH240110   6.033   0.596   6.823
 6184TIP3    H140111   6.036   0.682   6.864
 6184TIP3    H240112   6.123   0.577   6.800
 6185TIP3   OH240113   2.394   1.711   0.066
 6185TIP3    H140114   2.467   1.649   0.072
 6185TIP3    H240115   2.404   1.768   0.142
 6186TIP3   OH240116   1.857   4.255   1.001
 6186TIP3    H140117   1.794   4.274   0.931
 6186TIP3    H240118   1.878   4.162   0.990
 6187TIP3   OH240119   5.457   1.746   8.514
 6187TIP3    H140120   5.455   1.813   8.446
 6187TIP3    H240121   5.499   1.670   8.473
 6188TIP3   OH240122   6.058   2.103   8.307
 6188TIP3    H140123   5.997   2.132   8.374
 6188TIP3    H240124   6.138   2.151   8.325
 6189TIP3   OH240125   2.344   3.096   1.763
 6189TIP3    H140126   2.405   3.153   1.809
 6189TIP3    H240127   2.399   3.030   1.721
 6190TIP3   OH240128   4.320   6.170   0.010
 6190TIP3    H140129   4.304   6.255   0.050
 6190TIP3    H240130   4.414   6.171   8.701
 6191TIP3   OH240131   1.352   2.981   7.433
 6191TIP3    H140132   1.333   3.073   7.452
 6191TIP3    H240133   1.267   2.943   7.408
 6192TIP3   OH240134   4.780   6.800   6.121
 6192TIP3    H140135   4.868   6.838   6.118
 6192TIP3    H240136   4.781   6.743   6.198
 6193TIP3   OH240137   5.986   1.876   8.633
 6193TIP3    H140138   5.923   1.809   8.607
 6193TIP3    H240139   6.071   1.834   8.622
 6194TIP3   OH240140   5.415   1.093   0.287
 6194TIP3    H140141   5.400   1.182   0.317
 6194TIP3    H240142   5.415   1.099   0.191
 6195TIP3   OH240143   1.060   5.001   2.104
 6195TIP3    H140144   1.118   4.928   2.124
 6195TIP3    H240145   0.973   4.972   2.130
 6196TIP3   OH240146   0.886   4.595   1.949
 6196TIP3    H140147   0.976   4.625   1.934
 6196TIP3    H240148   0.868   4.618   2.040
 6197TIP3   OH240149   6.695   4.897   1.030
 6197TIP3    H140150   6.678   4.949   1.109
 6197TIP3    H240151   6.746   4.822   1.061
 6198TIP3   OH240152   3.133   2.415   0.406
 6198TIP3    H140153   3.200   2.457   0.353
 6198TIP3    H240154   3.163   2.324   0.416
 6199TIP3   OH240155   0.964   3.164   7.608
 6199TIP3    H140156   0.902   3.156   7.681
 6199TIP3    H240157   0.999   3.253   7.616
 6200TIP3   OH240158   2.766   4.559   1.110
 6200TIP3    H140159   2.853   4.576   1.076
 6200TIP3    H240160   2.764   4.465   1.128
 6201TIP3   OH240161   2.759   2.167   8.111
 6201TIP3    H140162   2.813   2.211   8.045
 6201TIP3    H240163   2.763   2.074   8.086
 6202TIP3   OH240164   4.994   2.006   2.426
 6202TIP3    H140165   4.921   2.053   2.468
 6202TIP3    H240166   4.955   1.968   2.347
 6203TIP3   OH240167   0.230   5.838   1.899
 6203TIP3    H140168   0.195   5.761   1.853
 6203TIP3    H240169   0.248   5.902   1.829
 6204TIP3   OH240170   5.422   1.472   7.240
 6204TIP3    H140171   5.495   1.421   7.273
 6204TIP3    H240172   5.387   1.421   7.167
 6205TIP3   OH240173   0.337   4.266   0.109
 6205TIP3    H140174   0.289   4.231   0.034
 6205TIP3    H240175   0.300   4.353   0.124
 6206TIP3   OH240176   4.409   2.700   1.862
 6206TIP3    H140177   4.425   2.655   1.945
 6206TIP3    H240178   4.313   2.705   1.856
 6207TIP3   OH240179   5.856   1.239   0.080
 6207TIP3    H140180   5.817   1.197   0.157
 6207TIP3    H240181   5.783   1.283   0.037
 6208TIP3   OH240182   0.117   4.947   2.169
 6208TIP3    H140183   0.038   4.940   2.223
 6208TIP3    H240184   0.184   4.900   2.220
 6209TIP3   OH240185   1.221   3.362   1.306
 6209TIP3    H140186   1.154   3.336   1.243
 6209TIP3    H240187   1.255   3.279   1.340
 6210TIP3   OH240188   6.084   3.299   8.629
 6210TIP3    H140189   6.003   3.253   8.607
 6210TIP3    H240190   6.056   3.386   8.657
 6211TIP3   OH240191   0.583   0.777   1.725
 6211TIP3    H140192   0.543   0.721   1.791
 6211TIP3    H240193   0.652   0.823   1.771
 6212TIP3   OH240194   6.073   1.856   7.873
 6212TIP3    H140195   6.159   1.879   7.908
 6212TIP3    H240196   6.043   1.935   7.830
 6213TIP3   OH240197   5.665   6.327   6.593
 6213TIP3    H140198   5.581   6.358   6.627
 6213TIP3    H240199   5.649   6.236   6.567
 6214TIP3   OH240200   4.957   3.060   0.212
 6214TIP3    H140201   4.893   3.047   0.142
 6214TIP3    H240202   4.965   3.155   0.221
 6215TIP3   OH240203   2.619   0.515   0.379
 6215TIP3    H140204   2.547   0.506   0.441
 6215TIP3    H240205   2.583   0.483   0.296
 6216TIP3   OH240206   1.993   5.249   1.267
 6216TIP3    H140207   2.018   5.324   1.212
 6216TIP3    H240208   1.962   5.289   1.348
 6217TIP3   OH240209   5.091   4.903   1.092
 6217TIP3    H140210   5.180   4.869   1.095
 6217TIP3    H240211   5.090   4.975   1.155
 6218TIP3   OH240212   1.956   2.750   7.657
 6218TIP3    H140213   1.974   2.666   7.614
 6218TIP3    H240214   2.005   2.814   7.604
 6219TIP3   OH240215   2.487   5.094   0.034
 6219TIP3    H140216   2.428   5.169   0.025
 6219TIP3    H240217   2.529   5.106   0.119
 6220TIP3   OH240218   6.001   5.173   0.318
 6220TIP3    H140219   5.999   5.160   0.223
 6220TIP3    H240220   5.921   5.130   0.349
 6221TIP3   OH240221   2.612   1.374   0.289
 6221TIP3    H140222   2.562   1.434   0.344
 6221TIP3    H240223   2.602   1.289   0.330
 6222TIP3   OH240224   1.137   1.593   6.823
 6222TIP3    H140225   1.142   1.682   6.788
 6222TIP3    H240226   1.227   1.570   6.845
 6223TIP3   OH240227   0.535   5.755   7.388
 6223TIP3    H140228   0.488   5.787   7.465
 6223TIP3    H240229   0.536   5.660   7.398
 6224TIP3   OH240230   6.201   4.410   6.690
 6224TIP3    H140231   6.240   4.325   6.671
 6224TIP3    H240232   6.117   4.408   6.644
 6225TIP3   OH240233   4.614   2.447   1.322
 6225TIP3    H140234   4.642   2.384   1.256
 6225TIP3    H240235   4.535   2.409   1.361
 6226TIP3   OH240236   0.826   3.890   0.183
 6226TIP3    H140237   0.741   3.847   0.190
 6226TIP3    H240238   0.806   3.982   0.167
 6227TIP3   OH240239   5.202   5.163   7.896
 6227TIP3    H140240   5.130   5.219   7.925
 6227TIP3    H240241   5.281   5.215   7.909
 6228TIP3   OH240242   2.688   3.523   0.196
 6228TIP3    H140243   2.616   3.583   0.214
 6228TIP3    H240244   2.659   3.439   0.232
 6229TIP3   OH240245   5.043   0.802   6.777
 6229TIP3    H140246   5.088   0.722   6.749
 6229TIP3    H240247   4.964   0.806   6.722
 6230TIP3   OH240248   4.443   3.140   8.571
 6230TIP3    H140249   4.440   3.099   8.658
 6230TIP3    H240250   4.498   3.081   8.519
 6231TIP3   OH240251   6.545   0.230   8.330
 6231TIP3    H140252   6.539   0.294   8.259
 6231TIP3    H240253   6.638   0.208   8.335
 6232TIP3   OH240254   3.075   0.873   8.459
 6232TIP3    H140255   3.092   0.793   8.409
 6232TIP3    H240256   3.071   0.942   8.393
 6233TIP3   OH240257   1.866   0.722   1.831
 6233TIP3    H140258   1.812   0.751   1.905
 6233TIP3    H240259   1.953   0.759   1.850
 6234TIP3   OH240260   4.927   0.504   1.031
 6234TIP3    H140261   4.983   0.574   0.997
 6234TIP3    H240262   4.839   0.543   1.032
 6235TIP3   OH240263   2.486   4.790   0.665
 6235TIP3    H140264   2.465   4.752   0.750
 6235TIP3    H240265   2.503   4.883   0.684
 6236TIP3   OH240266   5.294   0.316   2.276
 6236TIP3    H140267   5.227   0.270   2.327
 6236TIP3    H240268   5.372   0.262   2.286
 6237TIP3   OH240269   4.325   3.818   8.012
 6237TIP3    H140270   4.265   3.752   8.046
 6237TIP3    H240271   4.409   3.773   8.003
 6238TIP3   OH240272   3.949   4.310   7.680
 6238TIP3    H140273   3.877   4.256   7.646
 6238TIP3    H240274   4.005   4.324   7.604
 6239TIP3   OH240275   1.550   1.156   7.366
 6239TIP3    H140276   1.562   1.174   7.273
 6239TIP3    H240277   1.470   1.203   7.389
 6240TIP3   OH240278   4.065   0.742   8.432
 6240TIP3    H140279   3.995   0.753   8.496
 6240TIP3    H240280   4.127   0.812   8.451
 6241TIP3   OH240281   6.199   4.099   8.381
 6241TIP3    H140282   6.124   4.074   8.436
 6241TIP3    H240283   6.167   4.173   8.330
 6242TIP3   OH240284   6.186   3.926   7.081
 6242TIP3    H140285   6.163   3.863   7.013
 6242TIP3    H240286   6.238   3.993   7.035
 6243TIP3   OH240287   5.292   4.401   0.558
 6243TIP3    H140288   5.353   4.474   0.571
 6243TIP3    H240289   5.221   4.418   0.620
 6244TIP3   OH240290   4.288   4.282   2.340
 6244TIP3    H140291   4.329   4.321   2.418
 6244TIP3    H240292   4.213   4.233   2.374
 6245TIP3   OH240293   6.050   1.828   8.251
 6245TIP3    H140294   6.065   1.916   8.287
 6245TIP3    H240295   5.961   1.831   8.217
 6246TIP3   OH240296   5.786   5.562   6.738
 6246TIP3    H140297   5.778   5.638   6.679
 6246TIP3    H240298   5.785   5.486   6.680
 6247TIP3   OH240299   4.057   5.435   1.328
 6247TIP3    H140300   4.027   5.349   1.356
 6247TIP3    H240301   4.134   5.452   1.382
 6248TIP3   OH240302   5.468   2.352   7.678
 6248TIP3    H140303   5.393   2.349   7.737
 6248TIP3    H240304   5.515   2.432   7.702
 6249TIP3   OH240305   5.310   2.153   0.523
 6249TIP3    H140306   5.359   2.081   0.483
 6249TIP3    H240307   5.265   2.113   0.597
 6250TIP3   OH240308   2.743   0.551   1.286
 6250TIP3    H140309   2.658   0.515   1.310
 6250TIP3    H240310   2.764   0.510   1.202
 6251TIP3   OH240311   3.256   6.455   1.446
 6251TIP3    H140312   3.223   6.545   1.442
 6251TIP3    H240313   3.254   6.433   1.539
 6252TIP3   OH240314   2.562   5.211   7.695
 6252TIP3    H140315   2.471   5.194   7.670
 6252TIP3    H240316   2.614   5.158   7.634
 6253TIP3   OH240317   0.001   5.634   0.069
 6253TIP3    H140318   0.010   5.544   0.039
 6253TIP3    H240319   6.750   5.646   0.083
 6254TIP3   OH240320   1.244   3.522   6.521
 6254TIP3    H140321   1.214   3.612   6.505
 6254TIP3    H240322   1.198   3.469   6.456
 6255TIP3   OH240323   2.994   5.813   8.495
 6255TIP3    H140324   2.981   5.747   8.426
 6255TIP3    H240325   2.912   5.862   8.497
 6256TIP3   OH240326   6.135   2.808   7.270
 6256TIP3    H140327   6.140   2.803   7.366
 6256TIP3    H240328   6.098   2.895   7.253
 6257TIP3   OH240329   6.019   2.528   0.012
 6257TIP3    H140330   5.989   2.542   8.635
 6257TIP3    H240331   6.036   2.616   0.045
 6258TIP3   OH240332   5.032   3.242   1.496
 6258TIP3    H140333   4.993   3.329   1.503
 6258TIP3    H240334   4.995   3.194   1.570
 6259TIP3   OH240335   6.067   5.390   6.573
 6259TIP3    H140336   6.107   5.461   6.623
 6259TIP3    H240337   6.139   5.349   6.526
 6260TIP3   OH240338   1.277   5.558   0.975
 6260TIP3    H140339   1.192   5.535   1.013
 6260TIP3    H240340   1.336   5.488   1.003
 6261TIP3   OH240341   5.877   5.973   1.812
 6261TIP3    H140342   5.896   6.004   1.901
 6261TIP3    H240343   5.857   6.053   1.763
 6262TIP3   OH240344   0.074   0.618   0.145
 6262TIP3    H140345   0.135   0.555   0.183
 6262TIP3    H240346   0.129   0.680   0.099
 6263TIP3   OH240347   5.793   5.280   1.436
 6263TIP3    H140348   5.820   5.245   1.351
 6263TIP3    H240349   5.832   5.367   1.440
 6264TIP3   OH240350   5.297   3.360   1.425
 6264TIP3    H140351   5.240   3.387   1.498
 6264TIP3    H240352   5.283   3.266   1.418
 6265TIP3   OH240353   3.968   0.257   1.701
 6265TIP3    H140354   3.984   0.338   1.749
 6265TIP3    H240355   4.043   0.249   1.642
 6266TIP3   OH240356   0.031   6.787   2.670
 6266TIP3    H140357   6.815   0.004   2.716
 6266TIP3    H240358   6.817   6.739   2.610
 6267TIP3   OH240359   3.870   1.490   0.377
 6267TIP3    H140360   3.835   1.413   0.332
 6267TIP3    H240361   3.926   1.532   0.312
 6268TIP3   OH240362   4.346   0.267   2.669
 6268TIP3    H140363   4.437   0.271   2.699
 6268TIP3    H240364   4.316   0.358   2.675
 6269TIP3   OH240365   6.422   2.119   1.015
 6269TIP3    H140366   6.351   2.145   1.072
 6269TIP3    H240367   6.492   2.091   1.075
 6270TIP3   OH240368   5.143   1.921   8.649
 6270TIP3    H140369   5.090   1.956   8.578
 6270TIP3    H240370   5.219   1.979   8.654
 6271TIP3   OH240371   5.977   4.332   8.535
 6271TIP3    H140372   5.912   4.341   8.466
 6271TIP3    H240373   5.982   4.238   8.551
 6272TIP3   OH240374   1.181   0.545   6.943
 6272TIP3    H140375   1.123   0.542   6.867
 6272TIP3    H240376   1.166   0.632   6.982
 6273TIP3   OH240377   1.580   5.520   8.506
 6273TIP3    H140378   1.559   5.603   8.548
 6273TIP3    H240379   1.508   5.506   8.444
 6274TIP3   OH240380   3.912   1.572   7.372
 6274TIP3    H140381   3.899   1.578   7.277
 6274TIP3    H240382   3.905   1.662   7.402
 6275TIP3   OH240383   4.122   3.692   8.412
 6275TIP3    H140384   4.055   3.685   8.344
 6275TIP3    H240385   4.174   3.612   8.403
 6276TIP3   OH240386   3.299   4.832   8.112
 6276TIP3    H140387   3.388   4.867   8.118
 6276TIP3    H240388   3.245   4.907   8.087
 6277TIP3   OH240389   0.129   4.161   1.536
 6277TIP3    H140390   0.163   4.072   1.535
 6277TIP3    H240391   0.171   4.202   1.612
 6278TIP3   OH240392   1.004   6.697   0.302
 6278TIP3    H140393   1.037   6.764   0.242
 6278TIP3    H240394   1.075   6.686   0.366
 6279TIP3   OH240395   6.832   6.016   7.037
 6279TIP3    H140396   6.759   6.011   6.975
 6279TIP3    H240397   0.031   5.930   7.032
 6280TIP3   OH240398   0.000   4.049   8.582
 6280TIP3    H140399   6.755   4.019   8.561
 6280TIP3    H240400   0.040   3.976   8.630
 6281TIP3   OH240401   5.898   3.886   2.782
 6281TIP3    H140402   5.868   3.863   2.695
 6281TIP3    H240403   5.994   3.883   2.776
 6282TIP3   OH240404   3.292   0.209   7.608
 6282TIP3    H140405   3.241   0.128   7.613
 6282TIP3    H240406   3.328   0.209   7.519
 6283TIP3   OH240407   4.539   3.042   7.527
 6283TIP3    H140408   4.495   3.046   7.612
 6283TIP3    H240409   4.533   3.131   7.492
 6284TIP3   OH240410   1.173   5.434   0.494
 6284TIP3    H140411   1.218   5.379   0.429
 6284TIP3    H240412   1.106   5.479   0.443
 6285TIP3   OH240413   6.378   6.126   7.205
 6285TIP3    H140414   6.284   6.139   7.208
 6285TIP3    H240415   6.401   6.136   7.113
 6286TIP3   OH240416   2.648   4.668   8.464
 6286TIP3    H140417   2.696   4.741   8.424
 6286TIP3    H240418   2.644   4.691   8.557
 6287TIP3   OH240419   3.446   1.905   2.377
 6287TIP3    H140420   3.530   1.901   2.332
 6287TIP3    H240421   3.455   1.977   2.439
 6288TIP3   OH240422   6.239   5.138   7.731
 6288TIP3    H140423   6.276   5.055   7.759
 6288TIP3    H240424   6.155   5.115   7.692
 6289TIP3   OH240425   5.794   0.596   0.350
 6289TIP3    H140426   5.795   0.690   0.335
 6289TIP3    H240427   5.706   0.577   0.382
 6290TIP3   OH240428   5.319   0.780   7.530
 6290TIP3    H140429   5.269   0.848   7.484
 6290TIP3    H240430   5.355   0.825   7.607
 6291TIP3   OH240431   1.525   5.455   1.751
 6291TIP3    H140432   1.510   5.464   1.657
 6291TIP3    H240433   1.477   5.376   1.776
 6292TIP3   OH240434   3.843   5.091   0.267
 6292TIP3    H140435   3.828   5.166   0.324
 6292TIP3    H240436   3.914   5.043   0.310
 6293TIP3   OH240437   4.730   5.475   7.362
 6293TIP3    H140438   4.667   5.403   7.371
 6293TIP3    H240439   4.801   5.438   7.310
 6294TIP3   OH240440   5.665   1.911   2.283
 6294TIP3    H140441   5.649   1.822   2.314
 6294TIP3    H240442   5.739   1.942   2.335
 6295TIP3   OH240443   2.474   2.648   0.730
 6295TIP3    H140444   2.438   2.706   0.663
 6295TIP3    H240445   2.459   2.560   0.696
 6296TIP3   OH240446   1.502   3.015   2.044
 6296TIP3    H140447   1.430   2.997   2.105
 6296TIP3    H240448   1.577   3.031   2.101
 6297TIP3   OH240449   2.579   5.386   1.663
 6297TIP3    H140450   2.512   5.320   1.645
 6297TIP3    H240451   2.565   5.411   1.754
 6298TIP3   OH240452   2.674   5.027   7.857
 6298TIP3    H140453   2.639   5.105   7.815
 6298TIP3    H240454   2.649   4.955   7.798
 6299TIP3   OH240455   1.698   5.221   0.144
 6299TIP3    H140456   1.685   5.304   0.190
 6299TIP3    H240457   1.750   5.245   0.067
 6300TIP3   OH240458   4.003   3.947   8.118
 6300TIP3    H140459   4.031   3.906   8.037
 6300TIP3    H240460   4.071   4.011   8.138
 6301TIP3   OH240461   2.131   5.891   8.493
 6301TIP3    H140462   2.110   5.814   8.546
 6301TIP3    H240463   2.152   5.959   8.557
 6302TIP3   OH240464   6.563   2.991   7.677
 6302TIP3    H140465   6.502   3.014   7.607
 6302TIP3    H240466   6.531   2.907   7.710
 6303TIP3   OH240467   1.390   6.714   8.070
 6303TIP3    H140468   1.451   6.786   8.052
 6303TIP3    H240469   1.409   6.649   8.002
 6304TIP3   OH240470   4.820   5.183   6.345
 6304TIP3    H140471   4.797   5.145   6.260
 6304TIP3    H240472   4.899   5.137   6.372
 6305TIP3   OH240473   6.093   0.513   7.137
 6305TIP3    H140474   6.062   0.569   7.208
 6305TIP3    H240475   6.152   0.569   7.086
 6306TIP3   OH240476   2.346   0.870   7.038
 6306TIP3    H140477   2.413   0.837   6.979
 6306TIP3    H240478   2.326   0.958   7.005
 6307TIP3   OH240479   1.479   1.741   7.837
 6307TIP3    H140480   1.397   1.759   7.884
 6307TIP3    H240481   1.532   1.694   7.901
 6308TIP3   OH240482   3.158   3.986   0.206
 6308TIP3    H140483   3.180   3.923   0.275
 6308TIP3    H240484   3.189   3.945   0.126
 6309TIP3   OH240485   4.134   2.055   7.811
 6309TIP3    H140486   4.148   2.018   7.724
 6309TIP3    H240487   4.055   2.012   7.843
 6310TIP3   OH240488   5.268   1.988   6.593
 6310TIP3    H140489   5.223   2.027   6.518
 6310TIP3    H240490   5.212   1.914   6.619
 6311TIP3   OH240491   0.624   2.329   7.300
 6311TIP3    H140492   0.716   2.312   7.282
 6311TIP3    H240493   0.607   2.285   7.384
 6312TIP3   OH240494   3.609   0.601   8.572
 6312TIP3    H140495   3.607   0.533   8.504
 6312TIP3    H240496   3.624   0.552   8.653
 6313TIP3   OH240497   3.735   1.729   8.581
 6313TIP3    H140498   3.771   1.656   8.531
 6313TIP3    H240499   3.812   1.777   8.613
 6314TIP3   OH240500   4.479   0.337   0.980
 6314TIP3    H140501   4.545   0.387   0.931
 6314TIP3    H240502   4.433   0.403   1.031
 6315TIP3   OH240503   3.828   3.975   6.274
 6315TIP3    H140504   3.897   3.914   6.247
 6315TIP3    H240505   3.773   3.926   6.335
 6316TIP3   OH240506   2.124   0.454   7.708
 6316TIP3    H140507   2.186   0.403   7.759
 6316TIP3    H240508   2.112   0.404   7.627
 6317TIP3   OH240509   3.156   2.984   0.206
 6317TIP3    H140510   3.087   2.924   0.234
 6317TIP3    H240511   3.125   3.070   0.232
 6318TIP3   OH240512   5.383   5.420   2.195
 6318TIP3    H140513   5.351   5.343   2.148
 6318TIP3    H240514   5.364   5.493   2.137
 6319TIP3   OH240515   2.615   2.192   1.336
 6319TIP3    H140516   2.592   2.106   1.301
 6319TIP3    H240517   2.617   2.250   1.259
 6320TIP3   OH240518   5.574   6.031   6.889
 6320TIP3    H140519   5.618   6.065   6.966
 6320TIP3    H240520   5.583   5.936   6.896
 6321TIP3   OH240521   0.525   2.371   8.424
 6321TIP3    H140522   0.610   2.345   8.388
 6321TIP3    H240523   0.527   2.344   8.515
 6322TIP3   OH240524   3.172   6.279   8.507
 6322TIP3    H140525   3.108   6.294   8.577
 6322TIP3    H240526   3.195   6.186   8.516
 6323TIP3   OH240527   0.260   4.807   6.658
 6323TIP3    H140528   0.204   4.835   6.730
 6323TIP3    H240529   0.203   4.753   6.603
 6324TIP3   OH240530   1.212   2.617   2.259
 6324TIP3    H140531   1.285   2.650   2.313
 6324TIP3    H240532   1.255   2.568   2.189
 6325TIP3   OH240533   2.813   5.162   6.678
 6325TIP3    H140534   2.767   5.246   6.682
 6325TIP3    H240535   2.758   5.106   6.623
 6326TIP3   OH240536   3.517   6.484   1.998
 6326TIP3    H140537   3.532   6.494   2.092
 6326TIP3    H240538   3.435   6.531   1.982
 6327TIP3   OH240539   5.021   5.069   1.330
 6327TIP3    H140540   5.107   5.053   1.369
 6327TIP3    H240541   5.005   5.162   1.345
 6328TIP3   OH240542   1.877   6.278   1.647
 6328TIP3    H140543   1.968   6.287   1.675
 6328TIP3    H240544   1.832   6.243   1.724
 6329TIP3   OH240545   3.774   5.866   8.685
 6329TIP3    H140546   3.788   5.958   8.707
 6329TIP3    H240547   3.829   5.818   0.033
 6330TIP3   OH240548   0.587   2.154   7.956
 6330TIP3    H140549   0.543   2.108   7.884
 6330TIP3    H240550   0.679   2.127   7.948
 6331TIP3   OH240551   5.487   4.635   7.299
 6331TIP3    H140552   5.513   4.675   7.382
 6331TIP3    H240553   5.398   4.666   7.284
 6332TIP3   OH240554   5.581   3.865   7.707
 6332TIP3    H140555   5.625   3.781   7.712
 6332TIP3    H240556   5.526   3.869   7.785
 6333TIP3   OH240557   2.875   2.190   7.462
 6333TIP3    H140558   2.808   2.232   7.408
 6333TIP3    H240559   2.894   2.107   7.418
 6334TIP3   OH240560   2.595   3.994   1.158
 6334TIP3    H140561   2.689   3.987   1.138
 6334TIP3    H240562   2.592   3.995   1.254
 6335TIP3   OH240563   5.429   1.652   0.070
 6335TIP3    H140564   5.518   1.674   0.043
 6335TIP3    H240565   5.372   1.703   0.011
 6336TIP3   OH240566   1.365   5.042   2.131
 6336TIP3    H140567   1.357   4.997   2.216
 6336TIP3    H240568   1.397   4.974   2.072
 6337TIP3   OH240569   1.438   3.904   8.483
 6337TIP3    H140570   1.463   3.893   8.575
 6337TIP3    H240571   1.372   3.836   8.467
 6338TIP3   OH240572   6.057   5.639   7.049
 6338TIP3    H140573   6.018   5.643   7.136
 6338TIP3    H240574   6.098   5.553   7.044
 6339TIP3   OH240575   5.150   0.144   7.110
 6339TIP3    H140576   5.097   0.067   7.134
 6339TIP3    H240577   5.139   0.152   7.016
 6340TIP3   OH240578   2.149   0.107   7.233
 6340TIP3    H140579   2.106   0.065   7.158
 6340TIP3    H240580   2.102   0.074   7.309
 6341TIP3   OH240581   0.109   4.322   8.614
 6341TIP3    H140582   0.169   4.340   8.541
 6341TIP3    H240583   0.063   4.243   8.588
 6342TIP3   OH240584   1.334   5.995   7.028
 6342TIP3    H140585   1.429   5.991   7.039
 6342TIP3    H240586   1.320   6.068   6.969
 6343TIP3   OH240587   0.008   5.977   6.325
 6343TIP3    H140588   0.082   5.961   6.384
 6343TIP3    H240589   6.835   6.071   6.331
 6344TIP3   OH240590   0.122   1.967   1.533
 6344TIP3    H140591   0.076   2.032   1.585
 6344TIP3    H240592   0.123   2.003   1.444
 6345TIP3   OH240593   4.490   4.638   8.582
 6345TIP3    H140594   4.557   4.575   8.608
 6345TIP3    H240595   4.534   4.723   8.587
 6346TIP3   OH240596   1.981   6.765   8.265
 6346TIP3    H140597   1.916   6.832   8.287
 6346TIP3    H240598   2.051   6.813   8.220
 6347TIP3   OH240599   3.763   6.388   2.187
 6347TIP3    H140600   3.734   6.315   2.241
 6347TIP3    H240601   3.845   6.416   2.227
 6348TIP3   OH240602   6.244   1.281   7.420
 6348TIP3    H140603   6.338   1.269   7.402
 6348TIP3    H240604   6.241   1.340   7.495
 6349TIP3   OH240605   4.005   2.654   0.101
 6349TIP3    H140606   3.956   2.575   0.121
 6349TIP3    H240607   3.938   2.723   0.095
 6350TIP3   OH240608   2.067   2.315   6.295
 6350TIP3    H140609   1.976   2.310   6.324
 6350TIP3    H240610   2.101   2.227   6.312
 6351TIP3   OH240611   1.108   3.714   0.564
 6351TIP3    H140612   1.037   3.752   0.513
 6351TIP3    H240613   1.071   3.705   0.652
 6352TIP3   OH240614   3.441   6.090   1.913
 6352TIP3    H140615   3.501   6.149   1.868
 6352TIP3    H240616   3.450   6.113   2.005
 6353TIP3   OH240617   1.237   5.388   8.420
 6353TIP3    H140618   1.157   5.337   8.434
 6353TIP3    H240619   1.308   5.327   8.444
 6354TIP3   OH240620   4.442   4.205   8.509
 6354TIP3    H140621   4.467   4.115   8.531
 6354TIP3    H240622   4.422   4.246   8.593
 6355TIP3   OH240623   3.851   6.598   6.486
 6355TIP3    H140624   3.816   6.509   6.485
 6355TIP3    H240625   3.823   6.635   6.402
 6356TIP3   OH240626   2.286   5.137   1.043
 6356TIP3    H140627   2.310   5.142   1.136
 6356TIP3    H240628   2.370   5.132   0.997
 6357TIP3   OH240629   5.133   2.228   6.348
 6357TIP3    H140630   5.080   2.291   6.395
 6357TIP3    H240631   5.223   2.246   6.376
 6358TIP3   OH240632   1.914   4.952   6.485
 6358TIP3    H140633   1.901   5.021   6.420
 6358TIP3    H240634   1.829   4.908   6.490
 6359TIP3   OH240635   0.298   3.187   1.351
 6359TIP3    H140636   0.247   3.106   1.356
 6359TIP3    H240637   0.232   3.256   1.354
 6360TIP3   OH240638   2.732   6.276   7.696
 6360TIP3    H140639   2.662   6.342   7.700
 6360TIP3    H240640   2.763   6.269   7.786
 6361TIP3   OH240641   2.393   4.737   8.030
 6361TIP3    H140642   2.299   4.731   8.018
 6361TIP3    H240643   2.420   4.647   8.052
 6362TIP3   OH240644   0.174   0.269   8.519
 6362TIP3    H140645   0.222   0.196   8.558
 6362TIP3    H240646   0.095   0.230   8.483
 6363TIP3   OH240647   2.483   0.011   1.574
 6363TIP3    H140648   2.445   6.768   1.595
 6363TIP3    H240649   2.567   6.833   1.532
 6364TIP3   OH240650   3.516   1.939   0.231
 6364TIP3    H140651   3.460   1.953   0.307
 6364TIP3    H240652   3.545   2.026   0.206
 6365TIP3   OH240653   0.636   0.423   1.708
 6365TIP3    H140654   0.667   0.437   1.797
 6365TIP3    H240655   0.543   0.443   1.712
 6366TIP3   OH240656   5.719   3.133   0.519
 6366TIP3    H140657   5.725   3.222   0.483
 6366TIP3    H240658   5.696   3.145   0.611
 6367TIP3   OH240659   2.094   2.827   0.417
 6367TIP3    H140660   2.098   2.849   0.510
 6367TIP3    H240661   2.021   2.878   0.382
 6368TIP3   OH240662   4.427   5.037   2.344
 6368TIP3    H140663   4.521   5.047   2.334
 6368TIP3    H240664   4.417   4.957   2.396
 6369TIP3   OH240665   6.340   4.380   0.637
 6369TIP3    H140666   6.371   4.446   0.700
 6369TIP3    H240667   6.299   4.313   0.691
 6370TIP3   OH240668   1.732   3.213   8.344
 6370TIP3    H140669   1.657   3.258   8.382
 6370TIP3    H240670   1.694   3.145   8.288
 6371TIP3   OH240671   2.425   0.776   1.911
 6371TIP3    H140672   2.494   0.829   1.870
 6371TIP3    H240673   2.397   0.827   1.986
 6372TIP3   OH240674   2.904   0.003   0.292
 6372TIP3    H140675   2.866   6.761   0.317
 6372TIP3    H240676   2.829   0.061   0.280
 6373TIP3   OH240677   2.930   0.831   7.777
 6373TIP3    H140678   2.842   0.836   7.815
 6373TIP3    H240679   2.929   0.752   7.724
 6374TIP3   OH240680   5.872   3.217   2.219
 6374TIP3    H140681   5.874   3.302   2.174
 6374TIP3    H240682   5.848   3.154   2.152
 6375TIP3   OH240683   5.854   6.014   0.407
 6375TIP3    H140684   5.827   5.930   0.443
 6375TIP3    H240685   5.939   6.032   0.449
 6376TIP3   OH240686   6.273   5.483   2.086
 6376TIP3    H140687   6.209   5.538   2.130
 6376TIP3    H240688   6.278   5.403   2.139
 6377TIP3   OH240689   3.791   1.251   1.920
 6377TIP3    H140690   3.828   1.272   2.005
 6377TIP3    H240691   3.747   1.332   1.892
 6378TIP3   OH240692   5.401   6.278   0.894
 6378TIP3    H140693   5.366   6.193   0.919
 6378TIP3    H240694   5.368   6.338   0.961
 6379TIP3   OH240695   6.314   1.106   1.214
 6379TIP3    H140696   6.258   1.161   1.270
 6379TIP3    H240697   6.254   1.074   1.146
 6380TIP3   OH240698   5.114   5.694   1.165
 6380TIP3    H140699   5.069   5.616   1.133
 6380TIP3    H240700   5.190   5.661   1.212
 6381TIP3   OH240701   6.345   6.556   8.474
 6381TIP3    H140702   6.373   6.648   8.482
 6381TIP3    H240703   6.314   6.549   8.384
 6382TIP3   OH240704   4.140   1.960   7.556
 6382TIP3    H140705   4.218   2.013   7.539
 6382TIP3    H240706   4.072   1.999   7.501
 6383TIP3   OH240707   2.875   4.004   1.144
 6383TIP3    H140708   2.879   3.933   1.080
 6383TIP3    H240709   2.966   4.017   1.172
 6384TIP3   OH240710   4.077   0.232   2.013
 6384TIP3    H140711   4.159   0.282   2.007
 6384TIP3    H240712   4.103   0.142   1.996
 6385TIP3   OH240713   4.018   4.702   8.249
 6385TIP3    H140714   3.996   4.727   8.339
 6385TIP3    H240715   4.103   4.658   8.257
 6386TIP3   OH240716   0.076   6.382   0.358
 6386TIP3    H140717   0.038   6.295   0.371
 6386TIP3    H240718   0.001   6.439   0.341
 6387TIP3   OH240719   2.424   0.886   7.309
 6387TIP3    H140720   2.412   0.877   7.214
 6387TIP3    H240721   2.425   0.796   7.342
 6388TIP3   OH240722   6.385   0.429   8.520
 6388TIP3    H140723   6.427   0.471   8.595
 6388TIP3    H240724   6.457   0.388   8.472
 6389TIP3   OH240725   2.869   6.210   1.375
 6389TIP3    H140726   2.843   6.162   1.297
 6389TIP3    H240727   2.946   6.163   1.407
 6390TIP3   OH240728   4.610   4.874   8.073
 6390TIP3    H140729   4.609   4.848   8.165
 6390TIP3    H240730   4.691   4.836   8.039
 6391TIP3   OH240731   4.780   4.567   0.325
 6391TIP3    H140732   4.697   4.553   0.279
 6391TIP3    H240733   4.755   4.620   0.401
 6392TIP3   OH240734   0.276   5.249   7.377
 6392TIP3    H140735   0.332   5.236   7.454
 6392TIP3    H240736   0.207   5.308   7.408
 6393TIP3   OH240737   6.366   5.048   6.873
 6393TIP3    H140738   6.430   5.071   6.805
 6393TIP3    H240739   6.296   5.113   6.863
 6394TIP3   OH240740   1.886   6.787   8.575
 6394TIP3    H140741   1.840   6.812   8.495
 6394TIP3    H240742   1.972   6.829   8.568
 6395TIP3   OH240743   5.465   6.309   1.281
 6395TIP3    H140744   5.383   6.272   1.313
 6395TIP3    H240745   5.438   6.377   1.219
 6396TIP3   OH240746   1.006   0.904   7.361
 6396TIP3    H140747   0.922   0.918   7.406
 6396TIP3    H240748   1.026   0.812   7.377
 6397TIP3   OH240749   4.568   5.247   7.360
 6397TIP3    H140750   4.502   5.249   7.429
 6397TIP3    H240751   4.526   5.198   7.288
 6398TIP3   OH240752   0.194   5.244   7.688
 6398TIP3    H140753   0.234   5.304   7.753
 6398TIP3    H240754   0.115   5.212   7.731
 6399TIP3   OH240755   3.606   5.392   8.202
 6399TIP3    H140756   3.579   5.409   8.292
 6399TIP3    H240757   3.611   5.479   8.161
 6400TIP3   OH240758   3.186   6.746   1.434
 6400TIP3    H140759   3.163   6.757   1.526
 6400TIP3    H240760   3.108   6.775   1.387
 6401TIP3   OH240761   1.167   3.817   8.011
 6401TIP3    H140762   1.220   3.875   7.956
 6401TIP3    H240763   1.095   3.872   8.042
 6402TIP3   OH240764   4.536   3.899   0.336
 6402TIP3    H140765   4.555   3.932   0.423
 6402TIP3    H240766   4.461   3.841   0.347
 6403TIP3   OH240767   1.413   0.453   7.960
 6403TIP3    H140768   1.333   0.404   7.978
 6403TIP3    H240769   1.385   0.520   7.897
 6404TIP3   OH240770   0.270   3.942   7.420
 6404TIP3    H140771   0.184   3.978   7.443
 6404TIP3    H240772   0.330   4.016   7.430
 6405TIP3   OH240773   6.143   5.981   1.681
 6405TIP3    H140774   6.152   5.996   1.587
 6405TIP3    H240775   6.053   5.952   1.692
 6406TIP3   OH240776   1.996   3.735   8.006
 6406TIP3    H140777   1.970   3.827   7.993
 6406TIP3    H240778   1.943   3.705   8.080
 6407TIP3   OH240779   5.750   3.890   0.858
 6407TIP3    H140780   5.673   3.928   0.815
 6407TIP3    H240781   5.822   3.947   0.830
 6408TIP3   OH240782   3.184   1.906   0.281
 6408TIP3    H140783   3.210   1.860   0.201
 6408TIP3    H240784   3.239   1.984   0.282
 6409TIP3   OH240785   0.042   3.688   0.100
 6409TIP3    H140786   0.058   3.594   0.092
 6409TIP3    H240787   6.818   3.707   0.035
 6410TIP3   OH240788   5.922   6.531   1.289
 6410TIP3    H140789   5.978   6.503   1.217
 6410TIP3    H240790   5.949   6.622   1.306
 6411TIP3   OH240791   2.832   4.252   8.153
 6411TIP3    H140792   2.761   4.270   8.216
 6411TIP3    H240793   2.818   4.316   8.083
 6412TIP3   OH240794   2.814   5.603   2.249
 6412TIP3    H140795   2.821   5.518   2.206
 6412TIP3    H240796   2.775   5.583   2.334
 6413TIP3   OH240797   2.141   2.585   1.813
 6413TIP3    H140798   2.160   2.625   1.898
 6413TIP3    H240799   2.199   2.630   1.752
 6414TIP3   OH240800   0.856   6.627   7.821
 6414TIP3    H140801   0.932   6.668   7.864
 6414TIP3    H240802   0.879   6.534   7.816
 6415TIP3   OH240803   2.202   2.477   8.417
 6415TIP3    H140804   2.202   2.409   8.485
 6415TIP3    H240805   2.130   2.453   8.359
 6416TIP3   OH240806   0.740   4.088   1.267
 6416TIP3    H140807   0.727   4.122   1.355
 6416TIP3    H240808   0.700   4.001   1.269
 6417TIP3   OH240809   1.203   3.947   7.684
 6417TIP3    H140810   1.170   3.946   7.594
 6417TIP3    H240811   1.148   4.011   7.728
 6418TIP3   OH240812   0.497   1.440   0.831
 6418TIP3    H140813   0.555   1.391   0.773
 6418TIP3    H240814   0.418   1.387   0.836
 6419TIP3   OH240815   6.261   1.227   8.472
 6419TIP3    H140816   6.334   1.263   8.422
 6419TIP3    H240817   6.189   1.288   8.457
 6420TIP3   OH240818   6.307   3.457   6.532
 6420TIP3    H140819   6.373   3.519   6.501
 6420TIP3    H240820   6.232   3.511   6.556
 6421TIP3   OH240821   2.671   5.469   7.684
 6421TIP3    H140822   2.621   5.389   7.670
 6421TIP3    H240823   2.751   5.439   7.729
 6422TIP3   OH240824   4.691   6.202   0.856
 6422TIP3    H140825   4.771   6.224   0.903
 6422TIP3    H240826   4.708   6.229   0.766
 6423TIP3   OH240827   2.504   0.101   1.254
 6423TIP3    H140828   2.452   0.023   1.233
 6423TIP3    H240829   2.582   0.066   1.297
 6424TIP3   OH240830   2.573   1.730   8.038
 6424TIP3    H140831   2.541   1.656   8.089
 6424TIP3    H240832   2.538   1.716   7.950
 6425TIP3   OH240833   5.815   1.023   7.248
 6425TIP3    H140834   5.897   1.036   7.297
 6425TIP3    H240835   5.791   0.932   7.266
 6426TIP3   OH240836   2.626   5.727   1.009
 6426TIP3    H140837   2.646   5.806   1.058
 6426TIP3    H240838   2.611   5.660   1.077
 6427TIP3   OH240839   2.404   6.261   1.924
 6427TIP3    H140840   2.489   6.282   1.886
 6427TIP3    H240841   2.360   6.207   1.858
 6428TIP3   OH240842   6.444   4.417   7.241
 6428TIP3    H140843   6.515   4.418   7.305
 6428TIP3    H240844   6.455   4.335   7.194
 6429TIP3   OH240845   4.845   0.262   0.116
 6429TIP3    H140846   4.804   0.184   0.152
 6429TIP3    H240847   4.862   0.240   0.024
 6430TIP3   OH240848   0.961   0.260   1.008
 6430TIP3    H140849   1.013   0.205   0.949
 6430TIP3    H240850   0.898   0.200   1.048
 6431TIP3   OH240851   3.898   3.958   8.374
 6431TIP3    H140852   3.943   3.971   8.290
 6431TIP3    H240853   3.808   3.938   8.349
 6432TIP3   OH240854   5.598   2.707   1.073
 6432TIP3    H140855   5.679   2.749   1.043
 6432TIP3    H240856   5.626   2.648   1.142
 6433TIP3   OH240857   1.251   6.002   7.748
 6433TIP3    H140858   1.333   5.967   7.714
 6433TIP3    H240859   1.229   5.946   7.822
 6434TIP3   OH240860   2.356   5.628   1.264
 6434TIP3    H140861   2.299   5.592   1.331
 6434TIP3    H240862   2.420   5.681   1.312
 6435TIP3   OH240863   6.429   4.052   1.921
 6435TIP3    H140864   6.393   3.965   1.936
 6435TIP3    H240865   6.355   4.111   1.938
 6436TIP3   OH240866   3.008   2.782   8.621
 6436TIP3    H140867   3.061   2.740   8.689
 6436TIP3    H240868   2.954   2.845   8.668
 6437TIP3   OH240869   4.025   0.437   7.907
 6437TIP3    H140870   4.074   0.404   7.831
 6437TIP3    H240871   3.948   0.480   7.869
 6438TIP3   OH240872   6.123   2.276   7.844
 6438TIP3    H140873   6.139   2.255   7.936
 6438TIP3    H240874   6.128   2.372   7.841
 6439TIP3   OH240875   4.162   2.527   0.563
 6439TIP3    H140876   4.213   2.578   0.501
 6439TIP3    H240877   4.168   2.575   0.645
 6440TIP3   OH240878   1.208   0.480   8.320
 6440TIP3    H140879   1.224   0.413   8.254
 6440TIP3    H240880   1.113   0.480   8.332
 6441TIP3   OH240881   5.560   4.716   8.388
 6441TIP3    H140882   5.574   4.789   8.328
 6441TIP3    H240883   5.553   4.639   8.331
 6442TIP3   OH240884   1.850   1.941   8.306
 6442TIP3    H140885   1.774   1.994   8.332
 6442TIP3    H240886   1.852   1.947   8.211
 6443TIP3   OH240887   0.643   5.258   6.932
 6443TIP3    H140888   0.573   5.227   6.990
 6443TIP3    H240889   0.631   5.208   6.851
 6444TIP3   OH240890   1.731   1.560   1.031
 6444TIP3    H140891   1.818   1.597   1.017
 6444TIP3    H240892   1.694   1.613   1.102
 6445TIP3   OH240893   2.573   3.546   8.645
 6445TIP3    H140894   2.636   3.499   8.699
 6445TIP3    H240895   2.595   3.638   8.658
 6446TIP3   OH240896   4.183   0.627   6.746
 6446TIP3    H140897   4.273   0.639   6.776
 6446TIP3    H240898   4.187   0.549   6.690
 6447TIP3   OH240899   4.832   4.806   0.984
 6447TIP3    H140900   4.905   4.864   1.004
 6447TIP3    H240901   4.821   4.753   1.063
 6448TIP3   OH240902   2.610   1.641   7.747
 6448TIP3    H140903   2.681   1.592   7.706
 6448TIP3    H240904   2.540   1.577   7.759
 6449TIP3   OH240905   4.370   3.839   1.964
 6449TIP3    H140906   4.441   3.857   1.902
 6449TIP3    H240907   4.290   3.845   1.912
 6450TIP3   OH240908   5.646   3.054   7.925
 6450TIP3    H140909   5.593   3.129   7.951
 6450TIP3    H240910   5.659   3.065   7.831
 6451TIP3   OH240911   0.762   4.269   8.212
 6451TIP3    H140912   0.689   4.289   8.155
 6451TIP3    H240913   0.762   4.173   8.219
 6452TIP3   OH240914   1.315   6.407   8.508
 6452TIP3    H140915   1.296   6.465   8.434
 6452TIP3    H240916   1.401   6.371   8.489
 6453TIP3   OH240917   1.638   4.677   0.087
 6453TIP3    H140918   1.703   4.738   0.123
 6453TIP3    H240919   1.599   4.725   0.013
 6454TIP3   OH240920   1.691   2.251   8.017
 6454TIP3    H140921   1.656   2.164   7.996
 6454TIP3    H240922   1.786   2.242   8.008
 6455TIP3   OH240923   4.606   4.975   6.896
 6455TIP3    H140924   4.653   4.896   6.867
 6455TIP3    H240925   4.544   4.993   6.825
 6456TIP3   OH240926   6.125   3.712   0.734
 6456TIP3    H140927   6.214   3.745   0.740
 6456TIP3    H240928   6.109   3.699   0.641
 6457TIP3   OH240929   6.110   2.807   1.692
 6457TIP3    H140930   6.123   2.745   1.620
 6457TIP3    H240931   6.033   2.858   1.665
 6458TIP3   OH240932   3.282   4.381   6.892
 6458TIP3    H140933   3.199   4.375   6.844
 6458TIP3    H240934   3.348   4.359   6.827
 6459TIP3   OH240935   3.666   0.887   7.340
 6459TIP3    H140936   3.661   0.982   7.331
 6459TIP3    H240937   3.588   0.854   7.296
 6460TIP3   OH240938   5.016   2.438   6.497
 6460TIP3    H140939   4.975   2.391   6.570
 6460TIP3    H240940   4.964   2.517   6.487
 6461TIP3   OH240941   0.722   3.774   7.560
 6461TIP3    H140942   0.744   3.825   7.482
 6461TIP3    H240943   0.740   3.683   7.535
 6462TIP3   OH240944   3.932   3.332   1.235
 6462TIP3    H140945   3.959   3.306   1.147
 6462TIP3    H240946   4.012   3.366   1.275
 6463TIP3   OH240947   0.925   2.535   2.015
 6463TIP3    H140948   0.965   2.538   2.102
 6463TIP3    H240949   0.858   2.468   2.022
 6464TIP3   OH240950   5.909   0.426   1.973
 6464TIP3    H140951   5.963   0.375   2.034
 6464TIP3    H240952   5.932   0.392   1.887
 6465TIP3   OH240953   5.765   3.687   0.205
 6465TIP3    H140954   5.683   3.693   0.156
 6465TIP3    H240955   5.737   3.670   0.295
 6466TIP3   OH240956   0.963   5.066   1.072
 6466TIP3    H140957   1.013   5.144   1.047
 6466TIP3    H240958   0.929   5.087   1.159
 6467TIP3   OH240959   1.931   1.059   0.743
 6467TIP3    H140960   1.962   0.971   0.761
 6467TIP3    H240961   1.912   1.096   0.830
 6468TIP3   OH240962   6.184   2.345   6.232
 6468TIP3    H140963   6.190   2.440   6.220
 6468TIP3    H240964   6.241   2.327   6.307
 6469TIP3   OH240965   0.405   3.274   2.454
 6469TIP3    H140966   0.328   3.323   2.483
 6469TIP3    H240967   0.369   3.194   2.416
 6470TIP3   OH240968   2.031   4.909   8.374
 6470TIP3    H140969   1.991   4.990   8.407
 6470TIP3    H240970   2.004   4.904   8.283
 6471TIP3   OH240971   3.580   2.527   7.040
 6471TIP3    H140972   3.495   2.488   7.019
 6471TIP3    H240973   3.566   2.570   7.124
 6472TIP3   OH240974   5.247   1.986   7.881
 6472TIP3    H140975   5.299   1.907   7.866
 6472TIP3    H240976   5.173   1.977   7.821
 6473TIP3   OH240977   0.670   6.672   6.312
 6473TIP3    H140978   0.754   6.626   6.313
 6473TIP3    H240979   0.679   6.739   6.380
 6474TIP3   OH240980   1.771   3.974   8.337
 6474TIP3    H140981   1.778   4.048   8.276
 6474TIP3    H240982   1.739   4.013   8.418
 6475TIP3   OH240983   2.784   4.231   0.041
 6475TIP3    H140984   2.816   4.164   0.101
 6475TIP3    H240985   2.848   4.302   0.049
 6476TIP3   OH240986   2.059   2.521   1.164
 6476TIP3    H140987   2.151   2.495   1.156
 6476TIP3    H240988   2.059   2.596   1.224
 6477TIP3   OH240989   5.229   4.659   0.719
 6477TIP3    H140990   5.306   4.637   0.771
 6477TIP3    H240991   5.238   4.753   0.700
 6478TIP3   OH240992   5.724   5.467   7.097
 6478TIP3    H140993   5.797   5.440   7.153
 6478TIP3    H240994   5.725   5.563   7.101
 6479TIP3   OH240995   4.549   1.250   0.192
 6479TIP3    H140996   4.553   1.157   0.214
 6479TIP3    H240997   4.535   1.251   0.097
 6480TIP3   OH240998   1.684   2.102   7.509
 6480TIP3    H140999   1.691   2.090   7.604
 6480TIP3    H241000   1.774   2.111   7.479
 6481TIP3   OH241001   4.512   2.152   7.773
 6481TIP3    H141002   4.603   2.178   7.786
 6481TIP3    H241003   4.462   2.210   7.830
 6482TIP3   OH241004   1.730   3.853   0.511
 6482TIP3    H141005   1.764   3.908   0.581
 6482TIP3    H241006   1.800   3.791   0.493
 6483TIP3   OH241007   3.654   0.846   6.967
 6483TIP3    H141008   3.713   0.921   6.978
 6483TIP3    H241009   3.574   0.883   6.930
 6484TIP3   OH241010   0.514   5.603   8.559
 6484TIP3    H141011   0.544   5.562   8.478
 6484TIP3    H241012   0.435   5.652   8.533
 6485TIP3   OH241013   4.830   6.582   2.029
 6485TIP3    H141014   4.762   6.650   2.025
 6485TIP3    H241015   4.837   6.550   1.939
 6486TIP3   OH241016   1.547   5.445   0.908
 6486TIP3    H141017   1.623   5.417   0.960
 6486TIP3    H241018   1.518   5.526   0.950
 6487TIP3   OH241019   0.411   5.412   1.393
 6487TIP3    H141020   0.467   5.471   1.443
 6487TIP3    H241021   0.326   5.417   1.437
 6488TIP3   OH241022   4.226   2.723   1.066
 6488TIP3    H141023   4.178   2.786   1.012
 6488TIP3    H241024   4.311   2.764   1.081
 6489TIP3   OH241025   5.204   3.535   8.422
 6489TIP3    H141026   5.167   3.565   8.339
 6489TIP3    H241027   5.138   3.475   8.457
 6490TIP3   OH241028   1.043   5.289   1.607
 6490TIP3    H141029   1.046   5.374   1.563
 6490TIP3    H241030   1.055   5.226   1.536
 6491TIP3   OH241031   2.446   1.177   2.354
 6491TIP3    H141032   2.541   1.182   2.367
 6491TIP3    H241033   2.425   1.084   2.367
 6492TIP3   OH241034   5.103   3.614   8.176
 6492TIP3    H141035   5.051   3.678   8.127
 6492TIP3    H241036   5.140   3.557   8.108
 6493TIP3   OH241037   0.200   5.975   1.654
 6493TIP3    H141038   0.130   5.936   1.602
 6493TIP3    H241039   0.180   6.068   1.656
 6494TIP3   OH241040   0.483   1.387   7.602
 6494TIP3    H141041   0.496   1.305   7.553
 6494TIP3    H241042   0.393   1.412   7.585
 6495TIP3   OH241043   5.318   4.959   1.456
 6495TIP3    H141044   5.405   4.997   1.453
 6495TIP3    H241045   5.311   4.924   1.545
 6496TIP3   OH241046   0.191   5.841   7.348
 6496TIP3    H141047   0.272   5.853   7.397
 6496TIP3    H241048   0.122   5.849   7.414
 6497TIP3   OH241049   1.826   1.160   6.373
 6497TIP3    H141050   1.910   1.124   6.345
 6497TIP3    H241051   1.847   1.213   6.450
 6498TIP3   OH241052   2.936   1.278   0.477
 6498TIP3    H141053   2.967   1.309   0.392
 6498TIP3    H241054   2.936   1.183   0.470
 6499TIP3   OH241055   0.974   1.399   8.514
 6499TIP3    H141056   0.939   1.365   8.432
 6499TIP3    H241057   0.952   1.332   8.579
 6500TIP3   OH241058   1.503   2.661   1.401
 6500TIP3    H141059   1.516   2.573   1.435
 6500TIP3    H241060   1.491   2.649   1.307
 6501TIP3   OH241061   3.427   2.273   1.081
 6501TIP3    H141062   3.470   2.255   0.997
 6501TIP3    H241063   3.397   2.187   1.111
 6502TIP3   OH241064   6.259   6.805   7.068
 6502TIP3    H141065   6.251   6.712   7.044
 6502TIP3    H241066   6.311   6.804   7.148
 6503TIP3   OH241067   2.124   0.209   8.272
 6503TIP3    H141068   2.050   0.228   8.330
 6503TIP3    H241069   2.197   0.190   8.332
 6504TIP3   OH241070   4.512   5.131   0.821
 6504TIP3    H141071   4.443   5.125   0.755
 6504TIP3    H241072   4.474   5.091   0.900
 6505TIP3   OH241073   1.756   0.334   7.880
 6505TIP3    H141074   1.693   0.322   7.809
 6505TIP3    H241075   1.795   0.419   7.863
 6506TIP3   OH241076   0.415   3.360   8.510
 6506TIP3    H141077   0.386   3.272   8.534
 6506TIP3    H241078   0.384   3.415   8.582
 6507TIP3   OH241079   3.586   4.770   7.472
 6507TIP3    H141080   3.557   4.759   7.381
 6507TIP3    H241081   3.657   4.706   7.482
 6508TIP3   OH241082   1.877   0.620   8.056
 6508TIP3    H141083   1.868   0.716   8.052
 6508TIP3    H241084   1.790   0.589   8.081
 6509TIP3   OH241085   3.909   6.333   6.829
 6509TIP3    H141086   3.873   6.248   6.805
 6509TIP3    H241087   3.863   6.357   6.909
 6510TIP3   OH241088   3.339   3.534   1.005
 6510TIP3    H141089   3.378   3.454   1.040
 6510TIP3    H241090   3.297   3.507   0.923
 6511TIP3   OH241091   2.041   5.976   0.140
 6511TIP3    H141092   2.051   5.886   0.171
 6511TIP3    H241093   1.954   5.978   0.099
 6512TIP3   OH241094   2.337   1.633   1.086
 6512TIP3    H141095   2.423   1.614   1.049
 6512TIP3    H241096   2.335   1.586   1.170
 6513TIP3   OH241097   0.998   1.349   6.694
 6513TIP3    H141098   1.060   1.321   6.627
 6513TIP3    H241099   1.042   1.423   6.738
 6514TIP3   OH241100   5.648   6.596   1.253
 6514TIP3    H141101   5.742   6.581   1.267
 6514TIP3    H241102   5.643   6.684   1.215
 6515TIP3   OH241103   4.408   3.795   7.352
 6515TIP3    H141104   4.391   3.715   7.401
 6515TIP3    H241105   4.332   3.805   7.295
 6516TIP3   OH241106   2.259   0.891   2.134
 6516TIP3    H141107   2.232   0.982   2.148
 6516TIP3    H241108   2.245   0.848   2.218
 6517TIP3   OH241109   0.325   4.522   2.596
 6517TIP3    H141110   0.233   4.548   2.601
 6517TIP3    H241111   0.358   4.566   2.517
 6518TIP3   OH241112   2.195   3.984   0.586
 6518TIP3    H141113   2.227   4.010   0.672
 6518TIP3    H241114   2.175   3.891   0.594
 6519TIP3   OH241115   6.379   0.228   7.223
 6519TIP3    H141116   6.413   0.149   7.266
 6519TIP3    H241117   6.400   0.216   7.131
 6520TIP3   OH241118   1.860   1.311   1.315
 6520TIP3    H141119   1.900   1.229   1.284
 6520TIP3    H241120   1.810   1.286   1.392
 6521TIP3   OH241121   3.293   3.507   0.715
 6521TIP3    H141122   3.207   3.486   0.678
 6521TIP3    H241123   3.355   3.479   0.649
 6522TIP3   OH241124   4.801   5.770   6.656
 6522TIP3    H141125   4.780   5.743   6.566
 6522TIP3    H241126   4.855   5.698   6.690
 6523TIP3   OH241127   3.861   3.304   8.068
 6523TIP3    H141128   3.916   3.375   8.036
 6523TIP3    H241129   3.797   3.289   7.998
 6524TIP3   OH241130   2.406   6.723   1.142
 6524TIP3    H141131   2.453   6.640   1.154
 6524TIP3    H241132   2.376   6.721   1.051
 6525TIP3   OH241133   5.548   4.490   7.080
 6525TIP3    H141134   5.462   4.483   7.037
 6525TIP3    H241135   5.528   4.511   7.171
 6526TIP3   OH241136   3.678   6.009   0.979
 6526TIP3    H141137   3.603   6.051   1.022
 6526TIP3    H241138   3.748   6.012   1.044
 6527TIP3   OH241139   4.342   5.430   8.638
 6527TIP3    H141140   4.287   5.379   8.697
 6527TIP3    H241141   4.364   5.509   8.688
 6528TIP3   OH241142   5.257   4.733   7.192
 6528TIP3    H141143   5.258   4.804   7.127
 6528TIP3    H241144   5.261   4.653   7.139
 6529TIP3   OH241145   4.071   0.658   6.458
 6529TIP3    H141146   4.145   0.715   6.438
 6529TIP3    H241147   4.047   0.618   6.374
 6530TIP3   OH241148   6.125   0.642   1.126
 6530TIP3    H141149   6.045   0.644   1.074
 6530TIP3    H241150   6.094   0.649   1.216
 6531TIP3   OH241151   4.803   5.675   1.266
 6531TIP3    H141152   4.735   5.698   1.203
 6531TIP3    H241153   4.851   5.604   1.224
 6532TIP3   OH241154   1.227   6.266   1.731
 6532TIP3    H141155   1.186   6.213   1.663
 6532TIP3    H241156   1.225   6.209   1.809
 6533TIP3   OH241157   4.924   1.617   0.354
 6533TIP3    H141158   4.865   1.668   0.298
 6533TIP3    H241159   4.981   1.682   0.396
 6534TIP3   OH241160   6.358   0.545   1.609
 6534TIP3    H141161   6.394   0.462   1.642
 6534TIP3    H241162   6.275   0.555   1.654
 6535TIP3   OH241163   6.476   3.162   7.310
 6535TIP3    H141164   6.477   3.066   7.314
 6535TIP3    H241165   6.568   3.187   7.308
 6536TIP3   OH241166   6.546   5.070   1.737
 6536TIP3    H141167   6.542   5.132   1.810
 6536TIP3    H241168   6.502   4.992   1.769
 6537TIP3   OH241169   6.188   4.958   7.064
 6537TIP3    H141170   6.245   4.988   6.993
 6537TIP3    H241171   6.188   5.030   7.127
 6538TIP3   OH241172   3.669   4.705   7.031
 6538TIP3    H141173   3.607   4.654   7.083
 6538TIP3    H241174   3.739   4.642   7.011
 6539TIP3   OH241175   4.760   0.624   1.917
 6539TIP3    H141176   4.727   0.714   1.910
 6539TIP3    H241177   4.688   0.575   1.958
 6540TIP3   OH241178   4.305   4.613   0.386
 6540TIP3    H141179   4.213   4.597   0.366
 6540TIP3    H241180   4.303   4.669   0.464
 6541TIP3   OH241181   0.760   5.485   6.876
 6541TIP3    H141182   0.854   5.466   6.884
 6541TIP3    H241183   0.717   5.408   6.914
 6542TIP3   OH241184   4.911   0.814   1.138
 6542TIP3    H141185   4.977   0.745   1.152
 6542TIP3    H241186   4.874   0.830   1.224
 6543TIP3   OH241187   4.660   6.693   7.422
 6543TIP3    H141188   4.705   6.749   7.485
 6543TIP3    H241189   4.656   6.607   7.464
 6544TIP3   OH241190   2.914   0.399   0.010
 6544TIP3    H141191   2.969   0.395   0.089
 6544TIP3    H241192   2.901   0.308   8.698
 6545TIP3   OH241193   4.120   4.068   2.124
 6545TIP3    H141194   4.038   4.053   2.076
 6545TIP3    H241195   4.114   4.011   2.201
 6546TIP3   OH241196   3.340   3.537   6.811
 6546TIP3    H141197   3.400   3.515   6.882
 6546TIP3    H241198   3.384   3.509   6.731
 6547TIP3   OH241199   5.776   2.003   1.378
 6547TIP3    H141200   5.737   1.941   1.317
 6547TIP3    H241201   5.706   2.065   1.399
 6548TIP3   OH241202   4.831   1.561   1.265
 6548TIP3    H141203   4.886   1.544   1.189
 6548TIP3    H241204   4.864   1.643   1.300
 6549TIP3   OH241205   1.938   4.752   1.131
 6549TIP3    H141206   2.016   4.742   1.184
 6549TIP3    H241207   1.935   4.672   1.078
 6550TIP3   OH241208   6.089   4.652   0.040
 6550TIP3    H141209   6.167   4.620   0.086
 6550TIP3    H241210   6.025   4.582   0.051
 6551TIP3   OH241211   4.631   4.961   0.611
 6551TIP3    H141212   4.566   5.006   0.665
 6551TIP3    H241213   4.714   4.973   0.658
 6552TIP3   OH241214   1.259   5.770   1.959
 6552TIP3    H141215   1.218   5.786   2.044
 6552TIP3    H241216   1.278   5.676   1.958
 6553TIP3   OH241217   1.232   2.617   0.537
 6553TIP3    H141218   1.276   2.537   0.565
 6553TIP3    H241219   1.139   2.594   0.537
 6554TIP3   OH241220   3.966   6.754   1.081
 6554TIP3    H141221   3.934   6.771   0.992
 6554TIP3    H241222   4.057   6.784   1.079
 6555TIP3   OH241223   6.802   4.001   2.513
 6555TIP3    H141224   6.735   4.068   2.499
 6555TIP3    H241225   6.768   3.923   2.469
 6556TIP3   OH241226   5.055   1.819   8.002
 6556TIP3    H141227   5.150   1.826   8.010
 6556TIP3    H241228   5.032   1.743   8.054
 6557TIP3   OH241229   1.335   0.661   1.567
 6557TIP3    H141230   1.429   0.681   1.571
 6557TIP3    H241231   1.308   0.657   1.659
 6558TIP3   OH241232   0.288   2.885   1.546
 6558TIP3    H141233   0.340   2.965   1.556
 6558TIP3    H241234   0.207   2.903   1.594
 6559TIP3   OH241235   4.662   6.208   7.566
 6559TIP3    H141236   4.623   6.130   7.525
 6559TIP3    H241237   4.692   6.177   7.652
 6560TIP3   OH241238   4.480   0.079   0.857
 6560TIP3    H141239   4.467   0.018   0.930
 6560TIP3    H241240   4.415   0.147   0.871
 6561TIP3   OH241241   5.905   5.951   7.034
 6561TIP3    H141242   5.921   5.879   7.094
 6561TIP3    H241243   5.874   5.909   6.954
 6562TIP3   OH241244   0.298   1.165   1.357
 6562TIP3    H141245   0.278   1.100   1.289
 6562TIP3    H241246   0.269   1.124   1.439
 6563TIP3   OH241247   1.686   4.082   8.596
 6563TIP3    H141248   1.601   4.117   8.569
 6563TIP3    H241249   1.709   4.133   8.674
 6564TIP3   OH241250   5.959   2.857   0.664
 6564TIP3    H141251   5.970   2.893   0.576
 6564TIP3    H241252   5.924   2.769   0.650
 6565TIP3   OH241253   1.787   3.534   7.585
 6565TIP3    H141254   1.821   3.505   7.670
 6565TIP3    H241255   1.865   3.537   7.528
 6566TIP3   OH241256   6.496   0.398   1.342
 6566TIP3    H141257   6.408   0.369   1.364
 6566TIP3    H241258   6.486   0.445   1.260
 6567TIP3   OH241259   6.625   4.334   1.437
 6567TIP3    H141260   6.662   4.391   1.369
 6567TIP3    H241261   6.681   4.348   1.513
 6568TIP3   OH241262   3.522   4.268   1.612
 6568TIP3    H141263   3.574   4.340   1.647
 6568TIP3    H241264   3.478   4.230   1.688
 6569TIP3   OH241265   6.228   0.009   8.191
 6569TIP3    H141266   6.268   0.007   8.278
 6569TIP3    H241267   6.256   0.093   8.154
 6570TIP3   OH241268   5.670   2.674   8.283
 6570TIP3    H141269   5.611   2.614   8.238
 6570TIP3    H241270   5.715   2.721   8.212
 6571TIP3   OH241271   0.907   6.076   7.966
 6571TIP3    H141272   0.946   5.989   7.971
 6571TIP3    H241273   0.949   6.125   8.036
 6572TIP3   OH241274   6.560   0.128   7.454
 6572TIP3    H141275   6.540   0.207   7.504
 6572TIP3    H241276   6.627   0.083   7.506
 6573TIP3   OH241277   3.902   3.086   6.676
 6573TIP3    H141278   3.881   3.077   6.583
 6573TIP3    H241279   3.960   3.161   6.681
 6574TIP3   OH241280   5.739   3.399   7.791
 6574TIP3    H141281   5.715   3.486   7.824
 6574TIP3    H241282   5.721   3.403   7.697
 6575TIP3   OH241283   2.267   2.622   0.248
 6575TIP3    H141284   2.242   2.586   0.163
 6575TIP3    H241285   2.185   2.630   0.296
 6576TIP3   OH241286   3.246   3.781   8.002
 6576TIP3    H141287   3.273   3.864   7.964
 6576TIP3    H241288   3.236   3.800   8.096
 6577TIP3   OH241289   3.988   5.506   2.177
 6577TIP3    H141290   3.964   5.459   2.098
 6577TIP3    H241291   3.928   5.581   2.180
 6578TIP3   OH241292   6.565   0.449   8.122
 6578TIP3    H141293   6.507   0.458   8.047
 6578TIP3    H241294   6.649   0.481   8.092
 6579TIP3   OH241295   2.878   4.835   7.943
 6579TIP3    H141296   2.925   4.900   7.996
 6579TIP3    H241297   2.808   4.885   7.901
 6580TIP3   OH241298   0.387   2.123   7.129
 6580TIP3    H141299   0.434   2.195   7.088
 6580TIP3    H241300   0.442   2.046   7.112
 6581TIP3   OH241301   5.437   2.718   7.019
 6581TIP3    H141302   5.352   2.721   7.064
 6581TIP3    H241303   5.419   2.666   6.940
 6582TIP3   OH241304   3.975   4.054   7.172
 6582TIP3    H141305   3.997   4.143   7.197
 6582TIP3    H241306   4.056   4.018   7.136
 6583TIP3   OH241307   2.108   3.989   0.905
 6583TIP3    H141308   2.026   3.951   0.938
 6583TIP3    H241309   2.169   3.915   0.903
 6584TIP3   OH241310   6.611   6.591   0.953
 6584TIP3    H141311   6.600   6.560   0.863
 6584TIP3    H241312   6.680   6.657   0.947
 6585TIP3   OH241313   0.478   6.095   1.074
 6585TIP3    H141314   0.427   6.150   1.014
 6585TIP3    H241315   0.431   6.012   1.077
 6586TIP3   OH241316   3.559   4.364   6.779
 6586TIP3    H141317   3.653   4.379   6.769
 6586TIP3    H241318   3.541   4.284   6.730
 6587TIP3   OH241319   6.016   1.348   0.710
 6587TIP3    H141320   5.946   1.383   0.765
 6587TIP3    H241321   6.082   1.317   0.772
 6588TIP3   OH241322   2.895   0.938   1.134
 6588TIP3    H141323   2.884   0.879   1.059
 6588TIP3    H241324   2.850   0.892   1.206
 6589TIP3   OH241325   6.708   1.972   7.291
 6589TIP3    H141326   6.668   2.059   7.295
 6589TIP3    H241327   6.791   1.982   7.339
 6590TIP3   OH241328   0.523   0.182   1.450
 6590TIP3    H141329   0.488   0.162   1.537
 6590TIP3    H241330   0.596   0.121   1.440
 6591TIP3   OH241331   5.564   1.414   8.148
 6591TIP3    H141332   5.577   1.478   8.078
 6591TIP3    H241333   5.491   1.360   8.119
 6592TIP3   OH241334   6.315   3.052   8.266
 6592TIP3    H141335   6.389   3.019   8.215
 6592TIP3    H241336   6.355   3.108   8.332
 6593TIP3   OH241337   0.795   1.123   1.282
 6593TIP3    H141338   0.735   1.054   1.312
 6593TIP3    H241339   0.763   1.203   1.325
 6594TIP3   OH241340   5.180   3.376   1.892
 6594TIP3    H141341   5.273   3.387   1.912
 6594TIP3    H241342   5.162   3.284   1.915
 6595TIP3   OH241343   0.445   6.744   6.631
 6595TIP3    H141344   0.401   6.688   6.567
 6595TIP3    H241345   0.374   6.789   6.676
 6596TIP3   OH241346   0.508   2.722   8.292
 6596TIP3    H141347   0.597   2.689   8.301
 6596TIP3    H241348   0.456   2.646   8.267
 6597TIP3   OH241349   1.784   1.873   8.670
 6597TIP3    H141350   1.779   1.969   8.673
 6597TIP3    H241351   1.708   1.847   8.618
 6598TIP3   OH241352   6.437   1.496   2.514
 6598TIP3    H141353   6.514   1.539   2.553
 6598TIP3    H241354   6.472   1.446   2.441
 6599TIP3   OH241355   4.681   1.055   2.247
 6599TIP3    H141356   4.770   1.083   2.224
 6599TIP3    H241357   4.655   1.114   2.318
 6600TIP3   OH241358   5.944   2.752   1.225
 6600TIP3    H141359   5.884   2.699   1.279
 6600TIP3    H241360   5.925   2.842   1.250
 6601TIP3   OH241361   1.767   3.087   8.047
 6601TIP3    H141362   1.771   3.157   7.982
 6601TIP3    H241363   1.798   3.009   8.000
 6602TIP3   OH241364   1.599   5.995   7.034
 6602TIP3    H141365   1.682   5.959   7.063
 6602TIP3    H241366   1.620   6.045   6.955
 6603TIP3   OH241367   4.223   4.760   0.601
 6603TIP3    H141368   4.129   4.747   0.612
 6603TIP3    H241369   4.235   4.855   0.609
 6604TIP3   OH241370   5.481   5.846   0.254
 6604TIP3    H141371   5.544   5.897   0.204
 6604TIP3    H241372   5.502   5.755   0.235
 6605TIP3   OH241373   1.532   3.946   8.126
 6605TIP3    H141374   1.595   3.957   8.196
 6605TIP3    H241375   1.464   3.890   8.163
 6606TIP3   OH241376   1.349   0.737   8.173
 6606TIP3    H141377   1.432   0.695   8.196
 6606TIP3    H241378   1.284   0.667   8.182
 6607TIP3   OH241379   2.849   4.627   2.339
 6607TIP3    H141380   2.873   4.670   2.257
 6607TIP3    H241381   2.899   4.545   2.338
 6608TIP3   OH241382   2.806   5.265   2.461
 6608TIP3    H141383   2.764   5.345   2.431
 6608TIP3    H241384   2.894   5.267   2.422
 6609TIP3   OH241385   1.899   5.768   0.392
 6609TIP3    H141386   1.873   5.858   0.412
 6609TIP3    H241387   1.836   5.714   0.439
 6610TIP3   OH241388   1.879   0.570   7.418
 6610TIP3    H141389   1.958   0.533   7.458
 6610TIP3    H241390   1.907   0.596   7.330
 6611TIP3   OH241391   2.159   3.299   0.149
 6611TIP3    H141392   2.239   3.343   0.122
 6611TIP3    H241393   2.187   3.211   0.176
 6612TIP3   OH241394   5.531   5.134   6.725
 6612TIP3    H141395   5.440   5.155   6.745
 6612TIP3    H241396   5.540   5.151   6.632
 6613TIP3   OH241397   5.855   1.973   2.483
 6613TIP3    H141398   5.840   1.892   2.532
 6613TIP3    H241399   5.945   1.966   2.451
 6614TIP3   OH241400   4.740   1.666   8.584
 6614TIP3    H141401   4.648   1.665   8.610
 6614TIP3    H241402   4.752   1.584   8.535
 6615TIP3   OH241403   6.357   6.618   8.029
 6615TIP3    H141404   6.311   6.697   7.998
 6615TIP3    H241405   6.421   6.651   8.093
 6616TIP3   OH241406   6.242   5.246   2.223
 6616TIP3    H141407   6.319   5.205   2.263
 6616TIP3    H241408   6.185   5.172   2.200
 6617TIP3   OH241409   5.601   1.644   2.345
 6617TIP3    H141410   5.586   1.608   2.432
 6617TIP3    H241411   5.569   1.578   2.285
 6618TIP3   OH241412   3.269   2.037   8.279
 6618TIP3    H141413   3.316   2.113   8.246
 6618TIP3    H241414   3.297   2.029   8.370
 6619TIP3   OH241415   5.845   0.500   7.514
 6619TIP3    H141416   5.853   0.411   7.480
 6619TIP3    H241417   5.927   0.543   7.490
 6620TIP3   OH241418   2.385   4.087   7.735
 6620TIP3    H141419   2.471   4.097   7.777
 6620TIP3    H241420   2.326   4.062   7.806
 6621TIP3   OH241421   0.769   2.710   8.396
 6621TIP3    H141422   0.847   2.721   8.450
 6621TIP3    H241423   0.704   2.670   8.454
 6622TIP3   OH241424   2.912   3.076   0.496
 6622TIP3    H141425   2.965   3.141   0.542
 6622TIP3    H241426   2.830   3.073   0.545
 6623TIP3   OH241427   6.449   1.792   7.774
 6623TIP3    H141428   6.486   1.877   7.750
 6623TIP3    H241429   6.462   1.786   7.869
 6624TIP3   OH241430   4.822   2.082   1.224
 6624TIP3    H141431   4.745   2.035   1.192
 6624TIP3    H241432   4.871   2.016   1.273
 6625TIP3   OH241433   2.453   3.301   1.086
 6625TIP3    H141434   2.421   3.334   1.170
 6625TIP3    H241435   2.536   3.348   1.073
 6626TIP3   OH241436   1.466   1.647   1.389
 6626TIP3    H141437   1.485   1.554   1.396
 6626TIP3    H241438   1.506   1.673   1.306
 6627TIP3   OH241439   0.613   6.502   1.766
 6627TIP3    H141440   0.526   6.466   1.749
 6627TIP3    H241441   0.641   6.461   1.847
 6628TIP3   OH241442   6.447   4.632   2.051
 6628TIP3    H141443   6.423   4.539   2.045
 6628TIP3    H241444   6.451   4.661   1.960
 6629TIP3   OH241445   5.537   5.345   7.555
 6629TIP3    H141446   5.504   5.434   7.569
 6629TIP3    H241447   5.621   5.344   7.601
 6630TIP3   OH241448   2.184   2.875   1.633
 6630TIP3    H141449   2.180   2.892   1.539
 6630TIP3    H241450   2.092   2.873   1.660
 6631TIP3   OH241451   3.825   1.954   7.710
 6631TIP3    H141452   3.749   1.905   7.677
 6631TIP3    H241453   3.864   1.896   7.775
 6632TIP3   OH241454   1.287   3.537   0.432
 6632TIP3    H141455   1.211   3.596   0.436
 6632TIP3    H241456   1.354   3.582   0.483
 6633TIP3   OH241457   1.529   5.705   0.006
 6633TIP3    H141458   1.558   5.791   0.035
 6633TIP3    H241459   1.509   5.658   0.087
 6634TIP3   OH241460   0.040   1.887   7.070
 6634TIP3    H141461   0.021   1.917   7.158
 6634TIP3    H241462   6.798   1.891   7.024
 6635TIP3   OH241463   0.764   5.269   0.824
 6635TIP3    H141464   0.762   5.243   0.731
 6635TIP3    H241465   0.854   5.295   0.839
 6636TIP3   OH241466   5.827   1.506   0.854
 6636TIP3    H141467   5.758   1.462   0.805
 6636TIP3    H241468   5.780   1.571   0.907
 6637TIP3   OH241469   1.010   5.940   8.593
 6637TIP3    H141470   1.015   5.946   8.689
 6637TIP3    H241471   1.090   5.895   8.567
 6638TIP3   OH241472   5.483   6.731   7.360
 6638TIP3    H141473   5.571   6.756   7.388
 6638TIP3    H241474   5.425   6.764   7.429
 6639TIP3   OH241475   4.063   4.558   0.979
 6639TIP3    H141476   4.029   4.493   0.918
 6639TIP3    H241477   4.009   4.549   1.057
 6640TIP3   OH241478   4.313   2.852   8.029
 6640TIP3    H141479   4.236   2.842   8.085
 6640TIP3    H241480   4.285   2.913   7.961
 6641TIP3   OH241481   1.740   3.591   8.569
 6641TIP3    H141482   1.712   3.597   8.661
 6641TIP3    H241483   1.669   3.543   8.526
 6642TIP3   OH241484   5.605   3.314   0.825
 6642TIP3    H141485   5.604   3.303   0.920
 6642TIP3    H241486   5.652   3.396   0.811
 6643TIP3   OH241487   4.846   3.657   8.013
 6643TIP3    H141488   4.814   3.722   8.076
 6643TIP3    H241489   4.803   3.680   7.931
 6644TIP3   OH241490   2.653   2.736   0.392
 6644TIP3    H141491   2.726   2.701   0.444
 6644TIP3    H241492   2.630   2.666   0.332
 6645TIP3   OH241493   3.376   2.707   1.648
 6645TIP3    H141494   3.298   2.651   1.653
 6645TIP3    H241495   3.376   2.755   1.730
 6646TIP3   OH241496   6.272   1.716   2.537
 6646TIP3    H141497   6.326   1.644   2.505
 6646TIP3    H241498   6.306   1.734   2.625
 6647TIP3   OH241499   4.870   5.614   8.455
 6647TIP3    H141500   4.909   5.607   8.542
 6647TIP3    H241501   4.859   5.523   8.426
 6648TIP3   OH241502   2.064   6.393   0.625
 6648TIP3    H141503   2.116   6.333   0.571
 6648TIP3    H241504   2.063   6.352   0.712
 6649TIP3   OH241505   3.773   3.766   1.795
 6649TIP3    H141506   3.830   3.694   1.822
 6649TIP3    H241507   3.690   3.749   1.841
 6650TIP3   OH241508   5.129   6.459   7.879
 6650TIP3    H141509   5.044   6.419   7.897
 6650TIP3    H241510   5.116   6.552   7.895
 6651TIP3   OH241511   0.068   0.048   2.419
 6651TIP3    H141512   0.093   0.015   2.505
 6651TIP3    H241513   0.025   0.132   2.436
 6652TIP3   OH241514   0.467   1.361   2.359
 6652TIP3    H141515   0.394   1.314   2.319
 6652TIP3    H241516   0.540   1.300   2.355
 6653TIP3   OH241517   6.695   3.345   2.072
 6653TIP3    H141518   6.655   3.349   1.985
 6653TIP3    H241519   6.695   3.436   2.103
 6654TIP3   OH241520   2.167   5.955   8.080
 6654TIP3    H141521   2.113   6.023   8.119
 6654TIP3    H241522   2.166   5.974   7.986
 6655TIP3   OH241523   2.070   5.317   2.378
 6655TIP3    H141524   2.098   5.404   2.351
 6655TIP3    H241525   2.150   5.264   2.375
 6656TIP3   OH241526   0.697   5.091   8.650
 6656TIP3    H141527   0.623   5.030   8.657
 6656TIP3    H241528   0.722   5.108   0.027
 6657TIP3   OH241529   2.310   2.018   7.826
 6657TIP3    H141530   2.378   2.076   7.861
 6657TIP3    H241531   2.359   1.950   7.780
 6658TIP3   OH241532   1.502   3.808   0.761
 6658TIP3    H141533   1.518   3.751   0.837
 6658TIP3    H241534   1.465   3.888   0.797
 6659TIP3   OH241535   0.524   4.054   7.577
 6659TIP3    H141536   0.525   4.141   7.616
 6659TIP3    H241537   0.575   4.062   7.497
 6660TIP3   OH241538   6.662   2.367   8.687
 6660TIP3    H141539   6.725   2.299   8.664
 6660TIP3    H241540   6.584   2.345   8.637
 6661TIP3   OH241541   3.562   3.394   0.531
 6661TIP3    H141542   3.627   3.323   0.525
 6661TIP3    H241543   3.574   3.430   0.618
 6662TIP3   OH241544   3.114   4.683   7.992
 6662TIP3    H141545   3.035   4.736   8.000
 6662TIP3    H241546   3.179   4.729   8.045
 6663TIP3   OH241547   5.851   6.783   1.088
 6663TIP3    H141548   5.947   6.782   1.088
 6663TIP3    H241549   5.828   0.033   1.092
 6664TIP3   OH241550   4.544   0.973   8.613
 6664TIP3    H141551   4.621   0.937   8.658
 6664TIP3    H241552   4.580   1.022   8.539
 6665TIP3   OH241553   3.932   0.847   2.111
 6665TIP3    H141554   3.941   0.914   2.043
 6665TIP3    H241555   3.875   0.887   2.177
 6666TIP3   OH241556   5.955   3.451   7.399
 6666TIP3    H141557   5.956   3.508   7.322
 6666TIP3    H241558   5.862   3.443   7.420
 6667TIP3   OH241559   2.771   3.279   1.235
 6667TIP3    H141560   2.717   3.235   1.301
 6667TIP3    H241561   2.771   3.219   1.160
 6668TIP3   OH241562   1.285   1.000   8.209
 6668TIP3    H141563   1.298   0.907   8.223
 6668TIP3    H241564   1.211   1.023   8.265
 6669TIP3   OH241565   4.161   1.936   0.196
 6669TIP3    H141566   4.075   1.978   0.201
 6669TIP3    H241567   4.168   1.886   0.277
 6670TIP3   OH241568   2.225   2.566   6.774
 6670TIP3    H141569   2.294   2.569   6.707
 6670TIP3    H241570   2.267   2.602   6.852
 6671TIP3   OH241571   6.803   3.728   7.408
 6671TIP3    H141572   6.762   3.704   7.491
 6671TIP3    H241573   6.761   3.671   7.343
 6672TIP3   OH241574   0.015   3.360   8.198
 6672TIP3    H141575   0.039   3.441   8.153
 6672TIP3    H241576   0.070   3.293   8.158
 6673TIP3   OH241577   0.005   4.149   6.697
 6673TIP3    H141578   0.027   4.081   6.760
 6673TIP3    H241579   0.086   4.198   6.686
 6674TIP3   OH241580   5.329   5.554   1.268
 6674TIP3    H141581   5.323   5.481   1.206
 6674TIP3    H241582   5.415   5.543   1.309
 6675TIP3   OH241583   1.327   0.195   1.094
 6675TIP3    H141584   1.370   0.219   1.177
 6675TIP3    H241585   1.239   0.169   1.120
 6676TIP3   OH241586   5.125   6.339   0.620
 6676TIP3    H141587   5.123   6.391   0.700
 6676TIP3    H241588   5.059   6.379   0.563
 6677TIP3   OH241589   6.707   1.657   1.209
 6677TIP3    H141590   6.683   1.719   1.141
 6677TIP3    H241591   6.634   1.594   1.211
 6678TIP3   OH241592   3.775   5.521   1.375
 6678TIP3    H141593   3.737   5.506   1.288
 6678TIP3    H241594   3.869   5.514   1.362
 6679TIP3   OH241595   6.657   2.995   8.128
 6679TIP3    H141596   6.612   3.000   8.212
 6679TIP3    H241597   6.683   2.903   8.120
 6680TIP3   OH241598   0.640   1.222   0.298
 6680TIP3    H141599   0.702   1.260   0.360
 6680TIP3    H241600   0.606   1.145   0.344
 6681TIP3   OH241601   3.751   1.947   0.962
 6681TIP3    H141602   3.741   1.898   1.044
 6681TIP3    H241603   3.840   1.981   0.964
 6682TIP3   OH241604   3.351   3.771   0.085
 6682TIP3    H141605   3.415   3.706   0.114
 6682TIP3    H241606   3.267   3.725   0.088
 6683TIP3   OH241607   2.413   4.450   1.121
 6683TIP3    H141608   2.444   4.368   1.082
 6683TIP3    H241609   2.478   4.469   1.189
 6684TIP3   OH241610   1.650   4.782   7.215
 6684TIP3    H141611   1.566   4.827   7.221
 6684TIP3    H241612   1.636   4.699   7.261
 6685TIP3   OH241613   4.563   5.262   0.081
 6685TIP3    H141614   4.625   5.208   0.032
 6685TIP3    H241615   4.558   5.344   0.032
 6686TIP3   OH241616   1.829   5.408   0.480
 6686TIP3    H141617   1.868   5.322   0.462
 6686TIP3    H241618   1.785   5.431   0.398
 6687TIP3   OH241619   3.548   2.129   7.076
 6687TIP3    H141620   3.479   2.187   7.044
 6687TIP3    H241621   3.619   2.139   7.012
 6688TIP3   OH241622   6.450   3.832   2.131
 6688TIP3    H141623   6.450   3.784   2.048
 6688TIP3    H241624   6.518   3.899   2.120
 6689TIP3   OH241625   1.287   1.614   8.108
 6689TIP3    H141626   1.291   1.521   8.083
 6689TIP3    H241627   1.247   1.657   8.032
 6690TIP3   OH241628   1.204   0.172   6.666
 6690TIP3    H141629   1.270   0.118   6.622
 6690TIP3    H241630   1.134   0.111   6.688
 6691TIP3   OH241631   4.595   3.369   7.649
 6691TIP3    H141632   4.524   3.428   7.673
 6691TIP3    H241633   4.591   3.364   7.554
 6692TIP3   OH241634   4.067   3.062   8.131
 6692TIP3    H141635   3.979   3.088   8.159
 6692TIP3    H241636   4.124   3.091   8.202
 6693TIP3   OH241637   0.140   3.454   0.206
 6693TIP3    H141638   0.168   3.399   0.279
 6693TIP3    H241639   0.221   3.477   0.161
 6694TIP3   OH241640   1.933   4.051   6.428
 6694TIP3    H141641   1.851   4.004   6.415
 6694TIP3    H241642   1.999   3.998   6.384
 6695TIP3   OH241643   1.274   5.849   1.011
 6695TIP3    H141644   1.337   5.856   1.083
 6695TIP3    H241645   1.272   5.756   0.989
 6696TIP3   OH241646   3.371   2.827   1.908
 6696TIP3    H141647   3.302   2.839   1.974
 6696TIP3    H241648   3.452   2.843   1.956
 6697TIP3   OH241649   0.170   4.200   7.010
 6697TIP3    H141650   0.094   4.212   7.068
 6697TIP3    H241651   0.143   4.131   6.949
 6698TIP3   OH241652   1.915   2.407   7.639
 6698TIP3    H141653   1.942   2.318   7.617
 6698TIP3    H241654   1.821   2.400   7.657
 6699TIP3   OH241655   5.452   0.572   8.516
 6699TIP3    H141656   5.432   0.618   8.598
 6699TIP3    H241657   5.366   0.556   8.476
 6700TIP3   OH241658   1.588   3.177   8.683
 6700TIP3    H141659   1.523   3.147   0.033
 6700TIP3    H241660   1.650   3.228   0.022
 6701TIP3   OH241661   2.468   0.418   7.219
 6701TIP3    H141662   2.499   0.480   7.285
 6701TIP3    H241663   2.462   0.470   7.138
 6702TIP3   OH241664   5.474   1.807   2.709
 6702TIP3    H141665   5.440   1.718   2.715
 6702TIP3    H241666   5.546   1.810   2.771
 6703TIP3   OH241667   2.101   3.486   1.380
 6703TIP3    H141668   2.041   3.542   1.430
 6703TIP3    H241669   2.181   3.484   1.431
 6704TIP3   OH241670   0.860   1.559   1.236
 6704TIP3    H141671   0.888   1.649   1.254
 6704TIP3    H241672   0.800   1.567   1.162
 6705TIP3   OH241673   2.621   5.064   8.342
 6705TIP3    H141674   2.614   5.047   8.248
 6705TIP3    H241675   2.608   4.978   8.382
 6706TIP3   OH241676   4.226   0.038   7.902
 6706TIP3    H141677   4.265   0.095   7.836
 6706TIP3    H241678   4.164   0.095   7.949
 6707TIP3   OH241679   6.109   1.922   2.459
 6707TIP3    H141680   6.178   1.981   2.427
 6707TIP3    H241681   6.157   1.852   2.504
 6708TIP3   OH241682   2.952   3.873   0.428
 6708TIP3    H141683   2.898   3.794   0.428
 6708TIP3    H241684   3.039   3.843   0.403
 6709TIP3   OH241685   4.480   2.778   7.688
 6709TIP3    H141686   4.572   2.787   7.710
 6709TIP3    H241687   4.438   2.856   7.724
 6710TIP3   OH241688   0.843   1.553   0.906
 6710TIP3    H141689   0.845   1.460   0.932
 6710TIP3    H241690   0.758   1.584   0.937
 6711TIP3   OH241691   5.962   2.598   2.007
 6711TIP3    H141692   5.881   2.619   2.052
 6711TIP3    H241693   5.968   2.502   2.011
 6712TIP3   OH241694   6.544   4.124   0.795
 6712TIP3    H141695   6.505   4.066   0.860
 6712TIP3    H241696   6.525   4.212   0.827
 6713TIP3   OH241697   6.109   6.595   0.789
 6713TIP3    H141698   6.075   6.507   0.774
 6713TIP3    H241699   6.032   6.646   0.815
 6714TIP3   OH241700   3.573   5.774   0.132
 6714TIP3    H141701   3.644   5.812   0.081
 6714TIP3    H241702   3.588   5.806   0.221
 6715TIP3   OH241703   3.414   0.501   7.306
 6715TIP3    H141704   3.429   0.406   7.307
 6715TIP3    H241705   3.373   0.518   7.222
 6716TIP3   OH241706   3.196   0.509   7.495
 6716TIP3    H141707   3.268   0.536   7.438
 6716TIP3    H241708   3.165   0.427   7.457
 6717TIP3   OH241709   2.966   4.024   1.823
 6717TIP3    H141710   3.017   3.964   1.879
 6717TIP3    H241711   2.903   4.063   1.883
 6718TIP3   OH241712   2.184   4.436   1.750
 6718TIP3    H141713   2.252   4.424   1.816
 6718TIP3    H241714   2.203   4.370   1.683
 6719TIP3   OH241715   0.229   3.637   8.416
 6719TIP3    H141716   0.234   3.703   8.484
 6719TIP3    H241717   0.193   3.560   8.459
 6720TIP3   OH241718   4.622   4.293   2.011
 6720TIP3    H141719   4.643   4.208   2.051
 6720TIP3    H241720   4.695   4.310   1.952
 6721TIP3   OH241721   0.741   1.940   0.874
 6721TIP3    H141722   0.682   1.880   0.918
 6721TIP3    H241723   0.769   1.894   0.795
 6722TIP3   OH241724   2.433   0.571   8.283
 6722TIP3    H141725   2.467   0.487   8.313
 6722TIP3    H241726   2.426   0.562   8.188
 6723TIP3   OH241727   5.286   4.659   0.291
 6723TIP3    H141728   5.225   4.590   0.318
 6723TIP3    H241729   5.230   4.734   0.271
 6724TIP3   OH241730   1.605   3.009   7.323
 6724TIP3    H141731   1.529   3.005   7.382
 6724TIP3    H241732   1.573   2.973   7.240
 6725TIP3   OH241733   5.776   3.394   0.423
 6725TIP3    H141734   5.834   3.366   0.352
 6725TIP3    H241735   5.834   3.438   0.486
 6726TIP3   OH241736   5.697   1.088   1.172
 6726TIP3    H141737   5.773   1.144   1.187
 6726TIP3    H241738   5.663   1.069   1.259
 6727TIP3   OH241739   1.979   4.452   8.449
 6727TIP3    H141740   2.060   4.497   8.472
 6727TIP3    H241741   1.932   4.443   8.532
 6728TIP3   OH241742   6.157   0.358   0.131
 6728TIP3    H141743   6.124   0.370   0.220
 6728TIP3    H241744   6.195   0.271   0.132
 6729TIP3   OH241745   0.199   0.456   6.639
 6729TIP3    H141746   0.122   0.432   6.689
 6729TIP3    H241747   0.164   0.493   6.558
 6730TIP3   OH241748   1.629   6.585   0.140
 6730TIP3    H141749   1.688   6.661   0.141
 6730TIP3    H241750   1.636   6.547   0.227
 6731TIP3   OH241751   3.522   4.298   6.363
 6731TIP3    H141752   3.492   4.210   6.382
 6731TIP3    H241753   3.618   4.294   6.371
 6732TIP3   OH241754   4.335   2.174   0.772
 6732TIP3    H141755   4.384   2.222   0.838
 6732TIP3    H241756   4.257   2.227   0.757
 6733TIP3   OH241757   3.021   3.979   7.337
 6733TIP3    H141758   2.988   3.948   7.421
 6733TIP3    H241759   3.040   3.899   7.287
 6734TIP3   OH241760   5.731   6.290   0.240
 6734TIP3    H141761   5.758   6.236   0.166
 6734TIP3    H241762   5.648   6.329   0.212
 6735TIP3   OH241763   4.442   0.344   1.431
 6735TIP3    H141764   4.498   0.405   1.383
 6735TIP3    H241765   4.461   0.363   1.523
 6736TIP3   OH241766   0.412   4.160   6.758
 6736TIP3    H141767   0.478   4.228   6.746
 6736TIP3    H241768   0.419   4.136   6.850
 6737TIP3   OH241769   4.987   0.498   8.293
 6737TIP3    H141770   4.978   0.465   8.382
 6737TIP3    H241771   4.927   0.443   8.241
 6738TIP3   OH241772   6.293   2.364   0.397
 6738TIP3    H141773   6.341   2.447   0.401
 6738TIP3    H241774   6.210   2.386   0.356
 6739TIP3   OH241775   4.340   6.366   7.751
 6739TIP3    H141776   4.309   6.285   7.710
 6739TIP3    H241777   4.274   6.431   7.727
 6740TIP3   OH241778   5.346   3.163   8.522
 6740TIP3    H141779   5.270   3.192   8.573
 6740TIP3    H241780   5.401   3.241   8.516
 6741TIP3   OH241781   0.682   5.994   6.294
 6741TIP3    H141782   0.660   6.076   6.251
 6741TIP3    H241783   0.626   5.992   6.372
 6742TIP3   OH241784   4.917   5.993   0.859
 6742TIP3    H141785   4.958   5.914   0.893
 6742TIP3    H241786   4.823   5.977   0.870
 6743TIP3   OH241787   0.006   4.688   2.383
 6743TIP3    H141788   0.045   4.662   2.299
 6743TIP3    H241789   6.797   4.766   2.362
 6744TIP3   OH241790   5.563   6.815   8.507
 6744TIP3    H141791   5.559   6.807   8.602
 6744TIP3    H241792   5.624   0.044   8.491
 6745TIP3   OH241793   0.861   1.604   8.117
 6745TIP3    H141794   0.878   1.613   8.024
 6745TIP3    H241795   0.870   1.511   8.135
 6746TIP3   OH241796   6.631   3.051   0.976
 6746TIP3    H141797   6.677   3.087   1.052
 6746TIP3    H241798   6.700   3.029   0.914
 6747TIP3   OH241799   4.580   0.402   0.119
 6747TIP3    H141800   4.658   0.349   0.105
 6747TIP3    H241801   4.543   0.370   0.201
 6748TIP3   OH241802   3.737   2.988   6.861
 6748TIP3    H141803   3.696   3.057   6.914
 6748TIP3    H241804   3.782   3.036   6.791
 6749TIP3   OH241805   0.556   2.212   7.537
 6749TIP3    H141806   0.583   2.149   7.605
 6749TIP3    H241807   0.532   2.290   7.586
 6750TIP3   OH241808   2.443   1.908   0.998
 6750TIP3    H141809   2.536   1.908   0.975
 6750TIP3    H241810   2.397   1.906   0.915
 6751TIP3   OH241811   0.429   4.681   7.568
 6751TIP3    H141812   0.411   4.748   7.503
 6751TIP3    H241813   0.390   4.601   7.532
 6752TIP3   OH241814   0.115   2.886   0.321
 6752TIP3    H141815   0.180   2.828   0.283
 6752TIP3    H241816   0.083   2.840   0.399
 6753TIP3   OH241817   6.828   2.446   1.616
 6753TIP3    H141818   6.774   2.507   1.668
 6753TIP3    H241819   0.056   2.501   1.581
 6754TIP3   OH241820   0.468   5.627   1.591
 6754TIP3    H141821   0.520   5.683   1.534
 6754TIP3    H241822   0.400   5.684   1.627
 6755TIP3   OH241823   5.566   4.671   0.316
 6755TIP3    H141824   5.592   4.750   0.269
 6755TIP3    H241825   5.471   4.665   0.304
 6756TIP3   OH241826   6.704   0.221   1.277
 6756TIP3    H141827   6.641   0.288   1.302
 6756TIP3    H241828   6.658   0.138   1.289
 6757TIP3   OH241829   6.782   3.948   6.417
 6757TIP3    H141830   0.013   3.898   6.382
 6757TIP3    H241831   6.783   3.929   6.511
 6758TIP3   OH241832   4.775   6.725   0.671
 6758TIP3    H141833   4.768   6.817   0.696
 6758TIP3    H241834   4.866   6.715   0.643
 6759TIP3   OH241835   2.798   5.238   1.170
 6759TIP3    H141836   2.766   5.151   1.193
 6759TIP3    H241837   2.734   5.298   1.206
 6760TIP3   OH241838   4.289   0.466   2.057
 6760TIP3    H141839   4.312   0.443   2.147
 6760TIP3    H241840   4.207   0.516   2.066
 6761TIP3   OH241841   2.603   4.371   8.599
 6761TIP3    H141842   2.671   4.336   8.658
 6761TIP3    H241843   2.558   4.438   8.651
 6762TIP3   OH241844   2.543   2.486   2.238
 6762TIP3    H141845   2.514   2.551   2.175
 6762TIP3    H241846   2.463   2.462   2.286
 6763TIP3   OH241847   5.020   0.133   2.127
 6763TIP3    H141848   4.927   0.114   2.112
 6763TIP3    H241849   5.020   0.214   2.177
 6764TIP3   OH241850   2.642   5.002   1.157
 6764TIP3    H141851   2.586   4.940   1.203
 6764TIP3    H241852   2.670   4.957   1.078
 6765TIP3   OH241853   6.137   5.955   1.317
 6765TIP3    H141854   6.205   6.021   1.302
 6765TIP3    H241855   6.055   6.000   1.296
 6766TIP3   OH241856   0.320   4.367   8.419
 6766TIP3    H141857   0.340   4.344   8.328
 6766TIP3    H241858   0.399   4.410   8.451
 6767TIP3   OH241859   3.978   1.216   0.898
 6767TIP3    H141860   3.885   1.214   0.918
 6767TIP3    H241861   3.983   1.240   0.805
 6768TIP3   OH241862   5.482   1.171   7.603
 6768TIP3    H141863   5.476   1.248   7.546
 6768TIP3    H241864   5.542   1.112   7.557
 6769TIP3   OH241865   0.931   6.052   7.378
 6769TIP3    H141866   0.837   6.031   7.382
 6769TIP3    H241867   0.960   6.050   7.469
 6770TIP3   OH241868   6.200   0.351   6.878
 6770TIP3    H141869   6.264   0.282   6.899
 6770TIP3    H241870   6.250   0.418   6.833
 6771TIP3   OH241871   0.823   5.683   1.258
 6771TIP3    H141872   0.907   5.662   1.299
 6771TIP3    H241873   0.847   5.741   1.185
 6772TIP3   OH241874   0.452   3.592   8.098
 6772TIP3    H141875   0.402   3.672   8.080
 6772TIP3    H241876   0.385   3.524   8.108
 6773TIP3   OH241877   1.652   2.572   7.500
 6773TIP3    H141878   1.736   2.576   7.453
 6773TIP3    H241879   1.588   2.604   7.437
 6774TIP3   OH241880   3.323   6.791   0.397
 6774TIP3    H141881   3.400   0.004   0.386
 6774TIP3    H241882   3.326   6.731   0.322
 6775TIP3   OH241883   6.613   2.794   0.662
 6775TIP3    H141884   6.674   2.863   0.690
 6775TIP3    H241885   6.559   2.777   0.739
 6776TIP3   OH241886   2.688   2.138   2.473
 6776TIP3    H141887   2.650   2.120   2.386
 6776TIP3    H241888   2.729   2.055   2.498
 6777TIP3   OH241889   2.829   5.775   7.667
 6777TIP3    H141890   2.795   5.704   7.614
 6777TIP3    H241891   2.815   5.854   7.615
 6778TIP3   OH241892   6.067   5.688   6.339
 6778TIP3    H141893   6.022   5.665   6.421
 6778TIP3    H241894   6.155   5.652   6.350
 6779TIP3   OH241895   2.802   3.629   0.693
 6779TIP3    H141896   2.852   3.653   0.616
 6779TIP3    H241897   2.812   3.534   0.700
 6780TIP3   OH241898   1.837   3.218   7.804
 6780TIP3    H141899   1.905   3.151   7.795
 6780TIP3    H241900   1.805   3.232   7.715
 6781TIP3   OH241901   4.937   3.692   1.967
 6781TIP3    H141902   4.979   3.621   2.017
 6781TIP3    H241903   4.886   3.741   2.032
 6782TIP3   OH241904   0.058   1.691   1.558
 6782TIP3    H141905   0.109   1.669   1.479
 6782TIP3    H241906   0.068   1.786   1.566
 6783TIP3   OH241907   1.781   4.637   1.754
 6783TIP3    H141908   1.716   4.657   1.687
 6783TIP3    H241909   1.731   4.626   1.834
 6784TIP3   OH241910   2.802   1.058   8.420
 6784TIP3    H141911   2.707   1.071   8.422
 6784TIP3    H241912   2.813   0.963   8.422
 6785TIP3   OH241913   0.349   4.572   1.382
 6785TIP3    H141914   0.267   4.534   1.412
 6785TIP3    H241915   0.406   4.567   1.459
 6786TIP3   OH241916   2.856   5.285   7.437
 6786TIP3    H141917   2.843   5.283   7.532
 6786TIP3    H241918   2.792   5.222   7.403
 6787TIP3   OH241919   4.938   5.718   7.799
 6787TIP3    H141920   4.898   5.679   7.721
 6787TIP3    H241921   4.886   5.797   7.814
 6788TIP3   OH241922   1.382   2.601   1.708
 6788TIP3    H141923   1.409   2.640   1.625
 6788TIP3    H241924   1.449   2.534   1.725
 6789TIP3   OH241925   1.580   4.513   6.475
 6789TIP3    H141926   1.541   4.540   6.558
 6789TIP3    H241927   1.506   4.506   6.414
 6790TIP3   OH241928   4.031   2.424   2.228
 6790TIP3    H141929   4.085   2.495   2.262
 6790TIP3    H241930   4.048   2.424   2.134
 6791TIP3   OH241931   2.455   5.191   1.252
 6791TIP3    H141932   2.525   5.150   1.201
 6791TIP3    H241933   2.500   5.250   1.312
 6792TIP3   OH241934   0.326   0.197   2.274
 6792TIP3    H141935   0.368   0.188   2.360
 6792TIP3    H241936   0.239   0.231   2.293
 6793TIP3   OH241937   2.072   1.903   0.193
 6793TIP3    H141938   1.999   1.962   0.210
 6793TIP3    H241939   2.102   1.877   0.281
 6794TIP3   OH241940   1.759   2.649   1.214
 6794TIP3    H141941   1.699   2.718   1.242
 6794TIP3    H241942   1.841   2.668   1.259
 6795TIP3   OH241943   2.139   3.726   1.156
 6795TIP3    H141944   2.207   3.791   1.174
 6795TIP3    H241945   2.164   3.650   1.208
 6796TIP3   OH241946   5.760   4.127   8.377
 6796TIP3    H141947   5.673   4.143   8.411
 6796TIP3    H241948   5.786   4.043   8.417
 6797TIP3   OH241949   4.546   4.805   0.099
 6797TIP3    H141950   4.584   4.856   0.028
 6797TIP3    H241951   4.569   4.854   0.179
 6798TIP3   OH241952   5.911   3.232   0.834
 6798TIP3    H141953   5.954   3.204   0.753
 6798TIP3    H241954   5.827   3.187   0.833
 6799TIP3   OH241955   0.245   2.374   7.956
 6799TIP3    H141956   0.237   2.280   7.936
 6799TIP3    H241957   0.191   2.387   8.034
 6800TIP3   OH241958   2.023   0.191   2.379
 6800TIP3    H141959   1.940   0.146   2.360
 6800TIP3    H241960   2.005   0.242   2.457
 6801TIP3   OH241961   4.918   3.837   1.372
 6801TIP3    H141962   5.011   3.832   1.348
 6801TIP3    H241963   4.915   3.900   1.444
 6802TIP3   OH241964   2.509   1.533   8.212
 6802TIP3    H141965   2.532   1.455   8.162
 6802TIP3    H241966   2.462   1.500   8.289
 6803TIP3   OH241967   6.833   3.872   7.098
 6803TIP3    H141968   6.803   3.920   7.021
 6803TIP3    H241969   6.794   3.919   7.172
 6804TIP3   OH241970   5.187   2.396   2.042
 6804TIP3    H141971   5.098   2.363   2.030
 6804TIP3    H241972   5.179   2.491   2.033
 6805TIP3   OH241973   1.562   5.714   7.323
 6805TIP3    H141974   1.497   5.688   7.257
 6805TIP3    H241975   1.636   5.747   7.271
 6806TIP3   OH241976   1.458   4.144   7.916
 6806TIP3    H141977   1.368   4.171   7.938
 6806TIP3    H241978   1.493   4.109   7.998
 6807TIP3   OH241979   1.928   5.709   7.847
 6807TIP3    H141980   2.022   5.688   7.845
 6807TIP3    H241981   1.890   5.642   7.903
 6808TIP3   OH241982   5.415   0.738   0.284
 6808TIP3    H141983   5.370   0.808   0.333
 6808TIP3    H241984   5.506   0.745   0.311
 6809TIP3   OH241985   3.435   0.580   0.105
 6809TIP3    H141986   3.452   0.494   0.066
 6809TIP3    H241987   3.340   0.589   0.102
 6810TIP3   OH241988   3.543   0.967   8.121
 6810TIP3    H141989   3.541   0.872   8.113
 6810TIP3    H241990   3.453   0.995   8.108
 6811TIP3   OH241991   4.839   3.356   1.839
 6811TIP3    H141992   4.885   3.416   1.779
 6811TIP3    H241993   4.753   3.398   1.853
 6812TIP3   OH241994   4.010   6.059   0.013
 6812TIP3    H141995   4.001   6.134   8.668
 6812TIP3    H241996   4.017   6.097   0.101
 6813TIP3   OH241997   2.142   1.955   0.961
 6813TIP3    H141998   2.174   2.032   0.913
 6813TIP3    H241999   2.048   1.954   0.945
 6814TIP3   OH242000   5.001   3.222   0.824
 6814TIP3    H142001   4.969   3.203   0.912
 6814TIP3    H242002   5.068   3.289   0.837
 6815TIP3   OH242003   3.492   6.419   7.585
 6815TIP3    H142004   3.562   6.391   7.643
 6815TIP3    H242005   3.442   6.339   7.567
 6816TIP3   OH242006   3.467   4.668   0.195
 6816TIP3    H142007   3.459   4.735   0.128
 6816TIP3    H242008   3.473   4.586   0.146
 6817TIP3   OH242009   0.899   3.064   6.251
 6817TIP3    H142010   0.956   3.071   6.328
 6817TIP3    H242011   0.818   3.025   6.284
 6818TIP3   OH242012   1.154   2.812   7.212
 6818TIP3    H142013   1.115   2.874   7.273
 6818TIP3    H242014   1.105   2.731   7.225
 6819TIP3   OH242015   1.017   0.322   7.518
 6819TIP3    H142016   1.109   0.308   7.540
 6819TIP3    H242017   0.989   0.238   7.480
 6820TIP3   OH242018   1.879   2.058   1.482
 6820TIP3    H142019   1.891   2.152   1.498
 6820TIP3    H242020   1.893   2.048   1.388
 6821TIP3   OH242021   4.934   0.147   7.766
 6821TIP3    H142022   5.024   0.180   7.762
 6821TIP3    H242023   4.883   0.221   7.799
 6822TIP3   OH242024   5.397   6.700   2.333
 6822TIP3    H142025   5.346   6.654   2.267
 6822TIP3    H242026   5.341   6.773   2.361
 6823TIP3   OH242027   2.979   2.245   2.543
 6823TIP3    H142028   2.918   2.179   2.575
 6823TIP3    H242029   2.925   2.307   2.495
 6824TIP3   OH242030   3.365   1.323   7.786
 6824TIP3    H142031   3.282   1.280   7.805
 6824TIP3    H242032   3.389   1.291   7.699
 6825TIP3   OH242033   5.333   2.709   1.912
 6825TIP3    H142034   5.268   2.709   1.982
 6825TIP3    H242035   5.405   2.656   1.946
 6826TIP3   OH242036   4.696   0.771   0.146
 6826TIP3    H142037   4.697   0.713   0.221
 6826TIP3    H242038   4.685   0.714   0.070
 6827TIP3   OH242039   5.063   0.459   2.818
 6827TIP3    H142040   5.139   0.508   2.850
 6827TIP3    H242041   5.086   0.367   2.830
 6828TIP3   OH242042   5.556   0.242   0.770
 6828TIP3    H142043   5.582   0.154   0.796
 6828TIP3    H242044   5.465   0.233   0.742
 6829TIP3   OH242045   5.640   6.585   8.320
 6829TIP3    H142046   5.636   6.616   8.410
 6829TIP3    H242047   5.550   6.564   8.297
 6830TIP3   OH242048   3.236   0.126   0.084
 6830TIP3    H142049   3.168   0.178   0.127
 6830TIP3    H242050   3.210   0.035   0.101
 6831TIP3   OH242051   6.708   3.115   0.006
 6831TIP3    H142052   6.702   3.205   8.686
 6831TIP3    H242053   6.625   3.075   8.695
 6832TIP3   OH242054   2.996   0.007   7.546
 6832TIP3    H142055   2.911   6.839   7.588
 6832TIP3    H242056   3.018   0.099   7.561
 6833TIP3   OH242057   4.384   6.387   8.419
 6833TIP3    H142058   4.304   6.336   8.430
 6833TIP3    H242059   4.429   6.378   8.503
 6834TIP3   OH242060   3.240   5.533   7.342
 6834TIP3    H142061   3.290   5.457   7.369
 6834TIP3    H242062   3.194   5.562   7.421
 6835TIP3   OH242063   2.559   6.814   0.663
 6835TIP3    H142064   2.603   6.769   0.736
 6835TIP3    H242065   2.514   0.045   0.705
 6836TIP3   OH242066   1.497   3.538   2.049
 6836TIP3    H142067   1.446   3.566   1.973
 6836TIP3    H242068   1.432   3.506   2.112
 6837TIP3   OH242069   6.262   5.688   0.057
 6837TIP3    H142070   6.339   5.658   0.008
 6837TIP3    H242071   6.214   5.743   8.709
 6838TIP3   OH242072   3.001   6.149   2.094
 6838TIP3    H142073   3.018   6.172   2.186
 6838TIP3    H242074   3.032   6.058   2.086
 6839TIP3   OH242075   1.702   5.063   6.329
 6839TIP3    H142076   1.680   5.008   6.404
 6839TIP3    H242077   1.620   5.071   6.280
 6840TIP3   OH242078   3.252   5.387   8.289
 6840TIP3    H142079   3.177   5.440   8.259
 6840TIP3    H242080   3.304   5.448   8.340
 6841TIP3   OH242081   4.457   4.060   7.912
 6841TIP3    H142082   4.447   4.019   7.998
 6841TIP3    H242083   4.406   4.141   7.918
 6842TIP3   OH242084   5.225   2.410   6.999
 6842TIP3    H142085   5.240   2.354   7.076
 6842TIP3    H242086   5.281   2.373   6.931
 6843TIP3   OH242087   4.219   0.424   1.229
 6843TIP3    H142088   4.259   0.492   1.282
 6843TIP3    H242089   4.256   0.342   1.262
 6844TIP3   OH242090   5.067   1.081   2.545
 6844TIP3    H142091   5.012   1.061   2.621
 6844TIP3    H242092   5.007   1.122   2.482
 6845TIP3   OH242093   2.404   3.436   8.207
 6845TIP3    H142094   2.314   3.458   8.234
 6845TIP3    H242095   2.406   3.458   8.114
 6846TIP3   OH242096   1.459   3.758   0.497
 6846TIP3    H142097   1.454   3.780   0.590
 6846TIP3    H242098   1.552   3.763   0.477
 6847TIP3   OH242099   0.740   5.812   6.577
 6847TIP3    H142100   0.807   5.801   6.510
 6847TIP3    H242101   0.688   5.732   6.571
 6848TIP3   OH242102   6.139   1.096   1.552
 6848TIP3    H142103   6.129   1.017   1.500
 6848TIP3    H242104   6.171   1.162   1.490
 6849TIP3   OH242105   0.711   6.098   7.770
 6849TIP3    H142106   0.780   6.099   7.836
 6849TIP3    H242107   0.676   6.009   7.773
 6850TIP3   OH242108   5.347   5.762   7.288
 6850TIP3    H142109   5.341   5.854   7.262
 6850TIP3    H242110   5.386   5.718   7.213
 6851TIP3   OH242111   2.550   4.938   0.401
 6851TIP3    H142112   2.574   4.885   0.476
 6851TIP3    H242113   2.511   5.017   0.439
 6852TIP3   OH242114   2.013   1.827   7.608
 6852TIP3    H142115   1.985   1.753   7.662
 6852TIP3    H242116   1.963   1.818   7.527
 6853TIP3   OH242117   3.043   3.234   8.383
 6853TIP3    H142118   3.086   3.296   8.324
 6853TIP3    H242119   3.105   3.161   8.390
 6854TIP3   OH242120   5.795   0.498   0.087
 6854TIP3    H142121   5.826   0.575   0.039
 6854TIP3    H242122   5.816   0.518   0.179
 6855TIP3   OH242123   1.088   6.620   7.490
 6855TIP3    H142124   1.100   6.572   7.572
 6855TIP3    H242125   1.177   6.633   7.456
 6856TIP3   OH242126   1.696   4.310   0.797
 6856TIP3    H142127   1.666   4.392   0.837
 6856TIP3    H242128   1.617   4.273   0.758
 6857TIP3   OH242129   1.393   1.216   0.220
 6857TIP3    H142130   1.433   1.149   0.276
 6857TIP3    H242131   1.457   1.287   0.217
 6858TIP3   OH242132   0.138   4.577   7.715
 6858TIP3    H142133   0.155   4.662   7.674
 6858TIP3    H242134   0.223   4.550   7.750
 6859TIP3   OH242135   6.695   3.341   1.370
 6859TIP3    H142136   6.686   3.435   1.383
 6859TIP3    H242137   6.642   3.302   1.439
 6860TIP3   OH242138   3.424   1.894   6.895
 6860TIP3    H142139   3.338   1.888   6.937
 6860TIP3    H242140   3.476   1.947   6.956
 6861TIP3   OH242141   1.089   1.804   0.343
 6861TIP3    H142142   1.058   1.841   0.261
 6861TIP3    H242143   1.103   1.711   0.325
 6862TIP3   OH242144   4.090   5.506   0.195
 6862TIP3    H142145   4.112   5.416   0.168
 6862TIP3    H242146   4.174   5.543   0.223
 6863TIP3   OH242147   3.345   2.539   7.523
 6863TIP3    H142148   3.259   2.576   7.545
 6863TIP3    H242149   3.342   2.450   7.557
 6864TIP3   OH242150   0.950   5.573   8.610
 6864TIP3    H142151   0.939   5.482   8.580
 6864TIP3    H242152   0.966   5.622   8.529
 6865TIP3   OH242153   0.553   6.402   7.853
 6865TIP3    H142154   0.489   6.374   7.919
 6865TIP3    H242155   0.636   6.364   7.882
 6866TIP3   OH242156   6.193   3.864   2.763
 6866TIP3    H142157   6.252   3.936   2.784
 6866TIP3    H242158   6.172   3.877   2.670
 6867TIP3   OH242159   4.703   0.219   7.935
 6867TIP3    H142160   4.681   0.156   7.866
 6867TIP3    H242161   4.673   0.178   8.016
 6868TIP3   OH242162   3.045   1.028   0.216
 6868TIP3    H142163   3.031   0.983   0.133
 6868TIP3    H242164   2.958   1.038   0.253
 6869TIP3   OH242165   1.271   6.167   1.287
 6869TIP3    H142166   1.257   6.080   1.324
 6869TIP3    H242167   1.300   6.220   1.362
 6870TIP3   OH242168   2.143   6.790   2.267
 6870TIP3    H142169   2.114   6.816   2.180
 6870TIP3    H242170   2.108   0.015   2.325
 6871TIP3   OH242171   1.603   3.226   1.743
 6871TIP3    H142172   1.581   3.317   1.722
 6871TIP3    H242173   1.698   3.225   1.750
 6872TIP3   OH242174   3.647   1.476   1.848
 6872TIP3    H142175   3.674   1.567   1.831
 6872TIP3    H242176   3.580   1.459   1.782
 6873TIP3   OH242177   4.670   6.269   0.569
 6873TIP3    H142178   4.600   6.331   0.547
 6873TIP3    H242179   4.643   6.188   0.526
 6874TIP3   OH242180   6.473   6.343   0.572
 6874TIP3    H142181   6.559   6.363   0.611
 6874TIP3    H242182   6.448   6.260   0.613
 6875TIP3   OH242183   5.999   4.963   7.782
 6875TIP3    H142184   5.988   4.873   7.754
 6875TIP3    H242185   5.965   5.015   7.709
 6876TIP3   OH242186   5.305   0.286   6.639
 6876TIP3    H142187   5.355   0.215   6.601
 6876TIP3    H242188   5.345   0.366   6.604
 6877TIP3   OH242189   2.428   0.185   0.768
 6877TIP3    H142190   2.403   0.178   0.860
 6877TIP3    H242191   2.408   0.276   0.745
 6878TIP3   OH242192   1.092   1.561   0.205
 6878TIP3    H142193   1.131   1.490   0.154
 6878TIP3    H242194   1.002   1.566   0.174
 6879TIP3   OH242195   5.450   5.550   1.618
 6879TIP3    H142196   5.478   5.579   1.705
 6879TIP3    H242197   5.379   5.610   1.594
 6880TIP3   OH242198   4.626   3.651   7.448
 6880TIP3    H142199   4.565   3.703   7.396
 6880TIP3    H242200   4.588   3.649   7.535
 6881TIP3   OH242201   6.150   0.973   0.370
 6881TIP3    H142202   6.241   0.963   0.340
 6881TIP3    H242203   6.120   1.055   0.331
 6882TIP3   OH242204   3.264   2.415   1.616
 6882TIP3    H142205   3.244   2.358   1.542
 6882TIP3    H242206   3.183   2.463   1.632
 6883TIP3   OH242207   5.323   2.641   7.473
 6883TIP3    H142208   5.409   2.674   7.449
 6883TIP3    H242209   5.268   2.719   7.476
 6884TIP3   OH242210   4.111   4.992   8.651
 6884TIP3    H142211   4.069   4.922   8.601
 6884TIP3    H242212   4.057   5.069   8.634
 6885TIP3   OH242213   4.615   6.482   7.584
 6885TIP3    H142214   4.701   6.491   7.624
 6885TIP3    H242215   4.599   6.387   7.583
 6886TIP3   OH242216   2.952   3.274   7.998
 6886TIP3    H142217   2.862   3.306   8.002
 6886TIP3    H242218   2.952   3.195   8.052
 6887TIP3   OH242219   3.980   6.507   7.606
 6887TIP3    H142220   3.890   6.537   7.619
 6887TIP3    H242221   4.034   6.576   7.645
 6888TIP3   OH242222   5.543   0.201   6.873
 6888TIP3    H142223   5.587   0.170   6.952
 6888TIP3    H242224   5.470   0.254   6.906
 6889TIP3   OH242225   0.635   5.509   6.633
 6889TIP3    H142226   0.647   5.513   6.727
 6889TIP3    H242227   0.703   5.449   6.602
 6890TIP3   OH242228   3.866   2.098   0.649
 6890TIP3    H142229   3.896   2.039   0.718
 6890TIP3    H242230   3.832   2.040   0.581
 6891TIP3   OH242231   0.194   2.096   7.891
 6891TIP3    H142232   0.104   2.062   7.892
 6891TIP3    H242233   0.249   2.019   7.882
 6892TIP3   OH242234   2.960   2.180   0.214
 6892TIP3    H142235   2.885   2.131   0.181
 6892TIP3    H242236   2.927   2.269   0.228
 6893TIP3   OH242237   2.438   1.586   0.442
 6893TIP3    H142238   2.427   1.640   0.520
 6893TIP3    H242239   2.362   1.607   0.387
 6894TIP3   OH242240   1.791   6.092   8.261
 6894TIP3    H142241   1.873   6.124   8.297
 6894TIP3    H242242   1.803   5.997   8.253
 6895TIP3   OH242243   1.355   4.586   0.157
 6895TIP3    H142244   1.438   4.603   0.111
 6895TIP3    H242245   1.367   4.500   0.196
 6896TIP3   OH242246   4.467   3.350   0.491
 6896TIP3    H142247   4.392   3.359   0.433
 6896TIP3    H242248   4.473   3.256   0.508
 6897TIP3   OH242249   5.769   5.729   6.973
 6897TIP3    H142250   5.813   5.668   6.913
 6897TIP3    H242251   5.676   5.719   6.952
 6898TIP3   OH242252   3.454   5.035   1.899
 6898TIP3    H142253   3.392   5.104   1.878
 6898TIP3    H242254   3.402   4.955   1.903
 6899TIP3   OH242255   5.564   2.371   7.414
 6899TIP3    H142256   5.528   2.377   7.503
 6899TIP3    H242257   5.587   2.462   7.392
 6900TIP3   OH242258   3.619   1.177   0.058
 6900TIP3    H142259   3.659   1.155   0.142
 6900TIP3    H242260   3.533   1.213   0.081
 6901TIP3   OH242261   6.803   3.588   7.885
 6901TIP3    H142262   0.039   3.543   7.856
 6901TIP3    H242263   6.745   3.518   7.916
 6902TIP3   OH242264   2.097   4.409   7.366
 6902TIP3    H142265   2.003   4.431   7.368
 6902TIP3    H242266   2.099   4.316   7.342
 6903TIP3   OH242267   6.525   3.850   6.862
 6903TIP3    H142268   6.436   3.820   6.840
 6903TIP3    H242269   6.556   3.785   6.926
 6904TIP3   OH242270   5.876   6.148   6.364
 6904TIP3    H142271   5.823   6.094   6.423
 6904TIP3    H242272   5.812   6.196   6.311
 6905TIP3   OH242273   6.499   4.492   1.760
 6905TIP3    H142274   6.414   4.518   1.725
 6905TIP3    H242275   6.558   4.563   1.734
 6906TIP3   OH242276   3.642   4.895   6.287
 6906TIP3    H142277   3.722   4.883   6.236
 6906TIP3    H242278   3.611   4.806   6.304
 6907TIP3   OH242279   5.515   0.418   0.304
 6907TIP3    H142280   5.524   0.331   0.344
 6907TIP3    H242281   5.512   0.401   0.210
 6908TIP3   OH242282   0.804   2.249   6.675
 6908TIP3    H142283   0.781   2.287   6.590
 6908TIP3    H242284   0.899   2.248   6.675
 6909TIP3   OH242285   6.606   1.192   7.097
 6909TIP3    H142286   6.674   1.233   7.044
 6909TIP3    H242287   6.624   1.098   7.091
 6910TIP3   OH242288   2.492   4.396   0.312
 6910TIP3    H142289   2.530   4.355   0.390
 6910TIP3    H242290   2.452   4.477   0.344
 6911TIP3   OH242291   4.010   0.497   1.834
 6911TIP3    H142292   3.977   0.502   1.924
 6911TIP3    H242293   4.100   0.528   1.839
 6912TIP3   OH242294   4.479   0.482   8.165
 6912TIP3    H142295   4.450   0.421   8.097
 6912TIP3    H242296   4.546   0.535   8.123
 6913TIP3   OH242297   3.295   0.346   6.340
 6913TIP3    H142298   3.208   0.386   6.346
 6913TIP3    H242299   3.351   0.402   6.393
 6914TIP3   OH242300   6.393   0.216   2.715
 6914TIP3    H142301   6.372   0.123   2.722
 6914TIP3    H242302   6.402   0.246   2.805
 6915TIP3   OH242303   0.069   4.343   8.125
 6915TIP3    H142304   0.007   4.302   8.185
 6915TIP3    H242305   0.045   4.436   8.125
 6916TIP3   OH242306   1.978   4.573   0.572
 6916TIP3    H142307   2.059   4.588   0.620
 6916TIP3    H242308   2.006   4.541   0.486
 6917TIP3   OH242309   6.762   2.135   0.095
 6917TIP3    H142310   6.822   2.180   0.155
 6917TIP3    H242311   6.705   2.084   0.152
 6918TIP3   OH242312   4.122   0.498   7.652
 6918TIP3    H142313   4.149   0.481   7.561
 6918TIP3    H242314   4.034   0.535   7.645
 6919TIP3   OH242315   5.100   6.528   0.174
 6919TIP3    H142316   5.165   6.540   0.243
 6919TIP3    H242317   5.075   6.436   0.180
 6920TIP3   OH242318   2.436   3.581   7.156
 6920TIP3    H142319   2.366   3.644   7.175
 6920TIP3    H242320   2.514   3.620   7.195
 6921TIP3   OH242321   4.837   1.984   7.970
 6921TIP3    H142322   4.895   1.920   8.012
 6921TIP3    H242323   4.891   2.022   7.900
 6922TIP3   OH242324   5.490   5.345   1.429
 6922TIP3    H142325   5.458   5.423   1.475
 6922TIP3    H242326   5.586   5.354   1.430
 6923TIP3   OH242327   1.611   5.483   7.476
 6923TIP3    H142328   1.576   5.562   7.434
 6923TIP3    H242329   1.639   5.512   7.563
 6924TIP3   OH242330   0.785   2.900   1.646
 6924TIP3    H142331   0.799   2.960   1.719
 6924TIP3    H242332   0.827   2.818   1.674
 6925TIP3   OH242333   1.866   2.642   7.330
 6925TIP3    H142334   1.866   2.731   7.364
 6925TIP3    H242335   1.878   2.651   7.236
 6926TIP3   OH242336   0.217   0.331   1.614
 6926TIP3    H142337   0.241   0.259   1.557
 6926TIP3    H242338   0.233   0.298   1.703
 6927TIP3   OH242339   1.443   5.652   0.323
 6927TIP3    H142340   1.482   5.602   0.395
 6927TIP3    H242341   1.411   5.732   0.364
 6928TIP3   OH242342   0.545   1.554   1.314
 6928TIP3    H142343   0.521   1.640   1.278
 6928TIP3    H242344   0.482   1.494   1.275
 6929TIP3   OH242345   5.739   4.042   0.509
 6929TIP3    H142346   5.684   4.064   0.584
 6929TIP3    H242347   5.678   4.004   0.445
 6930TIP3   OH242348   0.159   6.417   1.181
 6930TIP3    H142349   0.095   6.371   1.128
 6930TIP3    H242350   0.183   6.355   1.249
 6931TIP3   OH242351   1.222   1.769   1.212
 6931TIP3    H142352   1.188   1.806   1.293
 6931TIP3    H242353   1.204   1.675   1.220
 6932TIP3   OH242354   0.758   5.911   0.461
 6932TIP3    H142355   0.756   5.876   0.551
 6932TIP3    H242356   0.830   5.865   0.419
 6933TIP3   OH242357   2.764   4.555   8.025
 6933TIP3    H142358   2.789   4.642   7.993
 6933TIP3    H242359   2.669   4.560   8.035
 6934TIP3   OH242360   1.729   2.523   0.973
 6934TIP3    H142361   1.807   2.501   0.922
 6934TIP3    H242362   1.762   2.578   1.044
 6935TIP3   OH242363   3.717   2.221   6.868
 6935TIP3    H142364   3.809   2.248   6.878
 6935TIP3    H242365   3.716   2.171   6.786
 6936TIP3   OH242366   4.618   1.408   1.166
 6936TIP3    H142367   4.682   1.461   1.213
 6936TIP3    H242368   4.649   1.408   1.075
 6937TIP3   OH242369   3.967   4.999   7.176
 6937TIP3    H142370   3.978   4.904   7.171
 6937TIP3    H242371   3.973   5.019   7.269
 6938TIP3   OH242372   5.654   6.560   2.392
 6938TIP3    H142373   5.594   6.635   2.392
 6938TIP3    H242374   5.734   6.594   2.430
 6939TIP3   OH242375   2.811   2.160   0.618
 6939TIP3    H142376   2.781   2.218   0.548
 6939TIP3    H242377   2.821   2.075   0.575
 6940TIP3   OH242378   1.536   2.656   8.650
 6940TIP3    H142379   1.453   2.700   8.666
 6940TIP3    H242380   1.576   2.705   8.579
 6941TIP3   OH242381   2.795   0.703   0.052
 6941TIP3    H142382   2.699   0.698   0.057
 6941TIP3    H242383   2.822   0.617   0.019
 6942TIP3   OH242384   4.689   0.610   7.040
 6942TIP3    H142385   4.692   0.568   6.953
 6942TIP3    H242386   4.653   0.697   7.023
 6943TIP3   OH242387   0.657   0.392   8.454
 6943TIP3    H142388   0.567   0.401   8.485
 6943TIP3    H242389   0.656   0.312   8.400
 6944TIP3   OH242390   5.114   4.034   6.518
 6944TIP3    H142391   5.024   4.065   6.525
 6944TIP3    H242392   5.167   4.103   6.557
 6945TIP3   OH242393   3.035   1.121   1.712
 6945TIP3    H142394   3.104   1.080   1.764
 6945TIP3    H242395   2.954   1.102   1.761
 6946TIP3   OH242396   3.054   0.367   1.193
 6946TIP3    H142397   3.118   0.309   1.150
 6946TIP3    H242398   3.057   0.341   1.285
 6947TIP3   OH242399   5.572   1.860   1.720
 6947TIP3    H142400   5.531   1.795   1.664
 6947TIP3    H242401   5.518   1.938   1.710
 6948TIP3   OH242402   3.392   2.630   0.542
 6948TIP3    H142403   3.350   2.705   0.501
 6948TIP3    H242404   3.436   2.666   0.619
 6949TIP3   OH242405   3.487   2.112   2.562
 6949TIP3    H142406   3.476   2.206   2.577
 6949TIP3    H242407   3.581   2.101   2.549
 6950TIP3   OH242408   6.464   0.186   0.023
 6950TIP3    H142409   6.535   0.235   8.696
 6950TIP3    H242410   6.500   0.098   0.035
 6951TIP3   OH242411   3.932   2.051   0.117
 6951TIP3    H142412   3.992   2.068   0.044
 6951TIP3    H242413   3.909   2.138   0.150
 6952TIP3   OH242414   5.574   2.207   1.272
 6952TIP3    H142415   5.581   2.302   1.262
 6952TIP3    H242416   5.642   2.172   1.214
 6953TIP3   OH242417   0.601   3.558   1.129
 6953TIP3    H142418   0.568   3.499   1.062
 6953TIP3    H242419   0.604   3.505   1.209
 6954TIP3   OH242420   0.507   2.230   0.107
 6954TIP3    H142421   0.502   2.293   0.179
 6954TIP3    H242422   0.440   2.164   0.128
 6955TIP3   OH242423   6.546   0.962   0.571
 6955TIP3    H142424   6.575   0.910   0.646
 6955TIP3    H242425   6.615   1.026   0.557
 6956TIP3   OH242426   4.597   2.700   6.648
 6956TIP3    H142427   4.563   2.651   6.724
 6956TIP3    H242428   4.691   2.706   6.664
 6957TIP3   OH242429   4.881   2.459   0.626
 6957TIP3    H142430   4.945   2.389   0.634
 6957TIP3    H242431   4.923   2.535   0.668
 6958TIP3   OH242432   2.037   3.719   6.575
 6958TIP3    H142433   2.055   3.766   6.493
 6958TIP3    H242434   2.058   3.628   6.555
 6959TIP3   OH242435   3.522   2.413   0.291
 6959TIP3    H142436   3.513   2.346   0.223
 6959TIP3    H242437   3.561   2.366   0.365
 6960TIP3   OH242438   4.236   5.940   7.070
 6960TIP3    H142439   4.178   6.016   7.075
 6960TIP3    H242440   4.231   5.912   6.979
 6961TIP3   OH242441   6.248   0.801   7.837
 6961TIP3    H142442   6.313   0.797   7.907
 6961TIP3    H242443   6.191   0.874   7.862
 6962TIP3   OH242444   0.924   3.351   8.004
 6962TIP3    H142445   0.889   3.411   7.937
 6962TIP3    H242446   0.878   3.376   8.084
 6963TIP3   OH242447   5.139   1.168   8.426
 6963TIP3    H142448   5.092   1.208   8.353
 6963TIP3    H242449   5.219   1.219   8.435
 6964TIP3   OH242450   0.911   3.762   7.770
 6964TIP3    H142451   0.848   3.753   7.698
 6964TIP3    H242452   0.963   3.838   7.747
 6965TIP3   OH242453   1.705   0.295   8.300
 6965TIP3    H142454   1.773   0.332   8.357
 6965TIP3    H242455   1.713   0.201   8.311
 6966TIP3   OH242456   6.083   1.586   0.901
 6966TIP3    H142457   6.053   1.676   0.911
 6966TIP3    H242458   6.002   1.534   0.897
 6967TIP3   OH242459   3.019   6.615   6.973
 6967TIP3    H142460   3.071   6.683   7.016
 6967TIP3    H242461   3.082   6.549   6.947
 6968TIP3   OH242462   1.192   4.871   0.936
 6968TIP3    H142463   1.176   4.901   0.847
 6968TIP3    H242464   1.118   4.905   0.987
 6969TIP3   OH242465   6.754   5.844   2.279
 6969TIP3    H142466   6.818   5.784   2.240
 6969TIP3    H242467   6.799   5.928   2.284
 6970TIP3   OH242468   1.808   4.899   1.321
 6970TIP3    H142469   1.825   4.840   1.248
 6970TIP3    H242470   1.894   4.929   1.349
 6971TIP3   OH242471   2.744   2.553   0.616
 6971TIP3    H142472   2.693   2.625   0.652
 6971TIP3    H242473   2.830   2.560   0.659
 6972TIP3   OH242474   5.354   4.382   0.292
 6972TIP3    H142475   5.326   4.429   0.370
 6972TIP3    H242476   5.358   4.290   0.320
 6973TIP3   OH242477   4.669   5.079   2.441
 6973TIP3    H142478   4.634   5.168   2.446
 6973TIP3    H242479   4.750   5.088   2.391
 6974TIP3   OH242480   3.900   4.542   0.078
 6974TIP3    H142481   3.961   4.532   0.005
 6974TIP3    H242482   3.841   4.612   0.051
 6975TIP3   OH242483   5.345   3.743   0.820
 6975TIP3    H142484   5.388   3.748   0.905
 6975TIP3    H242485   5.280   3.814   0.822
 6976TIP3   OH242486   5.487   4.953   8.031
 6976TIP3    H142487   5.556   4.893   8.001
 6976TIP3    H242488   5.492   5.027   7.971
 6977TIP3   OH242489   1.770   6.270   2.317
 6977TIP3    H142490   1.835   6.325   2.272
 6977TIP3    H242491   1.686   6.306   2.289
 6978TIP3   OH242492   0.570   6.462   6.696
 6978TIP3    H142493   0.489   6.510   6.713
 6978TIP3    H242494   0.637   6.530   6.690
 6979TIP3   OH242495   1.749   4.606   2.268
 6979TIP3    H142496   1.655   4.590   2.270
 6979TIP3    H242497   1.760   4.687   2.316
 6980TIP3   OH242498   2.710   4.696   0.050
 6980TIP3    H142499   2.645   4.643   0.096
 6980TIP3    H242500   2.738   4.762   0.113
 6981TIP3   OH242501   3.013   6.705   6.177
 6981TIP3    H142502   2.934   6.732   6.225
 6981TIP3    H242503   2.996   6.614   6.152
 6982TIP3   OH242504   3.968   2.346   6.844
 6982TIP3    H142505   4.040   2.407   6.860
 6982TIP3    H242506   4.005   2.281   6.784
 6983TIP3   OH242507   5.611   0.365   2.244
 6983TIP3    H142508   5.705   0.371   2.226
 6983TIP3    H242509   5.592   0.271   2.239
 6984TIP3   OH242510   0.979   0.474   1.566
 6984TIP3    H142511   1.059   0.458   1.517
 6984TIP3    H242512   0.921   0.401   1.543
 6985TIP3   OH242513   4.984   0.931   1.702
 6985TIP3    H142514   5.028   0.941   1.786
 6985TIP3    H242515   4.945   1.017   1.685
 6986TIP3   OH242516   1.964   3.449   7.204
 6986TIP3    H142517   1.956   3.524   7.263
 6986TIP3    H242518   1.877   3.409   7.203
 6987TIP3   OH242519   3.846   2.355   7.932
 6987TIP3    H142520   3.926   2.398   7.906
 6987TIP3    H242521   3.819   2.306   7.855
 6988TIP3   OH242522   1.298   1.339   6.915
 6988TIP3    H142523   1.323   1.349   6.823
 6988TIP3    H242524   1.343   1.411   6.960
 6989TIP3   OH242525   2.736   0.860   6.308
 6989TIP3    H142526   2.649   0.867   6.269
 6989TIP3    H242527   2.787   0.809   6.245
 6990TIP3   OH242528   5.955   3.433   2.045
 6990TIP3    H142529   5.921   3.517   2.015
 6990TIP3    H242530   6.033   3.455   2.095
 6991TIP3   OH242531   5.642   5.425   2.038
 6991TIP3    H142532   5.652   5.353   1.976
 6991TIP3    H242533   5.572   5.397   2.097
 6992TIP3   OH242534   3.668   4.074   7.200
 6992TIP3    H142535   3.662   4.095   7.107
 6992TIP3    H242536   3.691   3.981   7.202
 6993TIP3   OH242537   5.525   1.674   7.960
 6993TIP3    H142538   5.576   1.755   7.958
 6993TIP3    H242539   5.507   1.656   7.868
 6994TIP3   OH242540   0.514   1.015   8.476
 6994TIP3    H142541   0.543   0.996   8.565
 6994TIP3    H242542   0.544   1.105   8.461
 6995TIP3   OH242543   4.560   5.824   6.766
 6995TIP3    H142544   4.543   5.907   6.810
 6995TIP3    H242545   4.648   5.834   6.730
 6996TIP3   OH242546   3.216   3.586   1.586
 6996TIP3    H142547   3.295   3.617   1.631
 6996TIP3    H242548   3.188   3.510   1.636
 6997TIP3   OH242549   6.521   3.263   0.656
 6997TIP3    H142550   6.450   3.327   0.669
 6997TIP3    H242551   6.489   3.183   0.697
 6998TIP3   OH242552   4.691   1.950   0.784
 6998TIP3    H142553   4.666   2.016   0.719
 6998TIP3    H242554   4.619   1.886   0.782
 6999TIP3   OH242555   3.357   1.725   7.535
 6999TIP3    H142556   3.264   1.747   7.528
 6999TIP3    H242557   3.370   1.656   7.471
 7000TIP3   OH242558   4.213   0.193   0.816
 7000TIP3    H142559   4.168   0.247   0.882
 7000TIP3    H242560   4.159   0.115   0.808
 7001TIP3   OH242561   2.510   0.445   8.008
 7001TIP3    H142562   2.588   0.501   8.007
 7001TIP3    H242563   2.542   0.362   8.042
 7002TIP3   OH242564   0.320   6.806   2.644
 7002TIP3    H142565   0.225   6.794   2.642
 7002TIP3    H242566   0.341   6.812   2.737
 7003TIP3   OH242567   2.991   3.851   6.665
 7003TIP3    H142568   3.042   3.924   6.630
 7003TIP3    H242569   2.947   3.887   6.742
 7004TIP3   OH242570   6.342   0.480   7.954
 7004TIP3    H142571   6.283   0.475   7.878
 7004TIP3    H242572   6.296   0.538   8.015
 7005TIP3   OH242573   3.931   6.608   7.056
 7005TIP3    H142574   4.019   6.578   7.032
 7005TIP3    H242575   3.892   6.535   7.104
 7006TIP3   OH242576   5.022   3.786   6.785
 7006TIP3    H142577   5.116   3.806   6.780
 7006TIP3    H242578   5.001   3.747   6.701
 7007TIP3   OH242579   1.675   2.949   7.695
 7007TIP3    H142580   1.701   3.032   7.656
 7007TIP3    H242581   1.599   2.971   7.749
 7008TIP3   OH242582   3.564   4.888   1.356
 7008TIP3    H142583   3.629   4.951   1.389
 7008TIP3    H242584   3.580   4.809   1.408
 7009TIP3   OH242585   6.522   1.007   1.368
 7009TIP3    H142586   6.587   1.067   1.331
 7009TIP3    H242587   6.440   1.031   1.325
 7010TIP3   OH242588   6.605   6.220   8.365
 7010TIP3    H142589   6.672   6.164   8.326
 7010TIP3    H242590   6.547   6.242   8.292
 7011TIP3   OH242591   1.245   4.762   1.210
 7011TIP3    H142592   1.275   4.685   1.162
 7011TIP3    H242593   1.262   4.741   1.302
 7012TIP3   OH242594   4.211   3.801   2.277
 7012TIP3    H142595   4.160   3.720   2.278
 7012TIP3    H242596   4.299   3.773   2.250
 7013TIP3   OH242597   3.871   5.920   0.438
 7013TIP3    H142598   3.845   6.010   0.455
 7013TIP3    H242599   3.888   5.883   0.525
 7014TIP3   OH242600   2.380   4.356   7.412
 7014TIP3    H142601   2.410   4.382   7.325
 7014TIP3    H242602   2.289   4.386   7.415
 7015TIP3   OH242603   1.077   4.909   0.694
 7015TIP3    H142604   1.116   4.966   0.628
 7015TIP3    H242605   1.067   4.825   0.649
 7016TIP3   OH242606   3.142   6.353   0.334
 7016TIP3    H142607   3.225   6.381   0.295
 7016TIP3    H242608   3.167   6.303   0.411
 7017TIP3   OH242609   3.854   1.095   1.463
 7017TIP3    H142610   3.863   1.154   1.538
 7017TIP3    H242611   3.858   1.007   1.502
 7018TIP3   OH242612   5.352   2.929   7.716
 7018TIP3    H142613   5.418   2.886   7.770
 7018TIP3    H242614   5.295   2.857   7.686
 7019TIP3   OH242615   3.018   1.642   8.198
 7019TIP3    H142616   3.079   1.714   8.210
 7019TIP3    H242617   3.072   1.563   8.203
 7020TIP3   OH242618   2.038   5.802   0.845
 7020TIP3    H142619   2.086   5.747   0.907
 7020TIP3    H242620   2.104   5.862   0.810
 7021TIP3   OH242621   6.039   3.259   1.439
 7021TIP3    H142622   6.120   3.251   1.489
 7021TIP3    H242623   6.045   3.344   1.396
 7022TIP3   OH242624   3.676   6.001   0.699
 7022TIP3    H142625   3.752   5.948   0.674
 7022TIP3    H242626   3.672   5.994   0.794
 7023TIP3   OH242627   6.213   3.620   0.206
 7023TIP3    H142628   6.250   3.605   0.293
 7023TIP3    H242629   6.280   3.671   0.160
 7024TIP3   OH242630   0.821   5.178   0.547
 7024TIP3    H142631   0.871   5.178   0.466
 7024TIP3    H242632   0.783   5.090   0.552
 7025TIP3   OH242633   5.067   5.458   0.301
 7025TIP3    H142634   5.075   5.524   0.232
 7025TIP3    H242635   5.021   5.385   0.259
 7026TIP3   OH242636   3.638   3.630   7.760
 7026TIP3    H142637   3.654   3.716   7.720
 7026TIP3    H242638   3.584   3.649   7.837
 7027TIP3   OH242639   2.117   3.446   8.219
 7027TIP3    H142640   2.063   3.401   8.153
 7027TIP3    H242641   2.054   3.493   8.273
 7028TIP3   OH242642   3.413   6.564   7.209
 7028TIP3    H142643   3.450   6.579   7.122
 7028TIP3    H242644   3.371   6.478   7.204
 7029TIP3   OH242645   1.988   5.191   0.373
 7029TIP3    H142646   2.008   5.124   0.308
 7029TIP3    H242647   2.054   5.178   0.441
 7030TIP3   OH242648   1.058   2.367   6.926
 7030TIP3    H142649   1.152   2.350   6.924
 7030TIP3    H242650   1.047   2.447   6.874
 7031TIP3   OH242651   1.694   5.293   8.402
 7031TIP3    H142652   1.647   5.227   8.452
 7031TIP3    H242653   1.663   5.377   8.437
 7032TIP3   OH242654   1.423   0.654   7.757
 7032TIP3    H142655   1.456   0.719   7.820
 7032TIP3    H242656   1.469   0.675   7.676
 7033TIP3   OH242657   2.333   0.569   0.467
 7033TIP3    H142658   2.322   0.484   0.423
 7033TIP3    H242659   2.336   0.547   0.560
 7034TIP3   OH242660   1.835   6.765   0.148
 7034TIP3    H142661   1.902   6.709   0.187
 7034TIP3    H242662   1.881   6.812   0.079
 7035TIP3   OH242663   1.284   6.382   0.066
 7035TIP3    H142664   1.310   6.474   0.076
 7035TIP3    H242665   1.305   6.361   8.688
 7036TIP3   OH242666   5.193   3.089   8.269
 7036TIP3    H142667   5.224   3.144   8.341
 7036TIP3    H242668   5.156   3.012   8.312
 7037TIP3   OH242669   5.148   2.360   8.426
 7037TIP3    H142670   5.162   2.266   8.423
 7037TIP3    H242671   5.053   2.370   8.425
 7038TIP3   OH242672   2.162   4.289   7.627
 7038TIP3    H142673   2.096   4.356   7.607
 7038TIP3    H242674   2.180   4.299   7.720
 7039TIP3   OH242675   2.074   3.129   0.794
 7039TIP3    H142676   2.123   3.132   0.876
 7039TIP3    H242677   2.016   3.205   0.798
 7040TIP3   OH242678   2.002   5.998   0.528
 7040TIP3    H142679   2.062   6.056   0.481
 7040TIP3    H242680   2.047   5.978   0.610
 7041TIP3   OH242681   6.079   5.399   8.245
 7041TIP3    H142682   6.069   5.415   8.151
 7041TIP3    H242683   6.052   5.307   8.256
 7042TIP3   OH242684   5.317   1.224   0.727
 7042TIP3    H142685   5.294   1.311   0.759
 7042TIP3    H242686   5.380   1.190   0.791
 7043TIP3   OH242687   5.040   2.887   1.732
 7043TIP3    H142688   4.963   2.940   1.708
 7043TIP3    H242689   5.003   2.808   1.772
 7044TIP3   OH242690   3.905   5.424   7.736
 7044TIP3    H142691   3.864   5.343   7.766
 7044TIP3    H242692   3.985   5.395   7.692
 7045TIP3   OH242693   6.404   3.749   7.303
 7045TIP3    H142694   6.318   3.767   7.266
 7045TIP3    H242695   6.387   3.693   7.379
 7046TIP3   OH242696   5.583   5.366   8.203
 7046TIP3    H142697   5.543   5.441   8.246
 7046TIP3    H242698   5.519   5.295   8.214
 7047TIP3   OH242699   6.439   6.764   7.290
 7047TIP3    H142700   6.449   6.818   7.368
 7047TIP3    H242701   6.441   6.674   7.322
 7048TIP3   OH242702   3.745   6.662   7.601
 7048TIP3    H142703   3.670   6.717   7.623
 7048TIP3    H242704   3.720   6.621   7.518
 7049TIP3   OH242705   1.352   1.578   0.650
 7049TIP3    H142706   1.409   1.529   0.711
 7049TIP3    H242707   1.393   1.566   0.564
 7050TIP3   OH242708   5.706   5.221   1.878
 7050TIP3    H142709   5.738   5.140   1.840
 7050TIP3    H242710   5.766   5.289   1.846
 7051TIP3   OH242711   6.731   3.660   0.371
 7051TIP3    H142712   6.783   3.600   0.317
 7051TIP3    H242713   6.654   3.608   0.396
 7052TIP3   OH242714   6.079   1.315   7.879
 7052TIP3    H142715   6.107   1.405   7.894
 7052TIP3    H242716   5.983   1.321   7.870
 7053TIP3   OH242717   5.253   4.145   0.541
 7053TIP3    H142718   5.260   4.141   0.446
 7053TIP3    H242719   5.244   4.238   0.561
 7054TIP3   OH242720   3.671   4.267   8.341
 7054TIP3    H142721   3.746   4.306   8.297
 7054TIP3    H242722   3.599   4.274   8.277
 7055TIP3   OH242723   0.233   4.922   7.109
 7055TIP3    H142724   0.226   4.829   7.128
 7055TIP3    H242725   0.311   4.951   7.156
 7056TIP3   OH242726   6.208   1.280   1.377
 7056TIP3    H142727   6.155   1.355   1.350
 7056TIP3    H242728   6.287   1.319   1.414
 7057TIP3   OH242729   3.651   1.653   0.445
 7057TIP3    H142730   3.717   1.590   0.417
 7057TIP3    H242731   3.568   1.610   0.424
 7058TIP3   OH242732   4.693   5.019   7.508
 7058TIP3    H142733   4.728   5.006   7.596
 7058TIP3    H242734   4.717   5.109   7.485
 7059TIP3   OH242735   2.989   1.774   6.544
 7059TIP3    H142736   2.902   1.755   6.508
 7059TIP3    H242737   2.970   1.821   6.626
 7060TIP3   OH242738   1.454   4.106   6.409
 7060TIP3    H142739   1.438   4.046   6.482
 7060TIP3    H242740   1.473   4.048   6.335
 7061TIP3   OH242741   2.159   1.069   8.702
 7061TIP3    H142742   2.244   1.067   8.657
 7061TIP3    H242743   2.158   1.154   0.034
 7062TIP3   OH242744   5.621   5.304   0.568
 7062TIP3    H142745   5.584   5.393   0.567
 7062TIP3    H242746   5.651   5.290   0.478
 7063TIP3   OH242747   4.794   0.887   0.416
 7063TIP3    H142748   4.730   0.929   0.359
 7063TIP3    H242749   4.870   0.873   0.360
 7064TIP3   OH242750   5.508   6.307   0.074
 7064TIP3    H142751   5.525   6.325   8.694
 7064TIP3    H242752   5.459   6.225   0.073
 7065TIP3   OH242753   5.684   4.729   1.409
 7065TIP3    H142754   5.737   4.799   1.370
 7065TIP3    H242755   5.611   4.718   1.349
 7066TIP3   OH242756   1.114   4.551   7.120
 7066TIP3    H142757   1.072   4.558   7.206
 7066TIP3    H242758   1.051   4.504   7.066
 7067TIP3   OH242759   1.349   4.411   0.646
 7067TIP3    H142760   1.380   4.343   0.707
 7067TIP3    H242761   1.262   4.381   0.620
 7068TIP3   OH242762   1.377   1.072   2.142
 7068TIP3    H142763   1.296   1.061   2.090
 7068TIP3    H242764   1.375   1.000   2.205
 7069TIP3   OH242765   5.826   2.177   2.316
 7069TIP3    H142766   5.922   2.179   2.315
 7069TIP3    H242767   5.804   2.132   2.397
 7070TIP3   OH242768   1.640   0.016   0.612
 7070TIP3    H142769   1.687   6.791   0.661
 7070TIP3    H242770   1.548   6.836   0.623
 7071TIP3   OH242771   1.323   1.969   0.339
 7071TIP3    H142772   1.256   1.901   0.342
 7071TIP3    H242773   1.297   2.031   0.407
 7072LIG      O42774   4.229   5.784   6.075
 7072LIG     C142775   4.288   5.656   6.084
 7072LIG     C242776   4.430   5.669   6.019
 7072LIG     C342777   4.302   5.615   6.233
 7072LIG     H142778   4.225   5.576   6.039
 7072LIG     H242779   4.479   5.767   6.037
 7072LIG     H342780   4.428   5.638   5.913
 7072LIG     H442781   4.495   5.599   6.074
 7072LIG     H542782   4.364   5.688   6.289
 7072LIG     H642783   4.331   5.508   6.248
 7072LIG     H742784   4.203   5.614   6.284
 7072LIG     H842785   4.175   5.793   6.154
   6.84287   6.84287   8.71316
