Title t= 14000.00000 step= 7000000
42785
    1SAPS     N    1   3.548   3.729   7.350
    1SAPS   HN1    2   3.473   3.718   7.279
    1SAPS   HN2    3   3.595   3.639   7.371
    1SAPS   HN3    4   3.508   3.755   7.442
    1SAPS   C12    5   3.633   3.843   7.299
    1SAPS  H12A    6   3.570   3.931   7.298
    1SAPS   C13    7   3.748   3.873   7.389
    1SAPS  O13A    8   3.764   3.815   7.495
    1SAPS  O13B    9   3.828   3.967   7.357
    1SAPS   C11   10   3.683   3.804   7.159
    1SAPS  H11A   11   3.756   3.720   7.165
    1SAPS  H11B   12   3.741   3.890   7.121
    1SAPS     P   13   3.598   3.681   6.949
    1SAPS   O13   14   3.634   3.541   6.987
    1SAPS   O14   15   3.478   3.692   6.870
    1SAPS   O12   16   3.580   3.762   7.071
    1SAPS   O11   17   3.714   3.745   6.870
    1SAPS    C1   18   3.721   3.882   6.829
    1SAPS    HA   19   3.652   3.953   6.879
    1SAPS    HB   20   3.826   3.918   6.840
    1SAPS    C2   21   3.702   3.891   6.676
    1SAPS    HS   22   3.598   3.864   6.650
    1SAPS   O21   23   3.800   3.806   6.616
    1SAPS   C21   24   3.752   3.730   6.511
    1SAPS   O22   25   3.634   3.723   6.482
    1SAPS   C22   26   3.869   3.659   6.434
    1SAPS   H2R   27   3.925   3.732   6.372
    1SAPS   H2S   28   3.937   3.630   6.517
    1SAPS    C3   29   3.724   4.039   6.628
    1SAPS    HX   30   3.821   4.069   6.673
    1SAPS    HY   31   3.644   4.101   6.674
    1SAPS   O31   32   3.713   4.060   6.482
    1SAPS   C31   33   3.590   4.062   6.432
    1SAPS   O32   34   3.488   4.080   6.499
    1SAPS   C32   35   3.606   4.044   6.281
    1SAPS   H2X   36   3.694   3.977   6.266
    1SAPS   H2Y   37   3.630   4.142   6.234
    1SAPS   C23   38   3.840   3.526   6.362
    1SAPS   H3R   39   3.751   3.468   6.395
    1SAPS   H3S   40   3.927   3.457   6.360
    1SAPS   C24   41   3.822   3.552   6.212
    1SAPS   H4R   42   3.845   3.460   6.153
    1SAPS   H4S   43   3.903   3.624   6.187
    1SAPS   C25   44   3.688   3.606   6.178
    1SAPS   H5R   45   3.625   3.628   6.265
    1SAPS   C26   46   3.658   3.650   6.057
    1SAPS   H6R   47   3.559   3.692   6.034
    1SAPS   C27   48   3.751   3.648   5.936
    1SAPS   H7R   49   3.732   3.560   5.871
    1SAPS   H7S   50   3.858   3.652   5.966
    1SAPS   C28   51   3.739   3.763   5.835
    1SAPS   H8R   52   3.767   3.856   5.886
    1SAPS   C29   53   3.722   3.761   5.705
    1SAPS   H9R   54   3.716   3.855   5.648
    1SAPS  C210   55   3.676   3.644   5.625
    1SAPS  H10R   56   3.622   3.679   5.535
    1SAPS  H10S   57   3.601   3.593   5.689
    1SAPS  C211   58   3.771   3.535   5.580
    1SAPS  H11R   59   3.864   3.536   5.639
    1SAPS  C212   60   3.753   3.459   5.474
    1SAPS  H12R   61   3.821   3.377   5.450
    1SAPS  C213   62   3.638   3.462   5.378
    1SAPS  H13R   63   3.647   3.563   5.334
    1SAPS  H13S   64   3.538   3.460   5.424
    1SAPS  C214   65   3.647   3.345   5.279
    1SAPS  H14R   66   3.622   3.249   5.326
    1SAPS  C215   67   3.682   3.357   5.148
    1SAPS  H15R   68   3.678   3.262   5.092
    1SAPS  C216   69   3.726   3.486   5.070
    1SAPS  H16R   70   3.799   3.453   4.993
    1SAPS  H16S   71   3.772   3.567   5.130
    1SAPS  C217   72   3.596   3.548   5.002
    1SAPS  H17R   73   3.632   3.630   4.936
    1SAPS  H17S   74   3.543   3.602   5.083
    1SAPS  C218   75   3.496   3.463   4.932
    1SAPS  H18R   76   3.420   3.515   4.870
    1SAPS  H18S   77   3.454   3.388   5.001
    1SAPS  C219   78   3.570   3.371   4.821
    1SAPS  H19R   79   3.647   3.300   4.857
    1SAPS  H19S   80   3.622   3.447   4.760
    1SAPS  C220   81   3.468   3.289   4.739
    1SAPS  H20R   82   3.428   3.213   4.810
    1SAPS  H20S   83   3.516   3.236   4.654
    1SAPS  H20T   84   3.391   3.351   4.689
    1SAPS   C33   85   3.483   3.980   6.225
    1SAPS   H3X   86   3.389   4.001   6.281
    1SAPS   H3Y   87   3.481   3.871   6.207
    1SAPS   C34   88   3.461   4.041   6.089
    1SAPS   H4X   89   3.544   4.008   6.023
    1SAPS   H4Y   90   3.456   4.152   6.083
    1SAPS   C35   91   3.330   3.989   6.020
    1SAPS   H5X   92   3.238   3.988   6.081
    1SAPS   H5Y   93   3.349   3.880   6.006
    1SAPS   C36   94   3.298   4.048   5.886
    1SAPS   H6X   95   3.289   4.158   5.877
    1SAPS   H6Y   96   3.200   4.009   5.850
    1SAPS   C37   97   3.392   4.009   5.772
    1SAPS   H7X   98   3.434   3.909   5.792
    1SAPS   H7Y   99   3.477   4.080   5.765
    1SAPS   C38  100   3.319   4.002   5.633
    1SAPS   H8X  101   3.285   4.104   5.607
    1SAPS   H8Y  102   3.229   3.938   5.644
    1SAPS   C39  103   3.401   3.945   5.514
    1SAPS   H9X  104   3.330   3.954   5.429
    1SAPS   H9Y  105   3.417   3.836   5.521
    1SAPS  C310  106   3.530   4.016   5.496
    1SAPS  H10X  107   3.592   4.015   5.588
    1SAPS  H10Y  108   3.518   4.125   5.479
    1SAPS  C311  109   3.610   3.961   5.379
    1SAPS  H11X  110   3.668   3.869   5.403
    1SAPS  H11Y  111   3.688   4.037   5.360
    1SAPS  C312  112   3.529   3.936   5.252
    1SAPS  H12X  113   3.465   3.848   5.267
    1SAPS  H12Y  114   3.601   3.899   5.175
    1SAPS  C313  115   3.468   4.065   5.197
    1SAPS  H13X  116   3.550   4.135   5.170
    1SAPS  H13Y  117   3.411   4.112   5.280
    1SAPS  C314  118   3.377   4.047   5.078
    1SAPS  H14X  119   3.333   4.144   5.047
    1SAPS  H14Y  120   3.298   3.973   5.106
    1SAPS  C315  121   3.441   3.978   4.961
    1SAPS  H15X  122   3.478   3.876   4.986
    1SAPS  H15Y  123   3.531   4.039   4.937
    1SAPS  C316  124   3.343   3.973   4.840
    1SAPS  H16X  125   3.314   4.079   4.823
    1SAPS  H16Y  126   3.256   3.907   4.859
    1SAPS  C317  127   3.425   3.925   4.716
    1SAPS  H17X  128   3.518   3.986   4.717
    1SAPS  H17Y  129   3.363   3.943   4.626
    1SAPS  C318  130   3.471   3.781   4.712
    1SAPS  H18X  131   3.554   3.757   4.781
    1SAPS  H18Y  132   3.508   3.758   4.610
    1SAPS  H18Z  133   3.388   3.711   4.735
    2SAPS     N  134   4.372   5.943   6.698
    2SAPS   HN1  135   4.339   5.848   6.724
    2SAPS   HN2  136   4.335   5.967   6.604
    2SAPS   HN3  137   4.476   5.951   6.699
    2SAPS   C12  138   4.315   6.039   6.799
    2SAPS  H12A  139   4.209   6.017   6.803
    2SAPS   C13  140   4.391   6.032   6.937
    2SAPS  O13A  141   4.501   5.969   6.955
    2SAPS  O13B  142   4.340   6.114   7.024
    2SAPS   C11  143   4.327   6.179   6.744
    2SAPS  H11A  144   4.432   6.213   6.733
    2SAPS  H11B  145   4.292   6.247   6.825
    2SAPS     P  146   4.121   6.284   6.633
    2SAPS   O13  147   4.032   6.223   6.733
    2SAPS   O14  148   4.168   6.427   6.646
    2SAPS   O12  149   4.253   6.199   6.626
    2SAPS   O11  150   4.049   6.256   6.491
    2SAPS    C1  151   4.035   6.131   6.426
    2SAPS    HA  152   4.071   6.045   6.487
    2SAPS    HB  153   3.928   6.113   6.401
    2SAPS    C2  154   4.117   6.117   6.296
    2SAPS    HS  155   4.125   6.009   6.270
    2SAPS   O21  156   4.252   6.173   6.319
    2SAPS   C21  157   4.329   6.086   6.381
    2SAPS   O22  158   4.296   5.977   6.423
    2SAPS   C22  159   4.471   6.140   6.383
    2SAPS   H2R  160   4.470   6.245   6.346
    2SAPS   H2S  161   4.502   6.132   6.489
    2SAPS    C3  162   4.051   6.185   6.171
    2SAPS    HX  163   4.066   6.291   6.200
    2SAPS    HY  164   3.941   6.171   6.181
    2SAPS   O31  165   4.107   6.157   6.039
    2SAPS   C31  166   4.053   6.067   5.963
    2SAPS   O32  167   3.955   5.994   5.992
    2SAPS   C32  168   4.127   6.070   5.829
    2SAPS   H2X  169   4.235   6.067   5.856
    2SAPS   H2Y  170   4.104   6.171   5.790
    2SAPS   C23  171   4.564   6.049   6.294
    2SAPS   H3R  172   4.597   5.961   6.354
    2SAPS   H3S  173   4.655   6.112   6.295
    2SAPS   C24  174   4.509   6.009   6.157
    2SAPS   H4R  175   4.415   5.953   6.178
    2SAPS   H4S  176   4.572   5.930   6.109
    2SAPS   C25  177   4.463   6.112   6.061
    2SAPS   H5R  178   4.371   6.162   6.094
    2SAPS   C26  179   4.526   6.129   5.940
    2SAPS   H6R  180   4.481   6.202   5.871
    2SAPS   C27  181   4.650   6.064   5.888
    2SAPS   H7R  182   4.623   5.969   5.838
    2SAPS   H7S  183   4.700   6.025   5.979
    2SAPS   C28  184   4.750   6.142   5.807
    2SAPS   H8R  185   4.819   6.202   5.867
    2SAPS   C29  186   4.744   6.150   5.674
    2SAPS   H9R  187   4.830   6.194   5.622
    2SAPS  C210  188   4.642   6.091   5.577
    2SAPS  H10R  189   4.609   6.163   5.498
    2SAPS  H10S  190   4.548   6.082   5.636
    2SAPS  C211  191   4.695   5.959   5.530
    2SAPS  H11R  192   4.710   5.893   5.616
    2SAPS  C212  193   4.705   5.915   5.406
    2SAPS  H12R  194   4.754   5.817   5.404
    2SAPS  C213  195   4.664   5.989   5.282
    2SAPS  H13R  196   4.554   6.002   5.299
    2SAPS  H13S  197   4.673   5.910   5.205
    2SAPS  C214  198   4.749   6.116   5.255
    2SAPS  H14R  199   4.748   6.180   5.345
    2SAPS  C215  200   4.842   6.134   5.159
    2SAPS  H15R  201   4.896   6.229   5.150
    2SAPS  C216  202   4.849   6.053   5.032
    2SAPS  H16R  203   4.772   5.975   5.013
    2SAPS  H16S  204   4.948   6.004   5.022
    2SAPS  C217  205   4.822   6.147   4.911
    2SAPS  H17R  206   4.900   6.226   4.911
    2SAPS  H17S  207   4.724   6.199   4.912
    2SAPS  C218  208   4.845   6.068   4.788
    2SAPS  H18R  209   4.756   6.002   4.781
    2SAPS  H18S  210   4.937   6.006   4.786
    2SAPS  C219  211   4.858   6.160   4.668
    2SAPS  H19R  212   4.930   6.242   4.690
    2SAPS  H19S  213   4.763   6.215   4.655
    2SAPS  C220  214   4.905   6.094   4.537
    2SAPS  H20R  215   4.835   6.009   4.519
    2SAPS  H20S  216   5.012   6.065   4.539
    2SAPS  H20T  217   4.896   6.170   4.457
    2SAPS   C33  218   4.087   5.957   5.733
    2SAPS   H3X  219   3.977   5.948   5.724
    2SAPS   H3Y  220   4.140   5.862   5.757
    2SAPS   C34  221   4.140   6.003   5.595
    2SAPS   H4X  222   4.234   6.060   5.608
    2SAPS   H4Y  223   4.063   6.071   5.551
    2SAPS   C35  224   4.157   5.878   5.499
    2SAPS   H5X  225   4.051   5.858   5.475
    2SAPS   H5Y  226   4.200   5.789   5.549
    2SAPS   C36  227   4.241   5.924   5.377
    2SAPS   H6X  228   4.344   5.948   5.409
    2SAPS   H6Y  229   4.197   6.016   5.333
    2SAPS   C37  230   4.257   5.824   5.266
    2SAPS   H7X  231   4.177   5.747   5.269
    2SAPS   H7Y  232   4.352   5.770   5.282
    2SAPS   C38  233   4.263   5.887   5.122
    2SAPS   H8X  234   4.171   5.945   5.098
    2SAPS   H8Y  235   4.271   5.797   5.057
    2SAPS   C39  236   4.375   5.989   5.091
    2SAPS   H9X  237   4.468   5.927   5.087
    2SAPS   H9Y  238   4.380   6.073   5.163
    2SAPS  C310  239   4.360   6.068   4.954
    2SAPS  H10X  240   4.443   6.141   4.946
    2SAPS  H10Y  241   4.264   6.124   4.957
    2SAPS  C311  242   4.368   5.970   4.842
    2SAPS  H11X  243   4.269   5.920   4.838
    2SAPS  H11Y  244   4.442   5.890   4.864
    2SAPS  C312  245   4.408   6.032   4.709
    2SAPS  H12X  246   4.506   6.085   4.715
    2SAPS  H12Y  247   4.327   6.101   4.677
    2SAPS  C313  248   4.425   5.932   4.599
    2SAPS  H13X  249   4.330   5.874   4.593
    2SAPS  H13Y  250   4.509   5.867   4.630
    2SAPS  C314  251   4.464   5.998   4.467
    2SAPS  H14X  252   4.531   5.935   4.406
    2SAPS  H14Y  253   4.513   6.095   4.488
    2SAPS  C315  254   4.340   6.022   4.380
    2SAPS  H15X  255   4.266   6.087   4.432
    2SAPS  H15Y  256   4.291   5.926   4.357
    2SAPS  C316  257   4.382   6.109   4.256
    2SAPS  H16X  258   4.442   6.038   4.196
    2SAPS  H16Y  259   4.452   6.193   4.278
    2SAPS  C317  260   4.253   6.161   4.180
    2SAPS  H17X  261   4.176   6.218   4.236
    2SAPS  H17Y  262   4.202   6.067   4.150
    2SAPS  C318  263   4.294   6.241   4.055
    2SAPS  H18X  264   4.322   6.344   4.088
    2SAPS  H18Y  265   4.213   6.260   3.981
    2SAPS  H18Z  266   4.380   6.190   4.007
    3SAPS     N  267   4.469   4.402   7.310
    3SAPS   HN1  268   4.429   4.348   7.389
    3SAPS   HN2  269   4.514   4.488   7.347
    3SAPS   HN3  270   4.399   4.442   7.243
    3SAPS   C12  271   4.560   4.314   7.234
    3SAPS  H12A  272   4.648   4.368   7.202
    3SAPS   C13  273   4.607   4.180   7.296
    3SAPS  O13A  274   4.567   4.144   7.410
    3SAPS  O13B  275   4.692   4.116   7.235
    3SAPS   C11  276   4.488   4.281   7.099
    3SAPS  H11A  277   4.407   4.206   7.115
    3SAPS  H11B  278   4.548   4.224   7.025
    3SAPS     P  279   4.357   4.389   6.900
    3SAPS   O13  280   4.261   4.278   6.916
    3SAPS   O14  281   4.306   4.525   6.887
    3SAPS   O12  282   4.443   4.395   7.034
    3SAPS   O11  283   4.476   4.356   6.798
    3SAPS    C1  284   4.586   4.440   6.767
    3SAPS    HA  285   4.560   4.543   6.797
    3SAPS    HB  286   4.677   4.405   6.821
    3SAPS    C2  287   4.628   4.444   6.615
    3SAPS    HS  288   4.548   4.493   6.556
    3SAPS   O21  289   4.637   4.307   6.570
    3SAPS   C21  290   4.540   4.269   6.497
    3SAPS   O22  291   4.439   4.322   6.459
    3SAPS   C22  292   4.573   4.124   6.451
    3SAPS   H2R  293   4.614   4.059   6.531
    3SAPS   H2S  294   4.475   4.080   6.425
    3SAPS    C3  295   4.759   4.518   6.588
    3SAPS    HX  296   4.844   4.459   6.629
    3SAPS    HY  297   4.763   4.619   6.634
    3SAPS   O31  298   4.784   4.529   6.443
    3SAPS   C31  299   4.750   4.639   6.381
    3SAPS   O32  300   4.708   4.737   6.439
    3SAPS   C32  301   4.781   4.632   6.230
    3SAPS   H2X  302   4.717   4.553   6.185
    3SAPS   H2Y  303   4.890   4.615   6.214
    3SAPS   C23  304   4.663   4.119   6.325
    3SAPS   H3R  305   4.654   4.012   6.300
    3SAPS   H3S  306   4.769   4.147   6.346
    3SAPS   C24  307   4.621   4.209   6.208
    3SAPS   H4R  308   4.698   4.197   6.129
    3SAPS   H4S  309   4.629   4.311   6.253
    3SAPS   C25  310   4.477   4.193   6.160
    3SAPS   H5R  311   4.401   4.239   6.224
    3SAPS   C26  312   4.432   4.168   6.034
    3SAPS   H6R  313   4.325   4.158   6.014
    3SAPS   C27  314   4.512   4.105   5.920
    3SAPS   H7R  315   4.606   4.163   5.929
    3SAPS   H7S  316   4.476   4.134   5.819
    3SAPS   C28  317   4.549   3.960   5.914
    3SAPS   H8R  318   4.591   3.925   6.009
    3SAPS   C29  319   4.534   3.876   5.811
    3SAPS   H9R  320   4.561   3.769   5.810
    3SAPS  C210  321   4.469   3.914   5.685
    3SAPS  H10R  322   4.377   3.975   5.700
    3SAPS  H10S  323   4.439   3.825   5.626
    3SAPS  C211  324   4.556   4.000   5.595
    3SAPS  H11R  325   4.660   4.012   5.630
    3SAPS  C212  326   4.516   4.055   5.478
    3SAPS  H12R  327   4.592   4.115   5.426
    3SAPS  C213  328   4.371   4.055   5.421
    3SAPS  H13R  329   4.298   4.086   5.499
    3SAPS  H13S  330   4.345   3.949   5.400
    3SAPS  C214  331   4.356   4.137   5.291
    3SAPS  H14R  332   4.307   4.233   5.310
    3SAPS  C215  333   4.388   4.102   5.168
    3SAPS  H15R  334   4.352   4.167   5.086
    3SAPS  C216  335   4.457   3.968   5.128
    3SAPS  H16R  336   4.402   3.900   5.059
    3SAPS  H16S  337   4.471   3.901   5.216
    3SAPS  C217  338   4.594   3.994   5.052
    3SAPS  H17R  339   4.671   3.919   5.078
    3SAPS  H17S  340   4.641   4.090   5.081
    3SAPS  C218  341   4.564   3.985   4.903
    3SAPS  H18R  342   4.480   4.053   4.876
    3SAPS  H18S  343   4.534   3.882   4.875
    3SAPS  C219  344   4.687   3.999   4.814
    3SAPS  H19R  345   4.748   3.911   4.842
    3SAPS  H19S  346   4.659   3.976   4.709
    3SAPS  C220  347   4.756   4.134   4.823
    3SAPS  H20R  348   4.835   4.125   4.900
    3SAPS  H20S  349   4.686   4.217   4.846
    3SAPS  H20T  350   4.806   4.158   4.727
    3SAPS   C33  351   4.738   4.767   6.161
    3SAPS   H3X  352   4.784   4.853   6.215
    3SAPS   H3Y  353   4.628   4.766   6.180
    3SAPS   C34  354   4.768   4.783   6.010
    3SAPS   H4X  355   4.701   4.857   5.961
    3SAPS   H4Y  356   4.746   4.688   5.957
    3SAPS   C35  357   4.907   4.832   5.971
    3SAPS   H5X  358   4.900   4.937   6.005
    3SAPS   H5Y  359   4.981   4.772   6.027
    3SAPS   C36  360   4.942   4.831   5.820
    3SAPS   H6X  361   4.953   4.728   5.779
    3SAPS   H6Y  362   5.040   4.881   5.803
    3SAPS   C37  363   4.842   4.893   5.721
    3SAPS   H7X  364   4.818   5.001   5.734
    3SAPS   H7Y  365   4.759   4.825   5.747
    3SAPS   C38  366   4.879   4.891   5.572
    3SAPS   H8X  367   4.928   4.798   5.537
    3SAPS   H8Y  368   4.960   4.967   5.572
    3SAPS   C39  369   4.752   4.928   5.494
    3SAPS   H9X  370   4.702   5.014   5.543
    3SAPS   H9Y  371   4.688   4.837   5.489
    3SAPS  C310  372   4.774   4.979   5.356
    3SAPS  H10X  373   4.830   4.899   5.303
    3SAPS  H10Y  374   4.829   5.075   5.359
    3SAPS  C311  375   4.641   4.999   5.289
    3SAPS  H11X  376   4.590   5.088   5.330
    3SAPS  H11Y  377   4.567   4.922   5.319
    3SAPS  C312  378   4.650   5.010   5.136
    3SAPS  H12X  379   4.562   5.067   5.099
    3SAPS  H12Y  380   4.659   4.911   5.086
    3SAPS  C313  381   4.768   5.099   5.092
    3SAPS  H13X  382   4.865   5.056   5.125
    3SAPS  H13Y  383   4.759   5.193   5.151
    3SAPS  C314  384   4.777   5.124   4.941
    3SAPS  H14X  385   4.858   5.192   4.909
    3SAPS  H14Y  386   4.687   5.175   4.901
    3SAPS  C315  387   4.769   5.003   4.849
    3SAPS  H15X  388   4.674   4.950   4.873
    3SAPS  H15Y  389   4.853   4.939   4.882
    3SAPS  C316  390   4.774   5.036   4.700
    3SAPS  H16X  391   4.787   4.945   4.638
    3SAPS  H16Y  392   4.857   5.109   4.689
    3SAPS  C317  393   4.650   5.092   4.639
    3SAPS  H17X  394   4.640   5.202   4.654
    3SAPS  H17Y  395   4.560   5.050   4.688
    3SAPS  C318  396   4.629   5.066   4.491
    3SAPS  H18X  397   4.717   5.077   4.424
    3SAPS  H18Y  398   4.547   5.133   4.459
    3SAPS  H18Z  399   4.599   4.959   4.484
    4SAPS     N  400   1.596   2.423   6.770
    4SAPS   HN1  401   1.592   2.516   6.723
    4SAPS   HN2  402   1.649   2.420   6.859
    4SAPS   HN3  403   1.639   2.368   6.693
    4SAPS   C12  404   1.463   2.369   6.815
    4SAPS  H12A  405   1.408   2.329   6.731
    4SAPS   C13  406   1.488   2.254   6.915
    4SAPS  O13A  407   1.602   2.207   6.929
    4SAPS  O13B  408   1.388   2.198   6.972
    4SAPS   C11  409   1.366   2.483   6.864
    4SAPS  H11A  410   1.407   2.533   6.954
    4SAPS  H11B  411   1.265   2.442   6.888
    4SAPS     P  412   1.280   2.714   6.805
    4SAPS   O13  413   1.220   2.707   6.936
    4SAPS   O14  414   1.354   2.834   6.766
    4SAPS   O12  415   1.352   2.582   6.769
    4SAPS   O11  416   1.151   2.720   6.717
    4SAPS    C1  417   1.075   2.599   6.684
    4SAPS    HA  418   1.097   2.517   6.756
    4SAPS    HB  419   0.967   2.606   6.710
    4SAPS    C2  420   1.099   2.547   6.541
    4SAPS    HS  421   1.198   2.498   6.535
    4SAPS   O21  422   1.084   2.654   6.446
    4SAPS   C21  423   1.136   2.653   6.323
    4SAPS   O22  424   1.211   2.567   6.276
    4SAPS   C22  425   1.078   2.779   6.248
    4SAPS   H2R  426   0.973   2.790   6.283
    4SAPS   H2S  427   1.132   2.872   6.275
    4SAPS    C3  428   1.000   2.430   6.519
    4SAPS    HX  429   0.902   2.461   6.562
    4SAPS    HY  430   1.040   2.341   6.572
    4SAPS   O31  431   0.979   2.385   6.385
    4SAPS   C31  432   1.080   2.309   6.337
    4SAPS   O32  433   1.183   2.280   6.398
    4SAPS   C32  434   1.053   2.271   6.193
    4SAPS   H2X  435   0.949   2.238   6.173
    4SAPS   H2Y  436   1.123   2.192   6.158
    4SAPS   C23  437   1.060   2.748   6.105
    4SAPS   H3R  438   0.970   2.684   6.087
    4SAPS   H3S  439   1.149   2.709   6.051
    4SAPS   C24  440   1.018   2.872   6.035
    4SAPS   H4R  441   1.096   2.951   6.028
    4SAPS   H4S  442   0.932   2.923   6.084
    4SAPS   C25  443   0.967   2.851   5.892
    4SAPS   H5R  444   0.859   2.832   5.876
    4SAPS   C26  445   1.035   2.876   5.773
    4SAPS   H6R  446   0.989   2.857   5.675
    4SAPS   C27  447   1.182   2.915   5.772
    4SAPS   H7R  448   1.230   2.889   5.868
    4SAPS   H7S  449   1.187   3.026   5.773
    4SAPS   C28  450   1.272   2.865   5.660
    4SAPS   H8R  451   1.350   2.791   5.687
    4SAPS   C29  452   1.267   2.912   5.534
    4SAPS   H9R  453   1.347   2.868   5.472
    4SAPS  C210  454   1.178   3.024   5.479
    4SAPS  H10R  455   1.243   3.105   5.439
    4SAPS  H10S  456   1.126   3.083   5.558
    4SAPS  C211  457   1.077   2.971   5.386
    4SAPS  H11R  458   0.984   2.934   5.432
    4SAPS  C212  459   1.077   2.984   5.254
    4SAPS  H12R  460   0.986   2.954   5.200
    4SAPS  C213  461   1.183   3.057   5.179
    4SAPS  H13R  462   1.219   3.145   5.236
    4SAPS  H13S  463   1.127   3.114   5.101
    4SAPS  C214  464   1.306   2.977   5.124
    4SAPS  H14R  465   1.337   2.901   5.198
    4SAPS  C215  466   1.354   2.990   4.999
    4SAPS  H15R  467   1.440   2.928   4.971
    4SAPS  C216  468   1.317   3.100   4.903
    4SAPS  H16R  469   1.265   3.189   4.945
    4SAPS  H16S  470   1.249   3.049   4.831
    4SAPS  C217  471   1.435   3.148   4.827
    4SAPS  H17R  472   1.483   3.059   4.781
    4SAPS  H17S  473   1.508   3.200   4.892
    4SAPS  C218  474   1.402   3.244   4.717
    4SAPS  H18R  475   1.375   3.340   4.765
    4SAPS  H18S  476   1.316   3.210   4.655
    4SAPS  C219  477   1.514   3.262   4.610
    4SAPS  H19R  478   1.607   3.301   4.657
    4SAPS  H19S  479   1.473   3.344   4.547
    4SAPS  C220  480   1.565   3.135   4.537
    4SAPS  H20R  481   1.476   3.076   4.505
    4SAPS  H20S  482   1.631   3.079   4.606
    4SAPS  H20T  483   1.616   3.161   4.442
    4SAPS   C33  484   1.073   2.399   6.097
    4SAPS   H3X  485   1.184   2.404   6.091
    4SAPS   H3Y  486   1.018   2.489   6.131
    4SAPS   C34  487   1.022   2.356   5.960
    4SAPS   H4X  488   0.912   2.338   5.955
    4SAPS   H4Y  489   1.075   2.260   5.940
    4SAPS   C35  490   1.072   2.456   5.845
    4SAPS   H5X  491   1.183   2.462   5.848
    4SAPS   H5Y  492   1.029   2.553   5.878
    4SAPS   C36  493   1.028   2.410   5.707
    4SAPS   H6X  494   0.918   2.396   5.699
    4SAPS   H6Y  495   1.083   2.314   5.702
    4SAPS   C37  496   1.085   2.503   5.603
    4SAPS   H7X  497   1.185   2.546   5.624
    4SAPS   H7Y  498   1.031   2.601   5.609
    4SAPS   C38  499   1.082   2.452   5.462
    4SAPS   H8X  500   0.978   2.421   5.436
    4SAPS   H8Y  501   1.145   2.363   5.441
    4SAPS   C39  502   1.113   2.560   5.350
    4SAPS   H9X  503   1.219   2.591   5.365
    4SAPS   H9Y  504   1.053   2.652   5.365
    4SAPS  C310  505   1.100   2.507   5.207
    4SAPS  H10X  506   0.990   2.499   5.210
    4SAPS  H10Y  507   1.157   2.413   5.188
    4SAPS  C311  508   1.160   2.615   5.117
    4SAPS  H11X  509   1.268   2.628   5.140
    4SAPS  H11Y  510   1.118   2.715   5.144
    4SAPS  C312  511   1.143   2.599   4.971
    4SAPS  H12X  512   1.042   2.607   4.925
    4SAPS  H12Y  513   1.184   2.498   4.948
    4SAPS  C313  514   1.232   2.697   4.901
    4SAPS  H13X  515   1.326   2.711   4.959
    4SAPS  H13Y  516   1.184   2.797   4.900
    4SAPS  C314  517   1.256   2.661   4.756
    4SAPS  H14X  518   1.164   2.661   4.694
    4SAPS  H14Y  519   1.288   2.554   4.760
    4SAPS  C315  520   1.378   2.733   4.695
    4SAPS  H15X  521   1.461   2.722   4.768
    4SAPS  H15Y  522   1.362   2.842   4.687
    4SAPS  C316  523   1.413   2.671   4.567
    4SAPS  H16X  524   1.317   2.664   4.511
    4SAPS  H16Y  525   1.443   2.564   4.580
    4SAPS  C317  526   1.511   2.750   4.485
    4SAPS  H17X  527   1.609   2.755   4.537
    4SAPS  H17Y  528   1.483   2.857   4.472
    4SAPS  C318  529   1.541   2.677   4.350
    4SAPS  H18X  530   1.588   2.754   4.284
    4SAPS  H18Y  531   1.445   2.644   4.304
    4SAPS  H18Z  532   1.603   2.587   4.366
    5SAPS     N  533   4.368   4.786   6.868
    5SAPS   HN1  534   4.340   4.687   6.882
    5SAPS   HN2  535   4.282   4.843   6.856
    5SAPS   HN3  536   4.424   4.799   6.781
    5SAPS   C12  537   4.428   4.831   6.995
    5SAPS  H12A  538   4.453   4.935   6.979
    5SAPS   C13  539   4.328   4.834   7.118
    5SAPS  O13A  540   4.208   4.808   7.109
    5SAPS  O13B  541   4.369   4.891   7.224
    5SAPS   C11  542   4.569   4.763   7.014
    5SAPS  H11A  543   4.570   4.653   6.994
    5SAPS  H11B  544   4.602   4.792   7.116
    5SAPS     P  545   4.745   4.934   6.930
    5SAPS   O13  546   4.713   5.030   6.832
    5SAPS   O14  547   4.749   4.976   7.073
    5SAPS   O12  548   4.644   4.812   6.907
    5SAPS   O11  549   4.890   4.876   6.884
    5SAPS    C1  550   4.904   4.737   6.915
    5SAPS    HA  551   4.909   4.717   7.024
    5SAPS    HB  552   4.821   4.676   6.875
    5SAPS    C2  553   5.034   4.676   6.855
    5SAPS    HS  554   5.117   4.742   6.888
    5SAPS   O21  555   5.019   4.676   6.711
    5SAPS   C21  556   5.136   4.678   6.647
    5SAPS   O22  557   5.245   4.701   6.695
    5SAPS   C22  558   5.112   4.651   6.498
    5SAPS   H2R  559   5.200   4.589   6.470
    5SAPS   H2S  560   5.022   4.585   6.487
    5SAPS    C3  561   5.052   4.527   6.908
    5SAPS    HX  562   4.953   4.476   6.903
    5SAPS    HY  563   5.094   4.530   7.011
    5SAPS   O31  564   5.140   4.455   6.831
    5SAPS   C31  565   5.136   4.321   6.839
    5SAPS   O32  566   5.066   4.259   6.920
    5SAPS   C32  567   5.236   4.263   6.738
    5SAPS   H2X  568   5.289   4.180   6.789
    5SAPS   H2Y  569   5.305   4.341   6.700
    5SAPS   C23  570   5.114   4.782   6.409
    5SAPS   H3R  571   5.069   4.873   6.456
    5SAPS   H3S  572   5.042   4.761   6.327
    5SAPS   C24  573   5.252   4.833   6.362
    5SAPS   H4R  574   5.330   4.798   6.433
    5SAPS   H4S  575   5.249   4.942   6.385
    5SAPS   C25  576   5.293   4.791   6.223
    5SAPS   H5R  577   5.309   4.683   6.206
    5SAPS   C26  578   5.293   4.870   6.115
    5SAPS   H6R  579   5.315   4.820   6.019
    5SAPS   C27  580   5.247   5.011   6.114
    5SAPS   H7R  581   5.309   5.081   6.174
    5SAPS   H7S  582   5.150   5.023   6.167
    5SAPS   C28  583   5.231   5.071   5.978
    5SAPS   H8R  584   5.129   5.089   5.939
    5SAPS   C29  585   5.334   5.100   5.897
    5SAPS   H9R  586   5.305   5.148   5.802
    5SAPS  C210  587   5.479   5.100   5.916
    5SAPS  H10R  588   5.511   4.995   5.902
    5SAPS  H10S  589   5.501   5.129   6.021
    5SAPS  C211  590   5.555   5.193   5.818
    5SAPS  H11R  591   5.575   5.294   5.857
    5SAPS  C212  592   5.584   5.169   5.693
    5SAPS  H12R  593   5.644   5.247   5.644
    5SAPS  C213  594   5.558   5.047   5.614
    5SAPS  H13R  595   5.490   4.976   5.666
    5SAPS  H13S  596   5.655   4.993   5.608
    5SAPS  C214  597   5.513   5.074   5.470
    5SAPS  H14R  598   5.583   5.122   5.401
    5SAPS  C215  599   5.384   5.065   5.428
    5SAPS  H15R  600   5.368   5.108   5.328
    5SAPS  C216  601   5.266   5.020   5.506
    5SAPS  H16R  602   5.170   5.044   5.456
    5SAPS  H16S  603   5.262   5.059   5.610
    5SAPS  C217  604   5.246   4.865   5.535
    5SAPS  H17R  605   5.160   4.860   5.606
    5SAPS  H17S  606   5.339   4.836   5.588
    5SAPS  C218  607   5.218   4.786   5.410
    5SAPS  H18R  608   5.289   4.801   5.327
    5SAPS  H18S  609   5.109   4.802   5.396
    5SAPS  C219  610   5.227   4.636   5.433
    5SAPS  H19R  611   5.167   4.607   5.522
    5SAPS  H19S  612   5.336   4.624   5.449
    5SAPS  C220  613   5.179   4.563   5.315
    5SAPS  H20R  614   5.072   4.569   5.285
    5SAPS  H20S  615   5.196   4.453   5.319
    5SAPS  H20T  616   5.220   4.607   5.221
    5SAPS   C33  617   5.159   4.186   6.630
    5SAPS   H3X  618   5.096   4.106   6.674
    5SAPS   H3Y  619   5.238   4.144   6.565
    5SAPS   C34  620   5.064   4.268   6.548
    5SAPS   H4X  621   5.112   4.365   6.523
    5SAPS   H4Y  622   4.968   4.281   6.601
    5SAPS   C35  623   5.028   4.206   6.408
    5SAPS   H5X  624   4.939   4.143   6.427
    5SAPS   H5Y  625   5.110   4.139   6.374
    5SAPS   C36  626   5.014   4.304   6.293
    5SAPS   H6X  627   5.097   4.377   6.280
    5SAPS   H6Y  628   4.922   4.360   6.320
    5SAPS   C37  629   5.001   4.233   6.154
    5SAPS   H7X  630   4.910   4.170   6.165
    5SAPS   H7Y  631   5.092   4.178   6.121
    5SAPS   C38  632   4.955   4.314   6.035
    5SAPS   H8X  633   5.034   4.391   6.022
    5SAPS   H8Y  634   4.859   4.365   6.060
    5SAPS   C39  635   4.930   4.230   5.912
    5SAPS   H9X  636   4.873   4.142   5.948
    5SAPS   H9Y  637   5.032   4.199   5.877
    5SAPS  C310  638   4.858   4.302   5.802
    5SAPS  H10X  639   4.914   4.394   5.774
    5SAPS  H10Y  640   4.755   4.336   5.828
    5SAPS  C311  641   4.846   4.235   5.663
    5SAPS  H11X  642   4.813   4.130   5.677
    5SAPS  H11Y  643   4.946   4.227   5.614
    5SAPS  C312  644   4.749   4.318   5.581
    5SAPS  H12X  645   4.652   4.319   5.635
    5SAPS  H12Y  646   4.733   4.258   5.489
    5SAPS  C313  647   4.792   4.458   5.544
    5SAPS  H13X  648   4.899   4.467   5.518
    5SAPS  H13Y  649   4.774   4.520   5.635
    5SAPS  C314  650   4.725   4.527   5.433
    5SAPS  H14X  651   4.743   4.636   5.441
    5SAPS  H14Y  652   4.615   4.511   5.435
    5SAPS  C315  653   4.786   4.483   5.301
    5SAPS  H15X  654   4.735   4.391   5.266
    5SAPS  H15Y  655   4.896   4.466   5.301
    5SAPS  C316  656   4.764   4.562   5.165
    5SAPS  H16X  657   4.821   4.656   5.180
    5SAPS  H16Y  658   4.657   4.590   5.156
    5SAPS  C317  659   4.805   4.498   5.034
    5SAPS  H17X  660   4.728   4.420   5.019
    5SAPS  H17Y  661   4.901   4.446   5.055
    5SAPS  C318  662   4.817   4.580   4.904
    5SAPS  H18X  663   4.869   4.530   4.820
    5SAPS  H18Y  664   4.860   4.681   4.920
    5SAPS  H18Z  665   4.714   4.599   4.868
    6SAPS     N  666   3.232   3.793   6.951
    6SAPS   HN1  667   3.204   3.852   6.870
    6SAPS   HN2  668   3.328   3.757   6.934
    6SAPS   HN3  669   3.158   3.720   6.958
    6SAPS   C12  670   3.236   3.879   7.074
    6SAPS  H12A  671   3.136   3.903   7.105
    6SAPS   C13  672   3.281   3.801   7.193
    6SAPS  O13A  673   3.338   3.688   7.180
    6SAPS  O13B  674   3.287   3.857   7.308
    6SAPS   C11  675   3.325   4.003   7.054
    6SAPS  H11A  676   3.429   3.970   7.035
    6SAPS  H11B  677   3.335   4.066   7.145
    6SAPS     P  678   3.161   4.193   6.987
    6SAPS   O13  679   3.081   4.130   7.093
    6SAPS   O14  680   3.222   4.322   7.012
    6SAPS   O12  681   3.275   4.090   6.952
    6SAPS   O11  682   3.083   4.203   6.849
    6SAPS    C1  683   3.105   4.322   6.768
    6SAPS    HA  684   3.090   4.419   6.820
    6SAPS    HB  685   3.213   4.323   6.742
    6SAPS    C2  686   3.025   4.328   6.636
    6SAPS    HS  687   3.060   4.417   6.579
    6SAPS   O21  688   2.883   4.318   6.659
    6SAPS   C21  689   2.830   4.421   6.728
    6SAPS   O22  690   2.886   4.526   6.755
    6SAPS   C22  691   2.684   4.396   6.745
    6SAPS   H2R  692   2.671   4.299   6.798
    6SAPS   H2S  693   2.634   4.474   6.805
    6SAPS    C3  694   3.072   4.211   6.533
    6SAPS    HX  695   3.048   4.112   6.578
    6SAPS    HY  696   3.182   4.228   6.534
    6SAPS   O31  697   3.008   4.225   6.404
    6SAPS   C31  698   3.033   4.134   6.311
    6SAPS   O32  699   3.082   4.023   6.319
    6SAPS   C32  700   2.980   4.196   6.184
    6SAPS   H2X  701   3.054   4.186   6.102
    6SAPS   H2Y  702   2.957   4.304   6.193
    6SAPS   C23  703   2.607   4.383   6.618
    6SAPS   H3R  704   2.509   4.347   6.655
    6SAPS   H3S  705   2.653   4.308   6.549
    6SAPS   C24  706   2.587   4.505   6.529
    6SAPS   H4R  707   2.533   4.590   6.577
    6SAPS   H4S  708   2.518   4.488   6.444
    6SAPS   C25  709   2.718   4.554   6.469
    6SAPS   H5R  710   2.798   4.479   6.468
    6SAPS   C26  711   2.738   4.688   6.439
    6SAPS   H6R  712   2.836   4.720   6.401
    6SAPS   C27  713   2.636   4.793   6.438
    6SAPS   H7R  714   2.589   4.803   6.539
    6SAPS   H7S  715   2.545   4.765   6.381
    6SAPS   C28  716   2.688   4.918   6.382
    6SAPS   H8R  717   2.743   4.988   6.447
    6SAPS   C29  718   2.687   4.958   6.255
    6SAPS   H9R  719   2.704   5.064   6.230
    6SAPS  C210  720   2.639   4.884   6.132
    6SAPS  H10R  721   2.557   4.946   6.092
    6SAPS  H10S  722   2.595   4.786   6.161
    6SAPS  C211  723   2.738   4.855   6.024
    6SAPS  H11R  724   2.830   4.818   6.071
    6SAPS  C212  725   2.721   4.856   5.888
    6SAPS  H12R  726   2.803   4.813   5.829
    6SAPS  C213  727   2.596   4.897   5.809
    6SAPS  H13R  728   2.508   4.846   5.852
    6SAPS  H13S  729   2.613   4.873   5.702
    6SAPS  C214  730   2.574   5.052   5.821
    6SAPS  H14R  731   2.669   5.108   5.829
    6SAPS  C215  732   2.459   5.113   5.818
    6SAPS  H15R  733   2.454   5.222   5.814
    6SAPS  C216  734   2.323   5.061   5.796
    6SAPS  H16R  735   2.247   5.132   5.835
    6SAPS  H16S  736   2.299   4.965   5.846
    6SAPS  C217  737   2.290   5.035   5.648
    6SAPS  H17R  738   2.189   4.988   5.648
    6SAPS  H17S  739   2.373   4.978   5.603
    6SAPS  C218  740   2.292   5.172   5.567
    6SAPS  H18R  741   2.400   5.198   5.560
    6SAPS  H18S  742   2.224   5.243   5.618
    6SAPS  C219  743   2.249   5.147   5.417
    6SAPS  H19R  744   2.143   5.120   5.400
    6SAPS  H19S  745   2.318   5.067   5.381
    6SAPS  C220  746   2.268   5.275   5.335
    6SAPS  H20R  747   2.368   5.319   5.351
    6SAPS  H20S  748   2.192   5.353   5.356
    6SAPS  H20T  749   2.267   5.258   5.225
    6SAPS   C33  750   2.847   4.122   6.147
    6SAPS   H3X  751   2.774   4.100   6.228
    6SAPS   H3Y  752   2.878   4.016   6.132
    6SAPS   C34  753   2.781   4.191   6.028
    6SAPS   H4X  754   2.753   4.291   6.067
    6SAPS   H4Y  755   2.690   4.131   6.005
    6SAPS   C35  756   2.873   4.191   5.903
    6SAPS   H5X  757   2.938   4.101   5.893
    6SAPS   H5Y  758   2.936   4.282   5.912
    6SAPS   C36  759   2.800   4.218   5.771
    6SAPS   H6X  760   2.750   4.316   5.789
    6SAPS   H6Y  761   2.726   4.142   5.739
    6SAPS   C37  762   2.907   4.242   5.666
    6SAPS   H7X  763   2.974   4.154   5.672
    6SAPS   H7Y  764   2.963   4.335   5.688
    6SAPS   C38  765   2.851   4.260   5.528
    6SAPS   H8X  766   2.772   4.338   5.529
    6SAPS   H8Y  767   2.799   4.164   5.508
    6SAPS   C39  768   2.960   4.281   5.422
    6SAPS   H9X  769   3.017   4.186   5.415
    6SAPS   H9Y  770   3.023   4.368   5.448
    6SAPS  C310  771   2.917   4.307   5.280
    6SAPS  H10X  772   2.861   4.403   5.287
    6SAPS  H10Y  773   2.846   4.225   5.252
    6SAPS  C311  774   3.038   4.301   5.187
    6SAPS  H11X  775   3.099   4.207   5.187
    6SAPS  H11Y  776   3.108   4.383   5.213
    6SAPS  C312  777   3.006   4.346   5.041
    6SAPS  H12X  778   2.976   4.258   4.979
    6SAPS  H12Y  779   3.096   4.394   4.998
    6SAPS  C313  780   2.890   4.445   5.026
    6SAPS  H13X  781   2.889   4.524   5.103
    6SAPS  H13Y  782   2.799   4.382   5.036
    6SAPS  C314  783   2.881   4.496   4.878
    6SAPS  H14X  784   2.979   4.540   4.852
    6SAPS  H14Y  785   2.808   4.580   4.883
    6SAPS  C315  786   2.822   4.391   4.785
    6SAPS  H15X  787   2.729   4.351   4.830
    6SAPS  H15Y  788   2.889   4.302   4.778
    6SAPS  C316  789   2.790   4.448   4.647
    6SAPS  H16X  790   2.772   4.557   4.655
    6SAPS  H16Y  791   2.701   4.397   4.605
    6SAPS  C317  792   2.913   4.427   4.555
    6SAPS  H17X  793   2.955   4.324   4.561
    6SAPS  H17Y  794   2.995   4.495   4.586
    6SAPS  C318  795   2.903   4.451   4.406
    6SAPS  H18X  796   2.852   4.548   4.387
    6SAPS  H18Y  797   2.829   4.381   4.361
    6SAPS  H18Z  798   2.999   4.448   4.350
    7SAPS     N  799   1.548   0.311   6.555
    7SAPS   HN1  800   1.467   0.255   6.585
    7SAPS   HN2  801   1.561   0.287   6.454
    7SAPS   HN3  802   1.641   0.297   6.600
    7SAPS   C12  803   1.510   0.450   6.571
    7SAPS  H12A  804   1.509   0.495   6.473
    7SAPS   C13  805   1.372   0.467   6.642
    7SAPS  O13A  806   1.295   0.370   6.648
    7SAPS  O13B  807   1.329   0.588   6.662
    7SAPS   C11  808   1.613   0.520   6.675
    7SAPS  H11A  809   1.605   0.471   6.775
    7SAPS  H11B  810   1.585   0.627   6.687
    7SAPS     P  811   1.821   0.590   6.518
    7SAPS   O13  812   1.771   0.729   6.516
    7SAPS   O14  813   1.968   0.568   6.539
    7SAPS   O12  814   1.749   0.500   6.627
    7SAPS   O11  815   1.773   0.516   6.386
    7SAPS    C1  816   1.690   0.581   6.283
    7SAPS    HA  817   1.629   0.504   6.231
    7SAPS    HB  818   1.635   0.664   6.331
    7SAPS    C2  819   1.763   0.634   6.157
    7SAPS    HS  820   1.684   0.685   6.099
    7SAPS   O21  821   1.800   0.526   6.082
    7SAPS   C21  822   1.801   0.548   5.952
    7SAPS   O22  823   1.759   0.648   5.893
    7SAPS   C22  824   1.858   0.427   5.880
    7SAPS   H2R  825   1.911   0.371   5.960
    7SAPS   H2S  826   1.779   0.362   5.835
    7SAPS    C3  827   1.875   0.733   6.187
    7SAPS    HX  828   1.948   0.672   6.245
    7SAPS    HY  829   1.844   0.813   6.256
    7SAPS   O31  830   1.954   0.777   6.070
    7SAPS   C31  831   1.960   0.905   6.045
    7SAPS   O32  832   1.914   0.992   6.118
    7SAPS   C32  833   2.035   0.937   5.912
    7SAPS   H2X  834   2.141   0.908   5.928
    7SAPS   H2Y  835   2.040   1.047   5.897
    7SAPS   C23  836   1.962   0.465   5.769
    7SAPS   H3R  837   2.050   0.514   5.817
    7SAPS   H3S  838   1.913   0.553   5.723
    7SAPS   C24  839   2.012   0.358   5.671
    7SAPS   H4R  840   2.044   0.274   5.736
    7SAPS   H4S  841   2.101   0.394   5.615
    7SAPS   C25  842   1.910   0.295   5.580
    7SAPS   H5R  843   1.859   0.214   5.634
    7SAPS   C26  844   1.884   0.323   5.453
    7SAPS   H6R  845   1.805   0.268   5.399
    7SAPS   C27  846   1.947   0.431   5.373
    7SAPS   H7R  847   1.984   0.507   5.445
    7SAPS   H7S  848   1.865   0.481   5.316
    7SAPS   C28  849   2.046   0.365   5.279
    7SAPS   H8R  850   2.008   0.274   5.230
    7SAPS   C29  851   2.172   0.417   5.244
    7SAPS   H9R  852   2.234   0.369   5.167
    7SAPS  C210  853   2.225   0.549   5.294
    7SAPS  H10R  854   2.145   0.621   5.267
    7SAPS  H10S  855   2.316   0.569   5.233
    7SAPS  C211  856   2.259   0.573   5.439
    7SAPS  H11R  857   2.196   0.657   5.473
    7SAPS  C212  858   2.348   0.506   5.519
    7SAPS  H12R  859   2.354   0.534   5.625
    7SAPS  C213  860   2.433   0.387   5.478
    7SAPS  H13R  861   2.486   0.414   5.385
    7SAPS  H13S  862   2.372   0.299   5.449
    7SAPS  C214  863   2.533   0.334   5.574
    7SAPS  H14R  864   2.522   0.368   5.678
    7SAPS  C215  865   2.647   0.259   5.553
    7SAPS  H15R  866   2.684   0.228   5.652
    7SAPS  C216  867   2.694   0.190   5.425
    7SAPS  H16R  868   2.687   0.273   5.352
    7SAPS  H16S  869   2.614   0.115   5.403
    7SAPS  C217  870   2.834   0.128   5.441
    7SAPS  H17R  871   2.834   0.035   5.503
    7SAPS  H17S  872   2.911   0.192   5.489
    7SAPS  C218  873   2.894   0.104   5.301
    7SAPS  H18R  874   2.921   0.201   5.254
    7SAPS  H18S  875   2.813   0.073   5.232
    7SAPS  C219  876   3.005   6.775   5.303
    7SAPS  H19R  877   2.951   6.682   5.334
    7SAPS  H19S  878   3.087   0.010   5.376
    7SAPS  C220  879   3.053   6.733   5.167
    7SAPS  H20R  880   3.091   6.629   5.158
    7SAPS  H20S  881   3.132   0.030   5.140
    7SAPS  H20T  882   2.977   6.745   5.087
    7SAPS   C33  883   1.964   0.860   5.790
    7SAPS   H3X  884   1.856   0.883   5.777
    7SAPS   H3Y  885   1.978   0.750   5.799
    7SAPS   C34  886   2.037   0.888   5.654
    7SAPS   H4X  887   2.140   0.847   5.666
    7SAPS   H4Y  888   2.044   0.999   5.652
    7SAPS   C35  889   1.966   0.835   5.526
    7SAPS   H5X  890   1.857   0.860   5.525
    7SAPS   H5Y  891   1.974   0.725   5.520
    7SAPS   C36  892   2.021   0.892   5.396
    7SAPS   H6X  893   2.129   0.863   5.395
    7SAPS   H6Y  894   2.014   1.003   5.392
    7SAPS   C37  895   1.958   0.834   5.276
    7SAPS   H7X  896   1.855   0.872   5.256
    7SAPS   H7Y  897   1.935   0.725   5.286
    7SAPS   C38  898   2.039   0.865   5.147
    7SAPS   H8X  899   2.140   0.820   5.157
    7SAPS   H8Y  900   2.051   0.975   5.132
    7SAPS   C39  901   1.978   0.804   5.024
    7SAPS   H9X  902   1.880   0.856   5.008
    7SAPS   H9Y  903   1.942   0.701   5.045
    7SAPS  C310  904   2.067   0.827   4.904
    7SAPS  H10X  905   2.166   0.786   4.934
    7SAPS  H10Y  906   2.066   0.932   4.867
    7SAPS  C311  907   2.024   0.742   4.782
    7SAPS  H11X  908   2.024   0.636   4.815
    7SAPS  H11Y  909   2.094   0.742   4.695
    7SAPS  C312  910   1.874   0.747   4.737
    7SAPS  H12X  911   1.864   0.851   4.698
    7SAPS  H12Y  912   1.802   0.745   4.822
    7SAPS  C313  913   1.832   0.637   4.639
    7SAPS  H13X  914   1.857   0.538   4.685
    7SAPS  H13Y  915   1.896   0.644   4.548
    7SAPS  C314  916   1.687   0.641   4.600
    7SAPS  H14X  917   1.659   0.749   4.596
    7SAPS  H14Y  918   1.627   0.571   4.661
    7SAPS  C315  919   1.671   0.580   4.452
    7SAPS  H15X  920   1.695   0.667   4.386
    7SAPS  H15Y  921   1.560   0.572   4.447
    7SAPS  C316  922   1.747   0.447   4.434
    7SAPS  H16X  923   1.708   0.378   4.512
    7SAPS  H16Y  924   1.858   0.458   4.439
    7SAPS  C317  925   1.736   0.401   4.287
    7SAPS  H17X  926   1.815   0.458   4.233
    7SAPS  H17Y  927   1.632   0.412   4.248
    7SAPS  C318  928   1.759   0.253   4.279
    7SAPS  H18X  929   1.705   0.218   4.188
    7SAPS  H18Y  930   1.717   0.200   4.367
    7SAPS  H18Z  931   1.864   0.218   4.272
    8SAPS     N  932   1.649   1.370   6.697
    8SAPS   HN1  933   1.561   1.423   6.707
    8SAPS   HN2  934   1.672   1.368   6.595
    8SAPS   HN3  935   1.646   1.269   6.724
    8SAPS   C12  936   1.749   1.439   6.780
    8SAPS  H12A  937   1.767   1.536   6.738
    8SAPS   C13  938   1.704   1.459   6.924
    8SAPS  O13A  939   1.594   1.419   6.964
    8SAPS  O13B  940   1.777   1.532   6.996
    8SAPS   C11  941   1.883   1.360   6.775
    8SAPS  H11A  942   1.868   1.255   6.808
    8SAPS  H11B  943   1.948   1.400   6.856
    8SAPS     P  944   2.072   1.455   6.630
    8SAPS   O13  945   2.019   1.593   6.661
    8SAPS   O14  946   2.186   1.406   6.705
    8SAPS   O12  947   1.946   1.359   6.648
    8SAPS   O11  948   2.109   1.446   6.481
    8SAPS    C1  949   2.009   1.484   6.382
    8SAPS    HA  950   1.983   1.393   6.324
    8SAPS    HB  951   1.912   1.519   6.423
    8SAPS    C2  952   2.061   1.590   6.280
    8SAPS    HS  953   1.983   1.608   6.203
    8SAPS   O21  954   2.183   1.550   6.214
    8SAPS   C21  955   2.179   1.453   6.129
    8SAPS   O22  956   2.081   1.387   6.099
    8SAPS   C22  957   2.328   1.446   6.070
    8SAPS   H2R  958   2.384   1.540   6.088
    8SAPS   H2S  959   2.386   1.376   6.134
    8SAPS    C3  960   2.102   1.717   6.356
    8SAPS    HX  961   2.163   1.700   6.448
    8SAPS    HY  962   2.011   1.765   6.396
    8SAPS   O31  963   2.180   1.816   6.287
    8SAPS   C31  964   2.109   1.877   6.197
    8SAPS   O32  965   1.994   1.881   6.193
    8SAPS   C32  966   2.205   1.949   6.100
    8SAPS   H2X  967   2.298   1.888   6.093
    8SAPS   H2Y  968   2.230   2.047   6.148
    8SAPS   C23  969   2.312   1.417   5.921
    8SAPS   H3R  970   2.256   1.500   5.872
    8SAPS   H3S  971   2.265   1.317   5.903
    8SAPS   C24  972   2.453   1.405   5.849
    8SAPS   H4R  973   2.433   1.352   5.754
    8SAPS   H4S  974   2.525   1.342   5.906
    8SAPS   C25  975   2.500   1.543   5.822
    8SAPS   H5R  976   2.474   1.616   5.900
    8SAPS   C26  977   2.528   1.602   5.703
    8SAPS   H6R  978   2.554   1.709   5.701
    8SAPS   C27  979   2.526   1.539   5.571
    8SAPS   H7R  980   2.456   1.599   5.509
    8SAPS   H7S  981   2.486   1.435   5.573
    8SAPS   C28  982   2.669   1.532   5.520
    8SAPS   H8R  983   2.748   1.562   5.591
    8SAPS   C29  984   2.694   1.529   5.389
    8SAPS   H9R  985   2.799   1.527   5.357
    8SAPS  C210  986   2.584   1.514   5.285
    8SAPS  H10R  987   2.542   1.614   5.260
    8SAPS  H10S  988   2.502   1.449   5.324
    8SAPS  C211  989   2.634   1.451   5.154
    8SAPS  H11R  990   2.736   1.477   5.124
    8SAPS  C212  991   2.568   1.379   5.059
    8SAPS  H12R  992   2.629   1.344   4.975
    8SAPS  C213  993   2.428   1.330   5.057
    8SAPS  H13R  994   2.398   1.339   4.951
    8SAPS  H13S  995   2.358   1.400   5.109
    8SAPS  C214  996   2.436   1.191   5.111
    8SAPS  H14R  997   2.511   1.132   5.058
    8SAPS  C215  998   2.363   1.136   5.211
    8SAPS  H15R  999   2.388   1.035   5.249
    8SAPS  C216 1000   2.261   1.210   5.294
    8SAPS  H16R 1001   2.164   1.156   5.286
    8SAPS  H16S 1002   2.225   1.310   5.263
    8SAPS  C217 1003   2.300   1.226   5.433
    8SAPS  H17R 1004   2.378   1.306   5.440
    8SAPS  H17S 1005   2.354   1.134   5.467
    8SAPS  C218 1006   2.196   1.248   5.537
    8SAPS  H18R 1007   2.226   1.223   5.641
    8SAPS  H18S 1008   2.117   1.176   5.509
    8SAPS  C219 1009   2.141   1.392   5.528
    8SAPS  H19R 1010   2.089   1.417   5.433
    8SAPS  H19S 1011   2.217   1.473   5.530
    8SAPS  C220 1012   2.046   1.419   5.646
    8SAPS  H20R 1013   2.027   1.528   5.635
    8SAPS  H20S 1014   2.097   1.405   5.743
    8SAPS  H20T 1015   1.951   1.362   5.638
    8SAPS   C33 1016   2.145   1.964   5.955
    8SAPS   H3X 1017   2.197   2.041   5.895
    8SAPS   H3Y 1018   2.034   1.976   5.964
    8SAPS   C34 1019   2.165   1.830   5.878
    8SAPS   H4X 1020   2.156   1.747   5.951
    8SAPS   H4Y 1021   2.262   1.834   5.824
    8SAPS   C35 1022   2.059   1.816   5.762
    8SAPS   H5X 1023   1.952   1.822   5.794
    8SAPS   H5Y 1024   2.089   1.715   5.726
    8SAPS   C36 1025   2.080   1.896   5.637
    8SAPS   H6X 1026   2.186   1.892   5.604
    8SAPS   H6Y 1027   2.060   2.002   5.663
    8SAPS   C37 1028   1.994   1.844   5.519
    8SAPS   H7X 1029   1.886   1.867   5.536
    8SAPS   H7Y 1030   2.006   1.735   5.506
    8SAPS   C38 1031   2.024   1.911   5.387
    8SAPS   H8X 1032   2.117   1.872   5.341
    8SAPS   H8Y 1033   2.045   2.020   5.391
    8SAPS   C39 1034   1.916   1.880   5.285
    8SAPS   H9X 1035   1.819   1.920   5.321
    8SAPS   H9Y 1036   1.895   1.771   5.281
    8SAPS  C310 1037   1.948   1.940   5.144
    8SAPS  H10X 1038   2.043   1.900   5.103
    8SAPS  H10Y 1039   1.955   2.050   5.142
    8SAPS  C311 1040   1.842   1.898   5.047
    8SAPS  H11X 1041   1.759   1.952   5.097
    8SAPS  H11Y 1042   1.836   1.787   5.052
    8SAPS  C312 1043   1.872   1.941   4.900
    8SAPS  H12X 1044   1.961   1.879   4.875
    8SAPS  H12Y 1045   1.905   2.047   4.907
    8SAPS  C313 1046   1.752   1.926   4.808
    8SAPS  H13X 1047   1.672   1.971   4.870
    8SAPS  H13Y 1048   1.718   1.820   4.801
    8SAPS  C314 1049   1.785   1.989   4.675
    8SAPS  H14X 1050   1.817   2.094   4.689
    8SAPS  H14Y 1051   1.689   1.980   4.619
    8SAPS  C315 1052   1.899   1.937   4.586
    8SAPS  H15X 1053   1.871   1.832   4.560
    8SAPS  H15Y 1054   1.984   1.952   4.656
    8SAPS  C316 1055   1.908   2.005   4.450
    8SAPS  H16X 1056   1.918   2.114   4.469
    8SAPS  H16Y 1057   1.815   1.988   4.392
    8SAPS  C317 1058   2.023   1.949   4.369
    8SAPS  H17X 1059   2.000   1.854   4.316
    8SAPS  H17Y 1060   2.098   1.928   4.448
    8SAPS  C318 1061   2.075   2.063   4.290
    8SAPS  H18X 1062   2.110   2.147   4.355
    8SAPS  H18Y 1063   2.001   2.100   4.217
    8SAPS  H18Z 1064   2.163   2.036   4.228
    9SAPS     N 1065   1.331   4.781   7.076
    9SAPS   HN1 1066   1.409   4.832   7.124
    9SAPS   HN2 1067   1.375   4.694   7.040
    9SAPS   HN3 1068   1.288   4.826   6.993
    9SAPS   C12 1069   1.220   4.739   7.168
    9SAPS  H12A 1070   1.264   4.675   7.243
    9SAPS   C13 1071   1.156   4.857   7.242
    9SAPS  O13A 1072   1.203   4.972   7.229
    9SAPS  O13B 1073   1.076   4.829   7.333
    9SAPS   C11 1074   1.103   4.674   7.076
    9SAPS  H11A 1075   1.075   4.756   7.006
    9SAPS  H11B 1076   1.016   4.650   7.140
    9SAPS     P 1077   1.042   4.473   6.928
    9SAPS   O13 1078   1.021   4.353   7.013
    9SAPS   O14 1079   0.919   4.541   6.892
    9SAPS   O12 1080   1.151   4.567   7.002
    9SAPS   O11 1081   1.113   4.431   6.791
    9SAPS    C1 1082   1.229   4.486   6.739
    9SAPS    HA 1083   1.260   4.581   6.788
    9SAPS    HB 1084   1.317   4.422   6.762
    9SAPS    C2 1085   1.212   4.517   6.582
    9SAPS    HS 1086   1.285   4.588   6.539
    9SAPS   O21 1087   1.078   4.572   6.561
    9SAPS   C21 1088   1.062   4.703   6.580
    9SAPS   O22 1089   1.153   4.776   6.615
    9SAPS   C22 1090   0.915   4.739   6.547
    9SAPS   H2R 1091   0.870   4.680   6.464
    9SAPS   H2S 1092   0.848   4.724   6.634
    9SAPS    C3 1093   1.229   4.375   6.506
    9SAPS    HX 1094   1.157   4.306   6.553
    9SAPS    HY 1095   1.323   4.323   6.531
    9SAPS   O31 1096   1.200   4.379   6.363
    9SAPS   C31 1097   1.303   4.425   6.289
    9SAPS   O32 1098   1.402   4.469   6.332
    9SAPS   C32 1099   1.273   4.426   6.146
    9SAPS   H2X 1100   1.330   4.508   6.097
    9SAPS   H2Y 1101   1.164   4.445   6.137
    9SAPS   C23 1102   0.913   4.885   6.508
    9SAPS   H3R 1103   0.973   4.894   6.415
    9SAPS   H3S 1104   0.955   4.949   6.589
    9SAPS   C24 1105   0.771   4.937   6.488
    9SAPS   H4R 1106   0.717   4.899   6.578
    9SAPS   H4S 1107   0.731   4.887   6.398
    9SAPS   C25 1108   0.760   5.087   6.471
    9SAPS   H5R 1109   0.754   5.149   6.562
    9SAPS   C26 1110   0.763   5.152   6.353
    9SAPS   H6R 1111   0.763   5.262   6.362
    9SAPS   C27 1112   0.776   5.096   6.218
    9SAPS   H7R 1113   0.753   4.987   6.222
    9SAPS   H7S 1114   0.878   5.111   6.177
    9SAPS   C28 1115   0.676   5.137   6.115
    9SAPS   H8R 1116   0.574   5.148   6.154
    9SAPS   C29 1117   0.696   5.194   5.989
    9SAPS   H9R 1118   0.613   5.221   5.922
    9SAPS  C210 1119   0.827   5.212   5.915
    9SAPS  H10R 1120   0.815   5.171   5.812
    9SAPS  H10S 1121   0.905   5.152   5.966
    9SAPS  C211 1122   0.864   5.356   5.918
    9SAPS  H11R 1123   0.875   5.396   6.020
    9SAPS  C212 1124   0.895   5.439   5.811
    9SAPS  H12R 1125   0.911   5.548   5.816
    9SAPS  C213 1126   0.858   5.394   5.672
    9SAPS  H13R 1127   0.761   5.339   5.665
    9SAPS  H13S 1128   0.921   5.310   5.638
    9SAPS  C214 1129   0.848   5.508   5.564
    9SAPS  H14R 1130   0.769   5.583   5.577
    9SAPS  C215 1131   0.914   5.519   5.448
    9SAPS  H15R 1132   0.891   5.609   5.389
    9SAPS  C216 1133   1.011   5.416   5.390
    9SAPS  H16R 1134   1.007   5.320   5.447
    9SAPS  H16S 1135   1.115   5.455   5.389
    9SAPS  C217 1136   1.001   5.380   5.242
    9SAPS  H17R 1137   0.898   5.339   5.231
    9SAPS  H17S 1138   1.065   5.295   5.211
    9SAPS  C218 1139   1.015   5.488   5.137
    9SAPS  H18R 1140   1.114   5.539   5.146
    9SAPS  H18S 1141   0.933   5.562   5.150
    9SAPS  C219 1142   0.997   5.424   4.999
    9SAPS  H19R 1143   0.899   5.372   5.004
    9SAPS  H19S 1144   1.068   5.342   4.973
    9SAPS  C220 1145   0.990   5.534   4.886
    9SAPS  H20R 1146   1.084   5.592   4.893
    9SAPS  H20S 1147   0.899   5.598   4.894
    9SAPS  H20T 1148   0.986   5.488   4.785
    9SAPS   C33 1149   1.315   4.292   6.084
    9SAPS   H3X 1150   1.252   4.210   6.123
    9SAPS   H3Y 1151   1.421   4.270   6.109
    9SAPS   C34 1152   1.307   4.278   5.931
    9SAPS   H4X 1153   1.334   4.173   5.907
    9SAPS   H4Y 1154   1.384   4.346   5.890
    9SAPS   C35 1155   1.163   4.295   5.876
    9SAPS   H5X 1156   1.124   4.398   5.894
    9SAPS   H5Y 1157   1.090   4.228   5.926
    9SAPS   C36 1158   1.144   4.266   5.728
    9SAPS   H6X 1159   1.168   4.161   5.702
    9SAPS   H6Y 1160   1.222   4.330   5.681
    9SAPS   C37 1161   0.999   4.307   5.679
    9SAPS   H7X 1162   0.989   4.417   5.695
    9SAPS   H7Y 1163   0.924   4.267   5.751
    9SAPS   C38 1164   0.978   4.267   5.531
    9SAPS   H8X 1165   0.881   4.313   5.503
    9SAPS   H8Y 1166   0.962   4.157   5.527
    9SAPS   C39 1167   1.085   4.319   5.442
    9SAPS   H9X 1168   1.179   4.261   5.453
    9SAPS   H9Y 1169   1.111   4.425   5.462
    9SAPS  C310 1170   1.044   4.319   5.291
    9SAPS  H10X 1171   0.993   4.408   5.248
    9SAPS  H10Y 1172   0.979   4.230   5.275
    9SAPS  C311 1173   1.171   4.316   5.197
    9SAPS  H11X 1174   1.224   4.225   5.233
    9SAPS  H11Y 1175   1.244   4.395   5.224
    9SAPS  C312 1176   1.131   4.292   5.050
    9SAPS  H12X 1177   1.029   4.251   5.042
    9SAPS  H12Y 1178   1.210   4.232   4.999
    9SAPS  C313 1179   1.132   4.422   4.967
    9SAPS  H13X 1180   1.225   4.478   4.991
    9SAPS  H13Y 1181   1.071   4.507   5.004
    9SAPS  C314 1182   1.106   4.397   4.816
    9SAPS  H14X 1183   1.002   4.361   4.806
    9SAPS  H14Y 1184   1.184   4.324   4.785
    9SAPS  C315 1185   1.118   4.528   4.737
    9SAPS  H15X 1186   1.221   4.568   4.748
    9SAPS  H15Y 1187   1.046   4.599   4.784
    9SAPS  C316 1188   1.069   4.518   4.593
    9SAPS  H16X 1189   0.967   4.474   4.588
    9SAPS  H16Y 1190   1.141   4.451   4.541
    9SAPS  C317 1191   1.062   4.651   4.517
    9SAPS  H17X 1192   1.158   4.700   4.489
    9SAPS  H17Y 1193   1.000   4.712   4.587
    9SAPS  C318 1194   0.979   4.651   4.379
    9SAPS  H18X 1195   0.872   4.629   4.400
    9SAPS  H18Y 1196   1.017   4.567   4.316
    9SAPS  H18Z 1197   0.988   4.748   4.327
   10SAPS     N 1198   2.090   4.812   7.225
   10SAPS   HN1 1199   2.095   4.803   7.121
   10SAPS   HN2 1200   2.167   4.877   7.251
   10SAPS   HN3 1201   2.117   4.719   7.265
   10SAPS   C12 1202   1.954   4.857   7.257
   10SAPS  H12A 1203   1.909   4.765   7.291
   10SAPS   C13 1204   1.948   4.959   7.373
   10SAPS  O13A 1205   2.049   4.987   7.443
   10SAPS  O13B 1206   1.840   5.019   7.386
   10SAPS   C11 1207   1.885   4.903   7.129
   10SAPS  H11A 1208   1.935   4.999   7.105
   10SAPS  H11B 1209   1.779   4.936   7.144
   10SAPS     P 1210   1.788   4.733   6.956
   10SAPS   O13 1211   1.833   4.643   6.851
   10SAPS   O14 1212   1.720   4.673   7.078
   10SAPS   O12 1213   1.918   4.815   7.022
   10SAPS   O11 1214   1.692   4.846   6.902
   10SAPS    C1 1215   1.735   4.938   6.807
   10SAPS    HA 1216   1.682   5.035   6.799
   10SAPS    HB 1217   1.845   4.953   6.798
   10SAPS    C2 1218   1.699   4.873   6.670
   10SAPS    HS 1219   1.752   4.775   6.676
   10SAPS   O21 1220   1.744   4.949   6.555
   10SAPS   C21 1221   1.774   4.872   6.449
   10SAPS   O22 1222   1.770   4.752   6.447
   10SAPS   C22 1223   1.811   4.959   6.327
   10SAPS   H2R 1224   1.717   5.017   6.312
   10SAPS   H2S 1225   1.892   5.028   6.358
   10SAPS    C3 1226   1.547   4.840   6.666
   10SAPS    HX 1227   1.483   4.916   6.716
   10SAPS    HY 1228   1.526   4.763   6.744
   10SAPS   O31 1229   1.494   4.799   6.534
   10SAPS   C31 1230   1.427   4.890   6.461
   10SAPS   O32 1231   1.409   5.005   6.491
   10SAPS   C32 1232   1.373   4.828   6.339
   10SAPS   H2X 1233   1.290   4.762   6.372
   10SAPS   H2Y 1234   1.454   4.764   6.297
   10SAPS   C23 1235   1.856   4.883   6.204
   10SAPS   H3R 1236   1.784   4.812   6.159
   10SAPS   H3S 1237   1.941   4.821   6.240
   10SAPS   C24 1238   1.896   4.990   6.103
   10SAPS   H4R 1239   1.969   5.056   6.155
   10SAPS   H4S 1240   1.816   5.063   6.079
   10SAPS   C25 1241   1.975   4.941   5.977
   10SAPS   H5R 1242   2.085   4.948   5.984
   10SAPS   C26 1243   1.918   4.918   5.856
   10SAPS   H6R 1244   1.969   4.882   5.766
   10SAPS   C27 1245   1.763   4.926   5.843
   10SAPS   H7R 1246   1.714   4.910   5.942
   10SAPS   H7S 1247   1.725   4.835   5.793
   10SAPS   C28 1248   1.726   5.051   5.768
   10SAPS   H8R 1249   1.729   5.147   5.822
   10SAPS   C29 1250   1.682   5.045   5.639
   10SAPS   H9R 1251   1.656   5.140   5.589
   10SAPS  C210 1252   1.660   4.929   5.542
   10SAPS  H10R 1253   1.617   4.972   5.449
   10SAPS  H10S 1254   1.579   4.863   5.580
   10SAPS  C211 1255   1.788   4.851   5.516
   10SAPS  H11R 1256   1.819   4.782   5.595
   10SAPS  C212 1257   1.833   4.851   5.388
   10SAPS  H12R 1258   1.914   4.780   5.364
   10SAPS  C213 1259   1.790   4.937   5.266
   10SAPS  H13R 1260   1.764   5.035   5.312
   10SAPS  H13S 1261   1.696   4.889   5.230
   10SAPS  C214 1262   1.890   4.951   5.159
   10SAPS  H14R 1263   1.991   4.985   5.185
   10SAPS  C215 1264   1.877   4.933   5.032
   10SAPS  H15R 1265   1.965   4.960   4.972
   10SAPS  C216 1266   1.752   4.904   4.950
   10SAPS  H16R 1267   1.725   4.990   4.885
   10SAPS  H16S 1268   1.669   4.880   5.020
   10SAPS  C217 1269   1.770   4.787   4.852
   10SAPS  H17R 1270   1.787   4.692   4.906
   10SAPS  H17S 1271   1.859   4.805   4.788
   10SAPS  C218 1272   1.645   4.771   4.771
   10SAPS  H18R 1273   1.591   4.867   4.755
   10SAPS  H18S 1274   1.572   4.708   4.827
   10SAPS  C219 1275   1.664   4.711   4.635
   10SAPS  H19R 1276   1.716   4.613   4.648
   10SAPS  H19S 1277   1.746   4.758   4.576
   10SAPS  C220 1278   1.536   4.698   4.558
   10SAPS  H20R 1279   1.468   4.621   4.599
   10SAPS  H20S 1280   1.544   4.682   4.448
   10SAPS  H20T 1281   1.483   4.795   4.567
   10SAPS   C33 1282   1.333   4.932   6.235
   10SAPS   H3X 1283   1.415   5.000   6.203
   10SAPS   H3Y 1284   1.251   4.998   6.272
   10SAPS   C34 1285   1.276   4.867   6.108
   10SAPS   H4X 1286   1.229   4.952   6.053
   10SAPS   H4Y 1287   1.195   4.793   6.128
   10SAPS   C35 1288   1.368   4.788   6.015
   10SAPS   H5X 1289   1.392   4.690   6.060
   10SAPS   H5Y 1290   1.465   4.841   6.010
   10SAPS   C36 1291   1.314   4.768   5.877
   10SAPS   H6X 1292   1.295   4.863   5.823
   10SAPS   H6Y 1293   1.221   4.708   5.876
   10SAPS   C37 1294   1.416   4.699   5.788
   10SAPS   H7X 1295   1.436   4.601   5.836
   10SAPS   H7Y 1296   1.506   4.762   5.777
   10SAPS   C38 1297   1.358   4.658   5.655
   10SAPS   H8X 1298   1.332   4.745   5.590
   10SAPS   H8Y 1299   1.266   4.597   5.664
   10SAPS   C39 1300   1.460   4.583   5.566
   10SAPS   H9X 1301   1.499   4.501   5.630
   10SAPS   H9Y 1302   1.549   4.648   5.557
   10SAPS  C310 1303   1.394   4.532   5.431
   10SAPS  H10X 1304   1.300   4.481   5.462
   10SAPS  H10Y 1305   1.463   4.453   5.394
   10SAPS  C311 1306   1.383   4.645   5.327
   10SAPS  H11X 1307   1.343   4.735   5.379
   10SAPS  H11Y 1308   1.310   4.609   5.250
   10SAPS  C312 1309   1.511   4.680   5.258
   10SAPS  H12X 1310   1.580   4.716   5.337
   10SAPS  H12Y 1311   1.501   4.769   5.192
   10SAPS  C313 1312   1.582   4.559   5.187
   10SAPS  H13X 1313   1.611   4.483   5.263
   10SAPS  H13Y 1314   1.681   4.600   5.159
   10SAPS  C314 1315   1.515   4.518   5.058
   10SAPS  H14X 1316   1.494   4.608   4.997
   10SAPS  H14Y 1317   1.424   4.460   5.084
   10SAPS  C315 1318   1.592   4.410   4.979
   10SAPS  H15X 1319   1.613   4.326   5.048
   10SAPS  H15Y 1320   1.693   4.440   4.942
   10SAPS  C316 1321   1.514   4.370   4.852
   10SAPS  H16X 1322   1.535   4.446   4.774
   10SAPS  H16Y 1323   1.409   4.372   4.888
   10SAPS  C317 1324   1.540   4.228   4.798
   10SAPS  H17X 1325   1.542   4.154   4.880
   10SAPS  H17Y 1326   1.642   4.209   4.757
   10SAPS  C318 1327   1.447   4.192   4.686
   10SAPS  H18X 1328   1.342   4.194   4.721
   10SAPS  H18Y 1329   1.477   4.090   4.653
   10SAPS  H18Z 1330   1.470   4.263   4.604
   11SAPS     N 1331   2.920   2.781   2.139
   11SAPS   HN1 1332   2.975   2.867   2.159
   11SAPS   HN2 1333   2.965   2.727   2.062
   11SAPS   HN3 1334   2.823   2.813   2.122
   11SAPS   C12 1335   2.920   2.694   2.260
   11SAPS  H12A 1336   2.858   2.741   2.335
   11SAPS   C13 1337   2.850   2.558   2.256
   11SAPS  O13A 1338   2.799   2.529   2.144
   11SAPS  O13B 1339   2.830   2.487   2.360
   11SAPS   C11 1340   3.061   2.683   2.322
   11SAPS  H11A 1341   3.127   2.649   2.239
   11SAPS  H11B 1342   3.057   2.608   2.404
   11SAPS     P 1343   3.074   2.837   2.525
   11SAPS   O13 1344   3.043   2.982   2.540
   11SAPS   O14 1345   2.966   2.747   2.575
   11SAPS   O12 1346   3.108   2.806   2.375
   11SAPS   O11 1347   3.210   2.782   2.593
   11SAPS    C1 1348   3.205   2.744   2.735
   11SAPS    HA 1349   3.136   2.658   2.745
   11SAPS    HB 1350   3.304   2.710   2.771
   11SAPS    C2 1351   3.168   2.858   2.835
   11SAPS    HS 1352   3.058   2.868   2.824
   11SAPS   O21 1353   3.224   2.980   2.797
   11SAPS   C21 1354   3.183   3.092   2.852
   11SAPS   O22 1355   3.115   3.096   2.955
   11SAPS   C22 1356   3.214   3.213   2.760
   11SAPS   H2R 1357   3.295   3.185   2.689
   11SAPS   H2S 1358   3.126   3.227   2.694
   11SAPS    C3 1359   3.216   2.809   2.970
   11SAPS    HX 1360   3.186   2.886   3.045
   11SAPS    HY 1361   3.325   2.827   2.970
   11SAPS   O31 1362   3.185   2.672   3.000
   11SAPS   C31 1363   3.077   2.645   3.072
   11SAPS   O32 1364   2.990   2.732   3.103
   11SAPS   C32 1365   3.082   2.493   3.120
   11SAPS   H2X 1366   3.185   2.486   3.162
   11SAPS   H2Y 1367   3.075   2.429   3.029
   11SAPS   C23 1368   3.239   3.334   2.839
   11SAPS   H3R 1369   3.273   3.321   2.944
   11SAPS   H3S 1370   3.144   3.386   2.865
   11SAPS   C24 1371   3.341   3.438   2.779
   11SAPS   H4R 1372   3.298   3.535   2.812
   11SAPS   H4S 1373   3.323   3.436   2.670
   11SAPS   C25 1374   3.490   3.419   2.803
   11SAPS   H5R 1375   3.533   3.323   2.769
   11SAPS   C26 1376   3.563   3.501   2.879
   11SAPS   H6R 1377   3.672   3.491   2.881
   11SAPS   C27 1378   3.511   3.627   2.945
   11SAPS   H7R 1379   3.425   3.601   3.011
   11SAPS   H7S 1380   3.447   3.683   2.873
   11SAPS   C28 1381   3.616   3.737   2.982
   11SAPS   H8R 1382   3.627   3.817   2.907
   11SAPS   C29 1383   3.667   3.754   3.105
   11SAPS   H9R 1384   3.748   3.827   3.122
   11SAPS  C210 1385   3.657   3.651   3.213
   11SAPS  H10R 1386   3.574   3.579   3.198
   11SAPS  H10S 1387   3.619   3.715   3.296
   11SAPS  C211 1388   3.773   3.554   3.236
   11SAPS  H11R 1389   3.805   3.494   3.150
   11SAPS  C212 1390   3.847   3.549   3.354
   11SAPS  H12R 1391   3.925   3.473   3.346
   11SAPS  C213 1392   3.840   3.644   3.469
   11SAPS  H13R 1393   3.735   3.661   3.503
   11SAPS  H13S 1394   3.879   3.739   3.428
   11SAPS  C214 1395   3.927   3.613   3.591
   11SAPS  H14R 1396   4.033   3.585   3.576
   11SAPS  C215 1397   3.887   3.605   3.718
   11SAPS  H15R 1398   3.951   3.572   3.801
   11SAPS  C216 1399   3.751   3.638   3.770
   11SAPS  H16R 1400   3.683   3.550   3.776
   11SAPS  H16S 1401   3.712   3.715   3.700
   11SAPS  C217 1402   3.760   3.689   3.917
   11SAPS  H17R 1403   3.812   3.787   3.924
   11SAPS  H17S 1404   3.817   3.606   3.963
   11SAPS  C218 1405   3.630   3.685   4.005
   11SAPS  H18R 1406   3.583   3.587   3.982
   11SAPS  H18S 1407   3.570   3.771   3.968
   11SAPS  C219 1408   3.652   3.684   4.158
   11SAPS  H19R 1409   3.720   3.604   4.192
   11SAPS  H19S 1410   3.555   3.649   4.199
   11SAPS  C220 1411   3.686   3.823   4.223
   11SAPS  H20R 1412   3.594   3.884   4.227
   11SAPS  H20S 1413   3.758   3.870   4.152
   11SAPS  H20T 1414   3.737   3.805   4.320
   11SAPS   C33 1415   2.974   2.462   3.223
   11SAPS   H3X 1416   2.968   2.351   3.213
   11SAPS   H3Y 1417   2.869   2.490   3.200
   11SAPS   C34 1418   3.004   2.512   3.363
   11SAPS   H4X 1419   3.031   2.620   3.364
   11SAPS   H4Y 1420   3.095   2.458   3.397
   11SAPS   C35 1421   2.891   2.484   3.466
   11SAPS   H5X 1422   2.857   2.380   3.453
   11SAPS   H5Y 1423   2.814   2.563   3.449
   11SAPS   C36 1424   2.946   2.506   3.610
   11SAPS   H6X 1425   2.978   2.612   3.600
   11SAPS   H6Y 1426   3.033   2.443   3.638
   11SAPS   C37 1427   2.848   2.488   3.718
   11SAPS   H7X 1428   2.806   2.386   3.701
   11SAPS   H7Y 1429   2.764   2.558   3.701
   11SAPS   C38 1430   2.914   2.504   3.856
   11SAPS   H8X 1431   2.969   2.600   3.854
   11SAPS   H8Y 1432   2.988   2.421   3.854
   11SAPS   C39 1433   2.817   2.487   3.972
   11SAPS   H9X 1434   2.741   2.414   3.935
   11SAPS   H9Y 1435   2.755   2.577   3.988
   11SAPS  C310 1436   2.885   2.448   4.100
   11SAPS  H10X 1437   2.818   2.458   4.188
   11SAPS  H10Y 1438   2.969   2.518   4.117
   11SAPS  C311 1439   2.937   2.301   4.118
   11SAPS  H11X 1440   3.032   2.290   4.061
   11SAPS  H11Y 1441   2.863   2.236   4.067
   11SAPS  C312 1442   2.976   2.262   4.262
   11SAPS  H12X 1443   2.896   2.269   4.339
   11SAPS  H12Y 1444   3.049   2.337   4.299
   11SAPS  C313 1445   3.040   2.123   4.249
   11SAPS  H13X 1446   3.133   2.133   4.189
   11SAPS  H13Y 1447   2.969   2.042   4.221
   11SAPS  C314 1448   3.099   2.085   4.394
   11SAPS  H14X 1449   3.011   2.036   4.441
   11SAPS  H14Y 1450   3.130   2.174   4.453
   11SAPS  C315 1451   3.207   1.979   4.391
   11SAPS  H15X 1452   3.298   2.005   4.333
   11SAPS  H15Y 1453   3.166   1.885   4.349
   11SAPS  C316 1454   3.269   1.945   4.524
   11SAPS  H16X 1455   3.194   1.947   4.606
   11SAPS  H16Y 1456   3.349   2.022   4.534
   11SAPS  C317 1457   3.355   1.816   4.518
   11SAPS  H17X 1458   3.283   1.740   4.481
   11SAPS  H17Y 1459   3.394   1.783   4.617
   11SAPS  C318 1460   3.475   1.822   4.426
   11SAPS  H18X 1461   3.547   1.890   4.476
   11SAPS  H18Y 1462   3.443   1.855   4.325
   11SAPS  H18Z 1463   3.522   1.721   4.423
   12SAPS     N 1464   2.010   2.801   2.124
   12SAPS   HN1 1465   1.986   2.769   2.220
   12SAPS   HN2 1466   2.100   2.852   2.132
   12SAPS   HN3 1467   1.940   2.871   2.091
   12SAPS   C12 1468   2.026   2.681   2.036
   12SAPS  H12A 1469   1.940   2.615   2.026
   12SAPS   C13 1470   2.069   2.709   1.892
   12SAPS  O13A 1471   2.119   2.824   1.866
   12SAPS  O13B 1472   2.089   2.608   1.817
   12SAPS   C11 1473   2.146   2.588   2.097
   12SAPS  H11A 1474   2.240   2.647   2.098
   12SAPS  H11B 1475   2.174   2.505   2.028
   12SAPS     P 1476   2.085   2.389   2.265
   12SAPS   O13 1477   2.053   2.324   2.134
   12SAPS   O14 1478   2.194   2.328   2.349
   12SAPS   O12 1479   2.117   2.542   2.229
   12SAPS   O11 1480   1.949   2.390   2.348
   12SAPS    C1 1481   1.914   2.512   2.424
   12SAPS    HA 1482   1.933   2.610   2.376
   12SAPS    HB 1483   1.808   2.492   2.454
   12SAPS    C2 1484   1.997   2.505   2.561
   12SAPS    HS 1485   2.106   2.488   2.543
   12SAPS   O21 1486   1.951   2.396   2.637
   12SAPS   C21 1487   2.041   2.341   2.726
   12SAPS   O22 1488   2.145   2.395   2.752
   12SAPS   C22 1489   1.976   2.219   2.794
   12SAPS   H2R 1490   1.882   2.248   2.847
   12SAPS   H2S 1491   1.944   2.143   2.719
   12SAPS    C3 1492   1.966   2.636   2.634
   12SAPS    HX 1493   1.858   2.643   2.658
   12SAPS    HY 1494   1.984   2.720   2.563
   12SAPS   O31 1495   2.046   2.664   2.755
   12SAPS   C31 1496   1.990   2.639   2.868
   12SAPS   O32 1497   1.886   2.580   2.880
   12SAPS   C32 1498   2.072   2.676   2.992
   12SAPS   H2X 1499   2.131   2.769   2.980
   12SAPS   H2Y 1500   2.134   2.587   3.015
   12SAPS   C23 1501   2.075   2.160   2.892
   12SAPS   H3R 1502   2.172   2.158   2.838
   12SAPS   H3S 1503   2.061   2.053   2.917
   12SAPS   C24 1504   2.081   2.249   3.023
   12SAPS   H4R 1505   1.981   2.232   3.067
   12SAPS   H4S 1506   2.079   2.357   2.998
   12SAPS   C25 1507   2.190   2.223   3.128
   12SAPS   H5R 1508   2.296   2.227   3.098
   12SAPS   C26 1509   2.174   2.209   3.256
   12SAPS   H6R 1510   2.265   2.196   3.316
   12SAPS   C27 1511   2.039   2.220   3.336
   12SAPS   H7R 1512   1.965   2.274   3.273
   12SAPS   H7S 1513   2.066   2.276   3.429
   12SAPS   C28 1514   1.989   2.083   3.364
   12SAPS   H8R 1515   2.005   2.005   3.288
   12SAPS   C29 1516   1.928   2.056   3.482
   12SAPS   H9R 1517   1.895   1.953   3.502
   12SAPS  C210 1518   1.907   2.156   3.591
   12SAPS  H10R 1519   1.838   2.235   3.553
   12SAPS  H10S 1520   1.999   2.208   3.625
   12SAPS  C211 1521   1.828   2.082   3.698
   12SAPS  H11R 1522   1.722   2.073   3.673
   12SAPS  C212 1523   1.884   2.033   3.811
   12SAPS  H12R 1524   1.824   1.970   3.878
   12SAPS  C213 1525   2.031   2.037   3.842
   12SAPS  H13R 1526   2.051   2.044   3.951
   12SAPS  H13S 1527   2.074   2.131   3.802
   12SAPS  C214 1528   2.094   1.913   3.783
   12SAPS  H14R 1529   2.088   1.916   3.673
   12SAPS  C215 1530   2.157   1.806   3.841
   12SAPS  H15R 1531   2.199   1.724   3.781
   12SAPS  C216 1532   2.162   1.790   3.991
   12SAPS  H16R 1533   2.118   1.693   4.023
   12SAPS  H16S 1534   2.118   1.873   4.049
   12SAPS  C217 1535   2.311   1.787   4.047
   12SAPS  H17R 1536   2.366   1.882   4.065
   12SAPS  H17S 1537   2.378   1.729   3.981
   12SAPS  C218 1538   2.304   1.712   4.181
   12SAPS  H18R 1539   2.253   1.616   4.161
   12SAPS  H18S 1540   2.240   1.772   4.249
   12SAPS  C219 1541   2.445   1.695   4.252
   12SAPS  H19R 1542   2.531   1.700   4.182
   12SAPS  H19S 1543   2.444   1.590   4.287
   12SAPS  C220 1544   2.455   1.789   4.367
   12SAPS  H20R 1545   2.430   1.742   4.465
   12SAPS  H20S 1546   2.394   1.880   4.347
   12SAPS  H20T 1547   2.557   1.832   4.370
   12SAPS   C33 1548   1.989   2.705   3.118
   12SAPS   H3X 1549   1.905   2.772   3.093
   12SAPS   H3Y 1550   2.062   2.764   3.178
   12SAPS   C34 1551   1.945   2.579   3.203
   12SAPS   H4X 1552   2.026   2.507   3.226
   12SAPS   H4Y 1553   1.887   2.514   3.133
   12SAPS   C35 1554   1.862   2.609   3.327
   12SAPS   H5X 1555   1.772   2.669   3.302
   12SAPS   H5Y 1556   1.931   2.663   3.395
   12SAPS   C36 1557   1.815   2.482   3.407
   12SAPS   H6X 1558   1.911   2.442   3.444
   12SAPS   H6Y 1559   1.761   2.413   3.337
   12SAPS   C37 1560   1.720   2.518   3.524
   12SAPS   H7X 1561   1.664   2.426   3.549
   12SAPS   H7Y 1562   1.636   2.582   3.490
   12SAPS   C38 1563   1.792   2.574   3.649
   12SAPS   H8X 1564   1.810   2.681   3.627
   12SAPS   H8Y 1565   1.889   2.523   3.666
   12SAPS   C39 1566   1.700   2.577   3.771
   12SAPS   H9X 1567   1.607   2.626   3.737
   12SAPS   H9Y 1568   1.746   2.654   3.836
   12SAPS  C310 1569   1.676   2.436   3.822
   12SAPS  H10X 1570   1.767   2.372   3.815
   12SAPS  H10Y 1571   1.594   2.392   3.762
   12SAPS  C311 1572   1.643   2.455   3.970
   12SAPS  H11X 1573   1.549   2.513   3.975
   12SAPS  H11Y 1574   1.728   2.493   4.031
   12SAPS  C312 1575   1.618   2.312   4.039
   12SAPS  H12X 1576   1.692   2.235   4.008
   12SAPS  H12Y 1577   1.517   2.274   4.011
   12SAPS  C313 1578   1.609   2.312   4.195
   12SAPS  H13X 1579   1.556   2.401   4.234
   12SAPS  H13Y 1580   1.706   2.311   4.248
   12SAPS  C314 1581   1.546   2.185   4.256
   12SAPS  H14X 1582   1.607   2.099   4.221
   12SAPS  H14Y 1583   1.440   2.176   4.224
   12SAPS  C315 1584   1.550   2.172   4.408
   12SAPS  H15X 1585   1.655   2.180   4.444
   12SAPS  H15Y 1586   1.515   2.074   4.446
   12SAPS  C316 1587   1.465   2.280   4.485
   12SAPS  H16X 1588   1.359   2.252   4.464
   12SAPS  H16Y 1589   1.479   2.376   4.431
   12SAPS  C317 1590   1.492   2.292   4.629
   12SAPS  H17X 1591   1.443   2.383   4.670
   12SAPS  H17Y 1592   1.601   2.299   4.649
   12SAPS  C318 1593   1.456   2.174   4.712
   12SAPS  H18X 1594   1.489   2.084   4.656
   12SAPS  H18Y 1595   1.348   2.172   4.736
   12SAPS  H18Z 1596   1.511   2.160   4.808
   13SAPS     N 1597   4.668   1.333   2.385
   13SAPS   HN1 1598   4.716   1.425   2.377
   13SAPS   HN2 1599   4.666   1.293   2.481
   13SAPS   HN3 1600   4.714   1.263   2.324
   13SAPS   C12 1601   4.519   1.326   2.338
   13SAPS  H12A 1602   4.466   1.401   2.394
   13SAPS   C13 1603   4.491   1.355   2.191
   13SAPS  O13A 1604   4.574   1.431   2.129
   13SAPS  O13B 1605   4.374   1.327   2.146
   13SAPS   C11 1606   4.458   1.184   2.360
   13SAPS  H11A 1607   4.509   1.112   2.292
   13SAPS  H11B 1608   4.351   1.172   2.331
   13SAPS     P 1609   4.391   1.200   2.603
   13SAPS   O13 1610   4.463   1.322   2.643
   13SAPS   O14 1611   4.252   1.205   2.553
   13SAPS   O12 1612   4.475   1.142   2.490
   13SAPS   O11 1613   4.397   1.104   2.723
   13SAPS    C1 1614   4.519   1.031   2.749
   13SAPS    HA 1615   4.503   0.922   2.739
   13SAPS    HB 1616   4.601   1.052   2.677
   13SAPS    C2 1617   4.579   1.055   2.897
   13SAPS    HS 1618   4.665   0.986   2.908
   13SAPS   O21 1619   4.485   1.024   3.000
   13SAPS   C21 1620   4.480   0.895   3.025
   13SAPS   O22 1621   4.545   0.809   2.967
   13SAPS   C22 1622   4.368   0.870   3.124
   13SAPS   H2R 1623   4.308   0.961   3.140
   13SAPS   H2S 1624   4.302   0.795   3.074
   13SAPS    C3 1625   4.627   1.202   2.906
   13SAPS    HX 1626   4.535   1.264   2.898
   13SAPS    HY 1627   4.694   1.227   2.821
   13SAPS   O31 1628   4.683   1.222   3.036
   13SAPS   C31 1629   4.616   1.307   3.122
   13SAPS   O32 1630   4.523   1.380   3.096
   13SAPS   C32 1631   4.690   1.300   3.257
   13SAPS   H2X 1632   4.796   1.333   3.250
   13SAPS   H2Y 1633   4.703   1.195   3.290
   13SAPS   C23 1634   4.433   0.800   3.246
   13SAPS   H3R 1635   4.482   0.713   3.197
   13SAPS   H3S 1636   4.354   0.759   3.312
   13SAPS   C24 1637   4.533   0.894   3.325
   13SAPS   H4R 1638   4.597   0.951   3.254
   13SAPS   H4S 1639   4.600   0.824   3.380
   13SAPS   C25 1640   4.456   0.989   3.411
   13SAPS   H5R 1641   4.408   1.066   3.350
   13SAPS   C26 1642   4.420   0.975   3.540
   13SAPS   H6R 1643   4.351   1.053   3.573
   13SAPS   C27 1644   4.447   0.862   3.635
   13SAPS   H7R 1645   4.501   0.775   3.592
   13SAPS   H7S 1646   4.349   0.827   3.675
   13SAPS   C28 1647   4.528   0.920   3.741
   13SAPS   H8R 1648   4.636   0.910   3.721
   13SAPS   C29 1649   4.493   0.995   3.849
   13SAPS   H9R 1650   4.571   1.030   3.919
   13SAPS  C210 1651   4.346   1.023   3.890
   13SAPS  H10R 1652   4.283   1.000   3.801
   13SAPS  H10S 1653   4.334   1.133   3.896
   13SAPS  C211 1654   4.317   0.946   4.014
   13SAPS  H11R 1655   4.335   0.838   4.004
   13SAPS  C212 1656   4.249   1.000   4.116
   13SAPS  H12R 1657   4.224   0.929   4.196
   13SAPS  C213 1658   4.217   1.148   4.138
   13SAPS  H13R 1659   4.301   1.213   4.105
   13SAPS  H13S 1660   4.207   1.170   4.246
   13SAPS  C214 1661   4.093   1.199   4.070
   13SAPS  H14R 1662   4.105   1.217   3.962
   13SAPS  C215 1663   3.963   1.193   4.113
   13SAPS  H15R 1664   3.897   1.238   4.038
   13SAPS  C216 1665   3.910   1.121   4.231
   13SAPS  H16R 1666   3.965   1.026   4.245
   13SAPS  H16S 1667   3.814   1.067   4.217
   13SAPS  C217 1668   3.896   1.202   4.367
   13SAPS  H17R 1669   3.795   1.246   4.358
   13SAPS  H17S 1670   3.968   1.286   4.370
   13SAPS  C218 1671   3.910   1.103   4.479
   13SAPS  H18R 1672   3.960   1.157   4.563
   13SAPS  H18S 1673   3.987   1.026   4.454
   13SAPS  C219 1674   3.779   1.046   4.521
   13SAPS  H19R 1675   3.778   0.935   4.508
   13SAPS  H19S 1676   3.703   1.085   4.451
   13SAPS  C220 1677   3.728   1.096   4.662
   13SAPS  H20R 1678   3.619   1.075   4.667
   13SAPS  H20S 1679   3.758   1.203   4.669
   13SAPS  H20T 1680   3.777   1.041   4.745
   13SAPS   C33 1681   4.604   1.387   3.356
   13SAPS   H3X 1682   4.495   1.379   3.339
   13SAPS   H3Y 1683   4.622   1.496   3.346
   13SAPS   C34 1684   4.638   1.332   3.494
   13SAPS   H4X 1685   4.748   1.348   3.500
   13SAPS   H4Y 1686   4.621   1.223   3.500
   13SAPS   C35 1687   4.564   1.393   3.609
   13SAPS   H5X 1688   4.459   1.357   3.617
   13SAPS   H5Y 1689   4.573   1.501   3.582
   13SAPS   C36 1690   4.632   1.376   3.746
   13SAPS   H6X 1691   4.741   1.400   3.744
   13SAPS   H6Y 1692   4.613   1.268   3.763
   13SAPS   C37 1693   4.579   1.454   3.865
   13SAPS   H7X 1694   4.469   1.458   3.850
   13SAPS   H7Y 1695   4.628   1.553   3.874
   13SAPS   C38 1696   4.611   1.365   3.992
   13SAPS   H8X 1697   4.713   1.323   4.005
   13SAPS   H8Y 1698   4.548   1.274   3.980
   13SAPS   C39 1699   4.566   1.426   4.124
   13SAPS   H9X 1700   4.458   1.451   4.125
   13SAPS   H9Y 1701   4.604   1.530   4.136
   13SAPS  C310 1702   4.631   1.361   4.255
   13SAPS  H10X 1703   4.741   1.367   4.242
   13SAPS  H10Y 1704   4.606   1.253   4.253
   13SAPS  C311 1705   4.583   1.432   4.384
   13SAPS  H11X 1706   4.473   1.422   4.390
   13SAPS  H11Y 1707   4.609   1.540   4.372
   13SAPS  C312 1708   4.622   1.375   4.524
   13SAPS  H12X 1709   4.724   1.410   4.553
   13SAPS  H12Y 1710   4.629   1.264   4.521
   13SAPS  C313 1711   4.528   1.403   4.639
   13SAPS  H13X 1712   4.579   1.389   4.737
   13SAPS  H13Y 1713   4.459   1.317   4.654
   13SAPS  C314 1714   4.457   1.540   4.629
   13SAPS  H14X 1715   4.406   1.557   4.532
   13SAPS  H14Y 1716   4.534   1.620   4.632
   13SAPS  C315 1717   4.359   1.555   4.740
   13SAPS  H15X 1718   4.417   1.548   4.835
   13SAPS  H15Y 1719   4.283   1.474   4.740
   13SAPS  C316 1720   4.294   1.698   4.748
   13SAPS  H16X 1721   4.229   1.695   4.658
   13SAPS  H16Y 1722   4.370   1.777   4.734
   13SAPS  C317 1723   4.219   1.743   4.872
   13SAPS  H17X 1724   4.194   1.852   4.870
   13SAPS  H17Y 1725   4.284   1.732   4.961
   13SAPS  C318 1726   4.087   1.678   4.902
   13SAPS  H18X 1727   4.088   1.566   4.899
   13SAPS  H18Y 1728   4.007   1.705   4.830
   13SAPS  H18Z 1729   4.040   1.714   4.996
   14SAPS     N 1730   4.363   3.191   2.207
   14SAPS   HN1 1731   4.437   3.232   2.268
   14SAPS   HN2 1732   4.270   3.232   2.229
   14SAPS   HN3 1733   4.371   3.088   2.222
   14SAPS   C12 1734   4.393   3.217   2.066
   14SAPS  H12A 1735   4.493   3.183   2.046
   14SAPS   C13 1736   4.296   3.151   1.966
   14SAPS  O13A 1737   4.186   3.105   2.007
   14SAPS  O13B 1738   4.323   3.161   1.842
   14SAPS   C11 1739   4.385   3.372   2.043
   14SAPS  H11A 1740   4.278   3.400   2.054
   14SAPS  H11B 1741   4.406   3.418   1.944
   14SAPS     P 1742   4.599   3.504   2.094
   14SAPS   O13 1743   4.668   3.418   1.993
   14SAPS   O14 1744   4.564   3.637   2.036
   14SAPS   O12 1745   4.466   3.431   2.148
   14SAPS   O11 1746   4.682   3.533   2.227
   14SAPS    C1 1747   4.613   3.567   2.349
   14SAPS    HA 1748   4.551   3.659   2.354
   14SAPS    HB 1749   4.548   3.483   2.381
   14SAPS    C2 1750   4.703   3.577   2.473
   14SAPS    HS 1751   4.765   3.486   2.483
   14SAPS   O21 1752   4.626   3.607   2.589
   14SAPS   C21 1753   4.570   3.490   2.631
   14SAPS   O22 1754   4.587   3.380   2.581
   14SAPS   C22 1755   4.481   3.527   2.739
   14SAPS   H2R 1756   4.438   3.629   2.728
   14SAPS   H2S 1757   4.397   3.455   2.728
   14SAPS    C3 1758   4.811   3.688   2.440
   14SAPS    HX 1759   4.749   3.778   2.422
   14SAPS    HY 1760   4.857   3.676   2.340
   14SAPS   O31 1761   4.902   3.705   2.546
   14SAPS   C31 1762   4.880   3.811   2.624
   14SAPS   O32 1763   4.782   3.878   2.619
   14SAPS   C32 1764   5.008   3.839   2.709
   14SAPS   H2X 1765   4.991   3.905   2.797
   14SAPS   H2Y 1766   5.071   3.887   2.630
   14SAPS   C23 1767   4.547   3.509   2.882
   14SAPS   H3R 1768   4.577   3.402   2.890
   14SAPS   H3S 1769   4.476   3.538   2.962
   14SAPS   C24 1770   4.658   3.607   2.910
   14SAPS   H4R 1771   4.608   3.705   2.893
   14SAPS   H4S 1772   4.739   3.592   2.836
   14SAPS   C25 1773   4.715   3.583   3.050
   14SAPS   H5R 1774   4.738   3.478   3.070
   14SAPS   C26 1775   4.739   3.670   3.149
   14SAPS   H6R 1776   4.786   3.638   3.243
   14SAPS   C27 1777   4.727   3.820   3.142
   14SAPS   H7R 1778   4.651   3.858   3.213
   14SAPS   H7S 1779   4.698   3.867   3.045
   14SAPS   C28 1780   4.856   3.886   3.187
   14SAPS   H8R 1781   4.915   3.909   3.098
   14SAPS   C29 1782   4.888   3.910   3.315
   14SAPS   H9R 1783   4.982   3.964   3.331
   14SAPS  C210 1784   4.820   3.882   3.446
   14SAPS  H10R 1785   4.714   3.852   3.430
   14SAPS  H10S 1786   4.826   3.976   3.505
   14SAPS  C211 1787   4.891   3.765   3.510
   14SAPS  H11R 1788   4.915   3.684   3.439
   14SAPS  C212 1789   4.913   3.750   3.639
   14SAPS  H12R 1790   4.950   3.652   3.674
   14SAPS  C213 1791   4.882   3.835   3.764
   14SAPS  H13R 1792   4.823   3.779   3.840
   14SAPS  H13S 1793   4.816   3.917   3.730
   14SAPS  C214 1794   5.016   3.879   3.831
   14SAPS  H14R 1795   5.107   3.850   3.776
   14SAPS  C215 1796   5.030   3.944   3.947
   14SAPS  H15R 1797   5.132   3.966   3.981
   14SAPS  C216 1798   4.918   3.987   4.036
   14SAPS  H16R 1799   4.824   3.962   3.982
   14SAPS  H16S 1800   4.906   4.093   4.068
   14SAPS  C217 1801   4.909   3.907   4.169
   14SAPS  H17R 1802   4.902   3.801   4.138
   14SAPS  H17S 1803   4.810   3.929   4.214
   14SAPS  C218 1804   5.019   3.932   4.268
   14SAPS  H18R 1805   5.118   3.916   4.219
   14SAPS  H18S 1806   5.018   3.849   4.342
   14SAPS  C219 1807   5.020   4.064   4.345
   14SAPS  H19R 1808   4.938   4.062   4.419
   14SAPS  H19S 1809   5.002   4.146   4.272
   14SAPS  C220 1810   5.152   4.102   4.426
   14SAPS  H20R 1811   5.186   4.022   4.496
   14SAPS  H20S 1812   5.130   4.187   4.494
   14SAPS  H20T 1813   5.229   4.141   4.355
   14SAPS   C33 1814   5.068   3.704   2.770
   14SAPS   H3X 1815   5.052   3.622   2.697
   14SAPS   H3Y 1816   5.008   3.669   2.857
   14SAPS   C34 1817   5.213   3.718   2.812
   14SAPS   H4X 1818   5.223   3.790   2.896
   14SAPS   H4Y 1819   5.270   3.761   2.726
   14SAPS   C35 1820   5.278   3.582   2.856
   14SAPS   H5X 1821   5.387   3.599   2.869
   14SAPS   H5Y 1822   5.269   3.503   2.778
   14SAPS   C36 1823   5.217   3.516   2.987
   14SAPS   H6X 1824   5.231   3.407   2.972
   14SAPS   H6Y 1825   5.107   3.525   2.982
   14SAPS   C37 1826   5.274   3.580   3.108
   14SAPS   H7X 1827   5.242   3.686   3.115
   14SAPS   H7Y 1828   5.384   3.592   3.109
   14SAPS   C38 1829   5.239   3.507   3.238
   14SAPS   H8X 1830   5.281   3.404   3.231
   14SAPS   H8Y 1831   5.128   3.499   3.244
   14SAPS   C39 1832   5.294   3.582   3.367
   14SAPS   H9X 1833   5.263   3.687   3.353
   14SAPS   H9Y 1834   5.405   3.587   3.357
   14SAPS  C310 1835   5.249   3.523   3.499
   14SAPS  H10X 1836   5.258   3.412   3.498
   14SAPS  H10Y 1837   5.139   3.530   3.517
   14SAPS  C311 1838   5.319   3.592   3.614
   14SAPS  H11X 1839   5.324   3.701   3.596
   14SAPS  H11Y 1840   5.427   3.571   3.627
   14SAPS  C312 1841   5.253   3.560   3.744
   14SAPS  H12X 1842   5.286   3.459   3.775
   14SAPS  H12Y 1843   5.142   3.573   3.740
   14SAPS  C313 1844   5.323   3.649   3.850
   14SAPS  H13X 1845   5.324   3.754   3.815
   14SAPS  H13Y 1846   5.427   3.611   3.845
   14SAPS  C314 1847   5.270   3.635   3.991
   14SAPS  H14X 1848   5.239   3.535   4.028
   14SAPS  H14Y 1849   5.180   3.698   4.008
   14SAPS  C315 1850   5.373   3.686   4.098
   14SAPS  H15X 1851   5.396   3.792   4.075
   14SAPS  H15Y 1852   5.465   3.632   4.067
   14SAPS  C316 1853   5.333   3.663   4.243
   14SAPS  H16X 1854   5.322   3.553   4.260
   14SAPS  H16Y 1855   5.230   3.698   4.264
   14SAPS  C317 1856   5.425   3.735   4.350
   14SAPS  H17X 1857   5.444   3.841   4.322
   14SAPS  H17Y 1858   5.522   3.679   4.350
   14SAPS  C318 1859   5.370   3.730   4.497
   14SAPS  H18X 1860   5.292   3.808   4.499
   14SAPS  H18Y 1861   5.453   3.769   4.560
   14SAPS  H18Z 1862   5.330   3.634   4.537
   15SAPS     N 1863   4.123   3.768   2.313
   15SAPS   HN1 1864   4.194   3.701   2.350
   15SAPS   HN2 1865   4.156   3.865   2.293
   15SAPS   HN3 1866   4.038   3.775   2.373
   15SAPS   C12 1867   4.091   3.695   2.181
   15SAPS  H12A 1868   3.993   3.733   2.155
   15SAPS   C13 1869   4.183   3.756   2.063
   15SAPS  O13A 1870   4.265   3.850   2.085
   15SAPS  O13B 1871   4.165   3.702   1.947
   15SAPS   C11 1872   4.118   3.544   2.190
   15SAPS  H11A 1873   4.225   3.520   2.206
   15SAPS  H11B 1874   4.082   3.500   2.095
   15SAPS     P 1875   4.003   3.343   2.321
   15SAPS   O13 1876   3.895   3.320   2.222
   15SAPS   O14 1877   4.130   3.271   2.303
   15SAPS   O12 1878   4.038   3.494   2.311
   15SAPS   O11 1879   3.949   3.317   2.466
   15SAPS    C1 1880   3.833   3.388   2.503
   15SAPS    HA 1881   3.758   3.397   2.422
   15SAPS    HB 1882   3.780   3.316   2.569
   15SAPS    C2 1883   3.864   3.518   2.572
   15SAPS    HS 1884   3.940   3.575   2.513
   15SAPS   O21 1885   3.905   3.498   2.711
   15SAPS   C21 1886   4.031   3.526   2.732
   15SAPS   O22 1887   4.095   3.603   2.662
   15SAPS   C22 1888   4.072   3.458   2.864
   15SAPS   H2R 1889   4.014   3.364   2.872
   15SAPS   H2S 1890   4.181   3.437   2.866
   15SAPS    C3 1891   3.747   3.617   2.573
   15SAPS    HX 1892   3.667   3.562   2.626
   15SAPS    HY 1893   3.735   3.646   2.466
   15SAPS   O31 1894   3.778   3.739   2.647
   15SAPS   C31 1895   3.847   3.831   2.582
   15SAPS   O32 1896   3.894   3.819   2.470
   15SAPS   C32 1897   3.870   3.956   2.669
   15SAPS   H2X 1898   3.777   4.015   2.682
   15SAPS   H2Y 1899   3.954   4.017   2.630
   15SAPS   C23 1900   4.047   3.546   2.991
   15SAPS   H3R 1901   4.032   3.480   3.079
   15SAPS   H3S 1902   3.951   3.602   2.987
   15SAPS   C24 1903   4.169   3.631   3.030
   15SAPS   H4R 1904   4.211   3.686   2.944
   15SAPS   H4S 1905   4.254   3.560   3.037
   15SAPS   C25 1906   4.129   3.712   3.144
   15SAPS   H5R 1907   4.048   3.784   3.125
   15SAPS   C26 1908   4.180   3.704   3.268
   15SAPS   H6R 1909   4.147   3.774   3.347
   15SAPS   C27 1910   4.292   3.616   3.319
   15SAPS   H7R 1911   4.331   3.546   3.242
   15SAPS   H7S 1912   4.256   3.549   3.400
   15SAPS   C28 1913   4.413   3.702   3.359
   15SAPS   H8R 1914   4.463   3.752   3.275
   15SAPS   C29 1915   4.450   3.721   3.486
   15SAPS   H9R 1916   4.534   3.790   3.505
   15SAPS  C210 1917   4.401   3.673   3.617
   15SAPS  H10R 1918   4.490   3.661   3.683
   15SAPS  H10S 1919   4.374   3.565   3.607
   15SAPS  C211 1920   4.296   3.749   3.683
   15SAPS  H11R 1921   4.237   3.812   3.615
   15SAPS  C212 1922   4.263   3.759   3.813
   15SAPS  H12R 1923   4.210   3.855   3.827
   15SAPS  C213 1924   4.331   3.681   3.925
   15SAPS  H13R 1925   4.358   3.580   3.889
   15SAPS  H13S 1926   4.259   3.689   4.009
   15SAPS  C214 1927   4.459   3.745   3.970
   15SAPS  H14R 1928   4.541   3.748   3.898
   15SAPS  C215 1929   4.494   3.786   4.096
   15SAPS  H15R 1930   4.597   3.815   4.121
   15SAPS  C216 1931   4.407   3.782   4.222
   15SAPS  H16R 1932   4.464   3.763   4.316
   15SAPS  H16S 1933   4.331   3.701   4.224
   15SAPS  C217 1934   4.308   3.909   4.238
   15SAPS  H17R 1935   4.242   3.930   4.151
   15SAPS  H17S 1936   4.376   3.998   4.238
   15SAPS  C218 1937   4.219   3.898   4.357
   15SAPS  H18R 1938   4.282   3.867   4.443
   15SAPS  H18S 1939   4.154   3.808   4.349
   15SAPS  C219 1940   4.168   4.038   4.384
   15SAPS  H19R 1941   4.137   4.098   4.295
   15SAPS  H19S 1942   4.255   4.098   4.419
   15SAPS  C220 1943   4.074   4.049   4.501
   15SAPS  H20R 1944   3.978   3.999   4.475
   15SAPS  H20S 1945   4.054   4.157   4.519
   15SAPS  H20T 1946   4.121   4.017   4.596
   15SAPS   C33 1947   3.934   3.921   2.806
   15SAPS   H3X 1948   4.045   3.924   2.814
   15SAPS   H3Y 1949   3.895   3.827   2.850
   15SAPS   C34 1950   3.872   4.033   2.901
   15SAPS   H4X 1951   3.764   4.010   2.908
   15SAPS   H4Y 1952   3.883   4.132   2.853
   15SAPS   C35 1953   3.934   4.047   3.039
   15SAPS   H5X 1954   4.045   4.050   3.035
   15SAPS   H5Y 1955   3.917   3.950   3.092
   15SAPS   C36 1956   3.871   4.159   3.119
   15SAPS   H6X 1957   3.760   4.155   3.122
   15SAPS   H6Y 1958   3.894   4.258   3.075
   15SAPS   C37 1959   3.917   4.162   3.269
   15SAPS   H7X 1960   3.853   4.241   3.314
   15SAPS   H7Y 1961   4.024   4.191   3.272
   15SAPS   C38 1962   3.909   4.028   3.339
   15SAPS   H8X 1963   4.000   3.969   3.313
   15SAPS   H8Y 1964   3.822   3.977   3.291
   15SAPS   C39 1965   3.874   4.040   3.486
   15SAPS   H9X 1966   3.805   3.956   3.508
   15SAPS   H9Y 1967   3.825   4.133   3.523
   15SAPS  C310 1968   4.006   4.028   3.570
   15SAPS  H10X 1969   4.083   4.104   3.544
   15SAPS  H10Y 1970   4.048   3.931   3.534
   15SAPS  C311 1971   3.961   4.020   3.716
   15SAPS  H11X 1972   4.016   3.957   3.789
   15SAPS  H11Y 1973   3.864   3.969   3.731
   15SAPS  C312 1974   3.965   4.151   3.792
   15SAPS  H12X 1975   3.892   4.223   3.749
   15SAPS  H12Y 1976   4.068   4.192   3.795
   15SAPS  C313 1977   3.934   4.129   3.944
   15SAPS  H13X 1978   4.006   4.060   3.993
   15SAPS  H13Y 1979   3.832   4.084   3.951
   15SAPS  C314 1980   3.926   4.257   4.016
   15SAPS  H14X 1981   3.874   4.344   3.971
   15SAPS  H14Y 1982   4.030   4.296   4.025
   15SAPS  C315 1983   3.887   4.223   4.156
   15SAPS  H15X 1984   3.912   4.309   4.222
   15SAPS  H15Y 1985   3.936   4.127   4.183
   15SAPS  C316 1986   3.733   4.209   4.165
   15SAPS  H16X 1987   3.698   4.115   4.117
   15SAPS  H16Y 1988   3.691   4.292   4.105
   15SAPS  C317 1989   3.693   4.214   4.311
   15SAPS  H17X 1990   3.745   4.296   4.366
   15SAPS  H17Y 1991   3.733   4.120   4.354
   15SAPS  C318 1992   3.544   4.226   4.325
   15SAPS  H18X 1993   3.529   4.224   4.435
   15SAPS  H18Y 1994   3.488   4.145   4.274
   15SAPS  H18Z 1995   3.511   4.322   4.278
   16SAPS     N 1996   5.346   3.836   2.213
   16SAPS   HN1 1997   5.325   3.736   2.234
   16SAPS   HN2 1998   5.425   3.863   2.274
   16SAPS   HN3 1999   5.258   3.886   2.239
   16SAPS   C12 2000   5.384   3.879   2.075
   16SAPS  H12A 2001   5.461   3.814   2.037
   16SAPS   C13 2002   5.265   3.893   1.967
   16SAPS  O13A 2003   5.159   3.849   2.011
   16SAPS  O13B 2004   5.273   3.977   1.875
   16SAPS   C11 2005   5.444   4.020   2.092
   16SAPS  H11A 2006   5.363   4.086   2.130
   16SAPS  H11B 2007   5.469   4.056   1.990
   16SAPS     P 2008   5.638   4.167   2.177
   16SAPS   O13 2009   5.763   4.154   2.255
   16SAPS   O14 2010   5.666   4.202   2.035
   16SAPS   O12 2011   5.557   4.031   2.175
   16SAPS   O11 2012   5.538   4.264   2.253
   16SAPS    C1 2013   5.502   4.235   2.390
   16SAPS    HA 2014   5.404   4.283   2.411
   16SAPS    HB 2015   5.485   4.126   2.405
   16SAPS    C2 2016   5.607   4.301   2.490
   16SAPS    HS 2017   5.704   4.258   2.455
   16SAPS   O21 2018   5.580   4.284   2.633
   16SAPS   C21 2019   5.607   4.158   2.656
   16SAPS   O22 2020   5.666   4.085   2.579
   16SAPS   C22 2021   5.571   4.131   2.807
   16SAPS   H2R 2022   5.634   4.200   2.867
   16SAPS   H2S 2023   5.468   4.168   2.824
   16SAPS    C3 2024   5.609   4.451   2.454
   16SAPS    HX 2025   5.502   4.480   2.457
   16SAPS    HY 2026   5.654   4.477   2.356
   16SAPS   O31 2027   5.681   4.529   2.558
   16SAPS   C31 2028   5.813   4.512   2.577
   16SAPS   O32 2029   5.873   4.426   2.519
   16SAPS   C32 2030   5.864   4.603   2.681
   16SAPS   H2X 2031   5.850   4.707   2.645
   16SAPS   H2Y 2032   5.972   4.581   2.686
   16SAPS   C23 2033   5.595   3.986   2.862
   16SAPS   H3R 2034   5.704   3.965   2.853
   16SAPS   H3S 2035   5.546   3.913   2.794
   16SAPS   C24 2036   5.551   3.981   3.012
   16SAPS   H4R 2037   5.586   4.074   3.062
   16SAPS   H4S 2038   5.598   3.893   3.061
   16SAPS   C25 2039   5.402   3.968   3.018
   16SAPS   H5R 2040   5.362   3.935   2.921
   16SAPS   C26 2041   5.314   3.980   3.121
   16SAPS   H6R 2042   5.208   3.971   3.095
   16SAPS   C27 2043   5.361   4.019   3.260
   16SAPS   H7R 2044   5.265   4.035   3.314
   16SAPS   H7S 2045   5.420   4.113   3.262
   16SAPS   C28 2046   5.442   3.918   3.336
   16SAPS   H8R 2047   5.456   3.815   3.299
   16SAPS   C29 2048   5.504   3.943   3.458
   16SAPS   H9R 2049   5.568   3.857   3.482
   16SAPS  C210 2050   5.507   4.071   3.536
   16SAPS  H10R 2051   5.508   4.156   3.463
   16SAPS  H10S 2052   5.595   4.083   3.602
   16SAPS  C211 2053   5.381   4.077   3.616
   16SAPS  H11R 2054   5.292   4.031   3.571
   16SAPS  C212 2055   5.365   4.112   3.745
   16SAPS  H12R 2056   5.266   4.113   3.793
   16SAPS  C213 2057   5.475   4.170   3.830
   16SAPS  H13R 2058   5.443   4.252   3.897
   16SAPS  H13S 2059   5.545   4.222   3.761
   16SAPS  C214 2060   5.550   4.068   3.905
   16SAPS  H14R 2061   5.617   4.003   3.847
   16SAPS  C215 2062   5.548   4.044   4.035
   16SAPS  H15R 2063   5.607   3.957   4.067
   16SAPS  C216 2064   5.476   4.113   4.144
   16SAPS  H16R 2065   5.417   4.047   4.211
   16SAPS  H16S 2066   5.400   4.181   4.099
   16SAPS  C217 2067   5.568   4.212   4.223
   16SAPS  H17R 2068   5.498   4.274   4.282
   16SAPS  H17S 2069   5.632   4.279   4.162
   16SAPS  C218 2070   5.676   4.133   4.291
   16SAPS  H18R 2071   5.737   4.076   4.218
   16SAPS  H18S 2072   5.634   4.045   4.346
   16SAPS  C219 2073   5.763   4.208   4.387
   16SAPS  H19R 2074   5.721   4.308   4.408
   16SAPS  H19S 2075   5.853   4.232   4.327
   16SAPS  C220 2076   5.779   4.130   4.519
   16SAPS  H20R 2077   5.823   4.200   4.593
   16SAPS  H20S 2078   5.850   4.045   4.509
   16SAPS  H20T 2079   5.676   4.111   4.556
   16SAPS   C33 2080   5.789   4.574   2.814
   16SAPS   H3X 2081   5.681   4.599   2.802
   16SAPS   H3Y 2082   5.825   4.634   2.900
   16SAPS   C34 2083   5.810   4.433   2.867
   16SAPS   H4X 2084   5.765   4.355   2.802
   16SAPS   H4Y 2085   5.749   4.423   2.959
   16SAPS   C35 2086   5.955   4.389   2.894
   16SAPS   H5X 2087   5.995   4.437   2.986
   16SAPS   H5Y 2088   6.004   4.415   2.798
   16SAPS   C36 2089   5.955   4.232   2.919
   16SAPS   H6X 2090   6.065   4.216   2.931
   16SAPS   H6Y 2091   5.920   4.173   2.832
   16SAPS   C37 2092   5.870   4.176   3.039
   16SAPS   H7X 2093   5.884   4.067   3.027
   16SAPS   H7Y 2094   5.769   4.217   3.021
   16SAPS   C38 2095   5.921   4.227   3.177
   16SAPS   H8X 2096   6.022   4.268   3.159
   16SAPS   H8Y 2097   5.922   4.137   3.243
   16SAPS   C39 2098   5.831   4.332   3.245
   16SAPS   H9X 2099   5.734   4.279   3.256
   16SAPS   H9Y 2100   5.823   4.416   3.173
   16SAPS  C310 2101   5.898   4.364   3.374
   16SAPS  H10X 2102   5.995   4.416   3.358
   16SAPS  H10Y 2103   5.908   4.271   3.435
   16SAPS  C311 2104   5.808   4.458   3.466
   16SAPS  H11X 2105   5.710   4.408   3.477
   16SAPS  H11Y 2106   5.806   4.559   3.422
   16SAPS  C312 2107   5.875   4.482   3.607
   16SAPS  H12X 2108   5.814   4.562   3.653
   16SAPS  H12Y 2109   5.978   4.519   3.591
   16SAPS  C313 2110   5.871   4.366   3.705
   16SAPS  H13X 2111   5.915   4.273   3.663
   16SAPS  H13Y 2112   5.766   4.343   3.734
   16SAPS  C314 2113   5.939   4.389   3.838
   16SAPS  H14X 2114   5.897   4.472   3.898
   16SAPS  H14Y 2115   6.044   4.415   3.812
   16SAPS  C315 2116   5.946   4.258   3.919
   16SAPS  H15X 2117   5.986   4.184   3.847
   16SAPS  H15Y 2118   5.843   4.225   3.946
   16SAPS  C316 2119   6.037   4.253   4.049
   16SAPS  H16X 2120   6.006   4.162   4.105
   16SAPS  H16Y 2121   6.007   4.337   4.114
   16SAPS  C317 2122   6.187   4.246   4.029
   16SAPS  H17X 2123   6.226   4.322   3.958
   16SAPS  H17Y 2124   6.213   4.146   3.989
   16SAPS  C318 2125   6.263   4.266   4.164
   16SAPS  H18X 2126   6.370   4.254   4.139
   16SAPS  H18Y 2127   6.240   4.192   4.244
   16SAPS  H18Z 2128   6.248   4.370   4.199
   17SAPS     N 2129   1.078   1.307   1.976
   17SAPS   HN1 2130   0.994   1.351   2.019
   17SAPS   HN2 2131   1.046   1.210   1.961
   17SAPS   HN3 2132   1.165   1.315   2.032
   17SAPS   C12 2133   1.100   1.360   1.832
   17SAPS  H12A 2134   1.169   1.292   1.783
   17SAPS   C13 2135   0.981   1.354   1.736
   17SAPS  O13A 2136   0.869   1.318   1.772
   17SAPS  O13B 2137   0.999   1.397   1.617
   17SAPS   C11 2138   1.137   1.513   1.834
   17SAPS  H11A 2139   1.051   1.568   1.878
   17SAPS  H11B 2140   1.145   1.537   1.726
   17SAPS     P 2141   1.312   1.683   1.921
   17SAPS   O13 2142   1.423   1.689   1.816
   17SAPS   O14 2143   1.210   1.790   1.913
   17SAPS   O12 2144   1.259   1.535   1.914
   17SAPS   O11 2145   1.372   1.671   2.064
   17SAPS    C1 2146   1.441   1.786   2.106
   17SAPS    HA 2147   1.542   1.756   2.141
   17SAPS    HB 2148   1.441   1.872   2.037
   17SAPS    C2 2149   1.375   1.837   2.237
   17SAPS    HS 2150   1.412   1.938   2.264
   17SAPS   O21 2151   1.399   1.743   2.337
   17SAPS   C21 2152   1.511   1.756   2.403
   17SAPS   O22 2153   1.599   1.841   2.380
   17SAPS   C22 2154   1.513   1.651   2.515
   17SAPS   H2R 2155   1.424   1.585   2.515
   17SAPS   H2S 2156   1.599   1.582   2.503
   17SAPS    C3 2157   1.219   1.855   2.235
   17SAPS    HX 2158   1.178   1.756   2.204
   17SAPS    HY 2159   1.190   1.924   2.153
   17SAPS   O31 2160   1.156   1.886   2.362
   17SAPS   C31 2161   1.100   2.008   2.369
   17SAPS   O32 2162   1.091   2.089   2.278
   17SAPS   C32 2163   1.020   2.027   2.499
   17SAPS   H2X 2164   1.037   1.946   2.574
   17SAPS   H2Y 2165   0.912   2.018   2.473
   17SAPS   C23 2166   1.525   1.724   2.647
   17SAPS   H3R 2167   1.608   1.797   2.643
   17SAPS   H3S 2168   1.544   1.649   2.727
   17SAPS   C24 2169   1.399   1.805   2.695
   17SAPS   H4R 2170   1.361   1.868   2.612
   17SAPS   H4S 2171   1.413   1.869   2.785
   17SAPS   C25 2172   1.295   1.706   2.730
   17SAPS   H5R 2173   1.272   1.627   2.658
   17SAPS   C26 2174   1.235   1.701   2.852
   17SAPS   H6R 2175   1.165   1.619   2.870
   17SAPS   C27 2176   1.275   1.786   2.972
   17SAPS   H7R 2177   1.385   1.793   2.982
   17SAPS   H7S 2178   1.237   1.734   3.063
   17SAPS   C28 2179   1.226   1.933   2.963
   17SAPS   H8R 2180   1.226   1.982   2.864
   17SAPS   C29 2181   1.190   2.003   3.069
   17SAPS   H9R 2182   1.177   2.112   3.065
   17SAPS  C210 2183   1.173   1.954   3.210
   17SAPS  H10R 2184   1.110   1.863   3.205
   17SAPS  H10S 2185   1.119   2.033   3.267
   17SAPS  C211 2186   1.290   1.921   3.298
   17SAPS  H11R 2187   1.391   1.930   3.256
   17SAPS  C212 2188   1.291   1.886   3.428
   17SAPS  H12R 2189   1.379   1.858   3.487
   17SAPS  C213 2190   1.166   1.887   3.516
   17SAPS  H13R 2191   1.086   1.837   3.458
   17SAPS  H13S 2192   1.127   1.990   3.527
   17SAPS  C214 2193   1.183   1.810   3.648
   17SAPS  H14R 2194   1.195   1.876   3.735
   17SAPS  C215 2195   1.186   1.674   3.663
   17SAPS  H15R 2196   1.215   1.620   3.754
   17SAPS  C216 2197   1.184   1.579   3.541
   17SAPS  H16R 2198   1.253   1.495   3.564
   17SAPS  H16S 2199   1.216   1.631   3.448
   17SAPS  C217 2200   1.044   1.518   3.517
   17SAPS  H17R 2201   0.986   1.610   3.492
   17SAPS  H17S 2202   1.015   1.474   3.615
   17SAPS  C218 2203   1.031   1.412   3.403
   17SAPS  H18R 2204   0.927   1.373   3.401
   17SAPS  H18S 2205   1.107   1.336   3.429
   17SAPS  C219 2206   1.051   1.459   3.252
   17SAPS  H19R 2207   1.149   1.511   3.244
   17SAPS  H19S 2208   0.976   1.532   3.216
   17SAPS  C220 2209   1.066   1.345   3.156
   17SAPS  H20R 2210   1.144   1.277   3.197
   17SAPS  H20S 2211   1.094   1.382   3.055
   17SAPS  H20T 2212   0.973   1.285   3.143
   17SAPS   C33 2213   1.044   2.164   2.572
   17SAPS   H3X 2214   1.001   2.246   2.510
   17SAPS   H3Y 2215   1.152   2.188   2.561
   17SAPS   C34 2216   1.006   2.157   2.717
   17SAPS   H4X 2217   1.087   2.199   2.779
   17SAPS   H4Y 2218   0.995   2.049   2.742
   17SAPS   C35 2219   0.871   2.229   2.753
   17SAPS   H5X 2220   0.798   2.194   2.677
   17SAPS   H5Y 2221   0.876   2.339   2.741
   17SAPS   C36 2222   0.819   2.177   2.887
   17SAPS   H6X 2223   0.828   2.068   2.909
   17SAPS   H6Y 2224   0.713   2.206   2.899
   17SAPS   C37 2225   0.883   2.254   3.010
   17SAPS   H7X 2226   0.838   2.355   3.011
   17SAPS   H7Y 2227   0.993   2.254   2.990
   17SAPS   C38 2228   0.858   2.195   3.151
   17SAPS   H8X 2229   0.916   2.100   3.157
   17SAPS   H8Y 2230   0.750   2.174   3.162
   17SAPS   C39 2231   0.918   2.296   3.256
   17SAPS   H9X 2232   0.839   2.374   3.257
   17SAPS   H9Y 2233   1.016   2.341   3.230
   17SAPS  C310 2234   0.924   2.230   3.393
   17SAPS  H10X 2235   0.989   2.140   3.393
   17SAPS  H10Y 2236   0.822   2.203   3.427
   17SAPS  C311 2237   0.990   2.332   3.499
   17SAPS  H11X 2238   0.939   2.426   3.469
   17SAPS  H11Y 2239   1.100   2.324   3.484
   17SAPS  C312 2240   0.953   2.311   3.649
   17SAPS  H12X 2241   0.853   2.357   3.663
   17SAPS  H12Y 2242   1.025   2.376   3.703
   17SAPS  C313 2243   0.951   2.173   3.708
   17SAPS  H13X 2244   1.015   2.109   3.644
   17SAPS  H13Y 2245   0.852   2.129   3.686
   17SAPS  C314 2246   0.998   2.157   3.855
   17SAPS  H14X 2247   0.926   2.218   3.913
   17SAPS  H14Y 2248   1.103   2.195   3.856
   17SAPS  C315 2249   0.981   2.019   3.921
   17SAPS  H15X 2250   1.039   1.944   3.863
   17SAPS  H15Y 2251   0.873   1.997   3.907
   17SAPS  C316 2252   1.014   2.007   4.069
   17SAPS  H16X 2253   0.982   1.907   4.104
   17SAPS  H16Y 2254   0.951   2.080   4.125
   17SAPS  C317 2255   1.160   2.029   4.102
   17SAPS  H17X 2256   1.192   2.134   4.084
   17SAPS  H17Y 2257   1.222   1.966   4.035
   17SAPS  C318 2258   1.183   1.999   4.251
   17SAPS  H18X 2259   1.176   1.891   4.273
   17SAPS  H18Y 2260   1.105   2.050   4.312
   17SAPS  H18Z 2261   1.285   2.026   4.287
   18SAPS     N 2262   3.925   2.176   2.654
   18SAPS   HN1 2263   3.998   2.118   2.700
   18SAPS   HN2 2264   3.976   2.254   2.608
   18SAPS   HN3 2265   3.851   2.202   2.723
   18SAPS   C12 2266   3.862   2.105   2.538
   18SAPS  H12A 2267   3.948   2.066   2.486
   18SAPS   C13 2268   3.775   1.989   2.571
   18SAPS  O13A 2269   3.755   1.960   2.699
   18SAPS  O13B 2270   3.735   1.911   2.480
   18SAPS   C11 2271   3.771   2.199   2.450
   18SAPS  H11A 2272   3.707   2.236   2.532
   18SAPS  H11B 2273   3.711   2.152   2.369
   18SAPS     P 2274   3.802   2.422   2.316
   18SAPS   O13 2275   3.902   2.473   2.223
   18SAPS   O14 2276   3.665   2.397   2.270
   18SAPS   O12 2277   3.859   2.302   2.398
   18SAPS   O11 2278   3.803   2.531   2.428
   18SAPS    C1 2279   3.911   2.593   2.490
   18SAPS    HA 2280   4.012   2.576   2.449
   18SAPS    HB 2281   3.900   2.703   2.488
   18SAPS    C2 2282   3.916   2.553   2.644
   18SAPS    HS 2283   3.938   2.445   2.647
   18SAPS   O21 2284   3.786   2.577   2.701
   18SAPS   C21 2285   3.720   2.475   2.755
   18SAPS   O22 2286   3.758   2.360   2.772
   18SAPS   C22 2287   3.582   2.524   2.789
   18SAPS   H2R 2288   3.542   2.571   2.696
   18SAPS   H2S 2289   3.525   2.432   2.813
   18SAPS    C3 2290   4.023   2.639   2.715
   18SAPS    HX 2291   3.984   2.742   2.720
   18SAPS    HY 2292   4.120   2.655   2.663
   18SAPS   O31 2293   4.031   2.588   2.848
   18SAPS   C31 2294   4.119   2.655   2.930
   18SAPS   O32 2295   4.183   2.755   2.897
   18SAPS   C32 2296   4.111   2.594   3.071
   18SAPS   H2X 2297   4.204   2.623   3.125
   18SAPS   H2Y 2298   4.103   2.484   3.065
   18SAPS   C23 2299   3.575   2.637   2.897
   18SAPS   H3R 2300   3.496   2.706   2.862
   18SAPS   H3S 2301   3.678   2.678   2.895
   18SAPS   C24 2302   3.544   2.592   3.039
   18SAPS   H4R 2303   3.634   2.541   3.079
   18SAPS   H4S 2304   3.459   2.521   3.035
   18SAPS   C25 2305   3.517   2.706   3.132
   18SAPS   H5R 2306   3.526   2.809   3.093
   18SAPS   C26 2307   3.478   2.680   3.254
   18SAPS   H6R 2308   3.464   2.771   3.315
   18SAPS   C27 2309   3.471   2.544   3.319
   18SAPS   H7R 2310   3.549   2.476   3.279
   18SAPS   H7S 2311   3.369   2.508   3.295
   18SAPS   C28 2312   3.494   2.543   3.464
   18SAPS   H8R 2313   3.594   2.509   3.494
   18SAPS   C29 2314   3.412   2.598   3.555
   18SAPS   H9R 2315   3.448   2.588   3.658
   18SAPS  C210 2316   3.274   2.655   3.544
   18SAPS  H10R 2317   3.203   2.570   3.553
   18SAPS  H10S 2318   3.264   2.696   3.441
   18SAPS  C211 2319   3.225   2.767   3.643
   18SAPS  H11R 2320   3.199   2.859   3.589
   18SAPS  C212 2321   3.202   2.767   3.775
   18SAPS  H12R 2322   3.161   2.861   3.813
   18SAPS  C213 2323   3.234   2.653   3.872
   18SAPS  H13R 2324   3.343   2.632   3.869
   18SAPS  H13S 2325   3.181   2.558   3.848
   18SAPS  C214 2326   3.182   2.673   4.010
   18SAPS  H14R 2327   3.080   2.714   4.008
   18SAPS  C215 2328   3.232   2.643   4.129
   18SAPS  H15R 2329   3.179   2.661   4.224
   18SAPS  C216 2330   3.367   2.577   4.147
   18SAPS  H16R 2331   3.438   2.635   4.211
   18SAPS  H16S 2332   3.407   2.541   4.050
   18SAPS  C217 2333   3.346   2.445   4.225
   18SAPS  H17R 2334   3.448   2.400   4.224
   18SAPS  H17S 2335   3.282   2.372   4.170
   18SAPS  C218 2336   3.311   2.467   4.376
   18SAPS  H18R 2337   3.242   2.383   4.399
   18SAPS  H18S 2338   3.256   2.562   4.398
   18SAPS  C219 2339   3.427   2.454   4.468
   18SAPS  H19R 2340   3.462   2.557   4.493
   18SAPS  H19S 2341   3.508   2.399   4.416
   18SAPS  C220 2342   3.393   2.399   4.611
   18SAPS  H20R 2343   3.347   2.482   4.670
   18SAPS  H20S 2344   3.483   2.363   4.666
   18SAPS  H20T 2345   3.322   2.316   4.595
   18SAPS   C33 2346   3.984   2.664   3.140
   18SAPS   H3X 2347   3.892   2.647   3.081
   18SAPS   H3Y 2348   3.999   2.774   3.144
   18SAPS   C34 2349   3.982   2.600   3.278
   18SAPS   H4X 2350   4.082   2.620   3.321
   18SAPS   H4Y 2351   3.957   2.493   3.268
   18SAPS   C35 2352   3.878   2.668   3.368
   18SAPS   H5X 2353   3.779   2.659   3.317
   18SAPS   H5Y 2354   3.913   2.771   3.390
   18SAPS   C36 2355   3.863   2.598   3.505
   18SAPS   H6X 2356   3.965   2.576   3.541
   18SAPS   H6Y 2357   3.818   2.498   3.486
   18SAPS   C37 2358   3.788   2.676   3.611
   18SAPS   H7X 2359   3.691   2.696   3.561
   18SAPS   H7Y 2360   3.836   2.774   3.635
   18SAPS   C38 2361   3.767   2.607   3.751
   18SAPS   H8X 2362   3.872   2.580   3.776
   18SAPS   H8Y 2363   3.719   2.509   3.729
   18SAPS   C39 2364   3.700   2.691   3.850
   18SAPS   H9X 2365   3.606   2.734   3.810
   18SAPS   H9Y 2366   3.757   2.786   3.863
   18SAPS  C310 2367   3.678   2.616   3.982
   18SAPS  H10X 2368   3.647   2.515   3.949
   18SAPS  H10Y 2369   3.599   2.672   4.035
   18SAPS  C311 2370   3.803   2.626   4.071
   18SAPS  H11X 2371   3.850   2.726   4.070
   18SAPS  H11Y 2372   3.881   2.555   4.035
   18SAPS  C312 2373   3.772   2.577   4.213
   18SAPS  H12X 2374   3.733   2.473   4.205
   18SAPS  H12Y 2375   3.684   2.641   4.236
   18SAPS  C313 2376   3.886   2.585   4.306
   18SAPS  H13X 2377   3.900   2.695   4.320
   18SAPS  H13Y 2378   3.977   2.534   4.270
   18SAPS  C314 2379   3.862   2.539   4.452
   18SAPS  H14X 2380   3.809   2.441   4.457
   18SAPS  H14Y 2381   3.797   2.622   4.487
   18SAPS  C315 2382   3.988   2.550   4.539
   18SAPS  H15X 2383   4.034   2.650   4.524
   18SAPS  H15Y 2384   4.055   2.472   4.498
   18SAPS  C316 2385   3.966   2.528   4.690
   18SAPS  H16X 2386   3.910   2.435   4.714
   18SAPS  H16Y 2387   3.905   2.613   4.726
   18SAPS  C317 2388   4.085   2.529   4.785
   18SAPS  H17X 2389   4.150   2.445   4.751
   18SAPS  H17Y 2390   4.071   2.500   4.891
   18SAPS  C318 2391   4.178   2.654   4.788
   18SAPS  H18X 2392   4.117   2.734   4.835
   18SAPS  H18Y 2393   4.216   2.686   4.689
   18SAPS  H18Z 2394   4.271   2.624   4.841
   19SAPS     N 2395   3.518   4.721   1.852
   19SAPS   HN1 2396   3.481   4.815   1.828
   19SAPS   HN2 2397   3.435   4.658   1.863
   19SAPS   HN3 2398   3.561   4.738   1.945
   19SAPS   C12 2399   3.612   4.661   1.761
   19SAPS  H12A 2400   3.648   4.571   1.809
   19SAPS   C13 2401   3.557   4.607   1.626
   19SAPS  O13A 2402   3.438   4.630   1.587
   19SAPS  O13B 2403   3.638   4.545   1.557
   19SAPS   C11 2404   3.736   4.753   1.737
   19SAPS  H11A 2405   3.693   4.847   1.697
   19SAPS  H11B 2406   3.794   4.715   1.650
   19SAPS     P 2407   3.960   4.847   1.845
   19SAPS   O13 2408   4.051   4.760   1.764
   19SAPS   O14 2409   3.932   4.983   1.800
   19SAPS   O12 2410   3.821   4.781   1.848
   19SAPS   O11 2411   3.999   4.847   1.995
   19SAPS    C1 2412   4.019   4.718   2.053
   19SAPS    HA 2413   3.931   4.652   2.036
   19SAPS    HB 2414   4.105   4.664   2.008
   19SAPS    C2 2415   4.035   4.728   2.209
   19SAPS    HS 2416   4.088   4.637   2.246
   19SAPS   O21 2417   3.913   4.726   2.279
   19SAPS   C21 2418   3.921   4.710   2.410
   19SAPS   O22 2419   4.011   4.669   2.479
   19SAPS   C22 2420   3.777   4.740   2.462
   19SAPS   H2R 2421   3.735   4.836   2.425
   19SAPS   H2S 2422   3.711   4.661   2.419
   19SAPS    C3 2423   4.129   4.850   2.241
   19SAPS    HX 2424   4.061   4.937   2.228
   19SAPS    HY 2425   4.203   4.857   2.159
   19SAPS   O31 2426   4.183   4.862   2.367
   19SAPS   C31 2427   4.299   4.811   2.378
   19SAPS   O32 2428   4.367   4.769   2.286
   19SAPS   C32 2429   4.343   4.817   2.530
   19SAPS   H2X 2430   4.293   4.727   2.573
   19SAPS   H2Y 2431   4.294   4.910   2.566
   19SAPS   C23 2432   3.749   4.723   2.613
   19SAPS   H3R 2433   3.813   4.643   2.655
   19SAPS   H3S 2434   3.646   4.683   2.627
   19SAPS   C24 2435   3.773   4.842   2.704
   19SAPS   H4R 2436   3.874   4.878   2.678
   19SAPS   H4S 2437   3.772   4.809   2.810
   19SAPS   C25 2438   3.682   4.964   2.681
   19SAPS   H5R 2439   3.688   5.013   2.583
   19SAPS   C26 2440   3.581   5.014   2.755
   19SAPS   H6R 2441   3.539   5.108   2.716
   19SAPS   C27 2442   3.535   4.971   2.889
   19SAPS   H7R 2443   3.620   4.925   2.945
   19SAPS   H7S 2444   3.466   4.883   2.887
   19SAPS   C28 2445   3.463   5.077   2.971
   19SAPS   H8R 2446   3.418   5.156   2.909
   19SAPS   C29 2447   3.457   5.087   3.103
   19SAPS   H9R 2448   3.399   5.172   3.141
   19SAPS  C210 2449   3.510   4.998   3.206
   19SAPS  H10R 2450   3.543   5.063   3.291
   19SAPS  H10S 2451   3.597   4.942   3.167
   19SAPS  C211 2452   3.400   4.900   3.237
   19SAPS  H11R 2453   3.371   4.837   3.152
   19SAPS  C212 2454   3.337   4.882   3.356
   19SAPS  H12R 2455   3.261   4.803   3.363
   19SAPS  C213 2456   3.382   4.951   3.477
   19SAPS  H13R 2457   3.297   4.949   3.549
   19SAPS  H13S 2458   3.419   5.053   3.454
   19SAPS  C214 2459   3.500   4.876   3.540
   19SAPS  H14R 2460   3.535   4.781   3.496
   19SAPS  C215 2461   3.576   4.924   3.640
   19SAPS  H15R 2462   3.660   4.867   3.682
   19SAPS  C216 2463   3.569   5.054   3.706
   19SAPS  H16R 2464   3.521   5.129   3.640
   19SAPS  H16S 2465   3.672   5.090   3.729
   19SAPS  C217 2466   3.503   5.045   3.847
   19SAPS  H17R 2467   3.573   4.987   3.912
   19SAPS  H17S 2468   3.406   4.991   3.846
   19SAPS  C218 2469   3.477   5.178   3.915
   19SAPS  H18R 2470   3.412   5.235   3.845
   19SAPS  H18S 2471   3.570   5.239   3.912
   19SAPS  C219 2472   3.442   5.169   4.065
   19SAPS  H19R 2473   3.336   5.136   4.069
   19SAPS  H19S 2474   3.453   5.265   4.120
   19SAPS  C220 2475   3.523   5.075   4.160
   19SAPS  H20R 2476   3.516   4.972   4.117
   19SAPS  H20S 2477   3.494   5.082   4.267
   19SAPS  H20T 2478   3.629   5.106   4.157
   19SAPS   C33 2479   4.496   4.817   2.538
   19SAPS   H3X 2480   4.547   4.898   2.481
   19SAPS   H3Y 2481   4.527   4.721   2.490
   19SAPS   C34 2482   4.548   4.819   2.681
   19SAPS   H4X 2483   4.648   4.770   2.680
   19SAPS   H4Y 2484   4.479   4.755   2.741
   19SAPS   C35 2485   4.567   4.955   2.743
   19SAPS   H5X 2486   4.474   5.015   2.734
   19SAPS   H5Y 2487   4.649   5.001   2.683
   19SAPS   C36 2488   4.603   4.949   2.891
   19SAPS   H6X 2489   4.709   4.930   2.917
   19SAPS   H6Y 2490   4.541   4.870   2.938
   19SAPS   C37 2491   4.596   5.088   2.959
   19SAPS   H7X 2492   4.491   5.088   2.996
   19SAPS   H7Y 2493   4.621   5.173   2.892
   19SAPS   C38 2494   4.669   5.109   3.088
   19SAPS   H8X 2495   4.697   5.215   3.101
   19SAPS   H8Y 2496   4.757   5.042   3.102
   19SAPS   C39 2497   4.581   5.068   3.213
   19SAPS   H9X 2498   4.526   4.975   3.189
   19SAPS   H9Y 2499   4.514   5.157   3.222
   19SAPS  C310 2500   4.660   5.067   3.343
   19SAPS  H10X 2501   4.716   5.163   3.349
   19SAPS  H10Y 2502   4.730   4.982   3.329
   19SAPS  C311 2503   4.573   5.039   3.466
   19SAPS  H11X 2504   4.537   4.934   3.459
   19SAPS  H11Y 2505   4.479   5.097   3.474
   19SAPS  C312 2506   4.649   5.048   3.595
   19SAPS  H12X 2507   4.699   5.147   3.598
   19SAPS  H12Y 2508   4.725   4.968   3.613
   19SAPS  C313 2509   4.551   5.038   3.719
   19SAPS  H13X 2510   4.506   4.937   3.710
   19SAPS  H13Y 2511   4.480   5.122   3.710
   19SAPS  C314 2512   4.615   5.053   3.864
   19SAPS  H14X 2513   4.676   5.147   3.867
   19SAPS  H14Y 2514   4.691   4.978   3.895
   19SAPS  C315 2515   4.511   5.061   3.972
   19SAPS  H15X 2516   4.469   4.960   3.992
   19SAPS  H15Y 2517   4.432   5.131   3.937
   19SAPS  C316 2518   4.553   5.125   4.103
   19SAPS  H16X 2519   4.632   5.199   4.078
   19SAPS  H16Y 2520   4.605   5.051   4.168
   19SAPS  C317 2521   4.433   5.186   4.169
   19SAPS  H17X 2522   4.394   5.274   4.114
   19SAPS  H17Y 2523   4.478   5.226   4.263
   19SAPS  C318 2524   4.317   5.089   4.189
   19SAPS  H18X 2525   4.254   5.081   4.098
   19SAPS  H18Y 2526   4.245   5.108   4.271
   19SAPS  H18Z 2527   4.356   4.990   4.219
   20SAPS     N 2528   4.369   5.769   1.851
   20SAPS   HN1 2529   4.273   5.809   1.840
   20SAPS   HN2 2530   4.424   5.786   1.765
   20SAPS   HN3 2531   4.350   5.667   1.854
   20SAPS   C12 2532   4.445   5.804   1.974
   20SAPS  H12A 2533   4.534   5.743   1.979
   20SAPS   C13 2534   4.492   5.949   1.967
   20SAPS  O13A 2535   4.458   6.021   1.873
   20SAPS  O13B 2536   4.555   5.991   2.067
   20SAPS   C11 2537   4.360   5.791   2.105
   20SAPS  H11A 2538   4.291   5.876   2.125
   20SAPS  H11B 2539   4.447   5.790   2.175
   20SAPS     P 2540   4.347   5.529   2.183
   20SAPS   O13 2541   4.240   5.426   2.179
   20SAPS   O14 2542   4.473   5.488   2.116
   20SAPS   O12 2543   4.293   5.662   2.107
   20SAPS   O11 2544   4.382   5.581   2.323
   20SAPS    C1 2545   4.284   5.651   2.406
   20SAPS    HA 2546   4.235   5.733   2.349
   20SAPS    HB 2547   4.200   5.587   2.440
   20SAPS    C2 2548   4.350   5.727   2.528
   20SAPS    HS 2549   4.288   5.812   2.564
   20SAPS   O21 2550   4.484   5.774   2.498
   20SAPS   C21 2551   4.498   5.892   2.429
   20SAPS   O22 2552   4.410   5.976   2.404
   20SAPS   C22 2553   4.644   5.906   2.369
   20SAPS   H2R 2554   4.652   5.828   2.291
   20SAPS   H2S 2555   4.658   5.999   2.311
   20SAPS    C3 2556   4.365   5.633   2.643
   20SAPS    HX 2557   4.417   5.548   2.593
   20SAPS    HY 2558   4.264   5.601   2.676
   20SAPS   O31 2559   4.448   5.683   2.754
   20SAPS   C31 2560   4.580   5.669   2.747
   20SAPS   O32 2561   4.640   5.598   2.669
   20SAPS   C32 2562   4.647   5.763   2.847
   20SAPS   H2X 2563   4.635   5.866   2.808
   20SAPS   H2Y 2564   4.748   5.720   2.867
   20SAPS   C23 2565   4.755   5.885   2.471
   20SAPS   H3R 2566   4.780   5.777   2.467
   20SAPS   H3S 2567   4.726   5.910   2.575
   20SAPS   C24 2568   4.881   5.971   2.445
   20SAPS   H4R 2569   4.934   5.962   2.348
   20SAPS   H4S 2570   4.957   5.942   2.521
   20SAPS   C25 2571   4.846   6.110   2.480
   20SAPS   H5R 2572   4.781   6.156   2.404
   20SAPS   C26 2573   4.890   6.175   2.587
   20SAPS   H6R 2574   4.858   6.278   2.609
   20SAPS   C27 2575   4.984   6.121   2.694
   20SAPS   H7R 2576   5.047   6.206   2.729
   20SAPS   H7S 2577   5.063   6.052   2.658
   20SAPS   C28 2578   4.901   6.062   2.807
   20SAPS   H8R 2579   4.797   6.035   2.785
   20SAPS   C29 2580   4.942   6.034   2.932
   20SAPS   H9R 2581   4.875   5.999   3.013
   20SAPS  C210 2582   5.084   6.053   2.979
   20SAPS  H10R 2583   5.089   6.127   3.062
   20SAPS  H10S 2584   5.146   6.103   2.903
   20SAPS  C211 2585   5.148   5.923   3.024
   20SAPS  H11R 2586   5.201   5.870   2.944
   20SAPS  C212 2587   5.162   5.879   3.152
   20SAPS  H12R 2588   5.226   5.790   3.162
   20SAPS  C213 2589   5.112   5.929   3.286
   20SAPS  H13R 2590   5.078   6.035   3.288
   20SAPS  H13S 2591   5.197   5.912   3.355
   20SAPS  C214 2592   4.999   5.827   3.324
   20SAPS  H14R 2593   4.936   5.780   3.247
   20SAPS  C215 2594   4.963   5.796   3.453
   20SAPS  H15R 2595   4.879   5.726   3.460
   20SAPS  C216 2596   5.008   5.842   3.590
   20SAPS  H16R 2597   5.022   5.952   3.580
   20SAPS  H16S 2598   5.109   5.801   3.613
   20SAPS  C217 2599   4.904   5.823   3.694
   20SAPS  H17R 2600   4.879   5.717   3.712
   20SAPS  H17S 2601   4.821   5.888   3.660
   20SAPS  C218 2602   4.941   5.869   3.835
   20SAPS  H18R 2603   4.856   5.837   3.899
   20SAPS  H18S 2604   4.965   5.978   3.844
   20SAPS  C219 2605   5.068   5.803   3.891
   20SAPS  H19R 2606   5.147   5.810   3.812
   20SAPS  H19S 2607   5.057   5.693   3.904
   20SAPS  C220 2608   5.114   5.864   4.021
   20SAPS  H20R 2609   5.040   5.852   4.103
   20SAPS  H20S 2610   5.129   5.973   4.012
   20SAPS  H20T 2611   5.209   5.811   4.047
   20SAPS   C33 2612   4.587   5.761   2.986
   20SAPS   H3X 2613   4.476   5.766   2.982
   20SAPS   H3Y 2614   4.618   5.854   3.037
   20SAPS   C34 2615   4.621   5.634   3.068
   20SAPS   H4X 2616   4.731   5.621   3.063
   20SAPS   H4Y 2617   4.570   5.544   3.028
   20SAPS   C35 2618   4.573   5.637   3.216
   20SAPS   H5X 2619   4.466   5.667   3.224
   20SAPS   H5Y 2620   4.634   5.710   3.274
   20SAPS   C36 2621   4.595   5.502   3.278
   20SAPS   H6X 2622   4.704   5.489   3.297
   20SAPS   H6Y 2623   4.554   5.413   3.226
   20SAPS   C37 2624   4.537   5.497   3.420
   20SAPS   H7X 2625   4.571   5.410   3.478
   20SAPS   H7Y 2626   4.427   5.483   3.419
   20SAPS   C38 2627   4.576   5.624   3.497
   20SAPS   H8X 2628   4.557   5.722   3.449
   20SAPS   H8Y 2629   4.686   5.617   3.513
   20SAPS   C39 2630   4.504   5.645   3.632
   20SAPS   H9X 2631   4.551   5.587   3.714
   20SAPS   H9Y 2632   4.398   5.617   3.616
   20SAPS  C310 2633   4.518   5.794   3.677
   20SAPS  H10X 2634   4.489   5.875   3.606
   20SAPS  H10Y 2635   4.627   5.807   3.691
   20SAPS  C311 2636   4.459   5.826   3.814
   20SAPS  H11X 2637   4.490   5.923   3.858
   20SAPS  H11Y 2638   4.498   5.747   3.882
   20SAPS  C312 2639   4.302   5.837   3.818
   20SAPS  H12X 2640   4.242   5.760   3.764
   20SAPS  H12Y 2641   4.280   5.938   3.777
   20SAPS  C313 2642   4.246   5.838   3.959
   20SAPS  H13X 2643   4.138   5.860   3.948
   20SAPS  H13Y 2644   4.301   5.915   4.016
   20SAPS  C314 2645   4.256   5.700   4.016
   20SAPS  H14X 2646   4.358   5.659   3.997
   20SAPS  H14Y 2647   4.197   5.629   3.955
   20SAPS  C315 2648   4.214   5.692   4.163
   20SAPS  H15X 2649   4.271   5.764   4.225
   20SAPS  H15Y 2650   4.239   5.585   4.183
   20SAPS  C316 2651   4.067   5.724   4.187
   20SAPS  H16X 2652   4.001   5.676   4.112
   20SAPS  H16Y 2653   4.048   5.833   4.186
   20SAPS  C317 2654   4.026   5.673   4.330
   20SAPS  H17X 2655   4.054   5.566   4.336
   20SAPS  H17Y 2656   3.916   5.684   4.333
   20SAPS  C318 2657   4.085   5.739   4.458
   20SAPS  H18X 2658   4.194   5.759   4.453
   20SAPS  H18Y 2659   4.059   5.686   4.552
   20SAPS  H18Z 2660   4.042   5.842   4.453
   21CHL1    C3 2661   1.415   3.764   6.031
   21CHL1    H3 2662   1.524   3.747   6.014
   21CHL1    O3 2663   1.381   3.755   6.167
   21CHL1   H3' 2664   1.428   3.677   6.198
   21CHL1    C4 2665   1.379   3.901   5.981
   21CHL1   H4A 2666   1.273   3.928   6.003
   21CHL1   H4B 2667   1.445   3.969   6.038
   21CHL1    C5 2668   1.388   3.903   5.836
   21CHL1    C6 2669   1.472   3.989   5.766
   21CHL1    H6 2670   1.525   4.054   5.837
   21CHL1    C7 2671   1.474   4.002   5.621
   21CHL1   H7A 2672   1.478   4.110   5.595
   21CHL1   H7B 2673   1.569   3.963   5.578
   21CHL1    C8 2674   1.358   3.935   5.544
   21CHL1    H8 2675   1.259   3.983   5.558
   21CHL1   C14 2676   1.391   3.921   5.396
   21CHL1   H14 2677   1.474   3.847   5.393
   21CHL1   C15 2678   1.438   4.049   5.326
   21CHL1  H15A 2679   1.382   4.138   5.364
   21CHL1  H15B 2680   1.542   4.084   5.340
   21CHL1   C16 2681   1.419   4.016   5.177
   21CHL1  H16A 2682   1.364   4.096   5.121
   21CHL1  H16B 2683   1.519   4.013   5.129
   21CHL1   C17 2684   1.355   3.875   5.167
   21CHL1   H17 2685   1.439   3.805   5.154
   21CHL1   C13 2686   1.290   3.850   5.307
   21CHL1   C18 2687   1.154   3.915   5.318
   21CHL1  H18A 2688   1.087   3.867   5.243
   21CHL1  H18B 2689   1.111   3.884   5.416
   21CHL1  H18C 2690   1.148   4.025   5.302
   21CHL1   C12 2691   1.285   3.703   5.354
   21CHL1  H12A 2692   1.203   3.648   5.302
   21CHL1  H12B 2693   1.385   3.660   5.334
   21CHL1   C11 2694   1.250   3.700   5.510
   21CHL1  H11A 2695   1.144   3.730   5.514
   21CHL1  H11B 2696   1.250   3.595   5.547
   21CHL1    C9 2697   1.344   3.793   5.601
   21CHL1    H9 2698   1.441   3.741   5.596
   21CHL1   C10 2699   1.317   3.799   5.754
   21CHL1   C19 2700   1.160   3.827   5.768
   21CHL1  H19A 2701   1.128   3.901   5.692
   21CHL1  H19B 2702   1.094   3.740   5.744
   21CHL1  H19C 2703   1.122   3.848   5.870
   21CHL1    C1 2704   1.360   3.664   5.813
   21CHL1   H1A 2705   1.300   3.579   5.774
   21CHL1   H1B 2706   1.469   3.645   5.797
   21CHL1    C2 2707   1.337   3.651   5.963
   21CHL1   H2A 2708   1.364   3.549   5.995
   21CHL1   H2B 2709   1.228   3.659   5.986
   21CHL1   C20 2710   1.268   3.863   5.036
   21CHL1   H20 2711   1.192   3.943   5.034
   21CHL1   C21 2712   1.202   3.725   5.035
   21CHL1  H21A 2713   1.146   3.704   5.129
   21CHL1  H21B 2714   1.272   3.640   5.018
   21CHL1  H21C 2715   1.130   3.717   4.951
   21CHL1   C22 2716   1.349   3.887   4.903
   21CHL1  H22A 2717   1.376   3.995   4.909
   21CHL1  H22B 2718   1.446   3.832   4.899
   21CHL1   C23 2719   1.267   3.858   4.778
   21CHL1  H23A 2720   1.334   3.872   4.690
   21CHL1  H23B 2721   1.223   3.756   4.774
   21CHL1   C24 2722   1.147   3.956   4.763
   21CHL1  H24A 2723   1.067   3.928   4.835
   21CHL1  H24B 2724   1.170   4.059   4.796
   21CHL1   C25 2725   1.083   3.976   4.624
   21CHL1   H25 2726   1.157   3.994   4.544
   21CHL1   C26 2727   1.014   3.849   4.581
   21CHL1  H26A 2728   0.941   3.823   4.662
   21CHL1  H26B 2729   0.941   3.869   4.499
   21CHL1  H26C 2730   1.079   3.762   4.559
   21CHL1   C27 2731   0.987   4.106   4.629
   21CHL1  H27A 2732   0.899   4.071   4.687
   21CHL1  H27B 2733   1.039   4.192   4.675
   21CHL1  H27C 2734   0.960   4.147   4.529
   22CHL1    C3 2735   1.676   1.572   6.028
   22CHL1    H3 2736   1.632   1.670   6.057
   22CHL1    O3 2737   1.736   1.529   6.147
   22CHL1   H3' 2738   1.793   1.454   6.128
   22CHL1    C4 2739   1.574   1.469   5.976
   22CHL1   H4A 2740   1.642   1.384   5.952
   22CHL1   H4B 2741   1.511   1.435   6.061
   22CHL1    C5 2742   1.507   1.517   5.853
   22CHL1    C6 2743   1.375   1.540   5.848
   22CHL1    H6 2744   1.310   1.524   5.936
   22CHL1    C7 2745   1.301   1.577   5.726
   22CHL1   H7A 2746   1.216   1.506   5.713
   22CHL1   H7B 2747   1.252   1.676   5.742
   22CHL1    C8 2748   1.387   1.585   5.600
   22CHL1    H8 2749   1.403   1.481   5.564
   22CHL1   C14 2750   1.318   1.676   5.497
   22CHL1   H14 2751   1.339   1.778   5.535
   22CHL1   C15 2752   1.166   1.659   5.468
   22CHL1  H15A 2753   1.152   1.549   5.476
   22CHL1  H15B 2754   1.105   1.709   5.546
   22CHL1   C16 2755   1.142   1.714   5.328
   22CHL1  H16A 2756   1.102   1.624   5.277
   22CHL1  H16B 2757   1.076   1.804   5.330
   22CHL1   C17 2758   1.282   1.764   5.282
   22CHL1   H17 2759   1.296   1.870   5.309
   22CHL1   C13 2760   1.389   1.681   5.367
   22CHL1   C18 2761   1.382   1.533   5.305
   22CHL1  H18A 2762   1.425   1.542   5.203
   22CHL1  H18B 2763   1.454   1.461   5.350
   22CHL1  H18C 2764   1.282   1.486   5.297
   22CHL1   C12 2765   1.530   1.740   5.382
   22CHL1  H12A 2766   1.604   1.744   5.299
   22CHL1  H12B 2767   1.514   1.846   5.411
   22CHL1   C11 2768   1.603   1.663   5.502
   22CHL1  H11A 2769   1.646   1.567   5.467
   22CHL1  H11B 2770   1.684   1.733   5.532
   22CHL1    C9 2771   1.528   1.637   5.636
   22CHL1    H9 2772   1.508   1.737   5.680
   22CHL1   C10 2773   1.601   1.555   5.737
   22CHL1   C19 2774   1.652   1.416   5.670
   22CHL1  H19A 2775   1.703   1.360   5.751
   22CHL1  H19B 2776   1.566   1.370   5.618
   22CHL1  H19C 2777   1.740   1.432   5.603
   22CHL1    C1 2778   1.727   1.644   5.800
   22CHL1   H1A 2779   1.802   1.637   5.718
   22CHL1   H1B 2780   1.697   1.751   5.808
   22CHL1    C2 2781   1.782   1.584   5.929
   22CHL1   H2A 2782   1.863   1.647   5.971
   22CHL1   H2B 2783   1.829   1.491   5.890
   22CHL1   C20 2784   1.306   1.759   5.129
   22CHL1   H20 2785   1.314   1.652   5.102
   22CHL1   C21 2786   1.425   1.844   5.084
   22CHL1  H21A 2787   1.438   1.839   4.974
   22CHL1  H21B 2788   1.516   1.794   5.123
   22CHL1  H21C 2789   1.413   1.952   5.105
   22CHL1   C22 2790   1.171   1.799   5.055
   22CHL1  H22A 2791   1.099   1.715   5.065
   22CHL1  H22B 2792   1.113   1.886   5.091
   22CHL1   C23 2793   1.199   1.820   4.910
   22CHL1  H23A 2794   1.236   1.921   4.883
   22CHL1  H23B 2795   1.269   1.740   4.875
   22CHL1   C24 2796   1.072   1.790   4.822
   22CHL1  H24A 2797   1.007   1.714   4.870
   22CHL1  H24B 2798   1.021   1.888   4.832
   22CHL1   C25 2799   1.111   1.763   4.673
   22CHL1   H25 2800   1.202   1.699   4.678
   22CHL1   C26 2801   1.001   1.692   4.599
   22CHL1  H26A 2802   1.029   1.672   4.494
   22CHL1  H26B 2803   0.980   1.595   4.648
   22CHL1  H26C 2804   0.911   1.756   4.610
   22CHL1   C27 2805   1.144   1.891   4.598
   22CHL1  H27A 2806   1.146   1.881   4.487
   22CHL1  H27B 2807   1.076   1.972   4.631
   22CHL1  H27C 2808   1.242   1.925   4.638
   23CHL1    C3 2809   0.706   3.652   6.032
   23CHL1    H3 2810   0.801   3.605   6.000
   23CHL1    O3 2811   0.709   3.626   6.175
   23CHL1   H3' 2812   0.773   3.686   6.213
   23CHL1    C4 2813   0.714   3.806   6.006
   23CHL1   H4A 2814   0.645   3.874   6.060
   23CHL1   H4B 2815   0.808   3.844   6.051
   23CHL1    C5 2816   0.706   3.825   5.853
   23CHL1    C6 2817   0.797   3.911   5.797
   23CHL1    H6 2818   0.867   3.962   5.864
   23CHL1    C7 2819   0.800   3.941   5.653
   23CHL1   H7A 2820   0.810   4.051   5.641
   23CHL1   H7B 2821   0.897   3.907   5.611
   23CHL1    C8 2822   0.683   3.890   5.568
   23CHL1    H8 2823   0.599   3.962   5.581
   23CHL1   C14 2824   0.724   3.866   5.424
   23CHL1   H14 2825   0.805   3.790   5.425
   23CHL1   C15 2826   0.772   3.987   5.349
   23CHL1  H15A 2827   0.710   4.076   5.374
   23CHL1  H15B 2828   0.875   4.020   5.372
   23CHL1   C16 2829   0.769   3.936   5.203
   23CHL1  H16A 2830   0.730   4.022   5.145
   23CHL1  H16B 2831   0.871   3.910   5.170
   23CHL1   C17 2832   0.686   3.803   5.198
   23CHL1   H17 2833   0.759   3.720   5.206
   23CHL1   C13 2834   0.610   3.804   5.330
   23CHL1   C18 2835   0.488   3.908   5.326
   23CHL1  H18A 2836   0.410   3.875   5.254
   23CHL1  H18B 2837   0.449   3.930   5.428
   23CHL1  H18C 2838   0.529   4.002   5.284
   23CHL1   C12 2839   0.560   3.667   5.391
   23CHL1  H12A 2840   0.479   3.625   5.329
   23CHL1  H12B 2841   0.651   3.605   5.409
   23CHL1   C11 2842   0.519   3.685   5.539
   23CHL1  H11A 2843   0.431   3.753   5.542
   23CHL1  H11B 2844   0.487   3.586   5.578
   23CHL1    C9 2845   0.630   3.746   5.627
   23CHL1    H9 2846   0.706   3.667   5.610
   23CHL1   C10 2847   0.600   3.749   5.780
   23CHL1   C19 2848   0.466   3.830   5.803
   23CHL1  H19A 2849   0.458   3.921   5.740
   23CHL1  H19B 2850   0.383   3.760   5.780
   23CHL1  H19C 2851   0.454   3.865   5.908
   23CHL1    C1 2852   0.582   3.603   5.830
   23CHL1   H1A 2853   0.491   3.559   5.785
   23CHL1   H1B 2854   0.668   3.543   5.790
   23CHL1    C2 2855   0.583   3.586   5.979
   23CHL1   H2A 2856   0.593   3.477   5.998
   23CHL1   H2B 2857   0.497   3.624   6.037
   23CHL1   C20 2858   0.594   3.794   5.074
   23CHL1   H20 2859   0.503   3.856   5.084
   23CHL1   C21 2860   0.548   3.644   5.053
   23CHL1  H21A 2861   0.519   3.637   4.947
   23CHL1  H21B 2862   0.460   3.627   5.118
   23CHL1  H21C 2863   0.628   3.566   5.057
   23CHL1   C22 2864   0.656   3.848   4.944
   23CHL1  H22A 2865   0.702   3.948   4.957
   23CHL1  H22B 2866   0.725   3.775   4.897
   23CHL1   C23 2867   0.552   3.898   4.838
   23CHL1  H23A 2868   0.505   3.810   4.790
   23CHL1  H23B 2869   0.475   3.959   4.891
   23CHL1   C24 2870   0.616   3.974   4.721
   23CHL1  H24A 2871   0.657   4.070   4.761
   23CHL1  H24B 2872   0.711   3.927   4.687
   23CHL1   C25 2873   0.522   4.012   4.597
   23CHL1   H25 2874   0.458   4.092   4.639
   23CHL1   C26 2875   0.608   4.080   4.484
   23CHL1  H26A 2876   0.659   4.176   4.508
   23CHL1  H26B 2877   0.691   4.008   4.469
   23CHL1  H26C 2878   0.547   4.099   4.393
   23CHL1   C27 2879   0.433   3.908   4.531
   23CHL1  H27A 2880   0.491   3.844   4.461
   23CHL1  H27B 2881   0.381   3.839   4.601
   23CHL1  H27C 2882   0.354   3.958   4.471
   24CHL1    C3 2883   3.318   5.091   6.446
   24CHL1    H3 2884   3.422   5.075   6.408
   24CHL1    O3 2885   3.317   5.105   6.588
   24CHL1   H3' 2886   3.227   5.118   6.617
   24CHL1    C4 2887   3.253   5.215   6.375
   24CHL1   H4A 2888   3.161   5.249   6.427
   24CHL1   H4B 2889   3.333   5.290   6.397
   24CHL1    C5 2890   3.242   5.192   6.224
   24CHL1    C6 2891   3.303   5.274   6.138
   24CHL1    H6 2892   3.345   5.370   6.172
   24CHL1    C7 2893   3.294   5.251   5.988
   24CHL1   H7A 2894   3.277   5.348   5.938
   24CHL1   H7B 2895   3.394   5.223   5.948
   24CHL1    C8 2896   3.181   5.163   5.938
   24CHL1    H8 2897   3.085   5.216   5.955
   24CHL1   C14 2898   3.199   5.128   5.790
   24CHL1   H14 2899   3.297   5.076   5.776
   24CHL1   C15 2900   3.205   5.243   5.690
   24CHL1  H15A 2901   3.113   5.304   5.699
   24CHL1  H15B 2902   3.304   5.293   5.692
   24CHL1   C16 2903   3.194   5.172   5.556
   24CHL1  H16A 2904   3.132   5.229   5.484
   24CHL1  H16B 2905   3.299   5.171   5.520
   24CHL1   C17 2906   3.154   5.027   5.583
   24CHL1   H17 2907   3.240   4.957   5.597
   24CHL1   C13 2908   3.103   5.025   5.732
   24CHL1   C18 2909   2.959   5.090   5.734
   24CHL1  H18A 2910   2.956   5.180   5.668
   24CHL1  H18B 2911   2.890   5.020   5.681
   24CHL1  H18C 2912   2.922   5.104   5.838
   24CHL1   C12 2913   3.112   4.897   5.822
   24CHL1  H12A 2914   3.038   4.822   5.786
   24CHL1  H12B 2915   3.214   4.862   5.793
   24CHL1   C11 2916   3.090   4.925   5.970
   24CHL1  H11A 2917   2.986   4.961   5.979
   24CHL1  H11B 2918   3.099   4.828   6.024
   24CHL1    C9 2919   3.189   5.038   6.024
   24CHL1    H9 2920   3.289   4.993   6.008
   24CHL1   C10 2921   3.173   5.062   6.177
   24CHL1   C19 2922   3.017   5.082   6.211
   24CHL1  H19A 2923   2.962   4.987   6.190
   24CHL1  H19B 2924   3.001   5.103   6.319
   24CHL1  H19C 2925   2.982   5.171   6.155
   24CHL1    C1 2926   3.229   4.946   6.261
   24CHL1   H1A 2927   3.166   4.855   6.253
   24CHL1   H1B 2928   3.330   4.920   6.220
   24CHL1    C2 2929   3.246   4.966   6.406
   24CHL1   H2A 2930   3.280   4.871   6.453
   24CHL1   H2B 2931   3.143   4.973   6.447
   24CHL1   C20 2932   3.069   4.967   5.463
   24CHL1   H20 2933   2.983   5.034   5.444
   24CHL1   C21 2934   3.016   4.825   5.495
   24CHL1  H21A 2935   3.102   4.756   5.510
   24CHL1  H21B 2936   2.948   4.786   5.417
   24CHL1  H21C 2937   2.956   4.825   5.588
   24CHL1   C22 2938   3.163   4.967   5.343
   24CHL1  H22A 2939   3.209   5.066   5.324
   24CHL1  H22B 2940   3.244   4.895   5.368
   24CHL1   C23 2941   3.100   4.939   5.201
   24CHL1  H23A 2942   3.077   4.831   5.211
   24CHL1  H23B 2943   3.009   5.000   5.178
   24CHL1   C24 2944   3.204   4.953   5.088
   24CHL1  H24A 2945   3.262   5.047   5.093
   24CHL1  H24B 2946   3.282   4.875   5.100
   24CHL1   C25 2947   3.132   4.935   4.949
   24CHL1   H25 2948   3.064   5.023   4.946
   24CHL1   C26 2949   3.235   4.960   4.836
   24CHL1  H26A 2950   3.281   5.061   4.843
   24CHL1  H26B 2951   3.313   4.881   4.841
   24CHL1  H26C 2952   3.182   4.943   4.740
   24CHL1   C27 2953   3.069   4.796   4.931
   24CHL1  H27A 2954   2.994   4.770   5.009
   24CHL1  H27B 2955   3.026   4.789   4.829
   24CHL1  H27C 2956   3.147   4.719   4.953
   25CHL1    C3 2957   5.429   6.182   6.013
   25CHL1    H3 2958   5.401   6.288   5.998
   25CHL1    O3 2959   5.441   6.139   6.147
   25CHL1   H3' 2960   5.503   6.198   6.191
   25CHL1    C4 2961   5.316   6.103   5.938
   25CHL1   H4A 2962   5.329   5.993   5.947
   25CHL1   H4B 2963   5.231   6.151   5.991
   25CHL1    C5 2964   5.300   6.138   5.799
   25CHL1    C6 2965   5.190   6.190   5.748
   25CHL1    H6 2966   5.098   6.201   5.808
   25CHL1    C7 2967   5.162   6.215   5.601
   25CHL1   H7A 2968   5.068   6.163   5.574
   25CHL1   H7B 2969   5.142   6.322   5.577
   25CHL1    C8 2970   5.272   6.167   5.509
   25CHL1    H8 2971   5.259   6.057   5.496
   25CHL1   C14 2972   5.271   6.230   5.372
   25CHL1   H14 2973   5.296   6.336   5.394
   25CHL1   C15 2974   5.145   6.250   5.287
   25CHL1  H15A 2975   5.073   6.169   5.313
   25CHL1  H15B 2976   5.099   6.348   5.312
   25CHL1   C16 2977   5.199   6.250   5.141
   25CHL1  H16A 2978   5.177   6.148   5.104
   25CHL1  H16B 2979   5.159   6.339   5.088
   25CHL1   C17 2980   5.356   6.256   5.152
   25CHL1   H17 2981   5.391   6.361   5.162
   25CHL1   C13 2982   5.382   6.182   5.285
   25CHL1   C18 2983   5.380   6.029   5.263
   25CHL1  H18A 2984   5.281   6.004   5.218
   25CHL1  H18B 2985   5.469   5.993   5.208
   25CHL1  H18C 2986   5.392   5.990   5.366
   25CHL1   C12 2987   5.521   6.218   5.345
   25CHL1  H12A 2988   5.607   6.183   5.284
   25CHL1  H12B 2989   5.530   6.326   5.366
   25CHL1   C11 2990   5.533   6.157   5.486
   25CHL1  H11A 2991   5.552   6.048   5.477
   25CHL1  H11B 2992   5.626   6.201   5.528
   25CHL1    C9 2993   5.415   6.180   5.577
   25CHL1    H9 2994   5.418   6.289   5.593
   25CHL1   C10 2995   5.433   6.114   5.718
   25CHL1   C19 2996   5.457   5.963   5.708
   25CHL1  H19A 2997   5.558   5.932   5.673
   25CHL1  H19B 2998   5.467   5.919   5.810
   25CHL1  H19C 2999   5.385   5.908   5.644
   25CHL1    C1 3000   5.556   6.169   5.794
   25CHL1   H1A 3001   5.658   6.153   5.754
   25CHL1   H1B 3002   5.537   6.278   5.778
   25CHL1    C2 3003   5.562   6.142   5.943
   25CHL1   H2A 3004   5.645   6.202   5.987
   25CHL1   H2B 3005   5.580   6.035   5.967
   25CHL1   C20 3006   5.433   6.213   5.030
   25CHL1   H20 3007   5.442   6.102   5.030
   25CHL1   C21 3008   5.582   6.263   5.015
   25CHL1  H21A 3009   5.617   6.231   4.914
   25CHL1  H21B 3010   5.652   6.212   5.084
   25CHL1  H21C 3011   5.586   6.373   5.031
   25CHL1   C22 3012   5.369   6.239   4.894
   25CHL1  H22A 3013   5.433   6.190   4.817
   25CHL1  H22B 3014   5.273   6.187   4.875
   25CHL1   C23 3015   5.332   6.389   4.865
   25CHL1  H23A 3016   5.272   6.437   4.945
   25CHL1  H23B 3017   5.426   6.448   4.858
   25CHL1   C24 3018   5.247   6.415   4.734
   25CHL1  H24A 3019   5.281   6.356   4.646
   25CHL1  H24B 3020   5.143   6.387   4.761
   25CHL1   C25 3021   5.244   6.570   4.709
   25CHL1   H25 3022   5.221   6.631   4.799
   25CHL1   C26 3023   5.384   6.616   4.641
   25CHL1  H26A 3024   5.401   6.554   4.550
   25CHL1  H26B 3025   5.376   6.723   4.611
   25CHL1  H26C 3026   5.477   6.608   4.700
   25CHL1   C27 3027   5.120   6.601   4.625
   25CHL1  H27A 3028   5.128   6.525   4.545
   25CHL1  H27B 3029   5.025   6.585   4.681
   25CHL1  H27C 3030   5.124   6.703   4.580
   26CHL1    C3 3031   3.417   3.343   6.015
   26CHL1    H3 3032   3.514   3.373   5.972
   26CHL1    O3 3033   3.429   3.327   6.158
   26CHL1   H3' 3034   3.407   3.412   6.198
   26CHL1    C4 3035   3.309   3.452   5.992
   26CHL1   H4A 3036   3.215   3.430   6.047
   26CHL1   H4B 3037   3.343   3.546   6.041
   26CHL1    C5 3038   3.296   3.475   5.840
   26CHL1    C6 3039   3.319   3.592   5.786
   26CHL1    H6 3040   3.354   3.681   5.841
   26CHL1    C7 3041   3.287   3.612   5.637
   26CHL1   H7A 3042   3.227   3.704   5.621
   26CHL1   H7B 3043   3.378   3.633   5.577
   26CHL1    C8 3044   3.215   3.499   5.574
   26CHL1    H8 3045   3.110   3.497   5.610
   26CHL1   C14 3046   3.226   3.519   5.424
   26CHL1   H14 3047   3.334   3.505   5.402
   26CHL1   C15 3048   3.189   3.646   5.355
   26CHL1  H15A 3049   3.092   3.672   5.402
   26CHL1  H15B 3050   3.262   3.730   5.363
   26CHL1   C16 3051   3.172   3.605   5.205
   26CHL1  H16A 3052   3.071   3.644   5.180
   26CHL1  H16B 3053   3.251   3.651   5.141
   26CHL1   C17 3054   3.185   3.453   5.195
   26CHL1   H17 3055   3.291   3.424   5.181
   26CHL1   C13 3056   3.157   3.406   5.341
   26CHL1   C18 3057   3.011   3.409   5.364
   26CHL1  H18A 3058   2.972   3.324   5.303
   26CHL1  H18B 3059   2.981   3.385   5.468
   26CHL1  H18C 3060   2.965   3.502   5.324
   26CHL1   C12 3061   3.212   3.269   5.382
   26CHL1  H12A 3062   3.161   3.186   5.328
   26CHL1  H12B 3063   3.319   3.253   5.358
   26CHL1   C11 3064   3.206   3.245   5.536
   26CHL1  H11A 3065   3.098   3.223   5.550
   26CHL1  H11B 3066   3.259   3.148   5.544
   26CHL1    C9 3067   3.267   3.363   5.617
   26CHL1    H9 3068   3.375   3.363   5.591
   26CHL1   C10 3069   3.258   3.342   5.770
   26CHL1   C19 3070   3.116   3.304   5.817
   26CHL1  H19A 3071   3.081   3.208   5.773
   26CHL1  H19B 3072   3.101   3.313   5.927
   26CHL1  H19C 3073   3.052   3.382   5.770
   26CHL1    C1 3074   3.359   3.228   5.810
   26CHL1   H1A 3075   3.327   3.128   5.774
   26CHL1   H1B 3076   3.457   3.255   5.766
   26CHL1    C2 3077   3.373   3.206   5.964
   26CHL1   H2A 3078   3.446   3.127   5.994
   26CHL1   H2B 3079   3.276   3.197   6.017
   26CHL1   C20 3080   3.105   3.398   5.078
   26CHL1   H20 3081   2.996   3.399   5.100
   26CHL1   C21 3082   3.149   3.245   5.060
   26CHL1  H21A 3083   3.112   3.182   5.144
   26CHL1  H21B 3084   3.259   3.240   5.046
   26CHL1  H21C 3085   3.109   3.207   4.964
   26CHL1   C22 3086   3.116   3.477   4.948
   26CHL1  H22A 3087   3.056   3.570   4.961
   26CHL1  H22B 3088   3.220   3.514   4.941
   26CHL1   C23 3089   3.084   3.402   4.812
   26CHL1  H23A 3090   3.155   3.320   4.785
   26CHL1  H23B 3091   2.989   3.348   4.830
   26CHL1   C24 3092   3.067   3.508   4.696
   26CHL1  H24A 3093   2.979   3.572   4.720
   26CHL1  H24B 3094   3.160   3.569   4.696
   26CHL1   C25 3095   3.041   3.450   4.551
   26CHL1   H25 3096   3.125   3.379   4.538
   26CHL1   C26 3097   2.910   3.371   4.552
   26CHL1  H26A 3098   2.828   3.446   4.554
   26CHL1  H26B 3099   2.900   3.302   4.466
   26CHL1  H26C 3100   2.896   3.304   4.640
   26CHL1   C27 3101   3.039   3.547   4.442
   26CHL1  H27A 3102   2.956   3.620   4.455
   26CHL1  H27B 3103   3.136   3.600   4.440
   26CHL1  H27C 3104   3.021   3.495   4.345
   27CHL1    C3 3105   6.703   2.604   6.043
   27CHL1    H3 3106   6.670   2.508   5.997
   27CHL1    O3 3107   6.694   2.604   6.191
   27CHL1   H3' 3108   6.714   2.698   6.199
   27CHL1    C4 3109   0.075   2.602   6.002
   27CHL1   H4A 3110   0.125   2.687   6.053
   27CHL1   H4B 3111   0.133   2.518   6.046
   27CHL1    C5 3112   0.088   2.611   5.855
   27CHL1    C6 3113   0.149   2.514   5.783
   27CHL1    H6 3114   0.198   2.431   5.838
   27CHL1    C7 3115   0.174   2.510   5.635
   27CHL1   H7A 3116   0.283   2.488   5.629
   27CHL1   H7B 3117   0.107   2.426   5.606
   27CHL1    C8 3118   0.141   2.647   5.564
   27CHL1    H8 3119   0.234   2.707   5.579
   27CHL1   C14 3120   0.128   2.629   5.412
   27CHL1   H14 3121   0.033   2.571   5.406
   27CHL1   C15 3122   0.238   2.556   5.323
   27CHL1  H15A 3123   0.341   2.586   5.352
   27CHL1  H15B 3124   0.224   2.447   5.332
   27CHL1   C16 3125   0.206   2.604   5.172
   27CHL1  H16A 3126   0.299   2.652   5.133
   27CHL1  H16B 3127   0.158   2.528   5.107
   27CHL1   C17 3128   0.102   2.717   5.186
   27CHL1   H17 3129   0.004   2.667   5.167
   27CHL1   C13 3130   0.095   2.758   5.339
   27CHL1   C18 3131   0.209   2.863   5.356
   27CHL1  H18A 3132   0.227   2.876   5.465
   27CHL1  H18B 3133   0.303   2.827   5.309
   27CHL1  H18C 3134   0.180   2.962   5.316
   27CHL1   C12 3135   6.746   2.818   5.393
   27CHL1  H12A 3136   6.712   2.906   5.334
   27CHL1  H12B 3137   6.660   2.753   5.365
   27CHL1   C11 3138   6.755   2.843   5.548
   27CHL1  H11A 3139   0.044   2.930   5.567
   27CHL1  H11B 3140   6.656   2.875   5.587
   27CHL1    C9 3141   0.014   2.711   5.626
   27CHL1    H9 3142   6.708   2.638   5.611
   27CHL1   C10 3143   0.016   2.727   5.785
   27CHL1   C19 3144   0.078   2.867   5.816
   27CHL1  H19A 3145   0.024   2.956   5.778
   27CHL1  H19B 3146   0.069   2.881   5.926
   27CHL1  H19C 3147   0.183   2.877   5.781
   27CHL1    C1 3148   6.646   2.718   5.828
   27CHL1   H1A 3149   6.581   2.802   5.796
   27CHL1   H1B 3150   6.601   2.624   5.790
   27CHL1    C2 3151   6.635   2.728   5.983
   27CHL1   H2A 3152   6.528   2.710   6.006
   27CHL1   H2B 3153   6.668   2.824   6.029
   27CHL1   C20 3154   0.119   2.822   5.075
   27CHL1   H20 3155   0.219   2.870   5.084
   27CHL1   C21 3156   0.007   2.934   5.086
   27CHL1  H21A 3157   6.688   2.887   5.116
   27CHL1  H21B 3158   6.769   2.979   4.985
   27CHL1  H21C 3159   0.043   3.017   5.152
   27CHL1   C22 3160   0.114   2.777   4.927
   27CHL1  H22A 3161   0.113   2.866   4.862
   27CHL1  H22B 3162   0.206   2.723   4.896
   27CHL1   C23 3163   0.006   2.683   4.891
   27CHL1  H23A 3164   0.011   2.595   4.958
   27CHL1  H23B 3165   6.685   2.726   4.924
   27CHL1   C24 3166   6.775   2.633   4.749
   27CHL1  H24A 3167   0.094   2.579   4.731
   27CHL1  H24B 3168   6.703   2.549   4.738
   27CHL1   C25 3169   6.770   2.735   4.637
   27CHL1   H25 3170   0.083   2.801   4.646
   27CHL1   C26 3171   0.015   2.664   4.504
   27CHL1  H26A 3172   0.110   2.605   4.499
   27CHL1  H26B 3173   6.699   2.604   4.491
   27CHL1  H26C 3174   0.012   2.733   4.417
   27CHL1   C27 3175   6.645   2.823   4.648
   27CHL1  H27A 3176   6.555   2.767   4.615
   27CHL1  H27B 3177   6.669   2.913   4.588
   27CHL1  H27C 3178   6.630   2.864   4.750
   28CHL1    C3 3179   4.902   2.559   6.128
   28CHL1    H3 3180   4.821   2.624   6.088
   28CHL1    O3 3181   4.939   2.609   6.254
   28CHL1   H3' 3182   4.994   2.548   6.305
   28CHL1    C4 3183   4.841   2.415   6.127
   28CHL1   H4A 3184   4.919   2.347   6.166
   28CHL1   H4B 3185   4.759   2.402   6.201
   28CHL1    C5 3186   4.811   2.363   5.982
   28CHL1    C6 3187   4.687   2.321   5.948
   28CHL1    H6 3188   4.604   2.300   6.017
   28CHL1    C7 3189   4.664   2.251   5.820
   28CHL1   H7A 3190   4.612   2.154   5.836
   28CHL1   H7B 3191   4.592   2.318   5.767
   28CHL1    C8 3192   4.790   2.229   5.720
   28CHL1    H8 3193   4.843   2.145   5.770
   28CHL1   C14 3194   4.735   2.210   5.585
   28CHL1   H14 3195   4.675   2.300   5.562
   28CHL1   C15 3196   4.637   2.093   5.554
   28CHL1  H15A 3197   4.683   2.002   5.598
   28CHL1  H15B 3198   4.535   2.114   5.593
   28CHL1   C16 3199   4.633   2.085   5.403
   28CHL1  H16A 3200   4.648   1.980   5.371
   28CHL1  H16B 3201   4.539   2.123   5.358
   28CHL1   C17 3202   4.746   2.183   5.348
   28CHL1   H17 3203   4.703   2.280   5.314
   28CHL1   C13 3204   4.837   2.211   5.476
   28CHL1   C18 3205   4.938   2.088   5.493
   28CHL1  H18A 3206   4.891   1.989   5.476
   28CHL1  H18B 3207   5.025   2.105   5.426
   28CHL1  H18C 3208   4.982   2.088   5.595
   28CHL1   C12 3209   4.923   2.339   5.485
   28CHL1  H12A 3210   5.007   2.343   5.413
   28CHL1  H12B 3211   4.862   2.428   5.457
   28CHL1   C11 3212   4.977   2.367   5.628
   28CHL1  H11A 3213   5.054   2.290   5.649
   28CHL1  H11B 3214   5.031   2.465   5.626
   28CHL1    C9 3215   4.869   2.356   5.736
   28CHL1    H9 3216   4.797   2.438   5.716
   28CHL1   C10 3217   4.920   2.390   5.876
   28CHL1   C19 3218   5.029   2.280   5.917
   28CHL1  H19A 3219   5.054   2.289   6.025
   28CHL1  H19B 3220   4.982   2.179   5.910
   28CHL1  H19C 3221   5.125   2.281   5.860
   28CHL1    C1 3222   4.980   2.531   5.886
   28CHL1   H1A 3223   5.070   2.536   5.822
   28CHL1   H1B 3224   4.908   2.599   5.835
   28CHL1    C2 3225   5.024   2.567   6.030
   28CHL1   H2A 3226   5.080   2.663   6.028
   28CHL1   H2B 3227   5.096   2.493   6.070
   28CHL1   C20 3228   4.820   2.140   5.221
   28CHL1   H20 3229   4.889   2.056   5.241
   28CHL1   C21 3230   4.918   2.250   5.175
   28CHL1  H21A 3231   4.868   2.348   5.158
   28CHL1  H21B 3232   4.959   2.210   5.080
   28CHL1  H21C 3233   5.010   2.254   5.237
   28CHL1   C22 3234   4.713   2.106   5.112
   28CHL1  H22A 3235   4.650   2.020   5.145
   28CHL1  H22B 3236   4.643   2.191   5.098
   28CHL1   C23 3237   4.773   2.054   4.978
   28CHL1  H23A 3238   4.802   2.139   4.912
   28CHL1  H23B 3239   4.861   1.988   4.995
   28CHL1   C24 3240   4.682   1.984   4.881
   28CHL1  H24A 3241   4.644   1.887   4.921
   28CHL1  H24B 3242   4.589   2.038   4.852
   28CHL1   C25 3243   4.755   1.947   4.754
   28CHL1   H25 3244   4.836   1.875   4.782
   28CHL1   C26 3245   4.653   1.865   4.675
   28CHL1  H26A 3246   4.620   1.778   4.735
   28CHL1  H26B 3247   4.568   1.933   4.652
   28CHL1  H26C 3248   4.685   1.833   4.573
   28CHL1   C27 3249   4.806   2.063   4.666
   28CHL1  H27A 3250   4.889   2.128   4.702
   28CHL1  H27B 3251   4.833   2.032   4.563
   28CHL1  H27C 3252   4.722   2.134   4.651
   29CHL1    C3 3253   1.971   4.353   6.657
   29CHL1    H3 3254   1.912   4.270   6.612
   29CHL1    O3 3255   1.944   4.357   6.795
   29CHL1   H3' 3256   1.880   4.428   6.805
   29CHL1    C4 3257   2.120   4.326   6.633
   29CHL1   H4A 3258   2.184   4.398   6.689
   29CHL1   H4B 3259   2.140   4.232   6.689
   29CHL1    C5 3260   2.169   4.334   6.488
   29CHL1    C6 3261   2.239   4.231   6.433
   29CHL1    H6 3262   2.266   4.136   6.481
   29CHL1    C7 3263   2.296   4.243   6.295
   29CHL1   H7A 3264   2.399   4.203   6.285
   29CHL1   H7B 3265   2.237   4.177   6.227
   29CHL1    C8 3266   2.287   4.387   6.242
   29CHL1    H8 3267   2.368   4.455   6.274
   29CHL1   C14 3268   2.302   4.377   6.089
   29CHL1   H14 3269   2.223   4.305   6.060
   29CHL1   C15 3270   2.418   4.298   6.020
   29CHL1  H15A 3271   2.508   4.339   6.069
   29CHL1  H15B 3272   2.412   4.187   6.025
   29CHL1   C16 3273   2.420   4.359   5.874
   29CHL1  H16A 3274   2.520   4.405   5.855
   29CHL1  H16B 3275   2.409   4.276   5.801
   29CHL1   C17 3276   2.310   4.467   5.866
   29CHL1   H17 3277   2.227   4.407   5.822
   29CHL1   C13 3278   2.281   4.507   6.012
   29CHL1   C18 3279   2.385   4.611   6.055
   29CHL1  H18A 3280   2.373   4.636   6.162
   29CHL1  H18B 3281   2.488   4.572   6.039
   29CHL1  H18C 3282   2.375   4.712   6.011
   29CHL1   C12 3283   2.135   4.559   6.038
   29CHL1  H12A 3284   2.133   4.666   6.007
   29CHL1  H12B 3285   2.069   4.497   5.975
   29CHL1   C11 3286   2.098   4.567   6.183
   29CHL1  H11A 3287   2.148   4.658   6.225
   29CHL1  H11B 3288   1.987   4.569   6.191
   29CHL1    C9 3289   2.144   4.446   6.271
   29CHL1    H9 3290   2.077   4.360   6.250
   29CHL1   C10 3291   2.121   4.464   6.426
   29CHL1   C19 3292   2.210   4.581   6.480
   29CHL1  H19A 3293   2.317   4.555   6.465
   29CHL1  H19B 3294   2.173   4.678   6.437
   29CHL1  H19C 3295   2.196   4.586   6.590
   29CHL1    C1 3296   1.976   4.493   6.447
   29CHL1   H1A 3297   1.960   4.597   6.410
   29CHL1   H1B 3298   1.910   4.430   6.385
   29CHL1    C2 3299   1.926   4.480   6.595
   29CHL1   H2A 3300   1.816   4.488   6.596
   29CHL1   H2B 3301   1.960   4.571   6.650
   29CHL1   C20 3302   2.348   4.573   5.760
   29CHL1   H20 3303   2.431   4.635   5.800
   29CHL1   C21 3304   2.222   4.661   5.744
   29CHL1  H21A 3305   2.211   4.725   5.834
   29CHL1  H21B 3306   2.128   4.603   5.731
   29CHL1  H21C 3307   2.224   4.734   5.660
   29CHL1   C22 3308   2.390   4.516   5.628
   29CHL1  H22A 3309   2.490   4.471   5.646
   29CHL1  H22B 3310   2.324   4.428   5.611
   29CHL1   C23 3311   2.400   4.598   5.498
   29CHL1  H23A 3312   2.300   4.640   5.472
   29CHL1  H23B 3313   2.469   4.681   5.521
   29CHL1   C24 3314   2.473   4.519   5.390
   29CHL1  H24A 3315   2.577   4.503   5.426
   29CHL1  H24B 3316   2.435   4.415   5.373
   29CHL1   C25 3317   2.478   4.581   5.248
   29CHL1   H25 3318   2.372   4.593   5.218
   29CHL1   C26 3319   2.536   4.720   5.270
   29CHL1  H26A 3320   2.559   4.763   5.170
   29CHL1  H26B 3321   2.475   4.796   5.325
   29CHL1  H26C 3322   2.631   4.716   5.326
   29CHL1   C27 3323   2.563   4.501   5.144
   29CHL1  H27A 3324   2.522   4.401   5.120
   29CHL1  H27B 3325   2.572   4.552   5.045
   29CHL1  H27C 3326   2.664   4.502   5.190
   30CHL1    C3 3327   2.481   3.579   6.148
   30CHL1    H3 3328   2.590   3.600   6.139
   30CHL1    O3 3329   2.464   3.529   6.277
   30CHL1   H3' 3330   2.373   3.497   6.277
   30CHL1    C4 3331   2.400   3.708   6.141
   30CHL1   H4A 3332   2.298   3.700   6.182
   30CHL1   H4B 3333   2.430   3.781   6.219
   30CHL1    C5 3334   2.410   3.767   5.998
   30CHL1    C6 3335   2.471   3.882   5.978
   30CHL1    H6 3336   2.506   3.942   6.063
   30CHL1    C7 3337   2.479   3.944   5.845
   30CHL1   H7A 3338   2.463   4.053   5.848
   30CHL1   H7B 3339   2.583   3.930   5.806
   30CHL1    C8 3340   2.392   3.882   5.736
   30CHL1    H8 3341   2.290   3.913   5.767
   30CHL1   C14 3342   2.444   3.925   5.595
   30CHL1   H14 3343   2.548   3.886   5.599
   30CHL1   C15 3344   2.452   4.076   5.561
   30CHL1  H15A 3345   2.374   4.139   5.609
   30CHL1  H15B 3346   2.547   4.122   5.596
   30CHL1   C16 3347   2.449   4.074   5.403
   30CHL1  H16A 3348   2.357   4.131   5.377
   30CHL1  H16B 3349   2.535   4.129   5.360
   30CHL1   C17 3350   2.436   3.928   5.360
   30CHL1   H17 3351   2.537   3.885   5.347
   30CHL1   C13 3352   2.376   3.855   5.480
   30CHL1   C18 3353   2.222   3.894   5.483
   30CHL1  H18A 3354   2.162   3.831   5.415
   30CHL1  H18B 3355   2.182   3.876   5.585
   30CHL1  H18C 3356   2.216   4.002   5.456
   30CHL1   C12 3357   2.395   3.704   5.495
   30CHL1  H12A 3358   2.333   3.644   5.424
   30CHL1  H12B 3359   2.502   3.680   5.474
   30CHL1   C11 3360   2.342   3.648   5.628
   30CHL1  H11A 3361   2.233   3.671   5.629
   30CHL1  H11B 3362   2.341   3.537   5.637
   30CHL1    C9 3363   2.410   3.725   5.750
   30CHL1    H9 3364   2.521   3.719   5.759
   30CHL1   C10 3365   2.368   3.672   5.890
   30CHL1   C19 3366   2.220   3.648   5.896
   30CHL1  H19A 3367   2.166   3.737   5.858
   30CHL1  H19B 3368   2.199   3.564   5.826
   30CHL1  H19C 3369   2.190   3.633   6.001
   30CHL1    C1 3370   2.441   3.537   5.905
   30CHL1   H1A 3371   2.412   3.458   5.832
   30CHL1   H1B 3372   2.551   3.549   5.893
   30CHL1    C2 3373   2.425   3.482   6.048
   30CHL1   H2A 3374   2.482   3.389   6.068
   30CHL1   H2B 3375   2.321   3.448   6.066
   30CHL1   C20 3376   2.387   3.910   5.211
   30CHL1   H20 3377   2.281   3.942   5.215
   30CHL1   C21 3378   2.388   3.766   5.166
   30CHL1  H21A 3379   2.307   3.714   5.222
   30CHL1  H21B 3380   2.484   3.713   5.182
   30CHL1  H21C 3381   2.351   3.769   5.061
   30CHL1   C22 3382   2.477   3.991   5.105
   30CHL1  H22A 3383   2.502   4.096   5.131
   30CHL1  H22B 3384   2.575   3.941   5.090
   30CHL1   C23 3385   2.411   3.990   4.964
   30CHL1  H23A 3386   2.424   3.886   4.927
   30CHL1  H23B 3387   2.305   4.022   4.963
   30CHL1   C24 3388   2.488   4.072   4.860
   30CHL1  H24A 3389   2.471   4.179   4.886
   30CHL1  H24B 3390   2.594   4.046   4.880
   30CHL1   C25 3391   2.463   4.050   4.710
   30CHL1   H25 3392   2.480   3.941   4.698
   30CHL1   C26 3393   2.315   4.081   4.674
   30CHL1  H26A 3394   2.236   4.040   4.742
   30CHL1  H26B 3395   2.303   4.191   4.683
   30CHL1  H26C 3396   2.298   4.036   4.574
   30CHL1   C27 3397   2.565   4.132   4.624
   30CHL1  H27A 3398   2.579   4.102   4.518
   30CHL1  H27B 3399   2.544   4.241   4.626
   30CHL1  H27C 3400   2.661   4.105   4.672
   31CHL1    C3 3401   1.839   4.066   6.360
   31CHL1    H3 3402   1.889   4.162   6.388
   31CHL1    O3 3403   1.799   3.998   6.476
   31CHL1   H3' 3404   1.719   4.037   6.512
   31CHL1    C4 3405   1.720   4.098   6.270
   31CHL1   H4A 3406   1.664   4.004   6.251
   31CHL1   H4B 3407   1.648   4.164   6.324
   31CHL1    C5 3408   1.764   4.171   6.139
   31CHL1    C6 3409   1.721   4.299   6.116
   31CHL1    H6 3410   1.654   4.348   6.188
   31CHL1    C7 3411   1.752   4.363   5.988
   31CHL1   H7A 3412   1.661   4.417   5.956
   31CHL1   H7B 3413   1.831   4.441   5.999
   31CHL1    C8 3414   1.806   4.265   5.875
   31CHL1    H8 3415   1.725   4.201   5.835
   31CHL1   C14 3416   1.867   4.351   5.769
   31CHL1   H14 3417   1.963   4.384   5.813
   31CHL1   C15 3418   1.784   4.463   5.710
   31CHL1  H15A 3419   1.678   4.431   5.701
   31CHL1  H15B 3420   1.776   4.561   5.763
   31CHL1   C16 3421   1.843   4.484   5.572
   31CHL1  H16A 3422   1.765   4.477   5.494
   31CHL1  H16B 3423   1.885   4.586   5.555
   31CHL1   C17 3424   1.945   4.376   5.539
   31CHL1   H17 3425   2.038   4.425   5.577
   31CHL1   C13 3426   1.912   4.269   5.643
   31CHL1   C18 3427   1.798   4.186   5.583
   31CHL1  H18A 3428   1.712   4.252   5.561
   31CHL1  H18B 3429   1.843   4.147   5.489
   31CHL1  H18C 3430   1.767   4.100   5.648
   31CHL1   C12 3431   2.032   4.184   5.691
   31CHL1  H12A 3432   2.082   4.124   5.611
   31CHL1  H12B 3433   2.111   4.254   5.724
   31CHL1   C11 3434   1.998   4.100   5.821
   31CHL1  H11A 3435   1.916   4.032   5.789
   31CHL1  H11B 3436   2.081   4.042   5.867
   31CHL1    C9 3437   1.914   4.176   5.928
   31CHL1    H9 3438   1.982   4.253   5.969
   31CHL1   C10 3439   1.863   4.093   6.052
   31CHL1   C19 3440   1.792   3.961   6.009
   31CHL1  H19A 3441   1.721   3.979   5.926
   31CHL1  H19B 3442   1.866   3.887   5.970
   31CHL1  H19C 3443   1.741   3.908   6.092
   31CHL1    C1 3444   1.988   4.043   6.138
   31CHL1   H1A 3445   2.048   3.969   6.082
   31CHL1   H1B 3446   2.043   4.136   6.166
   31CHL1    C2 3447   1.943   3.975   6.276
   31CHL1   H2A 3448   2.029   3.968   6.345
   31CHL1   H2B 3449   1.903   3.874   6.249
   31CHL1   C20 3450   1.958   4.345   5.390
   31CHL1   H20 3451   1.861   4.304   5.355
   31CHL1   C21 3452   2.066   4.240   5.376
   31CHL1  H21A 3453   2.159   4.269   5.430
   31CHL1  H21B 3454   2.084   4.230   5.267
   31CHL1  H21C 3455   2.032   4.142   5.414
   31CHL1   C22 3456   1.995   4.476   5.315
   31CHL1  H22A 3457   1.907   4.543   5.314
   31CHL1  H22B 3458   2.083   4.529   5.358
   31CHL1   C23 3459   2.018   4.460   5.168
   31CHL1  H23A 3460   2.088   4.382   5.132
   31CHL1  H23B 3461   1.927   4.441   5.107
   31CHL1   C24 3462   2.062   4.600   5.096
   31CHL1  H24A 3463   1.977   4.666   5.068
   31CHL1  H24B 3464   2.137   4.654   5.157
   31CHL1   C25 3465   2.138   4.589   4.963
   31CHL1   H25 3466   2.236   4.540   4.980
   31CHL1   C26 3467   2.069   4.500   4.855
   31CHL1  H26A 3468   2.143   4.488   4.773
   31CHL1  H26B 3469   2.035   4.401   4.893
   31CHL1  H26C 3470   1.978   4.552   4.817
   31CHL1   C27 3471   2.179   4.729   4.899
   31CHL1  H27A 3472   2.095   4.774   4.842
   31CHL1  H27B 3473   2.228   4.785   4.981
   31CHL1  H27C 3474   2.263   4.705   4.831
   32CHL1    C3 3475   1.389   1.907   6.074
   32CHL1    H3 3476   1.443   1.812   6.057
   32CHL1    O3 3477   1.327   1.904   6.203
   32CHL1   H3' 3478   1.401   1.928   6.260
   32CHL1    C4 3479   1.483   2.028   6.063
   32CHL1   H4A 3480   1.450   2.122   6.111
   32CHL1   H4B 3481   1.571   1.992   6.121
   32CHL1    C5 3482   1.520   2.065   5.920
   32CHL1    C6 3483   1.651   2.080   5.885
   32CHL1    H6 3484   1.733   2.054   5.953
   32CHL1    C7 3485   1.701   2.131   5.758
   32CHL1   H7A 3486   1.764   2.222   5.763
   32CHL1   H7B 3487   1.760   2.055   5.701
   32CHL1    C8 3488   1.582   2.176   5.666
   32CHL1    H8 3489   1.559   2.280   5.698
   32CHL1   C14 3490   1.626   2.193   5.519
   32CHL1   H14 3491   1.641   2.085   5.500
   32CHL1   C15 3492   1.769   2.248   5.483
   32CHL1  H15A 3493   1.785   2.345   5.535
   32CHL1  H15B 3494   1.843   2.172   5.515
   32CHL1   C16 3495   1.757   2.275   5.332
   32CHL1  H16A 3496   1.772   2.381   5.305
   32CHL1  H16B 3497   1.818   2.211   5.265
   32CHL1   C17 3498   1.610   2.237   5.285
   32CHL1   H17 3499   1.608   2.128   5.265
   32CHL1   C13 3500   1.525   2.252   5.419
   32CHL1   C18 3501   1.506   2.401   5.449
   32CHL1  H18A 3502   1.477   2.432   5.551
   32CHL1  H18B 3503   1.595   2.458   5.412
   32CHL1  H18C 3504   1.435   2.436   5.371
   32CHL1   C12 3505   1.386   2.175   5.436
   32CHL1  H12A 3506   1.301   2.224   5.384
   32CHL1  H12B 3507   1.391   2.069   5.406
   32CHL1   C11 3508   1.345   2.153   5.580
   32CHL1  H11A 3509   1.305   2.248   5.621
   32CHL1  H11B 3510   1.251   2.093   5.582
   32CHL1    C9 3511   1.457   2.092   5.678
   32CHL1    H9 3512   1.493   1.995   5.639
   32CHL1   C10 3513   1.405   2.075   5.819
   32CHL1   C19 3514   1.319   2.203   5.855
   32CHL1  H19A 3515   1.303   2.202   5.965
   32CHL1  H19B 3516   1.380   2.291   5.826
   32CHL1  H19C 3517   1.218   2.213   5.808
   32CHL1    C1 3518   1.330   1.941   5.832
   32CHL1   H1A 3519   1.246   1.942   5.760
   32CHL1   H1B 3520   1.404   1.862   5.804
   32CHL1    C2 3521   1.278   1.914   5.971
   32CHL1   H2A 3522   1.223   1.818   5.968
   32CHL1   H2B 3523   1.206   1.995   5.998
   32CHL1   C20 3524   1.570   2.307   5.157
   32CHL1   H20 3525   1.580   2.413   5.190
   32CHL1   C21 3526   1.421   2.281   5.115
   32CHL1  H21A 3527   1.403   2.357   5.036
   32CHL1  H21B 3528   1.367   2.292   5.212
   32CHL1  H21C 3529   1.383   2.185   5.075
   32CHL1   C22 3530   1.652   2.286   5.030
   32CHL1  H22A 3531   1.676   2.178   5.022
   32CHL1  H22B 3532   1.585   2.315   4.946
   32CHL1   C23 3533   1.762   2.381   5.007
   32CHL1  H23A 3534   1.742   2.483   5.047
   32CHL1  H23B 3535   1.841   2.337   5.071
   32CHL1   C24 3536   1.814   2.377   4.860
   32CHL1  H24A 3537   1.824   2.267   4.848
   32CHL1  H24B 3538   1.745   2.421   4.784
   32CHL1   C25 3539   1.949   2.451   4.848
   32CHL1   H25 3540   2.015   2.401   4.922
   32CHL1   C26 3541   2.004   2.443   4.706
   32CHL1  H26A 3542   2.113   2.464   4.705
   32CHL1  H26B 3543   1.995   2.338   4.670
   32CHL1  H26C 3544   1.958   2.507   4.627
   32CHL1   C27 3545   1.937   2.605   4.874
   32CHL1  H27A 3546   1.837   2.647   4.853
   32CHL1  H27B 3547   1.958   2.623   4.982
   32CHL1  H27C 3548   2.016   2.657   4.815
   33CHL1    C3 3549   0.132   1.318   5.601
   33CHL1    H3 3550   0.230   1.273   5.629
   33CHL1    O3 3551   0.039   1.291   5.696
   33CHL1   H3' 3552   0.017   1.200   5.674
   33CHL1    C4 3553   0.156   1.472   5.605
   33CHL1   H4A 3554   0.054   1.516   5.613
   33CHL1   H4B 3555   0.204   1.492   5.702
   33CHL1    C5 3556   0.241   1.530   5.499
   33CHL1    C6 3557   0.351   1.606   5.537
   33CHL1    H6 3558   0.381   1.620   5.642
   33CHL1    C7 3559   0.441   1.662   5.429
   33CHL1   H7A 3560   0.463   1.769   5.451
   33CHL1   H7B 3561   0.540   1.612   5.428
   33CHL1    C8 3562   0.375   1.656   5.281
   33CHL1    H8 3563   0.299   1.738   5.277
   33CHL1   C14 3564   0.482   1.681   5.179
   33CHL1   H14 3565   0.553   1.596   5.185
   33CHL1   C15 3566   0.572   1.809   5.191
   33CHL1  H15A 3567   0.518   1.881   5.257
   33CHL1  H15B 3568   0.669   1.802   5.244
   33CHL1   C16 3569   0.606   1.850   5.048
   33CHL1  H16A 3570   0.572   1.952   5.022
   33CHL1  H16B 3571   0.715   1.865   5.035
   33CHL1   C17 3572   0.552   1.729   4.964
   33CHL1   H17 3573   0.631   1.654   4.987
   33CHL1   C13 3574   0.427   1.682   5.036
   33CHL1   C18 3575   0.323   1.791   5.019
   33CHL1  H18A 3576   0.222   1.752   5.043
   33CHL1  H18B 3577   0.339   1.877   5.087
   33CHL1  H18C 3578   0.321   1.818   4.911
   33CHL1   C12 3579   0.379   1.537   4.997
   33CHL1  H12A 3580   0.351   1.527   4.890
   33CHL1  H12B 3581   0.470   1.475   5.010
   33CHL1   C11 3582   0.273   1.492   5.095
   33CHL1  H11A 3583   0.173   1.530   5.065
   33CHL1  H11B 3584   0.268   1.382   5.082
   33CHL1    C9 3585   0.309   1.517   5.245
   33CHL1    H9 3586   0.389   1.447   5.275
   33CHL1   C10 3587   0.199   1.489   5.350
   33CHL1   C19 3588   0.079   1.568   5.309
   33CHL1  H19A 3589   0.003   1.571   5.389
   33CHL1  H19B 3590   0.099   1.672   5.276
   33CHL1  H19C 3591   0.031   1.523   5.219
   33CHL1    C1 3592   0.161   1.336   5.349
   33CHL1   H1A 3593   0.115   1.319   5.249
   33CHL1   H1B 3594   0.255   1.277   5.348
   33CHL1    C2 3595   0.079   1.270   5.464
   33CHL1   H2A 3596   0.081   1.160   5.451
   33CHL1   H2B 3597   6.751   1.305   5.448
   33CHL1   C20 3598   0.556   1.742   4.811
   33CHL1   H20 3599   0.458   1.759   4.763
   33CHL1   C21 3600   0.613   1.608   4.755
   33CHL1  H21A 3601   0.620   1.615   4.645
   33CHL1  H21B 3602   0.546   1.521   4.772
   33CHL1  H21C 3603   0.707   1.570   4.800
   33CHL1   C22 3604   0.644   1.864   4.760
   33CHL1  H22A 3605   0.598   1.948   4.817
   33CHL1  H22B 3606   0.747   1.854   4.799
   33CHL1   C23 3607   0.640   1.881   4.608
   33CHL1  H23A 3608   0.686   1.788   4.567
   33CHL1  H23B 3609   0.534   1.878   4.576
   33CHL1   C24 3610   0.705   2.009   4.557
   33CHL1  H24A 3611   0.651   2.098   4.594
   33CHL1  H24B 3612   0.809   2.012   4.597
   33CHL1   C25 3613   0.703   2.013   4.410
   33CHL1   H25 3614   0.598   2.011   4.376
   33CHL1   C26 3615   0.751   2.145   4.361
   33CHL1  H26A 3616   0.861   2.157   4.363
   33CHL1  H26B 3617   0.712   2.154   4.257
   33CHL1  H26C 3618   0.704   2.223   4.426
   33CHL1   C27 3619   0.782   1.899   4.334
   33CHL1  H27A 3620   0.747   1.801   4.372
   33CHL1  H27B 3621   0.760   1.914   4.226
   33CHL1  H27C 3622   0.892   1.894   4.349
   34CHL1    C3 3623   1.547   2.575   6.276
   34CHL1    H3 3624   1.646   2.601   6.320
   34CHL1    O3 3625   1.452   2.533   6.372
   34CHL1   H3' 3626   1.362   2.534   6.338
   34CHL1    C4 3627   1.499   2.705   6.212
   34CHL1   H4A 3628   1.392   2.689   6.187
   34CHL1   H4B 3629   1.496   2.788   6.287
   34CHL1    C5 3630   1.566   2.745   6.079
   34CHL1    C6 3631   1.612   2.874   6.063
   34CHL1    H6 3632   1.609   2.954   6.139
   34CHL1    C7 3633   1.689   2.916   5.941
   34CHL1   H7A 3634   1.656   3.019   5.916
   34CHL1   H7B 3635   1.798   2.921   5.961
   34CHL1    C8 3636   1.675   2.816   5.825
   34CHL1    H8 3637   1.574   2.842   5.788
   34CHL1   C14 3638   1.764   2.860   5.706
   34CHL1   H14 3639   1.866   2.855   5.750
   34CHL1   C15 3640   1.753   3.003   5.661
   34CHL1  H15A 3641   1.643   3.018   5.665
   34CHL1  H15B 3642   1.794   3.074   5.736
   34CHL1   C16 3643   1.803   3.022   5.521
   34CHL1  H16A 3644   1.722   3.069   5.461
   34CHL1  H16B 3645   1.903   3.071   5.517
   34CHL1   C17 3646   1.829   2.868   5.480
   34CHL1   H17 3647   1.935   2.843   5.500
   34CHL1   C13 3648   1.746   2.779   5.576
   34CHL1   C18 3649   1.602   2.785   5.526
   34CHL1  H18A 3650   1.543   2.733   5.604
   34CHL1  H18B 3651   1.554   2.884   5.513
   34CHL1  H18C 3652   1.586   2.723   5.435
   34CHL1   C12 3653   1.786   2.633   5.624
   34CHL1  H12A 3654   1.798   2.562   5.540
   34CHL1  H12B 3655   1.888   2.643   5.666
   34CHL1   C11 3656   1.692   2.576   5.737
   34CHL1  H11A 3657   1.589   2.557   5.698
   34CHL1  H11B 3658   1.727   2.472   5.758
   34CHL1    C9 3659   1.688   2.671   5.863
   34CHL1    H9 3660   1.790   2.664   5.906
   34CHL1   C10 3661   1.591   2.636   5.977
   34CHL1   C19 3662   1.444   2.601   5.921
   34CHL1  H19A 3663   1.454   2.524   5.842
   34CHL1  H19B 3664   1.387   2.550   6.002
   34CHL1  H19C 3665   1.386   2.688   5.883
   34CHL1    C1 3666   1.638   2.510   6.054
   34CHL1   H1A 3667   1.646   2.432   5.976
   34CHL1   H1B 3668   1.742   2.525   6.091
   34CHL1    C2 3669   1.557   2.459   6.170
   34CHL1   H2A 3670   1.607   2.371   6.216
   34CHL1   H2B 3671   1.454   2.434   6.136
   34CHL1   C20 3672   1.811   2.850   5.324
   34CHL1   H20 3673   1.702   2.861   5.303
   34CHL1   C21 3674   1.873   2.713   5.287
   34CHL1  H21A 3675   1.805   2.637   5.330
   34CHL1  H21B 3676   1.978   2.702   5.324
   34CHL1  H21C 3677   1.879   2.706   5.177
   34CHL1   C22 3678   1.882   2.961   5.240
   34CHL1  H22A 3679   1.855   3.061   5.282
   34CHL1  H22B 3680   1.991   2.961   5.257
   34CHL1   C23 3681   1.834   2.959   5.090
   34CHL1  H23A 3682   1.843   2.855   5.052
   34CHL1  H23B 3683   1.725   2.980   5.090
   34CHL1   C24 3684   1.896   3.068   5.002
   34CHL1  H24A 3685   1.897   3.169   5.049
   34CHL1  H24B 3686   2.003   3.050   4.980
   34CHL1   C25 3687   1.817   3.082   4.867
   34CHL1   H25 3688   1.715   3.110   4.901
   34CHL1   C26 3689   1.873   3.212   4.798
   34CHL1  H26A 3690   1.867   3.296   4.870
   34CHL1  H26B 3691   1.974   3.196   4.754
   34CHL1  H26C 3692   1.812   3.239   4.709
   34CHL1   C27 3693   1.823   2.956   4.782
   34CHL1  H27A 3694   1.929   2.926   4.775
   34CHL1  H27B 3695   1.752   2.881   4.823
   34CHL1  H27C 3696   1.787   2.979   4.679
   35CHL1    C3 3697   3.783   5.347   6.361
   35CHL1    H3 3698   3.773   5.238   6.344
   35CHL1    O3 3699   3.761   5.357   6.496
   35CHL1   H3' 3700   3.789   5.445   6.522
   35CHL1    C4 3701   3.916   5.404   6.323
   35CHL1   H4A 3702   3.923   5.510   6.357
   35CHL1   H4B 3703   3.996   5.347   6.375
   35CHL1    C5 3704   3.932   5.409   6.176
   35CHL1    C6 3705   4.034   5.359   6.115
   35CHL1    H6 3706   4.113   5.304   6.167
   35CHL1    C7 3707   4.068   5.364   5.963
   35CHL1   H7A 3708   4.173   5.396   5.949
   35CHL1   H7B 3709   4.049   5.260   5.930
   35CHL1    C8 3710   3.964   5.464   5.892
   35CHL1    H8 3711   4.001   5.566   5.915
   35CHL1   C14 3712   3.963   5.439   5.744
   35CHL1   H14 3713   3.943   5.330   5.740
   35CHL1   C15 3714   4.101   5.452   5.679
   35CHL1  H15A 3715   4.147   5.545   5.719
   35CHL1  H15B 3716   4.171   5.370   5.703
   35CHL1   C16 3717   4.066   5.469   5.530
   35CHL1  H16A 3718   4.111   5.565   5.496
   35CHL1  H16B 3719   4.114   5.384   5.477
   35CHL1   C17 3720   3.910   5.475   5.519
   35CHL1   H17 3721   3.883   5.367   5.518
   35CHL1   C13 3722   3.861   5.519   5.659
   35CHL1   C18 3723   3.882   5.670   5.682
   35CHL1  H18A 3724   3.984   5.704   5.653
   35CHL1  H18B 3725   3.801   5.724   5.628
   35CHL1  H18C 3726   3.870   5.697   5.788
   35CHL1   C12 3727   3.721   5.480   5.707
   35CHL1  H12A 3728   3.645   5.534   5.646
   35CHL1  H12B 3729   3.711   5.373   5.678
   35CHL1   C11 3730   3.701   5.500   5.858
   35CHL1  H11A 3731   3.669   5.605   5.877
   35CHL1  H11B 3732   3.614   5.438   5.887
   35CHL1    C9 3733   3.820   5.445   5.943
   35CHL1    H9 3734   3.803   5.336   5.927
   35CHL1   C10 3735   3.811   5.475   6.098
   35CHL1   C19 3736   3.814   5.633   6.122
   35CHL1  H19A 3737   3.741   5.677   6.051
   35CHL1  H19B 3738   3.783   5.655   6.227
   35CHL1  H19C 3739   3.915   5.670   6.094
   35CHL1    C1 3740   3.674   5.422   6.145
   35CHL1   H1A 3741   3.596   5.488   6.099
   35CHL1   H1B 3742   3.656   5.321   6.102
   35CHL1    C2 3743   3.659   5.423   6.296
   35CHL1   H2A 3744   3.566   5.373   6.331
   35CHL1   H2B 3745   3.666   5.526   6.338
   35CHL1   C20 3746   3.844   5.532   5.392
   35CHL1   H20 3747   3.750   5.582   5.423
   35CHL1   C21 3748   3.783   5.423   5.300
   35CHL1  H21A 3749   3.748   5.341   5.366
   35CHL1  H21B 3750   3.857   5.382   5.228
   35CHL1  H21C 3751   3.696   5.457   5.241
   35CHL1   C22 3752   3.932   5.622   5.304
   35CHL1  H22A 3753   3.963   5.718   5.352
   35CHL1  H22B 3754   4.025   5.570   5.274
   35CHL1   C23 3755   3.860   5.675   5.182
   35CHL1  H23A 3756   3.829   5.594   5.113
   35CHL1  H23B 3757   3.770   5.734   5.210
   35CHL1   C24 3758   3.963   5.753   5.099
   35CHL1  H24A 3759   3.996   5.846   5.149
   35CHL1  H24B 3760   4.041   5.674   5.087
   35CHL1   C25 3761   3.906   5.792   4.955
   35CHL1   H25 3762   3.869   5.695   4.914
   35CHL1   C26 3763   3.783   5.885   4.971
   35CHL1  H26A 3764   3.761   5.901   4.863
   35CHL1  H26B 3765   3.698   5.835   5.022
   35CHL1  H26C 3766   3.800   5.978   5.029
   35CHL1   C27 3767   4.006   5.834   4.855
   35CHL1  H27A 3768   4.064   5.927   4.878
   35CHL1  H27B 3769   4.083   5.756   4.839
   35CHL1  H27C 3770   3.955   5.835   4.756
   36CHL1    C3 3771   6.482   3.995   5.995
   36CHL1    H3 3772   6.564   4.065   5.968
   36CHL1    O3 3773   6.469   3.994   6.133
   36CHL1   H3' 3774   6.390   3.942   6.149
   36CHL1    C4 3775   6.354   4.040   5.932
   36CHL1   H4A 3776   6.271   3.971   5.957
   36CHL1   H4B 3777   6.313   4.132   5.978
   36CHL1    C5 3778   6.370   4.068   5.780
   36CHL1    C6 3779   6.351   4.182   5.721
   36CHL1    H6 3780   6.333   4.270   5.784
   36CHL1    C7 3781   6.373   4.211   5.573
   36CHL1   H7A 3782   6.295   4.276   5.527
   36CHL1   H7B 3783   6.467   4.267   5.553
   36CHL1    C8 3784   6.375   4.089   5.483
   36CHL1    H8 3785   6.273   4.044   5.477
   36CHL1   C14 3786   6.435   4.112   5.342
   36CHL1   H14 3787   6.540   4.130   5.373
   36CHL1   C15 3788   6.383   4.223   5.254
   36CHL1  H15A 3789   6.274   4.201   5.244
   36CHL1  H15B 3790   6.365   4.326   5.290
   36CHL1   C16 3791   6.443   4.192   5.119
   36CHL1  H16A 3792   6.365   4.198   5.041
   36CHL1  H16B 3793   6.520   4.271   5.102
   36CHL1   C17 3794   6.511   4.051   5.126
   36CHL1   H17 3795   6.620   4.072   5.137
   36CHL1   C13 3796   6.447   3.987   5.251
   36CHL1   C18 3797   6.310   3.929   5.216
   36CHL1  H18A 3798   6.228   4.000   5.194
   36CHL1  H18B 3799   6.316   3.853   5.135
   36CHL1  H18C 3800   6.273   3.878   5.307
   36CHL1   C12 3801   6.523   3.878   5.329
   36CHL1  H12A 3802   6.494   3.791   5.267
   36CHL1  H12B 3803   6.630   3.908   5.334
   36CHL1   C11 3804   6.472   3.859   5.468
   36CHL1  H11A 3805   6.375   3.806   5.459
   36CHL1  H11B 3806   6.545   3.797   5.524
   36CHL1    C9 3807   6.454   3.982   5.558
   36CHL1    H9 3808   6.548   4.029   5.594
   36CHL1   C10 3809   6.409   3.943   5.705
   36CHL1   C19 3810   6.285   3.858   5.697
   36CHL1  H19A 3811   6.295   3.762   5.642
   36CHL1  H19B 3812   6.252   3.836   5.801
   36CHL1  H19C 3813   6.205   3.910   5.641
   36CHL1    C1 3814   6.530   3.875   5.781
   36CHL1   H1A 3815   6.546   3.776   5.733
   36CHL1   H1B 3816   6.619   3.941   5.785
   36CHL1    C2 3817   6.505   3.858   5.931
   36CHL1   H2A 3818   6.597   3.816   5.978
   36CHL1   H2B 3819   6.422   3.788   5.954
   36CHL1   C20 3820   6.500   3.985   4.990
   36CHL1   H20 3821   6.395   3.977   4.953
   36CHL1   C21 3822   6.569   3.846   4.997
   36CHL1  H21A 3823   6.515   3.783   5.071
   36CHL1  H21B 3824   6.675   3.842   5.029
   36CHL1  H21C 3825   6.577   3.794   4.899
   36CHL1   C22 3826   6.557   4.078   4.884
   36CHL1  H22A 3827   6.500   4.173   4.882
   36CHL1  H22B 3828   6.662   4.101   4.909
   36CHL1   C23 3829   6.565   4.017   4.732
   36CHL1  H23A 3830   6.647   3.944   4.743
   36CHL1  H23B 3831   6.473   3.956   4.717
   36CHL1   C24 3832   6.575   4.114   4.615
   36CHL1  H24A 3833   6.475   4.159   4.598
   36CHL1  H24B 3834   6.638   4.195   4.656
   36CHL1   C25 3835   6.634   4.060   4.480
   36CHL1   H25 3836   6.566   3.996   4.420
   36CHL1   C26 3837   6.643   4.184   4.383
   36CHL1  H26A 3838   6.727   4.250   4.413
   36CHL1  H26B 3839   6.643   4.150   4.278
   36CHL1  H26C 3840   6.554   4.250   4.397
   36CHL1   C27 3841   6.763   3.978   4.507
   36CHL1  H27A 3842   6.743   3.885   4.564
   36CHL1  H27B 3843   0.039   3.945   4.415
   36CHL1  H27C 3844   0.065   4.034   4.562
   37CHL1    C3 3845   0.349   0.042   5.498
   37CHL1    H3 3846   0.433   6.751   5.521
   37CHL1    O3 3847   0.257   0.041   5.609
   37CHL1   H3' 3848   0.314   0.073   5.680
   37CHL1    C4 3849   0.399   0.186   5.467
   37CHL1   H4A 3850   0.322   0.265   5.460
   37CHL1   H4B 3851   0.457   0.213   5.558
   37CHL1    C5 3852   0.484   0.187   5.339
   37CHL1    C6 3853   0.610   0.226   5.344
   37CHL1    H6 3854   0.653   0.248   5.443
   37CHL1    C7 3855   0.689   0.224   5.220
   37CHL1   H7A 3856   0.764   0.305   5.213
   37CHL1   H7B 3857   0.749   0.130   5.219
   37CHL1    C8 3858   0.610   0.232   5.087
   37CHL1    H8 3859   0.560   0.331   5.085
   37CHL1   C14 3860   0.692   0.206   4.961
   37CHL1   H14 3861   0.733   0.104   4.978
   37CHL1   C15 3862   0.823   0.293   4.944
   37CHL1  H15A 3863   0.787   0.391   4.984
   37CHL1  H15B 3864   0.902   0.265   5.017
   37CHL1   C16 3865   0.856   0.288   4.804
   37CHL1  H16A 3866   0.877   0.390   4.765
   37CHL1  H16B 3867   0.957   0.246   4.787
   37CHL1   C17 3868   0.750   0.205   4.731
   37CHL1   H17 3869   0.784   0.099   4.728
   37CHL1   C13 3870   0.623   0.204   4.830
   37CHL1   C18 3871   0.540   0.334   4.808
   37CHL1  H18A 3872   0.608   0.421   4.809
   37CHL1  H18B 3873   0.494   0.337   4.707
   37CHL1  H18C 3874   0.466   0.352   4.889
   37CHL1   C12 3875   0.524   0.085   4.830
   37CHL1  H12A 3876   0.457   0.080   4.742
   37CHL1  H12B 3877   0.587   6.770   4.834
   37CHL1   C11 3878   0.427   0.102   4.949
   37CHL1  H11A 3879   0.346   0.173   4.919
   37CHL1  H11B 3880   0.365   0.010   4.954
   37CHL1    C9 3881   0.492   0.130   5.086
   37CHL1    H9 3882   0.552   0.038   5.105
   37CHL1   C10 3883   0.404   0.138   5.216
   37CHL1   C19 3884   0.291   0.239   5.194
   37CHL1  H19A 3885   0.334   0.341   5.186
   37CHL1  H19B 3886   0.242   0.222   5.095
   37CHL1  H19C 3887   0.209   0.233   5.269
   37CHL1    C1 3888   0.362   6.769   5.248
   37CHL1   H1A 3889   0.308   6.721   5.163
   37CHL1   H1B 3890   0.453   6.706   5.244
   37CHL1    C2 3891   0.276   6.759   5.376
   37CHL1   H2A 3892   0.237   6.655   5.382
   37CHL1   H2B 3893   0.183   0.041   5.360
   37CHL1   C20 3894   0.737   0.243   4.587
   37CHL1   H20 3895   0.703   0.349   4.584
   37CHL1   C21 3896   0.619   0.173   4.519
   37CHL1  H21A 3897   0.629   0.064   4.505
   37CHL1  H21B 3898   0.607   0.229   4.423
   37CHL1  H21C 3899   0.521   0.207   4.558
   37CHL1   C22 3900   0.873   0.221   4.502
   37CHL1  H22A 3901   0.843   0.259   4.402
   37CHL1  H22B 3902   0.955   0.279   4.549
   37CHL1   C23 3903   0.915   0.074   4.483
   37CHL1  H23A 3904   0.952   0.029   4.577
   37CHL1  H23B 3905   0.821   0.021   4.458
   37CHL1   C24 3906   1.029   0.059   4.379
   37CHL1  H24A 3907   0.994   0.089   4.277
   37CHL1  H24B 3908   1.112   0.124   4.414
   37CHL1   C25 3909   1.089   6.692   4.359
   37CHL1   H25 3910   1.164   6.715   4.281
   37CHL1   C26 3911   1.163   6.645   4.487
   37CHL1  H26A 3912   1.086   6.624   4.564
   37CHL1  H26B 3913   1.224   6.554   4.466
   37CHL1  H26C 3914   1.233   6.725   4.519
   37CHL1   C27 3915   0.988   6.594   4.309
   37CHL1  H27A 3916   1.036   6.499   4.279
   37CHL1  H27B 3917   0.902   6.581   4.378
   37CHL1  H27C 3918   0.944   6.624   4.212
   38CHL1    C3 3919   0.905   0.961   6.305
   38CHL1    H3 3920   1.011   0.944   6.333
   38CHL1    O3 3921   0.817   0.963   6.414
   38CHL1   H3' 3922   0.759   1.035   6.384
   38CHL1    C4 3923   0.896   1.096   6.233
   38CHL1   H4A 3924   0.790   1.126   6.217
   38CHL1   H4B 3925   0.943   1.162   6.309
   38CHL1    C5 3926   0.971   1.098   6.101
   38CHL1    C6 3927   1.061   1.194   6.080
   38CHL1    H6 3928   1.092   1.264   6.159
   38CHL1    C7 3929   1.124   1.201   5.942
   38CHL1   H7A 3930   1.115   1.309   5.918
   38CHL1   H7B 3931   1.231   1.171   5.945
   38CHL1    C8 3932   1.053   1.118   5.829
   38CHL1    H8 3933   0.955   1.167   5.808
   38CHL1   C14 3934   1.133   1.104   5.700
   38CHL1   H14 3935   1.224   1.061   5.747
   38CHL1   C15 3936   1.196   1.229   5.647
   38CHL1  H15A 3937   1.140   1.324   5.644
   38CHL1  H15B 3938   1.294   1.262   5.688
   38CHL1   C16 3939   1.227   1.189   5.503
   38CHL1  H16A 3940   1.186   1.252   5.421
   38CHL1  H16B 3941   1.337   1.184   5.488
   38CHL1   C17 3942   1.180   1.039   5.488
   38CHL1   H17 3943   1.271   0.987   5.525
   38CHL1   C13 3944   1.075   1.022   5.586
   38CHL1   C18 3945   0.945   1.078   5.523
   38CHL1  H18A 3946   0.861   1.091   5.594
   38CHL1  H18B 3947   0.961   1.176   5.472
   38CHL1  H18C 3948   0.904   1.002   5.453
   38CHL1   C12 3949   1.053   0.882   5.637
   38CHL1  H12A 3950   1.015   0.810   5.561
   38CHL1  H12B 3951   1.143   0.842   5.688
   38CHL1   C11 3952   0.956   0.887   5.765
   38CHL1  H11A 3953   0.858   0.911   5.719
   38CHL1  H11B 3954   0.948   0.782   5.800
   38CHL1    C9 3955   1.015   0.974   5.879
   38CHL1    H9 3956   1.110   0.927   5.913
   38CHL1   C10 3957   0.926   0.982   6.003
   38CHL1   C19 3958   0.780   1.002   5.959
   38CHL1  H19A 3959   0.719   1.003   6.052
   38CHL1  H19B 3960   0.765   1.088   5.890
   38CHL1  H19C 3961   0.735   0.915   5.907
   38CHL1    C1 3962   0.933   0.846   6.076
   38CHL1   H1A 3963   0.906   0.760   6.012
   38CHL1   H1B 3964   1.040   0.831   6.103
   38CHL1    C2 3965   0.859   0.843   6.212
   38CHL1   H2A 3966   0.875   0.746   6.263
   38CHL1   H2B 3967   0.751   0.857   6.190
   38CHL1   C20 3968   1.159   1.002   5.336
   38CHL1   H20 3969   1.079   1.068   5.298
   38CHL1   C21 3970   1.115   0.855   5.311
   38CHL1  H21A 3971   1.029   0.817   5.372
   38CHL1  H21B 3972   1.195   0.781   5.331
   38CHL1  H21C 3973   1.094   0.839   5.203
   38CHL1   C22 3974   1.289   1.020   5.252
   38CHL1  H22A 3975   1.325   1.123   5.272
   38CHL1  H22B 3976   1.371   0.955   5.288
   38CHL1   C23 3977   1.279   1.004   5.099
   38CHL1  H23A 3978   1.253   0.897   5.087
   38CHL1  H23B 3979   1.195   1.062   5.056
   38CHL1   C24 3980   1.410   1.025   5.029
   38CHL1  H24A 3981   1.441   1.130   5.048
   38CHL1  H24B 3982   1.491   0.956   5.060
   38CHL1   C25 3983   1.406   1.000   4.876
   38CHL1   H25 3984   1.325   1.065   4.838
   38CHL1   C26 3985   1.541   1.036   4.815
   38CHL1  H26A 3986   1.554   1.147   4.810
   38CHL1  H26B 3987   1.633   0.995   4.862
   38CHL1  H26C 3988   1.523   0.993   4.714
   38CHL1   C27 3989   1.371   0.853   4.842
   38CHL1  H27A 3990   1.265   0.835   4.870
   38CHL1  H27B 3991   1.377   0.844   4.731
   38CHL1  H27C 3992   1.439   0.782   4.893
   39CHL1    C3 3993   2.982   1.978   6.480
   39CHL1    H3 3994   3.092   1.990   6.468
   39CHL1    O3 3995   2.937   1.988   6.608
   39CHL1   H3' 3996   2.880   1.915   6.633
   39CHL1    C4 3997   2.895   2.067   6.384
   39CHL1   H4A 3998   2.787   2.050   6.398
   39CHL1   H4B 3999   2.913   2.173   6.411
   39CHL1    C5 4000   2.926   2.046   6.233
   39CHL1    C6 4001   2.978   2.146   6.160
   39CHL1    H6 4002   2.982   2.247   6.204
   39CHL1    C7 4003   3.013   2.130   6.012
   39CHL1   H7A 4004   2.972   2.212   5.949
   39CHL1   H7B 4005   3.123   2.141   6.019
   39CHL1    C8 4006   2.968   1.994   5.958
   39CHL1    H8 4007   2.857   1.984   5.956
   39CHL1   C14 4008   3.028   1.976   5.824
   39CHL1   H14 4009   3.138   1.971   5.841
   39CHL1   C15 4010   3.000   2.086   5.720
   39CHL1  H15A 4011   2.894   2.118   5.720
   39CHL1  H15B 4012   3.061   2.177   5.736
   39CHL1   C16 4013   3.047   2.010   5.587
   39CHL1  H16A 4014   2.967   2.043   5.518
   39CHL1  H16B 4015   3.141   2.052   5.544
   39CHL1   C17 4016   3.045   1.860   5.618
   39CHL1   H17 4017   3.149   1.826   5.638
   39CHL1   C13 4018   2.981   1.843   5.758
   39CHL1   C18 4019   2.824   1.836   5.731
   39CHL1  H18A 4020   2.793   1.735   5.695
   39CHL1  H18B 4021   2.789   1.841   5.836
   39CHL1  H18C 4022   2.791   1.919   5.665
   39CHL1   C12 4023   3.044   1.735   5.842
   39CHL1  H12A 4024   3.037   1.631   5.803
   39CHL1  H12B 4025   3.155   1.742   5.845
   39CHL1   C11 4026   2.989   1.741   5.984
   39CHL1  H11A 4027   2.881   1.722   5.968
   39CHL1  H11B 4028   3.021   1.653   6.043
   39CHL1    C9 4029   3.005   1.884   6.057
   39CHL1    H9 4030   3.114   1.893   6.081
   39CHL1   C10 4031   2.931   1.899   6.187
   39CHL1   C19 4032   2.786   1.852   6.182
   39CHL1  H19A 4033   2.735   1.873   6.278
   39CHL1  H19B 4034   2.723   1.885   6.096
   39CHL1  H19C 4035   2.775   1.743   6.168
   39CHL1    C1 4036   3.006   1.809   6.296
   39CHL1   H1A 4037   2.997   1.704   6.259
   39CHL1   H1B 4038   3.115   1.831   6.290
   39CHL1    C2 4039   2.960   1.830   6.435
   39CHL1   H2A 4040   3.024   1.762   6.495
   39CHL1   H2B 4041   2.852   1.809   6.453
   39CHL1   C20 4042   2.996   1.775   5.507
   39CHL1   H20 4043   2.897   1.810   5.471
   39CHL1   C21 4044   3.010   1.634   5.547
   39CHL1  H21A 4045   3.111   1.601   5.577
   39CHL1  H21B 4046   2.975   1.571   5.462
   39CHL1  H21C 4047   2.938   1.616   5.630
   39CHL1   C22 4048   3.087   1.801   5.381
   39CHL1  H22A 4049   3.083   1.910   5.363
   39CHL1  H22B 4050   3.192   1.770   5.399
   39CHL1   C23 4051   3.038   1.722   5.261
   39CHL1  H23A 4052   3.068   1.616   5.251
   39CHL1  H23B 4053   2.927   1.714   5.259
   39CHL1   C24 4054   3.071   1.777   5.118
   39CHL1  H24A 4055   2.990   1.847   5.085
   39CHL1  H24B 4056   3.168   1.829   5.130
   39CHL1   C25 4057   3.093   1.680   4.999
   39CHL1   H25 4058   3.177   1.612   5.027
   39CHL1   C26 4059   2.983   1.584   4.982
   39CHL1  H26A 4060   2.902   1.631   4.923
   39CHL1  H26B 4061   3.020   1.509   4.908
   39CHL1  H26C 4062   2.931   1.539   5.069
   39CHL1   C27 4063   3.113   1.754   4.874
   39CHL1  H27A 4064   3.151   1.688   4.793
   39CHL1  H27B 4065   3.022   1.803   4.834
   39CHL1  H27C 4066   3.202   1.820   4.881
   40CHL1    C3 4067   3.324   4.457   6.312
   40CHL1    H3 4068   3.320   4.346   6.312
   40CHL1    O3 4069   3.297   4.504   6.443
   40CHL1   H3' 4070   3.382   4.515   6.486
   40CHL1    C4 4071   3.460   4.501   6.254
   40CHL1   H4A 4072   3.468   4.608   6.286
   40CHL1   H4B 4073   3.528   4.439   6.316
   40CHL1    C5 4074   3.481   4.479   6.104
   40CHL1    C6 4075   3.579   4.396   6.050
   40CHL1    H6 4076   3.643   4.341   6.122
   40CHL1    C7 4077   3.597   4.368   5.898
   40CHL1   H7A 4078   3.704   4.366   5.867
   40CHL1   H7B 4079   3.559   4.265   5.885
   40CHL1    C8 4080   3.520   4.470   5.812
   40CHL1    H8 4081   3.579   4.564   5.816
   40CHL1   C14 4082   3.512   4.427   5.671
   40CHL1   H14 4083   3.459   4.330   5.664
   40CHL1   C15 4084   3.643   4.384   5.593
   40CHL1  H15A 4085   3.729   4.452   5.612
   40CHL1  H15B 4086   3.674   4.279   5.613
   40CHL1   C16 4087   3.601   4.394   5.446
   40CHL1  H16A 4088   3.669   4.467   5.397
   40CHL1  H16B 4089   3.623   4.301   5.389
   40CHL1   C17 4090   3.461   4.451   5.434
   40CHL1   H17 4091   3.391   4.365   5.432
   40CHL1   C13 4092   3.441   4.519   5.572
   40CHL1   C18 4093   3.504   4.654   5.561
   40CHL1  H18A 4094   3.613   4.652   5.539
   40CHL1  H18B 4095   3.441   4.718   5.496
   40CHL1  H18C 4096   3.498   4.702   5.661
   40CHL1   C12 4097   3.289   4.536   5.618
   40CHL1  H12A 4098   3.229   4.604   5.554
   40CHL1  H12B 4099   3.250   4.433   5.611
   40CHL1   C11 4100   3.284   4.584   5.769
   40CHL1  H11A 4101   3.320   4.689   5.770
   40CHL1  H11B 4102   3.179   4.572   5.803
   40CHL1    C9 4103   3.378   4.502   5.864
   40CHL1    H9 4104   3.326   4.404   5.865
   40CHL1   C10 4105   3.374   4.540   6.014
   40CHL1   C19 4106   3.380   4.695   6.010
   40CHL1  H19A 4107   3.277   4.732   5.988
   40CHL1  H19B 4108   3.412   4.737   6.107
   40CHL1  H19C 4109   3.458   4.734   5.941
   40CHL1    C1 4110   3.243   4.483   6.076
   40CHL1   H1A 4111   3.152   4.517   6.022
   40CHL1   H1B 4112   3.243   4.373   6.060
   40CHL1    C2 4113   3.211   4.503   6.223
   40CHL1   H2A 4114   3.111   4.460   6.242
   40CHL1   H2B 4115   3.194   4.611   6.244
   40CHL1   C20 4116   3.440   4.535   5.302
   40CHL1   H20 4117   3.513   4.619   5.297
   40CHL1   C21 4118   3.291   4.586   5.295
   40CHL1  H21A 4119   3.257   4.616   5.194
   40CHL1  H21B 4120   3.286   4.677   5.358
   40CHL1  H21C 4121   3.237   4.500   5.341
   40CHL1   C22 4122   3.470   4.441   5.182
   40CHL1  H22A 4123   3.578   4.414   5.188
   40CHL1  H22B 4124   3.419   4.343   5.193
   40CHL1   C23 4125   3.432   4.497   5.049
   40CHL1  H23A 4126   3.321   4.491   5.049
   40CHL1  H23B 4127   3.471   4.601   5.047
   40CHL1   C24 4128   3.496   4.425   4.929
   40CHL1  H24A 4129   3.606   4.434   4.937
   40CHL1  H24B 4130   3.464   4.318   4.927
   40CHL1   C25 4131   3.444   4.493   4.797
   40CHL1   H25 4132   3.480   4.598   4.795
   40CHL1   C26 4133   3.503   4.419   4.681
   40CHL1  H26A 4134   3.505   4.308   4.684
   40CHL1  H26B 4135   3.471   4.459   4.583
   40CHL1  H26C 4136   3.612   4.432   4.696
   40CHL1   C27 4137   3.289   4.512   4.784
   40CHL1  H27A 4138   3.268   4.556   4.684
   40CHL1  H27B 4139   3.238   4.413   4.784
   40CHL1  H27C 4140   3.241   4.579   4.859
   41CHL1    C3 4141   0.459   4.877   5.930
   41CHL1    H3 4142   0.567   4.856   5.919
   41CHL1    O3 4143   0.427   4.888   6.067
   41CHL1   H3' 4144   0.333   4.903   6.077
   41CHL1    C4 4145   0.404   5.000   5.861
   41CHL1   H4A 4146   0.297   5.017   5.887
   41CHL1   H4B 4147   0.465   5.082   5.905
   41CHL1    C5 4148   0.410   4.995   5.706
   41CHL1    C6 4149   0.480   5.078   5.633
   41CHL1    H6 4150   0.540   5.156   5.683
   41CHL1    C7 4151   0.490   5.074   5.480
   41CHL1   H7A 4152   0.470   5.180   5.455
   41CHL1   H7B 4153   0.595   5.053   5.451
   41CHL1    C8 4154   0.393   4.984   5.418
   41CHL1    H8 4155   0.297   5.041   5.422
   41CHL1   C14 4156   0.435   4.948   5.281
   41CHL1   H14 4157   0.526   4.885   5.283
   41CHL1   C15 4158   0.466   5.064   5.176
   41CHL1  H15A 4159   0.396   5.148   5.192
   41CHL1  H15B 4160   0.567   5.094   5.209
   41CHL1   C16 4161   0.465   5.007   5.039
   41CHL1  H16A 4162   0.391   5.067   4.979
   41CHL1  H16B 4163   0.563   4.989   4.990
   41CHL1   C17 4164   0.411   4.864   5.059
   41CHL1   H17 4165   0.503   4.802   5.069
   41CHL1   C13 4166   0.344   4.862   5.200
   41CHL1   C18 4167   0.217   4.933   5.191
   41CHL1  H18A 4168   0.223   5.041   5.166
   41CHL1  H18B 4169   0.144   4.884   5.122
   41CHL1  H18C 4170   0.164   4.932   5.288
   41CHL1   C12 4171   0.327   4.722   5.269
   41CHL1  H12A 4172   0.250   4.669   5.210
   41CHL1  H12B 4173   0.426   4.672   5.266
   41CHL1   C11 4174   0.284   4.747   5.412
   41CHL1  H11A 4175   0.183   4.792   5.409
   41CHL1  H11B 4176   0.275   4.644   5.454
   41CHL1    C9 4177   0.371   4.852   5.498
   41CHL1    H9 4178   0.473   4.808   5.495
   41CHL1   C10 4179   0.347   4.867   5.645
   41CHL1   C19 4180   0.190   4.881   5.652
   41CHL1  H19A 4181   0.161   4.962   5.582
   41CHL1  H19B 4182   0.137   4.787   5.624
   41CHL1  H19C 4183   0.160   4.908   5.755
   41CHL1    C1 4184   0.403   4.749   5.722
   41CHL1   H1A 4185   0.356   4.655   5.687
   41CHL1   H1B 4186   0.511   4.732   5.700
   41CHL1    C2 4187   0.381   4.754   5.878
   41CHL1   H2A 4188   0.444   4.674   5.924
   41CHL1   H2B 4189   0.271   4.750   5.894
   41CHL1   C20 4190   0.340   4.800   4.940
   41CHL1   H20 4191   0.232   4.828   4.938
   41CHL1   C21 4192   0.332   4.642   4.955
   41CHL1  H21A 4193   0.235   4.623   5.006
   41CHL1  H21B 4194   0.421   4.599   5.004
   41CHL1  H21C 4195   0.304   4.599   4.857
   41CHL1   C22 4196   0.393   4.845   4.801
   41CHL1  H22A 4197   0.391   4.955   4.789
   41CHL1  H22B 4198   0.495   4.809   4.772
   41CHL1   C23 4199   0.297   4.811   4.689
   41CHL1  H23A 4200   0.283   4.701   4.688
   41CHL1  H23B 4201   0.203   4.865   4.712
   41CHL1   C24 4202   0.345   4.856   4.553
   41CHL1  H24A 4203   0.348   4.967   4.550
   41CHL1  H24B 4204   0.443   4.806   4.534
   41CHL1   C25 4205   0.241   4.820   4.443
   41CHL1   H25 4206   0.214   4.713   4.455
   41CHL1   C26 4207   0.113   4.902   4.444
   41CHL1  H26A 4208   0.140   5.007   4.421
   41CHL1  H26B 4209   0.040   4.868   4.367
   41CHL1  H26C 4210   0.068   4.898   4.545
   41CHL1   C27 4211   0.305   4.833   4.302
   41CHL1  H27A 4212   0.305   4.931   4.250
   41CHL1  H27B 4213   0.406   4.787   4.312
   41CHL1  H27C 4214   0.258   4.758   4.235
   42CHL1    C3 4215   5.078   3.684   6.566
   42CHL1    H3 4216   5.160   3.610   6.559
   42CHL1    O3 4217   5.043   3.715   6.701
   42CHL1   H3' 4218   4.964   3.769   6.697
   42CHL1    C4 4219   5.126   3.813   6.487
   42CHL1   H4A 4220   5.057   3.897   6.510
   42CHL1   H4B 4221   5.225   3.834   6.534
   42CHL1    C5 4222   5.144   3.800   6.339
   42CHL1    C6 4223   5.254   3.833   6.271
   42CHL1    H6 4224   5.337   3.877   6.330
   42CHL1    C7 4225   5.268   3.825   6.124
   42CHL1   H7A 4226   5.336   3.905   6.086
   42CHL1   H7B 4227   5.321   3.730   6.103
   42CHL1    C8 4228   5.138   3.812   6.051
   42CHL1    H8 4229   5.096   3.915   6.046
   42CHL1   C14 4230   5.165   3.756   5.912
   42CHL1   H14 4231   5.231   3.667   5.922
   42CHL1   C15 4232   5.264   3.845   5.825
   42CHL1  H15A 4233   5.228   3.950   5.830
   42CHL1  H15B 4234   5.367   3.837   5.866
   42CHL1   C16 4235   5.235   3.801   5.679
   42CHL1  H16A 4236   5.196   3.875   5.607
   42CHL1  H16B 4237   5.324   3.751   5.634
   42CHL1   C17 4238   5.123   3.693   5.688
   42CHL1   H17 4239   5.174   3.595   5.697
   42CHL1   C13 4240   5.047   3.727   5.821
   42CHL1   C18 4241   4.969   3.857   5.803
   42CHL1  H18A 4242   4.952   3.915   5.896
   42CHL1  H18B 4243   5.001   3.933   5.729
   42CHL1  H18C 4244   4.870   3.836   5.758
   42CHL1   C12 4245   4.963   3.620   5.894
   42CHL1  H12A 4246   4.882   3.587   5.824
   42CHL1  H12B 4247   5.023   3.527   5.892
   42CHL1   C11 4248   4.925   3.661   6.032
   42CHL1  H11A 4249   4.862   3.752   6.029
   42CHL1  H11B 4250   4.861   3.586   6.083
   42CHL1    C9 4251   5.047   3.705   6.120
   42CHL1    H9 4252   5.116   3.618   6.120
   42CHL1   C10 4253   5.018   3.739   6.270
   42CHL1   C19 4254   4.895   3.842   6.264
   42CHL1  H19A 4255   4.797   3.793   6.243
   42CHL1  H19B 4256   4.892   3.887   6.365
   42CHL1  H19C 4257   4.911   3.925   6.192
   42CHL1    C1 4258   4.975   3.612   6.349
   42CHL1   H1A 4259   4.876   3.581   6.307
   42CHL1   H1B 4260   5.042   3.525   6.335
   42CHL1    C2 4261   4.951   3.634   6.507
   42CHL1   H2A 4262   4.933   3.533   6.549
   42CHL1   H2B 4263   4.862   3.699   6.524
   42CHL1   C20 4264   5.039   3.673   5.556
   42CHL1   H20 4265   5.004   3.777   5.536
   42CHL1   C21 4266   4.927   3.569   5.565
   42CHL1  H21A 4267   4.967   3.491   5.633
   42CHL1  H21B 4268   4.882   3.544   5.466
   42CHL1  H21C 4269   4.842   3.611   5.624
   42CHL1   C22 4270   5.141   3.641   5.437
   42CHL1  H22A 4271   5.214   3.725   5.431
   42CHL1  H22B 4272   5.194   3.549   5.470
   42CHL1   C23 4273   5.075   3.624   5.304
   42CHL1  H23A 4274   5.015   3.531   5.304
   42CHL1  H23B 4275   4.998   3.704   5.298
   42CHL1   C24 4276   5.171   3.644   5.186
   42CHL1  H24A 4277   5.193   3.753   5.183
   42CHL1  H24B 4278   5.268   3.592   5.190
   42CHL1   C25 4279   5.121   3.602   5.043
   42CHL1   H25 4280   5.113   3.492   5.055
   42CHL1   C26 4281   4.986   3.672   5.011
   42CHL1  H26A 4282   4.966   3.665   4.902
   42CHL1  H26B 4283   4.902   3.630   5.070
   42CHL1  H26C 4284   4.988   3.780   5.037
   42CHL1   C27 4285   5.225   3.635   4.934
   42CHL1  H27A 4286   5.326   3.594   4.958
   42CHL1  H27B 4287   5.190   3.589   4.839
   42CHL1  H27C 4288   5.234   3.744   4.917
   43CHL1    C3 4289   5.989   2.143   5.732
   43CHL1    H3 4290   5.892   2.195   5.741
   43CHL1    O3 4291   6.030   2.086   5.859
   43CHL1   H3' 4292   6.095   2.019   5.837
   43CHL1    C4 4293   5.978   2.021   5.633
   43CHL1   H4A 4294   6.073   1.963   5.632
   43CHL1   H4B 4295   5.894   1.962   5.674
   43CHL1    C5 4296   5.954   2.065   5.488
   43CHL1    C6 4297   5.841   2.014   5.426
   43CHL1    H6 4298   5.780   1.933   5.467
   43CHL1    C7 4299   5.813   2.047   5.281
   43CHL1   H7A 4300   5.779   1.960   5.221
   43CHL1   H7B 4301   5.722   2.110   5.290
   43CHL1    C8 4302   5.922   2.127   5.205
   43CHL1    H8 4303   6.003   2.060   5.169
   43CHL1   C14 4304   5.857   2.193   5.082
   43CHL1   H14 4305   5.778   2.260   5.121
   43CHL1   C15 4306   5.779   2.110   4.990
   43CHL1  H15A 4307   5.837   2.016   4.981
   43CHL1  H15B 4308   5.684   2.088   5.043
   43CHL1   C16 4309   5.775   2.190   4.866
   43CHL1  H16A 4310   5.818   2.123   4.788
   43CHL1  H16B 4311   5.670   2.209   4.834
   43CHL1   C17 4312   5.860   2.318   4.885
   43CHL1   H17 4313   5.779   2.383   4.924
   43CHL1   C13 4314   5.952   2.279   5.007
   43CHL1   C18 4315   6.071   2.204   4.942
   43CHL1  H18A 4316   6.135   2.146   5.011
   43CHL1  H18B 4317   6.034   2.157   4.848
   43CHL1  H18C 4318   6.138   2.286   4.908
   43CHL1   C12 4319   5.993   2.399   5.104
   43CHL1  H12A 4320   6.038   2.486   5.051
   43CHL1  H12B 4321   5.901   2.441   5.148
   43CHL1   C11 4322   6.069   2.338   5.227
   43CHL1  H11A 4323   6.157   2.284   5.185
   43CHL1  H11B 4324   6.095   2.422   5.295
   43CHL1    C9 4325   5.985   2.233   5.302
   43CHL1    H9 4326   5.901   2.299   5.333
   43CHL1   C10 4327   6.046   2.177   5.432
   43CHL1   C19 4328   6.181   2.119   5.386
   43CHL1  H19A 4329   6.243   2.080   5.470
   43CHL1  H19B 4330   6.178   2.046   5.303
   43CHL1  H19C 4331   6.245   2.205   5.355
   43CHL1    C1 4332   6.081   2.287   5.538
   43CHL1   H1A 4333   6.176   2.335   5.508
   43CHL1   H1B 4334   5.999   2.362   5.535
   43CHL1    C2 4335   6.094   2.250   5.689
   43CHL1   H2A 4336   6.083   2.338   5.756
   43CHL1   H2B 4337   6.195   2.207   5.702
   43CHL1   C20 4338   5.910   2.388   4.764
   43CHL1   H20 4339   6.016   2.363   4.744
   43CHL1   C21 4340   5.907   2.544   4.771
   43CHL1  H21A 4341   5.966   2.572   4.861
   43CHL1  H21B 4342   5.806   2.581   4.800
   43CHL1  H21C 4343   5.941   2.599   4.681
   43CHL1   C22 4344   5.827   2.354   4.634
   43CHL1  H22A 4345   5.837   2.243   4.623
   43CHL1  H22B 4346   5.718   2.373   4.644
   43CHL1   C23 4347   5.856   2.428   4.499
   43CHL1  H23A 4348   5.860   2.538   4.511
   43CHL1  H23B 4349   5.955   2.388   4.468
   43CHL1   C24 4350   5.761   2.380   4.381
   43CHL1  H24A 4351   5.776   2.270   4.368
   43CHL1  H24B 4352   5.659   2.393   4.422
   43CHL1   C25 4353   5.782   2.434   4.239
   43CHL1   H25 4354   5.722   2.368   4.174
   43CHL1   C26 4355   5.708   2.574   4.226
   43CHL1  H26A 4356   5.601   2.558   4.200
   43CHL1  H26B 4357   5.715   2.632   4.320
   43CHL1  H26C 4358   5.759   2.629   4.145
   43CHL1   C27 4359   5.931   2.447   4.196
   43CHL1  H27A 4360   5.992   2.501   4.272
   43CHL1  H27B 4361   5.976   2.349   4.173
   43CHL1  H27C 4362   5.920   2.502   4.100
   44CHL1    C3 4363   6.496   3.143   5.875
   44CHL1    H3 4364   6.513   3.035   5.853
   44CHL1    O3 4365   6.486   3.146   6.020
   44CHL1   H3' 4366   6.573   3.125   6.053
   44CHL1    C4 4367   6.609   3.237   5.819
   44CHL1   H4A 4368   6.583   3.333   5.868
   44CHL1   H4B 4369   6.706   3.200   5.860
   44CHL1    C5 4370   6.612   3.237   5.668
   44CHL1    C6 4371   6.729   3.210   5.610
   44CHL1    H6 4372   0.046   3.195   5.665
   44CHL1    C7 4373   6.741   3.228   5.459
   44CHL1   H7A 4374   0.054   3.290   5.439
   44CHL1   H7B 4375   6.751   3.130   5.406
   44CHL1    C8 4376   6.617   3.291   5.390
   44CHL1    H8 4377   6.618   3.401   5.408
   44CHL1   C14 4378   6.618   3.271   5.236
   44CHL1   H14 4379   6.621   3.161   5.224
   44CHL1   C15 4380   6.742   3.336   5.172
   44CHL1  H15A 4381   6.764   3.435   5.217
   44CHL1  H15B 4382   0.044   3.257   5.169
   44CHL1   C16 4383   6.695   3.361   5.028
   44CHL1  H16A 4384   6.704   3.469   5.003
   44CHL1  H16B 4385   6.759   3.308   4.954
   44CHL1   C17 4386   6.545   3.309   5.017
   44CHL1   H17 4387   6.565   3.200   5.005
   44CHL1   C13 4388   6.496   3.324   5.160
   44CHL1   C18 4389   6.478   3.470   5.190
   44CHL1  H18A 4390   6.472   3.494   5.298
   44CHL1  H18B 4391   6.547   3.534   5.131
   44CHL1  H18C 4392   6.376   3.491   5.152
   44CHL1   C12 4393   6.381   3.240   5.199
   44CHL1  H12A 4394   6.290   3.271   5.144
   44CHL1  H12B 4395   6.409   3.136   5.170
   44CHL1   C11 4396   6.358   3.255   5.353
   44CHL1  H11A 4397   6.322   3.358   5.372
   44CHL1  H11B 4398   6.276   3.184   5.378
   44CHL1    C9 4399   6.489   3.226   5.442
   44CHL1    H9 4400   6.507   3.118   5.430
   44CHL1   C10 4401   6.475   3.257   5.593
   44CHL1   C19 4402   6.441   3.414   5.618
   44CHL1  H19A 4403   6.444   3.438   5.726
   44CHL1  H19B 4404   6.514   3.479   5.564
   44CHL1  H19C 4405   6.341   3.427   5.572
   44CHL1    C1 4406   6.375   3.158   5.657
   44CHL1   H1A 4407   6.275   3.185   5.616
   44CHL1   H1B 4408   6.399   3.055   5.625
   44CHL1    C2 4409   6.356   3.176   5.813
   44CHL1   H2A 4410   6.283   3.102   5.853
   44CHL1   H2B 4411   6.319   3.277   5.844
   44CHL1   C20 4412   6.464   3.349   4.890
   44CHL1   H20 4413   6.360   3.313   4.901
   44CHL1   C21 4414   6.533   3.281   4.768
   44CHL1  H21A 4415   6.575   3.185   4.804
   44CHL1  H21B 4416   6.609   3.345   4.718
   44CHL1  H21C 4417   6.463   3.264   4.683
   44CHL1   C22 4418   6.450   3.501   4.858
   44CHL1  H22A 4419   6.395   3.553   4.939
   44CHL1  H22B 4420   6.555   3.532   4.838
   44CHL1   C23 4421   6.362   3.525   4.736
   44CHL1  H23A 4422   6.408   3.486   4.642
   44CHL1  H23B 4423   6.264   3.478   4.761
   44CHL1   C24 4424   6.327   3.671   4.701
   44CHL1  H24A 4425   6.273   3.706   4.792
   44CHL1  H24B 4426   6.421   3.730   4.698
   44CHL1   C25 4427   6.257   3.685   4.570
   44CHL1   H25 4428   6.323   3.651   4.487
   44CHL1   C26 4429   6.120   3.601   4.565
   44CHL1  H26A 4430   6.073   3.625   4.468
   44CHL1  H26B 4431   6.150   3.495   4.561
   44CHL1  H26C 4432   6.063   3.618   4.659
   44CHL1   C27 4433   6.217   3.833   4.547
   44CHL1  H27A 4434   6.308   3.895   4.562
   44CHL1  H27B 4435   6.176   3.843   4.444
   44CHL1  H27C 4436   6.134   3.850   4.618
   45CHL1    C3 4437   6.211   4.649   5.953
   45CHL1    H3 4438   6.242   4.756   5.947
   45CHL1    O3 4439   6.213   4.613   6.088
   45CHL1   H3' 4440   6.223   4.699   6.128
   45CHL1    C4 4441   6.072   4.644   5.891
   45CHL1   H4A 4442   6.019   4.547   5.901
   45CHL1   H4B 4443   6.020   4.719   5.954
   45CHL1    C5 4444   6.067   4.693   5.745
   45CHL1    C6 4445   5.993   4.801   5.708
   45CHL1    H6 4446   5.939   4.852   5.789
   45CHL1    C7 4447   5.985   4.848   5.561
   45CHL1   H7A 4448   5.880   4.869   5.529
   45CHL1   H7B 4449   6.048   4.940   5.553
   45CHL1    C8 4450   6.044   4.746   5.465
   45CHL1    H8 4451   5.976   4.659   5.456
   45CHL1   C14 4452   6.072   4.807   5.336
   45CHL1   H14 4453   6.159   4.876   5.345
   45CHL1   C15 4454   5.955   4.894   5.272
   45CHL1  H15A 4455   5.854   4.851   5.287
   45CHL1  H15B 4456   5.957   5.001   5.304
   45CHL1   C16 4457   5.972   4.882   5.123
   45CHL1  H16A 4458   5.888   4.821   5.086
   45CHL1  H16B 4459   5.953   4.981   5.076
   45CHL1   C17 4460   6.104   4.798   5.104
   45CHL1   H17 4461   6.190   4.869   5.108
   45CHL1   C13 4462   6.112   4.705   5.227
   45CHL1   C18 4463   6.016   4.582   5.219
   45CHL1  H18A 4464   5.987   4.527   5.311
   45CHL1  H18B 4465   5.916   4.615   5.182
   45CHL1  H18C 4466   6.050   4.507   5.145
   45CHL1   C12 4467   6.254   4.649   5.266
   45CHL1  H12A 4468   6.283   4.564   5.200
   45CHL1  H12B 4469   6.329   4.730   5.255
   45CHL1   C11 4470   6.247   4.598   5.410
   45CHL1  H11A 4471   6.192   4.502   5.400
   45CHL1  H11B 4472   6.353   4.584   5.439
   45CHL1    C9 4473   6.178   4.686   5.517
   45CHL1    H9 4474   6.236   4.780   5.530
   45CHL1   C10 4475   6.167   4.615   5.656
   45CHL1   C19 4476   6.095   4.482   5.643
   45CHL1  H19A 4477   5.992   4.496   5.602
   45CHL1  H19B 4478   6.150   4.417   5.571
   45CHL1  H19C 4479   6.096   4.429   5.740
   45CHL1    C1 4480   6.305   4.597   5.721
   45CHL1   H1A 4481   6.377   4.533   5.666
   45CHL1   H1B 4482   6.347   4.700   5.717
   45CHL1    C2 4483   6.304   4.554   5.872
   45CHL1   H2A 4484   6.408   4.565   5.908
   45CHL1   H2B 4485   6.267   4.450   5.883
   45CHL1   C20 4486   6.109   4.736   4.966
   45CHL1   H20 4487   6.027   4.665   4.943
   45CHL1   C21 4488   6.243   4.662   4.939
   45CHL1  H21A 4489   6.246   4.635   4.831
   45CHL1  H21B 4490   6.261   4.573   5.002
   45CHL1  H21C 4491   6.318   4.739   4.967
   45CHL1   C22 4492   6.084   4.841   4.846
   45CHL1  H22A 4493   5.986   4.891   4.862
   45CHL1  H22B 4494   6.168   4.914   4.844
   45CHL1   C23 4495   6.067   4.785   4.706
   45CHL1  H23A 4496   6.036   4.869   4.640
   45CHL1  H23B 4497   6.168   4.754   4.673
   45CHL1   C24 4498   5.962   4.673   4.696
   45CHL1  H24A 4499   5.966   4.632   4.593
   45CHL1  H24B 4500   6.001   4.591   4.759
   45CHL1   C25 4501   5.811   4.697   4.712
   45CHL1   H25 4502   5.794   4.751   4.808
   45CHL1   C26 4503   5.774   4.799   4.597
   45CHL1  H26A 4504   5.795   4.766   4.493
   45CHL1  H26B 4505   5.664   4.817   4.593
   45CHL1  H26C 4506   5.825   4.897   4.606
   45CHL1   C27 4507   5.727   4.576   4.678
   45CHL1  H27A 4508   5.754   4.496   4.750
   45CHL1  H27B 4509   5.621   4.609   4.685
   45CHL1  H27C 4510   5.752   4.543   4.575
   46CHL1    C3 4511   1.353   5.675   6.040
   46CHL1    H3 4512   1.415   5.590   6.006
   46CHL1    O3 4513   1.334   5.690   6.183
   46CHL1   H3' 4514   1.322   5.783   6.202
   46CHL1    C4 4515   1.431   5.800   6.003
   46CHL1   H4A 4516   1.380   5.889   6.045
   46CHL1   H4B 4517   1.531   5.786   6.049
   46CHL1    C5 4518   1.436   5.814   5.851
   46CHL1    C6 4519   1.554   5.834   5.794
   46CHL1    H6 4520   1.643   5.843   5.858
   46CHL1    C7 4521   1.576   5.846   5.648
   46CHL1   H7A 4522   1.610   5.950   5.626
   46CHL1   H7B 4523   1.644   5.766   5.612
   46CHL1    C8 4524   1.449   5.840   5.563
   46CHL1    H8 4525   1.409   5.944   5.563
   46CHL1   C14 4526   1.488   5.803   5.418
   46CHL1   H14 4527   1.528   5.700   5.430
   46CHL1   C15 4528   1.592   5.886   5.339
   46CHL1  H15A 4529   1.577   5.996   5.347
   46CHL1  H15B 4530   1.699   5.864   5.359
   46CHL1   C16 4531   1.568   5.849   5.190
   46CHL1  H16A 4532   1.550   5.945   5.136
   46CHL1  H16B 4533   1.655   5.800   5.142
   46CHL1   C17 4534   1.446   5.741   5.193
   46CHL1   H17 4535   1.500   5.646   5.209
   46CHL1   C13 4536   1.367   5.780   5.323
   46CHL1   C18 4537   1.283   5.911   5.312
   46CHL1  H18A 4538   1.336   5.997   5.265
   46CHL1  H18B 4539   1.204   5.894   5.236
   46CHL1  H18C 4540   1.242   5.956   5.404
   46CHL1   C12 4541   1.268   5.674   5.383
   46CHL1  H12A 4542   1.175   5.674   5.323
   46CHL1  H12B 4543   1.303   5.569   5.376
   46CHL1   C11 4544   1.228   5.707   5.535
   46CHL1  H11A 4545   1.149   5.784   5.522
   46CHL1  H11B 4546   1.174   5.621   5.578
   46CHL1    C9 4547   1.352   5.738   5.625
   46CHL1    H9 4548   1.410   5.644   5.640
   46CHL1   C10 4549   1.313   5.779   5.768
   46CHL1   C19 4550   1.220   5.904   5.766
   46CHL1  H19A 4551   1.185   5.931   5.868
   46CHL1  H19B 4552   1.281   5.989   5.730
   46CHL1  H19C 4553   1.131   5.873   5.708
   46CHL1    C1 4554   1.227   5.661   5.828
   46CHL1   H1A 4555   1.123   5.672   5.791
   46CHL1   H1B 4556   1.262   5.565   5.784
   46CHL1    C2 4557   1.215   5.657   5.980
   46CHL1   H2A 4558   1.161   5.564   6.007
   46CHL1   H2B 4559   1.157   5.746   6.014
   46CHL1   C20 4560   1.364   5.728   5.065
   46CHL1   H20 4561   1.261   5.697   5.096
   46CHL1   C21 4562   1.424   5.596   4.993
   46CHL1  H21A 4563   1.363   5.564   4.905
   46CHL1  H21B 4564   1.423   5.510   5.063
   46CHL1  H21C 4565   1.523   5.631   4.956
   46CHL1   C22 4566   1.359   5.853   4.981
   46CHL1  H22A 4567   1.340   5.936   5.053
   46CHL1  H22B 4568   1.453   5.868   4.925
   46CHL1   C23 4569   1.253   5.846   4.879
   46CHL1  H23A 4570   1.252   5.741   4.841
   46CHL1  H23B 4571   1.155   5.851   4.931
   46CHL1   C24 4572   1.263   5.937   4.756
   46CHL1  H24A 4573   1.269   6.041   4.795
   46CHL1  H24B 4574   1.358   5.925   4.700
   46CHL1   C25 4575   1.149   5.909   4.661
   46CHL1   H25 4576   1.053   5.930   4.712
   46CHL1   C26 4577   1.155   6.014   4.546
   46CHL1  H26A 4578   1.168   6.110   4.599
   46CHL1  H26B 4579   1.247   5.998   4.487
   46CHL1  H26C 4580   1.064   6.016   4.482
   46CHL1   C27 4581   1.137   5.764   4.606
   46CHL1  H27A 4582   1.146   5.688   4.685
   46CHL1  H27B 4583   1.041   5.757   4.550
   46CHL1  H27C 4584   1.227   5.735   4.547
   47CHL1    C3 4585   3.708   4.772   6.446
   47CHL1    H3 4586   3.636   4.688   6.435
   47CHL1    O3 4587   3.721   4.783   6.590
   47CHL1   H3' 4588   3.787   4.852   6.599
   47CHL1    C4 4589   3.850   4.747   6.383
   47CHL1   H4A 4590   3.905   4.838   6.415
   47CHL1   H4B 4591   3.904   4.657   6.419
   47CHL1    C5 4592   3.837   4.758   6.233
   47CHL1    C6 4593   3.888   4.663   6.151
   47CHL1    H6 4594   3.948   4.583   6.197
   47CHL1    C7 4595   3.891   4.676   6.004
   47CHL1   H7A 4596   3.995   4.643   5.982
   47CHL1   H7B 4597   3.825   4.595   5.967
   47CHL1    C8 4598   3.868   4.813   5.947
   47CHL1    H8 4599   3.956   4.876   5.971
   47CHL1   C14 4600   3.844   4.812   5.795
   47CHL1   H14 4601   3.767   4.735   5.774
   47CHL1   C15 4602   3.966   4.764   5.709
   47CHL1  H15A 4603   4.051   4.810   5.765
   47CHL1  H15B 4604   3.985   4.656   5.690
   47CHL1   C16 4605   3.949   4.838   5.571
   47CHL1  H16A 4606   4.040   4.897   5.547
   47CHL1  H16B 4607   3.951   4.765   5.488
   47CHL1   C17 4608   3.811   4.912   5.580
   47CHL1   H17 4609   3.733   4.835   5.562
   47CHL1   C13 4610   3.799   4.944   5.737
   47CHL1   C18 4611   3.894   5.065   5.761
   47CHL1  H18A 4612   3.996   5.047   5.722
   47CHL1  H18B 4613   3.847   5.152   5.709
   47CHL1  H18C 4614   3.918   5.083   5.867
   47CHL1   C12 4615   3.659   4.974   5.796
   47CHL1  H12A 4616   3.615   5.072   5.767
   47CHL1  H12B 4617   3.577   4.904   5.766
   47CHL1   C11 4618   3.666   4.989   5.945
   47CHL1  H11A 4619   3.724   5.083   5.956
   47CHL1  H11B 4620   3.566   5.003   5.991
   47CHL1    C9 4621   3.740   4.873   6.020
   47CHL1    H9 4622   3.663   4.794   6.006
   47CHL1   C10 4623   3.761   4.882   6.172
   47CHL1   C19 4624   3.845   5.015   6.195
   47CHL1  H19A 4625   3.792   5.103   6.154
   47CHL1  H19B 4626   3.866   5.030   6.303
   47CHL1  H19C 4627   3.938   5.001   6.137
   47CHL1    C1 4628   3.630   4.899   6.248
   47CHL1   H1A 4629   3.578   4.988   6.207
   47CHL1   H1B 4630   3.563   4.814   6.220
   47CHL1    C2 4631   3.646   4.899   6.398
   47CHL1   H2A 4632   3.542   4.901   6.438
   47CHL1   H2B 4633   3.704   4.983   6.441
   47CHL1   C20 4634   3.794   5.022   5.472
   47CHL1   H20 4635   3.866   5.104   5.495
   47CHL1   C21 4636   3.652   5.073   5.474
   47CHL1  H21A 4637   3.629   5.120   5.376
   47CHL1  H21B 4638   3.629   5.150   5.551
   47CHL1  H21C 4639   3.578   4.993   5.492
   47CHL1   C22 4640   3.848   4.971   5.334
   47CHL1  H22A 4641   3.877   5.062   5.278
   47CHL1  H22B 4642   3.948   4.922   5.337
   47CHL1   C23 4643   3.761   4.883   5.250
   47CHL1  H23A 4644   3.744   4.800   5.321
   47CHL1  H23B 4645   3.666   4.937   5.229
   47CHL1   C24 4646   3.824   4.828   5.127
   47CHL1  H24A 4647   3.868   4.912   5.068
   47CHL1  H24B 4648   3.909   4.763   5.158
   47CHL1   C25 4649   3.729   4.760   5.034
   47CHL1   H25 4650   3.690   4.671   5.087
   47CHL1   C26 4651   3.602   4.844   5.007
   47CHL1  H26A 4652   3.547   4.850   5.103
   47CHL1  H26B 4653   3.632   4.945   4.972
   47CHL1  H26C 4654   3.549   4.798   4.920
   47CHL1   C27 4655   3.795   4.715   4.903
   47CHL1  H27A 4656   3.885   4.653   4.922
   47CHL1  H27B 4657   3.722   4.657   4.842
   47CHL1  H27C 4658   3.825   4.798   4.836
   48CHL1    C3 4659   0.099   5.838   6.025
   48CHL1    H3 4660   0.192   5.778   6.028
   48CHL1    O3 4661   0.050   5.876   6.153
   48CHL1   H3' 4662   6.736   5.902   6.137
   48CHL1    C4 4663   0.125   5.969   5.946
   48CHL1   H4A 4664   0.037   6.037   5.954
   48CHL1   H4B 4665   0.208   6.012   6.006
   48CHL1    C5 4666   0.153   5.954   5.793
   48CHL1    C6 4667   0.257   6.002   5.735
   48CHL1    H6 4668   0.324   6.073   5.786
   48CHL1    C7 4669   0.280   6.000   5.585
   48CHL1   H7A 4670   0.313   6.101   5.553
   48CHL1   H7B 4671   0.353   5.918   5.565
   48CHL1    C8 4672   0.154   5.959   5.501
   48CHL1    H8 4673   0.081   6.042   5.487
   48CHL1   C14 4674   0.197   5.912   5.360
   48CHL1   H14 4675   0.259   5.821   5.371
   48CHL1   C15 4676   0.285   6.014   5.275
   48CHL1  H15A 4677   0.244   6.117   5.280
   48CHL1  H15B 4678   0.393   6.015   5.302
   48CHL1   C16 4679   0.265   5.961   5.128
   48CHL1  H16A 4680   0.206   6.036   5.070
   48CHL1  H16B 4681   0.353   5.933   5.066
   48CHL1   C17 4682   0.166   5.836   5.131
   48CHL1   H17 4683   0.228   5.744   5.132
   48CHL1   C13 4684   0.091   5.857   5.262
   48CHL1   C18 4685   6.751   5.959   5.238
   48CHL1  H18A 4686   6.687   5.919   5.157
   48CHL1  H18B 4687   6.681   5.972   5.324
   48CHL1  H18C 4688   0.019   6.056   5.208
   48CHL1   C12 4689   0.047   5.731   5.336
   48CHL1  H12A 4690   6.738   5.684   5.282
   48CHL1  H12B 4691   0.135   5.663   5.338
   48CHL1   C11 4692   6.767   5.765   5.478
   48CHL1  H11A 4693   6.677   5.829   5.474
   48CHL1  H11B 4694   6.742   5.665   5.519
   48CHL1    C9 4695   0.092   5.836   5.574
   48CHL1    H9 4696   0.181   5.770   5.568
   48CHL1   C10 4697   0.046   5.872   5.721
   48CHL1   C19 4698   6.681   5.947   5.722
   48CHL1  H19A 4699   6.622   5.949   5.816
   48CHL1  H19B 4700   6.692   6.055   5.696
   48CHL1  H19C 4701   6.612   5.919   5.639
   48CHL1    C1 4702   0.029   5.740   5.799
   48CHL1   H1A 4703   6.715   5.689   5.761
   48CHL1   H1B 4704   0.117   5.673   5.787
   48CHL1    C2 4705   6.767   5.761   5.952
   48CHL1   H2A 4706   6.736   5.662   5.992
   48CHL1   H2B 4707   6.673   5.819   5.952
   48CHL1   C20 4708   0.085   5.821   5.000
   48CHL1   H20 4709   0.042   5.920   4.974
   48CHL1   C21 4710   6.750   5.720   5.011
   48CHL1  H21A 4711   6.694   5.706   4.916
   48CHL1  H21B 4712   0.014   5.617   5.020
   48CHL1  H21C 4713   6.679   5.728   5.096
   48CHL1   C22 4714   0.174   5.778   4.882
   48CHL1  H22A 4715   0.267   5.839   4.889
   48CHL1  H22B 4716   0.190   5.669   4.896
   48CHL1   C23 4717   0.105   5.809   4.746
   48CHL1  H23A 4718   0.017   5.749   4.714
   48CHL1  H23B 4719   0.060   5.910   4.745
   48CHL1   C24 4720   0.206   5.785   4.624
   48CHL1  H24A 4721   0.285   5.862   4.624
   48CHL1  H24B 4722   0.256   5.688   4.645
   48CHL1   C25 4723   0.137   5.783   4.484
   48CHL1   H25 4724   0.033   5.744   4.494
   48CHL1   C26 4725   0.114   5.927   4.434
   48CHL1  H26A 4726   0.051   5.983   4.507
   48CHL1  H26B 4727   0.211   5.981   4.431
   48CHL1  H26C 4728   0.086   5.939   4.327
   48CHL1   C27 4729   0.226   5.704   4.386
   48CHL1  H27A 4730   0.232   5.597   4.414
   48CHL1  H27B 4731   0.162   5.703   4.295
   48CHL1  H27C 4732   0.319   5.757   4.357
   49CHL1    C3 4733   3.988   4.597   3.042
   49CHL1    H3 4734   3.900   4.575   3.106
   49CHL1    O3 4735   3.953   4.573   2.905
   49CHL1   H3' 4736   4.040   4.576   2.864
   49CHL1    C4 4737   4.034   4.737   3.071
   49CHL1   H4A 4738   4.128   4.762   3.017
   49CHL1   H4B 4739   3.973   4.811   3.014
   49CHL1    C5 4740   4.039   4.761   3.224
   49CHL1    C6 4741   3.951   4.844   3.282
   49CHL1    H6 4742   3.881   4.909   3.226
   49CHL1    C7 4743   3.941   4.865   3.429
   49CHL1   H7A 4744   3.961   4.972   3.450
   49CHL1   H7B 4745   3.846   4.824   3.471
   49CHL1    C8 4746   4.050   4.781   3.505
   49CHL1    H8 4747   4.147   4.836   3.506
   49CHL1   C14 4748   4.026   4.776   3.660
   49CHL1   H14 4749   3.930   4.719   3.658
   49CHL1   C15 4750   3.992   4.911   3.740
   49CHL1  H15A 4751   4.079   4.973   3.709
   49CHL1  H15B 4752   3.892   4.956   3.723
   49CHL1   C16 4753   4.007   4.868   3.887
   49CHL1  H16A 4754   4.077   4.939   3.935
   49CHL1  H16B 4755   3.910   4.870   3.942
   49CHL1   C17 4756   4.058   4.719   3.880
   49CHL1   H17 4757   3.970   4.653   3.898
   49CHL1   C13 4758   4.118   4.693   3.743
   49CHL1   C18 4759   4.264   4.753   3.740
   49CHL1  H18A 4760   4.332   4.683   3.793
   49CHL1  H18B 4761   4.307   4.759   3.638
   49CHL1  H18C 4762   4.273   4.854   3.786
   49CHL1   C12 4763   4.124   4.554   3.692
   49CHL1  H12A 4764   4.194   4.501   3.760
   49CHL1  H12B 4765   4.029   4.500   3.712
   49CHL1   C11 4766   4.162   4.544   3.538
   49CHL1  H11A 4767   4.267   4.580   3.537
   49CHL1  H11B 4768   4.157   4.438   3.505
   49CHL1    C9 4769   4.077   4.644   3.448
   49CHL1    H9 4770   3.975   4.601   3.447
   49CHL1   C10 4771   4.119   4.654   3.300
   49CHL1   C19 4772   4.261   4.714   3.287
   49CHL1  H19A 4773   4.265   4.812   3.339
   49CHL1  H19B 4774   4.336   4.645   3.333
   49CHL1  H19C 4775   4.297   4.736   3.185
   49CHL1    C1 4776   4.112   4.511   3.239
   49CHL1   H1A 4777   4.203   4.450   3.257
   49CHL1   H1B 4778   4.023   4.459   3.280
   49CHL1    C2 4779   4.100   4.505   3.083
   49CHL1   H2A 4780   4.077   4.402   3.047
   49CHL1   H2B 4781   4.185   4.545   3.024
   49CHL1   C20 4782   4.142   4.695   4.007
   49CHL1   H20 4783   4.213   4.780   4.012
   49CHL1   C21 4784   4.213   4.556   4.020
   49CHL1  H21A 4785   4.137   4.476   4.015
   49CHL1  H21B 4786   4.261   4.541   4.119
   49CHL1  H21C 4787   4.287   4.540   3.939
   49CHL1   C22 4788   4.063   4.709   4.142
   49CHL1  H22A 4789   4.002   4.801   4.134
   49CHL1  H22B 4790   4.014   4.610   4.157
   49CHL1   C23 4791   4.152   4.737   4.268
   49CHL1  H23A 4792   4.219   4.651   4.289
   49CHL1  H23B 4793   4.222   4.822   4.254
   49CHL1   C24 4794   4.061   4.763   4.387
   49CHL1  H24A 4795   3.994   4.851   4.393
   49CHL1  H24B 4796   3.988   4.679   4.382
   49CHL1   C25 4797   4.140   4.750   4.516
   49CHL1   H25 4798   4.210   4.665   4.501
   49CHL1   C26 4799   4.231   4.873   4.544
   49CHL1  H26A 4800   4.165   4.961   4.547
   49CHL1  H26B 4801   4.297   4.858   4.632
   49CHL1  H26C 4802   4.299   4.900   4.460
   49CHL1   C27 4803   4.046   4.713   4.633
   49CHL1  H27A 4804   4.099   4.674   4.722
   49CHL1  H27B 4805   3.983   4.801   4.657
   49CHL1  H27C 4806   3.988   4.625   4.599
   50CHL1    C3 4807   3.908   2.184   3.171
   50CHL1    H3 4808   3.997   2.234   3.214
   50CHL1    O3 4809   3.922   2.169   3.032
   50CHL1   H3' 4810   3.834   2.142   3.003
   50CHL1    C4 4811   3.910   2.039   3.223
   50CHL1   H4A 4812   3.831   1.981   3.170
   50CHL1   H4B 4813   4.003   1.993   3.185
   50CHL1    C5 4814   3.890   2.024   3.369
   50CHL1    C6 4815   3.994   1.970   3.436
   50CHL1    H6 4816   4.083   1.925   3.391
   50CHL1    C7 4817   3.980   1.943   3.578
   50CHL1   H7A 4818   4.003   1.838   3.606
   50CHL1   H7B 4819   4.058   2.005   3.627
   50CHL1    C8 4820   3.843   1.983   3.645
   50CHL1    H8 4821   3.773   1.903   3.615
   50CHL1   C14 4822   3.855   2.002   3.792
   50CHL1   H14 4823   3.928   2.086   3.801
   50CHL1   C15 4824   3.913   1.889   3.875
   50CHL1  H15A 4825   3.890   1.785   3.843
   50CHL1  H15B 4826   4.023   1.892   3.861
   50CHL1   C16 4827   3.871   1.928   4.021
   50CHL1  H16A 4828   3.817   1.843   4.067
   50CHL1  H16B 4829   3.961   1.955   4.080
   50CHL1   C17 4830   3.771   2.042   4.007
   50CHL1   H17 4831   3.814   2.143   4.021
   50CHL1   C13 4832   3.729   2.044   3.863
   50CHL1   C18 4833   3.621   1.933   3.835
   50CHL1  H18A 4834   3.659   1.839   3.880
   50CHL1  H18B 4835   3.523   1.956   3.884
   50CHL1  H18C 4836   3.606   1.912   3.727
   50CHL1   C12 4837   3.687   2.183   3.808
   50CHL1  H12A 4838   3.590   2.208   3.855
   50CHL1  H12B 4839   3.754   2.268   3.833
   50CHL1   C11 4840   3.660   2.173   3.660
   50CHL1  H11A 4841   3.568   2.112   3.643
   50CHL1  H11B 4842   3.632   2.271   3.618
   50CHL1    C9 4843   3.782   2.114   3.586
   50CHL1    H9 4844   3.859   2.192   3.602
   50CHL1   C10 4845   3.768   2.101   3.428
   50CHL1   C19 4846   3.638   2.021   3.390
   50CHL1  H19A 4847   3.630   1.921   3.437
   50CHL1  H19B 4848   3.543   2.073   3.413
   50CHL1  H19C 4849   3.638   1.991   3.282
   50CHL1    C1 4850   3.770   2.243   3.358
   50CHL1   H1A 4851   3.675   2.299   3.378
   50CHL1   H1B 4852   3.861   2.296   3.394
   50CHL1    C2 4853   3.771   2.245   3.203
   50CHL1   H2A 4854   3.773   2.349   3.165
   50CHL1   H2B 4855   3.678   2.202   3.161
   50CHL1   C20 4856   3.655   2.029   4.114
   50CHL1   H20 4857   3.600   1.934   4.096
   50CHL1   C21 4858   3.563   2.153   4.111
   50CHL1  H21A 4859   3.498   2.168   4.199
   50CHL1  H21B 4860   3.492   2.140   4.026
   50CHL1  H21C 4861   3.618   2.250   4.102
   50CHL1   C22 4862   3.710   2.015   4.260
   50CHL1  H22A 4863   3.632   2.006   4.338
   50CHL1  H22B 4864   3.772   1.924   4.272
   50CHL1   C23 4865   3.794   2.137   4.315
   50CHL1  H23A 4866   3.865   2.171   4.236
   50CHL1  H23B 4867   3.726   2.224   4.327
   50CHL1   C24 4868   3.876   2.114   4.444
   50CHL1  H24A 4869   3.954   2.037   4.428
   50CHL1  H24B 4870   3.934   2.205   4.472
   50CHL1   C25 4871   3.787   2.069   4.567
   50CHL1   H25 4872   3.712   1.998   4.526
   50CHL1   C26 4873   3.859   1.991   4.682
   50CHL1  H26A 4874   3.798   1.923   4.745
   50CHL1  H26B 4875   3.935   1.930   4.628
   50CHL1  H26C 4876   3.905   2.061   4.755
   50CHL1   C27 4877   3.707   2.183   4.623
   50CHL1  H27A 4878   3.609   2.203   4.575
   50CHL1  H27B 4879   3.677   2.166   4.729
   50CHL1  H27C 4880   3.751   2.284   4.613
   51CHL1    C3 4881   3.816   2.978   2.785
   51CHL1    H3 4882   3.769   2.877   2.789
   51CHL1    O3 4883   3.868   2.988   2.653
   51CHL1   H3' 4884   3.938   3.053   2.659
   51CHL1    C4 4885   3.718   3.095   2.798
   51CHL1   H4A 4886   3.771   3.190   2.774
   51CHL1   H4B 4887   3.644   3.084   2.717
   51CHL1    C5 4888   3.655   3.088   2.936
   51CHL1    C6 4889   3.518   3.071   2.951
   51CHL1    H6 4890   3.465   3.055   2.856
   51CHL1    C7 4891   3.449   3.087   3.085
   51CHL1   H7A 4892   3.364   3.158   3.077
   51CHL1   H7B 4893   3.405   2.992   3.123
   51CHL1    C8 4894   3.541   3.139   3.200
   51CHL1    H8 4895   3.558   3.249   3.199
   51CHL1   C14 4896   3.474   3.106   3.333
   51CHL1   H14 4897   3.464   2.995   3.333
   51CHL1   C15 4898   3.331   3.151   3.348
   51CHL1  H15A 4899   3.323   3.255   3.309
   51CHL1  H15B 4900   3.263   3.082   3.294
   51CHL1   C16 4901   3.305   3.153   3.497
   51CHL1  H16A 4902   3.279   3.256   3.529
   51CHL1  H16B 4903   3.222   3.084   3.522
   51CHL1   C17 4904   3.437   3.105   3.561
   51CHL1   H17 4905   3.439   2.994   3.563
   51CHL1   C13 4906   3.550   3.147   3.464
   51CHL1   C18 4907   3.578   3.306   3.460
   51CHL1  H18A 4908   3.478   3.354   3.465
   51CHL1  H18B 4909   3.639   3.342   3.546
   51CHL1  H18C 4910   3.633   3.330   3.367
   51CHL1   C12 4911   3.678   3.071   3.457
   51CHL1  H12A 4912   3.741   3.098   3.544
   51CHL1  H12B 4913   3.661   2.962   3.467
   51CHL1   C11 4914   3.764   3.088   3.324
   51CHL1  H11A 4915   3.797   3.194   3.335
   51CHL1  H11B 4916   3.847   3.015   3.335
   51CHL1    C9 4917   3.678   3.067   3.188
   51CHL1    H9 4918   3.648   2.960   3.194
   51CHL1   C10 4919   3.753   3.108   3.056
   51CHL1   C19 4920   3.805   3.251   3.066
   51CHL1  H19A 4921   3.725   3.315   3.109
   51CHL1  H19B 4922   3.893   3.260   3.133
   51CHL1  H19C 4923   3.827   3.290   2.964
   51CHL1    C1 4924   3.862   3.002   3.038
   51CHL1   H1A 4925   3.947   3.019   3.108
   51CHL1   H1B 4926   3.820   2.900   3.047
   51CHL1    C2 4927   3.922   3.002   2.892
   51CHL1   H2A 4928   3.996   2.920   2.878
   51CHL1   H2B 4929   3.970   3.101   2.877
   51CHL1   C20 4930   3.448   3.157   3.709
   51CHL1   H20 4931   3.462   3.267   3.707
   51CHL1   C21 4932   3.585   3.106   3.766
   51CHL1  H21A 4933   3.672   3.158   3.721
   51CHL1  H21B 4934   3.585   2.996   3.755
   51CHL1  H21C 4935   3.592   3.127   3.875
   51CHL1   C22 4936   3.323   3.123   3.800
   51CHL1  H22A 4937   3.223   3.141   3.756
   51CHL1  H22B 4938   3.325   3.014   3.823
   51CHL1   C23 4939   3.329   3.205   3.933
   51CHL1  H23A 4940   3.432   3.221   3.972
   51CHL1  H23B 4941   3.257   3.289   3.938
   51CHL1   C24 4942   3.268   3.130   4.044
   51CHL1  H24A 4943   3.160   3.150   4.026
   51CHL1  H24B 4944   3.275   3.019   4.050
   51CHL1   C25 4945   3.300   3.189   4.186
   51CHL1   H25 4946   3.410   3.181   4.194
   51CHL1   C26 4947   3.275   3.340   4.207
   51CHL1  H26A 4948   3.168   3.366   4.191
   51CHL1  H26B 4949   3.311   3.367   4.308
   51CHL1  H26C 4950   3.339   3.393   4.133
   51CHL1   C27 4951   3.232   3.101   4.292
   51CHL1  H27A 4952   3.265   3.142   4.390
   51CHL1  H27B 4953   3.121   3.095   4.292
   51CHL1  H27C 4954   3.282   3.002   4.286
   52CHL1    C3 4955   3.107   4.611   2.874
   52CHL1    H3 4956   3.000   4.634   2.857
   52CHL1    O3 4957   3.178   4.628   2.754
   52CHL1   H3' 4958   3.267   4.613   2.786
   52CHL1    C4 4959   3.161   4.700   2.980
   52CHL1   H4A 4960   3.265   4.672   3.009
   52CHL1   H4B 4961   3.171   4.808   2.954
   52CHL1    C5 4962   3.068   4.680   3.097
   52CHL1    C6 4963   3.004   4.786   3.152
   52CHL1    H6 4964   3.039   4.885   3.120
   52CHL1    C7 4965   2.912   4.780   3.274
   52CHL1   H7A 4966   2.921   4.868   3.342
   52CHL1   H7B 4967   2.805   4.767   3.244
   52CHL1    C8 4968   2.931   4.653   3.358
   52CHL1    H8 4969   3.030   4.645   3.407
   52CHL1   C14 4970   2.823   4.634   3.465
   52CHL1   H14 4971   2.727   4.641   3.409
   52CHL1   C15 4972   2.815   4.753   3.566
   52CHL1  H15A 4973   2.915   4.783   3.603
   52CHL1  H15B 4974   2.766   4.840   3.516
   52CHL1   C16 4975   2.729   4.687   3.679
   52CHL1  H16A 4976   2.774   4.719   3.775
   52CHL1  H16B 4977   2.624   4.723   3.678
   52CHL1   C17 4978   2.718   4.533   3.647
   52CHL1   H17 4979   2.620   4.524   3.595
   52CHL1   C13 4980   2.830   4.511   3.548
   52CHL1   C18 4981   2.964   4.506   3.638
   52CHL1  H18A 4982   3.058   4.530   3.583
   52CHL1  H18B 4983   2.961   4.585   3.717
   52CHL1  H18C 4984   2.967   4.408   3.689
   52CHL1   C12 4985   2.820   4.398   3.447
   52CHL1  H12A 4986   2.813   4.296   3.491
   52CHL1  H12B 4987   2.724   4.410   3.391
   52CHL1   C11 4988   2.932   4.400   3.343
   52CHL1  H11A 4989   3.030   4.390   3.394
   52CHL1  H11B 4990   2.909   4.327   3.263
   52CHL1    C9 4991   2.934   4.534   3.267
   52CHL1    H9 4992   2.836   4.539   3.215
   52CHL1   C10 4993   3.049   4.539   3.160
   52CHL1   C19 4994   3.189   4.512   3.241
   52CHL1  H19A 4995   3.201   4.579   3.329
   52CHL1  H19B 4996   3.188   4.406   3.274
   52CHL1  H19C 4997   3.267   4.523   3.163
   52CHL1    C1 4998   3.028   4.431   3.041
   52CHL1   H1A 4999   3.043   4.330   3.085
   52CHL1   H1B 5000   2.919   4.442   3.022
   52CHL1    C2 5001   3.118   4.464   2.915
   52CHL1   H2A 5002   3.092   4.397   2.831
   52CHL1   H2B 5003   3.222   4.425   2.924
   52CHL1   C20 5004   2.698   4.450   3.771
   52CHL1   H20 5005   2.783   4.445   3.843
   52CHL1   C21 5006   2.680   4.307   3.721
   52CHL1  H21A 5007   2.642   4.244   3.805
   52CHL1  H21B 5008   2.782   4.264   3.714
   52CHL1  H21C 5009   2.620   4.300   3.628
   52CHL1   C22 5010   2.581   4.505   3.866
   52CHL1  H22A 5011   2.600   4.614   3.874
   52CHL1  H22B 5012   2.482   4.480   3.823
   52CHL1   C23 5013   2.588   4.440   4.005
   52CHL1  H23A 5014   2.562   4.332   4.000
   52CHL1  H23B 5015   2.694   4.450   4.038
   52CHL1   C24 5016   2.496   4.491   4.116
   52CHL1  H24A 5017   2.486   4.601   4.110
   52CHL1  H24B 5018   2.389   4.463   4.101
   52CHL1   C25 5019   2.538   4.453   4.258
   52CHL1   H25 5020   2.641   4.489   4.279
   52CHL1   C26 5021   2.437   4.497   4.368
   52CHL1  H26A 5022   2.446   4.606   4.387
   52CHL1  H26B 5023   2.331   4.480   4.339
   52CHL1  H26C 5024   2.469   4.445   4.460
   52CHL1   C27 5025   2.551   4.299   4.264
   52CHL1  H27A 5026   2.651   4.270   4.225
   52CHL1  H27B 5027   2.529   4.267   4.368
   52CHL1  H27C 5028   2.477   4.253   4.195
   53CHL1    C3 5029   2.847   3.177   3.165
   53CHL1    H3 5030   2.773   3.249   3.206
   53CHL1    O3 5031   2.874   3.201   3.031
   53CHL1   H3' 5032   2.963   3.166   3.024
   53CHL1    C4 5033   2.970   3.167   3.250
   53CHL1   H4A 5034   3.034   3.086   3.209
   53CHL1   H4B 5035   3.026   3.262   3.237
   53CHL1    C5 5036   2.944   3.146   3.395
   53CHL1    C6 5037   2.982   3.229   3.496
   53CHL1    H6 5038   3.042   3.316   3.464
   53CHL1    C7 5039   2.948   3.209   3.637
   53CHL1   H7A 5040   3.038   3.217   3.702
   53CHL1   H7B 5041   2.882   3.295   3.663
   53CHL1    C8 5042   2.886   3.076   3.663
   53CHL1    H8 5043   2.966   2.998   3.668
   53CHL1   C14 5044   2.818   3.082   3.797
   53CHL1   H14 5045   2.733   3.153   3.790
   53CHL1   C15 5046   2.894   3.130   3.914
   53CHL1  H15A 5047   2.991   3.076   3.912
   53CHL1  H15B 5048   2.899   3.241   3.911
   53CHL1   C16 5049   2.809   3.094   4.033
   53CHL1  H16A 5050   2.871   3.066   4.121
   53CHL1  H16B 5051   2.753   3.188   4.053
   53CHL1   C17 5052   2.696   2.991   3.984
   53CHL1   H17 5053   2.607   3.054   3.960
   53CHL1   C13 5054   2.739   2.951   3.840
   53CHL1   C18 5055   2.848   2.837   3.859
   53CHL1  H18A 5056   2.790   2.751   3.898
   53CHL1  H18B 5057   2.895   2.805   3.763
   53CHL1  H18C 5058   2.921   2.865   3.938
   53CHL1   C12 5059   2.639   2.916   3.731
   53CHL1  H12A 5060   2.583   2.823   3.753
   53CHL1  H12B 5061   2.574   3.006   3.737
   53CHL1   C11 5062   2.704   2.913   3.592
   53CHL1  H11A 5063   2.759   2.818   3.576
   53CHL1  H11B 5064   2.614   2.907   3.526
   53CHL1    C9 5065   2.789   3.032   3.555
   53CHL1    H9 5066   2.722   3.120   3.548
   53CHL1   C10 5067   2.856   3.023   3.422
   53CHL1   C19 5068   2.949   2.889   3.411
   53CHL1  H19A 5069   2.887   2.800   3.436
   53CHL1  H19B 5070   2.996   2.887   3.311
   53CHL1  H19C 5071   3.028   2.908   3.487
   53CHL1    C1 5072   2.743   3.008   3.309
   53CHL1   H1A 5073   2.696   2.908   3.316
   53CHL1   H1B 5074   2.666   3.079   3.347
   53CHL1    C2 5075   2.781   3.035   3.167
   53CHL1   H2A 5076   2.692   3.031   3.102
   53CHL1   H2B 5077   2.843   2.948   3.135
   53CHL1   C20 5078   2.664   2.884   4.095
   53CHL1   H20 5079   2.759   2.829   4.116
   53CHL1   C21 5080   2.558   2.788   4.050
   53CHL1  H21A 5081   2.563   2.704   4.122
   53CHL1  H21B 5082   2.585   2.726   3.963
   53CHL1  H21C 5083   2.452   2.821   4.039
   53CHL1   C22 5084   2.623   2.953   4.223
   53CHL1  H22A 5085   2.655   3.060   4.222
   53CHL1  H22B 5086   2.512   2.950   4.221
   53CHL1   C23 5087   2.667   2.886   4.352
   53CHL1  H23A 5088   2.639   2.953   4.437
   53CHL1  H23B 5089   2.615   2.788   4.359
   53CHL1   C24 5090   2.819   2.850   4.356
   53CHL1  H24A 5091   2.833   2.763   4.287
   53CHL1  H24B 5092   2.887   2.935   4.337
   53CHL1   C25 5093   2.872   2.784   4.484
   53CHL1   H25 5094   2.832   2.835   4.574
   53CHL1   C26 5095   2.824   2.636   4.511
   53CHL1  H26A 5096   2.715   2.630   4.531
   53CHL1  H26B 5097   2.839   2.580   4.416
   53CHL1  H26C 5098   2.882   2.603   4.601
   53CHL1   C27 5099   3.026   2.778   4.479
   53CHL1  H27A 5100   3.068   2.741   4.575
   53CHL1  H27B 5101   3.074   2.724   4.395
   53CHL1  H27C 5102   3.073   2.879   4.472
   54CHL1    C3 5103   2.390   3.472   2.877
   54CHL1    H3 5104   2.366   3.575   2.910
   54CHL1    O3 5105   2.400   3.441   2.735
   54CHL1   H3' 5106   2.320   3.391   2.717
   54CHL1    C4 5107   2.517   3.427   2.951
   54CHL1   H4A 5108   2.535   3.324   2.913
   54CHL1   H4B 5109   2.597   3.491   2.909
   54CHL1    C5 5110   2.506   3.431   3.097
   54CHL1    C6 5111   2.596   3.501   3.163
   54CHL1    H6 5112   2.678   3.528   3.095
   54CHL1    C7 5113   2.604   3.524   3.313
   54CHL1   H7A 5114   2.702   3.491   3.352
   54CHL1   H7B 5115   2.582   3.627   3.348
   54CHL1    C8 5116   2.506   3.414   3.381
   54CHL1    H8 5117   2.563   3.319   3.381
   54CHL1   C14 5118   2.483   3.450   3.523
   54CHL1   H14 5119   2.434   3.549   3.513
   54CHL1   C15 5120   2.611   3.481   3.611
   54CHL1  H15A 5121   2.693   3.409   3.588
   54CHL1  H15B 5122   2.648   3.585   3.605
   54CHL1   C16 5123   2.569   3.444   3.753
   54CHL1  H16A 5124   2.626   3.353   3.779
   54CHL1  H16B 5125   2.590   3.524   3.828
   54CHL1   C17 5126   2.421   3.398   3.741
   54CHL1   H17 5127   2.351   3.485   3.740
   54CHL1   C13 5128   2.397   3.345   3.593
   54CHL1   C18 5129   2.459   3.206   3.592
   54CHL1  H18A 5130   2.558   3.212   3.642
   54CHL1  H18B 5131   2.387   3.141   3.646
   54CHL1  H18C 5132   2.467   3.173   3.486
   54CHL1   C12 5133   2.252   3.358   3.539
   54CHL1  H12A 5134   2.180   3.281   3.574
   54CHL1  H12B 5135   2.215   3.461   3.562
   54CHL1   C11 5136   2.253   3.332   3.387
   54CHL1  H11A 5137   2.270   3.222   3.383
   54CHL1  H11B 5138   2.155   3.345   3.336
   54CHL1    C9 5139   2.366   3.408   3.312
   54CHL1    H9 5140   2.327   3.511   3.310
   54CHL1   C10 5141   2.380   3.363   3.161
   54CHL1   C19 5142   2.398   3.208   3.151
   54CHL1  H19A 5143   2.441   3.181   3.052
   54CHL1  H19B 5144   2.473   3.171   3.225
   54CHL1  H19C 5145   2.296   3.168   3.172
   54CHL1    C1 5146   2.254   3.404   3.092
   54CHL1   H1A 5147   2.170   3.341   3.130
   54CHL1   H1B 5148   2.234   3.511   3.116
   54CHL1    C2 5149   2.263   3.398   2.936
   54CHL1   H2A 5150   2.171   3.450   2.903
   54CHL1   H2B 5151   2.258   3.293   2.898
   54CHL1   C20 5152   2.377   3.306   3.859
   54CHL1   H20 5153   2.433   3.210   3.861
   54CHL1   C21 5154   2.226   3.265   3.848
   54CHL1  H21A 5155   2.205   3.185   3.774
   54CHL1  H21B 5156   2.161   3.354   3.838
   54CHL1  H21C 5157   2.204   3.219   3.946
   54CHL1   C22 5158   2.409   3.371   3.997
   54CHL1  H22A 5159   2.518   3.395   3.986
   54CHL1  H22B 5160   2.354   3.467   4.005
   54CHL1   C23 5161   2.397   3.278   4.119
   54CHL1  H23A 5162   2.294   3.235   4.116
   54CHL1  H23B 5163   2.473   3.203   4.089
   54CHL1   C24 5164   2.431   3.336   4.262
   54CHL1  H24A 5165   2.416   3.261   4.342
   54CHL1  H24B 5166   2.540   3.353   4.256
   54CHL1   C25 5167   2.362   3.470   4.300
   54CHL1   H25 5168   2.375   3.532   4.209
   54CHL1   C26 5169   2.220   3.449   4.327
   54CHL1  H26A 5170   2.210   3.385   4.418
   54CHL1  H26B 5171   2.176   3.547   4.354
   54CHL1  H26C 5172   2.176   3.404   4.236
   54CHL1   C27 5173   2.437   3.536   4.421
   54CHL1  H27A 5174   2.423   3.473   4.511
   54CHL1  H27B 5175   2.545   3.548   4.399
   54CHL1  H27C 5176   2.395   3.635   4.452
   55CHL1    C3 5177   3.967   5.777   2.744
   55CHL1    H3 5178   3.864   5.818   2.739
   55CHL1    O3 5179   4.010   5.742   2.612
   55CHL1   H3' 5180   3.961   5.660   2.605
   55CHL1    C4 5181   4.056   5.889   2.800
   55CHL1   H4A 5182   4.163   5.863   2.790
   55CHL1   H4B 5183   4.036   5.978   2.737
   55CHL1    C5 5184   4.017   5.928   2.944
   55CHL1    C6 5185   3.980   6.051   2.973
   55CHL1    H6 5186   3.975   6.125   2.892
   55CHL1    C7 5187   3.938   6.101   3.108
   55CHL1   H7A 5188   3.987   6.197   3.134
   55CHL1   H7B 5189   3.827   6.096   3.101
   55CHL1    C8 5190   3.995   5.997   3.213
   55CHL1    H8 5191   4.105   6.009   3.224
   55CHL1   C14 5192   3.927   6.025   3.344
   55CHL1   H14 5193   3.821   6.006   3.320
   55CHL1   C15 5194   3.942   6.168   3.398
   55CHL1  H15A 5195   4.045   6.211   3.401
   55CHL1  H15B 5196   3.884   6.234   3.330
   55CHL1   C16 5197   3.898   6.165   3.542
   55CHL1  H16A 5198   3.979   6.200   3.611
   55CHL1  H16B 5199   3.809   6.231   3.550
   55CHL1   C17 5200   3.880   6.012   3.581
   55CHL1   H17 5201   3.772   5.993   3.569
   55CHL1   C13 5202   3.958   5.935   3.466
   55CHL1   C18 5203   4.112   5.956   3.493
   55CHL1  H18A 5204   4.149   5.890   3.573
   55CHL1  H18B 5205   4.176   5.941   3.403
   55CHL1  H18C 5206   4.127   6.061   3.527
   55CHL1   C12 5207   3.928   5.795   3.430
   55CHL1  H12A 5208   3.948   5.711   3.500
   55CHL1  H12B 5209   3.819   5.789   3.413
   55CHL1   C11 5210   3.986   5.755   3.292
   55CHL1  H11A 5211   4.096   5.749   3.309
   55CHL1  H11B 5212   3.953   5.651   3.275
   55CHL1    C9 5213   3.959   5.847   3.179
   55CHL1    H9 5214   3.850   5.846   3.157
   55CHL1   C10 5215   4.012   5.806   3.036
   55CHL1   C19 5216   4.162   5.753   3.055
   55CHL1  H19A 5217   4.156   5.655   3.106
   55CHL1  H19B 5218   4.222   5.738   2.962
   55CHL1  H19C 5219   4.216   5.822   3.122
   55CHL1    C1 5220   3.932   5.695   2.973
   55CHL1   H1A 5221   3.936   5.601   3.032
   55CHL1   H1B 5222   3.824   5.722   2.966
   55CHL1    C2 5223   3.971   5.657   2.828
   55CHL1   H2A 5224   3.888   5.588   2.802
   55CHL1   H2B 5225   4.070   5.607   2.815
   55CHL1   C20 5226   3.913   5.986   3.730
   55CHL1   H20 5227   4.016   6.024   3.744
   55CHL1   C21 5228   3.913   5.834   3.766
   55CHL1  H21A 5229   3.806   5.806   3.775
   55CHL1  H21B 5230   3.951   5.825   3.870
   55CHL1  H21C 5231   3.981   5.774   3.701
   55CHL1   C22 5232   3.816   6.061   3.826
   55CHL1  H22A 5233   3.812   6.171   3.811
   55CHL1  H22B 5234   3.716   6.013   3.823
   55CHL1   C23 5235   3.850   6.041   3.975
   55CHL1  H23A 5236   3.826   5.935   3.999
   55CHL1  H23B 5237   3.959   6.059   3.988
   55CHL1   C24 5238   3.770   6.131   4.071
   55CHL1  H24A 5239   3.798   6.238   4.054
   55CHL1  H24B 5240   3.660   6.122   4.060
   55CHL1   C25 5241   3.808   6.097   4.215
   55CHL1   H25 5242   3.919   6.089   4.218
   55CHL1   C26 5243   3.776   6.203   4.314
   55CHL1  H26A 5244   3.812   6.297   4.267
   55CHL1  H26B 5245   3.666   6.208   4.327
   55CHL1  H26C 5246   3.823   6.166   4.408
   55CHL1   C27 5247   3.747   5.965   4.269
   55CHL1  H27A 5248   3.639   5.991   4.266
   55CHL1  H27B 5249   3.762   5.872   4.209
   55CHL1  H27C 5250   3.787   5.946   4.371
   56CHL1    C3 5251   5.424   2.048   3.101
   56CHL1    H3 5252   5.404   1.939   3.108
   56CHL1    O3 5253   5.429   2.082   2.961
   56CHL1   H3' 5254   5.520   2.069   2.935
   56CHL1    C4 5255   5.313   2.133   3.173
   56CHL1   H4A 5256   5.318   2.241   3.148
   56CHL1   H4B 5257   5.216   2.104   3.129
   56CHL1    C5 5258   5.315   2.115   3.325
   56CHL1    C6 5259   5.199   2.078   3.385
   56CHL1    H6 5260   5.109   2.074   3.323
   56CHL1    C7 5261   5.182   2.040   3.531
   56CHL1   H7A 5262   5.090   2.074   3.584
   56CHL1   H7B 5263   5.164   1.930   3.539
   56CHL1    C8 5264   5.314   2.083   3.614
   56CHL1    H8 5265   5.306   2.192   3.634
   56CHL1   C14 5266   5.320   2.017   3.748
   56CHL1   H14 5267   5.329   1.908   3.728
   56CHL1   C15 5268   5.204   2.045   3.845
   56CHL1  H15A 5269   5.156   2.144   3.827
   56CHL1  H15B 5270   5.133   1.961   3.852
   56CHL1   C16 5271   5.266   2.041   3.985
   56CHL1  H16A 5272   5.264   2.142   4.029
   56CHL1  H16B 5273   5.219   1.962   4.048
   56CHL1   C17 5274   5.414   1.996   3.966
   56CHL1   H17 5275   5.404   1.885   3.958
   56CHL1   C13 5276   5.450   2.048   3.824
   56CHL1   C18 5277   5.468   2.203   3.836
   56CHL1  H18A 5278   5.484   2.252   3.737
   56CHL1  H18B 5279   5.385   2.246   3.896
   56CHL1  H18C 5280   5.555   2.215   3.905
   56CHL1   C12 5281   5.571   1.981   3.757
   56CHL1  H12A 5282   5.667   1.997   3.810
   56CHL1  H12B 5283   5.548   1.873   3.751
   56CHL1   C11 5284   5.584   2.024   3.609
   56CHL1  H11A 5285   5.638   2.120   3.598
   56CHL1  H11B 5286   5.649   1.944   3.566
   56CHL1    C9 5287   5.440   2.040   3.535
   56CHL1    H9 5288   5.414   1.933   3.516
   56CHL1   C10 5289   5.446   2.109   3.398
   56CHL1   C19 5290   5.490   2.259   3.413
   56CHL1  H19A 5291   5.498   2.305   3.312
   56CHL1  H19B 5292   5.421   2.320   3.475
   56CHL1  H19C 5293   5.593   2.265   3.454
   56CHL1    C1 5294   5.546   2.033   3.311
   56CHL1   H1A 5295   5.647   2.048   3.354
   56CHL1   H1B 5296   5.537   1.923   3.327
   56CHL1    C2 5297   5.561   2.080   3.165
   56CHL1   H2A 5298   5.652   2.044   3.114
   56CHL1   H2B 5299   5.588   2.188   3.157
   56CHL1   C20 5300   5.498   2.028   4.090
   56CHL1   H20 5301   5.483   2.137   4.106
   56CHL1   C21 5302   5.644   1.992   4.075
   56CHL1  H21A 5303   5.662   1.895   4.025
   56CHL1  H21B 5304   5.700   1.970   4.168
   56CHL1  H21C 5305   5.696   2.073   4.019
   56CHL1   C22 5306   5.445   1.954   4.222
   56CHL1  H22A 5307   5.515   1.989   4.301
   56CHL1  H22B 5308   5.349   2.007   4.244
   56CHL1   C23 5309   5.440   1.805   4.234
   56CHL1  H23A 5310   5.392   1.758   4.145
   56CHL1  H23B 5311   5.543   1.763   4.233
   56CHL1   C24 5312   5.393   1.759   4.372
   56CHL1  H24A 5313   5.438   1.824   4.450
   56CHL1  H24B 5314   5.284   1.777   4.381
   56CHL1   C25 5315   5.410   1.609   4.394
   56CHL1   H25 5316   5.521   1.600   4.394
   56CHL1   C26 5317   5.354   1.563   4.526
   56CHL1  H26A 5318   5.244   1.573   4.538
   56CHL1  H26B 5319   5.372   1.454   4.533
   56CHL1  H26C 5320   5.395   1.609   4.618
   56CHL1   C27 5321   5.354   1.531   4.279
   56CHL1  H27A 5322   5.357   1.423   4.303
   56CHL1  H27B 5323   5.249   1.558   4.256
   56CHL1  H27C 5324   5.415   1.543   4.187
   57CHL1    C3 5325   3.960   6.739   2.745
   57CHL1    H3 5326   4.068   6.717   2.728
   57CHL1    O3 5327   3.899   6.755   2.619
   57CHL1   H3' 5328   3.806   6.770   2.634
   57CHL1    C4 5329   3.900   6.631   2.832
   57CHL1   H4A 5330   3.795   6.666   2.845
   57CHL1   H4B 5331   3.908   6.532   2.781
   57CHL1    C5 5332   3.956   6.628   2.974
   57CHL1    C6 5333   4.010   6.515   3.023
   57CHL1    H6 5334   4.012   6.422   2.964
   57CHL1    C7 5335   4.057   6.495   3.161
   57CHL1   H7A 5336   4.004   6.401   3.189
   57CHL1   H7B 5337   4.167   6.487   3.177
   57CHL1    C8 5338   4.018   6.610   3.253
   57CHL1    H8 5339   3.912   6.599   3.284
   57CHL1   C14 5340   4.096   6.606   3.384
   57CHL1   H14 5341   4.201   6.624   3.352
   57CHL1   C15 5342   4.097   6.472   3.461
   57CHL1  H15A 5343   3.994   6.431   3.466
   57CHL1  H15B 5344   4.167   6.391   3.432
   57CHL1   C16 5345   4.154   6.515   3.599
   57CHL1  H16A 5346   4.098   6.471   3.684
   57CHL1  H16B 5347   4.261   6.487   3.611
   57CHL1   C17 5348   4.146   6.671   3.604
   57CHL1   H17 5349   4.250   6.701   3.579
   57CHL1   C13 5350   4.068   6.723   3.484
   57CHL1   C18 5351   3.919   6.722   3.521
   57CHL1  H18A 5352   3.891   0.024   3.595
   57CHL1  H18B 5353   3.855   6.735   3.431
   57CHL1  H18C 5354   3.880   6.628   3.564
   57CHL1   C12 5355   4.102   0.074   3.414
   57CHL1  H12A 5356   4.093   0.153   3.491
   57CHL1  H12B 5357   4.211   0.068   3.391
   57CHL1   C11 5358   4.030   0.090   3.281
   57CHL1  H11A 5359   3.933   0.125   3.322
   57CHL1  H11B 5360   4.080   0.176   3.231
   57CHL1    C9 5361   4.038   6.747   3.182
   57CHL1    H9 5362   4.144   6.738   3.150
   57CHL1   C10 5363   3.952   6.764   3.056
   57CHL1   C19 5364   3.809   0.030   3.095
   57CHL1  H19A 5365   3.736   0.030   3.011
   57CHL1  H19B 5366   3.773   6.736   3.173
   57CHL1  H19C 5367   3.800   0.129   3.145
   57CHL1    C1 5368   4.017   0.081   2.959
   57CHL1   H1A 5369   4.019   0.180   3.009
   57CHL1   H1B 5370   4.123   0.052   2.945
   57CHL1    C2 5371   3.949   0.096   2.826
   57CHL1   H2A 5372   3.986   0.181   2.764
   57CHL1   H2B 5373   3.839   0.098   2.841
   57CHL1   C20 5374   4.106   6.719   3.748
   57CHL1   H20 5375   4.002   6.690   3.776
   57CHL1   C21 5376   4.110   0.101   3.754
   57CHL1  H21A 5377   4.038   0.151   3.686
   57CHL1  H21B 5378   4.214   0.138   3.738
   57CHL1  H21C 5379   4.072   0.131   3.854
   57CHL1   C22 5380   4.200   6.663   3.855
   57CHL1  H22A 5381   4.189   6.554   3.869
   57CHL1  H22B 5382   4.302   6.682   3.814
   57CHL1   C23 5383   4.180   6.708   4.003
   57CHL1  H23A 5384   4.205   0.040   4.009
   57CHL1  H23B 5385   4.071   6.705   4.024
   57CHL1   C24 5386   4.261   6.636   4.105
   57CHL1  H24A 5387   4.213   6.538   4.121
   57CHL1  H24B 5388   4.365   6.617   4.071
   57CHL1   C25 5389   4.278   6.706   4.248
   57CHL1   H25 5390   4.334   6.646   4.323
   57CHL1   C26 5391   4.353   0.063   4.241
   57CHL1  H26A 5392   4.320   0.129   4.158
   57CHL1  H26B 5393   4.341   0.101   4.345
   57CHL1  H26C 5394   4.463   0.059   4.224
   57CHL1   C27 5395   4.142   6.721   4.324
   57CHL1  H27A 5396   4.096   0.037   4.285
   57CHL1  H27B 5397   4.073   6.640   4.292
   57CHL1  H27C 5398   4.159   6.738   4.433
   58CHL1    C3 5399   4.067   1.057   3.395
   58CHL1    H3 5400   4.131   1.108   3.470
   58CHL1    O3 5401   4.140   1.065   3.276
   58CHL1   H3' 5402   4.118   0.984   3.231
   58CHL1    C4 5403   4.047   0.912   3.438
   58CHL1   H4A 5404   3.991   0.863   3.356
   58CHL1   H4B 5405   4.145   0.861   3.429
   58CHL1    C5 5406   3.978   0.906   3.570
   58CHL1    C6 5407   4.032   0.839   3.673
   58CHL1    H6 5408   4.133   0.799   3.659
   58CHL1    C7 5409   3.972   0.818   3.803
   58CHL1   H7A 5410   3.992   0.715   3.841
   58CHL1   H7B 5411   3.995   0.885   3.888
   58CHL1    C8 5412   3.814   0.835   3.796
   58CHL1    H8 5413   3.767   0.752   3.738
   58CHL1   C14 5414   3.751   0.850   3.935
   58CHL1   H14 5415   3.797   0.940   3.982
   58CHL1   C15 5416   3.784   0.739   4.032
   58CHL1  H15A 5417   3.782   0.640   3.981
   58CHL1  H15B 5418   3.888   0.745   4.071
   58CHL1   C16 5419   3.686   0.763   4.145
   58CHL1  H16A 5420   3.621   0.674   4.158
   58CHL1  H16B 5421   3.738   0.785   4.241
   58CHL1   C17 5422   3.587   0.877   4.098
   58CHL1   H17 5423   3.629   0.971   4.138
   58CHL1   C13 5424   3.606   0.884   3.940
   58CHL1   C18 5425   3.517   0.767   3.880
   58CHL1  H18A 5426   3.417   0.809   3.853
   58CHL1  H18B 5427   3.554   0.735   3.780
   58CHL1  H18C 5428   3.522   0.678   3.945
   58CHL1   C12 5429   3.581   1.018   3.874
   58CHL1  H12A 5430   3.475   1.051   3.881
   58CHL1  H12B 5431   3.650   1.087   3.927
   58CHL1   C11 5432   3.634   1.009   3.725
   58CHL1  H11A 5433   3.564   0.937   3.678
   58CHL1  H11B 5434   3.628   1.110   3.680
   58CHL1    C9 5435   3.782   0.958   3.713
   58CHL1    H9 5436   3.834   1.039   3.769
   58CHL1   C10 5437   3.845   0.970   3.568
   58CHL1   C19 5438   3.759   0.879   3.481
   58CHL1  H19A 5439   3.653   0.912   3.478
   58CHL1  H19B 5440   3.788   0.890   3.374
   58CHL1  H19C 5441   3.772   0.772   3.511
   58CHL1    C1 5442   3.864   1.109   3.508
   58CHL1   H1A 5443   3.761   1.146   3.486
   58CHL1   H1B 5444   3.908   1.169   3.590
   58CHL1    C2 5445   3.941   1.122   3.382
   58CHL1   H2A 5446   3.961   1.227   3.352
   58CHL1   H2B 5447   3.877   1.088   3.297
   58CHL1   C20 5448   3.452   0.868   4.159
   58CHL1   H20 5449   3.411   0.768   4.137
   58CHL1   C21 5450   3.349   0.964   4.097
   58CHL1  H21A 5451   3.334   0.933   3.991
   58CHL1  H21B 5452   3.386   1.068   4.085
   58CHL1  H21C 5453   3.260   0.971   4.163
   58CHL1   C22 5454   3.455   0.875   4.308
   58CHL1  H22A 5455   3.534   0.810   4.350
   58CHL1  H22B 5456   3.490   0.972   4.350
   58CHL1   C23 5457   3.329   0.841   4.380
   58CHL1  H23A 5458   3.267   0.933   4.388
   58CHL1  H23B 5459   3.278   0.766   4.316
   58CHL1   C24 5460   3.348   0.779   4.520
   58CHL1  H24A 5461   3.407   0.687   4.500
   58CHL1  H24B 5462   3.423   0.845   4.569
   58CHL1   C25 5463   3.216   0.756   4.594
   58CHL1   H25 5464   3.164   0.854   4.607
   58CHL1   C26 5465   3.118   0.672   4.511
   58CHL1  H26A 5466   3.019   0.648   4.556
   58CHL1  H26B 5467   3.083   0.731   4.423
   58CHL1  H26C 5468   3.173   0.585   4.469
   58CHL1   C27 5469   3.230   0.691   4.734
   58CHL1  H27A 5470   3.259   0.584   4.725
   58CHL1  H27B 5471   3.310   0.736   4.797
   58CHL1  H27C 5472   3.137   0.706   4.792
   59CHL1    C3 5473   2.361   4.972   3.010
   59CHL1    H3 5474   2.253   4.998   3.006
   59CHL1    O3 5475   2.419   4.982   2.879
   59CHL1   H3' 5476   2.490   5.046   2.887
   59CHL1    C4 5477   2.444   5.068   3.093
   59CHL1   H4A 5478   2.553   5.046   3.096
   59CHL1   H4B 5479   2.444   5.173   3.058
   59CHL1    C5 5480   2.399   5.062   3.240
   59CHL1    C6 5481   2.349   5.170   3.296
   59CHL1    H6 5482   2.345   5.268   3.246
   59CHL1    C7 5483   2.299   5.182   3.436
   59CHL1   H7A 5484   2.353   5.262   3.489
   59CHL1   H7B 5485   2.189   5.199   3.432
   59CHL1    C8 5486   2.331   5.056   3.517
   59CHL1    H8 5487   2.439   5.049   3.540
   59CHL1   C14 5488   2.252   5.057   3.644
   59CHL1   H14 5489   2.148   5.071   3.608
   59CHL1   C15 5490   2.260   5.175   3.736
   59CHL1  H15A 5491   2.366   5.209   3.741
   59CHL1  H15B 5492   2.211   5.265   3.694
   59CHL1   C16 5493   2.188   5.131   3.864
   59CHL1  H16A 5494   2.253   5.155   3.951
   59CHL1  H16B 5495   2.093   5.186   3.878
   59CHL1   C17 5496   2.172   4.972   3.847
   59CHL1   H17 5497   2.072   4.956   3.801
   59CHL1   C13 5498   2.253   4.927   3.728
   59CHL1   C18 5499   2.401   4.896   3.773
   59CHL1  H18A 5500   2.439   4.964   3.851
   59CHL1  H18B 5501   2.410   4.796   3.821
   59CHL1  H18C 5502   2.475   4.906   3.690
   59CHL1   C12 5503   2.209   4.810   3.641
   59CHL1  H12A 5504   2.217   4.718   3.703
   59CHL1  H12B 5505   2.103   4.832   3.614
   59CHL1   C11 5506   2.303   4.796   3.522
   59CHL1  H11A 5507   2.402   4.757   3.555
   59CHL1  H11B 5508   2.270   4.710   3.459
   59CHL1    C9 5509   2.309   4.924   3.432
   59CHL1    H9 5510   2.204   4.942   3.399
   59CHL1   C10 5511   2.391   4.922   3.304
   59CHL1   C19 5512   2.533   4.872   3.347
   59CHL1  H19A 5513   2.607   4.878   3.264
   59CHL1  H19B 5514   2.566   4.925   3.438
   59CHL1  H19C 5515   2.534   4.763   3.367
   59CHL1    C1 5516   2.325   4.822   3.206
   59CHL1   H1A 5517   2.337   4.719   3.246
   59CHL1   H1B 5518   2.216   4.845   3.210
   59CHL1    C2 5519   2.373   4.831   3.060
   59CHL1   H2A 5520   2.318   4.765   2.989
   59CHL1   H2B 5521   2.480   4.802   3.057
   59CHL1   C20 5522   2.189   4.896   3.983
   59CHL1   H20 5523   2.291   4.902   4.026
   59CHL1   C21 5524   2.143   4.753   3.972
   59CHL1  H21A 5525   2.149   4.701   4.070
   59CHL1  H21B 5526   2.203   4.690   3.902
   59CHL1  H21C 5527   2.042   4.755   3.926
   59CHL1   C22 5528   2.106   4.958   4.095
   59CHL1  H22A 5529   2.134   5.065   4.106
   59CHL1  H22B 5530   1.998   4.954   4.071
   59CHL1   C23 5531   2.128   4.897   4.236
   59CHL1  H23A 5532   2.075   4.800   4.245
   59CHL1  H23B 5533   2.235   4.873   4.249
   59CHL1   C24 5534   2.075   4.996   4.338
   59CHL1  H24A 5535   2.127   5.094   4.344
   59CHL1  H24B 5536   1.976   5.026   4.297
   59CHL1   C25 5537   2.076   4.949   4.477
   59CHL1   H25 5538   2.018   4.854   4.483
   59CHL1   C26 5539   2.219   4.915   4.531
   59CHL1  H26A 5540   2.284   5.004   4.514
   59CHL1  H26B 5541   2.222   4.900   4.641
   59CHL1  H26C 5542   2.257   4.826   4.477
   59CHL1   C27 5543   2.014   5.057   4.568
   59CHL1  H27A 5544   2.060   5.157   4.557
   59CHL1  H27B 5545   1.908   5.079   4.541
   59CHL1  H27C 5546   2.013   5.034   4.676
   60CHL1    C3 5547   5.535   6.295   2.768
   60CHL1    H3 5548   5.555   6.401   2.795
   60CHL1    O3 5549   5.518   6.284   2.621
   60CHL1   H3' 5550   5.609   6.289   2.592
   60CHL1    C4 5551   5.656   6.211   2.821
   60CHL1   H4A 5552   5.642   6.106   2.787
   60CHL1   H4B 5553   5.746   6.257   2.777
   60CHL1    C5 5554   5.664   6.193   2.972
   60CHL1    C6 5555   5.779   6.211   3.026
   60CHL1    H6 5556   5.865   6.241   2.963
   60CHL1    C7 5557   5.804   6.200   3.180
   60CHL1   H7A 5558   5.901   6.148   3.195
   60CHL1   H7B 5559   5.816   6.302   3.223
   60CHL1    C8 5560   5.690   6.117   3.254
   60CHL1    H8 5561   5.698   6.009   3.229
   60CHL1   C14 5562   5.691   6.147   3.396
   60CHL1   H14 5563   5.666   6.254   3.414
   60CHL1   C15 5564   5.819   6.131   3.486
   60CHL1  H15A 5565   5.871   6.046   3.436
   60CHL1  H15B 5566   5.883   6.219   3.467
   60CHL1   C16 5567   5.766   6.114   3.628
   60CHL1  H16A 5568   5.812   6.023   3.672
   60CHL1  H16B 5569   5.809   6.202   3.680
   60CHL1   C17 5570   5.611   6.122   3.625
   60CHL1   H17 5571   5.596   6.232   3.628
   60CHL1   C13 5572   5.584   6.078   3.477
   60CHL1   C18 5573   5.615   5.925   3.477
   60CHL1  H18A 5574   5.533   5.886   3.541
   60CHL1  H18B 5575   5.594   5.882   3.377
   60CHL1  H18C 5576   5.713   5.889   3.514
   60CHL1   C12 5577   5.447   6.110   3.425
   60CHL1  H12A 5578   5.364   6.054   3.476
   60CHL1  H12B 5579   5.425   6.219   3.428
   60CHL1   C11 5580   5.440   6.087   3.271
   60CHL1  H11A 5581   5.457   5.978   3.255
   60CHL1  H11B 5582   5.339   6.113   3.232
   60CHL1    C9 5583   5.557   6.160   3.197
   60CHL1    H9 5584   5.540   6.266   3.224
   60CHL1   C10 5585   5.540   6.147   3.049
   60CHL1   C19 5586   5.529   6.001   3.012
   60CHL1  H19A 5587   5.429   5.962   3.039
   60CHL1  H19B 5588   5.539   5.997   2.902
   60CHL1  H19C 5589   5.615   5.943   3.053
   60CHL1    C1 5590   5.422   6.230   2.992
   60CHL1   H1A 5591   5.326   6.191   3.032
   60CHL1   H1B 5592   5.444   6.332   3.029
   60CHL1    C2 5593   5.414   6.237   2.839
   60CHL1   H2A 5594   5.320   6.277   2.794
   60CHL1   H2B 5595   5.410   6.132   2.803
   60CHL1   C20 5596   5.538   6.066   3.748
   60CHL1   H20 5597   5.491   5.973   3.708
   60CHL1   C21 5598   5.414   6.169   3.774
   60CHL1  H21A 5599   5.363   6.192   3.679
   60CHL1  H21B 5600   5.467   6.261   3.809
   60CHL1  H21C 5601   5.346   6.117   3.845
   60CHL1   C22 5602   5.625   6.053   3.874
   60CHL1  H22A 5603   5.696   5.967   3.866
   60CHL1  H22B 5604   5.680   6.148   3.889
   60CHL1   C23 5605   5.545   6.022   3.999
   60CHL1  H23A 5606   5.513   6.123   4.034
   60CHL1  H23B 5607   5.457   5.959   3.975
   60CHL1   C24 5608   5.630   5.959   4.117
   60CHL1  H24A 5609   5.567   5.943   4.207
   60CHL1  H24B 5610   5.656   5.856   4.085
   60CHL1   C25 5611   5.749   6.032   4.177
   60CHL1   H25 5612   5.818   6.066   4.097
   60CHL1   C26 5613   5.702   6.155   4.256
   60CHL1  H26A 5614   5.643   6.217   4.185
   60CHL1  H26B 5615   5.639   6.116   4.339
   60CHL1  H26C 5616   5.778   6.216   4.309
   60CHL1   C27 5617   5.819   5.933   4.276
   60CHL1  H27A 5618   5.857   5.850   4.213
   60CHL1  H27B 5619   5.906   5.978   4.328
   60CHL1  H27C 5620   5.750   5.891   4.351
   61CHL1    C3 5621   5.068   2.549   3.129
   61CHL1    H3 5622   5.141   2.633   3.133
   61CHL1    O3 5623   5.071   2.482   3.009
   61CHL1   H3' 5624   5.163   2.479   2.982
   61CHL1    C4 5625   5.098   2.447   3.244
   61CHL1   H4A 5626   5.037   2.354   3.236
   61CHL1   H4B 5627   5.201   2.406   3.230
   61CHL1    C5 5628   5.065   2.508   3.378
   61CHL1    C6 5629   5.151   2.489   3.473
   61CHL1    H6 5630   5.240   2.431   3.445
   61CHL1    C7 5631   5.135   2.536   3.619
   61CHL1   H7A 5632   5.147   2.453   3.692
   61CHL1   H7B 5633   5.202   2.621   3.642
   61CHL1    C8 5634   4.989   2.581   3.650
   61CHL1    H8 5635   4.925   2.490   3.659
   61CHL1   C14 5636   4.975   2.662   3.780
   61CHL1   H14 5637   5.030   2.756   3.759
   61CHL1   C15 5638   5.022   2.599   3.913
   61CHL1  H15A 5639   4.991   2.493   3.918
   61CHL1  H15B 5640   5.133   2.610   3.907
   61CHL1   C16 5641   4.945   2.678   4.023
   61CHL1  H16A 5642   4.888   2.606   4.085
   61CHL1  H16B 5643   5.019   2.736   4.083
   61CHL1   C17 5644   4.854   2.780   3.950
   61CHL1   H17 5645   4.916   2.866   3.918
   61CHL1   C13 5646   4.831   2.720   3.810
   61CHL1   C18 5647   4.722   2.609   3.819
   61CHL1  H18A 5648   4.715   2.546   3.728
   61CHL1  H18B 5649   4.745   2.546   3.908
   61CHL1  H18C 5650   4.620   2.648   3.844
   61CHL1   C12 5651   4.796   2.822   3.697
   61CHL1  H12A 5652   4.697   2.872   3.706
   61CHL1  H12B 5653   4.869   2.905   3.688
   61CHL1   C11 5654   4.801   2.743   3.560
   61CHL1  H11A 5655   4.717   2.671   3.568
   61CHL1  H11B 5656   4.772   2.809   3.475
   61CHL1    C9 5657   4.935   2.666   3.530
   61CHL1    H9 5658   5.007   2.750   3.522
   61CHL1   C10 5659   4.941   2.593   3.398
   61CHL1   C19 5660   4.825   2.481   3.391
   61CHL1  H19A 5661   4.845   2.411   3.307
   61CHL1  H19B 5662   4.820   2.413   3.478
   61CHL1  H19C 5663   4.725   2.529   3.383
   61CHL1    C1 5664   4.926   2.684   3.279
   61CHL1   H1A 5665   4.838   2.752   3.277
   61CHL1   H1B 5666   5.008   2.759   3.280
   61CHL1    C2 5667   4.935   2.615   3.143
   61CHL1   H2A 5668   4.932   2.687   3.058
   61CHL1   H2B 5669   4.855   2.538   3.136
   61CHL1   C20 5670   4.729   2.833   4.031
   61CHL1   H20 5671   4.645   2.761   4.039
   61CHL1   C21 5672   4.673   2.956   3.965
   61CHL1  H21A 5673   4.750   3.012   3.909
   61CHL1  H21B 5674   4.636   3.031   4.038
   61CHL1  H21C 5675   4.594   2.955   3.886
   61CHL1   C22 5676   4.761   2.863   4.182
   61CHL1  H22A 5677   4.667   2.887   4.237
   61CHL1  H22B 5678   4.805   2.778   4.239
   61CHL1   C23 5679   4.856   2.981   4.196
   61CHL1  H23A 5680   4.947   2.979   4.133
   61CHL1  H23B 5681   4.809   3.075   4.161
   61CHL1   C24 5682   4.893   2.996   4.345
   61CHL1  H24A 5683   4.951   3.090   4.359
   61CHL1  H24B 5684   4.800   2.999   4.406
   61CHL1   C25 5685   4.977   2.885   4.419
   61CHL1   H25 5686   4.925   2.788   4.403
   61CHL1   C26 5687   5.119   2.879   4.348
   61CHL1  H26A 5688   5.158   2.983   4.353
   61CHL1  H26B 5689   5.177   2.813   4.415
   61CHL1  H26C 5690   5.120   2.846   4.242
   61CHL1   C27 5691   4.990   2.913   4.564
   61CHL1  H27A 5692   5.026   3.018   4.575
   61CHL1  H27B 5693   4.895   2.894   4.616
   61CHL1  H27C 5694   5.060   2.840   4.611
   62CHL1    C3 5695   1.464   1.017   2.876
   62CHL1    H3 5696   1.445   1.125   2.857
   62CHL1    O3 5697   1.491   0.964   2.747
   62CHL1   H3' 5698   1.516   0.872   2.754
   62CHL1    C4 5699   1.585   1.003   2.964
   62CHL1   H4A 5700   1.610   0.894   2.967
   62CHL1   H4B 5701   1.670   1.070   2.940
   62CHL1    C5 5702   1.537   1.054   3.109
   62CHL1    C6 5703   1.601   1.154   3.178
   62CHL1    H6 5704   1.689   1.200   3.130
   62CHL1    C7 5705   1.575   1.195   3.320
   62CHL1   H7A 5706   1.671   1.201   3.377
   62CHL1   H7B 5707   1.532   1.297   3.315
   62CHL1    C8 5708   1.478   1.104   3.393
   62CHL1    H8 5709   1.532   1.018   3.439
   62CHL1   C14 5710   1.406   1.167   3.517
   62CHL1   H14 5711   1.338   1.248   3.484
   62CHL1   C15 5712   1.503   1.230   3.622
   62CHL1  H15A 5713   1.594   1.168   3.633
   62CHL1  H15B 5714   1.553   1.325   3.595
   62CHL1   C16 5715   1.418   1.242   3.744
   62CHL1  H16A 5716   1.456   1.187   3.833
   62CHL1  H16B 5717   1.394   1.346   3.773
   62CHL1   C17 5718   1.280   1.182   3.711
   62CHL1   H17 5719   1.225   1.268   3.667
   62CHL1   C13 5720   1.312   1.082   3.597
   62CHL1   C18 5721   1.381   0.959   3.659
   62CHL1  H18A 5722   1.427   0.896   3.580
   62CHL1  H18B 5723   1.458   0.988   3.734
   62CHL1  H18C 5724   1.305   0.901   3.716
   62CHL1   C12 5725   1.200   1.047   3.500
   62CHL1  H12A 5726   1.135   0.981   3.561
   62CHL1  H12B 5727   1.134   1.133   3.474
   62CHL1   C11 5728   1.251   0.976   3.377
   62CHL1  H11A 5729   1.288   0.876   3.408
   62CHL1  H11B 5730   1.166   0.957   3.307
   62CHL1    C9 5731   1.358   1.050   3.300
   62CHL1    H9 5732   1.308   1.145   3.270
   62CHL1   C10 5733   1.407   0.985   3.167
   62CHL1   C19 5734   1.447   0.837   3.201
   62CHL1  H19A 5735   1.522   0.828   3.283
   62CHL1  H19B 5736   1.368   0.768   3.236
   62CHL1  H19C 5737   1.490   0.791   3.110
   62CHL1    C1 5738   1.288   0.997   3.066
   62CHL1   H1A 5739   1.197   0.937   3.086
   62CHL1   H1B 5740   1.257   1.102   3.048
   62CHL1    C2 5741   1.330   0.945   2.933
   62CHL1   H2A 5742   1.254   0.968   2.855
   62CHL1   H2B 5743   1.363   0.839   2.932
   62CHL1   C20 5744   1.211   1.137   3.845
   62CHL1   H20 5745   1.282   1.071   3.898
   62CHL1   C21 5746   1.082   1.061   3.817
   62CHL1  H21A 5747   1.107   0.963   3.771
   62CHL1  H21B 5748   1.010   1.110   3.748
   62CHL1  H21C 5749   1.032   1.016   3.906
   62CHL1   C22 5750   1.185   1.256   3.941
   62CHL1  H22A 5751   1.153   1.206   4.035
   62CHL1  H22B 5752   1.283   1.300   3.969
   62CHL1   C23 5753   1.086   1.367   3.890
   62CHL1  H23A 5754   1.137   1.418   3.805
   62CHL1  H23B 5755   0.993   1.322   3.848
   62CHL1   C24 5756   1.035   1.449   4.010
   62CHL1  H24A 5757   0.963   1.518   3.961
   62CHL1  H24B 5758   0.984   1.383   4.084
   62CHL1   C25 5759   1.148   1.515   4.087
   62CHL1   H25 5760   1.220   1.437   4.121
   62CHL1   C26 5761   1.230   1.614   4.002
   62CHL1  H26A 5762   1.280   1.684   4.073
   62CHL1  H26B 5763   1.309   1.553   3.953
   62CHL1  H26C 5764   1.174   1.680   3.932
   62CHL1   C27 5765   1.087   1.570   4.216
   62CHL1  H27A 5766   1.006   1.640   4.187
   62CHL1  H27B 5767   1.056   1.487   4.283
   62CHL1  H27C 5768   1.173   1.612   4.272
   63CHL1    C3 5769   4.056   5.120   2.820
   63CHL1    H3 5770   3.984   5.037   2.834
   63CHL1    O3 5771   4.070   5.126   2.682
   63CHL1   H3' 5772   4.144   5.187   2.668
   63CHL1    C4 5773   4.001   5.256   2.871
   63CHL1   H4A 5774   4.055   5.345   2.831
   63CHL1   H4B 5775   3.903   5.273   2.819
   63CHL1    C5 5776   3.990   5.265   3.021
   63CHL1    C6 5777   3.878   5.281   3.081
   63CHL1    H6 5778   3.781   5.289   3.029
   63CHL1    C7 5779   3.861   5.307   3.227
   63CHL1   H7A 5780   3.811   5.405   3.237
   63CHL1   H7B 5781   3.795   5.229   3.272
   63CHL1    C8 5782   3.996   5.325   3.302
   63CHL1    H8 5783   4.037   5.428   3.287
   63CHL1   C14 5784   3.963   5.302   3.449
   63CHL1   H14 5785   3.930   5.197   3.459
   63CHL1   C15 5786   3.843   5.377   3.505
   63CHL1  H15A 5787   3.835   5.484   3.476
   63CHL1  H15B 5788   3.746   5.327   3.484
   63CHL1   C16 5789   3.869   5.361   3.657
   63CHL1  H16A 5790   3.861   5.461   3.705
   63CHL1  H16B 5791   3.798   5.290   3.704
   63CHL1   C17 5792   4.009   5.292   3.681
   63CHL1   H17 5793   3.997   5.182   3.687
   63CHL1   C13 5794   4.080   5.312   3.544
   63CHL1   C18 5795   4.144   5.453   3.533
   63CHL1  H18A 5796   4.224   5.462   3.610
   63CHL1  H18B 5797   4.194   5.469   3.435
   63CHL1  H18C 5798   4.066   5.532   3.534
   63CHL1   C12 5799   4.181   5.204   3.493
   63CHL1  H12A 5800   4.279   5.226   3.541
   63CHL1  H12B 5801   4.147   5.101   3.515
   63CHL1   C11 5802   4.219   5.215   3.342
   63CHL1  H11A 5803   4.275   5.310   3.328
   63CHL1  H11B 5804   4.286   5.135   3.305
   63CHL1    C9 5805   4.095   5.228   3.255
   63CHL1    H9 5806   4.041   5.132   3.270
   63CHL1   C10 5807   4.122   5.236   3.101
   63CHL1   C19 5808   4.225   5.351   3.087
   63CHL1  H19A 5809   4.197   5.439   3.150
   63CHL1  H19B 5810   4.322   5.304   3.112
   63CHL1  H19C 5811   4.231   5.384   2.981
   63CHL1    C1 5812   4.172   5.101   3.037
   63CHL1   H1A 5813   4.267   5.078   3.090
   63CHL1   H1B 5814   4.099   5.027   3.075
   63CHL1    C2 5815   4.183   5.079   2.891
   63CHL1   H2A 5816   4.213   4.973   2.876
   63CHL1   H2B 5817   4.263   5.139   2.844
   63CHL1   C20 5818   4.079   5.345   3.810
   63CHL1   H20 5819   4.098   5.453   3.793
   63CHL1   C21 5820   4.217   5.275   3.818
   63CHL1  H21A 5821   4.293   5.286   3.737
   63CHL1  H21B 5822   4.195   5.167   3.834
   63CHL1  H21C 5823   4.271   5.309   3.908
   63CHL1   C22 5824   3.987   5.327   3.944
   63CHL1  H22A 5825   3.909   5.407   3.941
   63CHL1  H22B 5826   3.940   5.226   3.941
   63CHL1   C23 5827   4.061   5.338   4.073
   63CHL1  H23A 5828   4.142   5.262   4.079
   63CHL1  H23B 5829   4.117   5.433   4.068
   63CHL1   C24 5830   3.978   5.342   4.205
   63CHL1  H24A 5831   4.057   5.351   4.282
   63CHL1  H24B 5832   3.908   5.428   4.204
   63CHL1   C25 5833   3.880   5.226   4.234
   63CHL1   H25 5834   3.800   5.225   4.157
   63CHL1   C26 5835   3.946   5.084   4.227
   63CHL1  H26A 5836   4.014   5.069   4.313
   63CHL1  H26B 5837   3.872   5.001   4.234
   63CHL1  H26C 5838   4.000   5.077   4.130
   63CHL1   C27 5839   3.801   5.239   4.370
   63CHL1  H27A 5840   3.786   5.347   4.392
   63CHL1  H27B 5841   3.708   5.181   4.353
   63CHL1  H27C 5842   3.847   5.180   4.452
   64CHL1    C3 5843   2.430   2.721   3.036
   64CHL1    H3 5844   2.321   2.743   3.030
   64CHL1    O3 5845   2.505   2.734   2.917
   64CHL1   H3' 5846   2.598   2.725   2.941
   64CHL1    C4 5847   2.491   2.804   3.148
   64CHL1   H4A 5848   2.596   2.773   3.165
   64CHL1   H4B 5849   2.490   2.908   3.108
   64CHL1    C5 5850   2.420   2.791   3.281
   64CHL1    C6 5851   2.364   2.900   3.335
   64CHL1    H6 5852   2.383   3.000   3.294
   64CHL1    C7 5853   2.286   2.889   3.469
   64CHL1   H7A 5854   2.323   2.968   3.537
   64CHL1   H7B 5855   2.179   2.917   3.463
   64CHL1    C8 5856   2.309   2.748   3.546
   64CHL1    H8 5857   2.416   2.760   3.576
   64CHL1   C14 5858   2.218   2.733   3.656
   64CHL1   H14 5859   2.114   2.732   3.617
   64CHL1   C15 5860   2.224   2.848   3.760
   64CHL1  H15A 5861   2.328   2.868   3.794
   64CHL1  H15B 5862   2.182   2.945   3.728
   64CHL1   C16 5863   2.160   2.780   3.884
   64CHL1  H16A 5864   2.227   2.796   3.972
   64CHL1  H16B 5865   2.058   2.817   3.908
   64CHL1   C17 5866   2.135   2.629   3.840
   64CHL1   H17 5867   2.032   2.623   3.798
   64CHL1   C13 5868   2.233   2.599   3.727
   64CHL1   C18 5869   2.379   2.590   3.780
   64CHL1  H18A 5870   2.452   2.599   3.697
   64CHL1  H18B 5871   2.411   2.671   3.848
   64CHL1  H18C 5872   2.389   2.502   3.848
   64CHL1   C12 5873   2.195   2.481   3.630
   64CHL1  H12A 5874   2.216   2.382   3.676
   64CHL1  H12B 5875   2.089   2.486   3.598
   64CHL1   C11 5876   2.300   2.490   3.515
   64CHL1  H11A 5877   2.402   2.462   3.550
   64CHL1  H11B 5878   2.271   2.413   3.441
   64CHL1    C9 5879   2.294   2.631   3.449
   64CHL1    H9 5880   2.196   2.646   3.400
   64CHL1   C10 5881   2.399   2.647   3.337
   64CHL1   C19 5882   2.541   2.597   3.389
   64CHL1  H19A 5883   2.572   2.660   3.476
   64CHL1  H19B 5884   2.552   2.492   3.425
   64CHL1  H19C 5885   2.617   2.605   3.308
   64CHL1    C1 5886   2.360   2.563   3.214
   64CHL1   H1A 5887   2.372   2.456   3.244
   64CHL1   H1B 5888   2.250   2.562   3.198
   64CHL1    C2 5889   2.439   2.573   3.082
   64CHL1   H2A 5890   2.391   2.508   3.005
   64CHL1   H2B 5891   2.540   2.538   3.113
   64CHL1   C20 5892   2.138   2.527   3.961
   64CHL1   H20 5893   2.238   2.524   4.009
   64CHL1   C21 5894   2.101   2.386   3.917
   64CHL1  H21A 5895   2.195   2.331   3.896
   64CHL1  H21B 5896   2.047   2.386   3.820
   64CHL1  H21C 5897   2.048   2.328   3.996
   64CHL1   C22 5898   2.037   2.573   4.070
   64CHL1  H22A 5899   2.034   2.683   4.079
   64CHL1  H22B 5900   1.937   2.540   4.036
   64CHL1   C23 5901   2.071   2.510   4.206
   64CHL1  H23A 5902   2.046   2.402   4.197
   64CHL1  H23B 5903   2.182   2.520   4.217
   64CHL1   C24 5904   1.992   2.573   4.321
   64CHL1  H24A 5905   1.893   2.602   4.278
   64CHL1  H24B 5906   1.977   2.495   4.398
   64CHL1   C25 5907   2.047   2.712   4.372
   64CHL1   H25 5908   2.087   2.769   4.285
   64CHL1   C26 5909   1.946   2.802   4.443
   64CHL1  H26A 5910   1.914   2.758   4.540
   64CHL1  H26B 5911   1.990   2.903   4.453
   64CHL1  H26C 5912   1.855   2.826   4.383
   64CHL1   C27 5913   2.179   2.685   4.452
   64CHL1  H27A 5914   2.267   2.645   4.396
   64CHL1  H27B 5915   2.199   2.783   4.500
   64CHL1  H27C 5916   2.163   2.610   4.532
   65CHL1    C3 5917   0.660   0.820   2.656
   65CHL1    H3 5918   0.633   0.926   2.641
   65CHL1    O3 5919   0.685   0.769   2.528
   65CHL1   H3' 5920   0.661   0.676   2.525
   65CHL1    C4 5921   0.795   0.821   2.741
   65CHL1   H4A 5922   0.835   0.717   2.746
   65CHL1   H4B 5923   0.875   0.880   2.690
   65CHL1    C5 5924   0.779   0.860   2.882
   65CHL1    C6 5925   0.859   0.959   2.925
   65CHL1    H6 5926   0.932   1.000   2.853
   65CHL1    C7 5927   0.864   1.005   3.067
   65CHL1   H7A 5928   0.961   1.011   3.119
   65CHL1   H7B 5929   0.834   1.112   3.080
   65CHL1    C8 5930   0.774   0.916   3.162
   65CHL1    H8 5931   0.831   0.822   3.179
   65CHL1   C14 5932   0.749   0.994   3.293
   65CHL1   H14 5933   0.687   1.076   3.251
   65CHL1   C15 5934   0.862   1.062   3.363
   65CHL1  H15A 5935   0.932   0.982   3.394
   65CHL1  H15B 5936   0.922   1.134   3.303
   65CHL1   C16 5937   0.797   1.114   3.492
   65CHL1  H16A 5938   0.860   1.088   3.580
   65CHL1  H16B 5939   0.773   1.222   3.478
   65CHL1   C17 5940   0.664   1.041   3.501
   65CHL1   H17 5941   0.589   1.113   3.459
   65CHL1   C13 5942   0.667   0.929   3.397
   65CHL1   C18 5943   0.740   0.805   3.453
   65CHL1  H18A 5944   0.757   0.727   3.377
   65CHL1  H18B 5945   0.839   0.827   3.499
   65CHL1  H18C 5946   0.671   0.757   3.526
   65CHL1   C12 5947   0.528   0.884   3.330
   65CHL1  H12A 5948   0.460   0.822   3.392
   65CHL1  H12B 5949   0.478   0.981   3.307
   65CHL1   C11 5950   0.541   0.815   3.193
   65CHL1  H11A 5951   0.570   0.709   3.210
   65CHL1  H11B 5952   0.448   0.825   3.133
   65CHL1    C9 5953   0.642   0.876   3.094
   65CHL1    H9 5954   0.589   0.971   3.067
   65CHL1   C10 5955   0.658   0.795   2.962
   65CHL1   C19 5956   0.701   0.651   2.988
   65CHL1  H19A 5957   0.792   0.640   3.051
   65CHL1  H19B 5958   0.615   0.610   3.045
   65CHL1  H19C 5959   0.718   0.594   2.894
   65CHL1    C1 5960   0.526   0.804   2.878
   65CHL1   H1A 5961   0.451   0.747   2.937
   65CHL1   H1B 5962   0.484   0.902   2.850
   65CHL1    C2 5963   0.548   0.747   2.734
   65CHL1   H2A 5964   0.459   0.769   2.671
   65CHL1   H2B 5965   0.561   0.637   2.740
   65CHL1   C20 5966   0.626   0.996   3.645
   65CHL1   H20 5967   0.699   0.915   3.665
   65CHL1   C21 5968   0.475   0.951   3.645
   65CHL1  H21A 5969   0.434   0.918   3.743
   65CHL1  H21B 5970   0.471   0.855   3.589
   65CHL1  H21C 5971   0.418   1.038   3.607
   65CHL1   C22 5972   0.638   1.106   3.756
   65CHL1  H22A 5973   0.740   1.147   3.742
   65CHL1  H22B 5974   0.561   1.185   3.745
   65CHL1   C23 5975   0.638   1.051   3.901
   65CHL1  H23A 5976   0.536   1.024   3.934
   65CHL1  H23B 5977   0.704   0.962   3.911
   65CHL1   C24 5978   0.707   1.148   3.991
   65CHL1  H24A 5979   0.815   1.151   3.964
   65CHL1  H24B 5980   0.675   1.253   3.978
   65CHL1   C25 5981   0.691   1.127   4.148
   65CHL1   H25 5982   0.773   1.193   4.181
   65CHL1   C26 5983   0.553   1.155   4.191
   65CHL1  H26A 5984   0.510   1.244   4.140
   65CHL1  H26B 5985   0.483   1.070   4.173
   65CHL1  H26C 5986   0.532   1.188   4.295
   65CHL1   C27 5987   0.729   0.990   4.211
   65CHL1  H27A 5988   0.734   1.007   4.321
   65CHL1  H27B 5989   0.646   0.917   4.199
   65CHL1  H27C 5990   0.819   0.945   4.165
   66CHL1    C3 5991   4.311   2.232   3.242
   66CHL1    H3 5992   4.228   2.162   3.267
   66CHL1    O3 5993   4.315   2.267   3.103
   66CHL1   H3' 5994   4.406   2.295   3.094
   66CHL1    C4 5995   4.295   2.363   3.317
   66CHL1   H4A 5996   4.375   2.434   3.288
   66CHL1   H4B 5997   4.201   2.404   3.275
   66CHL1    C5 5998   4.275   2.353   3.465
   66CHL1    C6 5999   4.163   2.391   3.526
   66CHL1    H6 6000   4.092   2.445   3.463
   66CHL1    C7 6001   4.134   2.356   3.667
   66CHL1   H7A 6002   4.089   2.443   3.719
   66CHL1   H7B 6003   4.057   2.277   3.671
   66CHL1    C8 6004   4.253   2.309   3.748
   66CHL1    H8 6005   4.311   2.403   3.761
   66CHL1   C14 6006   4.215   2.247   3.885
   66CHL1   H14 6007   4.175   2.148   3.854
   66CHL1   C15 6008   4.122   2.328   3.970
   66CHL1  H15A 6009   4.152   2.435   3.974
   66CHL1  H15B 6010   4.018   2.310   3.934
   66CHL1   C16 6011   4.138   2.271   4.115
   66CHL1  H16A 6012   4.161   2.358   4.181
   66CHL1  H16B 6013   4.045   2.217   4.143
   66CHL1   C17 6014   4.264   2.176   4.102
   66CHL1   H17 6015   4.217   2.078   4.082
   66CHL1   C13 6016   4.339   2.220   3.974
   66CHL1   C18 6017   4.421   2.348   4.000
   66CHL1  H18A 6018   4.515   2.315   4.049
   66CHL1  H18B 6019   4.441   2.414   3.913
   66CHL1  H18C 6020   4.365   2.412   4.071
   66CHL1   C12 6021   4.429   2.119   3.900
   66CHL1  H12A 6022   4.515   2.089   3.964
   66CHL1  H12B 6023   4.363   2.032   3.882
   66CHL1   C11 6024   4.467   2.163   3.754
   66CHL1  H11A 6025   4.540   2.243   3.775
   66CHL1  H11B 6026   4.513   2.079   3.697
   66CHL1    C9 6027   4.348   2.216   3.674
   66CHL1    H9 6028   4.288   2.128   3.644
   66CHL1   C10 6029   4.386   2.274   3.529
   66CHL1   C19 6030   4.502   2.373   3.537
   66CHL1  H19A 6031   4.512   2.424   3.439
   66CHL1  H19B 6032   4.495   2.451   3.616
   66CHL1  H19C 6033   4.596   2.321   3.565
   66CHL1    C1 6034   4.431   2.148   3.439
   66CHL1   H1A 6035   4.532   2.116   3.473
   66CHL1   H1B 6036   4.355   2.070   3.457
   66CHL1    C2 6037   4.441   2.171   3.284
   66CHL1   H2A 6038   4.461   2.075   3.232
   66CHL1   H2B 6039   4.519   2.244   3.253
   66CHL1   C20 6040   4.348   2.166   4.233
   66CHL1   H20 6041   4.391   2.263   4.265
   66CHL1   C21 6042   4.464   2.066   4.223
   66CHL1  H21A 6043   4.437   1.976   4.165
   66CHL1  H21B 6044   4.498   2.019   4.318
   66CHL1  H21C 6045   4.545   2.105   4.157
   66CHL1   C22 6046   4.242   2.121   4.347
   66CHL1  H22A 6047   4.171   2.205   4.363
   66CHL1  H22B 6048   4.192   2.026   4.316
   66CHL1   C23 6049   4.312   2.107   4.482
   66CHL1  H23A 6050   4.343   2.001   4.491
   66CHL1  H23B 6051   4.406   2.165   4.479
   66CHL1   C24 6052   4.212   2.143   4.596
   66CHL1  H24A 6053   4.177   2.245   4.570
   66CHL1  H24B 6054   4.127   2.072   4.586
   66CHL1   C25 6055   4.279   2.137   4.735
   66CHL1   H25 6056   4.332   2.040   4.740
   66CHL1   C26 6057   4.390   2.247   4.764
   66CHL1  H26A 6058   4.343   2.347   4.753
   66CHL1  H26B 6059   4.422   2.224   4.868
   66CHL1  H26C 6060   4.470   2.233   4.689
   66CHL1   C27 6061   4.165   2.138   4.842
   66CHL1  H27A 6062   4.099   2.049   4.831
   66CHL1  H27B 6063   4.101   2.227   4.822
   66CHL1  H27C 6064   4.199   2.134   4.947
   67CHL1    C3 6065   4.331   6.278   2.631
   67CHL1    H3 6066   4.368   6.382   2.619
   67CHL1    O3 6067   4.298   6.230   2.505
   67CHL1   H3' 6068   4.302   6.134   2.504
   67CHL1    C4 6069   4.459   6.199   2.664
   67CHL1   H4A 6070   4.446   6.089   2.670
   67CHL1   H4B 6071   4.534   6.225   2.586
   67CHL1    C5 6072   4.509   6.235   2.805
   67CHL1    C6 6073   4.623   6.306   2.837
   67CHL1    H6 6074   4.688   6.337   2.753
   67CHL1    C7 6075   4.667   6.327   2.980
   67CHL1   H7A 6076   4.776   6.312   3.001
   67CHL1   H7B 6077   4.656   6.433   3.009
   67CHL1    C8 6078   4.594   6.234   3.077
   67CHL1    H8 6079   4.624   6.129   3.061
   67CHL1   C14 6080   4.632   6.271   3.219
   67CHL1   H14 6081   4.608   6.380   3.216
   67CHL1   C15 6082   4.784   6.260   3.264
   67CHL1  H15A 6083   4.819   6.162   3.224
   67CHL1  H15B 6084   4.837   6.344   3.214
   67CHL1   C16 6085   4.770   6.266   3.420
   67CHL1  H16A 6086   4.802   6.164   3.451
   67CHL1  H16B 6087   4.825   6.342   3.480
   67CHL1   C17 6088   4.618   6.268   3.458
   67CHL1   H17 6089   4.595   6.375   3.469
   67CHL1   C13 6090   4.550   6.208   3.333
   67CHL1   C18 6091   4.547   6.054   3.330
   67CHL1  H18A 6092   4.501   6.026   3.232
   67CHL1  H18B 6093   4.649   6.012   3.345
   67CHL1  H18C 6094   4.493   6.019   3.420
   67CHL1   C12 6095   4.402   6.250   3.310
   67CHL1  H12A 6096   4.341   6.203   3.391
   67CHL1  H12B 6097   4.399   6.361   3.320
   67CHL1   C11 6098   4.350   6.209   3.171
   67CHL1  H11A 6099   4.325   6.101   3.177
   67CHL1  H11B 6100   4.250   6.257   3.158
   67CHL1    C9 6101   4.442   6.248   3.054
   67CHL1    H9 6102   4.425   6.358   3.053
   67CHL1   C10 6103   4.399   6.200   2.912
   67CHL1   C19 6104   4.384   6.053   2.915
   67CHL1  H19A 6105   4.478   5.993   2.910
   67CHL1  H19B 6106   4.312   6.014   2.990
   67CHL1  H19C 6107   4.331   6.025   2.822
   67CHL1    C1 6108   4.261   6.270   2.875
   67CHL1   H1A 6109   4.173   6.250   2.940
   67CHL1   H1B 6110   4.267   6.380   2.888
   67CHL1    C2 6111   4.221   6.251   2.731
   67CHL1   H2A 6112   4.140   6.325   2.714
   67CHL1   H2B 6113   4.161   6.158   2.723
   67CHL1   C20 6114   4.577   6.214   3.599
   67CHL1   H20 6115   4.601   6.105   3.595
   67CHL1   C21 6116   4.428   6.243   3.630
   67CHL1  H21A 6117   4.365   6.165   3.582
   67CHL1  H21B 6118   4.381   6.335   3.588
   67CHL1  H21C 6119   4.407   6.221   3.737
   67CHL1   C22 6120   4.656   6.265   3.715
   67CHL1  H22A 6121   4.757   6.295   3.680
   67CHL1  H22B 6122   4.600   6.351   3.757
   67CHL1   C23 6123   4.671   6.179   3.837
   67CHL1  H23A 6124   4.567   6.173   3.877
   67CHL1  H23B 6125   4.698   6.081   3.793
   67CHL1   C24 6126   4.766   6.224   3.950
   67CHL1  H24A 6127   4.870   6.186   3.946
   67CHL1  H24B 6128   4.782   6.334   3.939
   67CHL1   C25 6129   4.710   6.185   4.091
   67CHL1   H25 6130   4.602   6.207   4.099
   67CHL1   C26 6131   4.712   6.035   4.124
   67CHL1  H26A 6132   4.637   6.007   4.201
   67CHL1  H26B 6133   4.687   5.981   4.031
   67CHL1  H26C 6134   4.809   5.991   4.154
   67CHL1   C27 6135   4.782   6.270   4.207
   67CHL1  H27A 6136   4.878   6.219   4.227
   67CHL1  H27B 6137   4.795   6.373   4.168
   67CHL1  H27C 6138   4.730   6.280   4.305
   68CHL1    C3 6139   1.808   5.152   2.794
   68CHL1    H3 6140   1.703   5.186   2.792
   68CHL1    O3 6141   1.870   5.140   2.666
   68CHL1   H3' 6142   1.955   5.096   2.670
   68CHL1    C4 6143   1.892   5.252   2.868
   68CHL1   H4A 6144   2.001   5.231   2.864
   68CHL1   H4B 6145   1.873   5.346   2.812
   68CHL1    C5 6146   1.846   5.252   3.016
   68CHL1    C6 6147   1.805   5.368   3.070
   68CHL1    H6 6148   1.821   5.453   3.002
   68CHL1    C7 6149   1.756   5.370   3.210
   68CHL1   H7A 6150   1.790   5.461   3.264
   68CHL1   H7B 6151   1.645   5.362   3.210
   68CHL1    C8 6152   1.795   5.248   3.305
   68CHL1    H8 6153   1.899   5.266   3.339
   68CHL1   C14 6154   1.715   5.249   3.429
   68CHL1   H14 6155   1.613   5.224   3.392
   68CHL1   C15 6156   1.704   5.375   3.508
   68CHL1  H15A 6157   1.807   5.415   3.520
   68CHL1  H15B 6158   1.645   5.458   3.465
   68CHL1   C16 6159   1.645   5.326   3.645
   68CHL1  H16A 6160   1.691   5.375   3.734
   68CHL1  H16B 6161   1.538   5.352   3.631
   68CHL1   C17 6162   1.656   5.172   3.650
   68CHL1   H17 6163   1.556   5.135   3.617
   68CHL1   C13 6164   1.753   5.133   3.530
   68CHL1   C18 6165   1.897   5.147   3.578
   68CHL1  H18A 6166   1.917   5.078   3.662
   68CHL1  H18B 6167   1.970   5.138   3.495
   68CHL1  H18C 6168   1.914   5.249   3.619
   68CHL1   C12 6169   1.721   5.003   3.459
   68CHL1  H12A 6170   1.747   4.906   3.507
   68CHL1  H12B 6171   1.612   4.995   3.441
   68CHL1   C11 6172   1.807   4.989   3.330
   68CHL1  H11A 6173   1.910   4.981   3.371
   68CHL1  H11B 6174   1.777   4.898   3.274
   68CHL1    C9 6175   1.779   5.112   3.230
   68CHL1    H9 6176   1.669   5.104   3.213
   68CHL1   C10 6177   1.845   5.113   3.092
   68CHL1   C19 6178   1.987   5.069   3.125
   68CHL1  H19A 6179   2.014   5.137   3.209
   68CHL1  H19B 6180   2.020   4.965   3.143
   68CHL1  H19C 6181   2.060   5.096   3.046
   68CHL1    C1 6182   1.780   5.001   3.006
   68CHL1   H1A 6183   1.808   4.898   3.036
   68CHL1   H1B 6184   1.670   5.013   3.015
   68CHL1    C2 6185   1.818   5.010   2.853
   68CHL1   H2A 6186   1.756   4.939   2.796
   68CHL1   H2B 6187   1.924   4.978   2.844
   68CHL1   C20 6188   1.684   5.124   3.791
   68CHL1   H20 6189   1.789   5.143   3.822
   68CHL1   C21 6190   1.664   4.966   3.792
   68CHL1  H21A 6191   1.659   4.922   3.894
   68CHL1  H21B 6192   1.736   4.921   3.721
   68CHL1  H21C 6193   1.569   4.942   3.740
   68CHL1   C22 6194   1.580   5.177   3.898
   68CHL1  H22A 6195   1.572   5.287   3.899
   68CHL1  H22B 6196   1.478   5.138   3.878
   68CHL1   C23 6197   1.623   5.140   4.039
   68CHL1  H23A 6198   1.660   5.035   4.043
   68CHL1  H23B 6199   1.707   5.208   4.063
   68CHL1   C24 6200   1.506   5.167   4.136
   68CHL1  H24A 6201   1.493   5.277   4.147
   68CHL1  H24B 6202   1.406   5.131   4.103
   68CHL1   C25 6203   1.532   5.106   4.275
   68CHL1   H25 6204   1.550   4.999   4.252
   68CHL1   C26 6205   1.664   5.160   4.332
   68CHL1  H26A 6206   1.744   5.103   4.282
   68CHL1  H26B 6207   1.675   5.270   4.318
   68CHL1  H26C 6208   1.670   5.149   4.442
   68CHL1   C27 6209   1.414   5.125   4.368
   68CHL1  H27A 6210   1.429   5.072   4.465
   68CHL1  H27B 6211   1.381   5.230   4.383
   68CHL1  H27C 6212   1.327   5.080   4.315
   69CHL1    C3 6213   0.685   3.158   2.800
   69CHL1    H3 6214   0.612   3.077   2.775
   69CHL1    O3 6215   0.755   3.192   2.678
   69CHL1   H3' 6216   0.817   3.261   2.704
   69CHL1    C4 6217   0.610   3.282   2.854
   69CHL1   H4A 6218   0.673   3.372   2.862
   69CHL1   H4B 6219   0.533   3.289   2.774
   69CHL1    C5 6220   0.539   3.247   2.976
   69CHL1    C6 6221   0.402   3.255   2.990
   69CHL1    H6 6222   0.350   3.296   2.902
   69CHL1    C7 6223   0.328   3.236   3.123
   69CHL1   H7A 6224   0.256   3.319   3.139
   69CHL1   H7B 6225   0.268   3.144   3.107
   69CHL1    C8 6226   0.417   3.217   3.246
   69CHL1    H8 6227   0.460   3.318   3.262
   69CHL1   C14 6228   0.352   3.157   3.368
   69CHL1   H14 6229   0.320   3.051   3.359
   69CHL1   C15 6230   0.219   3.229   3.418
   69CHL1  H15A 6231   0.227   3.336   3.388
   69CHL1  H15B 6232   0.136   3.184   3.359
   69CHL1   C16 6233   0.212   3.194   3.566
   69CHL1  H16A 6234   0.218   3.287   3.627
   69CHL1  H16B 6235   0.121   3.138   3.596
   69CHL1   C17 6236   0.346   3.111   3.605
   69CHL1   H17 6237   0.321   3.004   3.590
   69CHL1   C13 6238   0.444   3.153   3.491
   69CHL1   C18 6239   0.504   3.296   3.522
   69CHL1  H18A 6240   0.421   3.363   3.553
   69CHL1  H18B 6241   0.558   3.294   3.619
   69CHL1  H18C 6242   0.573   3.347   3.451
   69CHL1   C12 6243   0.549   3.050   3.452
   69CHL1  H12A 6244   0.624   3.029   3.531
   69CHL1  H12B 6245   0.508   2.953   3.417
   69CHL1   C11 6246   0.625   3.101   3.334
   69CHL1  H11A 6247   0.685   3.188   3.367
   69CHL1  H11B 6248   0.705   3.035   3.294
   69CHL1    C9 6249   0.540   3.131   3.209
   69CHL1    H9 6250   0.509   3.029   3.177
   69CHL1   C10 6251   0.629   3.192   3.092
   69CHL1   C19 6252   0.710   3.314   3.127
   69CHL1  H19A 6253   0.642   3.386   3.178
   69CHL1  H19B 6254   0.791   3.282   3.196
   69CHL1  H19C 6255   0.763   3.376   3.053
   69CHL1    C1 6256   0.715   3.077   3.028
   69CHL1   H1A 6257   0.793   3.035   3.096
   69CHL1   H1B 6258   0.646   2.991   3.015
   69CHL1    C2 6259   0.791   3.112   2.897
   69CHL1   H2A 6260   0.833   3.015   2.862
   69CHL1   H2B 6261   0.879   3.177   2.918
   69CHL1   C20 6262   0.386   3.124   3.758
   69CHL1   H20 6263   0.431   3.225   3.771
   69CHL1   C21 6264   0.503   3.028   3.796
   69CHL1  H21A 6265   0.468   2.924   3.777
   69CHL1  H21B 6266   0.527   3.034   3.905
   69CHL1  H21C 6267   0.595   3.065   3.745
   69CHL1   C22 6268   0.268   3.105   3.850
   69CHL1  H22A 6269   0.189   3.179   3.825
   69CHL1  H22B 6270   0.231   3.002   3.837
   69CHL1   C23 6271   0.285   3.122   4.001
   69CHL1  H23A 6272   0.196   3.086   4.056
   69CHL1  H23B 6273   0.376   3.068   4.035
   69CHL1   C24 6274   0.281   3.273   4.044
   69CHL1  H24A 6275   0.346   3.326   3.971
   69CHL1  H24B 6276   0.181   3.310   4.015
   69CHL1   C25 6277   0.305   3.313   4.192
   69CHL1   H25 6278   0.415   3.310   4.209
   69CHL1   C26 6279   0.268   3.459   4.206
   69CHL1  H26A 6280   0.158   3.472   4.194
   69CHL1  H26B 6281   0.301   3.503   4.302
   69CHL1  H26C 6282   0.316   3.524   4.130
   69CHL1   C27 6283   0.233   3.222   4.292
   69CHL1  H27A 6284   0.124   3.219   4.275
   69CHL1  H27B 6285   0.273   3.119   4.292
   69CHL1  H27C 6286   0.256   3.261   4.394
   70CHL1    C3 6287   2.347   1.229   2.968
   70CHL1    H3 6288   2.239   1.227   2.992
   70CHL1    O3 6289   2.357   1.291   2.842
   70CHL1   H3' 6290   2.449   1.287   2.814
   70CHL1    C4 6291   2.438   1.305   3.073
   70CHL1   H4A 6292   2.538   1.319   3.026
   70CHL1   H4B 6293   2.389   1.404   3.088
   70CHL1    C5 6294   2.421   1.227   3.203
   70CHL1    C6 6295   2.379   1.281   3.317
   70CHL1    H6 6296   2.359   1.389   3.316
   70CHL1    C7 6297   2.373   1.208   3.453
   70CHL1   H7A 6298   2.403   1.268   3.542
   70CHL1   H7B 6299   2.268   1.177   3.468
   70CHL1    C8 6300   2.459   1.080   3.459
   70CHL1    H8 6301   2.565   1.110   3.472
   70CHL1   C14 6302   2.418   0.997   3.579
   70CHL1   H14 6303   2.316   0.959   3.558
   70CHL1   C15 6304   2.408   1.067   3.714
   70CHL1  H15A 6305   2.502   1.125   3.727
   70CHL1  H15B 6306   2.328   1.143   3.728
   70CHL1   C16 6307   2.407   0.958   3.814
   70CHL1  H16A 6308   2.488   0.979   3.888
   70CHL1  H16B 6309   2.312   0.944   3.870
   70CHL1   C17 6310   2.447   0.824   3.740
   70CHL1   H17 6311   2.355   0.766   3.719
   70CHL1   C13 6312   2.505   0.873   3.604
   70CHL1   C18 6313   2.654   0.909   3.621
   70CHL1  H18A 6314   2.713   0.823   3.659
   70CHL1  H18B 6315   2.691   0.953   3.526
   70CHL1  H18C 6316   2.677   0.980   3.704
   70CHL1   C12 6317   2.494   0.785   3.482
   70CHL1  H12A 6318   2.562   0.698   3.493
   70CHL1  H12B 6319   2.392   0.745   3.465
   70CHL1   C11 6320   2.518   0.856   3.344
   70CHL1  H11A 6321   2.625   0.886   3.342
   70CHL1  H11B 6322   2.478   0.799   3.258
   70CHL1    C9 6323   2.442   0.996   3.326
   70CHL1    H9 6324   2.335   0.967   3.322
   70CHL1   C10 6325   2.465   1.077   3.196
   70CHL1   C19 6326   2.619   1.084   3.175
   70CHL1  H19A 6327   2.656   0.981   3.158
   70CHL1  H19B 6328   2.641   1.147   3.086
   70CHL1  H19C 6329   2.654   1.134   3.267
   70CHL1    C1 6330   2.392   1.000   3.084
   70CHL1   H1A 6331   2.435   0.900   3.062
   70CHL1   H1B 6332   2.288   1.000   3.125
   70CHL1    C2 6333   2.387   1.077   2.948
   70CHL1   H2A 6334   2.313   1.019   2.889
   70CHL1   H2B 6335   2.490   1.068   2.909
   70CHL1   C20 6336   2.529   0.729   3.830
   70CHL1   H20 6337   2.629   0.770   3.853
   70CHL1   C21 6338   2.555   0.592   3.763
   70CHL1  H21A 6339   2.462   0.537   3.738
   70CHL1  H21B 6340   2.624   0.536   3.830
   70CHL1  H21C 6341   2.616   0.610   3.671
   70CHL1   C22 6342   2.462   0.712   3.966
   70CHL1  H22A 6343   2.526   0.644   4.025
   70CHL1  H22B 6344   2.468   0.809   4.021
   70CHL1   C23 6345   2.316   0.660   3.954
   70CHL1  H23A 6346   2.249   0.733   3.905
   70CHL1  H23B 6347   2.315   0.568   3.892
   70CHL1   C24 6348   2.267   0.623   4.093
   70CHL1  H24A 6349   2.340   0.555   4.142
   70CHL1  H24B 6350   2.240   0.708   4.160
   70CHL1   C25 6351   2.142   0.538   4.096
   70CHL1   H25 6352   2.161   0.450   4.031
   70CHL1   C26 6353   2.111   0.506   4.239
   70CHL1  H26A 6354   2.052   0.592   4.277
   70CHL1  H26B 6355   2.054   0.412   4.252
   70CHL1  H26C 6356   2.204   0.482   4.295
   70CHL1   C27 6357   2.024   0.612   4.026
   70CHL1  H27A 6358   1.926   0.560   4.037
   70CHL1  H27B 6359   2.017   0.717   4.062
   70CHL1  H27C 6360   2.048   0.610   3.918
   71CHL1    C3 6361   5.705   0.030   2.776
   71CHL1    H3 6362   5.796   0.083   2.808
   71CHL1    O3 6363   5.713   0.049   2.634
   71CHL1   H3' 6364   5.652   6.761   2.598
   71CHL1    C4 6365   5.711   6.661   2.810
   71CHL1   H4A 6366   5.631   6.601   2.761
   71CHL1   H4B 6367   5.807   6.618   2.772
   71CHL1    C5 6368   5.708   6.648   2.962
   71CHL1    C6 6369   5.814   6.596   3.022
   71CHL1    H6 6370   5.894   6.544   2.966
   71CHL1    C7 6371   5.829   6.592   3.174
   71CHL1   H7A 6372   5.876   6.500   3.215
   71CHL1   H7B 6373   5.898   6.675   3.200
   71CHL1    C8 6374   5.688   6.610   3.239
   71CHL1    H8 6375   5.641   6.512   3.215
   71CHL1   C14 6376   5.705   6.635   3.388
   71CHL1   H14 6377   5.763   6.729   3.391
   71CHL1   C15 6378   5.805   6.539   3.463
   71CHL1  H15A 6379   5.775   6.439   3.426
   71CHL1  H15B 6380   5.906   6.579   3.442
   71CHL1   C16 6381   5.760   6.543   3.606
   71CHL1  H16A 6382   5.718   6.448   3.646
   71CHL1  H16B 6383   5.847   6.573   3.668
   71CHL1   C17 6384   5.636   6.643   3.610
   71CHL1   H17 6385   5.679   6.744   3.627
   71CHL1   C13 6386   5.574   6.634   3.473
   71CHL1   C18 6387   5.493   6.508   3.461
   71CHL1  H18A 6388   5.466   6.478   3.358
   71CHL1  H18B 6389   5.549   6.420   3.500
   71CHL1  H18C 6390   5.398   6.513   3.518
   71CHL1   C12 6391   5.500   6.764   3.419
   71CHL1  H12A 6392   5.402   0.004   3.467
   71CHL1  H12B 6393   5.558   0.079   3.442
   71CHL1   C11 6394   5.479   6.759   3.268
   71CHL1  H11A 6395   5.408   6.675   3.255
   71CHL1  H11B 6396   5.438   0.083   3.243
   71CHL1    C9 6397   5.609   6.725   3.182
   71CHL1    H9 6398   5.671   0.040   3.193
   71CHL1   C10 6399   5.588   6.716   3.032
   71CHL1   C19 6400   5.467   6.627   3.005
   71CHL1  H19A 6401   5.373   6.679   3.033
   71CHL1  H19B 6402   5.457   6.583   2.903
   71CHL1  H19C 6403   5.471   6.535   3.067
   71CHL1    C1 6404   5.568   0.081   2.973
   71CHL1   H1A 6405   5.478   0.119   3.027
   71CHL1   H1B 6406   5.648   0.150   3.009
   71CHL1    C2 6407   5.575   0.096   2.822
   71CHL1   H2A 6408   5.578   0.201   2.785
   71CHL1   H2B 6409   5.486   0.039   2.786
   71CHL1   C20 6410   5.544   6.622   3.734
   71CHL1   H20 6411   5.478   6.534   3.718
   71CHL1   C21 6412   5.453   6.742   3.740
   71CHL1  H21A 6413   5.511   0.061   3.742
   71CHL1  H21B 6414   5.391   6.752   3.831
   71CHL1  H21C 6415   5.384   6.740   3.653
   71CHL1   C22 6416   5.616   6.605   3.865
   71CHL1  H22A 6417   5.702   6.540   3.841
   71CHL1  H22B 6418   5.663   6.705   3.877
   71CHL1   C23 6419   5.535   6.556   3.987
   71CHL1  H23A 6420   5.443   6.618   3.993
   71CHL1  H23B 6421   5.497   6.455   3.961
   71CHL1   C24 6422   5.620   6.545   4.116
   71CHL1  H24A 6423   5.678   6.450   4.111
   71CHL1  H24B 6424   5.686   6.632   4.137
   71CHL1   C25 6425   5.537   6.534   4.243
   71CHL1   H25 6426   5.465   6.453   4.218
   71CHL1   C26 6427   5.614   6.486   4.374
   71CHL1  H26A 6428   5.675   6.566   4.421
   71CHL1  H26B 6429   5.544   6.442   4.448
   71CHL1  H26C 6430   5.678   6.400   4.345
   71CHL1   C27 6431   5.474   6.671   4.283
   71CHL1  H27A 6432   5.430   6.725   4.196
   71CHL1  H27B 6433   5.383   6.669   4.346
   71CHL1  H27C 6434   5.550   6.743   4.319
   72CHL1    C3 6435   0.249   5.261   2.361
   72CHL1    H3 6436   0.169   5.338   2.364
   72CHL1    O3 6437   0.298   5.245   2.231
   72CHL1   H3' 6438   0.327   5.332   2.202
   72CHL1    C4 6439   0.370   5.279   2.455
   72CHL1   H4A 6440   0.445   5.198   2.445
   72CHL1   H4B 6441   0.424   5.370   2.422
   72CHL1    C5 6442   0.319   5.285   2.595
   72CHL1    C6 6443   0.346   5.394   2.666
   72CHL1    H6 6444   0.401   5.477   2.619
   72CHL1    C7 6445   0.329   5.399   2.819
   72CHL1   H7A 6446   0.427   5.418   2.869
   72CHL1   H7B 6447   0.258   5.482   2.842
   72CHL1    C8 6448   0.293   5.262   2.887
   72CHL1    H8 6449   0.388   5.206   2.905
   72CHL1   C14 6450   0.234   5.288   3.021
   72CHL1   H14 6451   0.142   5.349   3.006
   72CHL1   C15 6452   0.309   5.367   3.127
   72CHL1  H15A 6453   0.415   5.339   3.143
   72CHL1  H15B 6454   0.304   5.478   3.115
   72CHL1   C16 6455   0.248   5.335   3.267
   72CHL1  H16A 6456   0.321   5.295   3.339
   72CHL1  H16B 6457   0.198   5.422   3.314
   72CHL1   C17 6458   0.143   5.228   3.232
   72CHL1   H17 6459   0.050   5.277   3.197
   72CHL1   C13 6460   0.191   5.171   3.099
   72CHL1   C18 6461   0.308   5.074   3.114
   72CHL1  H18A 6462   0.311   4.994   3.038
   72CHL1  H18B 6463   0.406   5.127   3.107
   72CHL1  H18C 6464   0.311   5.021   3.212
   72CHL1   C12 6465   0.084   5.112   3.005
   72CHL1  H12A 6466   0.033   5.018   3.036
   72CHL1  H12B 6467   0.004   5.188   2.988
   72CHL1   C11 6468   0.129   5.065   2.864
   72CHL1  H11A 6469   0.215   4.995   2.870
   72CHL1  H11B 6470   0.046   5.014   2.812
   72CHL1    C9 6471   0.197   5.190   2.788
   72CHL1    H9 6472   0.115   5.264   2.776
   72CHL1   C10 6473   0.246   5.159   2.648
   72CHL1   C19 6474   0.346   5.042   2.653
   72CHL1  H19A 6475   0.293   4.954   2.694
   72CHL1  H19B 6476   0.385   5.009   2.554
   72CHL1  H19C 6477   0.442   5.067   2.705
   72CHL1    C1 6478   0.132   5.130   2.553
   72CHL1   H1A 6479   0.093   5.027   2.569
   72CHL1   H1B 6480   0.056   5.208   2.570
   72CHL1    C2 6481   0.174   5.133   2.401
   72CHL1   H2A 6482   0.081   5.130   2.340
   72CHL1   H2B 6483   0.226   5.042   2.363
   72CHL1   C20 6484   0.109   5.129   3.346
   72CHL1   H20 6485   0.204   5.084   3.383
   72CHL1   C21 6486   0.027   5.010   3.304
   72CHL1  H21A 6487   6.711   5.044   3.254
   72CHL1  H21B 6488   6.771   4.958   3.396
   72CHL1  H21C 6489   0.081   4.938   3.238
   72CHL1   C22 6490   0.056   5.208   3.466
   72CHL1  H22A 6491   0.033   5.133   3.545
   72CHL1  H22B 6492   0.143   5.271   3.495
   72CHL1   C23 6493   6.729   5.320   3.437
   72CHL1  H23A 6494   0.002   5.413   3.404
   72CHL1  H23B 6495   6.650   5.289   3.365
   72CHL1   C24 6496   6.657   5.361   3.568
   72CHL1  H24A 6497   6.611   5.271   3.613
   72CHL1  H24B 6498   6.739   5.398   3.634
   72CHL1   C25 6499   6.546   5.465   3.559
   72CHL1   H25 6500   6.467   5.441   3.485
   72CHL1   C26 6501   6.482   5.489   3.697
   72CHL1  H26A 6502   6.456   5.390   3.742
   72CHL1  H26B 6503   6.556   5.531   3.768
   72CHL1  H26C 6504   6.396   5.558   3.691
   72CHL1   C27 6505   6.613   5.592   3.510
   72CHL1  H27A 6506   6.533   5.669   3.500
   72CHL1  H27B 6507   6.700   5.613   3.576
   72CHL1  H27C 6508   6.659   5.575   3.411
   73CHL1    C3 6509   1.226   5.400   2.723
   73CHL1    H3 6510   1.124   5.444   2.728
   73CHL1    O3 6511   1.265   5.398   2.586
   73CHL1   H3' 6512   1.283   5.491   2.571
   73CHL1    C4 6513   1.320   5.493   2.807
   73CHL1   H4A 6514   1.425   5.459   2.803
   73CHL1   H4B 6515   1.319   5.598   2.771
   73CHL1    C5 6516   1.283   5.485   2.960
   73CHL1    C6 6517   1.253   5.601   3.030
   73CHL1    H6 6518   1.259   5.696   2.975
   73CHL1    C7 6519   1.221   5.600   3.179
   73CHL1   H7A 6520   1.276   5.682   3.230
   73CHL1   H7B 6521   1.114   5.628   3.186
   73CHL1    C8 6522   1.247   5.465   3.247
   73CHL1    H8 6523   1.355   5.443   3.253
   73CHL1   C14 6524   1.168   5.462   3.375
   73CHL1   H14 6525   1.063   5.488   3.350
   73CHL1   C15 6526   1.199   5.577   3.475
   73CHL1  H15A 6527   1.309   5.591   3.471
   73CHL1  H15B 6528   1.142   5.669   3.450
   73CHL1   C16 6529   1.165   5.522   3.614
   73CHL1  H16A 6530   1.253   5.540   3.680
   73CHL1  H16B 6531   1.075   5.574   3.655
   73CHL1   C17 6532   1.129   5.370   3.589
   73CHL1   H17 6533   1.018   5.376   3.578
   73CHL1   C13 6534   1.184   5.330   3.449
   73CHL1   C18 6535   1.340   5.300   3.471
   73CHL1  H18A 6536   1.367   5.206   3.523
   73CHL1  H18B 6537   1.393   5.277   3.376
   73CHL1  H18C 6538   1.395   5.383   3.520
   73CHL1   C12 6539   1.115   5.220   3.371
   73CHL1  H12A 6540   1.117   5.116   3.410
   73CHL1  H12B 6541   1.008   5.250   3.374
   73CHL1   C11 6542   1.164   5.216   3.225
   73CHL1  H11A 6543   1.259   5.158   3.234
   73CHL1  H11B 6544   1.094   5.147   3.174
   73CHL1    C9 6545   1.183   5.347   3.153
   73CHL1    H9 6546   1.080   5.378   3.126
   73CHL1   C10 6547   1.254   5.341   3.016
   73CHL1   C19 6548   1.389   5.269   3.029
   73CHL1  H19A 6549   1.440   5.276   2.930
   73CHL1  H19B 6550   1.453   5.297   3.115
   73CHL1  H19C 6551   1.369   5.162   3.048
   73CHL1    C1 6552   1.162   5.258   2.923
   73CHL1   H1A 6553   1.153   5.150   2.948
   73CHL1   H1B 6554   1.061   5.302   2.907
   73CHL1    C2 6555   1.222   5.254   2.785
   73CHL1   H2A 6556   1.157   5.189   2.723
   73CHL1   H2B 6557   1.322   5.205   2.789
   73CHL1   C20 6558   1.171   5.292   3.715
   73CHL1   H20 6559   1.281   5.301   3.723
   73CHL1   C21 6560   1.121   5.156   3.691
   73CHL1  H21A 6561   1.015   5.152   3.659
   73CHL1  H21B 6562   1.135   5.092   3.780
   73CHL1  H21C 6563   1.186   5.115   3.611
   73CHL1   C22 6564   1.116   5.339   3.853
   73CHL1  H22A 6565   1.152   5.443   3.872
   73CHL1  H22B 6566   1.005   5.349   3.843
   73CHL1   C23 6567   1.154   5.245   3.977
   73CHL1  H23A 6568   1.075   5.168   3.985
   73CHL1  H23B 6569   1.249   5.189   3.964
   73CHL1   C24 6570   1.160   5.320   4.112
   73CHL1  H24A 6571   1.149   5.244   4.192
   73CHL1  H24B 6572   1.252   5.383   4.116
   73CHL1   C25 6573   1.051   5.425   4.137
   73CHL1   H25 6574   1.055   5.498   4.053
   73CHL1   C26 6575   0.912   5.369   4.136
   73CHL1  H26A 6576   0.878   5.343   4.033
   73CHL1  H26B 6577   0.899   5.274   4.192
   73CHL1  H26C 6578   0.838   5.448   4.161
   73CHL1   C27 6579   1.066   5.495   4.283
   73CHL1  H27A 6580   1.174   5.517   4.299
   73CHL1  H27B 6581   1.011   5.591   4.286
   73CHL1  H27C 6582   1.028   5.433   4.368
   74CHL1    C3 6583   1.001   4.606   2.610
   74CHL1    H3 6584   0.922   4.684   2.610
   74CHL1    O3 6585   1.068   4.583   2.482
   74CHL1   H3' 6586   1.052   4.668   2.442
   74CHL1    C4 6587   1.104   4.680   2.704
   74CHL1   H4A 6588   1.206   4.637   2.709
   74CHL1   H4B 6589   1.114   4.776   2.649
   74CHL1    C5 6590   1.055   4.701   2.847
   74CHL1    C6 6591   1.044   4.824   2.898
   74CHL1    H6 6592   1.064   4.917   2.842
   74CHL1    C7 6593   0.999   4.848   3.037
   74CHL1   H7A 6594   1.047   4.935   3.086
   74CHL1   H7B 6595   0.891   4.873   3.040
   74CHL1    C8 6596   1.007   4.719   3.121
   74CHL1    H8 6597   1.114   4.703   3.146
   74CHL1   C14 6598   0.940   4.734   3.259
   74CHL1   H14 6599   0.830   4.739   3.247
   74CHL1   C15 6600   0.982   4.863   3.329
   74CHL1  H15A 6601   1.092   4.870   3.323
   74CHL1  H15B 6602   0.943   4.955   3.280
   74CHL1   C16 6603   0.929   4.836   3.474
   74CHL1  H16A 6604   1.016   4.866   3.536
   74CHL1  H16B 6605   0.840   4.898   3.498
   74CHL1   C17 6606   0.885   4.685   3.481
   74CHL1   H17 6607   0.777   4.676   3.458
   74CHL1   C13 6608   0.952   4.621   3.356
   74CHL1   C18 6609   1.102   4.608   3.382
   74CHL1  H18A 6610   1.161   4.580   3.293
   74CHL1  H18B 6611   1.147   4.700   3.425
   74CHL1  H18C 6612   1.114   4.532   3.463
   74CHL1   C12 6613   0.894   4.495   3.291
   74CHL1  H12A 6614   0.913   4.406   3.354
   74CHL1  H12B 6615   0.786   4.511   3.272
   74CHL1   C11 6616   0.955   4.470   3.155
   74CHL1  H11A 6617   1.061   4.449   3.179
   74CHL1  H11B 6618   0.918   4.379   3.101
   74CHL1    C9 6619   0.953   4.593   3.055
   74CHL1    H9 6620   0.845   4.616   3.039
   74CHL1   C10 6621   1.017   4.575   2.923
   74CHL1   C19 6622   1.137   4.484   2.951
   74CHL1  H19A 6623   1.187   4.486   2.851
   74CHL1  H19B 6624   1.198   4.534   3.029
   74CHL1  H19C 6625   1.113   4.380   2.983
   74CHL1    C1 6626   0.916   4.498   2.831
   74CHL1   H1A 6627   0.869   4.410   2.880
   74CHL1   H1B 6628   0.830   4.567   2.814
   74CHL1    C2 6629   0.957   4.478   2.681
   74CHL1   H2A 6630   0.859   4.441   2.643
   74CHL1   H2B 6631   1.033   4.397   2.677
   74CHL1   C20 6632   0.903   4.621   3.625
   74CHL1   H20 6633   1.013   4.626   3.637
   74CHL1   C21 6634   0.858   4.479   3.634
   74CHL1  H21A 6635   0.905   4.423   3.550
   74CHL1  H21B 6636   0.747   4.471   3.639
   74CHL1  H21C 6637   0.893   4.438   3.731
   74CHL1   C22 6638   0.851   4.704   3.742
   74CHL1  H22A 6639   0.892   4.807   3.738
   74CHL1  H22B 6640   0.740   4.710   3.735
   74CHL1   C23 6641   0.882   4.650   3.882
   74CHL1  H23A 6642   0.816   4.562   3.900
   74CHL1  H23B 6643   0.991   4.629   3.890
   74CHL1   C24 6644   0.856   4.748   4.003
   74CHL1  H24A 6645   0.854   4.686   4.096
   74CHL1  H24B 6646   0.941   4.819   4.010
   74CHL1   C25 6647   0.727   4.837   4.002
   74CHL1   H25 6648   0.726   4.882   3.900
   74CHL1   C26 6649   0.615   4.743   4.028
   74CHL1  H26A 6650   0.517   4.795   4.031
   74CHL1  H26B 6651   0.607   4.663   3.951
   74CHL1  H26C 6652   0.610   4.693   4.127
   74CHL1   C27 6653   0.723   4.944   4.109
   74CHL1  H27A 6654   0.693   4.913   4.211
   74CHL1  H27B 6655   0.817   5.004   4.115
   74CHL1  H27C 6656   0.646   5.018   4.081
   75CHL1    C3 6657   0.569   3.636   2.659
   75CHL1    H3 6658   0.574   3.525   2.660
   75CHL1    O3 6659   0.617   3.664   2.527
   75CHL1   H3' 6660   0.664   3.748   2.524
   75CHL1    C4 6661   0.438   3.707   2.687
   75CHL1   H4A 6662   0.447   3.814   2.661
   75CHL1   H4B 6663   0.360   3.671   2.616
   75CHL1    C5 6664   0.381   3.693   2.830
   75CHL1    C6 6665   0.260   3.647   2.860
   75CHL1    H6 6666   0.196   3.612   2.777
   75CHL1    C7 6667   0.213   3.627   3.004
   75CHL1   H7A 6668   0.112   3.667   3.029
   75CHL1   H7B 6669   0.203   3.517   3.013
   75CHL1    C8 6670   0.304   3.700   3.106
   75CHL1    H8 6671   0.279   3.808   3.108
   75CHL1   C14 6672   0.269   3.655   3.253
   75CHL1   H14 6673   0.289   3.546   3.254
   75CHL1   C15 6674   0.125   3.672   3.310
   75CHL1  H15A 6675   0.089   3.767   3.265
   75CHL1  H15B 6676   0.053   3.593   3.280
   75CHL1   C16 6677   0.148   3.669   3.465
   75CHL1  H16A 6678   0.104   3.762   3.506
   75CHL1  H16B 6679   0.102   3.580   3.514
   75CHL1   C17 6680   0.296   3.663   3.496
   75CHL1   H17 6681   0.323   3.556   3.505
   75CHL1   C13 6682   0.356   3.719   3.366
   75CHL1   C18 6683   0.343   3.877   3.371
   75CHL1  H18A 6684   0.426   3.925   3.427
   75CHL1  H18B 6685   0.335   3.917   3.268
   75CHL1  H18C 6686   0.247   3.908   3.418
   75CHL1   C12 6687   0.501   3.670   3.340
   75CHL1  H12A 6688   0.573   3.710   3.415
   75CHL1  H12B 6689   0.499   3.562   3.365
   75CHL1   C11 6690   0.549   3.708   3.197
   75CHL1  H11A 6691   0.556   3.818   3.207
   75CHL1  H11B 6692   0.655   3.676   3.186
   75CHL1    C9 6693   0.450   3.682   3.073
   75CHL1    H9 6694   0.452   3.571   3.073
   75CHL1   C10 6695   0.495   3.733   2.931
   75CHL1   C19 6696   0.521   3.889   2.941
   75CHL1  H19A 6697   0.614   3.910   2.997
   75CHL1  H19B 6698   0.534   3.939   2.843
   75CHL1  H19C 6699   0.437   3.943   2.991
   75CHL1    C1 6700   0.634   3.674   2.898
   75CHL1   H1A 6701   0.711   3.724   2.959
   75CHL1   H1B 6702   0.631   3.565   2.921
   75CHL1    C2 6703   0.677   3.688   2.755
   75CHL1   H2A 6704   0.776   3.638   2.748
   75CHL1   H2B 6705   0.701   3.793   2.730
   75CHL1   C20 6706   0.349   3.713   3.628
   75CHL1   H20 6707   0.456   3.738   3.610
   75CHL1   C21 6708   0.351   3.597   3.727
   75CHL1  H21A 6709   0.249   3.555   3.735
   75CHL1  H21B 6710   0.381   3.633   3.828
   75CHL1  H21C 6711   0.415   3.515   3.687
   75CHL1   C22 6712   0.283   3.833   3.694
   75CHL1  H22A 6713   0.247   3.910   3.622
   75CHL1  H22B 6714   0.192   3.785   3.736
   75CHL1   C23 6715   0.371   3.893   3.804
   75CHL1  H23A 6716   0.442   3.820   3.848
   75CHL1  H23B 6717   0.434   3.975   3.763
   75CHL1   C24 6718   0.280   3.952   3.921
   75CHL1  H24A 6719   0.319   4.052   3.949
   75CHL1  H24B 6720   0.178   3.968   3.880
   75CHL1   C25 6721   0.263   3.856   4.041
   75CHL1   H25 6722   0.244   3.759   3.990
   75CHL1   C26 6723   0.391   3.853   4.130
   75CHL1  H26A 6724   0.374   3.803   4.228
   75CHL1  H26B 6725   0.476   3.803   4.079
   75CHL1  H26C 6726   0.424   3.952   4.167
   75CHL1   C27 6727   0.143   3.884   4.133
   75CHL1  H27A 6728   0.146   3.825   4.227
   75CHL1  H27B 6729   0.148   3.991   4.161
   75CHL1  H27C 6730   0.048   3.862   4.081
   76CHL1    C3 6731   6.708   5.765   2.347
   76CHL1    H3 6732   6.602   5.775   2.316
   76CHL1    O3 6733   6.776   5.840   2.248
   76CHL1   H3' 6734   0.055   5.786   2.192
   76CHL1    C4 6735   6.717   5.834   2.486
   76CHL1   H4A 6736   0.049   5.831   2.510
   76CHL1   H4B 6737   6.700   5.944   2.482
   76CHL1    C5 6738   6.646   5.760   2.594
   76CHL1    C6 6739   6.564   5.833   2.671
   76CHL1    H6 6740   6.541   5.938   2.646
   76CHL1    C7 6741   6.498   5.772   2.783
   76CHL1   H7A 6742   6.475   5.839   2.869
   76CHL1   H7B 6743   6.395   5.748   2.746
   76CHL1    C8 6744   6.553   5.631   2.825
   76CHL1    H8 6745   6.643   5.664   2.881
   76CHL1   C14 6746   6.461   5.557   2.922
   76CHL1   H14 6747   6.369   5.538   2.863
   76CHL1   C15 6748   6.406   5.632   3.042
   76CHL1  H15A 6749   6.475   5.708   3.083
   76CHL1  H15B 6750   6.315   5.682   3.002
   76CHL1   C16 6751   6.380   5.521   3.148
   76CHL1  H16A 6752   6.460   5.532   3.224
   76CHL1  H16B 6753   6.281   5.526   3.197
   76CHL1   C17 6754   6.405   5.386   3.075
   76CHL1   H17 6755   6.324   5.363   3.002
   76CHL1   C13 6756   6.516   5.422   2.968
   76CHL1   C18 6757   6.653   5.441   3.038
   76CHL1  H18A 6758   6.734   5.465   2.966
   76CHL1  H18B 6759   6.644   5.519   3.116
   76CHL1  H18C 6760   6.672   5.348   3.096
   76CHL1   C12 6761   6.523   5.331   2.841
   76CHL1  H12A 6762   6.552   5.227   2.865
   76CHL1  H12B 6763   6.417   5.325   2.810
   76CHL1   C11 6764   6.620   5.395   2.742
   76CHL1  H11A 6765   6.724   5.387   2.781
   76CHL1  H11B 6766   6.627   5.339   2.647
   76CHL1    C9 6767   6.580   5.543   2.705
   76CHL1    H9 6768   6.485   5.528   2.649
   76CHL1   C10 6769   6.684   5.613   2.607
   76CHL1   C19 6770   0.052   5.613   2.655
   76CHL1  H19A 6771   0.058   5.664   2.754
   76CHL1  H19B 6772   0.072   5.504   2.662
   76CHL1  H19C 6773   0.123   5.664   2.587
   76CHL1    C1 6774   6.673   5.538   2.469
   76CHL1   H1A 6775   6.713   5.435   2.461
   76CHL1   H1B 6776   6.571   5.533   2.427
   76CHL1    C2 6777   6.755   5.616   2.354
   76CHL1   H2A 6778   6.736   5.555   2.263
   76CHL1   H2B 6779   0.088   5.617   2.371
   76CHL1   C20 6780   6.420   5.266   3.167
   76CHL1   H20 6781   6.517   5.268   3.222
   76CHL1   C21 6782   6.439   5.134   3.090
   76CHL1  H21A 6783   6.364   5.118   3.009
   76CHL1  H21B 6784   6.447   5.048   3.160
   76CHL1  H21C 6785   6.536   5.137   3.036
   76CHL1   C22 6786   6.309   5.258   3.283
   76CHL1  H22A 6787   6.319   5.174   3.355
   76CHL1  H22B 6788   6.329   5.354   3.337
   76CHL1   C23 6789   6.153   5.256   3.236
   76CHL1  H23A 6790   6.133   5.329   3.155
   76CHL1  H23B 6791   6.137   5.153   3.195
   76CHL1   C24 6792   6.053   5.279   3.353
   76CHL1  H24A 6793   6.083   5.246   3.454
   76CHL1  H24B 6794   6.033   5.388   3.361
   76CHL1   C25 6795   5.912   5.221   3.320
   76CHL1   H25 6796   5.926   5.114   3.343
   76CHL1   C26 6797   5.808   5.292   3.407
   76CHL1  H26A 6798   5.708   5.271   3.363
   76CHL1  H26B 6799   5.817   5.270   3.515
   76CHL1  H26C 6800   5.829   5.400   3.392
   76CHL1   C27 6801   5.879   5.254   3.177
   76CHL1  H27A 6802   5.908   5.359   3.152
   76CHL1  H27B 6803   5.935   5.183   3.112
   76CHL1  H27C 6804   5.774   5.252   3.143
   77SOPE     N 6805   2.637   3.447   6.468
   77SOPE   HN1 6806   2.577   3.499   6.401
   77SOPE   HN2 6807   2.720   3.408   6.419
   77SOPE   HN3 6808   2.577   3.363   6.477
   77SOPE   C12 6809   2.667   3.537   6.586
   77SOPE  H12A 6810   2.572   3.571   6.632
   77SOPE  H12B 6811   2.736   3.620   6.560
   77SOPE   C11 6812   2.733   3.452   6.702
   77SOPE  H11A 6813   2.654   3.413   6.770
   77SOPE  H11B 6814   2.794   3.519   6.766
   77SOPE     P 6815   2.896   3.253   6.754
   77SOPE   O13 6816   2.821   3.135   6.800
   77SOPE   O14 6817   2.951   3.326   6.862
   77SOPE   O12 6818   2.816   3.345   6.657
   77SOPE   O11 6819   3.009   3.208   6.655
   77SOPE    C1 6820   3.086   3.294   6.572
   77SOPE    HA 6821   3.181   3.245   6.541
   77SOPE    HB 6822   3.121   3.384   6.626
   77SOPE    C2 6823   3.003   3.319   6.439
   77SOPE    HS 6824   2.911   3.368   6.475
   77SOPE   O21 6825   2.985   3.187   6.373
   77SOPE   C21 6826   2.856   3.170   6.344
   77SOPE   O22 6827   2.774   3.260   6.341
   77SOPE   C22 6828   2.825   3.024   6.311
   77SOPE   H2R 6829   2.841   2.972   6.408
   77SOPE   H2S 6830   2.900   2.987   6.238
   77SOPE    C3 6831   3.073   3.420   6.349
   77SOPE    HX 6832   3.170   3.368   6.338
   77SOPE    HY 6833   3.085   3.519   6.396
   77SOPE   O31 6834   3.014   3.439   6.212
   77SOPE   C31 6835   2.897   3.497   6.202
   77SOPE   O32 6836   2.831   3.541   6.291
   77SOPE   C32 6837   2.853   3.467   6.062
   77SOPE   H2X 6838   2.743   3.448   6.059
   77SOPE   H2Y 6839   2.898   3.368   6.040
   77SOPE   C23 6840   2.685   3.000   6.250
   77SOPE   H3R 6841   2.608   3.051   6.311
   77SOPE   H3S 6842   2.671   2.889   6.249
   77SOPE   C24 6843   2.665   3.051   6.108
   77SOPE   H4R 6844   2.694   3.158   6.118
   77SOPE   H4S 6845   2.742   3.006   6.042
   77SOPE   C25 6846   2.515   3.035   6.073
   77SOPE   H5R 6847   2.478   2.950   6.134
   77SOPE   H5S 6848   2.465   3.126   6.113
   77SOPE   C26 6849   2.480   3.017   5.924
   77SOPE   H6R 6850   2.530   2.926   5.884
   77SOPE   H6S 6851   2.370   3.004   5.920
   77SOPE   C27 6852   2.519   3.142   5.857
   77SOPE   H7R 6853   2.428   3.166   5.797
   77SOPE   H7S 6854   2.525   3.231   5.923
   77SOPE   C28 6855   2.635   3.125   5.763
   77SOPE   H8R 6856   2.712   3.067   5.818
   77SOPE   H8S 6857   2.609   3.053   5.682
   77SOPE   C29 6858   2.681   3.253   5.692
   77SOPE   H91 6859   2.729   3.323   5.762
   77SOPE  C210 6860   2.668   3.295   5.570
   77SOPE  H101 6861   2.712   3.395   5.557
   77SOPE  C211 6862   2.600   3.226   5.463
   77SOPE  H11R 6863   2.491   3.225   5.482
   77SOPE  H11S 6864   2.632   3.120   5.457
   77SOPE  C212 6865   2.619   3.278   5.322
   77SOPE  H12R 6866   2.573   3.197   5.261
   77SOPE  H12S 6867   2.725   3.292   5.290
   77SOPE  C213 6868   2.540   3.407   5.294
   77SOPE  H13R 6869   2.583   3.499   5.339
   77SOPE  H13S 6870   2.435   3.391   5.326
   77SOPE  C214 6871   2.536   3.435   5.144
   77SOPE  H14R 6872   2.467   3.519   5.124
   77SOPE  H14S 6873   2.494   3.346   5.092
   77SOPE  C215 6874   2.678   3.483   5.081
   77SOPE  H15R 6875   2.746   3.395   5.093
   77SOPE  H15S 6876   2.712   3.568   5.144
   77SOPE  C216 6877   2.663   3.507   4.925
   77SOPE  H16R 6878   2.613   3.417   4.883
   77SOPE  H16S 6879   2.766   3.501   4.883
   77SOPE  C217 6880   2.602   3.640   4.893
   77SOPE  H17R 6881   2.661   3.717   4.947
   77SOPE  H17S 6882   2.495   3.637   4.920
   77SOPE  C218 6883   2.597   3.666   4.746
   77SOPE  H18R 6884   2.693   3.707   4.707
   77SOPE  H18S 6885   2.516   3.739   4.726
   77SOPE  H18T 6886   2.573   3.579   4.681
   77SOPE   C33 6887   2.908   3.576   5.973
   77SOPE   H3X 6888   2.933   3.531   5.874
   77SOPE   H3Y 6889   3.012   3.607   5.999
   77SOPE   C34 6890   2.824   3.702   5.953
   77SOPE   H4X 6891   2.843   3.760   6.046
   77SOPE   H4Y 6892   2.718   3.669   5.951
   77SOPE   C35 6893   2.867   3.792   5.834
   77SOPE   H5X 6894   2.974   3.821   5.848
   77SOPE   H5Y 6895   2.813   3.888   5.846
   77SOPE   C36 6896   2.829   3.725   5.696
   77SOPE   H6X 6897   2.722   3.699   5.687
   77SOPE   H6Y 6898   2.877   3.625   5.696
   77SOPE   C37 6899   2.871   3.816   5.578
   77SOPE   H7X 6900   2.981   3.833   5.578
   77SOPE   H7Y 6901   2.816   3.912   5.583
   77SOPE   C38 6902   2.822   3.766   5.442
   77SOPE   H8X 6903   2.711   3.762   5.441
   77SOPE   H8Y 6904   2.855   3.660   5.450
   77SOPE   C39 6905   2.873   3.864   5.331
   77SOPE   H9X 6906   2.980   3.883   5.352
   77SOPE   H9Y 6907   2.825   3.963   5.346
   77SOPE  C310 6908   2.842   3.824   5.184
   77SOPE  H10X 6909   2.736   3.815   5.155
   77SOPE  H10Y 6910   2.878   3.720   5.172
   77SOPE  C311 6911   2.908   3.923   5.087
   77SOPE  H11X 6912   3.018   3.913   5.094
   77SOPE  H11Y 6913   2.887   4.030   5.109
   77SOPE  C312 6914   2.877   3.898   4.935
   77SOPE  H12X 6915   2.766   3.895   4.923
   77SOPE  H12Y 6916   2.918   3.800   4.903
   77SOPE  C313 6917   2.939   3.988   4.832
   77SOPE  H13X 6918   3.050   3.989   4.838
   77SOPE  H13Y 6919   2.910   4.094   4.847
   77SOPE  C314 6920   2.900   3.942   4.692
   77SOPE  H14X 6921   2.789   3.933   4.695
   77SOPE  H14Y 6922   2.942   3.841   4.673
   77SOPE  C315 6923   2.938   4.036   4.582
   77SOPE  H15X 6924   3.044   4.068   4.576
   77SOPE  H15Y 6925   2.877   4.127   4.597
   77SOPE  C316 6926   2.903   3.971   4.440
   77SOPE  H16X 6927   2.793   3.955   4.434
   77SOPE  H16Y 6928   2.952   3.872   4.423
   77SOPE  C317 6929   2.945   4.057   4.318
   77SOPE  H17X 6930   3.055   4.072   4.318
   77SOPE  H17Y 6931   2.909   4.162   4.322
   77SOPE  C318 6932   2.912   4.000   4.182
   77SOPE  H18X 6933   2.958   3.902   4.158
   77SOPE  H18Y 6934   2.925   4.068   4.095
   77SOPE  H18Z 6935   2.806   3.969   4.187
   78SOPE     N 6936   1.621   2.814   6.876
   78SOPE   HN1 6937   1.627   2.723   6.927
   78SOPE   HN2 6938   1.552   2.811   6.798
   78SOPE   HN3 6939   1.717   2.818   6.835
   78SOPE   C12 6940   1.602   2.930   6.965
   78SOPE  H12A 6941   1.662   2.900   7.054
   78SOPE  H12B 6942   1.498   2.925   7.003
   78SOPE   C11 6943   1.636   3.062   6.910
   78SOPE  H11A 6944   1.633   3.126   7.001
   78SOPE  H11B 6945   1.565   3.093   6.831
   78SOPE     P 6946   1.817   3.167   6.756
   78SOPE   O13 6947   1.963   3.152   6.727
   78SOPE   O14 6948   1.780   3.307   6.797
   78SOPE   O12 6949   1.773   3.058   6.864
   78SOPE   O11 6950   1.728   3.126   6.638
   78SOPE    C1 6951   1.724   2.992   6.580
   78SOPE    HA 6952   1.649   2.927   6.629
   78SOPE    HB 6953   1.825   2.947   6.582
   78SOPE    C2 6954   1.684   3.009   6.432
   78SOPE    HS 6955   1.658   2.905   6.402
   78SOPE   O21 6956   1.785   3.071   6.347
   78SOPE   C21 6957   1.883   2.994   6.304
   78SOPE   O22 6958   1.887   2.870   6.305
   78SOPE   C22 6959   2.001   3.085   6.269
   78SOPE   H2R 6960   2.071   3.063   6.353
   78SOPE   H2S 6961   1.964   3.189   6.276
   78SOPE    C3 6962   1.554   3.092   6.425
   78SOPE    HX 6963   1.590   3.195   6.447
   78SOPE    HY 6964   1.484   3.046   6.499
   78SOPE   O31 6965   1.490   3.088   6.298
   78SOPE   C31 6966   1.383   3.152   6.292
   78SOPE   O32 6967   1.324   3.201   6.384
   78SOPE   C32 6968   1.339   3.173   6.146
   78SOPE   H2X 6969   1.248   3.237   6.145
   78SOPE   H2Y 6970   1.302   3.077   6.105
   78SOPE   C23 6971   2.065   3.040   6.138
   78SOPE   H3R 6972   2.040   2.935   6.109
   78SOPE   H3S 6973   2.176   3.040   6.147
   78SOPE   C24 6974   2.026   3.139   6.027
   78SOPE   H4R 6975   1.919   3.137   5.997
   78SOPE   H4S 6976   2.036   3.235   6.082
   78SOPE   C25 6977   2.120   3.142   5.904
   78SOPE   H5R 6978   2.222   3.176   5.931
   78SOPE   H5S 6979   2.133   3.035   5.876
   78SOPE   C26 6980   2.067   3.239   5.796
   78SOPE   H6R 6981   1.966   3.205   5.763
   78SOPE   H6S 6982   2.052   3.338   5.843
   78SOPE   C27 6983   2.167   3.262   5.690
   78SOPE   H7R 6984   2.262   3.301   5.734
   78SOPE   H7S 6985   2.186   3.162   5.644
   78SOPE   C28 6986   2.121   3.373   5.593
   78SOPE   H8R 6987   2.123   3.474   5.641
   78SOPE   H8S 6988   2.213   3.370   5.532
   78SOPE   C29 6989   1.992   3.356   5.515
   78SOPE   H91 6990   1.899   3.353   5.574
   78SOPE  C210 6991   1.984   3.358   5.384
   78SOPE  H101 6992   1.888   3.339   5.335
   78SOPE  C211 6993   2.104   3.373   5.285
   78SOPE  H11R 6994   2.134   3.272   5.249
   78SOPE  H11S 6995   2.195   3.419   5.328
   78SOPE  C212 6996   2.061   3.473   5.173
   78SOPE  H12R 6997   2.059   3.572   5.222
   78SOPE  H12S 6998   1.964   3.436   5.131
   78SOPE  C213 6999   2.149   3.482   5.047
   78SOPE  H13R 7000   2.245   3.535   5.066
   78SOPE  H13S 7001   2.111   3.554   4.972
   78SOPE  C214 7002   2.193   3.352   4.986
   78SOPE  H14R 7003   2.097   3.301   4.962
   78SOPE  H14S 7004   2.256   3.291   5.054
   78SOPE  C215 7005   2.291   3.369   4.871
   78SOPE  H15R 7006   2.387   3.417   4.900
   78SOPE  H15S 7007   2.248   3.440   4.798
   78SOPE  C216 7008   2.311   3.230   4.804
   78SOPE  H16R 7009   2.208   3.188   4.796
   78SOPE  H16S 7010   2.359   3.164   4.880
   78SOPE  C217 7011   2.400   3.214   4.674
   78SOPE  H17R 7012   2.504   3.212   4.712
   78SOPE  H17S 7013   2.381   3.295   4.600
   78SOPE  C218 7014   2.368   3.080   4.604
   78SOPE  H18R 7015   2.452   3.044   4.541
   78SOPE  H18S 7016   2.277   3.091   4.543
   78SOPE  H18T 7017   2.337   3.007   4.682
   78SOPE   C33 7018   1.444   3.230   6.051
   78SOPE   H3X 7019   1.533   3.162   6.051
   78SOPE   H3Y 7020   1.466   3.334   6.083
   78SOPE   C34 7021   1.395   3.227   5.904
   78SOPE   H4X 7022   1.293   3.271   5.899
   78SOPE   H4Y 7023   1.395   3.120   5.875
   78SOPE   C35 7024   1.493   3.300   5.807
   78SOPE   H5X 7025   1.598   3.267   5.822
   78SOPE   H5Y 7026   1.488   3.408   5.833
   78SOPE   C36 7027   1.453   3.279   5.663
   78SOPE   H6X 7028   1.347   3.311   5.650
   78SOPE   H6Y 7029   1.474   3.175   5.632
   78SOPE   C37 7030   1.536   3.373   5.573
   78SOPE   H7X 7031   1.637   3.331   5.554
   78SOPE   H7Y 7032   1.554   3.472   5.621
   78SOPE   C38 7033   1.460   3.410   5.444
   78SOPE   H8X 7034   1.516   3.495   5.399
   78SOPE   H8Y 7035   1.357   3.452   5.447
   78SOPE   C39 7036   1.462   3.291   5.340
   78SOPE   H9X 7037   1.380   3.219   5.363
   78SOPE   H9Y 7038   1.550   3.225   5.356
   78SOPE  C310 7039   1.458   3.335   5.191
   78SOPE  H10X 7040   1.363   3.391   5.179
   78SOPE  H10Y 7041   1.448   3.234   5.147
   78SOPE  C311 7042   1.583   3.413   5.151
   78SOPE  H11X 7043   1.683   3.375   5.182
   78SOPE  H11Y 7044   1.576   3.512   5.202
   78SOPE  C312 7045   1.609   3.444   5.004
   78SOPE  H12X 7046   1.513   3.476   4.958
   78SOPE  H12Y 7047   1.674   3.362   4.968
   78SOPE  C313 7048   1.686   3.576   5.005
   78SOPE  H13X 7049   1.784   3.568   5.056
   78SOPE  H13Y 7050   1.630   3.653   5.062
   78SOPE  C314 7051   1.710   3.632   4.866
   78SOPE  H14X 7052   1.762   3.728   4.885
   78SOPE  H14Y 7053   1.614   3.657   4.816
   78SOPE  C315 7054   1.789   3.542   4.771
   78SOPE  H15X 7055   1.740   3.443   4.760
   78SOPE  H15Y 7056   1.893   3.522   4.805
   78SOPE  C316 7057   1.802   3.608   4.634
   78SOPE  H16X 7058   1.853   3.707   4.636
   78SOPE  H16Y 7059   1.700   3.630   4.594
   78SOPE  C317 7060   1.891   3.529   4.520
   78SOPE  H17X 7061   1.881   3.421   4.547
   78SOPE  H17Y 7062   1.997   3.560   4.529
   78SOPE  C318 7063   1.838   3.558   4.385
   78SOPE  H18X 7064   1.820   3.667   4.378
   78SOPE  H18Y 7065   1.741   3.504   4.375
   78SOPE  H18Z 7066   1.903   3.540   4.297
   79SOPE     N 7067   3.834   0.290   6.743
   79SOPE   HN1 7068   3.828   0.254   6.840
   79SOPE   HN2 7069   3.741   0.321   6.708
   79SOPE   HN3 7070   3.864   0.213   6.680
   79SOPE   C12 7071   3.930   0.402   6.725
   79SOPE  H12A 7072   3.926   0.440   6.620
   79SOPE  H12B 7073   4.033   0.363   6.735
   79SOPE   C11 7074   3.893   0.521   6.814
   79SOPE  H11A 7075   3.902   0.496   6.922
   79SOPE  H11B 7076   3.786   0.536   6.789
   79SOPE     P 7077   3.963   0.768   6.857
   79SOPE   O13 7078   4.091   0.783   6.933
   79SOPE   O14 7079   3.841   0.767   6.940
   79SOPE   O12 7080   3.971   0.635   6.773
   79SOPE   O11 7081   3.951   0.877   6.742
   79SOPE    C1 7082   4.012   0.853   6.620
   79SOPE    HA 7083   4.107   0.795   6.626
   79SOPE    HB 7084   4.037   0.951   6.573
   79SOPE    C2 7085   3.907   0.787   6.527
   79SOPE    HS 7086   3.886   0.690   6.577
   79SOPE   O21 7087   3.948   0.786   6.390
   79SOPE   C21 7088   4.050   0.703   6.373
   79SOPE   O22 7089   4.085   0.618   6.451
   79SOPE   C22 7090   4.116   0.729   6.243
   79SOPE   H2R 7091   4.071   0.819   6.195
   79SOPE   H2S 7092   4.082   0.641   6.185
   79SOPE    C3 7093   3.777   0.866   6.527
   79SOPE    HX 7094   3.724   0.870   6.625
   79SOPE    HY 7095   3.710   0.820   6.451
   79SOPE   O31 7096   3.797   1.001   6.478
   79SOPE   C31 7097   3.687   1.070   6.469
   79SOPE   O32 7098   3.576   1.034   6.508
   79SOPE   C32 7099   3.712   1.202   6.397
   79SOPE   H2X 7100   3.822   1.216   6.408
   79SOPE   H2Y 7101   3.659   1.277   6.459
   79SOPE   C23 7102   4.274   0.735   6.236
   79SOPE   H3R 7103   4.302   0.739   6.129
   79SOPE   H3S 7104   4.322   0.640   6.269
   79SOPE   C24 7105   4.346   0.850   6.305
   79SOPE   H4R 7106   4.318   0.837   6.412
   79SOPE   H4S 7107   4.455   0.832   6.319
   79SOPE   C25 7108   4.315   0.986   6.250
   79SOPE   H5R 7109   4.208   1.000   6.223
   79SOPE   H5S 7110   4.334   1.065   6.326
   79SOPE   C26 7111   4.414   1.001   6.124
   79SOPE   H6R 7112   4.516   0.978   6.162
   79SOPE   H6S 7113   4.388   0.922   6.049
   79SOPE   C27 7114   4.412   1.139   6.062
   79SOPE   H7R 7115   4.403   1.212   6.145
   79SOPE   H7S 7116   4.495   1.160   5.992
   79SOPE   C28 7117   4.291   1.159   5.980
   79SOPE   H8R 7118   4.292   1.082   5.899
   79SOPE   H8S 7119   4.197   1.137   6.035
   79SOPE   C29 7120   4.298   1.306   5.933
   79SOPE   H91 7121   4.284   1.374   6.019
   79SOPE  C210 7122   4.321   1.350   5.805
   79SOPE  H101 7123   4.339   1.458   5.793
   79SOPE  C211 7124   4.331   1.261   5.682
   79SOPE  H11R 7125   4.318   1.154   5.708
   79SOPE  H11S 7126   4.423   1.280   5.623
   79SOPE  C212 7127   4.214   1.309   5.596
   79SOPE  H12R 7128   4.241   1.411   5.559
   79SOPE  H12S 7129   4.125   1.317   5.662
   79SOPE  C213 7130   4.190   1.221   5.476
   79SOPE  H13R 7131   4.283   1.215   5.415
   79SOPE  H13S 7132   4.129   1.277   5.402
   79SOPE  C214 7133   4.120   1.087   5.495
   79SOPE  H14R 7134   4.016   1.101   5.531
   79SOPE  H14S 7135   4.166   1.026   5.576
   79SOPE  C215 7136   4.121   1.010   5.364
   79SOPE  H15R 7137   4.122   1.083   5.281
   79SOPE  H15S 7138   4.032   0.946   5.341
   79SOPE  C216 7139   4.239   0.922   5.346
   79SOPE  H16R 7140   4.240   0.863   5.440
   79SOPE  H16S 7141   4.337   0.973   5.333
   79SOPE  C217 7142   4.237   0.828   5.228
   79SOPE  H17R 7143   4.240   0.891   5.136
   79SOPE  H17S 7144   4.139   0.775   5.230
   79SOPE  C218 7145   4.359   0.736   5.244
   79SOPE  H18R 7146   4.353   0.645   5.180
   79SOPE  H18S 7147   4.365   0.690   5.345
   79SOPE  H18T 7148   4.459   0.781   5.225
   79SOPE   C33 7149   3.649   1.213   6.256
   79SOPE   H3X 7150   3.646   1.320   6.229
   79SOPE   H3Y 7151   3.547   1.172   6.246
   79SOPE   C34 7152   3.734   1.155   6.144
   79SOPE   H4X 7153   3.841   1.181   6.163
   79SOPE   H4Y 7154   3.700   1.194   6.046
   79SOPE   C35 7155   3.729   1.003   6.128
   79SOPE   H5X 7156   3.622   0.978   6.142
   79SOPE   H5Y 7157   3.779   0.945   6.209
   79SOPE   C36 7158   3.784   0.956   5.996
   79SOPE   H6X 7159   3.701   0.985   5.928
   79SOPE   H6Y 7160   3.787   0.845   5.991
   79SOPE   C37 7161   3.921   1.021   5.962
   79SOPE   H7X 7162   3.987   0.982   6.043
   79SOPE   H7Y 7163   3.931   1.131   5.974
   79SOPE   C38 7164   3.970   0.992   5.818
   79SOPE   H8X 7165   4.069   1.041   5.812
   79SOPE   H8Y 7166   3.903   1.053   5.754
   79SOPE   C39 7167   3.970   0.843   5.761
   79SOPE   H9X 7168   3.977   0.861   5.651
   79SOPE   H9Y 7169   3.873   0.798   5.792
   79SOPE  C310 7170   4.097   0.769   5.815
   79SOPE  H10X 7171   4.079   0.661   5.798
   79SOPE  H10Y 7172   4.114   0.795   5.922
   79SOPE  C311 7173   4.226   0.799   5.736
   79SOPE  H11X 7174   4.248   0.908   5.739
   79SOPE  H11Y 7175   4.201   0.766   5.633
   79SOPE  C312 7176   4.347   0.712   5.790
   79SOPE  H12X 7177   4.318   0.606   5.804
   79SOPE  H12Y 7178   4.374   0.754   5.889
   79SOPE  C313 7179   4.474   0.711   5.702
   79SOPE  H13X 7180   4.478   0.807   5.647
   79SOPE  H13Y 7181   4.452   0.627   5.632
   79SOPE  C314 7182   4.604   0.679   5.776
   79SOPE  H14X 7183   4.625   0.757   5.852
   79SOPE  H14Y 7184   4.692   0.695   5.711
   79SOPE  C315 7185   4.617   0.548   5.845
   79SOPE  H15X 7186   4.682   0.481   5.784
   79SOPE  H15Y 7187   4.523   0.489   5.849
   79SOPE  C316 7188   4.697   0.559   5.979
   79SOPE  H16X 7189   4.782   0.629   5.968
   79SOPE  H16Y 7190   4.741   0.460   6.005
   79SOPE  C317 7191   4.602   0.612   6.080
   79SOPE  H17X 7192   4.513   0.550   6.057
   79SOPE  H17Y 7193   4.568   0.716   6.061
   79SOPE  C318 7194   4.656   0.592   6.223
   79SOPE  H18X 7195   4.754   0.637   6.249
   79SOPE  H18Y 7196   4.664   0.485   6.252
   79SOPE  H18Z 7197   4.580   0.629   6.295
   80SOPE     N 7198   1.813   3.490   6.980
   80SOPE   HN1 7199   1.812   3.430   6.895
   80SOPE   HN2 7200   1.775   3.582   6.951
   80SOPE   HN3 7201   1.914   3.500   7.001
   80SOPE   C12 7202   1.742   3.418   7.086
   80SOPE  H12A 7203   1.759   3.478   7.177
   80SOPE  H12B 7204   1.783   3.314   7.088
   80SOPE   C11 7205   1.592   3.414   7.051
   80SOPE  H11A 7206   1.540   3.371   7.140
   80SOPE  H11B 7207   1.577   3.345   6.966
   80SOPE     P 7208   1.406   3.572   6.958
   80SOPE   O13 7209   1.409   3.710   6.910
   80SOPE   O14 7210   1.295   3.539   7.049
   80SOPE   O12 7211   1.543   3.546   7.038
   80SOPE   O11 7212   1.412   3.467   6.842
   80SOPE    C1 7213   1.492   3.480   6.726
   80SOPE    HA 7214   1.491   3.378   6.683
   80SOPE    HB 7215   1.601   3.495   6.741
   80SOPE    C2 7216   1.443   3.582   6.623
   80SOPE    HS 7217   1.400   3.668   6.679
   80SOPE   O21 7218   1.347   3.524   6.530
   80SOPE   C21 7219   1.273   3.610   6.476
   80SOPE   O22 7220   1.264   3.725   6.511
   80SOPE   C22 7221   1.200   3.544   6.368
   80SOPE   H2R 7222   1.251   3.450   6.338
   80SOPE   H2S 7223   1.201   3.599   6.271
   80SOPE    C3 7224   1.566   3.647   6.549
   80SOPE    HX 7225   1.624   3.692   6.632
   80SOPE    HY 7226   1.529   3.727   6.481
   80SOPE   O31 7227   1.649   3.549   6.485
   80SOPE   C31 7228   1.624   3.509   6.365
   80SOPE   O32 7229   1.531   3.549   6.298
   80SOPE   C32 7230   1.738   3.419   6.318
   80SOPE   H2X 7231   1.697   3.319   6.293
   80SOPE   H2Y 7232   1.801   3.394   6.406
   80SOPE   C23 7233   1.052   3.520   6.405
   80SOPE   H3R 7234   1.006   3.598   6.469
   80SOPE   H3S 7235   1.048   3.431   6.471
   80SOPE   C24 7236   0.957   3.496   6.283
   80SOPE   H4R 7237   0.853   3.486   6.319
   80SOPE   H4S 7238   0.959   3.586   6.217
   80SOPE   C25 7239   0.999   3.374   6.198
   80SOPE   H5R 7240   1.108   3.372   6.180
   80SOPE   H5S 7241   0.984   3.275   6.245
   80SOPE   C26 7242   0.932   3.385   6.055
   80SOPE   H6R 7243   0.825   3.406   6.073
   80SOPE   H6S 7244   0.969   3.481   6.013
   80SOPE   C27 7245   0.953   3.260   5.963
   80SOPE   H7R 7246   1.058   3.246   5.932
   80SOPE   H7S 7247   0.933   3.167   6.020
   80SOPE   C28 7248   0.858   3.270   5.836
   80SOPE   H8R 7249   0.871   3.180   5.772
   80SOPE   H8S 7250   0.757   3.286   5.879
   80SOPE   C29 7251   0.913   3.378   5.754
   80SOPE   H91 7252   0.977   3.451   5.805
   80SOPE  C210 7253   0.898   3.397   5.626
   80SOPE  H101 7254   0.943   3.488   5.582
   80SOPE  C211 7255   0.819   3.317   5.525
   80SOPE  H11R 7256   0.733   3.383   5.498
   80SOPE  H11S 7257   0.769   3.227   5.567
   80SOPE  C212 7258   0.900   3.282   5.401
   80SOPE  H12R 7259   0.837   3.203   5.354
   80SOPE  H12S 7260   1.000   3.235   5.409
   80SOPE  C213 7261   0.906   3.404   5.304
   80SOPE  H13R 7262   0.962   3.483   5.358
   80SOPE  H13S 7263   0.805   3.441   5.274
   80SOPE  C214 7264   0.988   3.392   5.173
   80SOPE  H14R 7265   1.090   3.353   5.194
   80SOPE  H14S 7266   0.988   3.497   5.138
   80SOPE  C215 7267   0.912   3.308   5.071
   80SOPE  H15R 7268   0.805   3.338   5.076
   80SOPE  H15S 7269   0.928   3.201   5.097
   80SOPE  C216 7270   0.963   3.323   4.932
   80SOPE  H16R 7271   1.071   3.296   4.928
   80SOPE  H16S 7272   0.934   3.423   4.895
   80SOPE  C217 7273   0.896   3.224   4.834
   80SOPE  H17R 7274   0.907   3.120   4.871
   80SOPE  H17S 7275   0.943   3.223   4.734
   80SOPE  C218 7276   0.746   3.262   4.810
   80SOPE  H18R 7277   0.730   3.364   4.770
   80SOPE  H18S 7278   0.692   3.278   4.906
   80SOPE  H18T 7279   0.698   3.180   4.752
   80SOPE   C33 7280   1.823   3.483   6.208
   80SOPE   H3X 7281   1.917   3.428   6.187
   80SOPE   H3Y 7282   1.854   3.587   6.231
   80SOPE   C34 7283   1.753   3.487   6.075
   80SOPE   H4X 7284   1.656   3.539   6.091
   80SOPE   H4Y 7285   1.728   3.386   6.038
   80SOPE   C35 7286   1.842   3.547   5.962
   80SOPE   H5X 7287   1.937   3.495   5.938
   80SOPE   H5Y 7288   1.864   3.648   6.000
   80SOPE   C36 7289   1.764   3.585   5.833
   80SOPE   H6X 7290   1.685   3.662   5.845
   80SOPE   H6Y 7291   1.718   3.493   5.790
   80SOPE   C37 7292   1.866   3.640   5.729
   80SOPE   H7X 7293   1.941   3.564   5.699
   80SOPE   H7Y 7294   1.910   3.736   5.764
   80SOPE   C38 7295   1.805   3.672   5.587
   80SOPE   H8X 7296   1.718   3.737   5.610
   80SOPE   H8Y 7297   1.772   3.575   5.545
   80SOPE   C39 7298   1.907   3.743   5.491
   80SOPE   H9X 7299   1.978   3.676   5.438
   80SOPE   H9Y 7300   1.964   3.830   5.530
   80SOPE  C310 7301   1.830   3.789   5.362
   80SOPE  H10X 7302   1.752   3.857   5.402
   80SOPE  H10Y 7303   1.786   3.708   5.299
   80SOPE  C311 7304   1.920   3.865   5.266
   80SOPE  H11X 7305   1.971   3.791   5.200
   80SOPE  H11Y 7306   1.984   3.936   5.324
   80SOPE  C312 7307   1.836   3.948   5.172
   80SOPE  H12X 7308   1.764   4.012   5.228
   80SOPE  H12Y 7309   1.763   3.878   5.127
   80SOPE  C313 7310   1.910   4.020   5.061
   80SOPE  H13X 7311   1.971   3.942   5.013
   80SOPE  H13Y 7312   1.987   4.092   5.098
   80SOPE  C314 7313   1.822   4.087   4.952
   80SOPE  H14X 7314   1.763   4.170   4.996
   80SOPE  H14Y 7315   1.739   4.023   4.917
   80SOPE  C315 7316   1.909   4.129   4.829
   80SOPE  H15X 7317   2.015   4.141   4.859
   80SOPE  H15Y 7318   1.869   4.231   4.809
   80SOPE  C316 7319   1.896   4.030   4.713
   80SOPE  H16X 7320   1.788   4.029   4.683
   80SOPE  H16Y 7321   1.926   3.934   4.761
   80SOPE  C317 7322   1.979   4.065   4.589
   80SOPE  H17X 7323   2.064   4.121   4.633
   80SOPE  H17Y 7324   1.941   4.141   4.518
   80SOPE  C318 7325   2.032   3.948   4.501
   80SOPE  H18X 7326   1.953   3.881   4.460
   80SOPE  H18Y 7327   2.091   3.886   4.572
   80SOPE  H18Z 7328   2.102   3.982   4.421
   81SOPE     N 7329   4.663   1.859   6.787
   81SOPE   HN1 7330   4.583   1.925   6.800
   81SOPE   HN2 7331   4.632   1.769   6.828
   81SOPE   HN3 7332   4.746   1.887   6.844
   81SOPE   C12 7333   4.685   1.855   6.634
   81SOPE  H12A 7334   4.716   1.959   6.614
   81SOPE  H12B 7335   4.586   1.843   6.585
   81SOPE   C11 7336   4.785   1.745   6.592
   81SOPE  H11A 7337   4.879   1.758   6.649
   81SOPE  H11B 7338   4.811   1.757   6.484
   81SOPE     P 7339   4.791   1.488   6.632
   81SOPE   O13 7340   4.688   1.389   6.656
   81SOPE   O14 7341   4.892   1.511   6.742
   81SOPE   O12 7342   4.719   1.626   6.611
   81SOPE   O11 7343   4.864   1.452   6.494
   81SOPE    C1 7344   4.887   1.323   6.452
   81SOPE    HA 7345   4.851   1.255   6.531
   81SOPE    HB 7346   4.997   1.307   6.441
   81SOPE    C2 7347   4.835   1.290   6.310
   81SOPE    HS 7348   4.883   1.344   6.226
   81SOPE   O21 7349   4.692   1.316   6.320
   81SOPE   C21 7350   4.650   1.421   6.269
   81SOPE   O22 7351   4.705   1.489   6.183
   81SOPE   C22 7352   4.512   1.453   6.332
   81SOPE   H2R 7353   4.496   1.412   6.433
   81SOPE   H2S 7354   4.433   1.398   6.277
   81SOPE    C3 7355   4.860   1.138   6.275
   81SOPE    HX 7356   4.824   1.071   6.356
   81SOPE    HY 7357   4.970   1.125   6.270
   81SOPE   O31 7358   4.786   1.104   6.149
   81SOPE   C31 7359   4.839   1.158   6.038
   81SOPE   O32 7360   4.954   1.193   6.024
   81SOPE   C32 7361   4.740   1.153   5.924
   81SOPE   H2X 7362   4.671   1.239   5.938
   81SOPE   H2Y 7363   4.683   1.057   5.929
   81SOPE   C23 7364   4.476   1.606   6.343
   81SOPE   H3R 7365   4.532   1.667   6.269
   81SOPE   H3S 7366   4.506   1.647   6.442
   81SOPE   C24 7367   4.328   1.643   6.338
   81SOPE   H4R 7368   4.274   1.629   6.242
   81SOPE   H4S 7369   4.274   1.577   6.409
   81SOPE   C25 7370   4.313   1.793   6.380
   81SOPE   H5R 7371   4.209   1.810   6.414
   81SOPE   H5S 7372   4.378   1.821   6.466
   81SOPE   C26 7373   4.331   1.880   6.258
   81SOPE   H6R 7374   4.433   1.861   6.216
   81SOPE   H6S 7375   4.266   1.852   6.173
   81SOPE   C27 7376   4.300   2.020   6.291
   81SOPE   H7R 7377   4.196   2.036   6.328
   81SOPE   H7S 7378   4.373   2.061   6.364
   81SOPE   C28 7379   4.315   2.103   6.159
   81SOPE   H8R 7380   4.402   2.063   6.103
   81SOPE   H8S 7381   4.223   2.086   6.099
   81SOPE   C29 7382   4.332   2.248   6.193
   81SOPE   H91 7383   4.396   2.276   6.277
   81SOPE  C210 7384   4.305   2.344   6.099
   81SOPE  H101 7385   4.326   2.450   6.121
   81SOPE  C211 7386   4.241   2.315   5.964
   81SOPE  H11R 7387   4.151   2.377   5.945
   81SOPE  H11S 7388   4.189   2.217   5.959
   81SOPE  C212 7389   4.327   2.324   5.843
   81SOPE  H12R 7390   4.396   2.237   5.844
   81SOPE  H12S 7391   4.390   2.415   5.847
   81SOPE  C213 7392   4.243   2.324   5.707
   81SOPE  H13R 7393   4.177   2.412   5.702
   81SOPE  H13S 7394   4.196   2.226   5.686
   81SOPE  C214 7395   4.339   2.361   5.586
   81SOPE  H14R 7396   4.404   2.273   5.568
   81SOPE  H14S 7397   4.395   2.451   5.618
   81SOPE  C215 7398   4.262   2.391   5.456
   81SOPE  H15R 7399   4.194   2.478   5.466
   81SOPE  H15S 7400   4.208   2.302   5.417
   81SOPE  C216 7401   4.371   2.424   5.351
   81SOPE  H16R 7402   4.444   2.340   5.345
   81SOPE  H16S 7403   4.422   2.517   5.384
   81SOPE  C217 7404   4.308   2.444   5.209
   81SOPE  H17R 7405   4.230   2.523   5.210
   81SOPE  H17S 7406   4.270   2.346   5.176
   81SOPE  C218 7407   4.415   2.491   5.110
   81SOPE  H18R 7408   4.487   2.411   5.084
   81SOPE  H18S 7409   4.463   2.583   5.150
   81SOPE  H18T 7410   4.363   2.513   5.014
   81SOPE   C33 7411   4.812   1.160   5.784
   81SOPE   H3X 7412   4.865   1.063   5.773
   81SOPE   H3Y 7413   4.892   1.237   5.778
   81SOPE   C34 7414   4.719   1.187   5.661
   81SOPE   H4X 7415   4.708   1.298   5.658
   81SOPE   H4Y 7416   4.620   1.141   5.679
   81SOPE   C35 7417   4.774   1.139   5.528
   81SOPE   H5X 7418   4.777   1.029   5.519
   81SOPE   H5Y 7419   4.881   1.170   5.530
   81SOPE   C36 7420   4.708   1.216   5.409
   81SOPE   H6X 7421   4.728   1.326   5.406
   81SOPE   H6Y 7422   4.599   1.203   5.425
   81SOPE   C37 7423   4.757   1.160   5.275
   81SOPE   H7X 7424   4.774   1.055   5.307
   81SOPE   H7Y 7425   4.855   1.197   5.239
   81SOPE   C38 7426   4.660   1.174   5.160
   81SOPE   H8X 7427   4.644   1.280   5.128
   81SOPE   H8Y 7428   4.558   1.146   5.193
   81SOPE   C39 7429   4.718   1.094   5.037
   81SOPE   H9X 7430   4.728   0.988   5.069
   81SOPE   H9Y 7431   4.817   1.140   5.018
   81SOPE  C310 7432   4.636   1.088   4.906
   81SOPE  H10X 7433   4.713   1.058   4.832
   81SOPE  H10Y 7434   4.592   1.185   4.874
   81SOPE  C311 7435   4.514   0.990   4.922
   81SOPE  H11X 7436   4.463   1.019   5.016
   81SOPE  H11Y 7437   4.554   0.891   4.950
   81SOPE  C312 7438   4.417   0.980   4.808
   81SOPE  H12X 7439   4.469   0.942   4.717
   81SOPE  H12Y 7440   4.369   1.074   4.774
   81SOPE  C313 7441   4.298   0.892   4.849
   81SOPE  H13X 7442   4.251   0.941   4.936
   81SOPE  H13Y 7443   4.337   0.790   4.870
   81SOPE  C314 7444   4.196   0.878   4.736
   81SOPE  H14X 7445   4.251   0.827   4.653
   81SOPE  H14Y 7446   4.161   0.977   4.702
   81SOPE  C315 7447   4.085   0.784   4.778
   81SOPE  H15X 7448   4.036   0.825   4.868
   81SOPE  H15Y 7449   4.126   0.686   4.810
   81SOPE  C316 7450   3.971   0.778   4.676
   81SOPE  H16X 7451   3.969   0.874   4.621
   81SOPE  H16Y 7452   3.869   0.770   4.720
   81SOPE  C317 7453   3.998   0.646   4.597
   81SOPE  H17X 7454   3.987   0.562   4.669
   81SOPE  H17Y 7455   4.094   0.641   4.541
   81SOPE  C318 7456   3.879   0.619   4.504
   81SOPE  H18X 7457   3.784   0.625   4.560
   81SOPE  H18Y 7458   3.893   0.519   4.457
   81SOPE  H18Z 7459   3.887   0.700   4.428
   82SOPE     N 7460   1.327   0.831   6.563
   82SOPE   HN1 7461   1.427   0.825   6.536
   82SOPE   HN2 7462   1.313   0.913   6.625
   82SOPE   HN3 7463   1.308   0.744   6.616
   82SOPE   C12 7464   1.256   0.849   6.437
   82SOPE  H12A 7465   1.224   0.955   6.436
   82SOPE  H12B 7466   1.166   0.784   6.437
   82SOPE   C11 7467   1.355   0.812   6.320
   82SOPE  H11A 7468   1.452   0.866   6.316
   82SOPE  H11B 7469   1.297   0.841   6.230
   82SOPE     P 7470   1.279   0.579   6.221
   82SOPE   O13 7471   1.149   0.568   6.284
   82SOPE   O14 7472   1.342   0.450   6.191
   82SOPE   O12 7473   1.381   0.672   6.306
   82SOPE   O11 7474   1.259   0.666   6.088
   82SOPE    C1 7475   1.350   0.647   5.985
   82SOPE    HA 7476   1.454   0.627   6.017
   82SOPE    HB 7477   1.361   0.738   5.922
   82SOPE    C2 7478   1.300   0.538   5.879
   82SOPE    HS 7479   1.307   0.439   5.929
   82SOPE   O21 7480   1.374   0.542   5.757
   82SOPE   C21 7481   1.496   0.493   5.770
   82SOPE   O22 7482   1.541   0.430   5.865
   82SOPE   C22 7483   1.579   0.510   5.645
   82SOPE   H2R 7484   1.623   0.413   5.615
   82SOPE   H2S 7485   1.669   0.573   5.663
   82SOPE    C3 7486   1.148   0.561   5.841
   82SOPE    HX 7487   1.134   0.633   5.758
   82SOPE    HY 7488   1.095   0.598   5.932
   82SOPE   O31 7489   1.094   0.433   5.802
   82SOPE   C31 7490   0.962   0.431   5.772
   82SOPE   O32 7491   0.890   0.528   5.782
   82SOPE   C32 7492   0.918   0.303   5.706
   82SOPE   H2X 7493   0.809   0.294   5.724
   82SOPE   H2Y 7494   0.970   0.216   5.752
   82SOPE   C23 7495   1.510   0.561   5.513
   82SOPE   H3R 7496   1.482   0.668   5.524
   82SOPE   H3S 7497   1.419   0.497   5.505
   82SOPE   C24 7498   1.595   0.547   5.383
   82SOPE   H4R 7499   1.690   0.601   5.406
   82SOPE   H4S 7500   1.632   0.446   5.355
   82SOPE   C25 7501   1.540   0.636   5.263
   82SOPE   H5R 7502   1.440   0.602   5.230
   82SOPE   H5S 7503   1.533   0.741   5.299
   82SOPE   C26 7504   1.634   0.628   5.143
   82SOPE   H6R 7505   1.591   0.701   5.072
   82SOPE   H6S 7506   1.741   0.655   5.155
   82SOPE   C27 7507   1.613   0.496   5.067
   82SOPE   H7R 7508   1.660   0.415   5.127
   82SOPE   H7S 7509   1.506   0.468   5.055
   82SOPE   C28 7510   1.696   0.488   4.936
   82SOPE   H8R 7511   1.653   0.568   4.873
   82SOPE   H8S 7512   1.805   0.495   4.957
   82SOPE   C29 7513   1.656   0.359   4.877
   82SOPE   H91 7514   1.552   0.370   4.844
   82SOPE  C210 7515   1.732   0.250   4.848
   82SOPE  H101 7516   1.680   0.164   4.803
   82SOPE  C211 7517   1.874   0.226   4.901
   82SOPE  H11R 7518   1.902   0.122   4.930
   82SOPE  H11S 7519   1.894   0.278   4.997
   82SOPE  C212 7520   1.987   0.273   4.805
   82SOPE  H12R 7521   2.081   0.264   4.864
   82SOPE  H12S 7522   1.975   0.380   4.779
   82SOPE  C213 7523   2.008   0.193   4.672
   82SOPE  H13R 7524   1.913   0.218   4.622
   82SOPE  H13S 7525   2.019   0.083   4.689
   82SOPE  C214 7526   2.131   0.245   4.598
   82SOPE  H14R 7527   2.207   0.284   4.670
   82SOPE  H14S 7528   2.102   0.334   4.538
   82SOPE  C215 7529   2.185   0.153   4.499
   82SOPE  H15R 7530   2.192   0.050   4.541
   82SOPE  H15S 7531   2.285   0.176   4.457
   82SOPE  C216 7532   2.087   0.118   4.381
   82SOPE  H16R 7533   2.099   0.198   4.304
   82SOPE  H16S 7534   1.986   0.130   4.426
   82SOPE  C217 7535   2.116   6.761   4.323
   82SOPE  H17R 7536   2.094   6.686   4.402
   82SOPE  H17S 7537   2.222   6.750   4.291
   82SOPE  C218 7538   2.015   6.717   4.214
   82SOPE  H18R 7539   2.026   6.776   4.121
   82SOPE  H18S 7540   1.909   6.732   4.243
   82SOPE  H18T 7541   2.037   6.615   4.178
   82SOPE   C33 7542   0.933   0.304   5.555
   82SOPE   H3X 7543   0.856   0.374   5.517
   82SOPE   H3Y 7544   0.911   0.200   5.523
   82SOPE   C34 7545   1.069   0.348   5.501
   82SOPE   H4X 7546   1.151   0.327   5.574
   82SOPE   H4Y 7547   1.076   0.459   5.498
   82SOPE   C35 7548   1.103   0.301   5.361
   82SOPE   H5X 7549   1.023   0.336   5.292
   82SOPE   H5Y 7550   1.094   0.190   5.367
   82SOPE   C36 7551   1.238   0.340   5.306
   82SOPE   H6X 7552   1.303   0.269   5.362
   82SOPE   H6Y 7553   1.270   0.443   5.332
   82SOPE   C37 7554   1.248   0.328   5.152
   82SOPE   H7X 7555   1.200   0.235   5.117
   82SOPE   H7Y 7556   1.356   0.316   5.129
   82SOPE   C38 7557   1.194   0.456   5.090
   82SOPE   H8X 7558   1.272   0.530   5.118
   82SOPE   H8Y 7559   1.093   0.468   5.135
   82SOPE   C39 7560   1.166   0.460   4.937
   82SOPE   H9X 7561   1.123   0.555   4.900
   82SOPE   H9Y 7562   1.091   0.378   4.930
   82SOPE  C310 7563   1.290   0.426   4.859
   82SOPE  H10X 7564   1.318   0.320   4.874
   82SOPE  H10Y 7565   1.374   0.489   4.895
   82SOPE  C311 7566   1.275   0.461   4.704
   82SOPE  H11X 7567   1.278   0.572   4.697
   82SOPE  H11Y 7568   1.170   0.448   4.673
   82SOPE  C312 7569   1.371   0.390   4.610
   82SOPE  H12X 7570   1.478   0.405   4.636
   82SOPE  H12Y 7571   1.356   0.447   4.516
   82SOPE  C313 7572   1.352   0.240   4.585
   82SOPE  H13X 7573   1.243   0.221   4.576
   82SOPE  H13Y 7574   1.384   0.180   4.673
   82SOPE  C314 7575   1.417   0.186   4.454
   82SOPE  H14X 7576   1.377   0.083   4.449
   82SOPE  H14Y 7577   1.528   0.180   4.459
   82SOPE  C315 7578   1.364   0.276   4.334
   82SOPE  H15X 7579   1.431   0.364   4.328
   82SOPE  H15Y 7580   1.257   0.308   4.338
   82SOPE  C316 7581   1.369   0.189   4.204
   82SOPE  H16X 7582   1.318   0.092   4.218
   82SOPE  H16Y 7583   1.473   0.152   4.189
   82SOPE  C317 7584   1.323   0.274   4.090
   82SOPE  H17X 7585   1.212   0.283   4.090
   82SOPE  H17Y 7586   1.327   0.217   3.995
   82SOPE  C318 7587   1.379   0.410   4.071
   82SOPE  H18X 7588   1.484   0.408   4.035
   82SOPE  H18Y 7589   1.374   0.477   4.160
   82SOPE  H18Z 7590   1.328   0.465   3.989
   83SOPE     N 7591   1.240   2.256   1.844
   83SOPE   HN1 7592   1.248   2.205   1.934
   83SOPE   HN2 7593   1.157   2.208   1.802
   83SOPE   HN3 7594   1.323   2.248   1.783
   83SOPE   C12 7595   1.220   2.406   1.856
   83SOPE  H12A 7596   1.152   2.428   1.940
   83SOPE  H12B 7597   1.170   2.444   1.764
   83SOPE   C11 7598   1.360   2.475   1.863
   83SOPE  H11A 7599   1.433   2.413   1.919
   83SOPE  H11B 7600   1.346   2.571   1.918
   83SOPE     P 7601   1.368   2.633   1.665
   83SOPE   O13 7602   1.222   2.630   1.637
   83SOPE   O14 7603   1.449   2.668   1.548
   83SOPE   O12 7604   1.408   2.498   1.728
   83SOPE   O11 7605   1.404   2.740   1.782
   83SOPE    C1 7606   1.520   2.829   1.776
   83SOPE    HA 7607   1.522   2.876   1.676
   83SOPE    HB 7608   1.621   2.783   1.787
   83SOPE    C2 7609   1.508   2.929   1.905
   83SOPE    HS 7610   1.607   2.978   1.918
   83SOPE   O21 7611   1.474   2.861   2.024
   83SOPE   C21 7612   1.529   2.747   2.057
   83SOPE   O22 7613   1.641   2.705   2.022
   83SOPE   C22 7614   1.441   2.673   2.160
   83SOPE   H2R 7615   1.342   2.658   2.111
   83SOPE   H2S 7616   1.417   2.753   2.234
   83SOPE    C3 7617   1.406   3.037   1.867
   83SOPE    HX 7618   1.324   2.982   1.817
   83SOPE    HY 7619   1.459   3.098   1.790
   83SOPE   O31 7620   1.359   3.116   1.982
   83SOPE   C31 7621   1.260   3.074   2.047
   83SOPE   O32 7622   1.200   2.967   2.027
   83SOPE   C32 7623   1.212   3.172   2.156
   83SOPE   H2X 7624   1.138   3.231   2.097
   83SOPE   H2Y 7625   1.297   3.238   2.183
   83SOPE   C23 7626   1.512   2.544   2.209
   83SOPE   H3R 7627   1.607   2.587   2.245
   83SOPE   H3S 7628   1.533   2.473   2.126
   83SOPE   C24 7629   1.447   2.481   2.329
   83SOPE   H4R 7630   1.431   2.561   2.404
   83SOPE   H4S 7631   1.352   2.429   2.303
   83SOPE   C25 7632   1.525   2.377   2.414
   83SOPE   H5R 7633   1.529   2.284   2.353
   83SOPE   H5S 7634   1.632   2.405   2.416
   83SOPE   C26 7635   1.476   2.352   2.552
   83SOPE   H6R 7636   1.509   2.442   2.609
   83SOPE   H6S 7637   1.367   2.331   2.559
   83SOPE   C27 7638   1.541   2.229   2.630
   83SOPE   H7R 7639   1.508   2.135   2.580
   83SOPE   H7S 7640   1.648   2.241   2.606
   83SOPE   C28 7641   1.517   2.226   2.785
   83SOPE   H8R 7642   1.409   2.247   2.794
   83SOPE   H8S 7643   1.537   2.121   2.817
   83SOPE   C29 7644   1.615   2.318   2.852
   83SOPE   H91 7645   1.685   2.359   2.778
   83SOPE  C210 7646   1.611   2.354   2.986
   83SOPE  H101 7647   1.683   2.426   3.028
   83SOPE  C211 7648   1.515   2.307   3.091
   83SOPE  H11R 7649   1.566   2.232   3.155
   83SOPE  H11S 7650   1.431   2.252   3.044
   83SOPE  C212 7651   1.464   2.417   3.181
   83SOPE  H12R 7652   1.401   2.482   3.116
   83SOPE  H12S 7653   1.555   2.474   3.209
   83SOPE  C213 7654   1.376   2.366   3.301
   83SOPE  H13R 7655   1.283   2.319   3.263
   83SOPE  H13S 7656   1.341   2.455   3.358
   83SOPE  C214 7657   1.454   2.273   3.391
   83SOPE  H14R 7658   1.555   2.309   3.419
   83SOPE  H14S 7659   1.460   2.174   3.341
   83SOPE  C215 7660   1.378   2.248   3.522
   83SOPE  H15R 7661   1.293   2.180   3.498
   83SOPE  H15S 7662   1.324   2.339   3.553
   83SOPE  C216 7663   1.461   2.168   3.630
   83SOPE  H16R 7664   1.538   2.241   3.662
   83SOPE  H16S 7665   1.514   2.076   3.595
   83SOPE  C217 7666   1.378   2.120   3.750
   83SOPE  H17R 7667   1.284   2.074   3.712
   83SOPE  H17S 7668   1.349   2.212   3.805
   83SOPE  C218 7669   1.447   2.028   3.843
   83SOPE  H18R 7670   1.557   2.044   3.839
   83SOPE  H18S 7671   1.440   1.919   3.823
   83SOPE  H18T 7672   1.419   2.046   3.950
   83SOPE   C33 7673   1.137   3.113   2.272
   83SOPE   H3X 7674   1.069   3.028   2.249
   83SOPE   H3Y 7675   1.061   3.186   2.308
   83SOPE   C34 7676   1.227   3.073   2.396
   83SOPE   H4X 7677   1.297   3.157   2.414
   83SOPE   H4Y 7678   1.270   2.974   2.370
   83SOPE   C35 7679   1.140   3.077   2.524
   83SOPE   H5X 7680   1.074   2.988   2.512
   83SOPE   H5Y 7681   1.093   3.178   2.533
   83SOPE   C36 7682   1.230   3.052   2.644
   83SOPE   H6X 7683   1.309   3.131   2.643
   83SOPE   H6Y 7684   1.286   2.958   2.626
   83SOPE   C37 7685   1.152   3.048   2.771
   83SOPE   H7X 7686   1.101   2.951   2.790
   83SOPE   H7Y 7687   1.064   3.115   2.767
   83SOPE   C38 7688   1.227   3.074   2.897
   83SOPE   H8X 7689   1.294   3.161   2.879
   83SOPE   H8Y 7690   1.285   2.981   2.911
   83SOPE   C39 7691   1.132   3.115   3.011
   83SOPE   H9X 7692   1.043   3.047   3.010
   83SOPE   H9Y 7693   1.092   3.217   2.997
   83SOPE  C310 7694   1.187   3.097   3.159
   83SOPE  H10X 7695   1.268   3.172   3.175
   83SOPE  H10Y 7696   1.235   2.997   3.154
   83SOPE  C311 7697   1.088   3.097   3.268
   83SOPE  H11X 7698   1.003   3.034   3.234
   83SOPE  H11Y 7699   1.046   3.199   3.282
   83SOPE  C312 7700   1.146   3.051   3.400
   83SOPE  H12X 7701   1.248   3.090   3.415
   83SOPE  H12Y 7702   1.168   2.942   3.402
   83SOPE  C313 7703   1.049   3.090   3.518
   83SOPE  H13X 7704   0.946   3.081   3.479
   83SOPE  H13Y 7705   1.070   3.198   3.530
   83SOPE  C314 7706   1.076   3.015   3.646
   83SOPE  H14X 7707   1.176   3.044   3.685
   83SOPE  H14Y 7708   1.075   2.908   3.619
   83SOPE  C315 7709   0.975   3.054   3.758
   83SOPE  H15X 7710   0.871   3.042   3.722
   83SOPE  H15Y 7711   1.002   3.158   3.786
   83SOPE  C316 7712   0.996   2.959   3.876
   83SOPE  H16X 7713   1.103   2.970   3.904
   83SOPE  H16Y 7714   0.973   2.853   3.851
   83SOPE  C317 7715   0.926   3.003   4.004
   83SOPE  H17X 7716   0.899   3.110   3.986
   83SOPE  H17Y 7717   0.995   3.000   4.090
   83SOPE  C318 7718   0.802   2.919   4.026
   83SOPE  H18X 7719   0.840   2.815   4.036
   83SOPE  H18Y 7720   0.722   2.931   3.950
   83SOPE  H18Z 7721   0.753   2.948   4.122
   84SOPE     N 7722   0.634   1.153   2.208
   84SOPE   HN1 7723   0.665   1.094   2.128
   84SOPE   HN2 7724   0.640   1.252   2.177
   84SOPE   HN3 7725   0.705   1.130   2.280
   84SOPE   C12 7726   0.500   1.108   2.263
   84SOPE  H12A 7727   0.431   1.079   2.181
   84SOPE  H12B 7728   0.469   1.193   2.327
   84SOPE   C11 7729   0.499   0.970   2.342
   84SOPE  H11A 7730   0.397   0.957   2.382
   84SOPE  H11B 7731   0.574   0.969   2.424
   84SOPE     P 7732   0.431   0.775   2.176
   84SOPE   O13 7733   0.495   0.644   2.160
   84SOPE   O14 7734   0.394   0.835   2.047
   84SOPE   O12 7735   0.534   0.860   2.255
   84SOPE   O11 7736   0.311   0.753   2.277
   84SOPE    C1 7737   0.334   0.698   2.402
   84SOPE    HA 7738   0.423   0.731   2.460
   84SOPE    HB 7739   0.333   0.587   2.394
   84SOPE    C2 7740   0.222   0.746   2.494
   84SOPE    HS 7741   0.129   0.743   2.434
   84SOPE   O21 7742   0.266   0.870   2.553
   84SOPE   C21 7743   0.176   0.961   2.579
   84SOPE   O22 7744   0.060   0.953   2.545
   84SOPE   C22 7745   0.230   1.068   2.664
   84SOPE   H2R 7746   0.264   1.149   2.596
   84SOPE   H2S 7747   0.315   1.027   2.722
   84SOPE    C3 7748   0.197   0.636   2.599
   84SOPE    HX 7749   0.300   0.629   2.640
   84SOPE    HY 7750   0.165   0.544   2.546
   84SOPE   O31 7751   0.107   0.685   2.699
   84SOPE   C31 7752   6.756   0.647   2.677
   84SOPE   O32 7753   6.713   0.588   2.581
   84SOPE   C32 7754   6.662   0.693   2.789
   84SOPE   H2X 7755   6.602   0.779   2.753
   84SOPE   H2Y 7756   6.713   0.734   2.878
   84SOPE   C23 7757   0.135   1.145   2.754
   84SOPE   H3R 7758   0.068   1.222   2.709
   84SOPE   H3S 7759   0.203   1.205   2.818
   84SOPE   C24 7760   0.065   1.051   2.850
   84SOPE   H4R 7761   0.015   1.119   2.922
   84SOPE   H4S 7762   6.767   0.986   2.799
   84SOPE   C25 7763   0.163   0.966   2.938
   84SOPE   H5R 7764   0.162   0.867   2.887
   84SOPE   H5S 7765   0.265   1.011   2.934
   84SOPE   C26 7766   0.114   0.942   3.086
   84SOPE   H6R 7767   0.004   0.927   3.094
   84SOPE   H6S 7768   0.173   0.859   3.129
   84SOPE   C27 7769   0.160   1.055   3.187
   84SOPE   H7R 7770   0.269   1.073   3.174
   84SOPE   H7S 7771   0.124   1.149   3.141
   84SOPE   C28 7772   0.136   1.033   3.334
   84SOPE   H8R 7773   0.199   0.946   3.360
   84SOPE   H8S 7774   0.187   1.115   3.388
   84SOPE   C29 7775   6.773   1.019   3.381
   84SOPE   H91 7776   6.710   1.109   3.376
   84SOPE  C210 7777   6.713   0.898   3.418
   84SOPE  H101 7778   6.605   0.895   3.438
   84SOPE  C211 7779   0.003   0.764   3.419
   84SOPE  H11R 7780   0.098   0.765   3.362
   84SOPE  H11S 7781   6.715   0.687   3.373
   84SOPE  C212 7782   0.037   0.707   3.561
   84SOPE  H12R 7783   0.103   0.778   3.614
   84SOPE  H12S 7784   0.097   0.613   3.566
   84SOPE  C213 7785   6.695   0.682   3.650
   84SOPE  H13R 7786   6.618   0.611   3.613
   84SOPE  H13S 7787   6.637   0.776   3.656
   84SOPE  C214 7788   6.723   0.653   3.790
   84SOPE  H14R 7789   6.628   0.669   3.846
   84SOPE  H14S 7790   0.030   0.715   3.829
   84SOPE  C215 7791   6.747   0.509   3.813
   84SOPE  H15R 7792   0.059   0.470   3.758
   84SOPE  H15S 7793   6.665   0.451   3.767
   84SOPE  C216 7794   6.757   0.475   3.971
   84SOPE  H16R 7795   6.660   0.504   4.017
   84SOPE  H16S 7796   0.065   0.531   4.017
   84SOPE  C217 7797   6.766   0.324   3.989
   84SOPE  H17R 7798   6.692   0.278   3.920
   84SOPE  H17S 7799   6.728   0.301   4.091
   84SOPE  C218 7800   0.130   0.267   3.959
   84SOPE  H18R 7801   0.118   0.161   3.988
   84SOPE  H18S 7802   0.198   0.332   4.018
   84SOPE  H18T 7803   0.172   0.278   3.857
   84SOPE   C33 7804   6.559   0.583   2.831
   84SOPE   H3X 7805   6.599   0.493   2.882
   84SOPE   H3Y 7806   6.510   0.548   2.737
   84SOPE   C34 7807   6.447   0.640   2.920
   84SOPE   H4X 7808   6.398   0.732   2.880
   84SOPE   H4Y 7809   6.497   0.681   3.010
   84SOPE   C35 7810   6.334   0.543   2.952
   84SOPE   H5X 7811   6.382   0.449   2.988
   84SOPE   H5Y 7812   6.266   0.518   2.868
   84SOPE   C36 7813   6.244   0.615   3.057
   84SOPE   H6X 7814   6.143   0.568   3.050
   84SOPE   H6Y 7815   6.238   0.723   3.033
   84SOPE   C37 7816   6.301   0.593   3.198
   84SOPE   H7X 7817   6.377   0.672   3.216
   84SOPE   H7Y 7818   6.351   0.494   3.208
   84SOPE   C38 7819   6.203   0.589   3.314
   84SOPE   H8X 7820   6.129   0.507   3.302
   84SOPE   H8Y 7821   6.141   0.681   3.304
   84SOPE   C39 7822   6.268   0.566   3.449
   84SOPE   H9X 7823   6.338   0.647   3.480
   84SOPE   H9Y 7824   6.329   0.475   3.437
   84SOPE  C310 7825   6.154   0.558   3.554
   84SOPE  H10X 7826   6.064   0.501   3.522
   84SOPE  H10Y 7827   6.132   0.666   3.560
   84SOPE  C311 7828   6.193   0.495   3.691
   84SOPE  H11X 7829   6.301   0.503   3.717
   84SOPE  H11Y 7830   6.180   0.386   3.679
   84SOPE  C312 7831   6.102   0.533   3.806
   84SOPE  H12X 7832   5.994   0.524   3.785
   84SOPE  H12Y 7833   6.118   0.637   3.841
   84SOPE  C313 7834   6.129   0.455   3.935
   84SOPE  H13X 7835   6.104   0.347   3.926
   84SOPE  H13Y 7836   6.069   0.505   4.013
   84SOPE  C314 7837   6.273   0.457   3.993
   84SOPE  H14X 7838   6.322   0.552   3.964
   84SOPE  H14Y 7839   6.326   0.377   3.935
   84SOPE  C315 7840   6.282   0.454   4.147
   84SOPE  H15X 7841   6.197   0.423   4.212
   84SOPE  H15Y 7842   6.293   0.560   4.181
   84SOPE  C316 7843   6.399   0.372   4.202
   84SOPE  H16X 7844   6.484   0.364   4.130
   84SOPE  H16Y 7845   6.363   0.267   4.203
   84SOPE  C317 7846   6.446   0.416   4.344
   84SOPE  H17X 7847   6.357   0.412   4.411
   84SOPE  H17Y 7848   6.477   0.522   4.337
   84SOPE  C318 7849   6.550   0.319   4.395
   84SOPE  H18X 7850   6.585   0.326   4.501
   84SOPE  H18Y 7851   6.635   0.332   4.324
   84SOPE  H18Z 7852   6.513   0.214   4.389
   85SOPE     N 7853   4.899   3.955   2.017
   85SOPE   HN1 7854   4.973   3.883   2.033
   85SOPE   HN2 7855   4.835   3.924   1.941
   85SOPE   HN3 7856   4.938   4.050   2.004
   85SOPE   C12 7857   4.816   3.961   2.145
   85SOPE  H12A 7858   4.774   3.859   2.159
   85SOPE  H12B 7859   4.733   4.034   2.134
   85SOPE   C11 7860   4.913   3.994   2.264
   85SOPE  H11A 7861   4.978   3.908   2.290
   85SOPE  H11B 7862   4.850   4.008   2.353
   85SOPE     P 7863   5.106   4.154   2.315
   85SOPE   O13 7864   5.171   4.280   2.271
   85SOPE   O14 7865   5.189   4.030   2.346
   85SOPE   O12 7866   4.989   4.114   2.222
   85SOPE   O11 7867   5.036   4.180   2.457
   85SOPE    C1 7868   4.941   4.283   2.463
   85SOPE    HA 7869   4.847   4.248   2.416
   85SOPE    HB 7870   4.975   4.375   2.410
   85SOPE    C2 7871   4.907   4.322   2.612
   85SOPE    HS 7872   4.821   4.393   2.615
   85SOPE   O21 7873   5.023   4.380   2.677
   85SOPE   C21 7874   5.054   4.501   2.640
   85SOPE   O22 7875   4.975   4.591   2.605
   85SOPE   C22 7876   5.199   4.534   2.662
   85SOPE   H2R 7877   5.207   4.638   2.624
   85SOPE   H2S 7878   5.262   4.467   2.599
   85SOPE    C3 7879   4.862   4.204   2.707
   85SOPE    HX 7880   4.932   4.121   2.685
   85SOPE    HY 7881   4.763   4.175   2.664
   85SOPE   O31 7882   4.838   4.244   2.844
   85SOPE   C31 7883   4.943   4.225   2.927
   85SOPE   O32 7884   5.048   4.175   2.898
   85SOPE   C32 7885   4.921   4.286   3.064
   85SOPE   H2X 7886   4.813   4.283   3.087
   85SOPE   H2Y 7887   4.950   4.393   3.067
   85SOPE   C23 7888   5.238   4.543   2.805
   85SOPE   H3R 7889   5.214   4.451   2.862
   85SOPE   H3S 7890   5.178   4.625   2.850
   85SOPE   C24 7891   5.388   4.565   2.813
   85SOPE   H4R 7892   5.442   4.491   2.750
   85SOPE   H4S 7893   5.399   4.665   2.768
   85SOPE   C25 7894   5.443   4.573   2.951
   85SOPE   H5R 7895   5.549   4.600   2.971
   85SOPE   H5S 7896   5.393   4.656   3.004
   85SOPE   C26 7897   5.421   4.447   3.038
   85SOPE   H6R 7898   5.317   4.441   3.076
   85SOPE   H6S 7899   5.424   4.356   2.975
   85SOPE   C27 7900   5.510   4.425   3.164
   85SOPE   H7R 7901   5.487   4.328   3.213
   85SOPE   H7S 7902   5.614   4.425   3.124
   85SOPE   C28 7903   5.510   4.538   3.260
   85SOPE   H8R 7904   5.570   4.510   3.349
   85SOPE   H8S 7905   5.571   4.617   3.210
   85SOPE   C29 7906   5.372   4.589   3.291
   85SOPE   H91 7907   5.319   4.642   3.210
   85SOPE  C210 7908   5.313   4.569   3.413
   85SOPE  H101 7909   5.219   4.621   3.438
   85SOPE  C211 7910   5.379   4.491   3.522
   85SOPE  H11R 7911   5.451   4.415   3.484
   85SOPE  H11S 7912   5.297   4.442   3.580
   85SOPE  C212 7913   5.436   4.587   3.639
   85SOPE  H12R 7914   5.358   4.658   3.671
   85SOPE  H12S 7915   5.523   4.636   3.591
   85SOPE  C213 7916   5.487   4.516   3.762
   85SOPE  H13R 7917   5.591   4.476   3.756
   85SOPE  H13S 7918   5.413   4.435   3.779
   85SOPE  C214 7919   5.485   4.606   3.890
   85SOPE  H14R 7920   5.377   4.620   3.913
   85SOPE  H14S 7921   5.531   4.706   3.874
   85SOPE  C215 7922   5.568   4.546   4.008
   85SOPE  H15R 7923   5.670   4.541   3.964
   85SOPE  H15S 7924   5.532   4.443   4.027
   85SOPE  C216 7925   5.551   4.634   4.135
   85SOPE  H16R 7926   5.444   4.636   4.163
   85SOPE  H16S 7927   5.576   4.741   4.119
   85SOPE  C217 7928   5.636   4.586   4.256
   85SOPE  H17R 7929   5.626   4.475   4.252
   85SOPE  H17S 7930   5.584   4.616   4.349
   85SOPE  C218 7931   5.780   4.641   4.245
   85SOPE  H18R 7932   5.839   4.590   4.324
   85SOPE  H18S 7933   5.774   4.748   4.273
   85SOPE  H18T 7934   5.828   4.624   4.146
   85SOPE   C33 7935   5.007   4.223   3.175
   85SOPE   H3X 7936   5.111   4.256   3.154
   85SOPE   H3Y 7937   5.003   4.113   3.164
   85SOPE   C34 7938   4.948   4.263   3.315
   85SOPE   H4X 7939   4.855   4.206   3.339
   85SOPE   H4Y 7940   4.924   4.371   3.307
   85SOPE   C35 7941   5.059   4.253   3.422
   85SOPE   H5X 7942   5.139   4.318   3.379
   85SOPE   H5Y 7943   5.088   4.147   3.413
   85SOPE   C36 7944   5.028   4.310   3.558
   85SOPE   H6X 7945   4.940   4.378   3.556
   85SOPE   H6Y 7946   5.119   4.360   3.598
   85SOPE   C37 7947   4.989   4.203   3.667
   85SOPE   H7X 7948   5.069   4.145   3.719
   85SOPE   H7Y 7949   4.932   4.121   3.619
   85SOPE   C38 7950   4.903   4.256   3.782
   85SOPE   H8X 7951   4.901   4.175   3.857
   85SOPE   H8Y 7952   4.798   4.284   3.756
   85SOPE   C39 7953   4.971   4.375   3.859
   85SOPE   H9X 7954   4.885   4.420   3.914
   85SOPE   H9Y 7955   5.003   4.454   3.789
   85SOPE  C310 7956   5.079   4.336   3.962
   85SOPE  H10X 7957   5.168   4.283   3.923
   85SOPE  H10Y 7958   5.024   4.274   4.035
   85SOPE  C311 7959   5.127   4.452   4.052
   85SOPE  H11X 7960   5.032   4.507   4.066
   85SOPE  H11Y 7961   5.201   4.522   4.008
   85SOPE  C312 7962   5.185   4.408   4.188
   85SOPE  H12X 7963   5.289   4.373   4.169
   85SOPE  H12Y 7964   5.125   4.329   4.238
   85SOPE  C313 7965   5.197   4.534   4.277
   85SOPE  H13X 7966   5.090   4.562   4.287
   85SOPE  H13Y 7967   5.241   4.618   4.220
   85SOPE  C314 7968   5.263   4.503   4.413
   85SOPE  H14X 7969   5.373   4.502   4.402
   85SOPE  H14Y 7970   5.254   4.396   4.444
   85SOPE  C315 7971   5.217   4.587   4.528
   85SOPE  H15X 7972   5.280   4.564   4.616
   85SOPE  H15Y 7973   5.114   4.555   4.555
   85SOPE  C316 7974   5.244   4.734   4.504
   85SOPE  H16X 7975   5.210   4.751   4.400
   85SOPE  H16Y 7976   5.353   4.753   4.513
   85SOPE  C317 7977   5.170   4.832   4.592
   85SOPE  H17X 7978   5.061   4.819   4.579
   85SOPE  H17Y 7979   5.199   4.937   4.569
   85SOPE  C318 7980   5.199   4.818   4.739
   85SOPE  H18X 7981   5.130   4.883   4.796
   85SOPE  H18Y 7982   5.305   4.845   4.757
   85SOPE  H18Z 7983   5.177   4.716   4.777
   86SOPE     N 7984   4.594   1.573   2.673
   86SOPE   HN1 7985   4.563   1.492   2.729
   86SOPE   HN2 7986   4.510   1.636   2.671
   86SOPE   HN3 7987   4.613   1.551   2.573
   86SOPE   C12 7988   4.711   1.650   2.726
   86SOPE  H12A 7989   4.671   1.685   2.824
   86SOPE  H12B 7990   4.739   1.732   2.657
   86SOPE   C11 7991   4.826   1.558   2.745
   86SOPE  H11A 7992   4.809   1.481   2.824
   86SOPE  H11B 7993   4.910   1.619   2.784
   86SOPE     P 7994   4.946   1.548   2.520
   86SOPE   O13 7995   4.955   1.691   2.540
   86SOPE   O14 7996   4.896   1.512   2.383
   86SOPE   O12 7997   4.853   1.481   2.626
   86SOPE   O11 7998   5.089   1.481   2.537
   86SOPE    C1 7999   5.113   1.346   2.547
   86SOPE    HA 8000   5.216   1.318   2.515
   86SOPE    HB 8001   5.039   1.285   2.492
   86SOPE    C2 8002   5.130   1.306   2.697
   86SOPE    HS 8003   5.026   1.317   2.736
   86SOPE   O21 8004   5.225   1.383   2.774
   86SOPE   C21 8005   5.183   1.461   2.872
   86SOPE   O22 8006   5.073   1.468   2.921
   86SOPE   C22 8007   5.302   1.551   2.916
   86SOPE   H2R 8008   5.270   1.653   2.886
   86SOPE   H2S 8009   5.393   1.516   2.864
   86SOPE    C3 8010   5.178   1.159   2.719
   86SOPE    HX 8011   5.286   1.155   2.693
   86SOPE    HY 8012   5.133   1.090   2.644
   86SOPE   O31 8013   5.170   1.113   2.854
   86SOPE   C31 8014   5.051   1.082   2.899
   86SOPE   O32 8015   4.949   1.084   2.831
   86SOPE   C32 8016   5.050   1.074   3.056
   86SOPE   H2X 8017   4.985   1.160   3.081
   86SOPE   H2Y 8018   5.153   1.090   3.096
   86SOPE   C23 8019   5.323   1.546   3.070
   86SOPE   H3R 8020   5.419   1.594   3.099
   86SOPE   H3S 8021   5.339   1.450   3.123
   86SOPE   C24 8022   5.208   1.605   3.144
   86SOPE   H4R 8023   5.179   1.700   3.095
   86SOPE   H4S 8024   5.122   1.535   3.161
   86SOPE   C25 8025   5.253   1.658   3.284
   86SOPE   H5R 8026   5.339   1.728   3.269
   86SOPE   H5S 8027   5.184   1.728   3.337
   86SOPE   C26 8028   5.276   1.545   3.391
   86SOPE   H6R 8029   5.178   1.500   3.420
   86SOPE   H6S 8030   5.342   1.463   3.357
   86SOPE   C27 8031   5.342   1.610   3.520
   86SOPE   H7R 8032   5.435   1.658   3.482
   86SOPE   H7S 8033   5.274   1.695   3.545
   86SOPE   C28 8034   5.370   1.509   3.634
   86SOPE   H8R 8035   5.298   1.425   3.638
   86SOPE   H8S 8036   5.463   1.453   3.612
   86SOPE   C29 8037   5.378   1.591   3.763
   86SOPE   H91 8038   5.456   1.668   3.772
   86SOPE  C210 8039   5.302   1.565   3.872
   86SOPE  H101 8040   5.330   1.618   3.964
   86SOPE  C211 8041   5.185   1.470   3.892
   86SOPE  H11R 8042   5.166   1.430   3.994
   86SOPE  H11S 8043   5.207   1.375   3.838
   86SOPE  C212 8044   5.054   1.511   3.822
   86SOPE  H12R 8045   4.981   1.429   3.834
   86SOPE  H12S 8046   5.065   1.533   3.713
   86SOPE  C213 8047   4.991   1.640   3.886
   86SOPE  H13R 8048   4.888   1.653   3.847
   86SOPE  H13S 8049   5.050   1.731   3.861
   86SOPE  C214 8050   4.988   1.623   4.041
   86SOPE  H14R 8051   5.094   1.614   4.072
   86SOPE  H14S 8052   4.929   1.531   4.062
   86SOPE  C215 8053   4.928   1.739   4.122
   86SOPE  H15R 8054   4.818   1.724   4.132
   86SOPE  H15S 8055   4.946   1.828   4.058
   86SOPE  C216 8056   4.984   1.759   4.261
   86SOPE  H16R 8057   4.933   1.850   4.302
   86SOPE  H16S 8058   5.090   1.788   4.248
   86SOPE  C217 8059   4.956   1.645   4.353
   86SOPE  H17R 8060   5.014   1.555   4.323
   86SOPE  H17S 8061   4.850   1.612   4.349
   86SOPE  C218 8062   4.980   1.686   4.496
   86SOPE  H18R 8063   4.901   1.750   4.541
   86SOPE  H18S 8064   5.079   1.735   4.504
   86SOPE  H18T 8065   4.976   1.599   4.565
   86SOPE   C33 8066   5.014   0.934   3.106
   86SOPE   H3X 8067   5.070   0.855   3.052
   86SOPE   H3Y 8068   4.904   0.923   3.100
   86SOPE   C34 8069   5.045   0.902   3.255
   86SOPE   H4X 8070   5.154   0.917   3.270
   86SOPE   H4Y 8071   5.030   0.794   3.277
   86SOPE   C35 8072   4.962   0.977   3.359
   86SOPE   H5X 8073   4.854   0.961   3.341
   86SOPE   H5Y 8074   4.988   1.085   3.356
   86SOPE   C36 8075   4.989   0.927   3.493
   86SOPE   H6X 8076   5.097   0.937   3.515
   86SOPE   H6Y 8077   4.951   0.825   3.514
   86SOPE   C37 8078   4.920   1.021   3.596
   86SOPE   H7X 8079   4.810   1.007   3.591
   86SOPE   H7Y 8080   4.938   1.130   3.585
   86SOPE   C38 8081   4.952   0.970   3.740
   86SOPE   H8X 8082   5.046   0.911   3.733
   86SOPE   H8Y 8083   4.883   0.888   3.768
   86SOPE   C39 8084   4.963   1.086   3.842
   86SOPE   H9X 8085   4.868   1.143   3.842
   86SOPE   H9Y 8086   5.044   1.147   3.798
   86SOPE  C310 8087   4.989   1.040   3.986
   86SOPE  H10X 8088   5.011   1.136   4.037
   86SOPE  H10Y 8089   5.082   0.980   3.984
   86SOPE  C311 8090   4.878   0.970   4.062
   86SOPE  H11X 8091   4.855   0.869   4.021
   86SOPE  H11Y 8092   4.792   1.037   4.045
   86SOPE  C312 8093   4.886   0.962   4.219
   86SOPE  H12X 8094   4.935   1.055   4.255
   86SOPE  H12Y 8095   4.956   0.881   4.249
   86SOPE  C313 8096   4.749   0.965   4.290
   86SOPE  H13X 8097   4.688   0.877   4.261
   86SOPE  H13Y 8098   4.694   1.057   4.259
   86SOPE  C314 8099   4.761   0.962   4.447
   86SOPE  H14X 8100   4.662   0.970   4.496
   86SOPE  H14Y 8101   4.837   1.037   4.478
   86SOPE  C315 8102   4.806   0.818   4.509
   86SOPE  H15X 8103   4.913   0.793   4.492
   86SOPE  H15Y 8104   4.741   0.737   4.470
   86SOPE  C316 8105   4.781   0.819   4.667
   86SOPE  H16X 8106   4.686   0.867   4.698
   86SOPE  H16Y 8107   4.858   0.882   4.716
   86SOPE  C317 8108   4.782   0.674   4.728
   86SOPE  H17X 8109   4.887   0.646   4.707
   86SOPE  H17Y 8110   4.709   0.630   4.657
   86SOPE  C318 8111   4.770   0.660   4.877
   86SOPE  H18X 8112   4.813   0.754   4.917
   86SOPE  H18Y 8113   4.817   0.567   4.917
   86SOPE  H18Z 8114   4.662   0.663   4.900
   87SOPE     N 8115   6.748   0.698   2.100
   87SOPE   HN1 8116   6.666   0.677   2.040
   87SOPE   HN2 8117   0.055   0.643   2.072
   87SOPE   HN3 8118   6.717   0.660   2.192
   87SOPE   C12 8119   6.764   0.849   2.081
   87SOPE  H12A 8120   6.774   0.867   1.971
   87SOPE  H12B 8121   0.070   0.896   2.136
   87SOPE   C11 8122   6.634   0.928   2.113
   87SOPE  H11A 8123   6.660   1.032   2.087
   87SOPE  H11B 8124   6.607   0.921   2.221
   87SOPE     P 8125   6.386   0.942   2.041
   87SOPE   O13 8126   6.286   0.845   1.990
   87SOPE   O14 8127   6.393   1.073   1.974
   87SOPE   O12 8128   6.532   0.878   2.019
   87SOPE   O11 8129   6.378   0.972   2.197
   87SOPE    C1 8130   6.360   0.856   2.270
   87SOPE    HA 8131   6.407   0.874   2.369
   87SOPE    HB 8132   6.415   0.764   2.241
   87SOPE    C2 8133   6.208   0.832   2.290
   87SOPE    HS 8134   6.160   0.858   2.194
   87SOPE   O21 8135   6.166   0.920   2.397
   87SOPE   C21 8136   6.034   0.924   2.420
   87SOPE   O22 8137   5.946   0.870   2.355
   87SOPE   C22 8138   6.005   1.022   2.533
   87SOPE   H2R 8139   5.905   0.991   2.571
   87SOPE   H2S 8140   5.989   1.121   2.485
   87SOPE    C3 8141   6.179   0.681   2.312
   87SOPE    HX 8142   6.233   0.641   2.224
   87SOPE    HY 8143   6.074   0.652   2.291
   87SOPE   O31 8144   6.229   0.623   2.439
   87SOPE   C31 8145   6.222   0.490   2.448
   87SOPE   O32 8146   6.199   0.412   2.357
   87SOPE   C32 8147   6.257   0.460   2.595
   87SOPE   H2X 8148   6.164   0.466   2.655
   87SOPE   H2Y 8149   6.332   0.533   2.633
   87SOPE   C23 8150   6.113   1.031   2.645
   87SOPE   H3R 8151   6.095   1.121   2.708
   87SOPE   H3S 8152   6.207   1.059   2.593
   87SOPE   C24 8153   6.139   0.898   2.718
   87SOPE   H4R 8154   6.158   0.825   2.636
   87SOPE   H4S 8155   6.230   0.906   2.780
   87SOPE   C25 8156   6.025   0.851   2.809
   87SOPE   H5R 8157   5.932   0.853   2.749
   87SOPE   H5S 8158   6.041   0.742   2.820
   87SOPE   C26 8159   6.008   0.935   2.935
   87SOPE   H6R 8160   6.110   0.940   2.978
   87SOPE   H6S 8161   5.980   1.040   2.911
   87SOPE   C27 8162   5.913   0.871   3.043
   87SOPE   H7R 8163   5.818   0.848   2.991
   87SOPE   H7S 8164   5.941   0.764   3.053
   87SOPE   C28 8165   5.894   0.942   3.178
   87SOPE   H8R 8166   5.990   0.965   3.228
   87SOPE   H8S 8167   5.854   1.044   3.158
   87SOPE   C29 8168   5.790   0.865   3.254
   87SOPE   H91 8169   5.696   0.838   3.202
   87SOPE  C210 8170   5.792   0.816   3.386
   87SOPE  H101 8171   5.698   0.769   3.418
   87SOPE  C211 8172   5.877   0.879   3.490
   87SOPE  H11R 8173   5.911   0.977   3.451
   87SOPE  H11S 8174   5.965   0.811   3.500
   87SOPE  C212 8175   5.808   0.899   3.626
   87SOPE  H12R 8176   5.764   0.805   3.667
   87SOPE  H12S 8177   5.721   0.964   3.606
   87SOPE  C213 8178   5.899   0.963   3.729
   87SOPE  H13R 8179   6.003   0.927   3.712
   87SOPE  H13S 8180   5.853   0.951   3.830
   87SOPE  C214 8181   5.907   1.116   3.689
   87SOPE  H14R 8182   5.808   1.165   3.697
   87SOPE  H14S 8183   5.927   1.132   3.581
   87SOPE  C215 8184   6.011   1.183   3.782
   87SOPE  H15R 8185   6.110   1.132   3.779
   87SOPE  H15S 8186   5.967   1.186   3.884
   87SOPE  C216 8187   6.036   1.333   3.741
   87SOPE  H16R 8188   5.933   1.377   3.736
   87SOPE  H16S 8189   6.077   1.336   3.638
   87SOPE  C217 8190   6.114   1.412   3.840
   87SOPE  H17R 8191   6.048   1.425   3.928
   87SOPE  H17S 8192   6.147   1.512   3.804
   87SOPE  C218 8193   6.239   1.339   3.888
   87SOPE  H18R 8194   6.316   1.321   3.811
   87SOPE  H18S 8195   6.212   1.240   3.930
   87SOPE  H18T 8196   6.291   1.397   3.968
   87SOPE   C33 8197   6.297   0.310   2.603
   87SOPE   H3X 8198   6.378   0.279   2.533
   87SOPE   H3Y 8199   6.217   0.245   2.563
   87SOPE   C34 8200   6.335   0.252   2.739
   87SOPE   H4X 8201   6.413   0.315   2.784
   87SOPE   H4Y 8202   6.378   0.151   2.719
   87SOPE   C35 8203   6.210   0.231   2.832
   87SOPE   H5X 8204   6.135   0.175   2.773
   87SOPE   H5Y 8205   6.167   0.333   2.844
   87SOPE   C36 8206   6.239   0.178   2.971
   87SOPE   H6X 8207   6.319   0.228   3.030
   87SOPE   H6Y 8208   6.278   0.075   2.970
   87SOPE   C37 8209   6.119   0.181   3.071
   87SOPE   H7X 8210   6.042   0.108   3.038
   87SOPE   H7Y 8211   6.079   0.284   3.064
   87SOPE   C38 8212   6.147   0.143   3.210
   87SOPE   H8X 8213   6.234   0.205   3.238
   87SOPE   H8Y 8214   6.185   0.038   3.211
   87SOPE   C39 8215   6.027   0.162   3.299
   87SOPE   H9X 8216   5.929   0.123   3.263
   87SOPE   H9Y 8217   6.013   0.272   3.304
   87SOPE  C310 8218   6.052   0.099   3.440
   87SOPE  H10X 8219   6.153   0.132   3.475
   87SOPE  H10Y 8220   6.064   6.766   3.427
   87SOPE  C311 8221   5.953   0.134   3.544
   87SOPE  H11X 8222   5.879   0.051   3.538
   87SOPE  H11Y 8223   5.907   0.235   3.543
   87SOPE  C312 8224   6.023   0.112   3.678
   87SOPE  H12X 8225   6.100   0.191   3.689
   87SOPE  H12Y 8226   6.073   0.013   3.681
   87SOPE  C313 8227   5.931   0.125   3.804
   87SOPE  H13X 8228   5.833   0.075   3.783
   87SOPE  H13Y 8229   5.922   0.235   3.818
   87SOPE  C314 8230   5.999   0.072   3.926
   87SOPE  H14X 8231   6.099   0.113   3.951
   87SOPE  H14Y 8232   6.008   6.739   3.913
   87SOPE  C315 8233   5.919   0.097   4.053
   87SOPE  H15X 8234   5.817   0.060   4.031
   87SOPE  H15Y 8235   5.918   0.208   4.062
   87SOPE  C316 8236   5.965   0.040   4.182
   87SOPE  H16X 8237   6.075   0.053   4.181
   87SOPE  H16Y 8238   5.928   6.712   4.173
   87SOPE  C317 8239   5.897   0.101   4.310
   87SOPE  H17X 8240   5.788   0.101   4.292
   87SOPE  H17Y 8241   5.936   0.205   4.322
   87SOPE  C318 8242   5.930   0.014   4.434
   87SOPE  H18X 8243   5.904   6.685   4.409
   87SOPE  H18Y 8244   5.861   0.034   4.519
   87SOPE  H18Z 8245   6.029   0.026   4.482
   88SOPE     N 8246   2.194   6.274   2.444
   88SOPE   HN1 8247   2.248   6.232   2.523
   88SOPE   HN2 8248   2.100   6.230   2.442
   88SOPE   HN3 8249   2.240   6.242   2.356
   88SOPE   C12 8250   2.182   6.418   2.439
   88SOPE  H12A 8251   2.280   6.462   2.410
   88SOPE  H12B 8252   2.161   6.453   2.543
   88SOPE   C11 8253   2.075   6.467   2.341
   88SOPE  H11A 8254   2.110   6.468   2.235
   88SOPE  H11B 8255   2.039   6.564   2.380
   88SOPE     P 8256   1.831   6.403   2.272
   88SOPE   O13 8257   1.749   6.281   2.257
   88SOPE   O14 8258   1.851   6.493   2.155
   88SOPE   O12 8259   1.959   6.384   2.350
   88SOPE   O11 8260   1.741   6.487   2.379
   88SOPE    C1 8261   1.749   6.473   2.521
   88SOPE    HA 8262   1.700   6.559   2.573
   88SOPE    HB 8263   1.853   6.464   2.557
   88SOPE    C2 8264   1.656   6.359   2.578
   88SOPE    HS 8265   1.579   6.339   2.500
   88SOPE   O21 8266   1.595   6.411   2.697
   88SOPE   C21 8267   1.490   6.344   2.732
   88SOPE   O22 8268   1.439   6.255   2.665
   88SOPE   C22 8269   1.432   6.419   2.845
   88SOPE   H2R 8270   1.447   6.529   2.843
   88SOPE   H2S 8271   1.493   6.380   2.928
   88SOPE    C3 8272   1.747   6.236   2.609
   88SOPE    HX 8273   1.788   6.202   2.511
   88SOPE    HY 8274   1.681   6.152   2.641
   88SOPE   O31 8275   1.848   6.276   2.702
   88SOPE   C31 8276   1.815   6.259   2.832
   88SOPE   O32 8277   1.715   6.211   2.876
   88SOPE   C32 8278   1.913   6.329   2.922
   88SOPE   H2X 8279   2.011   6.300   2.879
   88SOPE   H2Y 8280   1.902   6.290   3.025
   88SOPE   C23 8281   1.287   6.382   2.869
   88SOPE   H3R 8282   1.275   6.276   2.898
   88SOPE   H3S 8283   1.245   6.412   2.771
   88SOPE   C24 8284   1.234   6.459   2.993
   88SOPE   H4R 8285   1.286   6.432   3.087
   88SOPE   H4S 8286   1.263   6.565   2.978
   88SOPE   C25 8287   1.088   6.447   3.005
   88SOPE   H5R 8288   1.026   6.494   2.925
   88SOPE   H5S 8289   1.061   6.340   3.006
   88SOPE   C26 8290   1.041   6.503   3.140
   88SOPE   H6R 8291   1.122   6.465   3.206
   88SOPE   H6S 8292   1.038   6.614   3.127
   88SOPE   C27 8293   0.907   6.443   3.182
   88SOPE   H7R 8294   0.824   6.464   3.112
   88SOPE   H7S 8295   0.915   6.332   3.177
   88SOPE   C28 8296   0.846   6.490   3.314
   88SOPE   H8R 8297   0.837   6.600   3.322
   88SOPE   H8S 8298   0.738   6.466   3.304
   88SOPE   C29 8299   0.913   6.438   3.435
   88SOPE   H91 8300   1.019   6.409   3.436
   88SOPE  C210 8301   0.851   6.396   3.547
   88SOPE  H101 8302   0.909   6.338   3.621
   88SOPE  C211 8303   0.701   6.397   3.576
   88SOPE  H11R 8304   0.678   6.318   3.651
   88SOPE  H11S 8305   0.654   6.367   3.480
   88SOPE  C212 8306   0.651   6.541   3.607
   88SOPE  H12R 8307   0.694   6.600   3.524
   88SOPE  H12S 8308   0.678   6.573   3.710
   88SOPE  C213 8309   0.498   6.578   3.593
   88SOPE  H13R 8310   0.429   6.496   3.621
   88SOPE  H13S 8311   0.485   6.583   3.482
   88SOPE  C214 8312   0.463   6.707   3.669
   88SOPE  H14R 8313   0.552   6.772   3.681
   88SOPE  H14S 8314   0.426   6.676   3.769
   88SOPE  C215 8315   0.339   0.008   3.601
   88SOPE  H15R 8316   0.304   0.101   3.650
   88SOPE  H15S 8317   0.257   6.715   3.626
   88SOPE  C216 8318   0.349   0.024   3.449
   88SOPE  H16R 8319   0.352   6.700   3.402
   88SOPE  H16S 8320   0.441   0.081   3.424
   88SOPE  C217 8321   0.217   0.086   3.408
   88SOPE  H17R 8322   0.226   0.095   3.297
   88SOPE  H17S 8323   0.209   0.187   3.454
   88SOPE  C218 8324   0.097   6.765   3.438
   88SOPE  H18R 8325   0.046   0.007   3.535
   88SOPE  H18S 8326   0.132   6.661   3.420
   88SOPE  H18T 8327   0.027   0.008   3.354
   88SOPE   C33 8328   1.892   6.482   2.923
   88SOPE   H3X 8329   1.884   6.530   2.823
   88SOPE   H3Y 8330   1.979   6.519   2.981
   88SOPE   C34 8331   1.768   6.536   3.000
   88SOPE   H4X 8332   1.676   6.489   2.958
   88SOPE   H4Y 8333   1.760   6.646   2.984
   88SOPE   C35 8334   1.758   6.500   3.150
   88SOPE   H5X 8335   1.833   6.541   3.221
   88SOPE   H5Y 8336   1.781   6.394   3.172
   88SOPE   C36 8337   1.613   6.494   3.211
   88SOPE   H6X 8338   1.565   6.407   3.162
   88SOPE   H6Y 8339   1.571   6.595   3.194
   88SOPE   C37 8340   1.614   6.480   3.361
   88SOPE   H7X 8341   1.681   6.557   3.406
   88SOPE   H7Y 8342   1.649   6.379   3.392
   88SOPE   C38 8343   1.484   6.495   3.438
   88SOPE   H8X 8344   1.442   6.594   3.408
   88SOPE   H8Y 8345   1.510   6.487   3.546
   88SOPE   C39 8346   1.387   6.372   3.409
   88SOPE   H9X 8347   1.400   6.359   3.300
   88SOPE   H9Y 8348   1.284   6.407   3.433
   88SOPE  C310 8349   1.428   6.245   3.487
   88SOPE  H10X 8350   1.537   6.237   3.468
   88SOPE  H10Y 8351   1.386   6.164   3.423
   88SOPE  C311 8352   1.386   6.244   3.631
   88SOPE  H11X 8353   1.281   6.273   3.653
   88SOPE  H11Y 8354   1.451   6.322   3.676
   88SOPE  C312 8355   1.411   6.101   3.688
   88SOPE  H12X 8356   1.518   6.075   3.671
   88SOPE  H12Y 8357   1.348   6.029   3.633
   88SOPE  C313 8358   1.378   6.090   3.835
   88SOPE  H13X 8359   1.415   5.994   3.876
   88SOPE  H13Y 8360   1.267   6.093   3.839
   88SOPE  C314 8361   1.441   6.200   3.919
   88SOPE  H14X 8362   1.400   6.299   3.888
   88SOPE  H14Y 8363   1.551   6.211   3.905
   88SOPE  C315 8364   1.404   6.180   4.065
   88SOPE  H15X 8365   1.294   6.184   4.080
   88SOPE  H15Y 8366   1.439   6.274   4.112
   88SOPE  C316 8367   1.479   6.056   4.133
   88SOPE  H16X 8368   1.587   6.063   4.108
   88SOPE  H16Y 8369   1.436   5.969   4.080
   88SOPE  C317 8370   1.451   6.035   4.280
   88SOPE  H17X 8371   1.517   5.957   4.325
   88SOPE  H17Y 8372   1.346   5.998   4.275
   88SOPE  C318 8373   1.464   6.162   4.367
   88SOPE  H18X 8374   1.391   6.236   4.328
   88SOPE  H18Y 8375   1.566   6.205   4.368
   88SOPE  H18Z 8376   1.427   6.146   4.471
   89SAPC     N 8377   4.727   3.485   7.109
   89SAPC   C12 8378   4.771   3.449   6.966
   89SAPC  H12A 8379   4.874   3.418   6.968
   89SAPC  H12B 8380   4.758   3.543   6.914
   89SAPC   C13 8381   4.829   3.581   7.173
   89SAPC  H13A 8382   4.926   3.533   7.174
   89SAPC  H13B 8383   4.838   3.667   7.108
   89SAPC  H13C 8384   4.802   3.603   7.275
   89SAPC   C14 8385   4.591   3.549   7.116
   89SAPC  H14A 8386   4.592   3.651   7.081
   89SAPC  H14B 8387   4.530   3.497   7.044
   89SAPC  H14C 8388   4.556   3.553   7.218
   89SAPC   C15 8389   4.737   3.361   7.195
   89SAPC  H15A 8390   4.839   3.327   7.206
   89SAPC  H15B 8391   4.698   3.377   7.294
   89SAPC  H15C 8392   4.679   3.291   7.135
   89SAPC   C11 8393   4.693   3.335   6.894
   89SAPC  H11A 8394   4.693   3.250   6.965
   89SAPC  H11B 8395   4.744   3.308   6.798
   89SAPC     P 8396   4.512   3.453   6.749
   89SAPC   O13 8397   4.371   3.427   6.734
   89SAPC   O14 8398   4.535   3.599   6.782
   89SAPC   O12 8399   4.558   3.373   6.876
   89SAPC   O11 8400   4.602   3.402   6.628
   89SAPC    C1 8401   4.651   3.491   6.529
   89SAPC    HA 8402   4.690   3.584   6.575
   89SAPC    HB 8403   4.738   3.448   6.474
   89SAPC    C2 8404   4.530   3.523   6.434
   89SAPC    HS 8405   4.440   3.560   6.489
   89SAPC   O21 8406   4.495   3.401   6.360
   89SAPC   C21 8407   4.373   3.380   6.337
   89SAPC   O22 8408   4.279   3.455   6.366
   89SAPC   C22 8409   4.353   3.251   6.263
   89SAPC   H2R 8410   4.436   3.178   6.275
   89SAPC   H2S 8411   4.275   3.192   6.315
   89SAPC    C3 8412   4.570   3.638   6.334
   89SAPC    HX 8413   4.664   3.603   6.286
   89SAPC    HY 8414   4.607   3.720   6.400
   89SAPC   O31 8415   4.465   3.668   6.239
   89SAPC   C31 8416   4.366   3.751   6.285
   89SAPC   O32 8417   4.372   3.819   6.391
   89SAPC   C32 8418   4.257   3.763   6.179
   89SAPC   H2X 8419   4.245   3.859   6.125
   89SAPC   H2Y 8420   4.161   3.756   6.234
   89SAPC   C23 8421   4.315   3.274   6.114
   89SAPC   H3R 8422   4.338   3.375   6.073
   89SAPC   H3S 8423   4.205   3.260   6.113
   89SAPC   C24 8424   4.401   3.174   6.030
   89SAPC   H4R 8425   4.361   3.167   5.927
   89SAPC   H4S 8426   4.387   3.080   6.088
   89SAPC   C25 8427   4.541   3.212   6.027
   89SAPC   H5R 8428   4.602   3.203   6.118
   89SAPC   C26 8429   4.614   3.273   5.928
   89SAPC   H6R 8430   4.719   3.301   5.945
   89SAPC   C27 8431   4.560   3.317   5.791
   89SAPC   H7R 8432   4.450   3.300   5.784
   89SAPC   H7S 8433   4.594   3.240   5.719
   89SAPC   C28 8434   4.577   3.467   5.769
   89SAPC   H8R 8435   4.561   3.532   5.856
   89SAPC   C29 8436   4.583   3.523   5.652
   89SAPC   H9R 8437   4.591   3.632   5.648
   89SAPC  C210 8438   4.586   3.453   5.516
   89SAPC  H10R 8439   4.571   3.344   5.535
   89SAPC  H10S 8440   4.684   3.469   5.468
   89SAPC  C211 8441   4.471   3.523   5.441
   89SAPC  H11R 8442   4.381   3.549   5.499
   89SAPC  C212 8443   4.499   3.578   5.318
   89SAPC  H12R 8444   4.415   3.634   5.276
   89SAPC  C213 8445   4.622   3.564   5.229
   89SAPC  H13R 8446   4.713   3.549   5.291
   89SAPC  H13S 8447   4.636   3.657   5.171
   89SAPC  C214 8448   4.599   3.442   5.138
   89SAPC  H14R 8449   4.598   3.348   5.195
   89SAPC  C215 8450   4.588   3.446   5.010
   89SAPC  H15R 8451   4.585   3.345   4.966
   89SAPC  C216 8452   4.594   3.564   4.915
   89SAPC  H16R 8453   4.697   3.587   4.881
   89SAPC  H16S 8454   4.551   3.650   4.970
   89SAPC  C217 8455   4.519   3.537   4.785
   89SAPC  H17R 8456   4.530   3.630   4.725
   89SAPC  H17S 8457   4.408   3.539   4.797
   89SAPC  C218 8458   4.570   3.422   4.709
   89SAPC  H18R 8459   4.585   3.326   4.762
   89SAPC  H18S 8460   4.675   3.445   4.681
   89SAPC  C219 8461   4.482   3.387   4.588
   89SAPC  H19R 8462   4.440   3.479   4.542
   89SAPC  H19S 8463   4.394   3.333   4.629
   89SAPC  C220 8464   4.554   3.323   4.481
   89SAPC  H20R 8465   4.648   3.370   4.445
   89SAPC  H20S 8466   4.494   3.335   4.388
   89SAPC  H20T 8467   4.570   3.214   4.495
   89SAPC   C33 8468   4.240   3.641   6.086
   89SAPC   H3X 8469   4.217   3.548   6.142
   89SAPC   H3Y 8470   4.337   3.624   6.034
   89SAPC   C34 8471   4.134   3.653   5.974
   89SAPC   H4X 8472   4.054   3.721   6.010
   89SAPC   H4Y 8473   4.103   3.547   5.966
   89SAPC   C35 8474   4.191   3.710   5.844
   89SAPC   H5X 8475   4.285   3.657   5.817
   89SAPC   H5Y 8476   4.225   3.814   5.863
   89SAPC   C36 8477   4.098   3.703   5.725
   89SAPC   H6X 8478   4.003   3.757   5.742
   89SAPC   H6Y 8479   4.073   3.596   5.708
   89SAPC   C37 8480   4.156   3.765   5.595
   89SAPC   H7X 8481   4.252   3.717   5.565
   89SAPC   H7Y 8482   4.172   3.870   5.627
   89SAPC   C38 8483   4.055   3.770   5.473
   89SAPC   H8X 8484   3.979   3.842   5.510
   89SAPC   H8Y 8485   4.002   3.673   5.479
   89SAPC   C39 8486   4.112   3.789   5.333
   89SAPC   H9X 8487   4.189   3.710   5.321
   89SAPC   H9Y 8488   4.169   3.885   5.329
   89SAPC  C310 8489   4.015   3.784   5.218
   89SAPC  H10X 8490   3.920   3.838   5.240
   89SAPC  H10Y 8491   3.993   3.676   5.218
   89SAPC  C311 8492   4.076   3.837   5.089
   89SAPC  H11X 8493   4.176   3.790   5.080
   89SAPC  H11Y 8494   4.082   3.947   5.095
   89SAPC  C312 8495   3.985   3.796   4.977
   89SAPC  H12X 8496   3.879   3.828   4.986
   89SAPC  H12Y 8497   3.986   3.685   4.982
   89SAPC  C313 8498   4.042   3.856   4.846
   89SAPC  H13X 8499   4.151   3.872   4.860
   89SAPC  H13Y 8500   3.994   3.950   4.811
   89SAPC  C314 8501   4.040   3.747   4.728
   89SAPC  H14X 8502   4.071   3.648   4.768
   89SAPC  H14Y 8503   4.118   3.773   4.653
   89SAPC  C315 8504   3.907   3.749   4.665
   89SAPC  H15X 8505   3.871   3.849   4.634
   89SAPC  H15Y 8506   3.829   3.717   4.738
   89SAPC  C316 8507   3.889   3.652   4.542
   89SAPC  H16X 8508   3.971   3.688   4.476
   89SAPC  H16Y 8509   3.788   3.672   4.499
   89SAPC  C317 8510   3.893   3.504   4.568
   89SAPC  H17X 8511   3.824   3.478   4.651
   89SAPC  H17Y 8512   3.993   3.462   4.594
   89SAPC  C318 8513   3.842   3.418   4.444
   89SAPC  H18X 8514   3.897   3.456   4.356
   89SAPC  H18Y 8515   3.734   3.434   4.423
   89SAPC  H18Z 8516   3.877   3.315   4.464
   90SAPC     N 8517   3.449   6.264   6.922
   90SAPC   C12 8518   3.343   6.162   6.960
   90SAPC  H12A 8519   3.255   6.194   7.013
   90SAPC  H12B 8520   3.384   6.087   7.026
   90SAPC   C13 8521   3.565   6.197   6.862
   90SAPC  H13A 8522   3.536   6.163   6.763
   90SAPC  H13B 8523   3.643   6.265   6.833
   90SAPC  H13C 8524   3.611   6.124   6.927
   90SAPC   C14 8525   3.386   6.361   6.829
   90SAPC  H14A 8526   3.303   6.410   6.878
   90SAPC  H14B 8527   3.453   6.441   6.799
   90SAPC  H14C 8528   3.326   6.315   6.752
   90SAPC   C15 8529   3.485   6.340   7.049
   90SAPC  H15A 8530   3.399   6.384   7.097
   90SAPC  H15B 8531   3.538   6.280   7.120
   90SAPC  H15C 8532   3.555   6.420   7.029
   90SAPC   C11 8533   3.273   6.090   6.841
   90SAPC  H11A 8534   3.226   6.000   6.888
   90SAPC  H11B 8535   3.344   6.052   6.764
   90SAPC     P 8536   3.029   6.190   6.827
   90SAPC   O13 8537   3.031   6.169   6.973
   90SAPC   O14 8538   2.965   6.316   6.766
   90SAPC   O12 8539   3.174   6.176   6.775
   90SAPC   O11 8540   2.951   6.067   6.770
   90SAPC    C1 8541   2.973   6.016   6.639
   90SAPC    HA 8542   3.077   6.033   6.604
   90SAPC    HB 8543   2.968   5.905   6.642
   90SAPC    C2 8544   2.874   6.061   6.530
   90SAPC    HS 8545   2.778   6.051   6.585
   90SAPC   O21 8546   2.881   5.965   6.424
   90SAPC   C21 8547   2.776   5.965   6.342
   90SAPC   O22 8548   2.665   6.003   6.369
   90SAPC   C22 8549   2.816   5.912   6.207
   90SAPC   H2R 8550   2.913   5.962   6.187
   90SAPC   H2S 8551   2.834   5.802   6.200
   90SAPC    C3 8552   2.904   6.204   6.467
   90SAPC    HX 8553   2.917   6.279   6.548
   90SAPC    HY 8554   2.825   6.231   6.394
   90SAPC   O31 8555   3.035   6.186   6.410
   90SAPC   C31 8556   3.046   6.199   6.279
   90SAPC   O32 8557   2.951   6.211   6.200
   90SAPC   C32 8558   3.192   6.184   6.225
   90SAPC   H2X 8559   3.229   6.084   6.254
   90SAPC   H2Y 8560   3.260   6.260   6.268
   90SAPC   C23 8561   2.707   5.946   6.101
   90SAPC   H3R 8562   2.684   6.054   6.104
   90SAPC   H3S 8563   2.612   5.898   6.132
   90SAPC   C24 8564   2.733   5.896   5.957
   90SAPC   H4R 8565   2.648   5.919   5.891
   90SAPC   H4S 8566   2.739   5.786   5.944
   90SAPC   C25 8567   2.866   5.948   5.910
   90SAPC   H5R 8568   2.913   6.027   5.972
   90SAPC   C26 8569   2.929   5.920   5.794
   90SAPC   H6R 8570   3.019   5.979   5.769
   90SAPC   C27 8571   2.895   5.813   5.690
   90SAPC   H7R 8572   2.851   5.724   5.741
   90SAPC   H7S 8573   2.987   5.771   5.644
   90SAPC   C28 8574   2.794   5.862   5.596
   90SAPC   H8R 8575   2.701   5.887   5.650
   90SAPC   C29 8576   2.793   5.851   5.463
   90SAPC   H9R 8577   2.712   5.886   5.398
   90SAPC  C210 8578   2.918   5.810   5.386
   90SAPC  H10R 8579   3.003   5.867   5.430
   90SAPC  H10S 8580   2.918   5.846   5.281
   90SAPC  C211 8581   2.926   5.660   5.392
   90SAPC  H11R 8582   2.832   5.605   5.409
   90SAPC  C212 8583   3.037   5.584   5.368
   90SAPC  H12R 8584   3.024   5.475   5.376
   90SAPC  C213 8585   3.182   5.631   5.361
   90SAPC  H13R 8586   3.189   5.734   5.402
   90SAPC  H13S 8587   3.209   5.635   5.253
   90SAPC  C214 8588   3.279   5.538   5.434
   90SAPC  H14R 8589   3.334   5.576   5.521
   90SAPC  C215 8590   3.338   5.423   5.386
   90SAPC  H15R 8591   3.414   5.372   5.447
   90SAPC  C216 8592   3.308   5.358   5.255
   90SAPC  H16R 8593   3.225   5.400   5.194
   90SAPC  H16S 8594   3.280   5.251   5.268
   90SAPC  C217 8595   3.425   5.369   5.157
   90SAPC  H17R 8596   3.412   5.281   5.091
   90SAPC  H17S 8597   3.521   5.368   5.213
   90SAPC  C218 8598   3.423   5.500   5.073
   90SAPC  H18R 8599   3.411   5.590   5.138
   90SAPC  H18S 8600   3.343   5.504   4.997
   90SAPC  C219 8601   3.542   5.529   4.986
   90SAPC  H19R 8602   3.563   5.436   4.929
   90SAPC  H19S 8603   3.628   5.550   5.053
   90SAPC  C220 8604   3.522   5.640   4.879
   90SAPC  H20R 8605   3.515   5.741   4.924
   90SAPC  H20S 8606   3.422   5.629   4.831
   90SAPC  H20T 8607   3.596   5.646   4.797
   90SAPC   C33 8608   3.193   6.207   6.070
   90SAPC   H3X 8609   3.112   6.151   6.018
   90SAPC   H3Y 8610   3.280   6.158   6.023
   90SAPC   C34 8611   3.190   6.351   6.025
   90SAPC   H4X 8612   3.278   6.406   6.066
   90SAPC   H4Y 8613   3.106   6.401   6.078
   90SAPC   C35 8614   3.184   6.365   5.872
   90SAPC   H5X 8615   3.110   6.291   5.836
   90SAPC   H5Y 8616   3.284   6.342   5.829
   90SAPC   C36 8617   3.153   6.503   5.829
   90SAPC   H6X 8618   3.213   6.585   5.874
   90SAPC   H6Y 8619   3.046   6.524   5.851
   90SAPC   C37 8620   3.166   6.523   5.677
   90SAPC   H7X 8621   3.099   6.599   5.631
   90SAPC   H7Y 8622   3.144   6.429   5.623
   90SAPC   C38 8623   3.306   6.573   5.642
   90SAPC   H8X 8624   3.374   6.492   5.677
   90SAPC   H8Y 8625   3.326   6.668   5.694
   90SAPC   C39 8626   3.320   6.586   5.493
   90SAPC   H9X 8627   3.265   6.669   5.443
   90SAPC   H9Y 8628   3.265   6.495   5.460
   90SAPC  C310 8629   3.462   6.594   5.448
   90SAPC  H10X 8630   3.531   6.525   5.503
   90SAPC  H10Y 8631   3.498   6.696   5.471
   90SAPC  C311 8632   3.469   6.581   5.300
   90SAPC  H11X 8633   3.571   6.620   5.281
   90SAPC  H11Y 8634   3.402   6.650   5.245
   90SAPC  C312 8635   3.464   6.442   5.240
   90SAPC  H12X 8636   3.363   6.403   5.214
   90SAPC  H12Y 8637   3.521   6.372   5.305
   90SAPC  C313 8638   3.513   6.444   5.094
   90SAPC  H13X 8639   3.611   6.489   5.067
   90SAPC  H13Y 8640   3.438   6.507   5.043
   90SAPC  C314 8641   3.521   6.296   5.032
   90SAPC  H14X 8642   3.429   6.239   5.057
   90SAPC  H14Y 8643   3.612   6.246   5.071
   90SAPC  C315 8644   3.546   6.300   4.882
   90SAPC  H15X 8645   3.648   6.345   4.876
   90SAPC  H15Y 8646   3.479   6.372   4.830
   90SAPC  C316 8647   3.526   6.160   4.825
   90SAPC  H16X 8648   3.416   6.142   4.825
   90SAPC  H16Y 8649   3.586   6.094   4.891
   90SAPC  C317 8650   3.578   6.143   4.681
   90SAPC  H17X 8651   3.685   6.170   4.666
   90SAPC  H17Y 8652   3.532   6.228   4.626
   90SAPC  C318 8653   3.539   6.005   4.632
   90SAPC  H18X 8654   3.557   5.987   4.524
   90SAPC  H18Y 8655   3.428   6.007   4.641
   90SAPC  H18Z 8656   3.577   5.927   4.701
   91SAPC     N 8657   6.261   6.275   6.722
   91SAPC   C12 8658   6.207   6.191   6.609
   91SAPC  H12A 8659   6.186   6.256   6.526
   91SAPC  H12B 8660   6.112   6.156   6.646
   91SAPC   C13 8661   6.392   6.333   6.696
   91SAPC  H13A 8662   6.391   6.379   6.598
   91SAPC  H13B 8663   6.424   6.398   6.776
   91SAPC  H13C 8664   6.456   6.247   6.688
   91SAPC   C14 8665   6.164   6.396   6.731
   91SAPC  H14A 8666   6.068   6.358   6.764
   91SAPC  H14B 8667   6.213   6.462   6.801
   91SAPC  H14C 8668   6.164   6.449   6.637
   91SAPC   C15 8669   6.257   6.192   6.848
   91SAPC  H15A 8670   6.333   6.116   6.838
   91SAPC  H15B 8671   6.264   6.249   6.939
   91SAPC  H15C 8672   6.161   6.142   6.850
   91SAPC   C11 8673   6.290   6.076   6.559
   91SAPC  H11A 8674   6.372   6.117   6.496
   91SAPC  H11B 8675   6.224   6.029   6.483
   91SAPC     P 8676   6.470   5.938   6.695
   91SAPC   O13 8677   6.551   6.060   6.725
   91SAPC   O14 8678   6.468   5.830   6.796
   91SAPC   O12 8679   6.320   5.978   6.664
   91SAPC   O11 8680   6.514   5.881   6.557
   91SAPC    C1 8681   6.439   5.796   6.477
   91SAPC    HA 8682   6.463   5.693   6.512
   91SAPC    HB 8683   6.331   5.796   6.503
   91SAPC    C2 8684   6.464   5.819   6.332
   91SAPC    HS 8685   6.574   5.809   6.324
   91SAPC   O21 8686   6.428   5.955   6.310
   91SAPC   C21 8687   6.486   6.018   6.204
   91SAPC   O22 8688   6.588   5.978   6.146
   91SAPC   C22 8689   6.384   6.131   6.160
   91SAPC   H2R 8690   6.282   6.087   6.155
   91SAPC   H2S 8691   6.381   6.199   6.248
   91SAPC    C3 8692   6.398   5.720   6.240
   91SAPC    HX 8693   6.289   5.733   6.255
   91SAPC    HY 8694   6.421   5.619   6.279
   91SAPC   O31 8695   6.442   5.716   6.100
   91SAPC   C31 8696   6.366   5.773   6.017
   91SAPC   O32 8697   6.268   5.836   6.049
   91SAPC   C32 8698   6.396   5.724   5.874
   91SAPC   H2X 8699   6.452   5.628   5.874
   91SAPC   H2Y 8700   6.459   5.800   5.823
   91SAPC   C23 8701   6.426   6.215   6.037
   91SAPC   H3R 8702   6.536   6.232   6.035
   91SAPC   H3S 8703   6.365   6.307   6.046
   91SAPC   C24 8704   6.378   6.156   5.899
   91SAPC   H4R 8705   6.269   6.137   5.907
   91SAPC   H4S 8706   6.429   6.060   5.875
   91SAPC   C25 8707   6.394   6.265   5.792
   91SAPC   H5R 8708   6.416   6.368   5.824
   91SAPC   C26 8709   6.371   6.230   5.663
   91SAPC   H6R 8710   6.380   6.302   5.581
   91SAPC   C27 8711   6.327   6.097   5.620
   91SAPC   H7R 8712   6.278   6.033   5.697
   91SAPC   H7S 8713   6.417   6.037   5.595
   91SAPC   C28 8714   6.227   6.112   5.506
   91SAPC   H8R 8715   6.123   6.145   5.518
   91SAPC   C29 8716   6.245   6.070   5.376
   91SAPC   H9R 8717   6.155   6.050   5.317
   91SAPC  C210 8718   6.373   6.013   5.327
   91SAPC  H10R 8719   6.381   5.925   5.396
   91SAPC  H10S 8720   6.456   6.084   5.348
   91SAPC  C211 8721   6.385   5.968   5.178
   91SAPC  H11R 8722   6.332   5.874   5.158
   91SAPC  C212 8723   6.447   6.038   5.079
   91SAPC  H12R 8724   6.442   5.995   4.977
   91SAPC  C213 8725   6.540   6.149   5.095
   91SAPC  H13R 8726   6.636   6.125   5.045
   91SAPC  H13S 8727   6.565   6.179   5.199
   91SAPC  C214 8728   6.476   6.275   5.046
   91SAPC  H14R 8729   6.434   6.345   5.119
   91SAPC  C215 8730   6.453   6.302   4.919
   91SAPC  H15R 8731   6.410   6.398   4.887
   91SAPC  C216 8732   6.495   6.215   4.798
   91SAPC  H16R 8733   6.560   6.129   4.824
   91SAPC  H16S 8734   6.551   6.276   4.723
   91SAPC  C217 8735   6.367   6.176   4.728
   91SAPC  H17R 8736   6.296   6.259   4.707
   91SAPC  H17S 8737   6.316   6.101   4.793
   91SAPC  C218 8738   6.412   6.116   4.590
   91SAPC  H18R 8739   6.440   6.011   4.608
   91SAPC  H18S 8740   6.500   6.170   4.550
   91SAPC  C219 8741   6.292   6.099   4.489
   91SAPC  H19R 8742   6.325   6.037   4.403
   91SAPC  H19S 8743   6.262   6.191   4.436
   91SAPC  C220 8744   6.168   6.024   4.547
   91SAPC  H20R 8745   6.198   5.922   4.577
   91SAPC  H20S 8746   6.099   6.014   4.460
   91SAPC  H20T 8747   6.118   6.078   4.630
   91SAPC   C33 8748   6.279   5.705   5.776
   91SAPC   H3X 8749   6.207   5.788   5.797
   91SAPC   H3Y 8750   6.232   5.605   5.786
   91SAPC   C34 8751   6.317   5.707   5.629
   91SAPC   H4X 8752   6.371   5.803   5.610
   91SAPC   H4Y 8753   6.226   5.712   5.566
   91SAPC   C35 8754   6.400   5.582   5.582
   91SAPC   H5X 8755   6.348   5.484   5.589
   91SAPC   H5Y 8756   6.491   5.584   5.646
   91SAPC   C36 8757   6.442   5.587   5.431
   91SAPC   H6X 8758   6.505   5.500   5.402
   91SAPC   H6Y 8759   6.508   5.673   5.407
   91SAPC   C37 8760   6.328   5.588   5.331
   91SAPC   H7X 8761   6.260   5.676   5.333
   91SAPC   H7Y 8762   6.266   5.496   5.335
   91SAPC   C38 8763   6.390   5.579   5.193
   91SAPC   H8X 8764   6.472   5.504   5.180
   91SAPC   H8Y 8765   6.457   5.667   5.179
   91SAPC   C39 8766   6.287   5.543   5.085
   91SAPC   H9X 8767   6.199   5.496   5.134
   91SAPC   H9Y 8768   6.313   5.474   5.002
   91SAPC  C310 8769   6.219   5.658   5.008
   91SAPC  H10X 8770   6.199   5.734   5.087
   91SAPC  H10Y 8771   6.114   5.643   4.973
   91SAPC  C311 8772   6.312   5.711   4.895
   91SAPC  H11X 8773   6.420   5.712   4.923
   91SAPC  H11Y 8774   6.287   5.817   4.876
   91SAPC  C312 8775   6.314   5.631   4.761
   91SAPC  H12X 8776   6.210   5.636   4.722
   91SAPC  H12Y 8777   6.341   5.529   4.795
   91SAPC  C313 8778   6.420   5.682   4.662
   91SAPC  H13X 8779   6.521   5.681   4.710
   91SAPC  H13Y 8780   6.405   5.788   4.631
   91SAPC  C314 8781   6.430   5.593   4.527
   91SAPC  H14X 8782   6.429   5.491   4.572
   91SAPC  H14Y 8783   6.521   5.632   4.477
   91SAPC  C315 8784   6.314   5.605   4.426
   91SAPC  H15X 8785   6.279   5.710   4.434
   91SAPC  H15Y 8786   6.229   5.541   4.459
   91SAPC  C316 8787   6.339   5.598   4.271
   91SAPC  H16X 8788   6.259   5.541   4.220
   91SAPC  H16Y 8789   6.415   5.522   4.246
   91SAPC  C317 8790   6.353   5.739   4.198
   91SAPC  H17X 8791   6.437   5.794   4.244
   91SAPC  H17Y 8792   6.264   5.803   4.216
   91SAPC  C318 8793   6.381   5.725   4.046
   91SAPC  H18X 8794   6.479   5.677   4.029
   91SAPC  H18Y 8795   6.413   5.822   4.003
   91SAPC  H18Z 8796   6.299   5.671   3.995
   92SAPC     N 8797   5.455   5.088   6.749
   92SAPC   C12 8798   5.560   4.988   6.710
   92SAPC  H12A 8799   5.531   4.888   6.738
   92SAPC  H12B 8800   5.645   5.020   6.769
   92SAPC   C13 8801   5.329   5.078   6.665
   92SAPC  H13A 8802   5.256   5.155   6.683
   92SAPC  H13B 8803   5.356   5.094   6.562
   92SAPC  H13C 8804   5.273   4.990   6.694
   92SAPC   C14 8805   5.411   5.064   6.896
   92SAPC  H14A 8806   5.385   4.963   6.926
   92SAPC  H14B 8807   5.494   5.075   6.964
   92SAPC  H14C 8808   5.326   5.126   6.922
   92SAPC   C15 8809   5.505   5.233   6.728
   92SAPC  H15A 8810   5.519   5.256   6.623
   92SAPC  H15B 8811   5.427   5.303   6.751
   92SAPC  H15C 8812   5.597   5.248   6.783
   92SAPC   C11 8813   5.609   4.987   6.562
   92SAPC  H11A 8814   5.523   4.997   6.492
   92SAPC  H11B 8815   5.662   4.893   6.538
   92SAPC     P 8816   5.843   5.097   6.618
   92SAPC   O13 8817   5.814   5.161   6.743
   92SAPC   O14 8818   5.900   4.965   6.629
   92SAPC   O12 8819   5.708   5.089   6.536
   92SAPC   O11 8820   5.954   5.184   6.533
   92SAPC    C1 8821   5.939   5.188   6.394
   92SAPC    HA 8822   5.917   5.088   6.352
   92SAPC    HB 8823   5.847   5.247   6.377
   92SAPC    C2 8824   6.052   5.256   6.320
   92SAPC    HS 8825   6.057   5.361   6.358
   92SAPC   O21 8826   6.006   5.259   6.185
   92SAPC   C21 8827   6.039   5.371   6.118
   92SAPC   O22 8828   6.106   5.466   6.157
   92SAPC   C22 8829   5.993   5.369   5.971
   92SAPC   H2R 8830   5.910   5.296   5.959
   92SAPC   H2S 8831   5.954   5.466   5.935
   92SAPC    C3 8832   6.190   5.196   6.346
   92SAPC    HX 8833   6.188   5.096   6.299
   92SAPC    HY 8834   6.209   5.170   6.453
   92SAPC   O31 8835   6.298   5.286   6.299
   92SAPC   C31 8836   6.344   5.246   6.182
   92SAPC   O32 8837   6.295   5.161   6.113
   92SAPC   C32 8838   6.453   5.339   6.134
   92SAPC   H2X 8839   6.539   5.344   6.205
   92SAPC   H2Y 8840   6.411   5.442   6.133
   92SAPC   C23 8841   6.108   5.324   5.870
   92SAPC   H3R 8842   6.141   5.224   5.906
   92SAPC   H3S 8843   6.191   5.398   5.875
   92SAPC   C24 8844   6.041   5.313   5.730
   92SAPC   H4R 8845   6.014   5.410   5.684
   92SAPC   H4S 8846   5.943   5.263   5.749
   92SAPC   C25 8847   6.130   5.222   5.646
   92SAPC   H5R 8848   6.178   5.137   5.696
   92SAPC   C26 8849   6.131   5.240   5.518
   92SAPC   H6R 8850   6.201   5.170   5.472
   92SAPC   C27 8851   6.053   5.336   5.431
   92SAPC   H7R 8852   6.109   5.339   5.336
   92SAPC   H7S 8853   6.059   5.433   5.485
   92SAPC   C28 8854   5.905   5.319   5.407
   92SAPC   H8R 8855   5.849   5.283   5.495
   92SAPC   C29 8856   5.841   5.351   5.292
   92SAPC   H9R 8857   5.732   5.341   5.298
   92SAPC  C210 8858   5.892   5.407   5.159
   92SAPC  H10R 8859   5.961   5.489   5.189
   92SAPC  H10S 8860   5.808   5.462   5.112
   92SAPC  C211 8861   5.942   5.313   5.057
   92SAPC  H11R 8862   6.044   5.280   5.081
   92SAPC  C212 8863   5.868   5.246   4.964
   92SAPC  H12R 8864   5.922   5.177   4.897
   92SAPC  C213 8865   5.720   5.268   4.939
   92SAPC  H13R 8866   5.701   5.339   4.856
   92SAPC  H13S 8867   5.661   5.305   5.027
   92SAPC  C214 8868   5.650   5.143   4.901
   92SAPC  H14R 8869   5.625   5.076   4.985
   92SAPC  C215 8870   5.610   5.098   4.779
   92SAPC  H15R 8871   5.560   5.000   4.779
   92SAPC  C216 8872   5.616   5.160   4.642
   92SAPC  H16R 8873   5.684   5.100   4.578
   92SAPC  H16S 8874   5.655   5.261   4.665
   92SAPC  C217 8875   5.476   5.175   4.587
   92SAPC  H17R 8876   5.427   5.243   4.660
   92SAPC  H17S 8877   5.433   5.072   4.591
   92SAPC  C218 8878   5.477   5.225   4.438
   92SAPC  H18R 8879   5.577   5.266   4.412
   92SAPC  H18S 8880   5.397   5.302   4.433
   92SAPC  C219 8881   5.447   5.102   4.343
   92SAPC  H19R 8882   5.459   5.142   4.240
   92SAPC  H19S 8883   5.342   5.065   4.352
   92SAPC  C220 8884   5.552   4.988   4.354
   92SAPC  H20R 8885   5.557   4.950   4.250
   92SAPC  H20S 8886   5.511   4.918   4.431
   92SAPC  H20T 8887   5.648   5.033   4.387
   92SAPC   C33 8888   6.507   5.295   6.001
   92SAPC   H3X 8889   6.439   5.315   5.915
   92SAPC   H3Y 8890   6.529   5.186   6.010
   92SAPC   C34 8891   6.649   5.341   5.972
   92SAPC   H4X 8892   6.725   5.305   6.044
   92SAPC   H4Y 8893   6.640   5.451   5.986
   92SAPC   C35 8894   6.689   5.305   5.827
   92SAPC   H5X 8895   6.636   5.358   5.746
   92SAPC   H5Y 8896   6.657   5.199   5.812
   92SAPC   C36 8897   0.064   5.319   5.792
   92SAPC   H6X 8898   0.132   5.272   5.866
   92SAPC   H6Y 8899   0.091   5.426   5.799
   92SAPC   C37 8900   0.113   5.267   5.652
   92SAPC   H7X 8901   0.075   5.165   5.629
   92SAPC   H7Y 8902   0.223   5.271   5.641
   92SAPC   C38 8903   0.059   5.356   5.543
   92SAPC   H8X 8904   0.100   5.459   5.547
   92SAPC   H8Y 8905   6.725   5.363   5.557
   92SAPC   C39 8906   0.072   5.295   5.401
   92SAPC   H9X 8907   0.040   5.190   5.420
   92SAPC   H9Y 8908   0.179   5.294   5.373
   92SAPC  C310 8909   6.764   5.370   5.292
   92SAPC  H10X 8910   0.031   5.472   5.287
   92SAPC  H10Y 8911   6.663   5.381   5.336
   92SAPC  C311 8912   6.757   5.304   5.156
   92SAPC  H11X 8913   6.684   5.368   5.101
   92SAPC  H11Y 8914   6.725   5.198   5.159
   92SAPC  C312 8915   0.115   5.311   5.077
   92SAPC  H12X 8916   0.185   5.243   5.129
   92SAPC  H12Y 8917   0.148   5.415   5.094
   92SAPC  C313 8918   0.107   5.268   4.931
   92SAPC  H13X 8919   0.073   5.165   4.907
   92SAPC  H13Y 8920   0.213   5.278   4.898
   92SAPC  C314 8921   0.022   5.359   4.843
   92SAPC  H14X 8922   0.038   5.469   4.854
   92SAPC  H14Y 8923   6.690   5.351   4.863
   92SAPC  C315 8924   0.039   5.334   4.684
   92SAPC  H15X 8925   6.768   5.241   4.646
   92SAPC  H15Y 8926   0.145   5.309   4.662
   92SAPC  C316 8927   6.742   5.442   4.603
   92SAPC  H16X 8928   0.038   5.524   4.617
   92SAPC  H16Y 8929   6.650   5.477   4.656
   92SAPC  C317 8930   6.720   5.418   4.456
   92SAPC  H17X 8931   0.051   5.410   4.427
   92SAPC  H17Y 8932   6.666   5.497   4.399
   92SAPC  C318 8933   6.644   5.284   4.419
   92SAPC  H18X 8934   6.536   5.300   4.437
   92SAPC  H18Y 8935   6.678   5.184   4.454
   92SAPC  H18Z 8936   6.642   5.273   4.309
   93SAPC     N 8937   0.851   6.663   6.722
   93SAPC   C12 8938   0.854   6.711   6.581
   93SAPC  H12A 8939   0.949   6.763   6.570
   93SAPC  H12B 8940   0.780   0.012   6.566
   93SAPC   C13 8941   0.951   6.556   6.742
   93SAPC  H13A 8942   1.049   6.596   6.722
   93SAPC  H13B 8943   0.953   6.527   6.846
   93SAPC  H13C 8944   0.932   6.470   6.678
   93SAPC   C14 8945   0.896   6.775   6.815
   93SAPC  H14A 8946   0.822   0.074   6.834
   93SAPC  H14B 8947   0.912   6.732   6.913
   93SAPC  H14C 8948   0.986   0.049   6.782
   93SAPC   C15 8949   0.721   6.596   6.765
   93SAPC  H15A 8950   0.648   6.674   6.782
   93SAPC  H15B 8951   0.689   6.518   6.697
   93SAPC  H15C 8952   0.729   6.549   6.862
   93SAPC   C11 8953   0.833   6.603   6.466
   93SAPC  H11A 8954   0.911   6.528   6.493
   93SAPC  H11B 8955   0.853   6.638   6.363
   93SAPC     P 8956   0.584   6.647   6.437
   93SAPC   O13 8957   0.474   6.617   6.531
   93SAPC   O14 8958   0.636   0.008   6.434
   93SAPC   O12 8959   0.699   6.549   6.472
   93SAPC   O11 8960   0.529   6.604   6.293
   93SAPC    C1 8961   0.544   6.461   6.266
   93SAPC    HA 8962   0.538   6.397   6.357
   93SAPC    HB 8963   0.455   6.423   6.210
   93SAPC    C2 8964   0.680   6.436   6.199
   93SAPC    HS 8965   0.763   6.472   6.263
   93SAPC   O21 8966   0.677   6.499   6.074
   93SAPC   C21 8967   0.788   6.573   6.046
   93SAPC   O22 8968   0.894   6.573   6.105
   93SAPC   C22 8969   0.756   6.650   5.909
   93SAPC   H2R 8970   0.711   6.574   5.842
   93SAPC   H2S 8971   0.669   6.717   5.931
   93SAPC    C3 8972   0.681   6.279   6.185
   93SAPC    HX 8973   0.584   6.251   6.139
   93SAPC    HY 8974   0.678   6.236   6.288
   93SAPC   O31 8975   0.798   6.226   6.119
   93SAPC   C31 8976   0.919   6.258   6.168
   93SAPC   O32 8977   0.943   6.293   6.279
   93SAPC   C32 8978   1.020   6.238   6.060
   93SAPC   H2X 8979   1.089   6.152   6.077
   93SAPC   H2Y 8980   1.079   6.332   6.056
   93SAPC   C23 8981   0.869   6.736   5.850
   93SAPC   H3R 8982   0.959   6.716   5.913
   93SAPC   H3S 8983   0.830   0.063   5.858
   93SAPC   C24 8984   0.900   6.699   5.705
   93SAPC   H4R 8985   0.918   6.590   5.705
   93SAPC   H4S 8986   0.995   6.751   5.679
   93SAPC   C25 8987   0.792   6.749   5.614
   93SAPC   H5R 8988   0.713   0.037   5.653
   93SAPC   C26 8989   0.799   6.737   5.487
   93SAPC   H6R 8990   0.716   0.007   5.432
   93SAPC   C27 8991   0.900   6.666   5.403
   93SAPC   H7R 8992   0.928   6.567   5.443
   93SAPC   H7S 8993   0.993   6.726   5.397
   93SAPC   C28 8994   0.842   6.636   5.262
   93SAPC   H8R 8995   0.765   6.558   5.266
   93SAPC   C29 8996   0.873   6.689   5.143
   93SAPC   H9R 8997   0.824   6.649   5.053
   93SAPC  C210 8998   0.994   6.775   5.112
   93SAPC  H10R 8999   1.082   6.730   5.163
   93SAPC  H10S 9000   0.977   0.095   5.163
   93SAPC  C211 9001   1.024   0.004   4.964
   93SAPC  H11R 9002   0.948   0.042   4.894
   93SAPC  C212 9003   1.124   6.724   4.902
   93SAPC  H12R 9004   1.123   6.739   4.793
   93SAPC  C213 9005   1.250   6.658   4.967
   93SAPC  H13R 9006   1.247   6.559   4.917
   93SAPC  H13S 9007   1.235   6.636   5.075
   93SAPC  C214 9008   1.382   6.728   4.957
   93SAPC  H14R 9009   1.415   6.774   5.051
   93SAPC  C215 9010   1.472   6.736   4.850
   93SAPC  H15R 9011   1.569   0.011   4.852
   93SAPC  C216 9012   1.457   6.670   4.712
   93SAPC  H16R 9013   1.464   6.742   4.627
   93SAPC  H16S 9014   1.361   6.615   4.705
   93SAPC  C217 9015   1.566   6.563   4.707
   93SAPC  H17R 9016   1.550   6.512   4.609
   93SAPC  H17S 9017   1.563   6.492   4.792
   93SAPC  C218 9018   1.709   6.624   4.699
   93SAPC  H18R 9019   1.790   6.547   4.697
   93SAPC  H18S 9020   1.728   6.698   4.780
   93SAPC  C219 9021   1.736   6.710   4.578
   93SAPC  H19R 9022   1.838   6.753   4.578
   93SAPC  H19S 9023   1.672   0.024   4.567
   93SAPC  C220 9024   1.712   6.624   4.452
   93SAPC  H20R 9025   1.746   6.685   4.366
   93SAPC  H20S 9026   1.602   6.605   4.447
   93SAPC  H20T 9027   1.766   6.529   4.469
   93SAPC   C33 9028   0.964   6.219   5.922
   93SAPC   H3X 9029   0.895   6.131   5.920
   93SAPC   H3Y 9030   1.055   6.199   5.862
   93SAPC   C34 9031   0.880   6.333   5.865
   93SAPC   H4X 9032   0.935   6.427   5.886
   93SAPC   H4Y 9033   0.784   6.331   5.921
   93SAPC   C35 9034   0.851   6.319   5.720
   93SAPC   H5X 9035   0.789   6.405   5.688
   93SAPC   H5Y 9036   0.795   6.224   5.703
   93SAPC   C36 9037   0.962   6.309   5.616
   93SAPC   H6X 9038   1.032   6.226   5.639
   93SAPC   H6Y 9039   1.028   6.398   5.608
   93SAPC   C37 9040   0.906   6.277   5.474
   93SAPC   H7X 9041   0.834   6.357   5.450
   93SAPC   H7Y 9042   0.839   6.188   5.474
   93SAPC   C38 9043   1.008   6.262   5.360
   93SAPC   H8X 9044   1.080   6.178   5.365
   93SAPC   H8Y 9045   1.072   6.353   5.365
   93SAPC   C39 9046   0.950   6.251   5.222
   93SAPC   H9X 9047   0.911   6.352   5.198
   93SAPC   H9Y 9048   0.874   6.170   5.221
   93SAPC  C310 9049   1.050   6.210   5.110
   93SAPC  H10X 9050   1.089   6.107   5.124
   93SAPC  H10Y 9051   1.137   6.278   5.117
   93SAPC  C311 9052   0.986   6.210   4.966
   93SAPC  H11X 9053   0.886   6.162   4.978
   93SAPC  H11Y 9054   1.061   6.163   4.900
   93SAPC  C312 9055   0.973   6.355   4.923
   93SAPC  H12X 9056   1.064   6.406   4.962
   93SAPC  H12Y 9057   0.891   6.413   4.970
   93SAPC  C313 9058   0.959   6.371   4.774
   93SAPC  H13X 9059   1.039   6.321   4.716
   93SAPC  H13Y 9060   0.964   6.479   4.749
   93SAPC  C314 9061   0.822   6.312   4.735
   93SAPC  H14X 9062   0.742   6.353   4.800
   93SAPC  H14Y 9063   0.831   6.202   4.752
   93SAPC  C315 9064   0.772   6.339   4.596
   93SAPC  H15X 9065   0.788   6.448   4.582
   93SAPC  H15Y 9066   0.667   6.302   4.590
   93SAPC  C316 9067   0.856   6.257   4.495
   93SAPC  H16X 9068   0.886   6.156   4.529
   93SAPC  H16Y 9069   0.953   6.311   4.481
   93SAPC  C317 9070   0.800   6.242   4.348
   93SAPC  H17X 9071   0.783   6.340   4.300
   93SAPC  H17Y 9072   0.702   6.191   4.342
   93SAPC  C318 9073   0.881   6.153   4.256
   93SAPC  H18X 9074   0.896   6.054   4.304
   93SAPC  H18Y 9075   0.981   6.198   4.238
   93SAPC  H18Z 9076   0.830   6.140   4.159
   94SAPC     N 9077   0.006   4.947   6.794
   94SAPC   C12 9078   6.687   5.066   6.758
   94SAPC  H12A 9079   6.592   5.034   6.797
   94SAPC  H12B 9080   6.679   5.068   6.650
   94SAPC   C13 9081   6.727   4.823   6.737
   94SAPC  H13A 9082   6.742   4.828   6.630
   94SAPC  H13B 9083   6.772   4.730   6.767
   94SAPC  H13C 9084   6.624   4.800   6.759
   94SAPC   C14 9085   0.144   4.972   6.759
   94SAPC  H14A 9086   0.218   4.926   6.824
   94SAPC  H14B 9087   0.163   4.928   6.662
   94SAPC  H14C 9088   0.159   5.079   6.755
   94SAPC   C15 9089   6.766   4.923   6.940
   94SAPC  H15A 9090   6.667   4.931   6.982
   94SAPC  H15B 9091   0.016   4.824   6.975
   94SAPC  H15C 9092   0.047   4.995   6.995
   94SAPC   C11 9093   6.726   5.208   6.816
   94SAPC  H11A 9094   6.758   5.211   6.922
   94SAPC  H11B 9095   6.633   5.266   6.798
   94SAPC     P 9096   0.081   5.383   6.689
   94SAPC   O13 9097   0.037   5.489   6.780
   94SAPC   O14 9098   0.219   5.391   6.636
   94SAPC   O12 9099   0.068   5.247   6.754
   94SAPC   O11 9100   6.772   5.378   6.557
   94SAPC    C1 9101   6.771   5.278   6.454
   94SAPC    HA 9102   0.005   5.178   6.502
   94SAPC    HB 9103   6.680   5.282   6.390
   94SAPC    C2 9104   0.112   5.275   6.356
   94SAPC    HS 9105   0.196   5.292   6.426
   94SAPC   O21 9106   0.103   5.381   6.261
   94SAPC   C21 9107   0.227   5.422   6.226
   94SAPC   O22 9108   0.333   5.384   6.267
   94SAPC   C22 9109   0.208   5.529   6.122
   94SAPC   H2R 9110   0.146   5.492   6.038
   94SAPC   H2S 9111   0.152   5.618   6.158
   94SAPC    C3 9112   0.128   5.133   6.286
   94SAPC    HX 9113   0.158   5.052   6.356
   94SAPC    HY 9114   0.223   5.140   6.228
   94SAPC   O31 9115   0.015   5.087   6.212
   94SAPC   C31 9116   0.037   4.989   6.118
   94SAPC   O32 9117   0.143   4.946   6.080
   94SAPC   C32 9118   6.678   4.944   6.064
   94SAPC   H2X 9119   6.594   5.010   6.093
   94SAPC   H2Y 9120   6.653   4.847   6.111
   94SAPC   C23 9121   0.344   5.569   6.067
   94SAPC   H3R 9122   0.423   5.602   6.137
   94SAPC   H3S 9123   0.337   5.655   5.997
   94SAPC   C24 9124   0.400   5.455   5.979
   94SAPC   H4R 9125   0.308   5.406   5.942
   94SAPC   H4S 9126   0.446   5.376   6.043
   94SAPC   C25 9127   0.511   5.496   5.882
   94SAPC   H5R 9128   0.606   5.519   5.933
   94SAPC   C26 9129   0.506   5.513   5.749
   94SAPC   H6R 9130   0.603   5.522   5.698
   94SAPC   C27 9131   0.399   5.497   5.645
   94SAPC   H7R 9132   0.297   5.497   5.691
   94SAPC   H7S 9133   0.413   5.405   5.583
   94SAPC   C28 9134   0.417   5.616   5.556
   94SAPC   H8R 9135   0.429   5.716   5.600
   94SAPC   C29 9136   0.433   5.619   5.420
   94SAPC   H9R 9137   0.440   5.715   5.368
   94SAPC  C210 9138   0.419   5.497   5.333
   94SAPC  H10R 9139   0.361   5.531   5.245
   94SAPC  H10S 9140   0.357   5.414   5.372
   94SAPC  C211 9141   0.556   5.452   5.278
   94SAPC  H11R 9142   0.635   5.433   5.352
   94SAPC  C212 9143   0.601   5.439   5.148
   94SAPC  H12R 9144   0.702   5.398   5.132
   94SAPC  C213 9145   0.517   5.485   5.030
   94SAPC  H13R 9146   0.596   5.543   4.977
   94SAPC  H13S 9147   0.431   5.551   5.055
   94SAPC  C214 9148   0.463   5.363   4.958
   94SAPC  H14R 9149   0.412   5.286   5.018
   94SAPC  C215 9150   0.464   5.353   4.828
   94SAPC  H15R 9151   0.419   5.265   4.780
   94SAPC  C216 9152   0.521   5.457   4.733
   94SAPC  H16R 9153   0.632   5.453   4.737
   94SAPC  H16S 9154   0.491   5.563   4.749
   94SAPC  C217 9155   0.469   5.423   4.598
   94SAPC  H17R 9156   0.482   5.497   4.516
   94SAPC  H17S 9157   0.359   5.406   4.603
   94SAPC  C218 9158   0.533   5.299   4.521
   94SAPC  H18R 9159   0.534   5.202   4.575
   94SAPC  H18S 9160   0.641   5.319   4.503
   94SAPC  C219 9161   0.462   5.272   4.388
   94SAPC  H19R 9162   0.440   5.365   4.331
   94SAPC  H19S 9163   0.359   5.231   4.403
   94SAPC  C220 9164   0.560   5.188   4.295
   94SAPC  H20R 9165   0.507   5.160   4.202
   94SAPC  H20S 9166   0.581   5.092   4.348
   94SAPC  H20T 9167   0.646   5.249   4.263
   94SAPC   C33 9168   6.702   4.909   5.916
   94SAPC   H3X 9169   6.771   4.824   5.898
   94SAPC   H3Y 9170   6.749   4.996   5.866
   94SAPC   C34 9171   6.572   4.869   5.829
   94SAPC   H4X 9172   6.511   4.961   5.832
   94SAPC   H4Y 9173   6.517   4.784   5.875
   94SAPC   C35 9174   6.602   4.847   5.676
   94SAPC   H5X 9175   6.565   4.747   5.646
   94SAPC   H5Y 9176   6.711   4.855   5.659
   94SAPC   C36 9177   6.523   4.941   5.583
   94SAPC   H6X 9178   6.549   5.043   5.619
   94SAPC   H6Y 9179   6.415   4.919   5.596
   94SAPC   C37 9180   6.557   4.931   5.432
   94SAPC   H7X 9181   6.541   4.825   5.404
   94SAPC   H7Y 9182   6.663   4.947   5.401
   94SAPC   C38 9183   6.472   5.032   5.347
   94SAPC   H8X 9184   6.479   5.135   5.388
   94SAPC   H8Y 9185   6.366   5.007   5.369
   94SAPC   C39 9186   6.490   5.023   5.193
   94SAPC   H9X 9187   6.454   4.922   5.167
   94SAPC   H9Y 9188   6.599   5.019   5.176
   94SAPC  C310 9189   6.419   5.132   5.109
   94SAPC  H10X 9190   6.442   5.237   5.138
   94SAPC  H10Y 9191   6.313   5.117   5.138
   94SAPC  C311 9192   6.432   5.124   4.955
   94SAPC  H11X 9193   6.381   5.032   4.920
   94SAPC  H11Y 9194   6.536   5.119   4.917
   94SAPC  C312 9195   6.367   5.238   4.873
   94SAPC  H12X 9196   6.448   5.311   4.849
   94SAPC  H12Y 9197   6.291   5.287   4.937
   94SAPC  C313 9198   6.276   5.187   4.758
   94SAPC  H13X 9199   6.202   5.112   4.793
   94SAPC  H13Y 9200   6.328   5.140   4.671
   94SAPC  C314 9201   6.192   5.305   4.705
   94SAPC  H14X 9202   6.256   5.370   4.641
   94SAPC  H14Y 9203   6.150   5.366   4.788
   94SAPC  C315 9204   6.077   5.261   4.620
   94SAPC  H15X 9205   6.012   5.186   4.671
   94SAPC  H15Y 9206   6.119   5.215   4.529
   94SAPC  C316 9207   5.994   5.391   4.574
   94SAPC  H16X 9208   6.059   5.469   4.530
   94SAPC  H16Y 9209   5.944   5.432   4.664
   94SAPC  C317 9210   5.896   5.361   4.458
   94SAPC  H17X 9211   5.822   5.290   4.502
   94SAPC  H17Y 9212   5.950   5.308   4.378
   94SAPC  C318 9213   5.821   5.477   4.395
   94SAPC  H18X 9214   5.724   5.497   4.446
   94SAPC  H18Y 9215   5.805   5.442   4.291
   94SAPC  H18Z 9216   5.883   5.569   4.394
   95SAPC     N 9217   3.291   5.940   1.739
   95SAPC   C12 9218   3.428   5.955   1.803
   95SAPC  H12A 9219   3.484   6.020   1.738
   95SAPC  H12B 9220   3.469   5.856   1.790
   95SAPC   C13 9221   3.214   5.840   1.809
   95SAPC  H13A 9222   3.107   5.840   1.790
   95SAPC  H13B 9223   3.244   5.741   1.778
   95SAPC  H13C 9224   3.239   5.839   1.914
   95SAPC   C14 9225   3.213   6.069   1.745
   95SAPC  H14A 9226   3.111   6.056   1.709
   95SAPC  H14B 9227   3.222   6.098   1.848
   95SAPC  H14C 9228   3.261   6.144   1.685
   95SAPC   C15 9229   3.305   5.905   1.585
   95SAPC  H15A 9230   3.215   5.902   1.526
   95SAPC  H15B 9231   3.380   5.971   1.542
   95SAPC  H15C 9232   3.353   5.809   1.573
   95SAPC   C11 9233   3.438   6.011   1.948
   95SAPC  H11A 9234   3.385   6.108   1.965
   95SAPC  H11B 9235   3.543   6.006   1.984
   95SAPC     P 9236   3.317   5.941   2.181
   95SAPC   O13 9237   3.232   6.061   2.194
   95SAPC   O14 9238   3.259   5.807   2.217
   95SAPC   O12 9239   3.372   5.919   2.033
   95SAPC   O11 9240   3.450   5.962   2.255
   95SAPC    C1 9241   3.550   5.870   2.284
   95SAPC    HA 9242   3.565   5.801   2.199
   95SAPC    HB 9243   3.639   5.937   2.288
   95SAPC    C2 9244   3.535   5.803   2.424
   95SAPC    HS 9245   3.449   5.734   2.427
   95SAPC   O21 9246   3.520   5.902   2.530
   95SAPC   C21 9247   3.395   5.931   2.569
   95SAPC   O22 9248   3.292   5.895   2.521
   95SAPC   C22 9249   3.417   6.034   2.683
   95SAPC   H2R 9250   3.473   6.122   2.646
   95SAPC   H2S 9251   3.315   6.076   2.699
   95SAPC    C3 9252   3.663   5.712   2.455
   95SAPC    HX 9253   3.751   5.780   2.448
   95SAPC    HY 9254   3.673   5.636   2.375
   95SAPC   O31 9255   3.653   5.660   2.589
   95SAPC   C31 9256   3.571   5.559   2.606
   95SAPC   O32 9257   3.495   5.512   2.526
   95SAPC   C32 9258   3.597   5.495   2.754
   95SAPC   H2X 9259   3.704   5.474   2.777
   95SAPC   H2Y 9260   3.548   5.396   2.746
   95SAPC   C23 9261   3.475   5.977   2.813
   95SAPC   H3R 9262   3.579   5.941   2.798
   95SAPC   H3S 9263   3.403   5.896   2.840
   95SAPC   C24 9264   3.484   6.075   2.931
   95SAPC   H4R 9265   3.552   6.158   2.902
   95SAPC   H4S 9266   3.542   6.032   3.015
   95SAPC   C25 9267   3.349   6.131   2.970
   95SAPC   H5R 9268   3.303   6.194   2.893
   95SAPC   C26 9269   3.291   6.128   3.092
   95SAPC   H6R 9270   3.189   6.166   3.103
   95SAPC   C27 9271   3.325   6.053   3.215
   95SAPC   H7R 9272   3.426   6.011   3.199
   95SAPC   H7S 9273   3.259   5.963   3.216
   95SAPC   C28 9274   3.326   6.148   3.334
   95SAPC   H8R 9275   3.421   6.204   3.329
   95SAPC   C29 9276   3.235   6.157   3.435
   95SAPC   H9R 9277   3.246   6.243   3.502
   95SAPC  C210 9278   3.101   6.084   3.428
   95SAPC  H10R 9279   3.111   5.979   3.462
   95SAPC  H10S 9280   3.056   6.083   3.326
   95SAPC  C211 9281   3.008   6.156   3.518
   95SAPC  H11R 9282   3.056   6.234   3.578
   95SAPC  C212 9283   2.872   6.144   3.513
   95SAPC  H12R 9284   2.817   6.203   3.589
   95SAPC  C213 9285   2.786   6.065   3.424
   95SAPC  H13R 9286   2.720   6.001   3.486
   95SAPC  H13S 9287   2.850   5.997   3.363
   95SAPC  C214 9288   2.698   6.152   3.341
   95SAPC  H14R 9289   2.655   6.240   3.391
   95SAPC  C215 9290   2.660   6.134   3.216
   95SAPC  H15R 9291   2.582   6.194   3.168
   95SAPC  C216 9292   2.700   6.012   3.137
   95SAPC  H16R 9293   2.611   5.958   3.098
   95SAPC  H16S 9294   2.755   5.933   3.193
   95SAPC  C217 9295   2.768   6.043   3.005
   95SAPC  H17R 9296   2.705   6.097   2.932
   95SAPC  H17S 9297   2.783   5.950   2.946
   95SAPC  C218 9298   2.899   6.118   3.026
   95SAPC  H18R 9299   2.966   6.040   3.068
   95SAPC  H18S 9300   2.896   6.203   3.097
   95SAPC  C219 9301   2.960   6.178   2.901
   95SAPC  H19R 9302   3.056   6.223   2.934
   95SAPC  H19S 9303   2.885   6.255   2.874
   95SAPC  C220 9304   2.987   6.091   2.777
   95SAPC  H20R 9305   3.069   6.016   2.789
   95SAPC  H20S 9306   3.023   6.149   2.690
   95SAPC  H20T 9307   2.890   6.045   2.749
   95SAPC   C33 9308   3.539   5.583   2.870
   95SAPC   H3X 9309   3.429   5.584   2.857
   95SAPC   H3Y 9310   3.566   5.691   2.865
   95SAPC   C34 9311   3.584   5.532   3.008
   95SAPC   H4X 9312   3.693   5.546   3.027
   95SAPC   H4Y 9313   3.569   5.422   3.004
   95SAPC   C35 9314   3.511   5.587   3.135
   95SAPC   H5X 9315   3.412   5.537   3.125
   95SAPC   H5Y 9316   3.499   5.696   3.120
   95SAPC   C36 9317   3.578   5.537   3.260
   95SAPC   H6X 9318   3.679   5.583   3.260
   95SAPC   H6Y 9319   3.591   5.427   3.257
   95SAPC   C37 9320   3.491   5.580   3.386
   95SAPC   H7X 9321   3.393   5.531   3.399
   95SAPC   H7Y 9322   3.456   5.684   3.374
   95SAPC   C38 9323   3.542   5.559   3.530
   95SAPC   H8X 9324   3.642   5.603   3.552
   95SAPC   H8Y 9325   3.555   5.451   3.549
   95SAPC   C39 9326   3.439   5.604   3.636
   95SAPC   H9X 9327   3.341   5.561   3.606
   95SAPC   H9Y 9328   3.439   5.714   3.623
   95SAPC  C310 9329   3.468   5.554   3.780
   95SAPC  H10X 9330   3.476   5.443   3.784
   95SAPC  H10Y 9331   3.373   5.583   3.830
   95SAPC  C311 9332   3.586   5.616   3.845
   95SAPC  H11X 9333   3.560   5.723   3.858
   95SAPC  H11Y 9334   3.673   5.616   3.776
   95SAPC  C312 9335   3.630   5.540   3.974
   95SAPC  H12X 9336   3.728   5.581   4.007
   95SAPC  H12Y 9337   3.647   5.431   3.961
   95SAPC  C313 9338   3.526   5.558   4.081
   95SAPC  H13X 9339   3.427   5.515   4.055
   95SAPC  H13Y 9340   3.501   5.664   4.101
   95SAPC  C314 9341   3.572   5.490   4.210
   95SAPC  H14X 9342   3.658   5.554   4.236
   95SAPC  H14Y 9343   3.611   5.388   4.193
   95SAPC  C315 9344   3.463   5.496   4.314
   95SAPC  H15X 9345   3.369   5.453   4.274
   95SAPC  H15Y 9346   3.458   5.604   4.337
   95SAPC  C316 9347   3.500   5.416   4.436
   95SAPC  H16X 9348   3.595   5.456   4.477
   95SAPC  H16Y 9349   3.520   5.310   4.408
   95SAPC  C317 9350   3.389   5.430   4.532
   95SAPC  H17X 9351   3.293   5.414   4.478
   95SAPC  H17Y 9352   3.394   5.536   4.564
   95SAPC  C318 9353   3.381   5.347   4.660
   95SAPC  H18X 9354   3.477   5.348   4.715
   95SAPC  H18Y 9355   3.355   5.241   4.638
   95SAPC  H18Z 9356   3.308   5.406   4.718
   96SAPC     N 9357   2.837   2.071   2.254
   96SAPC   C12 9358   2.951   2.176   2.278
   96SAPC  H12A 9359   2.910   2.268   2.315
   96SAPC  H12B 9360   2.994   2.208   2.184
   96SAPC   C13 9361   2.904   1.951   2.219
   96SAPC  H13A 9362   2.838   1.866   2.210
   96SAPC  H13B 9363   2.970   1.963   2.134
   96SAPC  H13C 9364   2.967   1.915   2.299
   96SAPC   C14 9365   2.755   2.060   2.377
   96SAPC  H14A 9366   2.704   2.155   2.387
   96SAPC  H14B 9367   2.681   1.981   2.371
   96SAPC  H14C 9368   2.814   2.035   2.464
   96SAPC   C15 9369   2.741   2.116   2.138
   96SAPC  H15A 9370   2.661   2.044   2.136
   96SAPC  H15B 9371   2.707   2.215   2.167
   96SAPC  H15C 9372   2.792   2.117   2.043
   96SAPC   C11 9373   3.064   2.145   2.376
   96SAPC  H11A 9374   3.144   2.223   2.373
   96SAPC  H11B 9375   3.120   2.060   2.331
   96SAPC     P 9376   3.051   1.992   2.590
   96SAPC   O13 9377   2.977   1.992   2.715
   96SAPC   O14 9378   3.041   1.866   2.512
   96SAPC   O12 9379   3.017   2.120   2.504
   96SAPC   O11 9380   3.201   2.017   2.628
   96SAPC    C1 9381   3.272   1.906   2.682
   96SAPC    HA 9382   3.284   1.823   2.609
   96SAPC    HB 9383   3.373   1.937   2.717
   96SAPC    C2 9384   3.221   1.848   2.812
   96SAPC    HS 9385   3.123   1.797   2.802
   96SAPC   O21 9386   3.229   1.954   2.912
   96SAPC   C21 9387   3.143   1.946   3.009
   96SAPC   O22 9388   3.060   1.863   3.025
   96SAPC   C22 9389   3.176   2.053   3.110
   96SAPC   H2R 9390   3.278   2.022   3.143
   96SAPC   H2S 9391   3.166   2.155   3.069
   96SAPC    C3 9392   3.324   1.735   2.854
   96SAPC    HX 9393   3.420   1.789   2.860
   96SAPC    HY 9394   3.325   1.662   2.770
   96SAPC   O31 9395   3.289   1.681   2.987
   96SAPC   C31 9396   3.194   1.587   2.996
   96SAPC   O32 9397   3.142   1.537   2.896
   96SAPC   C32 9398   3.180   1.549   3.141
   96SAPC   H2X 9399   3.129   1.633   3.193
   96SAPC   H2Y 9400   3.278   1.532   3.192
   96SAPC   C23 9401   3.094   2.049   3.241
   96SAPC   H3R 9402   3.065   1.943   3.260
   96SAPC   H3S 9403   2.998   2.105   3.231
   96SAPC   C24 9404   3.179   2.095   3.363
   96SAPC   H4R 9405   3.225   2.193   3.342
   96SAPC   H4S 9406   3.264   2.023   3.367
   96SAPC   C25 9407   3.092   2.103   3.485
   96SAPC   H5R 9408   2.992   2.060   3.469
   96SAPC   C26 9409   3.120   2.168   3.595
   96SAPC   H6R 9410   3.050   2.169   3.680
   96SAPC   C27 9411   3.251   2.219   3.624
   96SAPC   H7R 9412   3.259   2.319   3.575
   96SAPC   H7S 9413   3.336   2.163   3.579
   96SAPC   C28 9414   3.283   2.232   3.774
   96SAPC   H8R 9415   3.307   2.332   3.815
   96SAPC   C29 9416   3.265   2.136   3.873
   96SAPC   H9R 9417   3.282   2.154   3.980
   96SAPC  C210 9418   3.230   1.990   3.841
   96SAPC  H10R 9419   3.316   1.923   3.821
   96SAPC  H10S 9420   3.169   1.972   3.749
   96SAPC  C211 9421   3.161   1.928   3.961
   96SAPC  H11R 9422   3.074   1.986   3.995
   96SAPC  C212 9423   3.193   1.817   4.027
   96SAPC  H12R 9424   3.129   1.787   4.112
   96SAPC  C213 9425   3.306   1.728   3.996
   96SAPC  H13R 9426   3.383   1.745   4.074
   96SAPC  H13S 9427   3.356   1.749   3.899
   96SAPC  C214 9428   3.257   1.580   3.999
   96SAPC  H14R 9429   3.192   1.551   4.082
   96SAPC  C215 9430   3.292   1.492   3.902
   96SAPC  H15R 9431   3.246   1.392   3.894
   96SAPC  C216 9432   3.372   1.517   3.777
   96SAPC  H16R 9433   3.415   1.417   3.752
   96SAPC  H16S 9434   3.466   1.573   3.795
   96SAPC  C217 9435   3.291   1.588   3.672
   96SAPC  H17R 9436   3.248   1.678   3.721
   96SAPC  H17S 9437   3.206   1.539   3.621
   96SAPC  C218 9438   3.378   1.647   3.564
   96SAPC  H18R 9439   3.424   1.564   3.506
   96SAPC  H18S 9440   3.455   1.714   3.608
   96SAPC  C219 9441   3.293   1.723   3.461
   96SAPC  H19R 9442   3.266   1.824   3.499
   96SAPC  H19S 9443   3.205   1.665   3.425
   96SAPC  C220 9444   3.378   1.747   3.335
   96SAPC  H20R 9445   3.436   1.664   3.290
   96SAPC  H20S 9446   3.452   1.825   3.365
   96SAPC  H20T 9447   3.303   1.787   3.263
   96SAPC   C33 9448   3.092   1.427   3.164
   96SAPC   H3X 9449   3.147   1.331   3.159
   96SAPC   H3Y 9450   3.009   1.420   3.091
   96SAPC   C34 9451   3.022   1.428   3.298
   96SAPC   H4X 9452   2.974   1.525   3.325
   96SAPC   H4Y 9453   3.098   1.402   3.375
   96SAPC   C35 9454   2.921   1.312   3.317
   96SAPC   H5X 9455   2.980   1.223   3.283
   96SAPC   H5Y 9456   2.844   1.314   3.237
   96SAPC   C36 9457   2.853   1.299   3.450
   96SAPC   H6X 9458   2.779   1.216   3.445
   96SAPC   H6Y 9459   2.798   1.395   3.458
   96SAPC   C37 9460   2.944   1.296   3.570
   96SAPC   H7X 9461   3.015   1.381   3.569
   96SAPC   H7Y 9462   3.024   1.219   3.574
   96SAPC   C38 9463   2.858   1.296   3.701
   96SAPC   H8X 9464   2.789   1.209   3.699
   96SAPC   H8Y 9465   2.805   1.393   3.707
   96SAPC   C39 9466   2.947   1.287   3.822
   96SAPC   H9X 9467   3.001   1.382   3.837
   96SAPC   H9Y 9468   3.016   1.201   3.818
   96SAPC  C310 9469   2.857   1.257   3.947
   96SAPC  H10X 9470   2.789   1.172   3.924
   96SAPC  H10Y 9471   2.790   1.344   3.961
   96SAPC  C311 9472   2.932   1.237   4.081
   96SAPC  H11X 9473   2.988   1.333   4.090
   96SAPC  H11Y 9474   3.004   1.153   4.072
   96SAPC  C312 9475   2.847   1.206   4.207
   96SAPC  H12X 9476   2.758   1.272   4.215
   96SAPC  H12Y 9477   2.905   1.227   4.299
   96SAPC  C313 9478   2.800   1.064   4.221
   96SAPC  H13X 9479   2.892   1.002   4.212
   96SAPC  H13Y 9480   2.718   1.041   4.149
   96SAPC  C314 9481   2.741   1.024   4.352
   96SAPC  H14X 9482   2.696   0.923   4.341
   96SAPC  H14Y 9483   2.659   1.096   4.368
   96SAPC  C315 9484   2.834   1.031   4.466
   96SAPC  H15X 9485   2.876   1.132   4.487
   96SAPC  H15Y 9486   2.925   0.968   4.457
   96SAPC  C316 9487   2.776   0.991   4.596
   96SAPC  H16X 9488   2.724   0.893   4.594
   96SAPC  H16Y 9489   2.695   1.057   4.632
   96SAPC  C317 9490   2.877   0.975   4.715
   96SAPC  H17X 9491   2.975   0.933   4.685
   96SAPC  H17Y 9492   2.815   0.910   4.780
   96SAPC  C318 9493   2.900   1.108   4.785
   96SAPC  H18X 9494   2.826   1.120   4.867
   96SAPC  H18Y 9495   2.891   1.193   4.714
   96SAPC  H18Z 9496   2.999   1.104   4.833
   97SAPC     N 9497   2.592   0.559   2.034
   97SAPC   C12 9498   2.631   0.678   2.121
   97SAPC  H12A 9499   2.583   0.673   2.217
   97SAPC  H12B 9500   2.589   0.768   2.079
   97SAPC   C13 9501   2.643   0.426   2.071
   97SAPC  H13A 9502   2.751   0.435   2.071
   97SAPC  H13B 9503   2.622   0.404   2.175
   97SAPC  H13C 9504   2.631   0.348   1.997
   97SAPC   C14 9505   2.443   0.538   2.049
   97SAPC  H14A 9506   2.419   0.509   2.150
   97SAPC  H14B 9507   2.382   0.626   2.034
   97SAPC  H14C 9508   2.411   0.458   1.985
   97SAPC   C15 9509   2.618   0.582   1.888
   97SAPC  H15A 9510   2.552   0.657   1.847
   97SAPC  H15B 9511   2.723   0.585   1.862
   97SAPC  H15C 9512   2.588   0.495   1.831
   97SAPC   C11 9513   2.775   0.699   2.151
   97SAPC  H11A 9514   2.852   0.670   2.076
   97SAPC  H11B 9515   2.793   0.632   2.237
   97SAPC     P 9516   2.758   0.909   2.315
   97SAPC   O13 9517   2.846   1.022   2.341
   97SAPC   O14 9518   2.612   0.947   2.301
   97SAPC   O12 9519   2.806   0.836   2.186
   97SAPC   O11 9520   2.771   0.796   2.437
   97SAPC    C1 9521   2.908   0.755   2.477
   97SAPC    HA 9522   2.919   0.647   2.455
   97SAPC    HB 9523   2.994   0.800   2.422
   97SAPC    C2 9524   2.940   0.774   2.632
   97SAPC    HS 9525   3.028   0.709   2.650
   97SAPC   O21 9526   2.820   0.747   2.705
   97SAPC   C21 9527   2.805   0.624   2.748
   97SAPC   O22 9528   2.882   0.532   2.735
   97SAPC   C22 9529   2.677   0.618   2.832
   97SAPC   H2R 9530   2.677   0.684   2.921
   97SAPC   H2S 9531   2.598   0.655   2.763
   97SAPC    C3 9532   2.972   0.926   2.657
   97SAPC    HX 9533   2.879   0.967   2.615
   97SAPC    HY 9534   3.063   0.965   2.607
   97SAPC   O31 9535   2.966   0.959   2.794
   97SAPC   C31 9536   3.037   0.894   2.884
   97SAPC   O32 9537   3.132   0.818   2.867
   97SAPC   C32 9538   2.981   0.951   3.014
   97SAPC   H2X 9539   2.873   0.926   3.011
   97SAPC   H2Y 9540   2.994   1.061   3.010
   97SAPC   C23 9541   2.636   0.484   2.893
   97SAPC   H3R 9542   2.693   0.463   2.985
   97SAPC   H3S 9543   2.653   0.409   2.813
   97SAPC   C24 9544   2.484   0.487   2.934
   97SAPC   H4R 9545   2.453   0.380   2.931
   97SAPC   H4S 9546   2.430   0.531   2.846
   97SAPC   C25 9547   2.440   0.563   3.058
   97SAPC   H5R 9548   2.421   0.669   3.038
   97SAPC   C26 9549   2.434   0.512   3.185
   97SAPC   H6R 9550   2.419   0.584   3.267
   97SAPC   C27 9551   2.483   0.376   3.237
   97SAPC   H7R 9552   2.546   0.399   3.326
   97SAPC   H7S 9553   2.566   0.339   3.173
   97SAPC   C28 9554   2.373   0.268   3.251
   97SAPC   H8R 9555   2.333   0.237   3.153
   97SAPC   C29 9556   2.322   0.208   3.369
   97SAPC   H9R 9557   2.246   0.129   3.369
   97SAPC  C210 9558   2.369   0.242   3.508
   97SAPC  H10R 9559   2.281   0.227   3.574
   97SAPC  H10S 9560   2.385   0.352   3.516
   97SAPC  C211 9561   2.495   0.178   3.565
   97SAPC  H11R 9562   2.585   0.190   3.504
   97SAPC  C212 9563   2.523   0.138   3.689
   97SAPC  H12R 9564   2.627   0.106   3.702
   97SAPC  C213 9565   2.427   0.121   3.793
   97SAPC  H13R 9566   2.456   0.033   3.853
   97SAPC  H13S 9567   2.331   0.095   3.743
   97SAPC  C214 9568   2.398   0.241   3.884
   97SAPC  H14R 9569   2.371   0.337   3.836
   97SAPC  C215 9570   2.390   0.244   4.015
   97SAPC  H15R 9571   2.350   0.330   4.070
   97SAPC  C216 9572   2.421   0.118   4.103
   97SAPC  H16R 9573   2.479   0.034   4.058
   97SAPC  H16S 9574   2.317   0.089   4.130
   97SAPC  C217 9575   2.495   0.164   4.230
   97SAPC  H17R 9576   2.431   0.237   4.284
   97SAPC  H17S 9577   2.596   0.202   4.202
   97SAPC  C218 9578   2.520   0.056   4.335
   97SAPC  H18R 9579   2.588   6.758   4.289
   97SAPC  H18S 9580   2.425   0.001   4.349
   97SAPC  C219 9581   2.599   0.106   4.464
   97SAPC  H19R 9582   2.538   0.182   4.517
   97SAPC  H19S 9583   2.682   0.168   4.425
   97SAPC  C220 9584   2.637   6.762   4.553
   97SAPC  H20R 9585   2.649   6.676   4.483
   97SAPC  H20S 9586   2.560   6.743   4.631
   97SAPC  H20T 9587   2.736   0.014   4.594
   97SAPC   C33 9588   3.038   0.891   3.142
   97SAPC   H3X 9589   3.003   0.945   3.233
   97SAPC   H3Y 9590   3.147   0.908   3.130
   97SAPC   C34 9591   2.994   0.742   3.166
   97SAPC   H4X 9592   3.062   0.709   3.248
   97SAPC   H4Y 9593   3.019   0.681   3.077
   97SAPC   C35 9594   2.848   0.726   3.221
   97SAPC   H5X 9595   2.783   0.762   3.139
   97SAPC   H5Y 9596   2.840   0.800   3.303
   97SAPC   C36 9597   2.820   0.580   3.272
   97SAPC   H6X 9598   2.832   0.506   3.191
   97SAPC   H6Y 9599   2.713   0.567   3.301
   97SAPC   C37 9600   2.912   0.541   3.387
   97SAPC   H7X 9601   2.917   0.625   3.459
   97SAPC   H7Y 9602   3.017   0.510   3.369
   97SAPC   C38 9603   2.847   0.427   3.470
   97SAPC   H8X 9604   2.852   0.330   3.415
   97SAPC   H8Y 9605   2.741   0.449   3.495
   97SAPC   C39 9606   2.924   0.401   3.598
   97SAPC   H9X 9607   2.935   0.496   3.655
   97SAPC   H9Y 9608   3.027   0.375   3.565
   97SAPC  C310 9609   2.871   0.282   3.679
   97SAPC  H10X 9610   2.871   0.190   3.617
   97SAPC  H10Y 9611   2.762   0.300   3.694
   97SAPC  C311 9612   2.924   0.275   3.821
   97SAPC  H11X 9613   2.904   0.374   3.865
   97SAPC  H11Y 9614   3.035   0.278   3.816
   97SAPC  C312 9615   2.864   0.160   3.905
   97SAPC  H12X 9616   2.881   0.077   3.833
   97SAPC  H12Y 9617   2.755   0.166   3.927
   97SAPC  C313 9618   2.939   0.131   4.035
   97SAPC  H13X 9619   2.936   0.214   4.108
   97SAPC  H13Y 9620   3.046   0.115   4.009
   97SAPC  C314 9621   2.893   6.775   4.093
   97SAPC  H14X 9622   2.914   6.692   4.022
   97SAPC  H14Y 9623   2.782   6.773   4.103
   97SAPC  C315 9624   2.955   6.747   4.229
   97SAPC  H15X 9625   2.920   0.035   4.313
   97SAPC  H15Y 9626   3.064   6.768   4.234
   97SAPC  C316 9627   2.907   6.606   4.258
   97SAPC  H16X 9628   2.956   6.537   4.187
   97SAPC  H16Y 9629   2.797   6.603   4.245
   97SAPC  C317 9630   2.938   6.572   4.402
   97SAPC  H17X 9631   2.877   6.643   4.462
   97SAPC  H17Y 9632   3.048   6.582   4.410
   97SAPC  C318 9633   2.906   6.421   4.425
   97SAPC  H18X 9634   2.983   6.357   4.375
   97SAPC  H18Y 9635   2.814   6.404   4.365
   97SAPC  H18Z 9636   2.895   6.395   4.532
   98SAPC     N 9637   4.989   1.777   1.866
   98SAPC   C12 9638   5.062   1.675   1.956
   98SAPC  H12A 9639   5.040   1.580   1.909
   98SAPC  H12B 9640   5.033   1.681   2.060
   98SAPC   C13 9641   5.038   1.776   1.729
   98SAPC  H13A 9642   5.074   1.677   1.702
   98SAPC  H13B 9643   4.956   1.810   1.667
   98SAPC  H13C 9644   5.115   1.851   1.721
   98SAPC   C14 9645   4.850   1.727   1.854
   98SAPC  H14A 9646   4.810   1.728   1.954
   98SAPC  H14B 9647   4.786   1.787   1.790
   98SAPC  H14C 9648   4.864   1.627   1.816
   98SAPC   C15 9649   4.986   1.921   1.925
   98SAPC  H15A 9650   4.965   1.918   2.031
   98SAPC  H15B 9651   5.082   1.969   1.912
   98SAPC  H15C 9652   4.918   1.982   1.868
   98SAPC   C11 9653   5.212   1.687   1.958
   98SAPC  H11A 9654   5.257   1.668   1.858
   98SAPC  H11B 9655   5.255   1.607   2.020
   98SAPC     P 9656   5.275   1.833   2.157
   98SAPC   O13 9657   5.402   1.900   2.187
   98SAPC   O14 9658   5.154   1.886   2.223
   98SAPC   O12 9659   5.261   1.815   1.999
   98SAPC   O11 9660   5.286   1.690   2.216
   98SAPC    C1 9661   5.250   1.660   2.352
   98SAPC    HA 9662   5.238   1.747   2.421
   98SAPC    HB 9663   5.150   1.611   2.347
   98SAPC    C2 9664   5.356   1.561   2.419
   98SAPC    HS 9665   5.299   1.520   2.506
   98SAPC   O21 9666   5.477   1.623   2.455
   98SAPC   C21 9667   5.469   1.709   2.561
   98SAPC   O22 9668   5.375   1.728   2.635
   98SAPC   C22 9669   5.603   1.783   2.574
   98SAPC   H2R 9670   5.636   1.797   2.469
   98SAPC   H2S 9671   5.585   1.871   2.639
   98SAPC    C3 9672   5.384   1.443   2.317
   98SAPC    HX 9673   5.435   1.488   2.229
   98SAPC    HY 9674   5.289   1.391   2.291
   98SAPC   O31 9675   5.458   1.338   2.380
   98SAPC   C31 9676   5.560   1.292   2.313
   98SAPC   O32 9677   5.599   1.338   2.203
   98SAPC   C32 9678   5.618   1.175   2.392
   98SAPC   H2X 9679   5.705   1.135   2.338
   98SAPC   H2Y 9680   5.537   1.098   2.386
   98SAPC   C23 9681   5.710   1.692   2.627
   98SAPC   H3R 9682   5.804   1.750   2.629
   98SAPC   H3S 9683   5.722   1.606   2.558
   98SAPC   C24 9684   5.682   1.640   2.773
   98SAPC   H4R 9685   5.761   1.565   2.793
   98SAPC   H4S 9686   5.587   1.583   2.776
   98SAPC   C25 9687   5.668   1.743   2.879
   98SAPC   H5R 9688   5.671   1.851   2.857
   98SAPC   C26 9689   5.689   1.712   3.009
   98SAPC   H6R 9690   5.696   1.791   3.085
   98SAPC   C27 9691   5.712   1.574   3.072
   98SAPC   H7R 9692   5.811   1.538   3.036
   98SAPC   H7S 9693   5.651   1.498   3.019
   98SAPC   C28 9694   5.706   1.570   3.224
   98SAPC   H8R 9695   5.617   1.632   3.243
   98SAPC   C29 9696   5.763   1.493   3.308
   98SAPC   H9R 9697   5.736   1.507   3.414
   98SAPC  C210 9698   5.864   1.382   3.271
   98SAPC  H10R 9699   5.861   1.357   3.163
   98SAPC  H10S 9700   5.835   1.287   3.322
   98SAPC  C211 9701   6.006   1.409   3.319
   98SAPC  H11R 9702   6.017   1.379   3.424
   98SAPC  C212 9703   6.093   1.484   3.249
   98SAPC  H12R 9704   6.193   1.510   3.289
   98SAPC  C213 9705   6.067   1.559   3.119
   98SAPC  H13R 9706   5.994   1.641   3.134
   98SAPC  H13S 9707   6.011   1.492   3.050
   98SAPC  C214 9708   6.189   1.606   3.046
   98SAPC  H14R 9709   6.277   1.611   3.112
   98SAPC  C215 9710   6.205   1.627   2.915
   98SAPC  H15R 9711   6.296   1.663   2.865
   98SAPC  C216 9712   6.090   1.592   2.824
   98SAPC  H16R 9713   6.101   1.645   2.727
   98SAPC  H16S 9714   5.989   1.619   2.862
   98SAPC  C217 9715   6.089   1.446   2.779
   98SAPC  H17R 9716   6.066   1.382   2.867
   98SAPC  H17S 9717   6.189   1.410   2.748
   98SAPC  C218 9718   5.995   1.416   2.663
   98SAPC  H18R 9719   5.894   1.463   2.671
   98SAPC  H18S 9720   5.980   1.306   2.673
   98SAPC  C219 9721   6.050   1.476   2.536
   98SAPC  H19R 9722   6.153   1.435   2.526
   98SAPC  H19S 9723   6.051   1.586   2.548
   98SAPC  C220 9724   5.984   1.420   2.413
   98SAPC  H20R 9725   6.028   1.462   2.320
   98SAPC  H20S 9726   5.878   1.451   2.415
   98SAPC  H20T 9727   5.996   1.309   2.421
   98SAPC   C33 9728   5.660   1.197   2.544
   98SAPC   H3X 9729   5.701   1.300   2.551
   98SAPC   H3Y 9730   5.740   1.126   2.572
   98SAPC   C34 9731   5.542   1.199   2.641
   98SAPC   H4X 9732   5.493   1.100   2.632
   98SAPC   H4Y 9733   5.472   1.279   2.610
   98SAPC   C35 9734   5.593   1.209   2.783
   98SAPC   H5X 9735   5.647   1.304   2.802
   98SAPC   H5Y 9736   5.674   1.135   2.801
   98SAPC   C36 9737   5.481   1.171   2.888
   98SAPC   H6X 9738   5.430   1.075   2.864
   98SAPC   H6Y 9739   5.402   1.249   2.877
   98SAPC   C37 9740   5.533   1.176   3.029
   98SAPC   H7X 9741   5.576   1.274   3.058
   98SAPC   H7Y 9742   5.614   1.101   3.030
   98SAPC   C38 9743   5.431   1.137   3.143
   98SAPC   H8X 9744   5.399   1.032   3.124
   98SAPC   H8Y 9745   5.347   1.209   3.132
   98SAPC   C39 9746   5.503   1.148   3.276
   98SAPC   H9X 9747   5.559   1.244   3.281
   98SAPC   H9Y 9748   5.571   1.061   3.289
   98SAPC  C310 9749   5.407   1.142   3.400
   98SAPC  H10X 9750   5.334   1.059   3.398
   98SAPC  H10Y 9751   5.367   1.246   3.399
   98SAPC  C311 9752   5.483   1.130   3.530
   98SAPC  H11X 9753   5.535   1.228   3.533
   98SAPC  H11Y 9754   5.553   1.045   3.519
   98SAPC  C312 9755   5.398   1.115   3.657
   98SAPC  H12X 9756   5.362   1.010   3.668
   98SAPC  H12Y 9757   5.310   1.178   3.636
   98SAPC  C313 9758   5.468   1.158   3.783
   98SAPC  H13X 9759   5.495   1.266   3.772
   98SAPC  H13Y 9760   5.565   1.105   3.784
   98SAPC  C314 9761   5.386   1.135   3.906
   98SAPC  H14X 9762   5.387   1.029   3.937
   98SAPC  H14Y 9763   5.279   1.152   3.880
   98SAPC  C315 9764   5.431   1.205   4.028
   98SAPC  H15X 9765   5.373   1.181   4.120
   98SAPC  H15Y 9766   5.424   1.315   4.014
   98SAPC  C316 9767   5.585   1.175   4.050
   98SAPC  H16X 9768   5.644   1.216   3.966
   98SAPC  H16Y 9769   5.589   1.064   4.061
   98SAPC  C317 9770   5.640   1.230   4.186
   98SAPC  H17X 9771   5.621   1.338   4.168
   98SAPC  H17Y 9772   5.750   1.216   4.180
   98SAPC  C318 9773   5.578   1.173   4.312
   98SAPC  H18X 9774   5.597   1.242   4.397
   98SAPC  H18Y 9775   5.620   1.072   4.325
   98SAPC  H18Z 9776   5.467   1.171   4.300
   99SAPC     N 9777   2.685   5.683   2.383
   99SAPC   C12 9778   2.793   5.637   2.284
   99SAPC  H12A 9779   2.889   5.642   2.333
   99SAPC  H12B 9780   2.810   5.713   2.210
   99SAPC   C13 9781   2.659   5.575   2.472
   99SAPC  H13A 9782   2.579   5.596   2.541
   99SAPC  H13B 9783   2.639   5.480   2.424
   99SAPC  H13C 9784   2.746   5.571   2.535
   99SAPC   C14 9785   2.734   5.798   2.472
   99SAPC  H14A 9786   2.835   5.778   2.505
   99SAPC  H14B 9787   2.733   5.889   2.413
   99SAPC  H14C 9788   2.670   5.799   2.559
   99SAPC   C15 9789   2.555   5.709   2.318
   99SAPC  H15A 9790   2.484   5.742   2.392
   99SAPC  H15B 9791   2.572   5.788   2.246
   99SAPC  H15C 9792   2.522   5.629   2.253
   99SAPC   C11 9793   2.785   5.492   2.217
   99SAPC  H11A 9794   2.872   5.488   2.148
   99SAPC  H11B 9795   2.698   5.495   2.148
   99SAPC     P 9796   2.918   5.347   2.382
   99SAPC   O13 9797   2.887   5.255   2.494
   99SAPC   O14 9798   3.008   5.297   2.275
   99SAPC   O12 9799   2.776   5.388   2.321
   99SAPC   O11 9800   2.971   5.494   2.439
   99SAPC    C1 9801   3.109   5.487   2.489
   99SAPC    HA 9802   3.169   5.407   2.441
   99SAPC    HB 9803   3.155   5.582   2.454
   99SAPC    C2 9804   3.134   5.503   2.644
   99SAPC    HS 9805   3.245   5.498   2.646
   99SAPC   O21 9806   3.075   5.397   2.720
   99SAPC   C21 9807   3.154   5.300   2.759
   99SAPC   O22 9808   3.268   5.279   2.717
   99SAPC   C22 9809   3.074   5.220   2.864
   99SAPC   H2R 9810   2.965   5.227   2.844
   99SAPC   H2S 9811   3.105   5.114   2.854
   99SAPC    C3 9812   3.084   5.640   2.694
   99SAPC    HX 9813   2.975   5.624   2.705
   99SAPC    HY 9814   3.101   5.713   2.611
   99SAPC   O31 9815   3.139   5.676   2.830
   99SAPC   C31 9816   3.057   5.673   2.926
   99SAPC   O32 9817   2.940   5.631   2.924
   99SAPC   C32 9818   3.125   5.720   3.054
   99SAPC   H2X 9819   3.106   5.827   3.077
   99SAPC   H2Y 9820   3.235   5.719   3.033
   99SAPC   C23 9821   3.105   5.278   3.003
   99SAPC   H3R 9822   3.067   5.381   3.017
   99SAPC   H3S 9823   3.216   5.283   3.007
   99SAPC   C24 9824   3.044   5.204   3.117
   99SAPC   H4R 9825   3.080   5.253   3.210
   99SAPC   H4S 9826   3.086   5.101   3.110
   99SAPC   C25 9827   2.893   5.188   3.115
   99SAPC   H5R 9828   2.850   5.153   3.021
   99SAPC   C26 9829   2.809   5.179   3.220
   99SAPC   H6R 9830   2.706   5.147   3.198
   99SAPC   C27 9831   2.842   5.190   3.365
   99SAPC   H7R 9832   2.924   5.264   3.376
   99SAPC   H7S 9833   2.885   5.092   3.397
   99SAPC   C28 9834   2.725   5.223   3.450
   99SAPC   H8R 9835   2.648   5.279   3.395
   99SAPC   C29 9836   2.706   5.211   3.587
   99SAPC   H9R 9837   2.619   5.265   3.628
   99SAPC  C210 9838   2.801   5.151   3.689
   99SAPC  H10R 9839   2.840   5.228   3.760
   99SAPC  H10S 9840   2.897   5.125   3.639
   99SAPC  C211 9841   2.741   5.035   3.759
   99SAPC  H11R 9842   2.689   4.964   3.693
   99SAPC  C212 9843   2.763   4.998   3.889
   99SAPC  H12R 9844   2.695   4.920   3.925
   99SAPC  C213 9845   2.848   5.062   3.993
   99SAPC  H13R 9846   2.839   5.013   4.092
   99SAPC  H13S 9847   2.795   5.159   4.002
   99SAPC  C214 9848   2.997   5.093   3.967
   99SAPC  H14R 9849   3.014   5.192   4.010
   99SAPC  C215 9850   3.093   5.027   3.899
   99SAPC  H15R 9851   3.191   5.076   3.893
   99SAPC  C216 9852   3.081   4.887   3.844
   99SAPC  H16R 9853   3.129   4.890   3.744
   99SAPC  H16S 9854   2.977   4.851   3.827
   99SAPC  C217 9855   3.155   4.785   3.928
   99SAPC  H17R 9856   3.264   4.798   3.910
   99SAPC  H17S 9857   3.136   4.681   3.892
   99SAPC  C218 9858   3.128   4.791   4.085
   99SAPC  H18R 9859   3.028   4.755   4.118
   99SAPC  H18S 9860   3.139   4.896   4.117
   99SAPC  C219 9861   3.225   4.698   4.168
   99SAPC  H19R 9862   3.331   4.716   4.141
   99SAPC  H19S 9863   3.198   4.594   4.139
   99SAPC  C220 9864   3.212   4.728   4.317
   99SAPC  H20R 9865   3.108   4.750   4.349
   99SAPC  H20S 9866   3.269   4.822   4.333
   99SAPC  H20T 9867   3.253   4.641   4.372
   99SAPC   C33 9868   3.086   5.637   3.177
   99SAPC   H3X 9869   3.132   5.538   3.159
   99SAPC   H3Y 9870   2.978   5.615   3.186
   99SAPC   C34 9871   3.129   5.714   3.307
   99SAPC   H4X 9872   3.056   5.796   3.326
   99SAPC   H4Y 9873   3.232   5.754   3.293
   99SAPC   C35 9874   3.124   5.628   3.436
   99SAPC   H5X 9875   3.198   5.665   3.511
   99SAPC   H5Y 9876   3.157   5.524   3.414
   99SAPC   C36 9877   2.984   5.624   3.506
   99SAPC   H6X 9878   2.898   5.594   3.443
   99SAPC   H6Y 9879   2.968   5.722   3.556
   99SAPC   C37 9880   2.990   5.514   3.616
   99SAPC   H7X 9881   3.040   5.425   3.573
   99SAPC   H7Y 9882   2.887   5.478   3.638
   99SAPC   C38 9883   3.063   5.554   3.747
   99SAPC   H8X 9884   3.000   5.638   3.785
   99SAPC   H8Y 9885   3.162   5.596   3.717
   99SAPC   C39 9886   3.062   5.444   3.856
   99SAPC   H9X 9887   3.140   5.373   3.822
   99SAPC   H9Y 9888   2.959   5.404   3.869
   99SAPC  C310 9889   3.105   5.489   3.997
   99SAPC  H10X 9890   3.181   5.570   3.997
   99SAPC  H10Y 9891   3.152   5.409   4.059
   99SAPC  C311 9892   2.988   5.553   4.076
   99SAPC  H11X 9893   2.899   5.487   4.073
   99SAPC  H11Y 9894   2.966   5.649   4.024
   99SAPC  C312 9895   3.030   5.591   4.219
   99SAPC  H12X 9896   3.058   5.495   4.269
   99SAPC  H12Y 9897   2.942   5.637   4.269
   99SAPC  C313 9898   3.144   5.685   4.242
   99SAPC  H13X 9899   3.139   5.772   4.174
   99SAPC  H13Y 9900   3.242   5.636   4.221
   99SAPC  C314 9901   3.151   5.740   4.392
   99SAPC  H14X 9902   3.178   5.653   4.456
   99SAPC  H14Y 9903   3.052   5.784   4.419
   99SAPC  C315 9904   3.262   5.853   4.402
   99SAPC  H15X 9905   3.346   5.817   4.340
   99SAPC  H15Y 9906   3.290   5.851   4.509
   99SAPC  C316 9907   3.221   5.987   4.337
   99SAPC  H16X 9908   3.151   6.053   4.394
   99SAPC  H16Y 9909   3.181   5.962   4.237
   99SAPC  C317 9910   3.350   6.079   4.315
   99SAPC  H17X 9911   3.426   6.008   4.276
   99SAPC  H17Y 9912   3.380   6.115   4.416
   99SAPC  C318 9913   3.328   6.213   4.243
   99SAPC  H18X 9914   3.281   6.289   4.309
   99SAPC  H18Y 9915   3.261   6.194   4.157
   99SAPC  H18Z 9916   3.423   6.266   4.219
  100SAPC     N 9917   1.186   4.232   2.005
  100SAPC   C12 9918   1.280   4.322   2.075
  100SAPC  H12A 9919   1.217   4.384   2.138
  100SAPC  H12B 9920   1.336   4.380   2.004
  100SAPC   C13 9921   1.258   4.139   1.906
  100SAPC  H13A 9922   1.185   4.082   1.850
  100SAPC  H13B 9923   1.321   4.189   1.833
  100SAPC  H13C 9924   1.322   4.079   1.969
  100SAPC   C14 9925   1.109   4.140   2.096
  100SAPC  H14A 9926   1.070   4.191   2.184
  100SAPC  H14B 9927   1.029   4.090   2.044
  100SAPC  H14C 9928   1.169   4.059   2.135
  100SAPC   C15 9929   1.096   4.320   1.926
  100SAPC  H15A 9930   1.027   4.259   1.870
  100SAPC  H15B 9931   1.036   4.384   1.990
  100SAPC  H15C 9932   1.142   4.394   1.863
  100SAPC   C11 9933   1.388   4.251   2.169
  100SAPC  H11A 9934   1.333   4.183   2.238
  100SAPC  H11B 9935   1.441   4.335   2.219
  100SAPC     P 9936   1.601   4.224   2.020
  100SAPC   O13 9937   1.668   4.116   1.938
  100SAPC   O14 9938   1.543   4.338   1.945
  100SAPC   O12 9939   1.486   4.163   2.104
  100SAPC   O11 9940   1.708   4.281   2.124
  100SAPC    C1 9941   1.772   4.194   2.215
  100SAPC    HA 9942   1.791   4.093   2.174
  100SAPC    HB 9943   1.868   4.237   2.250
  100SAPC    C2 9944   1.699   4.169   2.353
  100SAPC    HS 9945   1.603   4.125   2.321
  100SAPC   O21 9946   1.688   4.293   2.425
  100SAPC   C21 9947   1.573   4.315   2.474
  100SAPC   O22 9948   1.485   4.231   2.480
  100SAPC   C22 9949   1.569   4.461   2.527
  100SAPC   H2R 9950   1.675   4.491   2.546
  100SAPC   H2S 9951   1.531   4.519   2.441
  100SAPC    C3 9952   1.760   4.045   2.437
  100SAPC    HX 9953   1.869   4.065   2.433
  100SAPC    HY 9954   1.737   3.952   2.381
  100SAPC   O31 9955   1.692   4.034   2.569
  100SAPC   C31 9956   1.759   4.079   2.678
  100SAPC   O32 9957   1.864   4.141   2.678
  100SAPC   C32 9958   1.685   4.043   2.811
  100SAPC   H2X 9959   1.621   4.132   2.827
  100SAPC   H2Y 9960   1.762   4.043   2.892
  100SAPC   C23 9961   1.464   4.490   2.640
  100SAPC   H3R 9962   1.361   4.472   2.604
  100SAPC   H3S 9963   1.482   4.595   2.671
  100SAPC   C24 9964   1.478   4.402   2.775
  100SAPC   H4R 9965   1.471   4.296   2.743
  100SAPC   H4S 9966   1.396   4.427   2.845
  100SAPC   C25 9967   1.604   4.424   2.849
  100SAPC   H5R 9968   1.695   4.434   2.788
  100SAPC   C26 9969   1.618   4.451   2.978
  100SAPC   H6R 9970   1.719   4.471   3.019
  100SAPC   C27 9971   1.503   4.452   3.076
  100SAPC   H7R 9972   1.443   4.360   3.061
  100SAPC   H7S 9973   1.447   4.541   3.042
  100SAPC   C28 9974   1.532   4.477   3.222
  100SAPC   H8R 9975   1.572   4.576   3.249
  100SAPC   C29 9976   1.511   4.387   3.326
  100SAPC   H9R 9977   1.528   4.409   3.432
  100SAPC  C210 9978   1.451   4.250   3.308
  100SAPC  H10R 9979   1.492   4.189   3.391
  100SAPC  H10S 9980   1.482   4.200   3.214
  100SAPC  C211 9981   1.301   4.262   3.315
  100SAPC  H11R 9982   1.256   4.284   3.217
  100SAPC  C212 9983   1.218   4.269   3.422
  100SAPC  H12R 9984   1.109   4.283   3.419
  100SAPC  C213 9985   1.271   4.248   3.567
  100SAPC  H13R 9986   1.374   4.206   3.574
  100SAPC  H13S 9987   1.200   4.176   3.612
  100SAPC  C214 9988   1.261   4.385   3.653
  100SAPC  H14R 9989   1.300   4.472   3.598
  100SAPC  C215 9990   1.189   4.401   3.767
  100SAPC  H15R 9991   1.203   4.485   3.836
  100SAPC  C216 9992   1.112   4.292   3.841
  100SAPC  H16R 9993   1.080   4.204   3.781
  100SAPC  H16S 9994   1.020   4.346   3.871
  100SAPC  C217 9995   1.188   4.245   3.959
  100SAPC  H17R 9996   1.284   4.192   3.943
  100SAPC  H17S 9997   1.125   4.169   4.010
  100SAPC  C218 9998   1.221   4.355   4.067
  100SAPC  H18R 9999   1.116   4.375   4.100
  100SAPC  H18S10000   1.256   4.456   4.037
  100SAPC  C21910001   1.305   4.300   4.186
  100SAPC  H19R10002   1.412   4.283   4.161
  100SAPC  H19S10003   1.261   4.206   4.226
  100SAPC  C22010004   1.302   4.411   4.300
  100SAPC  H20R10005   1.195   4.413   4.329
  100SAPC  H20S10006   1.339   4.514   4.280
  100SAPC  H20T10007   1.361   4.365   4.382
  100SAPC   C3310008   1.598   3.914   2.806
  100SAPC   H3X10009   1.659   3.833   2.761
  100SAPC   H3Y10010   1.511   3.929   2.739
  100SAPC   C3410011   1.549   3.876   2.946
  100SAPC   H4X10012   1.639   3.848   3.004
  100SAPC   H4Y10013   1.464   3.807   2.931
  100SAPC   C3510014   1.481   3.990   3.027
  100SAPC   H5X10015   1.423   4.061   2.963
  100SAPC   H5Y10016   1.559   4.058   3.068
  100SAPC   C3610017   1.395   3.941   3.145
  100SAPC   H6X10018   1.327   3.864   3.103
  100SAPC   H6Y10019   1.347   4.029   3.194
  100SAPC   C3710020   1.482   3.873   3.259
  100SAPC   H7X10021   1.567   3.942   3.275
  100SAPC   H7Y10022   1.531   3.781   3.220
  100SAPC   C3810023   1.400   3.838   3.382
  100SAPC   H8X10024   1.326   3.761   3.352
  100SAPC   H8Y10025   1.335   3.921   3.419
  100SAPC   C3910026   1.469   3.778   3.509
  100SAPC   H9X10027   1.565   3.825   3.539
  100SAPC   H9Y10028   1.495   3.674   3.480
  100SAPC  C31010029   1.369   3.772   3.627
  100SAPC  H10X10030   1.386   3.678   3.685
  100SAPC  H10Y10031   1.272   3.748   3.579
  100SAPC  C31110032   1.350   3.894   3.706
  100SAPC  H11X10033   1.334   3.982   3.639
  100SAPC  H11Y10034   1.444   3.924   3.757
  100SAPC  C31210035   1.233   3.883   3.798
  100SAPC  H12X10036   1.143   3.846   3.744
  100SAPC  H12Y10037   1.205   3.984   3.835
  100SAPC  C31310038   1.263   3.795   3.920
  100SAPC  H13X10039   1.348   3.837   3.978
  100SAPC  H13Y10040   1.289   3.701   3.867
  100SAPC  C31410041   1.163   3.782   4.031
  100SAPC  H14X10042   1.083   3.734   3.970
  100SAPC  H14Y10043   1.142   3.884   4.069
  100SAPC  C31510044   1.193   3.691   4.151
  100SAPC  H15X10045   1.217   3.593   4.106
  100SAPC  H15Y10046   1.097   3.668   4.203
  100SAPC  C31610047   1.296   3.750   4.250
  100SAPC  H16X10048   1.253   3.846   4.288
  100SAPC  H16Y10049   1.390   3.763   4.192
  100SAPC  C31710050   1.312   3.657   4.367
  100SAPC  H17X10051   1.316   3.554   4.324
  100SAPC  H17Y10052   1.224   3.660   4.434
  100SAPC  C31810053   1.440   3.690   4.442
  100SAPC  H18X10054   1.465   3.622   4.527
  100SAPC  H18Y10055   1.436   3.795   4.477
  100SAPC  H18Z10056   1.527   3.688   4.373
  101OSM      N10057   3.245   3.114   6.964
  101OSM    C1510058   3.288   3.190   6.843
  101OSM   H15A10059   3.301   3.295   6.867
  101OSM   H15B10060   3.210   3.167   6.772
  101OSM   H15C10061   3.380   3.149   6.805
  101OSM    C1410062   3.161   3.199   7.043
  101OSM   H14A10063   3.124   3.158   7.136
  101OSM   H14B10064   3.075   3.218   6.980
  101OSM   H14C10065   3.198   3.296   7.074
  101OSM    C1310066   3.174   2.984   6.938
  101OSM   H13A10067   3.150   2.951   7.038
  101OSM   H13B10068   3.230   2.912   6.881
  101OSM   H13C10069   3.076   3.006   6.897
  101OSM    C1210070   3.375   3.096   7.050
  101OSM   H12A10071   3.351   3.064   7.151
  101OSM   H12B10072   3.412   3.194   7.074
  101OSM    C1110073   3.486   3.012   6.982
  101OSM   H11A10074   3.453   2.914   6.940
  101OSM   H11B10075   3.550   2.992   7.070
  101OSM      P10076   3.670   3.034   6.797
  101OSM    O1310077   3.782   3.126   6.783
  101OSM    O1410078   3.700   2.894   6.833
  101OSM    O1110079   3.596   3.017   6.652
  101OSM    O1210080   3.555   3.090   6.892
  101OSM    C1S10081   3.620   3.099   6.542
  101OSM    H1S10082   3.729   3.103   6.521
  101OSM    H1T10083   3.585   3.202   6.562
  101OSM     NF10084   3.615   3.115   6.302
  101OSM    HNF10085   3.566   3.183   6.248
  101OSM    C2S10086   3.557   3.044   6.412
  101OSM    H2S10087   3.582   2.937   6.403
  101OSM    C3S10088   3.404   3.052   6.427
  101OSM    H3S10089   3.382   3.161   6.431
  101OSM     O310090   3.349   3.003   6.551
  101OSM    HO310091   3.427   2.980   6.601
  101OSM    C4S10092   3.320   2.998   6.315
  101OSM    H4S10093   3.304   3.065   6.229
  101OSM    C5S10094   3.268   2.877   6.310
  101OSM    H5S10095   3.291   2.806   6.391
  101OSM    C6S10096   3.180   2.838   6.195
  101OSM    H6S10097   3.072   2.850   6.220
  101OSM    H6T10098   3.204   2.734   6.163
  101OSM    C7S10099   3.190   2.921   6.062
  101OSM    H7S10100   3.293   2.913   6.022
  101OSM    H7T10101   3.164   3.028   6.069
  101OSM    C8S10102   3.098   2.849   5.960
  101OSM    H8S10103   2.993   2.833   5.994
  101OSM    H8T10104   3.142   2.748   5.945
  101OSM    C9S10105   3.096   2.916   5.823
  101OSM    H9S10106   3.200   2.943   5.795
  101OSM    H9T10107   3.040   3.011   5.837
  101OSM   C10S10108   3.020   2.847   5.713
  101OSM   H10S10109   2.910   2.837   5.724
  101OSM   H10T10110   3.062   2.744   5.705
  101OSM   C11S10111   3.034   2.901   5.575
  101OSM   H11S10112   3.069   2.824   5.504
  101OSM   H11T10113   3.113   2.980   5.565
  101OSM   C12S10114   2.904   2.955   5.511
  101OSM   H12S10115   2.830   3.012   5.571
  101OSM   H12T10116   2.839   2.867   5.491
  101OSM   C13S10117   2.927   3.014   5.368
  101OSM   H13S10118   3.030   2.996   5.331
  101OSM   H13T10119   2.906   3.123   5.381
  101OSM   C14S10120   2.826   2.967   5.263
  101OSM   H14S10121   2.730   3.016   5.291
  101OSM   H14T10122   2.820   2.856   5.269
  101OSM   C15S10123   2.863   3.016   5.127
  101OSM   H15S10124   2.968   2.997   5.098
  101OSM   H15T10125   2.846   3.126   5.126
  101OSM   C16S10126   2.774   2.956   5.014
  101OSM   H16S10127   2.670   2.952   5.052
  101OSM   H16T10128   2.813   2.855   4.990
  101OSM   C17S10129   2.776   3.034   4.882
  101OSM   H17S10130   2.877   3.027   4.836
  101OSM   H17T10131   2.754   3.141   4.904
  101OSM   C18S10132   2.684   2.971   4.780
  101OSM   H18S10133   2.579   2.975   4.818
  101OSM   H18T10134   2.716   2.868   4.754
  101OSM   H18U10135   2.674   3.042   4.695
  101OSM    C1F10136   3.742   3.083   6.265
  101OSM     OF10137   3.800   2.989   6.315
  101OSM    C2F10138   3.806   3.188   6.175
  101OSM    H2F10139   3.858   3.255   6.247
  101OSM    H2G10140   3.717   3.235   6.129
  101OSM    C3F10141   3.896   3.118   6.073
  101OSM    H3F10142   3.833   3.036   6.031
  101OSM    H3G10143   3.978   3.055   6.113
  101OSM    C4F10144   3.940   3.213   5.957
  101OSM    H4F10145   4.014   3.287   5.994
  101OSM    H4G10146   3.850   3.265   5.917
  101OSM    C5F10147   4.010   3.142   5.846
  101OSM    H5F10148   3.935   3.076   5.796
  101OSM    H5G10149   4.087   3.076   5.890
  101OSM    C6F10150   4.076   3.240   5.749
  101OSM    H6F10151   4.152   3.304   5.800
  101OSM    H6G10152   4.014   3.319   5.701
  101OSM    C7F10153   4.152   3.181   5.627
  101OSM    H7F10154   4.090   3.107   5.572
  101OSM    H7G10155   4.240   3.126   5.668
  101OSM    C8F10156   4.207   3.288   5.536
  101OSM    H8F10157   4.281   3.243   5.468
  101OSM    H8G10158   4.250   3.365   5.604
  101OSM    C9F10159   4.100   3.356   5.450
  101OSM    H9F10160   4.009   3.380   5.507
  101OSM   C10F10161   4.107   3.373   5.315
  101OSM   H10F10162   4.020   3.428   5.276
  101OSM   C11F10163   4.223   3.345   5.228
  101OSM   H11F10164   4.214   3.244   5.182
  101OSM   H11G10165   4.311   3.358   5.295
  101OSM   C12F10166   4.233   3.447   5.118
  101OSM   H12F10167   4.339   3.439   5.086
  101OSM   H12G10168   4.217   3.549   5.160
  101OSM   C13F10169   4.146   3.421   4.993
  101OSM   H13F10170   4.145   3.507   4.923
  101OSM   H13G10171   4.044   3.414   5.035
  101OSM   C14F10172   4.190   3.293   4.926
  101OSM   H14F10173   4.152   3.203   4.980
  101OSM   H14G10174   4.300   3.277   4.923
  101OSM   C15F10175   4.129   3.284   4.785
  101OSM   H15F10176   4.164   3.377   4.734
  101OSM   H15G10177   4.020   3.297   4.803
  101OSM   C16F10178   4.171   3.158   4.707
  101OSM   H16F10179   4.166   3.063   4.764
  101OSM   H16G10180   4.277   3.169   4.677
  101OSM   C17F10181   4.089   3.125   4.581
  101OSM   H17F10182   4.107   3.204   4.506
  101OSM   H17G10183   3.981   3.120   4.604
  101OSM   C18F10184   4.131   2.990   4.515
  101OSM   H18F10185   4.234   2.995   4.471
  101OSM   H18G10186   4.063   2.980   4.428
  101OSM   H18H10187   4.112   2.911   4.589
  102OSM      N10188   4.076   2.426   7.062
  102OSM    C1510189   4.178   2.410   6.952
  102OSM   H15A10190   4.141   2.345   6.874
  102OSM   H15B10191   4.261   2.352   6.990
  102OSM   H15C10192   4.208   2.508   6.917
  102OSM    C1410193   4.014   2.297   7.097
  102OSM   H14A10194   3.951   2.313   7.183
  102OSM   H14B10195   4.083   2.220   7.131
  102OSM   H14C10196   3.958   2.251   7.018
  102OSM    C1310197   4.145   2.492   7.183
  102OSM   H13A10198   4.170   2.595   7.161
  102OSM   H13B10199   4.228   2.430   7.216
  102OSM   H13C10200   4.074   2.505   7.262
  102OSM    C1210201   3.970   2.512   7.000
  102OSM   H12A10202   3.996   2.617   7.011
  102OSM   H12B10203   3.880   2.500   7.059
  102OSM    C1110204   3.934   2.484   6.853
  102OSM   H11A10205   4.019   2.493   6.782
  102OSM   H11B10206   3.865   2.564   6.818
  102OSM      P10207   3.720   2.333   6.847
  102OSM    O1310208   3.699   2.187   6.868
  102OSM    O1410209   3.659   2.426   6.947
  102OSM    O1110210   3.673   2.378   6.700
  102OSM    O1210211   3.870   2.353   6.843
  102OSM    C1S10212   3.770   2.341   6.600
  102OSM    H1S10213   3.798   2.234   6.602
  102OSM    H1T10214   3.868   2.392   6.614
  102OSM     NF10215   3.816   2.365   6.358
  102OSM    HNF10216   3.875   2.438   6.323
  102OSM    C2S10217   3.719   2.394   6.461
  102OSM    H2S10218   3.628   2.338   6.430
  102OSM    C3S10219   3.681   2.552   6.465
  102OSM    H3S10220   3.766   2.618   6.492
  102OSM     O310221   3.588   2.577   6.568
  102OSM    HO310222   3.603   2.505   6.630
  102OSM    C4S10223   3.612   2.593   6.335
  102OSM    H4S10224   3.535   2.523   6.303
  102OSM    C5S10225   3.652   2.694   6.247
  102OSM    H5S10226   3.730   2.767   6.274
  102OSM    C6S10227   3.565   2.718   6.132
  102OSM    H6S10228   3.552   2.828   6.122
  102OSM    H6T10229   3.467   2.670   6.149
  102OSM    C7S10230   3.631   2.677   5.999
  102OSM    H7S10231   3.618   2.568   5.983
  102OSM    H7T10232   3.740   2.698   6.006
  102OSM    C8S10233   3.562   2.744   5.875
  102OSM    H8S10234   3.585   2.853   5.867
  102OSM    H8T10235   3.455   2.716   5.873
  102OSM    C9S10236   3.614   2.692   5.738
  102OSM    H9S10237   3.622   2.581   5.733
  102OSM    H9T10238   3.714   2.730   5.710
  102OSM   C10S10239   3.518   2.729   5.629
  102OSM   H10S10240   3.518   2.839   5.611
  102OSM   H10T10241   3.414   2.693   5.644
  102OSM   C11S10242   3.564   2.666   5.489
  102OSM   H11S10243   3.557   2.556   5.502
  102OSM   H11T10244   3.669   2.691   5.461
  102OSM   C12S10245   3.479   2.703   5.372
  102OSM   H12S10246   3.372   2.701   5.400
  102OSM   H12T10247   3.487   2.630   5.289
  102OSM   C13S10248   3.520   2.839   5.317
  102OSM   H13S10249   3.619   2.824   5.268
  102OSM   H13T10250   3.534   2.910   5.401
  102OSM   C14S10251   3.419   2.905   5.224
  102OSM   H14S10252   3.454   3.002   5.182
  102OSM   H14T10253   3.325   2.933   5.276
  102OSM   C15S10254   3.392   2.823   5.094
  102OSM   H15S10255   3.369   2.716   5.114
  102OSM   H15T10256   3.490   2.806   5.046
  102OSM   C16S10257   3.293   2.875   4.991
  102OSM   H16S10258   3.340   2.962   4.940
  102OSM   H16T10259   3.209   2.921   5.047
  102OSM   C17S10260   3.242   2.770   4.888
  102OSM   H17S10261   3.330   2.717   4.846
  102OSM   H17T10262   3.215   2.825   4.796
  102OSM   C18S10263   3.124   2.693   4.935
  102OSM   H18S10264   3.106   2.599   4.880
  102OSM   H18T10265   3.036   2.761   4.926
  102OSM   H18U10266   3.134   2.664   5.042
  102OSM    C1F10267   3.843   2.245   6.317
  102OSM     OF10268   3.797   2.150   6.376
  102OSM    C2F10269   3.943   2.227   6.201
  102OSM    H2F10270   4.008   2.138   6.217
  102OSM    H2G10271   3.996   2.325   6.200
  102OSM    C3F10272   3.873   2.199   6.071
  102OSM    H3F10273   3.796   2.119   6.075
  102OSM    H3G10274   3.959   2.166   6.009
  102OSM    C4F10275   3.804   2.333   6.013
  102OSM    H4F10276   3.880   2.414   6.018
  102OSM    H4G10277   3.716   2.351   6.079
  102OSM    C5F10278   3.754   2.311   5.872
  102OSM    H5F10279   3.681   2.387   5.839
  102OSM    H5G10280   3.708   2.210   5.875
  102OSM    C6F10281   3.864   2.297   5.758
  102OSM    H6F10282   3.953   2.242   5.795
  102OSM    H6G10283   3.895   2.401   5.736
  102OSM    C7F10284   3.805   2.246   5.625
  102OSM    H7F10285   3.729   2.322   5.597
  102OSM    H7G10286   3.765   2.142   5.629
  102OSM    C8F10287   3.915   2.250   5.511
  102OSM    H8F10288   4.004   2.199   5.555
  102OSM    H8G10289   3.941   2.357   5.502
  102OSM    C9F10290   3.880   2.181   5.381
  102OSM    H9F10291   3.878   2.071   5.388
  102OSM   C10F10292   3.851   2.235   5.261
  102OSM   H10F10293   3.833   2.160   5.183
  102OSM   C11F10294   3.837   2.380   5.225
  102OSM   H11F10295   3.941   2.417   5.213
  102OSM   H11G10296   3.801   2.445   5.308
  102OSM   C12F10297   3.752   2.424   5.098
  102OSM   H12F10298   3.797   2.380   5.006
  102OSM   H12G10299   3.764   2.534   5.089
  102OSM   C13F10300   3.604   2.390   5.112
  102OSM   H13F10301   3.566   2.421   5.211
  102OSM   H13G10302   3.595   2.279   5.121
  102OSM   C14F10303   3.530   2.459   4.997
  102OSM   H14F10304   3.583   2.425   4.905
  102OSM   H14G10305   3.556   2.566   5.009
  102OSM   C15F10306   3.377   2.434   4.996
  102OSM   H15F10307   3.322   2.483   4.913
  102OSM   H15G10308   3.335   2.482   5.087
  102OSM   C16F10309   3.347   2.284   4.993
  102OSM   H16F10310   3.391   2.230   5.080
  102OSM   H16G10311   3.396   2.246   4.901
  102OSM   C17F10312   3.201   2.246   4.981
  102OSM   H17F10313   3.163   2.278   4.881
  102OSM   H17G10314   3.139   2.299   5.056
  102OSM   C18F10315   3.176   2.101   5.010
  102OSM   H18F10316   3.202   2.091   5.117
  102OSM   H18G10317   3.255   2.041   4.959
  102OSM   H18H10318   3.074   2.059   4.993
  103OSM      N10319   3.873   4.914   7.163
  103OSM    C1510320   3.755   4.997   7.133
  103OSM   H15A10321   3.677   4.953   7.073
  103OSM   H15B10322   3.791   5.080   7.074
  103OSM   H15C10323   3.704   5.028   7.223
  103OSM    C1410324   3.960   4.980   7.272
  103OSM   H14A10325   3.996   5.075   7.236
  103OSM   H14B10326   4.043   4.917   7.301
  103OSM   H14C10327   3.903   4.993   7.362
  103OSM    C1310328   3.817   4.783   7.228
  103OSM   H13A10329   3.740   4.749   7.160
  103OSM   H13B10330   3.762   4.802   7.319
  103OSM   H13C10331   3.898   4.714   7.248
  103OSM    C1210332   3.945   4.880   7.038
  103OSM   H12A10333   4.029   4.821   7.072
  103OSM   H12B10334   3.987   4.969   6.993
  103OSM    C1110335   3.882   4.798   6.924
  103OSM   H11A10336   3.799   4.856   6.878
  103OSM   H11B10337   3.842   4.702   6.963
  103OSM      P10338   4.042   4.865   6.728
  103OSM    O1310339   3.927   4.945   6.669
  103OSM    O1410340   4.155   4.938   6.792
  103OSM    O1110341   4.101   4.783   6.611
  103OSM    O1210342   3.986   4.762   6.833
  103OSM    C1S10343   4.145   4.645   6.633
  103OSM    H1S10344   4.070   4.583   6.687
  103OSM    H1T10345   4.243   4.643   6.686
  103OSM     NF10346   4.180   4.435   6.519
  103OSM    HNF10347   4.263   4.384   6.494
  103OSM    C2S10348   4.164   4.573   6.494
  103OSM    H2S10349   4.073   4.585   6.431
  103OSM    C3S10350   4.290   4.637   6.431
  103OSM    H3S10351   4.376   4.616   6.499
  103OSM     O310352   4.287   4.781   6.421
  103OSM    HO310353   4.212   4.803   6.477
  103OSM    C4S10354   4.325   4.577   6.295
  103OSM    H4S10355   4.401   4.498   6.303
  103OSM    C5S10356   4.284   4.618   6.177
  103OSM    H5S10357   4.209   4.698   6.183
  103OSM    C6S10358   4.308   4.557   6.041
  103OSM    H6S10359   4.219   4.510   5.995
  103OSM    H6T10360   4.379   4.475   6.061
  103OSM    C7S10361   4.383   4.656   5.953
  103OSM    H7S10362   4.475   4.689   6.005
  103OSM    H7T10363   4.336   4.753   5.926
  103OSM    C8S10364   4.410   4.596   5.810
  103OSM    H8S10365   4.346   4.505   5.807
  103OSM    H8T10366   4.512   4.552   5.815
  103OSM    C9S10367   4.376   4.676   5.683
  103OSM    H9S10368   4.458   4.745   5.655
  103OSM    H9T10369   4.287   4.738   5.707
  103OSM   C10S10370   4.350   4.583   5.563
  103OSM   H10S10371   4.243   4.557   5.576
  103OSM   H10T10372   4.412   4.493   5.580
  103OSM   C11S10373   4.355   4.663   5.436
  103OSM   H11S10374   4.457   4.702   5.417
  103OSM   H11T10375   4.295   4.755   5.454
  103OSM   C12S10376   4.298   4.593   5.312
  103OSM   H12S10377   4.195   4.557   5.329
  103OSM   H12T10378   4.353   4.498   5.295
  103OSM   C13S10379   4.276   4.692   5.190
  103OSM   H13S10380   4.379   4.728   5.172
  103OSM   H13T10381   4.205   4.772   5.220
  103OSM   C14S10382   4.222   4.632   5.057
  103OSM   H14S10383   4.219   4.717   4.985
  103OSM   H14T10384   4.115   4.601   5.059
  103OSM   C15S10385   4.311   4.522   5.001
  103OSM   H15S10386   4.308   4.436   5.071
  103OSM   H15T10387   4.416   4.559   4.993
  103OSM   C16S10388   4.259   4.471   4.867
  103OSM   H16S10389   4.261   4.551   4.789
  103OSM   H16T10390   4.152   4.443   4.876
  103OSM   C17S10391   4.344   4.354   4.816
  103OSM   H17S10392   4.329   4.269   4.887
  103OSM   H17T10393   4.454   4.370   4.821
  103OSM   C18S10394   4.312   4.318   4.671
  103OSM   H18S10395   4.370   4.229   4.639
  103OSM   H18T10396   4.331   4.405   4.604
  103OSM   H18U10397   4.203   4.298   4.655
  103OSM    C1F10398   4.083   4.355   6.556
  103OSM     OF10399   3.968   4.393   6.565
  103OSM    C2F10400   4.119   4.212   6.595
  103OSM    H2F10401   4.071   4.196   6.694
  103OSM    H2G10402   4.230   4.204   6.594
  103OSM    C3F10403   4.055   4.111   6.498
  103OSM    H3F10404   3.944   4.118   6.498
  103OSM    H3G10405   4.080   4.009   6.534
  103OSM    C4F10406   4.115   4.128   6.355
  103OSM    H4F10407   4.221   4.093   6.350
  103OSM    H4G10408   4.114   4.233   6.321
  103OSM    C5F10409   4.032   4.054   6.251
  103OSM    H5F10410   3.952   3.994   6.298
  103OSM    H5G10411   4.108   3.990   6.201
  103OSM    C6F10412   3.980   4.147   6.142
  103OSM    H6F10413   4.058   4.222   6.115
  103OSM    H6G10414   3.889   4.205   6.167
  103OSM    C7F10415   3.943   4.062   6.020
  103OSM    H7F10416   3.878   3.976   6.043
  103OSM    H7G10417   4.027   4.010   5.968
  103OSM    C8F10418   3.881   4.153   5.909
  103OSM    H8F10419   3.942   4.245   5.894
  103OSM    H8G10420   3.785   4.182   5.958
  103OSM    C9F10421   3.837   4.098   5.772
  103OSM    H9F10422   3.746   4.036   5.765
  103OSM   C10F10423   3.907   4.112   5.660
  103OSM   H10F10424   3.865   4.076   5.565
  103OSM   C11F10425   4.032   4.182   5.644
  103OSM   H11F10426   4.097   4.129   5.571
  103OSM   H11G10427   4.091   4.170   5.738
  103OSM   C12F10428   4.033   4.332   5.618
  103OSM   H12F10429   4.134   4.361   5.652
  103OSM   H12G10430   3.963   4.389   5.683
  103OSM   C13F10431   4.054   4.385   5.476
  103OSM   H13F10432   4.158   4.363   5.444
  103OSM   H13G10433   4.037   4.494   5.474
  103OSM   C14F10434   3.955   4.308   5.386
  103OSM   H14F10435   3.851   4.335   5.412
  103OSM   H14G10436   3.976   4.199   5.387
  103OSM   C15F10437   3.976   4.340   5.238
  103OSM   H15F10438   4.081   4.318   5.209
  103OSM   H15G10439   3.967   4.449   5.217
  103OSM   C16F10440   3.877   4.268   5.152
  103OSM   H16F10441   3.778   4.315   5.165
  103OSM   H16G10442   3.867   4.159   5.171
  103OSM   C17F10443   3.913   4.290   5.003
  103OSM   H17F10444   4.021   4.276   4.977
  103OSM   H17G10445   3.897   4.397   4.980
  103OSM   C18F10446   3.841   4.204   4.898
  103OSM   H18F10447   3.738   4.183   4.933
  103OSM   H18G10448   3.893   4.107   4.877
  103OSM   H18H10449   3.828   4.267   4.808
  104OSM      N10450   4.690   2.810   6.861
  104OSM    C1510451   4.692   2.943   6.937
  104OSM   H15A10452   4.703   2.920   7.042
  104OSM   H15B10453   4.598   2.995   6.929
  104OSM   H15C10454   4.772   3.013   6.917
  104OSM    C1410455   4.806   2.722   6.886
  104OSM   H14A10456   4.819   2.716   6.993
  104OSM   H14B10457   4.901   2.760   6.852
  104OSM   H14C10458   4.779   2.622   6.858
  104OSM    C1310459   4.562   2.742   6.881
  104OSM   H13A10460   4.481   2.812   6.865
  104OSM   H13B10461   4.552   2.726   6.987
  104OSM   H13C10462   4.545   2.647   6.833
  104OSM    C1210463   4.685   2.862   6.710
  104OSM   H12A10464   4.590   2.911   6.698
  104OSM   H12B10465   4.678   2.775   6.648
  104OSM    C1110466   4.806   2.940   6.659
  104OSM   H11A10467   4.803   3.042   6.702
  104OSM   H11B10468   4.788   2.951   6.550
  104OSM      P10469   5.067   2.919   6.686
  104OSM    O1310470   5.059   3.051   6.749
  104OSM    O1410471   5.159   2.817   6.746
  104OSM    O1110472   5.113   2.935   6.534
  104OSM    O1210473   4.919   2.867   6.675
  104OSM    C1S10474   5.050   2.867   6.425
  104OSM    H1S10475   4.970   2.930   6.381
  104OSM    H1T10476   5.027   2.759   6.436
  104OSM     NF10477   5.078   2.859   6.183
  104OSM    HNF10478   5.029   2.776   6.158
  104OSM    C2S10479   5.154   2.866   6.308
  104OSM    H2S10480   5.205   2.964   6.310
  104OSM    C3S10481   5.272   2.763   6.319
  104OSM    H3S10482   5.223   2.664   6.307
  104OSM     O310483   5.339   2.758   6.444
  104OSM    HO310484   5.278   2.802   6.502
  104OSM    C4S10485   5.379   2.774   6.217
  104OSM    H4S10486   5.407   2.880   6.210
  104OSM    C5S10487   5.432   2.682   6.135
  104OSM    H5S10488   5.407   2.575   6.145
  104OSM    C6S10489   5.525   2.706   6.026
  104OSM    H6S10490   5.546   2.612   5.972
  104OSM    H6T10491   5.619   2.756   6.060
  104OSM    C7S10492   5.466   2.794   5.915
  104OSM    H7S10493   5.539   2.806   5.832
  104OSM    H7T10494   5.442   2.893   5.958
  104OSM    C8S10495   5.341   2.736   5.840
  104OSM    H8S10496   5.250   2.784   5.880
  104OSM    H8T10497   5.339   2.625   5.851
  104OSM    C9S10498   5.334   2.771   5.690
  104OSM    H9S10499   5.426   2.720   5.653
  104OSM    H9T10500   5.349   2.881   5.680
  104OSM   C10S10501   5.207   2.734   5.624
  104OSM   H10S10502   5.127   2.790   5.677
  104OSM   H10T10503   5.192   2.625   5.641
  104OSM   C11S10504   5.208   2.755   5.471
  104OSM   H11S10505   5.293   2.704   5.421
  104OSM   H11T10506   5.216   2.865   5.454
  104OSM   C12S10507   5.079   2.706   5.405
  104OSM   H12S10508   4.986   2.747   5.450
  104OSM   H12T10509   5.068   2.597   5.420
  104OSM   C13S10510   5.072   2.726   5.250
  104OSM   H13S10511   5.160   2.683   5.198
  104OSM   H13T10512   5.081   2.836   5.238
  104OSM   C14S10513   4.946   2.676   5.176
  104OSM   H14S10514   4.854   2.722   5.219
  104OSM   H14T10515   4.939   2.566   5.181
  104OSM   C15S10516   4.947   2.707   5.024
  104OSM   H15S10517   5.050   2.707   4.982
  104OSM   H15T10518   4.895   2.801   4.998
  104OSM   C16S10519   4.875   2.600   4.949
  104OSM   H16S10520   4.780   2.567   4.996
  104OSM   H16T10521   4.928   2.502   4.951
  104OSM   C17S10522   4.852   2.631   4.801
  104OSM   H17S10523   4.952   2.638   4.753
  104OSM   H17T10524   4.809   2.733   4.802
  104OSM   C18S10525   4.775   2.528   4.713
  104OSM   H18S10526   4.676   2.497   4.754
  104OSM   H18T10527   4.837   2.437   4.702
  104OSM   H18U10528   4.768   2.572   4.612
  104OSM    C1F10529   5.012   2.960   6.134
  104OSM     OF10530   5.031   3.070   6.178
  104OSM    C2F10531   4.911   2.934   6.030
  104OSM    H2F10532   4.813   2.958   6.077
  104OSM    H2G10533   4.905   2.829   5.993
  104OSM    C3F10534   4.958   3.014   5.909
  104OSM    H3F10535   5.062   2.994   5.875
  104OSM    H3G10536   4.964   3.124   5.927
  104OSM    C4F10537   4.863   2.996   5.789
  104OSM    H4F10538   4.762   3.026   5.825
  104OSM    H4G10539   4.856   2.895   5.744
  104OSM    C5F10540   4.898   3.092   5.672
  104OSM    H5F10541   5.005   3.074   5.648
  104OSM    H5G10542   4.882   3.198   5.700
  104OSM    C6F10543   4.819   3.055   5.545
  104OSM    H6F10544   4.715   3.052   5.584
  104OSM    H6G10545   4.853   2.952   5.519
  104OSM    C7F10546   4.831   3.166   5.447
  104OSM    H7F10547   4.832   3.258   5.510
  104OSM    H7G10548   4.741   3.180   5.384
  104OSM    C8F10549   4.947   3.154   5.347
  104OSM    H8F10550   4.927   3.056   5.299
  104OSM    H8G10551   5.041   3.153   5.406
  104OSM    C9F10552   4.946   3.268   5.252
  104OSM    H9F10553   4.907   3.361   5.296
  104OSM   C10F10554   4.942   3.258   5.122
  104OSM   H10F10555   4.929   3.352   5.067
  104OSM   C11F10556   4.936   3.134   5.036
  104OSM   H11F10557   4.931   3.043   5.100
  104OSM   H11G10558   5.037   3.129   4.990
  104OSM   C12F10559   4.832   3.128   4.923
  104OSM   H12F10560   4.734   3.167   4.959
  104OSM   H12G10561   4.835   3.019   4.903
  104OSM   C13F10562   4.881   3.195   4.794
  104OSM   H13F10563   4.818   3.161   4.709
  104OSM   H13G10564   4.983   3.153   4.780
  104OSM   C14F10565   4.893   3.344   4.791
  104OSM   H14F10566   4.967   3.377   4.867
  104OSM   H14G10567   4.797   3.393   4.816
  104OSM   C15F10568   4.942   3.401   4.655
  104OSM   H15F10569   4.941   3.512   4.663
  104OSM   H15G10570   4.881   3.380   4.564
  104OSM   C16F10571   5.088   3.361   4.631
  104OSM   H16F10572   5.110   3.259   4.669
  104OSM   H16G10573   5.153   3.433   4.687
  104OSM   C17F10574   5.130   3.381   4.483
  104OSM   H17F10575   5.101   3.484   4.454
  104OSM   H17G10576   5.064   3.316   4.422
  104OSM   C18F10577   5.278   3.341   4.456
  104OSM   H18F10578   5.322   3.376   4.361
  104OSM   H18G10579   5.284   3.230   4.457
  104OSM   H18H10580   5.332   3.378   4.545
  105OSM      N10581   5.711   3.465   6.974
  105OSM    C1510582   5.656   3.391   6.852
  105OSM   H15A10583   5.548   3.389   6.850
  105OSM   H15B10584   5.696   3.291   6.859
  105OSM   H15C10585   5.681   3.446   6.762
  105OSM    C1410586   5.676   3.387   7.098
  105OSM   H14A10587   5.702   3.440   7.189
  105OSM   H14B10588   5.714   3.286   7.100
  105OSM   H14C10589   5.571   3.363   7.109
  105OSM    C1310590   5.855   3.456   6.956
  105OSM   H13A10591   5.903   3.505   7.039
  105OSM   H13B10592   5.889   3.489   6.859
  105OSM   H13C10593   5.889   3.354   6.967
  105OSM    C1210594   5.670   3.614   6.979
  105OSM   H12A10595   5.712   3.668   7.063
  105OSM   H12B10596   5.563   3.612   6.993
  105OSM    C1110597   5.708   3.698   6.849
  105OSM   H11A10598   5.661   3.799   6.850
  105OSM   H11B10599   5.661   3.653   6.759
  105OSM      P10600   5.941   3.827   6.858
  105OSM    O1310601   5.900   3.862   6.996
  105OSM    O1410602   6.078   3.787   6.818
  105OSM    O1110603   5.885   3.937   6.763
  105OSM    O1210604   5.854   3.701   6.826
  105OSM    C1S10605   5.868   3.904   6.623
  105OSM    H1S10606   5.865   3.795   6.601
  105OSM    H1T10607   5.951   3.945   6.561
  105OSM     NF10608   5.736   3.958   6.418
  105OSM    HNF10609   5.749   4.041   6.365
  105OSM    C2S10610   5.733   3.969   6.563
  105OSM    H2S10611   5.648   3.913   6.606
  105OSM    C3S10612   5.723   4.115   6.617
  105OSM    H3S10613   5.809   4.177   6.584
  105OSM     O310614   5.697   4.136   6.756
  105OSM    HO310615   5.718   4.053   6.799
  105OSM    C4S10616   5.597   4.175   6.558
  105OSM    H4S10617   5.508   4.169   6.622
  105OSM    C5S10618   5.592   4.275   6.462
  105OSM    H5S10619   5.678   4.325   6.416
  105OSM    C6S10620   5.460   4.336   6.403
  105OSM    H6S10621   5.443   4.413   6.481
  105OSM    H6T10622   5.365   4.278   6.413
  105OSM    C7S10623   5.477   4.364   6.254
  105OSM    H7S10624   5.576   4.399   6.217
  105OSM    H7T10625   5.400   4.441   6.232
  105OSM    C8S10626   5.440   4.247   6.164
  105OSM    H8S10627   5.336   4.216   6.188
  105OSM    H8T10628   5.509   4.163   6.186
  105OSM    C9S10629   5.467   4.280   6.017
  105OSM    H9S10630   5.573   4.312   6.007
  105OSM    H9T10631   5.399   4.352   5.965
  105OSM   C10S10632   5.465   4.150   5.935
  105OSM   H10S10633   5.359   4.117   5.925
  105OSM   H10T10634   5.522   4.066   5.980
  105OSM   C11S10635   5.523   4.186   5.796
  105OSM   H11S10636   5.547   4.087   5.753
  105OSM   H11T10637   5.618   4.240   5.815
  105OSM   C12S10638   5.435   4.245   5.696
  105OSM   H12S10639   5.496   4.279   5.610
  105OSM   H12T10640   5.396   4.342   5.733
  105OSM   C13S10641   5.313   4.167   5.650
  105OSM   H13S10642   5.239   4.162   5.732
  105OSM   H13T10643   5.350   4.064   5.631
  105OSM   C14S10644   5.257   4.220   5.521
  105OSM   H14S10645   5.325   4.273   5.451
  105OSM   H14T10646   5.184   4.297   5.554
  105OSM   C15S10647   5.179   4.116   5.432
  105OSM   H15S10648   5.122   4.045   5.496
  105OSM   H15T10649   5.254   4.050   5.384
  105OSM   C16S10650   5.087   4.182   5.333
  105OSM   H16S10651   5.143   4.250   5.266
  105OSM   H16T10652   5.006   4.234   5.390
  105OSM   C17S10653   5.006   4.085   5.243
  105OSM   H17S10654   5.084   4.020   5.199
  105OSM   H17T10655   4.959   4.151   5.167
  105OSM   C18S10656   4.894   4.006   5.315
  105OSM   H18S10657   4.880   3.914   5.254
  105OSM   H18T10658   4.801   4.066   5.325
  105OSM   H18U10659   4.930   3.967   5.413
  105OSM    C1F10660   5.736   3.843   6.360
  105OSM     OF10661   5.692   3.740   6.416
  105OSM    C2F10662   5.800   3.833   6.229
  105OSM    H2F10663   5.877   3.754   6.239
  105OSM    H2G10664   5.840   3.931   6.197
  105OSM    C3F10665   5.700   3.782   6.124
  105OSM    H3F10666   5.619   3.857   6.111
  105OSM    H3G10667   5.659   3.685   6.160
  105OSM    C4F10668   5.758   3.761   5.979
  105OSM    H4F10669   5.823   3.671   5.984
  105OSM    H4G10670   5.825   3.843   5.945
  105OSM    C5F10671   5.657   3.738   5.870
  105OSM    H5F10672   5.603   3.835   5.869
  105OSM    H5G10673   5.588   3.657   5.900
  105OSM    C6F10674   5.720   3.699   5.735
  105OSM    H6F10675   5.763   3.597   5.747
  105OSM    H6G10676   5.792   3.776   5.702
  105OSM    C7F10677   5.617   3.678   5.622
  105OSM    H7F10678   5.553   3.769   5.625
  105OSM    H7G10679   5.560   3.591   5.660
  105OSM    C8F10680   5.685   3.643   5.492
  105OSM    H8F10681   5.740   3.546   5.498
  105OSM    H8G10682   5.756   3.722   5.461
  105OSM    C9F10683   5.586   3.620   5.380
  105OSM    H9F10684   5.543   3.519   5.384
  105OSM   C10F10685   5.557   3.696   5.272
  105OSM   H10F10686   5.477   3.659   5.206
  105OSM   C11F10687   5.608   3.836   5.248
  105OSM   H11F10688   5.615   3.832   5.137
  105OSM   H11G10689   5.708   3.861   5.290
  105OSM   C12F10690   5.506   3.935   5.301
  105OSM   H12F10691   5.511   3.929   5.412
  105OSM   H12G10692   5.401   3.908   5.278
  105OSM   C13F10693   5.504   4.083   5.254
  105OSM   H13F10694   5.611   4.111   5.251
  105OSM   H13G10695   5.462   4.145   5.336
  105OSM   C14F10696   5.416   4.100   5.126
  105OSM   H14F10697   5.323   4.041   5.139
  105OSM   H14G10698   5.475   4.050   5.046
  105OSM   C15F10699   5.389   4.249   5.095
  105OSM   H15F10700   5.486   4.300   5.115
  105OSM   H15G10701   5.310   4.293   5.160
  105OSM   C16F10702   5.359   4.258   4.945
  105OSM   H16F10703   5.420   4.189   4.884
  105OSM   H16G10704   5.388   4.361   4.913
  105OSM   C17F10705   5.217   4.226   4.920
  105OSM   H17F10706   5.157   4.284   4.993
  105OSM   H17G10707   5.201   4.118   4.939
  105OSM   C18F10708   5.170   4.251   4.779
  105OSM   H18F10709   5.184   4.360   4.762
  105OSM   H18G10710   5.064   4.219   4.767
  105OSM   H18H10711   5.235   4.205   4.701
  106OSM      N10712   3.688   1.135   7.001
  106OSM    C1510713   3.821   1.204   7.034
  106OSM   H15A10714   3.836   1.277   6.955
  106OSM   H15B10715   3.903   1.135   7.042
  106OSM   H15C10716   3.820   1.250   7.131
  106OSM    C1410717   3.706   1.073   6.865
  106OSM   H14A10718   3.718   1.154   6.794
  106OSM   H14B10719   3.630   1.002   6.837
  106OSM   H14C10720   3.792   1.008   6.856
  106OSM    C1310721   3.657   1.030   7.105
  106OSM   H13A10722   3.733   0.953   7.097
  106OSM   H13B10723   3.565   0.978   7.082
  106OSM   H13C10724   3.656   1.055   7.210
  106OSM    C1210725   3.575   1.241   6.996
  106OSM   H12A10726   3.593   1.301   7.084
  106OSM   H12B10727   3.481   1.191   7.011
  106OSM    C1110728   3.554   1.334   6.883
  106OSM   H11A10729   3.455   1.383   6.882
  106OSM   H11B10730   3.571   1.294   6.780
  106OSM      P10731   3.645   1.572   6.961
  106OSM    O1310732   3.524   1.563   7.042
  106OSM    O1410733   3.779   1.604   7.014
  106OSM    O1110734   3.623   1.670   6.842
  106OSM    O1210735   3.659   1.437   6.885
  106OSM    C1S10736   3.726   1.676   6.739
  106OSM    H1S10737   3.772   1.580   6.711
  106OSM    H1T10738   3.813   1.741   6.759
  106OSM     NF10739   3.755   1.723   6.492
  106OSM    HNF10740   3.811   1.803   6.470
  106OSM    C2S10741   3.661   1.737   6.608
  106OSM    H2S10742   3.569   1.676   6.596
  106OSM    C3S10743   3.605   1.883   6.643
  106OSM    H3S10744   3.694   1.942   6.673
  106OSM     O310745   3.516   1.887   6.756
  106OSM    HO310746   3.537   1.803   6.796
  106OSM    C4S10747   3.548   1.942   6.518
  106OSM    H4S10748   3.608   2.025   6.479
  106OSM    C5S10749   3.438   1.892   6.453
  106OSM    H5S10750   3.386   1.799   6.479
  106OSM    C6S10751   3.377   1.955   6.327
  106OSM    H6S10752   3.417   2.057   6.309
  106OSM    H6T10753   3.266   1.957   6.318
  106OSM    C7S10754   3.415   1.885   6.195
  106OSM    H7S10755   3.355   1.943   6.122
  106OSM    H7T10756   3.382   1.778   6.192
  106OSM    C8S10757   3.562   1.896   6.164
  106OSM    H8S10758   3.624   1.866   6.251
  106OSM    H8T10759   3.589   2.003   6.154
  106OSM    C9S10760   3.612   1.842   6.035
  106OSM    H9S10761   3.607   1.731   6.022
  106OSM    H9T10762   3.718   1.868   6.015
  106OSM   C10S10763   3.537   1.905   5.917
  106OSM   H10S10764   3.528   2.013   5.940
  106OSM   H10T10765   3.435   1.862   5.909
  106OSM   C11S10766   3.613   1.889   5.778
  106OSM   H11S10767   3.643   1.785   5.754
  106OSM   H11T10768   3.717   1.928   5.778
  106OSM   C12S10769   3.535   1.938   5.653
  106OSM   H12S10770   3.550   2.046   5.631
  106OSM   H12T10771   3.427   1.913   5.650
  106OSM   C13S10772   3.600   1.880   5.525
  106OSM   H13S10773   3.596   1.771   5.546
  106OSM   H13T10774   3.704   1.916   5.511
  106OSM   C14S10775   3.519   1.909   5.395
  106OSM   H14S10776   3.513   2.020   5.396
  106OSM   H14T10777   3.416   1.868   5.406
  106OSM   C15S10778   3.597   1.879   5.268
  106OSM   H15S10779   3.627   1.772   5.271
  106OSM   H15T10780   3.690   1.940   5.269
  106OSM   C16S10781   3.516   1.901   5.143
  106OSM   H16S10782   3.494   2.010   5.141
  106OSM   H16T10783   3.415   1.857   5.159
  106OSM   C17S10784   3.596   1.862   5.018
  106OSM   H17S10785   3.612   1.753   5.001
  106OSM   H17T10786   3.694   1.905   5.046
  106OSM   C18S10787   3.552   1.923   4.885
  106OSM   H18S10788   3.587   2.027   4.897
  106OSM   H18T10789   3.441   1.923   4.875
  106OSM   H18U10790   3.602   1.865   4.804
  106OSM    C1F10791   3.803   1.604   6.452
  106OSM     OF10792   3.762   1.501   6.503
  106OSM    C2F10793   3.906   1.617   6.344
  106OSM    H2F10794   4.002   1.636   6.396
  106OSM    H2G10795   3.869   1.708   6.293
  106OSM    C3F10796   3.902   1.507   6.232
  106OSM    H3F10797   3.798   1.496   6.195
  106OSM    H3G10798   3.934   1.412   6.280
  106OSM    C4F10799   3.995   1.536   6.113
  106OSM    H4F10800   4.002   1.449   6.044
  106OSM    H4G10801   4.101   1.548   6.145
  106OSM    C5F10802   3.954   1.672   6.051
  106OSM    H5F10803   3.997   1.746   6.123
  106OSM    H5G10804   3.844   1.678   6.034
  106OSM    C6F10805   4.027   1.669   5.915
  106OSM    H6F10806   3.987   1.578   5.863
  106OSM    H6G10807   4.136   1.652   5.928
  106OSM    C7F10808   3.987   1.782   5.819
  106OSM    H7F10809   3.883   1.820   5.824
  106OSM    H7G10810   4.015   1.755   5.715
  106OSM    C8F10811   4.061   1.912   5.859
  106OSM    H8F10812   4.031   1.926   5.965
  106OSM    H8G10813   4.006   1.999   5.817
  106OSM    C9F10814   4.208   1.922   5.828
  106OSM    H9F10815   4.279   1.920   5.912
  106OSM   C10F10816   4.257   1.948   5.708
  106OSM   H10F10817   4.365   1.938   5.690
  106OSM   C11F10818   4.169   1.967   5.584
  106OSM   H11F10819   4.195   2.063   5.534
  106OSM   H11G10820   4.061   1.984   5.602
  106OSM   C12F10821   4.180   1.860   5.473
  106OSM   H12F10822   4.106   1.894   5.398
  106OSM   H12G10823   4.159   1.754   5.501
  106OSM   C13F10824   4.324   1.862   5.410
  106OSM   H13F10825   4.393   1.829   5.491
  106OSM   H13G10826   4.358   1.963   5.378
  106OSM   C14F10827   4.349   1.767   5.297
  106OSM   H14F10828   4.452   1.780   5.257
  106OSM   H14G10829   4.275   1.799   5.220
  106OSM   C15F10830   4.343   1.620   5.331
  106OSM   H15F10831   4.245   1.585   5.370
  106OSM   H15G10832   4.412   1.614   5.418
  106OSM   C16F10833   4.396   1.535   5.215
  106OSM   H16F10834   4.506   1.548   5.207
  106OSM   H16G10835   4.342   1.578   5.128
  106OSM   C17F10836   4.368   1.387   5.220
  106OSM   H17F10837   4.269   1.381   5.271
  106OSM   H17G10838   4.444   1.341   5.286
  106OSM   C18F10839   4.373   1.321   5.080
  106OSM   H18F10840   4.379   1.211   5.093
  106OSM   H18G10841   4.471   1.352   5.038
  106OSM   H18H10842   4.281   1.361   5.031
  107OSM      N10843   2.835   0.325   6.315
  107OSM    C1510844   2.853   0.222   6.423
  107OSM   H15A10845   2.800   0.246   6.514
  107OSM   H15B10846   2.957   0.232   6.451
  107OSM   H15C10847   2.832   0.122   6.389
  107OSM    C1410848   2.859   0.460   6.374
  107OSM   H14A10849   2.851   0.543   6.306
  107OSM   H14B10850   2.959   0.457   6.416
  107OSM   H14C10851   2.790   0.477   6.455
  107OSM    C1310852   2.941   0.299   6.204
  107OSM   H13A10853   2.913   0.228   6.127
  107OSM   H13B10854   3.033   0.266   6.249
  107OSM   H13C10855   2.958   0.391   6.151
  107OSM    C1210856   2.702   0.315   6.246
  107OSM   H12A10857   2.684   0.399   6.180
  107OSM   H12B10858   2.625   0.317   6.322
  107OSM    C1110859   2.666   0.175   6.174
  107OSM   H11A10860   2.744   0.148   6.100
  107OSM   H11B10861   2.570   0.198   6.123
  107OSM      P10862   2.506   0.014   6.313
  107OSM    O1310863   2.448   0.101   6.419
  107OSM    O1410864   2.416   6.753   6.201
  107OSM    O1110865   2.563   6.662   6.377
  107OSM    O1210866   2.649   0.062   6.264
  107OSM    C1S10867   2.610   6.550   6.303
  107OSM    H1S10868   2.543   6.529   6.217
  107OSM    H1T10869   2.606   6.463   6.371
  107OSM     NF10870   2.802   6.450   6.159
  107OSM    HNF10871   2.867   6.377   6.180
  107OSM    C2S10872   2.761   6.548   6.257
  107OSM    H2S10873   2.770   6.642   6.197
  107OSM    C3S10874   2.862   6.564   6.380
  107OSM    H3S10875   2.877   6.456   6.401
  107OSM     O310876   2.809   6.642   6.490
  107OSM    HO310877   2.719   6.662   6.464
  107OSM    C4S10878   2.982   6.630   6.326
  107OSM    H4S10879   2.974   6.734   6.290
  107OSM    C5S10880   3.100   6.569   6.318
  107OSM    H5S10881   3.099   6.468   6.360
  107OSM    C6S10882   3.228   6.629   6.273
  107OSM    H6S10883   3.281   6.569   6.196
  107OSM    H6T10884   3.303   6.642   6.355
  107OSM    C7S10885   3.229   6.776   6.216
  107OSM    H7S10886   3.190   0.062   6.298
  107OSM    H7T10887   3.158   0.011   6.131
  107OSM    C8S10888   3.368   0.064   6.181
  107OSM    H8S10889   3.433   0.046   6.270
  107OSM    H8T10890   3.359   0.174   6.172
  107OSM    C9S10891   3.440   0.015   6.051
  107OSM    H9S10892   3.364   0.021   5.970
  107OSM    H9T10893   3.483   6.690   6.052
  107OSM   C10S10894   3.557   0.096   6.011
  107OSM   H10S10895   3.652   0.080   6.066
  107OSM   H10T10896   3.518   0.200   6.015
  107OSM   C11S10897   3.596   0.051   5.869
  107OSM   H11S10898   3.503   0.076   5.814
  107OSM   H11T10899   3.613   6.718   5.866
  107OSM   C12S10900   3.714   0.131   5.788
  107OSM   H12S10901   3.817   0.101   5.818
  107OSM   H12T10902   3.702   0.240   5.809
  107OSM   C13S10903   3.712   0.117   5.640
  107OSM   H13S10904   3.788   0.185   5.597
  107OSM   H13T10905   3.610   0.144   5.604
  107OSM   C14S10906   3.749   6.749   5.592
  107OSM   H14S10907   3.671   6.674   5.615
  107OSM   H14T10908   3.845   6.727   5.644
  107OSM   C15S10909   3.773   6.748   5.440
  107OSM   H15S10910   3.683   0.024   5.401
  107OSM   H15T10911   3.771   6.642   5.408
  107OSM   C16S10912   3.907   0.037   5.378
  107OSM   H16S10913   3.997   6.756   5.408
  107OSM   H16T10914   3.915   0.137   5.426
  107OSM   C17S10915   3.903   0.039   5.224
  107OSM   H17S10916   3.985   0.107   5.195
  107OSM   H17T10917   3.807   0.073   5.179
  107OSM   C18S10918   3.916   6.677   5.155
  107OSM   H18S10919   3.854   6.605   5.213
  107OSM   H18T10920   4.014   6.625   5.141
  107OSM   H18U10921   3.868   6.687   5.056
  107OSM    C1F10922   2.750   6.441   6.033
  107OSM     OF10923   2.672   6.528   5.995
  107OSM    C2F10924   2.789   6.325   5.950
  107OSM    H2F10925   2.724   6.243   5.985
  107OSM    H2G10926   2.898   6.302   5.955
  107OSM    C3F10927   2.751   6.367   5.809
  107OSM    H3F10928   2.789   6.470   5.789
  107OSM    H3G10929   2.641   6.374   5.791
  107OSM    C4F10930   2.812   6.272   5.708
  107OSM    H4F10931   2.759   6.174   5.705
  107OSM    H4G10932   2.910   6.237   5.747
  107OSM    C5F10933   2.819   6.329   5.564
  107OSM    H5F10934   2.894   6.410   5.554
  107OSM    H5G10935   2.720   6.374   5.543
  107OSM    C6F10936   2.857   6.229   5.456
  107OSM    H6F10937   2.777   6.151   5.462
  107OSM    H6G10938   2.952   6.178   5.482
  107OSM    C7F10939   2.877   6.283   5.317
  107OSM    H7F10940   2.952   6.364   5.307
  107OSM    H7G10941   2.780   6.335   5.300
  107OSM    C8F10942   2.879   6.175   5.202
  107OSM    H8F10943   2.956   6.102   5.234
  107OSM    H8G10944   2.920   6.231   5.116
  107OSM    C9F10945   2.744   6.114   5.166
  107OSM    H9F10946   2.695   6.098   5.263
  107OSM   C10F10947   2.685   6.093   5.048
  107OSM   H10F10948   2.584   6.050   5.055
  107OSM   C11F10949   2.733   6.122   4.910
  107OSM   H11F10950   2.771   6.036   4.852
  107OSM   H11G10951   2.821   6.190   4.903
  107OSM   C12F10952   2.622   6.179   4.819
  107OSM   H12F10953   2.660   6.217   4.722
  107OSM   H12G10954   2.579   6.267   4.871
  107OSM   C13F10955   2.509   6.088   4.777
  107OSM   H13F10956   2.466   6.039   4.866
  107OSM   H13G10957   2.560   6.009   4.718
  107OSM   C14F10958   2.393   6.156   4.700
  107OSM   H14F10959   2.432   6.209   4.610
  107OSM   H14G10960   2.345   6.226   4.771
  107OSM   C15F10961   2.280   6.057   4.658
  107OSM   H15F10962   2.204   6.108   4.595
  107OSM   H15G10963   2.233   6.027   4.754
  107OSM   C16F10964   2.325   5.933   4.590
  107OSM   H16F10965   2.364   5.858   4.662
  107OSM   H16G10966   2.411   5.966   4.528
  107OSM   C17F10967   2.239   5.870   4.482
  107OSM   H17F10968   2.195   5.944   4.411
  107OSM   H17G10969   2.155   5.817   4.534
  107OSM   C18F10970   2.302   5.759   4.400
  107OSM   H18F10971   2.379   5.807   4.335
  107OSM   H18G10972   2.220   5.707   4.345
  107OSM   H18H10973   2.346   5.687   4.473
  108OSM      N10974   5.879   5.526   6.790
  108OSM    C1510975   5.772   5.467   6.710
  108OSM   H15A10976   5.695   5.536   6.677
  108OSM   H15B10977   5.719   5.386   6.757
  108OSM   H15C10978   5.819   5.421   6.625
  108OSM    C1410979   5.811   5.592   6.908
  108OSM   H14A10980   5.876   5.615   6.992
  108OSM   H14B10981   5.731   5.530   6.945
  108OSM   H14C10982   5.775   5.687   6.874
  108OSM    C1310983   5.963   5.412   6.841
  108OSM   H13A10984   5.903   5.331   6.880
  108OSM   H13B10985   6.017   5.448   6.927
  108OSM   H13C10986   6.024   5.364   6.766
  108OSM    C1210987   5.963   5.617   6.709
  108OSM   H12A10988   6.000   5.568   6.620
  108OSM   H12B10989   6.051   5.640   6.768
  108OSM    C1110990   5.899   5.747   6.671
  108OSM   H11A10991   5.794   5.742   6.637
  108OSM   H11B10992   5.955   5.785   6.582
  108OSM      P10993   5.864   5.998   6.743
  108OSM    O1310994   5.737   6.021   6.811
  108OSM    O1410995   5.968   6.096   6.769
  108OSM    O1110996   5.832   5.978   6.591
  108OSM    O1210997   5.916   5.850   6.778
  108OSM    C1S10998   5.816   6.096   6.508
  108OSM    H1S10999   5.885   6.179   6.536
  108OSM    H1T11000   5.717   6.141   6.531
  108OSM     NF11001   5.852   6.161   6.277
  108OSM    HNF11002   5.777   6.216   6.239
  108OSM    C2S11003   5.827   6.048   6.367
  108OSM    H2S11004   5.906   5.970   6.360
  108OSM    C3S11005   5.701   5.967   6.323
  108OSM    H3S11006   5.625   6.046   6.306
  108OSM     O311007   5.654   5.878   6.425
  108OSM    HO311008   5.721   5.887   6.493
  108OSM    C4S11009   5.730   5.895   6.193
  108OSM    H4S11010   5.751   5.966   6.112
  108OSM    C5S11011   5.757   5.765   6.175
  108OSM    H5S11012   5.745   5.691   6.256
  108OSM    C6S11013   5.805   5.709   6.042
  108OSM    H6S11014   5.735   5.627   6.014
  108OSM    H6T11015   5.902   5.667   6.076
  108OSM    C7S11016   5.840   5.813   5.935
  108OSM    H7S11017   5.915   5.885   5.973
  108OSM    H7T11018   5.748   5.868   5.904
  108OSM    C8S11019   5.903   5.747   5.810
  108OSM    H8S11020   5.842   5.654   5.801
  108OSM    H8T11021   5.998   5.693   5.832
  108OSM    C9S11022   5.890   5.823   5.671
  108OSM    H9S11023   5.974   5.895   5.668
  108OSM    H9T11024   5.800   5.888   5.664
  108OSM   C10S11025   5.911   5.735   5.555
  108OSM   H10S11026   5.819   5.675   5.537
  108OSM   H10T11027   5.982   5.657   5.589
  108OSM   C11S11028   5.949   5.801   5.427
  108OSM   H11S11029   5.972   5.718   5.356
  108OSM   H11T11030   6.039   5.863   5.447
  108OSM   C12S11031   5.835   5.883   5.362
  108OSM   H12S11032   5.851   5.989   5.393
  108OSM   H12T11033   5.748   5.838   5.413
  108OSM   C13S11034   5.819   5.863   5.207
  108OSM   H13S11035   5.725   5.907   5.167
  108OSM   H13T11036   5.803   5.756   5.181
  108OSM   C14S11037   5.938   5.912   5.124
  108OSM   H14S11038   6.032   5.863   5.157
  108OSM   H14T11039   5.957   6.017   5.155
  108OSM   C15S11040   5.917   5.906   4.967
  108OSM   H15S11041   5.907   5.799   4.941
  108OSM   H15T11042   6.018   5.935   4.931
  108OSM   C16S11043   5.810   5.997   4.901
  108OSM   H16S11044   5.829   6.092   4.956
  108OSM   H16T11045   5.708   5.962   4.926
  108OSM   C17S11046   5.832   6.025   4.754
  108OSM   H17S11047   5.862   5.927   4.711
  108OSM   H17T11048   5.920   6.091   4.740
  108OSM   C18S11049   5.715   6.081   4.672
  108OSM   H18S11050   5.745   6.082   4.565
  108OSM   H18T11051   5.684   6.181   4.707
  108OSM   H18U11052   5.633   6.009   4.692
  108OSM    C1F11053   5.968   6.223   6.283
  108OSM     OF11054   6.072   6.162   6.312
  108OSM    C2F11055   5.976   6.368   6.255
  108OSM    H2F11056   5.983   6.417   6.355
  108OSM    H2G11057   5.887   6.410   6.204
  108OSM    C3F11058   6.094   6.412   6.167
  108OSM    H3F11059   6.070   6.380   6.063
  108OSM    H3G11060   6.193   6.368   6.192
  108OSM    C4F11061   6.109   6.562   6.164
  108OSM    H4F11062   6.131   6.601   6.265
  108OSM    H4G11063   6.012   6.601   6.125
  108OSM    C5F11064   6.213   6.610   6.064
  108OSM    H5F11065   6.304   6.554   6.092
  108OSM    H5G11066   6.243   6.714   6.088
  108OSM    C6F11067   6.164   6.612   5.914
  108OSM    H6F11068   6.062   6.655   5.911
  108OSM    H6G11069   6.173   6.509   5.874
  108OSM    C7F11070   6.244   6.703   5.825
  108OSM    H7F11071   6.348   6.666   5.830
  108OSM    H7G11072   6.236   0.028   5.869
  108OSM    C8F11073   6.188   6.708   5.679
  108OSM    H8F11074   6.221   0.034   5.650
  108OSM    H8G11075   6.078   6.717   5.687
  108OSM    C9F11076   6.227   6.596   5.585
  108OSM    H9F11077   6.178   6.499   5.605
  108OSM   C10F11078   6.316   6.609   5.485
  108OSM   H10F11079   6.331   6.523   5.418
  108OSM   C11F11080   6.387   6.732   5.439
  108OSM   H11F11081   6.489   6.735   5.484
  108OSM   H11G11082   6.328   0.047   5.457
  108OSM   C12F11083   6.426   6.733   5.285
  108OSM   H12F11084   6.506   6.656   5.276
  108OSM   H12G11085   6.472   0.055   5.264
  108OSM   C13F11086   6.309   6.691   5.200
  108OSM   H13F11087   6.228   6.766   5.193
  108OSM   H13G11088   6.270   6.598   5.245
  108OSM   C14F11089   6.342   6.672   5.048
  108OSM   H14F11090   6.247   6.635   5.003
  108OSM   H14G11091   6.422   6.597   5.030
  108OSM   C15F11092   6.377   0.030   4.975
  108OSM   H15F11093   6.483   0.061   4.977
  108OSM   H15G11094   6.325   0.111   5.031
  108OSM   C16F11095   6.332   0.024   4.833
  108OSM   H16F11096   6.243   6.734   4.831
  108OSM   H16G11097   6.408   6.753   4.768
  108OSM   C17F11098   6.296   0.165   4.770
  108OSM   H17F11099   6.353   0.249   4.815
  108OSM   H17G11100   6.189   0.173   4.799
  108OSM   C18F11101   6.292   0.170   4.615
  108OSM   H18F11102   6.258   0.269   4.579
  108OSM   H18G11103   6.222   0.093   4.576
  108OSM   H18H11104   6.394   0.165   4.571
  109OSM      N11105   2.479   2.864   7.049
  109OSM    C1511106   2.433   2.956   6.938
  109OSM   H15A11107   2.393   3.050   6.973
  109OSM   H15B11108   2.359   2.901   6.881
  109OSM   H15C11109   2.513   2.979   6.869
  109OSM    C1411110   2.580   2.930   7.129
  109OSM   H14A11111   2.617   2.857   7.200
  109OSM   H14B11112   2.547   3.022   7.175
  109OSM   H14C11113   2.670   2.962   7.078
  109OSM    C1311114   2.359   2.832   7.133
  109OSM   H13A11115   2.326   2.909   7.202
  109OSM   H13B11116   2.379   2.743   7.191
  109OSM   H13C11117   2.270   2.799   7.081
  109OSM    C1211118   2.536   2.735   6.978
  109OSM   H12A11119   2.544   2.652   7.046
  109OSM   H12B11120   2.633   2.761   6.939
  109OSM    C1111121   2.450   2.686   6.854
  109OSM   H11A11122   2.500   2.594   6.817
  109OSM   H11B11123   2.446   2.766   6.777
  109OSM      P11124   2.193   2.695   6.812
  109OSM    O1311125   2.084   2.599   6.833
  109OSM    O1411126   2.170   2.839   6.846
  109OSM    O1111127   2.244   2.684   6.661
  109OSM    O1211128   2.315   2.643   6.893
  109OSM    C1S11129   2.249   2.560   6.586
  109OSM    H1S11130   2.161   2.500   6.617
  109OSM    H1T11131   2.341   2.506   6.616
  109OSM     NF11132   2.179   2.469   6.365
  109OSM    HNF11133   2.235   2.434   6.290
  109OSM    C2S11134   2.217   2.596   6.436
  109OSM    H2S11135   2.129   2.664   6.440
  109OSM    C3S11136   2.345   2.661   6.373
  109OSM    H3S11137   2.426   2.586   6.385
  109OSM     O311138   2.391   2.785   6.435
  109OSM    HO311139   2.347   2.785   6.520
  109OSM    C4S11140   2.321   2.691   6.228
  109OSM    H4S11141   2.240   2.762   6.207
  109OSM    C5S11142   2.395   2.637   6.131
  109OSM    H5S11143   2.470   2.559   6.149
  109OSM    C6S11144   2.365   2.664   5.987
  109OSM    H6S11145   2.361   2.565   5.936
  109OSM    H6T11146   2.441   2.726   5.936
  109OSM    C7S11147   2.227   2.726   5.947
  109OSM    H7S11148   2.237   2.835   5.965
  109OSM    H7T11149   2.143   2.679   6.004
  109OSM    C8S11150   2.203   2.723   5.799
  109OSM    H8S11151   2.098   2.757   5.787
  109OSM    H8T11152   2.201   2.614   5.775
  109OSM    C9S11153   2.296   2.809   5.713
  109OSM    H9S11154   2.402   2.783   5.734
  109OSM    H9T11155   2.280   2.914   5.743
  109OSM   C10S11156   2.268   2.782   5.564
  109OSM   H10S11157   2.161   2.810   5.556
  109OSM   H10T11158   2.292   2.674   5.549
  109OSM   C11S11159   2.355   2.865   5.479
  109OSM   H11S11160   2.458   2.825   5.478
  109OSM   H11T11161   2.357   2.969   5.520
  109OSM   C12S11162   2.312   2.871   5.334
  109OSM   H12S11163   2.220   2.932   5.318
  109OSM   H12T11164   2.289   2.765   5.311
  109OSM   C13S11165   2.411   2.917   5.235
  109OSM   H13S11166   2.501   2.854   5.219
  109OSM   H13T11167   2.451   3.013   5.274
  109OSM   C14S11168   2.355   2.931   5.092
  109OSM   H14S11169   2.431   2.981   5.027
  109OSM   H14T11170   2.260   2.987   5.094
  109OSM   C15S11171   2.325   2.795   5.022
  109OSM   H15S11172   2.283   2.824   4.924
  109OSM   H15T11173   2.234   2.751   5.068
  109OSM   C16S11174   2.437   2.694   5.008
  109OSM   H16S11175   2.462   2.650   5.108
  109OSM   H16T11176   2.532   2.737   4.969
  109OSM   C17S11177   2.389   2.577   4.918
  109OSM   H17S11178   2.280   2.571   4.940
  109OSM   H17T11179   2.442   2.488   4.958
  109OSM   C18S11180   2.414   2.608   4.773
  109OSM   H18S11181   2.341   2.680   4.730
  109OSM   H18T11182   2.389   2.521   4.708
  109OSM   H18U11183   2.517   2.646   4.758
  109OSM    C1F11184   2.066   2.398   6.394
  109OSM     OF11185   1.973   2.446   6.460
  109OSM    C2F11186   2.071   2.256   6.348
  109OSM    H2F11187   2.060   2.190   6.437
  109OSM    H2G11188   2.168   2.236   6.298
  109OSM    C3F11189   1.965   2.220   6.240
  109OSM    H3F11190   1.870   2.209   6.296
  109OSM    H3G11191   1.986   2.116   6.204
  109OSM    C4F11192   1.954   2.312   6.118
  109OSM    H4F11193   1.911   2.411   6.144
  109OSM    H4G11194   1.889   2.264   6.041
  109OSM    C5F11195   2.088   2.346   6.042
  109OSM    H5F11196   2.156   2.263   6.072
  109OSM    H5G11197   2.136   2.443   6.067
  109OSM    C6F11198   2.065   2.356   5.891
  109OSM    H6F11199   2.012   2.451   5.868
  109OSM    H6G11200   1.998   2.277   5.849
  109OSM    C7F11201   2.187   2.340   5.812
  109OSM    H7F11202   2.246   2.259   5.862
  109OSM    H7G11203   2.257   2.427   5.806
  109OSM    C8F11204   2.171   2.304   5.661
  109OSM    H8F11205   2.112   2.211   5.650
  109OSM    H8G11206   2.272   2.280   5.621
  109OSM    C9F11207   2.097   2.416   5.594
  109OSM    H9F11208   2.006   2.453   5.644
  109OSM   C10F11209   2.122   2.474   5.472
  109OSM   H10F11210   2.054   2.553   5.438
  109OSM   C11F11211   2.240   2.453   5.376
  109OSM   H11F11212   2.300   2.365   5.409
  109OSM   H11G11213   2.308   2.541   5.381
  109OSM   C12F11214   2.212   2.439   5.225
  109OSM   H12F11215   2.205   2.540   5.181
  109OSM   H12G11216   2.109   2.400   5.215
  109OSM   C13F11217   2.296   2.327   5.163
  109OSM   H13F11218   2.300   2.232   5.222
  109OSM   H13G11219   2.401   2.360   5.156
  109OSM   C14F11220   2.233   2.288   5.029
  109OSM   H14F11221   2.230   2.375   4.960
  109OSM   H14G11222   2.127   2.262   5.048
  109OSM   C15F11223   2.299   2.169   4.969
  109OSM   H15F11224   2.272   2.076   5.025
  109OSM   H15G11225   2.408   2.187   4.978
  109OSM   C16F11226   2.268   2.153   4.825
  109OSM   H16F11227   2.317   2.232   4.765
  109OSM   H16G11228   2.159   2.149   4.804
  109OSM   C17F11229   2.329   2.021   4.772
  109OSM   H17F11230   2.269   1.933   4.802
  109OSM   H17G11231   2.422   2.002   4.830
  109OSM   C18F11232   2.355   2.011   4.623
  109OSM   H18F11233   2.267   1.980   4.563
  109OSM   H18G11234   2.429   1.931   4.604
  109OSM   H18H11235   2.388   2.110   4.583
  110OSM      N11236   5.241   0.102   6.943
  110OSM    C1511237   5.334   0.211   6.926
  110OSM   H15A11238   5.434   0.172   6.918
  110OSM   H15B11239   5.328   0.281   7.008
  110OSM   H15C11240   5.325   0.260   6.831
  110OSM    C1411241   5.303   6.762   6.875
  110OSM   H14A11242   5.397   6.735   6.922
  110OSM   H14B11243   5.321   6.775   6.769
  110OSM   H14C11244   5.244   6.672   6.889
  110OSM    C1311245   5.235   0.067   7.091
  110OSM   H13A11246   5.205   0.151   7.153
  110OSM   H13B11247   5.333   0.051   7.132
  110OSM   H13C11248   5.173   6.757   7.107
  110OSM    C1211249   5.110   0.132   6.879
  110OSM   H12A11250   5.048   0.043   6.878
  110OSM   H12B11251   5.126   0.144   6.773
  110OSM    C1111252   5.007   0.239   6.932
  110OSM   H11A11253   4.974   0.213   7.035
  110OSM   H11B11254   4.920   0.237   6.863
  110OSM      P11255   5.075   0.467   6.844
  110OSM    O1311256   4.989   0.581   6.883
  110OSM    O1411257   5.220   0.497   6.817
  110OSM    O1111258   5.016   0.399   6.711
  110OSM    O1211259   5.074   0.363   6.954
  110OSM    C1S11260   4.967   0.489   6.606
  110OSM    H1S11261   4.996   0.593   6.633
  110OSM    H1T11262   4.859   0.478   6.586
  110OSM     NF11263   4.980   0.570   6.380
  110OSM    HNF11264   4.893   0.559   6.333
  110OSM    C2S11265   5.016   0.461   6.464
  110OSM    H2S11266   5.126   0.448   6.456
  110OSM    C3S11267   4.944   0.330   6.413
  110OSM    H3S11268   4.836   0.359   6.414
  110OSM     O311269   4.942   0.218   6.501
  110OSM    HO311270   4.993   0.256   6.572
  110OSM    C4S11271   4.981   0.303   6.271
  110OSM    H4S11272   5.086   0.331   6.249
  110OSM    C5S11273   4.915   0.246   6.168
  110OSM    H5S11274   4.815   0.207   6.191
  110OSM    C6S11275   4.965   0.222   6.023
  110OSM    H6S11276   4.880   0.216   5.952
  110OSM    H6T11277   5.021   0.126   6.032
  110OSM    C7S11278   5.068   0.329   5.983
  110OSM    H7S11279   5.156   0.322   6.051
  110OSM    H7T11280   5.028   0.432   5.990
  110OSM    C8S11281   5.111   0.320   5.832
  110OSM    H8S11282   5.199   0.255   5.850
  110OSM    H8T11283   5.143   0.422   5.803
  110OSM    C9S11284   5.015   0.259   5.728
  110OSM    H9S11285   4.930   0.329   5.715
  110OSM    H9T11286   4.981   0.160   5.764
  110OSM   C10S11287   5.081   0.245   5.594
  110OSM   H10S11288   5.166   0.174   5.606
  110OSM   H10T11289   5.125   0.343   5.565
  110OSM   C11S11290   4.981   0.195   5.487
  110OSM   H11S11291   4.935   0.104   5.531
  110OSM   H11T11292   5.044   0.169   5.400
  110OSM   C12S11293   4.870   0.299   5.445
  110OSM   H12S11294   4.909   0.403   5.439
  110OSM   H12T11295   4.777   0.292   5.505
  110OSM   C13S11296   4.836   0.248   5.305
  110OSM   H13S11297   4.770   0.158   5.309
  110OSM   H13T11298   4.921   0.222   5.239
  110OSM   C14S11299   4.750   0.343   5.219
  110OSM   H14S11300   4.761   0.313   5.112
  110OSM   H14T11301   4.795   0.443   5.233
  110OSM   C15S11302   4.603   0.335   5.263
  110OSM   H15S11303   4.592   0.354   5.372
  110OSM   H15T11304   4.574   0.231   5.236
  110OSM   C16S11305   4.517   0.427   5.180
  110OSM   H16S11306   4.558   0.528   5.201
  110OSM   H16T11307   4.410   0.421   5.208
  110OSM   C17S11308   4.518   0.403   5.027
  110OSM   H17S11309   4.510   0.295   5.005
  110OSM   H17T11310   4.615   0.442   4.988
  110OSM   C18S11311   4.403   0.486   4.966
  110OSM   H18S11312   4.385   0.456   4.861
  110OSM   H18T11313   4.440   0.590   4.961
  110OSM   H18U11314   4.309   0.474   5.023
  110OSM    C1F11315   5.052   0.679   6.367
  110OSM     OF11316   5.136   0.721   6.443
  110OSM    C2F11317   5.036   0.757   6.230
  110OSM    H2F11318   4.996   0.860   6.235
  110OSM    H2G11319   4.964   0.700   6.167
  110OSM    C3F11320   5.173   0.777   6.153
  110OSM    H3F11321   5.207   0.672   6.140
  110OSM    H3G11322   5.241   0.823   6.227
  110OSM    C4F11323   5.158   0.844   6.021
  110OSM    H4F11324   5.257   0.843   5.972
  110OSM    H4G11325   5.121   0.947   6.036
  110OSM    C5F11326   5.075   0.773   5.914
  110OSM    H5F11327   4.969   0.769   5.947
  110OSM    H5G11328   5.125   0.675   5.898
  110OSM    C6F11329   5.073   0.845   5.784
  110OSM    H6F11330   5.176   0.851   5.741
  110OSM    H6G11331   5.030   0.947   5.792
  110OSM    C7F11332   4.986   0.772   5.677
  110OSM    H7F11333   4.950   0.840   5.597
  110OSM    H7G11334   4.897   0.736   5.733
  110OSM    C8F11335   5.050   0.649   5.599
  110OSM    H8F11336   4.969   0.600   5.539
  110OSM    H8G11337   5.083   0.573   5.673
  110OSM    C9F11338   5.160   0.693   5.517
  110OSM    H9F11339   5.244   0.743   5.568
  110OSM   C10F11340   5.159   0.683   5.384
  110OSM   H10F11341   5.242   0.735   5.332
  110OSM   C11F11342   5.057   0.628   5.288
  110OSM   H11F11343   4.961   0.627   5.343
  110OSM   H11G11344   5.088   0.523   5.268
  110OSM   C12F11345   5.028   0.696   5.160
  110OSM   H12F11346   4.980   0.793   5.185
  110OSM   H12G11347   4.954   0.641   5.098
  110OSM   C13F11348   5.148   0.739   5.073
  110OSM   H13F11349   5.229   0.663   5.059
  110OSM   H13G11350   5.205   0.817   5.129
  110OSM   C14F11351   5.105   0.773   4.928
  110OSM   H14F11352   5.015   0.838   4.934
  110OSM   H14G11353   5.087   0.679   4.872
  110OSM   C15F11354   5.219   0.828   4.848
  110OSM   H15F11355   5.311   0.769   4.868
  110OSM   H15G11356   5.246   0.934   4.870
  110OSM   C16F11357   5.200   0.815   4.698
  110OSM   H16F11358   5.104   0.861   4.667
  110OSM   H16G11359   5.184   0.705   4.691
  110OSM   C17F11360   5.319   0.871   4.620
  110OSM   H17F11361   5.407   0.805   4.632
  110OSM   H17G11362   5.332   0.976   4.653
  110OSM   C18F11363   5.280   0.859   4.471
  110OSM   H18F11364   5.279   0.753   4.438
  110OSM   H18G11365   5.352   0.920   4.412
  110OSM   H18H11366   5.181   0.910   4.469
  111OSM      N11367   0.928   3.686   6.987
  111OSM    C1511368   1.023   3.798   6.975
  111OSM   H15A11369   1.045   3.840   7.072
  111OSM   H15B11370   0.975   3.866   6.907
  111OSM   H15C11371   1.115   3.759   6.933
  111OSM    C1411372   0.982   3.583   7.077
  111OSM   H14A11373   0.989   3.618   7.179
  111OSM   H14B11374   1.086   3.563   7.062
  111OSM   H14C11375   0.932   3.488   7.081
  111OSM    C1311376   0.803   3.736   7.057
  111OSM   H13A11377   0.737   3.654   7.082
  111OSM   H13B11378   0.749   3.796   6.985
  111OSM   H13C11379   0.825   3.792   7.147
  111OSM    C1211380   0.894   3.629   6.859
  111OSM   H12A11381   0.808   3.564   6.870
  111OSM   H12B11382   0.980   3.576   6.821
  111OSM    C1111383   0.852   3.732   6.754
  111OSM   H11A11384   0.852   3.686   6.653
  111OSM   H11B11385   0.928   3.812   6.741
  111OSM      P11386   0.598   3.720   6.721
  111OSM    O1311387   0.617   3.576   6.705
  111OSM    O1411388   0.481   3.761   6.809
  111OSM    O1111389   0.579   3.789   6.575
  111OSM    O1211390   0.726   3.789   6.783
  111OSM    C1S11391   0.664   3.896   6.537
  111OSM    H1S11392   0.772   3.871   6.535
  111OSM    H1T11393   0.660   3.978   6.612
  111OSM     NF11394   0.715   4.024   6.337
  111OSM    HNF11395   0.691   4.121   6.340
  111OSM    C2S11396   0.617   3.943   6.396
  111OSM    H2S11397   0.618   3.863   6.319
  111OSM    C3S11398   0.479   4.007   6.404
  111OSM    H3S11399   0.479   4.091   6.476
  111OSM     O311400   0.379   3.923   6.465
  111OSM    HO311401   0.437   3.850   6.488
  111OSM    C4S11402   0.430   4.048   6.267
  111OSM    H4S11403   0.372   3.980   6.203
  111OSM    C5S11404   0.432   4.183   6.226
  111OSM    H5S11405   0.467   4.262   6.294
  111OSM    C6S11406   0.363   4.227   6.101
  111OSM    H6S11407   0.398   4.318   6.048
  111OSM    H6T11408   0.265   4.255   6.145
  111OSM    C7S11409   0.331   4.121   5.998
  111OSM    H7S11410   0.300   4.025   6.043
  111OSM    H7T11411   0.419   4.105   5.933
  111OSM    C8S11412   0.213   4.167   5.908
  111OSM    H8S11413   0.265   4.240   5.843
  111OSM    H8T11414   0.138   4.229   5.963
  111OSM    C9S11415   0.131   4.052   5.843
  111OSM    H9S11416   0.054   4.016   5.914
  111OSM    H9T11417   0.198   3.973   5.803
  111OSM   C10S11418   0.055   4.086   5.708
  111OSM   H10S11419   6.738   4.144   5.728
  111OSM   H10T11420   0.022   3.988   5.668
  111OSM   C11S11421   0.143   4.149   5.598
  111OSM   H11S11422   0.239   4.093   5.592
  111OSM   H11T11423   0.168   4.255   5.619
  111OSM   C12S11424   0.068   4.174   5.470
  111OSM   H12S11425   6.753   4.232   5.494
  111OSM   H12T11426   0.013   4.088   5.425
  111OSM   C13S11427   0.157   4.240   5.359
  111OSM   H13S11428   0.264   4.211   5.369
  111OSM   H13T11429   0.157   4.350   5.377
  111OSM   C14S11430   0.110   4.206   5.217
  111OSM   H14S11431   0.004   4.236   5.209
  111OSM   H14T11432   0.118   4.096   5.200
  111OSM   C15S11433   0.189   4.265   5.099
  111OSM   H15S11434   0.296   4.236   5.102
  111OSM   H15T11435   0.196   4.372   5.128
  111OSM   C16S11436   0.109   4.241   4.972
  111OSM   H16S11437   0.010   4.291   4.974
  111OSM   H16T11438   0.098   4.132   4.956
  111OSM   C17S11439   0.179   4.302   4.854
  111OSM   H17S11440   0.280   4.258   4.837
  111OSM   H17T11441   0.201   4.411   4.855
  111OSM   C18S11442   0.116   4.280   4.721
  111OSM   H18S11443   0.118   4.171   4.700
  111OSM   H18T11444   0.169   4.343   4.646
  111OSM   H18U11445   0.010   4.313   4.724
  111OSM    C1F11446   0.837   3.986   6.297
  111OSM     OF11447   0.862   3.868   6.293
  111OSM    C2F11448   0.941   4.089   6.261
  111OSM    H2F11449   0.993   4.033   6.181
  111OSM    H2G11450   1.002   4.094   6.354
  111OSM    C3F11451   0.884   4.224   6.204
  111OSM    H3F11452   0.974   4.280   6.168
  111OSM    H3G11453   0.826   4.289   6.272
  111OSM    C4F11454   0.801   4.206   6.078
  111OSM    H4F11455   0.704   4.178   6.123
  111OSM    H4G11456   0.842   4.127   6.011
  111OSM    C5F11457   0.780   4.330   5.997
  111OSM    H5F11458   0.880   4.365   5.964
  111OSM    H5G11459   0.742   4.409   6.066
  111OSM    C6F11460   0.686   4.304   5.886
  111OSM    H6F11461   0.590   4.281   5.937
  111OSM    H6G11462   0.704   4.211   5.827
  111OSM    C7F11463   0.650   4.433   5.800
  111OSM    H7F11464   0.734   4.467   5.736
  111OSM    H7G11465   0.637   4.514   5.874
  111OSM    C8F11466   0.515   4.418   5.720
  111OSM    H8F11467   0.502   4.513   5.664
  111OSM    H8G11468   0.441   4.410   5.803
  111OSM    C9F11469   0.525   4.296   5.632
  111OSM    H9F11470   0.467   4.209   5.668
  111OSM   C10F11471   0.578   4.290   5.509
  111OSM   H10F11472   0.564   4.200   5.448
  111OSM   C11F11473   0.632   4.402   5.426
  111OSM   H11F11474   0.735   4.371   5.397
  111OSM   H11G11475   0.655   4.488   5.492
  111OSM   C12F11476   0.549   4.450   5.307
  111OSM   H12F11477   0.589   4.549   5.276
  111OSM   H12G11478   0.446   4.450   5.349
  111OSM   C13F11479   0.570   4.369   5.177
  111OSM   H13F11480   0.487   4.404   5.112
  111OSM   H13G11481   0.572   4.260   5.200
  111OSM   C14F11482   0.709   4.386   5.102
  111OSM   H14F11483   0.787   4.329   5.156
  111OSM   H14G11484   0.726   4.496   5.103
  111OSM   C15F11485   0.701   4.338   4.953
  111OSM   H15F11486   0.676   4.230   4.948
  111OSM   H15G11487   0.804   4.356   4.916
  111OSM   C16F11488   0.616   4.430   4.871
  111OSM   H16F11489   0.634   4.537   4.892
  111OSM   H16G11490   0.512   4.407   4.902
  111OSM   C17F11491   0.636   4.402   4.719
  111OSM   H17F11492   0.611   4.295   4.703
  111OSM   H17G11493   0.745   4.409   4.700
  111OSM   C18F11494   0.542   4.468   4.617
  111OSM   H18F11495   0.532   4.401   4.529
  111OSM   H18G11496   0.579   4.565   4.576
  111OSM   H18H11497   0.438   4.482   4.653
  112OSM      N11498   3.279   1.644   7.389
  112OSM    C1511499   3.391   1.688   7.298
  112OSM   H15A11500   3.379   1.774   7.234
  112OSM   H15B11501   3.409   1.615   7.221
  112OSM   H15C11502   3.485   1.713   7.345
  112OSM    C1411503   3.181   1.564   7.314
  112OSM   H14A11504   3.096   1.532   7.372
  112OSM   H14B11505   3.207   1.474   7.260
  112OSM   H14C11506   3.136   1.636   7.248
  112OSM    C1311507   3.345   1.559   7.496
  112OSM   H13A11508   3.372   1.461   7.459
  112OSM   H13B11509   3.276   1.529   7.573
  112OSM   H13C11510   3.429   1.610   7.541
  112OSM    C1211511   3.219   1.768   7.444
  112OSM   H12A11512   3.304   1.826   7.476
  112OSM   H12B11513   3.170   1.747   7.538
  112OSM    C1111514   3.125   1.858   7.366
  112OSM   H11A11515   3.190   1.904   7.289
  112OSM   H11B11516   3.088   1.941   7.431
  112OSM      P11517   2.926   1.870   7.196
  112OSM    O1311518   2.850   1.775   7.113
  112OSM    O1411519   2.841   1.974   7.262
  112OSM    O1111520   3.036   1.936   7.114
  112OSM    O1211521   3.010   1.787   7.302
  112OSM    C1S11522   3.114   1.855   7.019
  112OSM    H1S11523   3.057   1.768   6.979
  112OSM    H1T11524   3.205   1.815   7.068
  112OSM     NF11525   3.214   1.836   6.795
  112OSM    HNF11526   3.301   1.862   6.754
  112OSM    C2S11527   3.148   1.930   6.887
  112OSM    H2S11528   3.064   1.981   6.833
  112OSM    C3S11529   3.239   2.063   6.923
  112OSM    H3S11530   3.343   2.029   6.942
  112OSM     O311531   3.205   2.134   7.043
  112OSM    HO311532   3.134   2.081   7.080
  112OSM    C4S11533   3.240   2.155   6.810
  112OSM    H4S11534   3.145   2.209   6.793
  112OSM    C5S11535   3.353   2.176   6.734
  112OSM    H5S11536   3.451   2.131   6.755
  112OSM    C6S11537   3.349   2.263   6.608
  112OSM    H6S11538   3.379   2.198   6.523
  112OSM    H6T11539   3.426   2.342   6.619
  112OSM    C7S11540   3.223   2.333   6.567
  112OSM    H7S11541   3.184   2.405   6.643
  112OSM    H7T11542   3.138   2.268   6.537
  112OSM    C8S11543   3.246   2.410   6.446
  112OSM    H8S11544   3.316   2.490   6.479
  112OSM    H8T11545   3.154   2.456   6.403
  112OSM    C9S11546   3.297   2.327   6.324
  112OSM    H9S11547   3.241   2.231   6.326
  112OSM    H9T11548   3.406   2.307   6.326
  112OSM   C10S11549   3.286   2.404   6.193
  112OSM   H10S11550   3.347   2.496   6.186
  112OSM   H10T11551   3.177   2.422   6.180
  112OSM   C11S11552   3.330   2.316   6.070
  112OSM   H11S11553   3.282   2.221   6.100
  112OSM   H11T11554   3.440   2.314   6.084
  112OSM   C12S11555   3.296   2.377   5.936
  112OSM   H12S11556   3.341   2.478   5.925
  112OSM   H12T11557   3.185   2.381   5.934
  112OSM   C13S11558   3.336   2.298   5.813
  112OSM   H13S11559   3.293   2.196   5.806
  112OSM   H13T11560   3.447   2.284   5.811
  112OSM   C14S11561   3.295   2.375   5.687
  112OSM   H14S11562   3.365   2.461   5.685
  112OSM   H14T11563   3.192   2.414   5.696
  112OSM   C15S11564   3.312   2.305   5.547
  112OSM   H15S11565   3.234   2.228   5.528
  112OSM   H15T11566   3.410   2.255   5.535
  112OSM   C16S11567   3.285   2.397   5.432
  112OSM   H16S11568   3.303   2.345   5.335
  112OSM   H16T11569   3.351   2.486   5.443
  112OSM   C17S11570   3.143   2.447   5.432
  112OSM   H17S11571   3.129   2.499   5.529
  112OSM   H17T11572   3.078   2.357   5.428
  112OSM   C18S11573   3.106   2.558   5.326
  112OSM   H18S11574   3.000   2.588   5.340
  112OSM   H18T11575   3.115   2.513   5.225
  112OSM   H18U11576   3.175   2.645   5.338
  112OSM    C1F11577   3.169   1.713   6.762
  112OSM     OF11578   3.045   1.687   6.774
  112OSM    C2F11579   3.271   1.610   6.730
  112OSM    H2F11580   3.280   1.532   6.808
  112OSM    H2G11581   3.370   1.661   6.725
  112OSM    C3F11582   3.236   1.533   6.598
  112OSM    H3F11583   3.218   1.605   6.515
  112OSM    H3G11584   3.147   1.469   6.616
  112OSM    C4F11585   3.358   1.465   6.548
  112OSM    H4F11586   3.390   1.391   6.625
  112OSM    H4G11587   3.440   1.538   6.532
  112OSM    C5F11588   3.331   1.391   6.418
  112OSM    H5F11589   3.238   1.333   6.436
  112OSM    H5G11590   3.412   1.320   6.393
  112OSM    C6F11591   3.305   1.481   6.301
  112OSM    H6F11592   3.392   1.551   6.300
  112OSM    H6G11593   3.212   1.539   6.320
  112OSM    C7F11594   3.294   1.410   6.167
  112OSM    H7F11595   3.203   1.348   6.153
  112OSM    H7G11596   3.374   1.334   6.150
  112OSM    C8F11597   3.304   1.508   6.052
  112OSM    H8F11598   3.384   1.582   6.075
  112OSM    H8G11599   3.217   1.571   6.079
  112OSM    C9F11600   3.310   1.442   5.914
  112OSM    H9F11601   3.235   1.362   5.908
  112OSM   C10F11602   3.397   1.450   5.814
  112OSM   H10F11603   3.373   1.400   5.719
  112OSM   C11F11604   3.517   1.543   5.813
  112OSM   H11F11605   3.495   1.630   5.878
  112OSM   H11G11606   3.532   1.580   5.709
  112OSM   C12F11607   3.638   1.475   5.875
  112OSM   H12F11608   3.609   1.433   5.973
  112OSM   H12G11609   3.717   1.552   5.883
  112OSM   C13F11610   3.682   1.347   5.799
  112OSM   H13F11611   3.609   1.264   5.808
  112OSM   H13G11612   3.772   1.314   5.855
  112OSM   C14F11613   3.723   1.371   5.649
  112OSM   H14F11614   3.631   1.391   5.590
  112OSM   H14G11615   3.752   1.271   5.611
  112OSM   C15F11616   3.841   1.470   5.626
  112OSM   H15F11617   3.939   1.435   5.665
  112OSM   H15G11618   3.815   1.567   5.673
  112OSM   C16F11619   3.869   1.484   5.479
  112OSM   H16F11620   3.837   1.387   5.435
  112OSM   H16G11621   3.977   1.491   5.456
  112OSM   C17F11622   3.801   1.604   5.418
  112OSM   H17F11623   3.833   1.698   5.469
  112OSM   H17G11624   3.691   1.601   5.430
  112OSM   C18F11625   3.836   1.614   5.264
  112OSM   H18F11626   3.824   1.718   5.226
  112OSM   H18G11627   3.766   1.543   5.215
  112OSM   H18H11628   3.938   1.571   5.253
  113OSM      N11629   6.499   0.971   6.359
  113OSM    C1511630   6.397   1.013   6.459
  113OSM   H15A11631   6.304   1.024   6.405
  113OSM   H15B11632   6.417   1.112   6.496
  113OSM   H15C11633   6.381   0.945   6.541
  113OSM    C1411634   6.463   0.858   6.282
  113OSM   H14A11635   6.377   0.878   6.221
  113OSM   H14B11636   6.455   0.766   6.339
  113OSM   H14C11637   6.545   0.828   6.217
  113OSM    C1311638   6.508   1.088   6.270
  113OSM   H13A11639   6.572   1.161   6.316
  113OSM   H13B11640   6.409   1.130   6.256
  113OSM   H13C11641   6.541   1.068   6.169
  113OSM    C1211642   6.633   0.945   6.428
  113OSM   H12A11643   6.704   0.909   6.355
  113OSM   H12B11644   6.620   0.862   6.496
  113OSM    C1111645   6.695   1.060   6.508
  113OSM   H11A11646   0.008   1.008   6.546
  113OSM   H11B11647   6.633   1.088   6.596
  113OSM      P11648   0.095   1.208   6.386
  113OSM    O1311649   0.158   1.266   6.509
  113OSM    O1411650   0.164   1.098   6.318
  113OSM    O1111651   0.076   1.328   6.286
  113OSM    O1211652   6.725   1.169   6.422
  113OSM    C1S11653   6.771   1.310   6.172
  113OSM    H1S11654   6.668   1.288   6.206
  113OSM    H1T11655   0.020   1.226   6.104
  113OSM     NF11656   6.700   1.416   5.965
  113OSM    HNF11657   6.760   1.388   5.891
  113OSM    C2S11658   6.775   1.440   6.087
  113OSM    H2S11659   6.715   1.515   6.143
  113OSM    C3S11660   0.141   1.504   6.067
  113OSM    H3S11661   0.197   1.457   5.984
  113OSM     O311662   0.227   1.503   6.182
  113OSM    HO311663   0.176   1.452   6.245
  113OSM    C4S11664   0.118   1.651   6.017
  113OSM    H4S11665   0.124   1.655   5.907
  113OSM    C5S11666   0.126   1.772   6.078
  113OSM    H5S11667   0.137   1.775   6.187
  113OSM    C6S11668   0.128   1.905   6.010
  113OSM    H6S11669   0.193   1.973   6.069
  113OSM    H6T11670   0.032   1.961   6.010
  113OSM    C7S11671   0.156   1.900   5.862
  113OSM    H7S11672   0.093   1.830   5.804
  113OSM    H7T11673   0.261   1.866   5.846
  113OSM    C8S11674   0.135   2.029   5.778
  113OSM    H8S11675   0.191   2.113   5.826
  113OSM    H8T11676   0.030   2.064   5.775
  113OSM    C9S11677   0.189   2.008   5.635
  113OSM    H9S11678   0.154   1.907   5.606
  113OSM    H9T11679   0.300   2.005   5.630
  113OSM   C10S11680   0.127   2.104   5.532
  113OSM   H10S11681   0.137   2.209   5.565
  113OSM   H10T11682   0.018   2.080   5.528
  113OSM   C11S11683   0.195   2.099   5.392
  113OSM   H11S11684   0.215   1.992   5.370
  113OSM   H11T11685   0.287   2.162   5.392
  113OSM   C12S11686   0.090   2.155   5.291
  113OSM   H12S11687   0.063   2.254   5.333
  113OSM   H12T11688   0.011   2.078   5.298
  113OSM   C13S11689   0.149   2.149   5.142
  113OSM   H13S11690   0.211   2.058   5.133
  113OSM   H13T11691   0.210   2.237   5.112
  113OSM   C14S11692   0.021   2.176   5.053
  113OSM   H14S11693   6.764   2.278   5.080
  113OSM   H14T11694   6.720   2.103   5.082
  113OSM   C15S11695   0.035   2.169   4.902
  113OSM   H15S11696   0.089   2.075   4.878
  113OSM   H15T11697   0.097   2.258   4.879
  113OSM   C16S11698   6.679   2.195   4.823
  113OSM   H16S11699   6.660   2.303   4.841
  113OSM   H16T11700   6.600   2.137   4.876
  113OSM   C17S11701   6.675   2.161   4.672
  113OSM   H17S11702   6.733   2.066   4.665
  113OSM   H17T11703   6.732   2.244   4.624
  113OSM   C18S11704   6.541   2.145   4.594
  113OSM   H18S11705   6.495   2.046   4.615
  113OSM   H18T11706   6.568   2.147   4.487
  113OSM   H18U11707   6.477   2.230   4.627
  113OSM    C1F11708   6.570   1.392   5.954
  113OSM     OF11709   6.497   1.401   6.050
  113OSM    C2F11710   6.540   1.333   5.818
  113OSM    H2F11711   6.590   1.234   5.812
  113OSM    H2G11712   6.585   1.402   5.743
  113OSM    C3F11713   6.387   1.326   5.802
  113OSM    H3F11714   6.354   1.433   5.801
  113OSM    H3G11715   6.351   1.258   5.883
  113OSM    C4F11716   6.328   1.251   5.687
  113OSM    H4F11717   6.217   1.247   5.684
  113OSM    H4G11718   6.373   1.150   5.694
  113OSM    C5F11719   6.395   1.310   5.560
  113OSM    H5F11720   6.500   1.273   5.563
  113OSM    H5G11721   6.404   1.420   5.570
  113OSM    C6F11722   6.324   1.257   5.438
  113OSM    H6F11723   6.215   1.275   5.442
  113OSM    H6G11724   6.335   1.146   5.446
  113OSM    C7F11725   6.373   1.298   5.296
  113OSM    H7F11726   6.329   1.393   5.259
  113OSM    H7G11727   6.351   1.218   5.223
  113OSM    C8F11728   6.523   1.328   5.282
  113OSM    H8F11729   6.570   1.238   5.326
  113OSM    H8G11730   6.561   1.411   5.347
  113OSM    C9F11731   6.574   1.360   5.143
  113OSM    H9F11732   6.601   1.465   5.125
  113OSM   C10F11733   6.602   1.277   5.051
  113OSM   H10F11734   6.631   1.312   4.950
  113OSM   C11F11735   6.584   1.131   5.049
  113OSM   H11F11736   6.525   1.095   4.962
  113OSM   H11G11737   6.522   1.108   5.138
  113OSM   C12F11738   6.712   1.048   5.080
  113OSM   H12F11739   6.702   0.938   5.083
  113OSM   H12G11740   6.766   1.075   5.174
  113OSM   C13F11741   0.048   1.064   4.971
  113OSM   H13F11742   0.131   1.003   5.011
  113OSM   H13G11743   0.084   1.170   4.977
  113OSM   C14F11744   0.013   1.031   4.828
  113OSM   H14F11745   6.739   1.109   4.766
  113OSM   H14G11746   6.720   0.945   4.816
  113OSM   C15F11747   0.132   0.997   4.744
  113OSM   H15F11748   0.194   0.922   4.797
  113OSM   H15G11749   0.190   1.088   4.716
  113OSM   C16F11750   0.095   0.924   4.611
  113OSM   H16F11751   0.053   0.825   4.637
  113OSM   H16G11752   0.192   0.905   4.562
  113OSM   C17F11753   0.010   0.999   4.508
  113OSM   H17F11754   0.069   1.089   4.482
  113OSM   H17G11755   6.688   1.028   4.549
  113OSM   C18F11756   6.745   0.935   4.372
  113OSM   H18F11757   6.719   0.829   4.387
  113OSM   H18G11758   0.054   0.931   4.301
  113OSM   H18H11759   6.665   0.988   4.317
  114OSM      N11760   6.098   0.639   6.702
  114OSM    C1511761   6.138   0.500   6.730
  114OSM   H15A11762   6.106   0.478   6.830
  114OSM   H15B11763   6.246   0.495   6.731
  114OSM   H15C11764   6.091   0.431   6.661
  114OSM    C1411765   5.948   0.652   6.710
  114OSM   H14A11766   5.912   0.577   6.641
  114OSM   H14B11767   5.914   0.753   6.691
  114OSM   H14C11768   5.922   0.631   6.813
  114OSM    C1311769   6.168   0.724   6.797
  114OSM   H13A11770   6.271   0.738   6.772
  114OSM   H13B11771   6.155   0.701   6.902
  114OSM   H13C11772   6.125   0.823   6.785
  114OSM    C1211773   6.140   0.684   6.567
  114OSM   H12A11774   6.247   0.697   6.557
  114OSM   H12B11775   6.085   0.772   6.538
  114OSM    C1111776   6.104   0.590   6.447
  114OSM   H11A11777   6.158   0.495   6.463
  114OSM   H11B11778   6.161   0.645   6.369
  114OSM      P11779   5.866   0.671   6.350
  114OSM    O1311780   5.734   0.609   6.359
  114OSM    O1411781   5.870   0.808   6.398
  114OSM    O1111782   5.931   0.666   6.209
  114OSM    O1211783   5.965   0.580   6.435
  114OSM    C1S11784   5.985   0.552   6.149
  114OSM    H1S11785   5.952   0.459   6.200
  114OSM    H1T11786   6.095   0.548   6.136
  114OSM     NF11787   5.951   0.395   5.952
  114OSM    HNF11788   6.020   0.373   5.883
  114OSM    C2S11789   5.936   0.532   6.002
  114OSM    H2S11790   5.827   0.552   5.995
  114OSM    C3S11791   6.004   0.633   5.906
  114OSM    H3S11792   6.110   0.601   5.897
  114OSM     O311793   6.008   0.770   5.953
  114OSM    HO311794   5.961   0.777   6.036
  114OSM    C4S11795   5.948   0.651   5.769
  114OSM    H4S11796   5.863   0.720   5.755
  114OSM    C5S11797   6.006   0.603   5.656
  114OSM    H5S11798   6.093   0.537   5.661
  114OSM    C6S11799   5.956   0.650   5.524
  114OSM    H6S11800   6.044   0.684   5.466
  114OSM    H6T11801   5.886   0.736   5.518
  114OSM    C7S11802   5.901   0.539   5.435
  114OSM    H7S11803   5.854   0.584   5.345
  114OSM    H7T11804   5.830   0.474   5.491
  114OSM    C8S11805   6.010   0.442   5.382
  114OSM    H8S11806   6.040   0.397   5.479
  114OSM    H8T11807   6.105   0.491   5.351
  114OSM    C9S11808   5.960   0.330   5.292
  114OSM    H9S11809   5.955   0.364   5.187
  114OSM    H9T11810   5.856   0.309   5.326
  114OSM   C10S11811   6.036   0.195   5.316
  114OSM   H10S11812   6.012   0.179   5.423
  114OSM   H10T11813   6.144   0.189   5.289
  114OSM   C11S11814   5.971   0.098   5.225
  114OSM   H11S11815   6.019   0.117   5.127
  114OSM   H11T11816   5.862   0.119   5.219
  114OSM   C12S11817   5.983   6.733   5.272
  114OSM   H12S11818   6.080   6.712   5.321
  114OSM   H12T11819   5.970   6.671   5.181
  114OSM   C13S11820   5.874   6.676   5.367
  114OSM   H13S11821   5.769   6.696   5.338
  114OSM   H13T11822   5.881   6.744   5.454
  114OSM   C14S11823   5.912   6.526   5.383
  114OSM   H14S11824   6.020   6.517   5.360
  114OSM   H14T11825   5.856   6.457   5.317
  114OSM   C15S11826   5.879   6.489   5.525
  114OSM   H15S11827   5.768   6.491   5.535
  114OSM   H15T11828   5.918   6.566   5.595
  114OSM   C16S11829   5.916   6.347   5.579
  114OSM   H16S11830   6.022   6.325   5.553
  114OSM   H16T11831   5.846   6.279   5.527
  114OSM   C17S11832   5.903   6.342   5.728
  114OSM   H17S11833   5.799   6.345   5.767
  114OSM   H17T11834   5.962   6.424   5.775
  114OSM   C18S11835   5.964   6.211   5.794
  114OSM   H18S11836   5.908   6.116   5.783
  114OSM   H18T11837   5.965   6.236   5.902
  114OSM   H18U11838   6.074   6.199   5.781
  114OSM    C1F11839   5.881   0.288   5.998
  114OSM     OF11840   5.811   0.285   6.098
  114OSM    C2F11841   5.902   0.165   5.919
  114OSM    H2F11842   5.910   0.088   5.998
  114OSM    H2G11843   6.002   0.166   5.870
  114OSM    C3F11844   5.789   0.139   5.815
  114OSM    H3F11845   5.690   0.152   5.864
  114OSM    H3G11846   5.798   0.035   5.777
  114OSM    C4F11847   5.793   0.240   5.700
  114OSM    H4F11848   5.894   0.272   5.667
  114OSM    H4G11849   5.747   0.334   5.735
  114OSM    C5F11850   5.716   0.202   5.574
  114OSM    H5F11851   5.739   0.098   5.545
  114OSM    H5G11852   5.739   0.264   5.485
  114OSM    C6F11853   5.563   0.208   5.575
  114OSM    H6F11854   5.533   0.291   5.644
  114OSM    H6G11855   5.536   0.111   5.620
  114OSM    C7F11856   5.492   0.227   5.440
  114OSM    H7F11857   5.388   0.191   5.428
  114OSM    H7G11858   5.545   0.181   5.354
  114OSM    C8F11859   5.471   0.374   5.430
  114OSM    H8F11860   5.574   0.415   5.420
  114OSM    H8G11861   5.416   0.409   5.520
  114OSM    C9F11862   5.384   0.397   5.308
  114OSM    H9F11863   5.278   0.367   5.319
  114OSM   C10F11864   5.415   0.447   5.192
  114OSM   H10F11865   5.336   0.453   5.115
  114OSM   C11F11866   5.547   0.497   5.148
  114OSM   H11F11867   5.624   0.434   5.197
  114OSM   H11G11868   5.568   0.604   5.164
  114OSM   C12F11869   5.579   0.468   5.003
  114OSM   H12F11870   5.553   0.362   4.986
  114OSM   H12G11871   5.687   0.470   4.981
  114OSM   C13F11872   5.503   0.560   4.906
  114OSM   H13F11873   5.552   0.658   4.923
  114OSM   H13G11874   5.397   0.566   4.939
  114OSM   C14F11875   5.522   0.536   4.758
  114OSM   H14F11876   5.624   0.498   4.740
  114OSM   H14G11877   5.517   0.631   4.702
  114OSM   C15F11878   5.413   0.457   4.690
  114OSM   H15F11879   5.321   0.508   4.724
  114OSM   H15G11880   5.416   0.355   4.735
  114OSM   C16F11881   5.403   0.449   4.538
  114OSM   H16F11882   5.392   0.551   4.497
  114OSM   H16G11883   5.314   0.387   4.513
  114OSM   C17F11884   5.518   0.387   4.463
  114OSM   H17F11885   5.606   0.455   4.466
  114OSM   H17G11886   5.478   0.382   4.359
  114OSM   C18F11887   5.570   0.252   4.491
  114OSM   H18F11888   5.494   0.178   4.458
  114OSM   H18G11889   5.592   0.220   4.595
  114OSM   H18H11890   5.658   0.242   4.424
  115OSM      N11891   5.923   2.706   6.830
  115OSM    C1511892   5.916   2.645   6.968
  115OSM   H15A11893   5.916   2.537   6.959
  115OSM   H15B11894   5.825   2.680   7.013
  115OSM   H15C11895   6.002   2.674   7.028
  115OSM    C1411896   6.037   2.651   6.752
  115OSM   H14A11897   6.018   2.551   6.716
  115OSM   H14B11898   6.126   2.656   6.814
  115OSM   H14C11899   6.052   2.711   6.664
  115OSM    C1311900   5.794   2.685   6.754
  115OSM   H13A11901   5.709   2.734   6.798
  115OSM   H13B11902   5.766   2.584   6.728
  115OSM   H13C11903   5.797   2.718   6.652
  115OSM    C1211904   5.943   2.861   6.845
  115OSM   H12A11905   6.033   2.882   6.902
  115OSM   H12B11906   5.872   2.906   6.912
  115OSM    C1111907   5.942   2.951   6.717
  115OSM   H11A11908   5.913   3.053   6.748
  115OSM   H11B11909   5.857   2.914   6.656
  115OSM      P11910   6.200   3.009   6.703
  115OSM    O1311911   6.156   3.114   6.798
  115OSM    O1411912   6.294   2.913   6.757
  115OSM    O1111913   6.268   3.085   6.587
  115OSM    O1211914   6.067   2.937   6.644
  115OSM    C1S11915   6.310   3.022   6.464
  115OSM    H1S11916   6.289   2.913   6.464
  115OSM    H1T11917   6.420   3.036   6.463
  115OSM     NF11918   6.284   3.013   6.224
  115OSM    HNF11919   6.341   3.048   6.149
  115OSM    C2S11920   6.256   3.099   6.336
  115OSM    H2S11921   6.146   3.099   6.345
  115OSM    C3S11922   6.304   3.243   6.325
  115OSM    H3S11923   6.408   3.236   6.289
  115OSM     O311924   6.304   3.325   6.452
  115OSM    HO311925   6.283   3.255   6.515
  115OSM    C4S11926   6.243   3.325   6.215
  115OSM    H4S11927   6.289   3.321   6.115
  115OSM    C5S11928   6.121   3.391   6.229
  115OSM    H5S11929   6.074   3.393   6.328
  115OSM    C6S11930   6.048   3.464   6.125
  115OSM    H6S11931   6.033   3.569   6.156
  115OSM    H6T11932   5.949   3.418   6.101
  115OSM    C7S11933   6.123   3.475   5.989
  115OSM    H7S11934   6.141   3.374   5.946
  115OSM    H7T11935   6.220   3.529   6.001
  115OSM    C8S11936   6.051   3.548   5.880
  115OSM    H8S11937   6.064   3.656   5.899
  115OSM    H8T11938   5.943   3.522   5.887
  115OSM    C9S11939   6.113   3.538   5.734
  115OSM    H9S11940   6.117   3.429   5.712
  115OSM    H9T11941   6.215   3.582   5.730
  115OSM   C10S11942   6.032   3.604   5.621
  115OSM   H10S11943   6.038   3.715   5.620
  115OSM   H10T11944   5.927   3.567   5.619
  115OSM   C11S11945   6.103   3.561   5.488
  115OSM   H11S11946   6.100   3.452   5.466
  115OSM   H11T11947   6.209   3.593   5.491
  115OSM   C12S11948   6.030   3.623   5.360
  115OSM   H12S11949   6.024   3.734   5.371
  115OSM   H12T11950   5.927   3.582   5.353
  115OSM   C13S11951   6.105   3.593   5.224
  115OSM   H13S11952   6.147   3.491   5.233
  115OSM   H13T11953   6.184   3.670   5.210
  115OSM   C14S11954   6.006   3.602   5.104
  115OSM   H14S11955   5.911   3.549   5.128
  115OSM   H14T11956   6.056   3.559   5.014
  115OSM   C15S11957   5.969   3.745   5.061
  115OSM   H15S11958   6.055   3.815   5.055
  115OSM   H15T11959   5.903   3.792   5.138
  115OSM   C16S11960   5.903   3.747   4.923
  115OSM   H16S11961   5.968   3.707   4.843
  115OSM   H16T11962   5.883   3.853   4.895
  115OSM   C17S11963   5.771   3.678   4.914
  115OSM   H17S11964   5.702   3.739   4.976
  115OSM   H17T11965   5.775   3.575   4.956
  115OSM   C18S11966   5.711   3.660   4.778
  115OSM   H18S11967   5.668   3.758   4.747
  115OSM   H18T11968   5.627   3.586   4.780
  115OSM   H18U11969   5.794   3.625   4.713
  115OSM    C1F11970   6.219   2.899   6.199
  115OSM     OF11971   6.145   2.855   6.282
  115OSM    C2F11972   6.250   2.847   6.070
  115OSM    H2F11973   6.355   2.818   6.047
  115OSM    H2G11974   6.220   2.921   5.994
  115OSM    C3F11975   6.150   2.720   6.047
  115OSM    H3F11976   6.042   2.744   6.031
  115OSM    H3G11977   6.148   2.655   6.137
  115OSM    C4F11978   6.191   2.637   5.923
  115OSM    H4F11979   6.137   2.540   5.919
  115OSM    H4G11980   6.297   2.606   5.937
  115OSM    C5F11981   6.176   2.716   5.796
  115OSM    H5F11982   6.228   2.814   5.796
  115OSM    H5G11983   6.066   2.735   5.801
  115OSM    C6F11984   6.221   2.635   5.668
  115OSM    H6F11985   6.194   2.530   5.691
  115OSM    H6G11986   6.330   2.639   5.648
  115OSM    C7F11987   6.148   2.681   5.536
  115OSM    H7F11988   6.040   2.691   5.557
  115OSM    H7G11989   6.154   2.608   5.453
  115OSM    C8F11990   6.193   2.823   5.495
  115OSM    H8F11991   6.211   2.895   5.578
  115OSM    H8G11992   6.105   2.863   5.441
  115OSM    C9F11993   6.308   2.823   5.400
  115OSM    H9F11994   6.404   2.850   5.444
  115OSM   C10F11995   6.305   2.808   5.267
  115OSM   H10F11996   6.394   2.817   5.203
  115OSM   C11F11997   6.178   2.779   5.192
  115OSM   H11F11998   6.100   2.736   5.258
  115OSM   H11G11999   6.206   2.697   5.122
  115OSM   C12F12000   6.107   2.886   5.108
  115OSM   H12F12001   6.049   2.951   5.176
  115OSM   H12G12002   6.033   2.833   5.043
  115OSM   C13F12003   6.197   2.964   5.009
  115OSM   H13F12004   6.289   2.995   5.063
  115OSM   H13G12005   6.142   3.052   4.968
  115OSM   C14F12006   6.228   2.872   4.892
  115OSM   H14F12007   6.141   2.837   4.834
  115OSM   H14G12008   6.277   2.776   4.919
  115OSM   C15F12009   6.317   2.936   4.787
  115OSM   H15F12010   6.372   2.855   4.735
  115OSM   H15G12011   6.396   3.003   4.828
  115OSM   C16F12012   6.256   3.015   4.673
  115OSM   H16F12013   6.223   3.116   4.705
  115OSM   H16G12014   6.162   2.972   4.631
  115OSM   C17F12015   6.357   3.027   4.558
  115OSM   H17F12016   6.391   2.932   4.512
  115OSM   H17G12017   6.447   3.078   4.599
  115OSM   C18F12018   6.291   3.126   4.451
  115OSM   H18F12019   6.258   3.218   4.504
  115OSM   H18G12020   6.214   3.065   4.401
  115OSM   H18H12021   6.363   3.154   4.371
  116OSM      N12022   0.861   1.428   7.049
  116OSM    C1512023   0.742   1.338   7.059
  116OSM   H15A12024   0.675   1.357   6.977
  116OSM   H15B12025   0.700   1.332   7.158
  116OSM   H15C12026   0.770   1.238   7.029
  116OSM    C1412027   0.814   1.555   7.106
  116OSM   H14A12028   0.759   1.531   7.196
  116OSM   H14B12029   0.747   1.606   7.038
  116OSM   H14C12030   0.900   1.616   7.130
  116OSM    C1312031   0.965   1.377   7.146
  116OSM   H13A12032   1.003   1.280   7.117
  116OSM   H13B12033   0.917   1.361   7.241
  116OSM   H13C12034   1.052   1.441   7.155
  116OSM    C1212035   0.919   1.446   6.912
  116OSM   H12A12036   0.937   1.350   6.865
  116OSM   H12B12037   1.015   1.495   6.914
  116OSM    C1112038   0.821   1.499   6.800
  116OSM   H11A12039   0.885   1.535   6.717
  116OSM   H11B12040   0.783   1.599   6.829
  116OSM      P12041   0.755   1.273   6.670
  116OSM    O1312042   0.897   1.237   6.680
  116OSM    O1412043   0.661   1.161   6.712
  116OSM    O1112044   0.718   1.314   6.516
  116OSM    O1212045   0.719   1.401   6.757
  116OSM    C1S12046   0.635   1.419   6.480
  116OSM    H1S12047   0.683   1.514   6.513
  116OSM    H1T12048   0.540   1.406   6.537
  116OSM     NF12049   0.528   1.537   6.287
  116OSM    HNF12050   0.430   1.518   6.278
  116OSM    C2S12051   0.598   1.419   6.328
  116OSM    H2S12052   0.696   1.418   6.274
  116OSM    C3S12053   0.528   1.281   6.286
  116OSM    H3S12054   0.425   1.289   6.325
  116OSM     O312055   0.593   1.167   6.343
  116OSM    HO312056   0.652   1.212   6.403
  116OSM    C4S12057   0.529   1.262   6.139
  116OSM    H4S12058   0.624   1.283   6.088
  116OSM    C5S12059   0.418   1.227   6.068
  116OSM    H5S12060   0.324   1.220   6.126
  116OSM    C6S12061   0.406   1.199   5.917
  116OSM    H6S12062   0.496   1.238   5.864
  116OSM    H6T12063   0.322   1.260   5.877
  116OSM    C7S12064   0.378   1.049   5.887
  116OSM    H7S12065   0.284   1.024   5.939
  116OSM    H7T12066   0.458   0.990   5.937
  116OSM    C8S12067   0.360   1.020   5.733
  116OSM    H8S12068   0.269   1.076   5.703
  116OSM    H8T12069   0.338   0.912   5.725
  116OSM    C9S12070   0.492   1.037   5.649
  116OSM    H9S12071   0.540   0.937   5.654
  116OSM    H9T12072   0.561   1.114   5.687
  116OSM   C10S12073   0.467   1.070   5.506
  116OSM   H10S12074   0.409   1.165   5.501
  116OSM   H10T12075   0.400   0.994   5.460
  116OSM   C11S12076   0.589   1.096   5.408
  116OSM   H11S12077   0.656   1.007   5.402
  116OSM   H11T12078   0.654   1.171   5.456
  116OSM   C12S12079   0.557   1.146   5.265
  116OSM   H12S12080   0.650   1.184   5.217
  116OSM   H12T12081   0.484   1.226   5.286
  116OSM   C13S12082   0.501   1.042   5.170
  116OSM   H13S12083   0.414   0.983   5.206
  116OSM   H13T12084   0.578   0.969   5.138
  116OSM   C14S12085   0.465   1.110   5.032
  116OSM   H14S12086   0.393   1.194   5.042
  116OSM   H14T12087   0.398   1.038   4.981
  116OSM   C15S12088   0.575   1.162   4.941
  116OSM   H15S12089   0.659   1.092   4.925
  116OSM   H15T12090   0.623   1.254   4.981
  116OSM   C16S12091   0.518   1.181   4.794
  116OSM   H16S12092   0.440   1.258   4.775
  116OSM   H16T12093   0.472   1.083   4.769
  116OSM   C17S12094   0.634   1.216   4.705
  116OSM   H17S12095   0.725   1.153   4.713
  116OSM   H17T12096   0.651   1.324   4.724
  116OSM   C18S12097   0.590   1.202   4.554
  116OSM   H18S12098   0.502   1.133   4.550
  116OSM   H18T12099   0.672   1.153   4.498
  116OSM   H18U12100   0.563   1.298   4.507
  116OSM    C1F12101   0.578   1.662   6.284
  116OSM     OF12102   0.697   1.682   6.324
  116OSM    C2F12103   0.490   1.774   6.241
  116OSM    H2F12104   0.434   1.807   6.332
  116OSM    H2G12105   0.420   1.740   6.162
  116OSM    C3F12106   0.576   1.896   6.199
  116OSM    H3F12107   0.629   1.937   6.288
  116OSM    H3G12108   0.508   1.979   6.170
  116OSM    C4F12109   0.671   1.868   6.081
  116OSM    H4F12110   0.731   1.776   6.096
  116OSM    H4G12111   0.731   1.960   6.071
  116OSM    C5F12112   0.591   1.889   5.948
  116OSM    H5F12113   0.568   1.996   5.930
  116OSM    H5G12114   0.497   1.829   5.943
  116OSM    C6F12115   0.675   1.851   5.825
  116OSM    H6F12116   0.607   1.848   5.737
  116OSM    H6G12117   0.707   1.746   5.841
  116OSM    C7F12118   0.792   1.945   5.790
  116OSM    H7F12119   0.867   1.938   5.872
  116OSM    H7G12120   0.753   2.048   5.782
  116OSM    C8F12121   0.877   1.923   5.664
  116OSM    H8F12122   0.948   1.839   5.684
  116OSM    H8G12123   0.948   2.009   5.665
  116OSM    C9F12124   0.803   1.923   5.529
  116OSM    H9F12125   0.730   1.841   5.521
  116OSM   C10F12126   0.812   2.012   5.426
  116OSM   H10F12127   0.755   1.990   5.334
  116OSM   C11F12128   0.905   2.126   5.425
  116OSM   H11F12129   0.981   2.131   5.506
  116OSM   H11G12130   0.842   2.217   5.418
  116OSM   C12F12131   0.989   2.130   5.291
  116OSM   H12F12132   1.055   2.046   5.261
  116OSM   H12G12133   1.051   2.222   5.298
  116OSM   C13F12134   0.909   2.145   5.158
  116OSM   H13F12135   0.848   2.237   5.170
  116OSM   H13G12136   0.840   2.059   5.143
  116OSM   C14F12137   0.996   2.162   5.029
  116OSM   H14F12138   0.995   2.066   4.973
  116OSM   H14G12139   1.104   2.172   5.053
  116OSM   C15F12140   0.940   2.265   4.929
  116OSM   H15F12141   0.937   2.369   4.968
  116OSM   H15G12142   0.838   2.227   4.911
  116OSM   C16F12143   0.999   2.275   4.785
  116OSM   H16F12144   0.980   2.178   4.734
  116OSM   H16G12145   1.107   2.294   4.801
  116OSM   C17F12146   0.926   2.376   4.689
  116OSM   H17F12147   0.952   2.475   4.730
  116OSM   H17G12148   0.819   2.347   4.688
  116OSM   C18F12149   0.987   2.371   4.550
  116OSM   H18F12150   0.923   2.445   4.498
  116OSM   H18G12151   0.967   2.270   4.510
  116OSM   H18H12152   1.097   2.392   4.548
  117OSM      N12153   0.618   4.334   6.864
  117OSM    C1512154   0.644   4.237   6.757
  117OSM   H15A12155   0.631   4.134   6.788
  117OSM   H15B12156   0.739   4.248   6.709
  117OSM   H15C12157   0.570   4.257   6.681
  117OSM    C1412158   0.481   4.298   6.917
  117OSM   H14A12159   0.400   4.286   6.847
  117OSM   H14B12160   0.442   4.380   6.976
  117OSM   H14C12161   0.483   4.206   6.974
  117OSM    C1312162   0.719   4.310   6.978
  117OSM   H13A12163   0.818   4.331   6.938
  117OSM   H13B12164   0.736   4.206   7.002
  117OSM   H13C12165   0.700   4.380   7.058
  117OSM    C1212166   0.640   4.471   6.816
  117OSM   H12A12167   0.745   4.477   6.792
  117OSM   H12B12168   0.625   4.535   6.902
  117OSM    C1112169   0.568   4.522   6.692
  117OSM   H11A12170   0.575   4.454   6.604
  117OSM   H11B12171   0.615   4.617   6.657
  117OSM      P12172   0.375   4.674   6.774
  117OSM    O1312173   0.269   4.651   6.872
  117OSM    O1412174   0.483   4.765   6.816
  117OSM    O1112175   0.303   4.729   6.641
  117OSM    O1212176   0.429   4.534   6.715
  117OSM    C1S12177   0.383   4.766   6.529
  117OSM    H1S12178   0.491   4.752   6.549
  117OSM    H1T12179   0.371   4.875   6.511
  117OSM     NF12180   0.455   4.715   6.296
  117OSM    HNF12181   0.450   4.792   6.233
  117OSM    C2S12182   0.355   4.692   6.396
  117OSM    H2S12183   0.361   4.583   6.417
  117OSM    C3S12184   0.210   4.735   6.346
  117OSM    H3S12185   0.204   4.840   6.311
  117OSM     O312186   0.098   4.736   6.443
  117OSM    HO312187   0.141   4.724   6.528
  117OSM    C4S12188   0.174   4.653   6.228
  117OSM    H4S12189   0.213   4.696   6.135
  117OSM    C5S12190   0.095   4.543   6.223
  117OSM    H5S12191   0.078   4.483   6.313
  117OSM    C6S12192   0.043   4.460   6.109
  117OSM    H6S12193   6.711   4.443   6.120
  117OSM    H6T12194   0.081   4.356   6.109
  117OSM    C7S12195   0.077   4.522   5.970
  117OSM    H7S12196   0.185   4.501   5.955
  117OSM    H7T12197   0.061   4.632   5.975
  117OSM    C8S12198   6.755   4.471   5.860
  117OSM    H8S12199   6.653   4.504   5.887
  117OSM    H8T12200   6.745   4.361   5.871
  117OSM    C9S12201   0.011   4.523   5.729
  117OSM    H9S12202   0.103   4.466   5.701
  117OSM    H9T12203   0.038   4.630   5.726
  117OSM   C10S12204   6.693   4.499   5.613
  117OSM   H10S12205   6.596   4.541   5.647
  117OSM   H10T12206   6.670   4.391   5.596
  117OSM   C11S12207   6.735   4.563   5.481
  117OSM   H11S12208   0.064   4.530   5.468
  117OSM   H11T12209   6.736   4.674   5.487
  117OSM   C12S12210   6.652   4.530   5.359
  117OSM   H12S12211   6.554   4.579   5.377
  117OSM   H12T12212   6.645   4.420   5.348
  117OSM   C13S12213   6.727   4.585   5.236
  117OSM   H13S12214   0.029   4.508   5.215
  117OSM   H13T12215   0.004   4.681   5.249
  117OSM   C14S12216   6.642   4.595   5.112
  117OSM   H14S12217   6.563   4.670   5.135
  117OSM   H14T12218   6.588   4.500   5.095
  117OSM   C15S12219   6.722   4.628   4.983
  117OSM   H15S12220   0.004   4.537   4.956
  117OSM   H15T12221   0.008   4.715   5.011
  117OSM   C16S12222   6.629   4.658   4.862
  117OSM   H16S12223   6.530   4.609   4.875
  117OSM   H16T12224   6.683   4.614   4.776
  117OSM   C17S12225   6.616   4.806   4.834
  117OSM   H17S12226   6.719   4.839   4.809
  117OSM   H17T12227   6.581   4.856   4.927
  117OSM   C18S12228   6.521   4.839   4.715
  117OSM   H18S12229   6.521   4.949   4.703
  117OSM   H18T12230   6.422   4.797   4.743
  117OSM   H18U12231   6.548   4.791   4.619
  117OSM    C1F12232   0.571   4.645   6.291
  117OSM     OF12233   0.606   4.554   6.368
  117OSM    C2F12234   0.656   4.687   6.171
  117OSM    H2F12235   0.645   4.795   6.145
  117OSM    H2G12236   0.612   4.635   6.083
  117OSM    C3F12237   0.810   4.661   6.177
  117OSM    H3F12238   0.828   4.560   6.220
  117OSM    H3G12239   0.842   4.741   6.248
  117OSM    C4F12240   0.868   4.692   6.043
  117OSM    H4F12241   0.803   4.636   5.973
  117OSM    H4G12242   0.966   4.641   6.036
  117OSM    C5F12243   0.870   4.844   5.988
  117OSM    H5F12244   0.940   4.907   6.046
  117OSM    H5G12245   0.767   4.885   5.995
  117OSM    C6F12246   0.925   4.863   5.848
  117OSM    H6F12247   1.012   4.795   5.833
  117OSM    H6G12248   0.972   4.964   5.840
  117OSM    C7F12249   0.813   4.843   5.746
  117OSM    H7F12250   0.738   4.923   5.759
  117OSM    H7G12251   0.771   4.742   5.764
  117OSM    C8F12252   0.854   4.847   5.595
  117OSM    H8F12253   0.887   4.952   5.579
  117OSM    H8G12254   0.763   4.833   5.533
  117OSM    C9F12255   0.965   4.752   5.565
  117OSM    H9F12256   1.023   4.713   5.650
  117OSM   C10F12257   0.993   4.696   5.445
  117OSM   H10F12258   1.085   4.637   5.448
  117OSM   C11F12259   0.914   4.706   5.316
  117OSM   H11F12260   0.808   4.688   5.345
  117OSM   H11G12261   0.953   4.638   5.237
  117OSM   C12F12262   0.939   4.844   5.257
  117OSM   H12F12263   1.041   4.849   5.213
  117OSM   H12G12264   0.920   4.923   5.334
  117OSM   C13F12265   0.832   4.870   5.150
  117OSM   H13F12266   0.811   4.979   5.141
  117OSM   H13G12267   0.735   4.824   5.180
  117OSM   C14F12268   0.884   4.810   5.022
  117OSM   H14F12269   0.925   4.708   5.037
  117OSM   H14G12270   0.967   4.882   5.004
  117OSM   C15F12271   0.791   4.817   4.903
  117OSM   H15F12272   0.688   4.796   4.937
  117OSM   H15G12273   0.810   4.740   4.825
  117OSM   C16F12274   0.792   4.957   4.847
  117OSM   H16F12275   0.756   5.027   4.926
  117OSM   H16G12276   0.704   4.960   4.779
  117OSM   C17F12277   0.907   5.009   4.760
  117OSM   H17F12278   0.923   4.928   4.686
  117OSM   H17G12279   0.999   5.026   4.821
  117OSM   C18F12280   0.883   5.146   4.684
  117OSM   H18F12281   0.899   5.208   4.775
  117OSM   H18G12282   0.780   5.157   4.645
  117OSM   H18H12283   0.957   5.156   4.601
  118OSM      N12284   6.574   3.215   6.696
  118OSM    C1512285   6.699   3.255   6.773
  118OSM   H15A12286   6.720   3.356   6.743
  118OSM   H15B12287   0.003   3.194   6.736
  118OSM   H15C12288   6.694   3.258   6.880
  118OSM    C1412289   6.460   3.283   6.770
  118OSM   H14A12290   6.443   3.246   6.870
  118OSM   H14B12291   6.368   3.261   6.719
  118OSM   H14C12292   6.488   3.387   6.777
  118OSM    C1312293   6.584   3.260   6.559
  118OSM   H13A12294   6.617   3.363   6.555
  118OSM   H13B12295   6.490   3.258   6.507
  118OSM   H13C12296   6.658   3.204   6.505
  118OSM    C1212297   6.561   3.066   6.709
  118OSM   H12A12298   6.458   3.054   6.678
  118OSM   H12B12299   6.580   3.043   6.813
  118OSM    C1112300   6.649   2.972   6.630
  118OSM   H11A12301   6.624   2.988   6.523
  118OSM   H11B12302   6.619   2.867   6.649
  118OSM      P12303   0.138   2.996   6.579
  118OSM    O1312304   0.249   3.018   6.673
  118OSM    O1412305   0.142   2.869   6.505
  118OSM    O1112306   0.123   3.112   6.480
  118OSM    O1212307   0.008   2.995   6.660
  118OSM    C1S12308   0.219   3.127   6.368
  118OSM    H1S12309   0.174   3.064   6.289
  118OSM    H1T12310   0.320   3.094   6.402
  118OSM     NF12311   0.312   3.290   6.191
  118OSM    HNF12312   0.401   3.335   6.194
  118OSM    C2S12313   0.226   3.276   6.312
  118OSM    H2S12314   0.123   3.300   6.279
  118OSM    C3S12315   0.259   3.381   6.424
  118OSM    H3S12316   0.358   3.346   6.461
  118OSM     O312317   0.173   3.367   6.536
  118OSM    HO312318   0.134   3.280   6.526
  118OSM    C4S12319   0.253   3.523   6.374
  118OSM    H4S12320   0.348   3.566   6.338
  118OSM    C5S12321   0.138   3.595   6.371
  118OSM    H5S12322   0.046   3.540   6.398
  118OSM    C6S12323   0.137   3.738   6.313
  118OSM    H6S12324   0.183   3.805   6.389
  118OSM    H6T12325   0.031   3.764   6.293
  118OSM    C7S12326   0.220   3.742   6.185
  118OSM    H7S12327   0.326   3.714   6.202
  118OSM    H7T12328   0.200   3.847   6.156
  118OSM    C8S12329   0.180   3.661   6.063
  118OSM    H8S12330   0.220   3.558   6.069
  118OSM    H8T12331   0.236   3.705   5.978
  118OSM    C9S12332   0.040   3.670   6.024
  118OSM    H9S12333   0.019   3.779   6.019
  118OSM    H9T12334   6.750   3.633   6.105
  118OSM   C10S12335   0.004   3.599   5.893
  118OSM   H10S12336   6.676   3.609   5.857
  118OSM   H10T12337   0.029   3.491   5.906
  118OSM   C11S12338   0.082   3.654   5.775
  118OSM   H11S12339   0.190   3.633   5.792
  118OSM   H11T12340   0.058   3.762   5.766
  118OSM   C12S12341   0.042   3.614   5.636
  118OSM   H12S12342   6.713   3.642   5.620
  118OSM   H12T12343   0.056   3.504   5.630
  118OSM   C13S12344   0.135   3.675   5.530
  118OSM   H13S12345   0.241   3.690   5.557
  118OSM   H13T12346   0.113   3.784   5.530
  118OSM   C14S12347   0.112   3.632   5.384
  118OSM   H14S12348   0.009   3.603   5.355
  118OSM   H14T12349   0.174   3.542   5.366
  118OSM   C15S12350   0.168   3.740   5.284
  118OSM   H15S12351   0.275   3.758   5.310
  118OSM   H15T12352   0.101   3.823   5.313
  118OSM   C16S12353   0.157   3.698   5.141
  118OSM   H16S12354   0.050   3.677   5.120
  118OSM   H16T12355   0.220   3.609   5.123
  118OSM   C17S12356   0.189   3.812   5.046
  118OSM   H17S12357   0.299   3.826   5.045
  118OSM   H17T12358   0.142   3.908   5.075
  118OSM   C18S12359   0.146   3.790   4.898
  118OSM   H18S12360   0.226   3.729   4.851
  118OSM   H18T12361   0.133   3.890   4.851
  118OSM   H18U12362   0.050   3.745   4.865
  118OSM    C1F12363   0.282   3.223   6.081
  118OSM     OF12364   0.178   3.155   6.071
  118OSM    C2F12365   0.377   3.247   5.964
  118OSM    H2F12366   0.467   3.187   5.988
  118OSM    H2G12367   0.401   3.355   5.974
  118OSM    C3F12368   0.323   3.210   5.823
  118OSM    H3F12369   0.225   3.262   5.815
  118OSM    H3G12370   0.306   3.101   5.814
  118OSM    C4F12371   0.424   3.235   5.716
  118OSM    H4F12372   0.519   3.185   5.743
  118OSM    H4G12373   0.455   3.342   5.712
  118OSM    C5F12374   0.367   3.170   5.586
  118OSM    H5F12375   0.270   3.218   5.563
  118OSM    H5G12376   0.346   3.063   5.606
  118OSM    C6F12377   0.448   3.194   5.462
  118OSM    H6F12378   0.448   3.101   5.401
  118OSM    H6G12379   0.555   3.209   5.489
  118OSM    C7F12380   0.381   3.294   5.361
  118OSM    H7F12381   0.369   3.393   5.411
  118OSM    H7G12382   0.279   3.261   5.332
  118OSM    C8F12383   0.467   3.316   5.228
  118OSM    H8F12384   0.570   3.351   5.245
  118OSM    H8G12385   0.411   3.392   5.170
  118OSM    C9F12386   0.470   3.186   5.148
  118OSM    H9F12387   0.545   3.113   5.183
  118OSM   C10F12388   0.405   3.160   5.031
  118OSM   H10F12389   0.422   3.063   4.982
  118OSM   C11F12390   0.291   3.254   4.978
  118OSM   H11F12391   0.249   3.323   5.054
  118OSM   H11G12392   0.201   3.205   4.934
  118OSM   C12F12393   0.342   3.338   4.864
  118OSM   H12F12394   0.401   3.295   4.780
  118OSM   H12G12395   0.412   3.416   4.899
  118OSM   C13F12396   0.227   3.419   4.799
  118OSM   H13F12397   0.200   3.506   4.862
  118OSM   H13G12398   0.150   3.343   4.772
  118OSM   C14F12399   0.261   3.481   4.662
  118OSM   H14F12400   0.300   3.408   4.589
  118OSM   H14G12401   0.350   3.545   4.679
  118OSM   C15F12402   0.140   3.552   4.601
  118OSM   H15F12403   0.177   3.631   4.533
  118OSM   H15G12404   0.086   3.598   4.686
  118OSM   C16F12405   0.037   3.462   4.539
  118OSM   H16F12406   0.021   3.391   4.622
  118OSM   H16G12407   0.081   3.414   4.449
  118OSM   C17F12408   6.688   3.517   4.502
  118OSM   H17F12409   6.707   3.609   4.443
  118OSM   H17G12410   6.624   3.547   4.588
  118OSM   C18F12411   6.611   3.412   4.427
  118OSM   H18F12412   6.668   3.367   4.342
  118OSM   H18G12413   6.522   3.453   4.375
  118OSM   H18H12414   6.573   3.331   4.493
  119OSM      N12415   2.192   0.330   6.238
  119OSM    C1512416   2.217   0.300   6.095
  119OSM   H15A12417   2.250   0.388   6.041
  119OSM   H15B12418   2.122   0.263   6.059
  119OSM   H15C12419   2.285   0.216   6.096
  119OSM    C1412420   2.101   0.454   6.262
  119OSM   H14A12421   2.098   0.476   6.368
  119OSM   H14B12422   2.004   0.423   6.226
  119OSM   H14C12423   2.130   0.541   6.204
  119OSM    C1312424   2.139   0.216   6.307
  119OSM   H13A12425   2.205   0.131   6.311
  119OSM   H13B12426   2.046   0.181   6.266
  119OSM   H13C12427   2.121   0.241   6.411
  119OSM    C1212428   2.329   0.363   6.303
  119OSM   H12A12429   2.383   0.272   6.326
  119OSM   H12B12430   2.313   0.402   6.403
  119OSM    C1112431   2.414   0.462   6.228
  119OSM   H11A12432   2.348   0.545   6.196
  119OSM   H11B12433   2.464   0.418   6.139
  119OSM      P12434   2.508   0.617   6.420
  119OSM    O1312435   2.383   0.623   6.500
  119OSM    O1412436   2.633   0.645   6.486
  119OSM    O1112437   2.495   0.737   6.315
  119OSM    O1212438   2.517   0.502   6.312
  119OSM    C1S12439   2.589   0.745   6.209
  119OSM    H1S12440   2.545   0.676   6.134
  119OSM    H1T12441   2.693   0.709   6.226
  119OSM     NF12442   2.678   0.892   6.022
  119OSM    HNF12443   2.761   0.946   6.014
  119OSM    C2S12444   2.605   0.890   6.148
  119OSM    H2S12445   2.501   0.924   6.128
  119OSM    C3S12446   2.660   0.984   6.263
  119OSM    H3S12447   2.762   0.943   6.282
  119OSM     O312448   2.597   0.976   6.394
  119OSM    HO312449   2.554   0.891   6.393
  119OSM    C4S12450   2.663   1.126   6.222
  119OSM    H4S12451   2.565   1.160   6.185
  119OSM    C5S12452   2.776   1.205   6.223
  119OSM    H5S12453   2.874   1.164   6.253
  119OSM    C6S12454   2.769   1.352   6.203
  119OSM    H6S12455   2.760   1.401   6.303
  119OSM    H6T12456   2.670   1.379   6.160
  119OSM    C7S12457   2.885   1.413   6.118
  119OSM    H7S12458   2.980   1.418   6.175
  119OSM    H7T12459   2.872   1.520   6.088
  119OSM    C8S12460   2.932   1.350   5.982
  119OSM    H8S12461   2.972   1.248   5.999
  119OSM    H8T12462   3.007   1.421   5.940
  119OSM    C9S12463   2.819   1.351   5.876
  119OSM    H9S12464   2.776   1.454   5.870
  119OSM    H9T12465   2.743   1.278   5.909
  119OSM   C10S12466   2.868   1.321   5.727
  119OSM   H10S12467   2.934   1.405   5.699
  119OSM   H10T12468   2.791   1.316   5.648
  119OSM   C11S12469   2.959   1.198   5.709
  119OSM   H11S12470   2.898   1.120   5.759
  119OSM   H11T12471   3.042   1.205   5.783
  119OSM   C12S12472   3.011   1.158   5.573
  119OSM   H12S12473   2.931   1.132   5.500
  119OSM   H12T12474   3.083   1.078   5.601
  119OSM   C13S12475   3.099   1.257   5.502
  119OSM   H13S12476   3.187   1.271   5.568
  119OSM   H13T12477   3.044   1.351   5.479
  119OSM   C14S12478   3.147   1.201   5.362
  119OSM   H14S12479   3.059   1.171   5.302
  119OSM   H14T12480   3.207   1.108   5.373
  119OSM   C15S12481   3.238   1.296   5.283
  119OSM   H15S12482   3.180   1.388   5.262
  119OSM   H15T12483   3.252   1.245   5.185
  119OSM   C16S12484   3.382   1.314   5.342
  119OSM   H16S12485   3.438   1.218   5.350
  119OSM   H16T12486   3.368   1.342   5.449
  119OSM   C17S12487   3.465   1.415   5.269
  119OSM   H17S12488   3.479   1.388   5.163
  119OSM   H17T12489   3.566   1.423   5.313
  119OSM   C18S12490   3.399   1.557   5.265
  119OSM   H18S12491   3.394   1.609   5.363
  119OSM   H18T12492   3.300   1.563   5.216
  119OSM   H18U12493   3.456   1.622   5.195
  119OSM    C1F12494   2.625   0.836   5.913
  119OSM     OF12495   2.519   0.771   5.930
  119OSM    C2F12496   2.695   0.844   5.780
  119OSM    H2F12497   2.796   0.805   5.802
  119OSM    H2G12498   2.696   0.953   5.761
  119OSM    C3F12499   2.635   0.763   5.667
  119OSM    H3F12500   2.528   0.792   5.673
  119OSM    H3G12501   2.635   0.652   5.667
  119OSM    C4F12502   2.673   0.808   5.527
  119OSM    H4F12503   2.779   0.775   5.523
  119OSM    H4G12504   2.685   0.918   5.522
  119OSM    C5F12505   2.596   0.747   5.410
  119OSM    H5F12506   2.489   0.770   5.425
  119OSM    H5G12507   2.611   0.637   5.416
  119OSM    C6F12508   2.643   0.799   5.274
  119OSM    H6F12509   2.753   0.795   5.255
  119OSM    H6G12510   2.617   0.907   5.270
  119OSM    C7F12511   2.578   0.712   5.162
  119OSM    H7F12512   2.468   0.720   5.168
  119OSM    H7G12513   2.599   0.604   5.178
  119OSM    C8F12514   2.613   0.753   5.019
  119OSM    H8F12515   2.723   0.749   5.002
  119OSM    H8G12516   2.592   0.862   5.010
  119OSM    C9F12517   2.538   0.672   4.915
  119OSM    H9F12518   2.507   0.569   4.937
  119OSM   C10F12519   2.492   0.719   4.804
  119OSM   H10F12520   2.461   0.644   4.729
  119OSM   C11F12521   2.512   0.853   4.747
  119OSM   H11F12522   2.515   0.844   4.637
  119OSM   H11G12523   2.605   0.885   4.799
  119OSM   C12F12524   2.393   0.946   4.799
  119OSM   H12F12525   2.394   0.964   4.909
  119OSM   H12G12526   2.302   0.890   4.769
  119OSM   C13F12527   2.397   1.086   4.735
  119OSM   H13F12528   2.405   1.083   4.624
  119OSM   H13G12529   2.483   1.147   4.768
  119OSM   C14F12530   2.267   1.162   4.759
  119OSM   H14F12531   2.252   1.184   4.866
  119OSM   H14G12532   2.185   1.092   4.731
  119OSM   C15F12533   2.256   1.291   4.679
  119OSM   H15F12534   2.266   1.278   4.569
  119OSM   H15G12535   2.349   1.349   4.697
  119OSM   C16F12536   2.148   1.383   4.724
  119OSM   H16F12537   2.162   1.390   4.834
  119OSM   H16G12538   2.047   1.341   4.706
  119OSM   C17F12539   2.151   1.519   4.650
  119OSM   H17F12540   2.122   1.499   4.544
  119OSM   H17G12541   2.248   1.569   4.632
  119OSM   C18F12542   2.056   1.620   4.703
  119OSM   H18F12543   1.949   1.592   4.689
  119OSM   H18G12544   2.077   1.716   4.650
  119OSM   H18H12545   2.076   1.652   4.808
  120OSM      N12546   4.974   5.636   7.106
  120OSM    C1512547   4.895   5.720   7.193
  120OSM   H15A12548   4.914   5.695   7.297
  120OSM   H15B12549   4.789   5.706   7.184
  120OSM   H15C12550   4.924   5.822   7.170
  120OSM    C1412551   5.118   5.648   7.146
  120OSM   H14A12552   5.176   5.594   7.072
  120OSM   H14B12553   5.129   5.607   7.245
  120OSM   H14C12554   5.152   5.749   7.164
  120OSM    C1312555   4.926   5.495   7.127
  120OSM   H13A12556   4.969   5.423   7.060
  120OSM   H13B12557   4.821   5.477   7.109
  120OSM   H13C12558   4.955   5.468   7.228
  120OSM    C1212559   4.944   5.671   6.965
  120OSM   H12A12560   4.997   5.761   6.936
  120OSM   H12B12561   4.839   5.694   6.951
  120OSM    C1112562   4.993   5.576   6.848
  120OSM   H11A12563   4.965   5.631   6.755
  120OSM   H11B12564   4.943   5.478   6.833
  120OSM      P12565   5.207   5.419   6.855
  120OSM    O1312566   5.344   5.454   6.895
  120OSM    O1412567   5.126   5.341   6.951
  120OSM    O1112568   5.194   5.361   6.713
  120OSM    O1212569   5.138   5.558   6.848
  120OSM    C1S12570   5.219   5.434   6.596
  120OSM    H1S12571   5.327   5.432   6.570
  120OSM    H1T12572   5.185   5.539   6.615
  120OSM     NF12573   5.188   5.435   6.360
  120OSM    HNF12574   5.163   5.524   6.322
  120OSM    C2S12575   5.128   5.388   6.486
  120OSM    H2S12576   5.136   5.277   6.485
  120OSM    C3S12577   4.972   5.422   6.496
  120OSM    H3S12578   4.965   5.532   6.510
  120OSM     O312579   4.903   5.375   6.617
  120OSM    HO312580   4.972   5.379   6.683
  120OSM    C4S12581   4.903   5.392   6.372
  120OSM    H4S12582   4.892   5.481   6.309
  120OSM    C5S12583   4.852   5.275   6.329
  120OSM    H5S12584   4.845   5.189   6.397
  120OSM    C6S12585   4.800   5.242   6.189
  120OSM    H6S12586   4.690   5.259   6.181
  120OSM    H6T12587   4.818   5.133   6.173
  120OSM    C7S12588   4.857   5.321   6.076
  120OSM    H7S12589   4.968   5.327   6.075
  120OSM    H7T12590   4.833   5.429   6.089
  120OSM    C8S12591   4.815   5.259   5.942
  120OSM    H8S12592   4.704   5.260   5.941
  120OSM    H8T12593   4.828   5.149   5.939
  120OSM    C9S12594   4.871   5.332   5.817
  120OSM    H9S12595   4.857   5.442   5.823
  120OSM    H9T12596   4.818   5.297   5.726
  120OSM   C10S12597   5.022   5.309   5.793
  120OSM   H10S12598   5.043   5.202   5.772
  120OSM   H10T12599   5.076   5.341   5.885
  120OSM   C11S12600   5.065   5.381   5.669
  120OSM   H11S12601   5.175   5.380   5.652
  120OSM   H11T12602   5.021   5.483   5.670
  120OSM   C12S12603   5.016   5.312   5.534
  120OSM   H12S12604   4.907   5.331   5.529
  120OSM   H12T12605   5.015   5.201   5.537
  120OSM   C13S12606   5.097   5.344   5.407
  120OSM   H13S12607   5.190   5.284   5.399
  120OSM   H13T12608   5.112   5.454   5.407
  120OSM   C14S12609   5.018   5.314   5.276
  120OSM   H14S12610   4.951   5.399   5.251
  120OSM   H14T12611   4.949   5.227   5.280
  120OSM   C15S12612   5.117   5.293   5.157
  120OSM   H15S12613   5.210   5.350   5.173
  120OSM   H15T12614   5.060   5.325   5.067
  120OSM   C16S12615   5.149   5.146   5.128
  120OSM   H16S12616   5.058   5.090   5.097
  120OSM   H16T12617   5.178   5.087   5.217
  120OSM   C17S12618   5.257   5.132   5.014
  120OSM   H17S12619   5.290   5.026   5.010
  120OSM   H17T12620   5.351   5.181   5.050
  120OSM   C18S12621   5.218   5.181   4.876
  120OSM   H18S12622   5.177   5.284   4.875
  120OSM   H18T12623   5.146   5.109   4.831
  120OSM   H18U12624   5.311   5.175   4.815
  120OSM    C1F12625   5.294   5.373   6.302
  120OSM     OF12626   5.338   5.271   6.344
  120OSM    C2F12627   5.352   5.433   6.179
  120OSM    H2F12628   5.340   5.361   6.096
  120OSM    H2G12629   5.459   5.450   6.202
  120OSM    C3F12630   5.288   5.565   6.113
  120OSM    H3F12631   5.296   5.646   6.188
  120OSM    H3G12632   5.178   5.550   6.103
  120OSM    C4F12633   5.361   5.617   5.986
  120OSM    H4F12634   5.471   5.619   6.002
  120OSM    H4G12635   5.330   5.720   5.958
  120OSM    C5F12636   5.345   5.534   5.857
  120OSM    H5F12637   5.240   5.550   5.824
  120OSM    H5G12638   5.356   5.430   5.895
  120OSM    C6F12639   5.445   5.574   5.751
  120OSM    H6F12640   5.551   5.558   5.782
  120OSM    H6G12641   5.440   5.683   5.729
  120OSM    C7F12642   5.428   5.493   5.618
  120OSM    H7F12643   5.322   5.515   5.595
  120OSM    H7G12644   5.446   5.386   5.645
  120OSM    C8F12645   5.526   5.520   5.505
  120OSM    H8F12646   5.509   5.447   5.423
  120OSM    H8G12647   5.629   5.509   5.546
  120OSM    C9F12648   5.512   5.657   5.446
  120OSM    H9F12649   5.537   5.739   5.515
  120OSM   C10F12650   5.475   5.697   5.322
  120OSM   H10F12651   5.471   5.804   5.296
  120OSM   C11F12652   5.443   5.607   5.200
  120OSM   H11F12653   5.334   5.589   5.189
  120OSM   H11G12654   5.481   5.503   5.207
  120OSM   C12F12655   5.497   5.674   5.072
  120OSM   H12F12656   5.608   5.680   5.070
  120OSM   H12G12657   5.455   5.776   5.058
  120OSM   C13F12658   5.465   5.586   4.955
  120OSM   H13F12659   5.356   5.566   4.952
  120OSM   H13G12660   5.511   5.486   4.971
  120OSM   C14F12661   5.492   5.645   4.819
  120OSM   H14F12662   5.595   5.687   4.826
  120OSM   H14G12663   5.430   5.736   4.809
  120OSM   C15F12664   5.478   5.549   4.699
  120OSM   H15F12665   5.394   5.477   4.713
  120OSM   H15G12666   5.572   5.491   4.684
  120OSM   C16F12667   5.447   5.627   4.572
  120OSM   H16F12668   5.486   5.564   4.489
  120OSM   H16G12669   5.510   5.717   4.553
  120OSM   C17F12670   5.305   5.670   4.551
  120OSM   H17F12671   5.266   5.730   4.636
  120OSM   H17G12672   5.233   5.588   4.533
  120OSM   C18F12673   5.296   5.754   4.424
  120OSM   H18F12674   5.196   5.792   4.394
  120OSM   H18G12675   5.341   5.697   4.340
  120OSM   H18H12676   5.365   5.840   4.440
  121OSM      N12677   6.524   1.506   6.606
  121OSM    C1512678   6.650   1.429   6.581
  121OSM   H15A12679   6.702   1.484   6.504
  121OSM   H15B12680   6.628   1.330   6.545
  121OSM   H15C12681   6.713   1.429   6.669
  121OSM    C1412682   6.445   1.429   6.709
  121OSM   H14A12683   6.369   1.492   6.754
  121OSM   H14B12684   6.509   1.389   6.786
  121OSM   H14C12685   6.387   1.351   6.662
  121OSM    C1312686   6.557   1.642   6.669
  121OSM   H13A12687   6.631   1.638   6.749
  121OSM   H13B12688   6.466   1.685   6.708
  121OSM   H13C12689   6.605   1.710   6.600
  121OSM    C1212690   6.443   1.519   6.473
  121OSM   H12A12691   6.485   1.580   6.395
  121OSM   H12B12692   6.353   1.574   6.496
  121OSM    C1112693   6.400   1.382   6.404
  121OSM   H11A12694   6.487   1.313   6.402
  121OSM   H11B12695   6.367   1.401   6.300
  121OSM      P12696   6.149   1.358   6.470
  121OSM    O1312697   6.063   1.259   6.540
  121OSM    O1412698   6.139   1.498   6.517
  121OSM    O1112699   6.115   1.350   6.319
  121OSM    O1212700   6.297   1.308   6.477
  121OSM    C1S12701   6.056   1.444   6.230
  121OSM    H1S12702   6.118   1.536   6.238
  121OSM    H1T12703   5.958   1.483   6.266
  121OSM     NF12704   6.032   1.496   5.990
  121OSM    HNF12705   5.943   1.487   5.946
  121OSM    C2S12706   6.054   1.392   6.084
  121OSM    H2S12707   6.149   1.336   6.067
  121OSM    C3S12708   5.946   1.281   6.074
  121OSM    H3S12709   5.850   1.333   6.091
  121OSM     O312710   5.947   1.178   6.176
  121OSM    HO312711   6.002   1.220   6.243
  121OSM    C4S12712   5.936   1.229   5.935
  121OSM    H4S12713   5.845   1.264   5.883
  121OSM    C5S12714   6.016   1.128   5.881
  121OSM    H5S12715   6.105   1.093   5.935
  121OSM    C6S12716   5.993   1.076   5.735
  121OSM    H6S12717   5.925   0.990   5.751
  121OSM    H6T12718   6.090   1.042   5.694
  121OSM    C7S12719   5.910   1.153   5.633
  121OSM    H7S12720   5.940   1.260   5.637
  121OSM    H7T12721   5.803   1.155   5.662
  121OSM    C8S12722   5.928   1.110   5.490
  121OSM    H8S12723   5.868   1.018   5.474
  121OSM    H8T12724   6.037   1.088   5.485
  121OSM    C9S12725   5.887   1.216   5.385
  121OSM    H9S12726   5.930   1.311   5.424
  121OSM    H9T12727   5.778   1.229   5.372
  121OSM   C10S12728   5.918   1.176   5.238
  121OSM   H10S12729   5.842   1.126   5.175
  121OSM   H10T12730   6.005   1.107   5.249
  121OSM   C11S12731   5.987   1.290   5.160
  121OSM   H11S12732   6.047   1.353   5.229
  121OSM   H11T12733   5.907   1.346   5.108
  121OSM   C12S12734   6.081   1.242   5.048
  121OSM   H12S12735   6.041   1.155   4.991
  121OSM   H12T12736   6.170   1.197   5.098
  121OSM   C13S12737   6.131   1.351   4.949
  121OSM   H13S12738   6.139   1.441   5.013
  121OSM   H13T12739   6.068   1.383   4.863
  121OSM   C14S12740   6.264   1.315   4.890
  121OSM   H14S12741   6.249   1.222   4.830
  121OSM   H14T12742   6.343   1.290   4.963
  121OSM   C15S12743   6.322   1.437   4.816
  121OSM   H15S12744   6.432   1.443   4.828
  121OSM   H15T12745   6.280   1.532   4.856
  121OSM   C16S12746   6.285   1.426   4.664
  121OSM   H16S12747   6.176   1.450   4.662
  121OSM   H16T12748   6.302   1.329   4.613
  121OSM   C17S12749   6.357   1.531   4.577
  121OSM   H17S12750   6.466   1.508   4.574
  121OSM   H17T12751   6.336   1.625   4.632
  121OSM   C18S12752   6.308   1.533   4.434
  121OSM   H18S12753   6.205   1.497   4.451
  121OSM   H18T12754   6.364   1.465   4.366
  121OSM   H18U12755   6.288   1.637   4.400
  121OSM    C1F12756   6.107   1.604   5.961
  121OSM     OF12757   6.194   1.645   6.040
  121OSM    C2F12758   6.076   1.677   5.833
  121OSM    H2F12759   6.139   1.768   5.827
  121OSM    H2G12760   5.971   1.712   5.830
  121OSM    C3F12761   6.106   1.601   5.701
  121OSM    H3F12762   6.036   1.518   5.676
  121OSM    H3G12763   6.206   1.553   5.705
  121OSM    C4F12764   6.104   1.686   5.571
  121OSM    H4F12765   6.175   1.768   5.595
  121OSM    H4G12766   6.001   1.726   5.555
  121OSM    C5F12767   6.146   1.600   5.449
  121OSM    H5F12768   6.087   1.506   5.453
  121OSM    H5G12769   6.255   1.578   5.451
  121OSM    C6F12770   6.125   1.661   5.311
  121OSM    H6F12771   6.184   1.612   5.231
  121OSM    H6G12772   6.155   1.768   5.317
  121OSM    C7F12773   5.983   1.658   5.260
  121OSM    H7F12774   5.916   1.710   5.331
  121OSM    H7G12775   5.951   1.554   5.240
  121OSM    C8F12776   5.980   1.726   5.116
  121OSM    H8F12777   6.058   1.672   5.058
  121OSM    H8G12778   6.021   1.829   5.128
  121OSM    C9F12779   5.845   1.752   5.056
  121OSM    H9F12780   5.767   1.762   5.134
  121OSM   C10F12781   5.819   1.728   4.928
  121OSM   H10F12782   5.717   1.747   4.891
  121OSM   C11F12783   5.914   1.702   4.807
  121OSM   H11F12784   5.849   1.678   4.720
  121OSM   H11G12785   5.976   1.611   4.823
  121OSM   C12F12786   6.001   1.823   4.778
  121OSM   H12F12787   6.083   1.826   4.853
  121OSM   H12G12788   5.949   1.919   4.801
  121OSM   C13F12789   6.048   1.838   4.632
  121OSM   H13F12790   5.958   1.830   4.566
  121OSM   H13G12791   6.104   1.746   4.607
  121OSM   C14F12792   6.114   1.970   4.594
  121OSM   H14F12793   6.204   1.986   4.657
  121OSM   H14G12794   6.039   2.046   4.626
  121OSM   C15F12795   6.135   1.996   4.445
  121OSM   H15F12796   6.031   2.015   4.412
  121OSM   H15G12797   6.187   1.904   4.411
  121OSM   C16F12798   6.215   2.119   4.413
  121OSM   H16F12799   6.319   2.096   4.446
  121OSM   H16G12800   6.177   2.204   4.472
  121OSM   C17F12801   6.214   2.168   4.268
  121OSM   H17F12802   6.110   2.174   4.228
  121OSM   H17G12803   6.279   2.096   4.215
  121OSM   C18F12804   6.263   2.315   4.264
  121OSM   H18F12805   6.368   2.315   4.301
  121OSM   H18G12806   6.182   2.362   4.324
  121OSM   H18H12807   6.263   2.351   4.159
  122OSM      N12808   6.319   4.012   6.880
  122OSM    C1512809   6.386   3.882   6.914
  122OSM   H15A12810   6.469   3.870   6.846
  122OSM   H15B12811   6.317   3.802   6.891
  122OSM   H15C12812   6.412   3.870   7.018
  122OSM    C1412813   6.207   4.040   6.971
  122OSM   H14A12814   6.247   4.088   7.060
  122OSM   H14B12815   6.158   3.947   6.995
  122OSM   H14C12816   6.134   4.105   6.927
  122OSM    C1312817   6.414   4.123   6.887
  122OSM   H13A12818   6.420   4.158   6.989
  122OSM   H13B12819   6.379   4.199   6.818
  122OSM   H13C12820   6.512   4.088   6.857
  122OSM    C1212821   6.262   4.001   6.738
  122OSM   H12A12822   6.199   3.913   6.733
  122OSM   H12B12823   6.351   3.983   6.680
  122OSM    C1112824   6.182   4.116   6.683
  122OSM   H11A12825   6.084   4.114   6.735
  122OSM   H11B12826   6.161   4.096   6.576
  122OSM      P12827   6.166   4.375   6.711
  122OSM    O1312828   6.120   4.369   6.849
  122OSM    O1412829   6.259   4.486   6.669
  122OSM    O1112830   6.034   4.371   6.620
  122OSM    O1212831   6.246   4.247   6.686
  122OSM    C1S12832   6.051   4.366   6.483
  122OSM    H1S12833   6.036   4.258   6.463
  122OSM    H1T12834   6.148   4.405   6.447
  122OSM     NF12835   5.966   4.425   6.261
  122OSM    HNF12836   6.028   4.472   6.199
  122OSM    C2S12837   5.951   4.450   6.406
  122OSM    H2S12838   5.854   4.398   6.425
  122OSM    C3S12839   5.936   4.597   6.463
  122OSM    H3S12840   6.037   4.642   6.459
  122OSM     O312841   5.892   4.593   6.600
  122OSM    HO312842   5.927   4.507   6.623
  122OSM    C4S12843   5.841   4.687   6.387
  122OSM    H4S12844   5.735   4.656   6.384
  122OSM    C5S12845   5.875   4.796   6.313
  122OSM    H5S12846   5.979   4.832   6.308
  122OSM    C6S12847   5.783   4.857   6.217
  122OSM    H6S12848   5.839   4.884   6.125
  122OSM    H6T12849   5.740   4.950   6.260
  122OSM    C7S12850   5.669   4.775   6.168
  122OSM    H7S12851   5.619   4.844   6.097
  122OSM    H7T12852   5.586   4.762   6.241
  122OSM    C8S12853   5.722   4.641   6.094
  122OSM    H8S12854   5.739   4.562   6.169
  122OSM    H8T12855   5.824   4.659   6.055
  122OSM    C9S12856   5.636   4.590   5.972
  122OSM    H9S12857   5.540   4.552   6.014
  122OSM    H9T12858   5.684   4.500   5.928
  122OSM   C10S12859   5.580   4.687   5.874
  122OSM   H10S12860   5.654   4.768   5.857
  122OSM   H10T12861   5.491   4.743   5.910
  122OSM   C11S12862   5.551   4.621   5.737
  122OSM   H11S12863   5.460   4.661   5.689
  122OSM   H11T12864   5.506   4.520   5.756
  122OSM   C12S12865   5.674   4.611   5.646
  122OSM   H12S12866   5.747   4.556   5.709
  122OSM   H12T12867   5.706   4.716   5.635
  122OSM   C13S12868   5.649   4.536   5.515
  122OSM   H13S12869   5.554   4.478   5.515
  122OSM   H13T12870   5.734   4.469   5.490
  122OSM   C14S12871   5.615   4.628   5.395
  122OSM   H14S12872   5.714   4.677   5.383
  122OSM   H14T12873   5.534   4.697   5.427
  122OSM   C15S12874   5.585   4.554   5.265
  122OSM   H15S12875   5.487   4.506   5.287
  122OSM   H15T12876   5.663   4.478   5.241
  122OSM   C16S12877   5.567   4.654   5.151
  122OSM   H16S12878   5.657   4.718   5.141
  122OSM   H16T12879   5.481   4.719   5.175
  122OSM   C17S12880   5.542   4.593   5.014
  122OSM   H17S12881   5.460   4.518   5.023
  122OSM   H17T12882   5.621   4.534   4.963
  122OSM   C18S12883   5.484   4.696   4.916
  122OSM   H18S12884   5.423   4.777   4.961
  122OSM   H18T12885   5.435   4.649   4.828
  122OSM   H18U12886   5.572   4.745   4.868
  122OSM    C1F12887   5.939   4.307   6.201
  122OSM     OF12888   5.879   4.220   6.263
  122OSM    C2F12889   5.961   4.310   6.053
  122OSM    H2F12890   6.070   4.323   6.037
  122OSM    H2G12891   5.909   4.400   6.015
  122OSM    C3F12892   5.895   4.186   5.977
  122OSM    H3F12893   5.785   4.179   5.993
  122OSM    H3G12894   5.932   4.097   6.032
  122OSM    C4F12895   5.935   4.171   5.829
  122OSM    H4F12896   6.043   4.148   5.835
  122OSM    H4G12897   5.937   4.262   5.765
  122OSM    C5F12898   5.865   4.066   5.748
  122OSM    H5F12899   5.757   4.082   5.730
  122OSM    H5G12900   5.863   3.969   5.803
  122OSM    C6F12901   5.941   4.048   5.617
  122OSM    H6F12902   5.950   3.943   5.583
  122OSM    H6G12903   6.046   4.084   5.621
  122OSM    C7F12904   5.881   4.144   5.510
  122OSM    H7F12905   5.884   4.242   5.561
  122OSM    H7G12906   5.776   4.111   5.499
  122OSM    C8F12907   5.956   4.145   5.379
  122OSM    H8F12908   5.951   4.046   5.327
  122OSM    H8G12909   6.061   4.170   5.407
  122OSM    C9F12910   5.892   4.250   5.290
  122OSM    H9F12911   5.864   4.343   5.342
  122OSM   C10F12912   5.880   4.239   5.155
  122OSM   H10F12913   5.840   4.324   5.098
  122OSM   C11F12914   5.922   4.121   5.067
  122OSM   H11F12915   5.839   4.081   5.005
  122OSM   H11G12916   5.969   4.037   5.122
  122OSM   C12F12917   6.035   4.164   4.966
  122OSM   H12F12918   6.041   4.070   4.907
  122OSM   H12G12919   6.127   4.189   5.021
  122OSM   C13F12920   5.987   4.280   4.875
  122OSM   H13F12921   5.997   4.380   4.921
  122OSM   H13G12922   5.877   4.267   4.864
  122OSM   C14F12923   6.049   4.277   4.739
  122OSM   H14F12924   5.991   4.347   4.674
  122OSM   H14G12925   6.048   4.178   4.688
  122OSM   C15F12926   6.193   4.341   4.729
  122OSM   H15F12927   6.275   4.267   4.740
  122OSM   H15G12928   6.194   4.412   4.815
  122OSM   C16F12929   6.217   4.410   4.592
  122OSM   H16F12930   6.135   4.483   4.571
  122OSM   H16G12931   6.214   4.335   4.510
  122OSM   C17F12932   6.355   4.486   4.581
  122OSM   H17F12933   6.436   4.412   4.596
  122OSM   H17G12934   6.359   4.560   4.664
  122OSM   C18F12935   6.382   4.550   4.444
  122OSM   H18F12936   6.325   4.644   4.426
  122OSM   H18G12937   6.348   4.477   4.369
  122OSM   H18H12938   6.490   4.566   4.424
  123OSM      N12939   2.482   2.596   2.573
  123OSM    C1512940   2.398   2.524   2.672
  123OSM   H15A12941   2.402   2.417   2.656
  123OSM   H15B12942   2.293   2.545   2.668
  123OSM   H15C12943   2.439   2.541   2.771
  123OSM    C1412944   2.623   2.556   2.580
  123OSM   H14A12945   2.677   2.599   2.663
  123OSM   H14B12946   2.674   2.591   2.492
  123OSM   H14C12947   2.633   2.448   2.574
  123OSM    C1312948   2.425   2.568   2.431
  123OSM   H13A12949   2.419   2.463   2.406
  123OSM   H13B12950   2.465   2.625   2.349
  123OSM   H13C12951   2.322   2.600   2.423
  123OSM    C1212952   2.476   2.746   2.595
  123OSM   H12A12953   2.541   2.797   2.527
  123OSM   H12B12954   2.518   2.772   2.691
  123OSM    C1112955   2.333   2.813   2.583
  123OSM   H11A12956   2.346   2.919   2.616
  123OSM   H11B12957   2.261   2.774   2.658
  123OSM      P12958   2.309   2.911   2.337
  123OSM    O1312959   2.456   2.937   2.331
  123OSM    O1412960   2.244   2.874   2.211
  123OSM    O1112961   2.245   3.030   2.398
  123OSM    O1212962   2.278   2.806   2.448
  123OSM    C1S12963   2.107   3.063   2.382
  123OSM    H1S12964   2.046   3.006   2.310
  123OSM    H1T12965   2.098   3.167   2.343
  123OSM     NF12966   1.898   3.047   2.490
  123OSM    HNF12967   1.847   3.132   2.496
  123OSM    C2S12968   2.039   3.051   2.522
  123OSM    H2S12969   2.079   2.959   2.569
  123OSM    C3S12970   2.090   3.177   2.606
  123OSM    H3S12971   2.058   3.272   2.560
  123OSM     O312972   2.229   3.181   2.635
  123OSM    HO312973   2.267   3.110   2.583
  123OSM    C4S12974   2.020   3.178   2.740
  123OSM    H4S12975   2.047   3.094   2.806
  123OSM    C5S12976   1.938   3.277   2.789
  123OSM    H5S12977   1.926   3.372   2.734
  123OSM    C6S12978   1.869   3.273   2.925
  123OSM    H6S12979   1.768   3.236   2.897
  123OSM    H6T12980   1.855   3.373   2.970
  123OSM    C7S12981   1.934   3.184   3.039
  123OSM    H7S12982   2.045   3.192   3.032
  123OSM    H7T12983   1.920   3.078   3.008
  123OSM    C8S12984   1.879   3.198   3.178
  123OSM    H8S12985   1.770   3.207   3.192
  123OSM    H8T12986   1.922   3.285   3.232
  123OSM    C9S12987   1.924   3.078   3.275
  123OSM    H9S12988   2.034   3.071   3.264
  123OSM    H9T12989   1.870   2.988   3.239
  123OSM   C10S12990   1.896   3.106   3.431
  123OSM   H10S12991   1.816   3.182   3.438
  123OSM   H10T12992   1.979   3.171   3.466
  123OSM   C11S12993   1.857   2.978   3.507
  123OSM   H11S12994   1.936   2.903   3.486
  123OSM   H11T12995   1.762   2.937   3.467
  123OSM   C12S12996   1.848   3.000   3.656
  123OSM   H12S12997   1.946   3.011   3.708
  123OSM   H12T12998   1.801   2.908   3.696
  123OSM   C13S12999   1.753   3.119   3.694
  123OSM   H13S13000   1.677   3.129   3.614
  123OSM   H13T13001   1.796   3.218   3.669
  123OSM   C14S13002   1.703   3.113   3.837
  123OSM   H14S13003   1.667   3.009   3.849
  123OSM   H14T13004   1.623   3.187   3.859
  123OSM   C15S13005   1.804   3.132   3.947
  123OSM   H15S13006   1.861   3.223   3.918
  123OSM   H15T13007   1.868   3.043   3.931
  123OSM   C16S13008   1.742   3.134   4.093
  123OSM   H16S13009   1.652   3.069   4.098
  123OSM   H16T13010   1.702   3.235   4.114
  123OSM   C17S13011   1.851   3.098   4.205
  123OSM   H17S13012   1.887   2.997   4.174
  123OSM   H17T13013   1.803   3.092   4.305
  123OSM   C18S13014   1.966   3.197   4.197
  123OSM   H18S13015   2.015   3.189   4.098
  123OSM   H18T13016   2.036   3.165   4.279
  123OSM   H18U13017   1.925   3.298   4.215
  123OSM    C1F13018   1.841   2.947   2.425
  123OSM     OF13019   1.907   2.845   2.390
  123OSM    C2F13020   1.688   2.964   2.387
  123OSM    H2F13021   1.674   2.967   2.277
  123OSM    H2G13022   1.638   3.052   2.435
  123OSM    C3F13023   1.599   2.853   2.447
  123OSM    H3F13024   1.628   2.752   2.410
  123OSM    H3G13025   1.494   2.875   2.420
  123OSM    C4F13026   1.618   2.841   2.601
  123OSM    H4F13027   1.599   2.934   2.660
  123OSM    H4G13028   1.720   2.799   2.615
  123OSM    C5F13029   1.507   2.739   2.648
  123OSM    H5F13030   1.536   2.649   2.590
  123OSM    H5G13031   1.400   2.764   2.632
  123OSM    C6F13032   1.513   2.689   2.792
  123OSM    H6F13033   1.615   2.644   2.787
  123OSM    H6G13034   1.435   2.610   2.798
  123OSM    C7F13035   1.501   2.791   2.903
  123OSM    H7F13036   1.393   2.811   2.924
  123OSM    H7G13037   1.546   2.885   2.865
  123OSM    C8F13038   1.561   2.741   3.034
  123OSM    H8F13039   1.652   2.681   3.012
  123OSM    H8G13040   1.497   2.676   3.097
  123OSM    C9F13041   1.600   2.857   3.126
  123OSM    H9F13042   1.674   2.923   3.079
  123OSM   C10F13043   1.553   2.885   3.246
  123OSM   H10F13044   1.580   2.981   3.292
  123OSM   C11F13045   1.461   2.791   3.327
  123OSM   H11F13046   1.505   2.690   3.312
  123OSM   H11G13047   1.360   2.787   3.280
  123OSM   C12F13048   1.454   2.821   3.481
  123OSM   H12F13049   1.445   2.928   3.507
  123OSM   H12G13050   1.549   2.782   3.523
  123OSM   C13F13051   1.340   2.740   3.544
  123OSM   H13F13052   1.349   2.641   3.495
  123OSM   H13G13053   1.242   2.765   3.499
  123OSM   C14F13054   1.331   2.738   3.691
  123OSM   H14F13055   1.251   2.809   3.721
  123OSM   H14G13056   1.422   2.778   3.741
  123OSM   C15F13057   1.280   2.609   3.758
  123OSM   H15F13058   1.347   2.521   3.751
  123OSM   H15G13059   1.178   2.585   3.720
  123OSM   C16F13060   1.257   2.639   3.910
  123OSM   H16F13061   1.180   2.719   3.909
  123OSM   H16G13062   1.349   2.680   3.957
  123OSM   C17F13063   1.205   2.520   3.984
  123OSM   H17F13064   1.269   2.432   3.964
  123OSM   H17G13065   1.104   2.500   3.942
  123OSM   C18F13066   1.183   2.548   4.139
  123OSM   H18F13067   1.286   2.557   4.181
  123OSM   H18G13068   1.128   2.465   4.188
  123OSM   H18H13069   1.119   2.637   4.158
  124OSM      N13070   3.247   3.750   1.941
  124OSM    C1513071   3.264   3.693   1.802
  124OSM   H15A13072   3.334   3.755   1.749
  124OSM   H15B13073   3.167   3.689   1.754
  124OSM   H15C13074   3.290   3.588   1.811
  124OSM    C1413075   3.381   3.778   1.996
  124OSM   H14A13076   3.380   3.818   2.097
  124OSM   H14B13077   3.430   3.851   1.933
  124OSM   H14C13078   3.439   3.688   2.010
  124OSM    C1313079   3.177   3.883   1.930
  124OSM   H13A13080   3.074   3.883   1.897
  124OSM   H13B13081   3.221   3.952   1.860
  124OSM   H13C13082   3.173   3.924   2.030
  124OSM    C1213083   3.163   3.664   2.041
  124OSM   H12A13084   3.157   3.710   2.139
  124OSM   H12B13085   3.227   3.578   2.055
  124OSM    C1113086   3.030   3.616   1.989
  124OSM   H11A13087   3.002   3.545   2.070
  124OSM   H11B13088   3.036   3.562   1.892
  124OSM      P13089   2.790   3.699   1.952
  124OSM    O1313090   2.738   3.797   1.864
  124OSM    O1413091   2.768   3.555   1.920
  124OSM    O1113092   2.729   3.731   2.091
  124OSM    O1213093   2.942   3.726   1.982
  124OSM    C1S13094   2.765   3.661   2.214
  124OSM    H1S13095   2.873   3.659   2.239
  124OSM    H1T13096   2.752   3.553   2.192
  124OSM     NF13097   2.764   3.638   2.465
  124OSM    HNF13098   2.715   3.561   2.505
  124OSM    C2S13099   2.696   3.701   2.344
  124OSM    H2S13100   2.713   3.811   2.353
  124OSM    C3S13101   2.546   3.671   2.337
  124OSM    H3S13102   2.539   3.561   2.328
  124OSM     O313103   2.470   3.725   2.229
  124OSM    HO313104   2.540   3.736   2.163
  124OSM    C4S13105   2.486   3.730   2.474
  124OSM    H4S13106   2.477   3.646   2.545
  124OSM    C5S13107   2.442   3.857   2.496
  124OSM    H5S13108   2.449   3.923   2.407
  124OSM    C6S13109   2.388   3.923   2.624
  124OSM    H6S13110   2.279   3.937   2.609
  124OSM    H6T13111   2.435   4.023   2.640
  124OSM    C7S13112   2.422   3.843   2.755
  124OSM    H7S13113   2.533   3.844   2.759
  124OSM    H7T13114   2.383   3.739   2.748
  124OSM    C8S13115   2.374   3.919   2.881
  124OSM    H8S13116   2.264   3.934   2.884
  124OSM    H8T13117   2.421   4.020   2.885
  124OSM    C9S13118   2.415   3.839   3.004
  124OSM    H9S13119   2.523   3.812   3.004
  124OSM    H9T13120   2.352   3.748   2.998
  124OSM   C10S13121   2.374   3.925   3.129
  124OSM   H10S13122   2.272   3.967   3.118
  124OSM   H10T13123   2.441   4.012   3.139
  124OSM   C11S13124   2.372   3.847   3.261
  124OSM   H11S13125   2.471   3.803   3.287
  124OSM   H11T13126   2.305   3.762   3.238
  124OSM   C12S13127   2.334   3.922   3.386
  124OSM   H12S13128   2.229   3.958   3.373
  124OSM   H12T13129   2.405   4.004   3.410
  124OSM   C13S13130   2.318   3.832   3.507
  124OSM   H13S13131   2.417   3.793   3.539
  124OSM   H13T13132   2.269   3.740   3.469
  124OSM   C14S13133   2.237   3.880   3.630
  124OSM   H14S13134   2.142   3.905   3.578
  124OSM   H14T13135   2.301   3.962   3.669
  124OSM   C15S13136   2.210   3.761   3.731
  124OSM   H15S13137   2.314   3.727   3.751
  124OSM   H15T13138   2.161   3.677   3.677
  124OSM   C16S13139   2.131   3.790   3.854
  124OSM   H16S13140   2.023   3.806   3.832
  124OSM   H16T13141   2.164   3.875   3.918
  124OSM   C17S13142   2.147   3.665   3.948
  124OSM   H17S13143   2.258   3.655   3.957
  124OSM   H17T13144   2.116   3.575   3.890
  124OSM   C18S13145   2.068   3.692   4.079
  124OSM   H18S13146   2.057   3.592   4.126
  124OSM   H18T13147   1.967   3.731   4.055
  124OSM   H18U13148   2.122   3.759   4.150
  124OSM    C1F13149   2.890   3.662   2.508
  124OSM     OF13150   2.950   3.757   2.458
  124OSM    C2F13151   2.947   3.576   2.619
  124OSM    H2F13152   3.042   3.625   2.648
  124OSM    H2G13153   2.964   3.485   2.558
  124OSM    C3F13154   2.845   3.553   2.736
  124OSM    H3F13155   2.890   3.469   2.793
  124OSM    H3G13156   2.742   3.519   2.713
  124OSM    C4F13157   2.838   3.685   2.809
  124OSM    H4F13158   2.767   3.671   2.893
  124OSM    H4G13159   2.794   3.760   2.740
  124OSM    C5F13160   2.965   3.734   2.873
  124OSM    H5F13161   2.957   3.840   2.904
  124OSM    H5G13162   3.058   3.731   2.811
  124OSM    C6F13163   2.991   3.648   3.001
  124OSM    H6F13164   3.001   3.544   2.963
  124OSM    H6G13165   2.897   3.645   3.059
  124OSM    C7F13166   3.124   3.678   3.073
  124OSM    H7F13167   3.104   3.781   3.110
  124OSM    H7G13168   3.214   3.684   3.009
  124OSM    C8F13169   3.168   3.582   3.191
  124OSM    H8F13170   3.267   3.614   3.229
  124OSM    H8G13171   3.175   3.482   3.143
  124OSM    C9F13172   3.076   3.568   3.309
  124OSM    H9F13173   2.970   3.552   3.283
  124OSM   C10F13174   3.095   3.578   3.442
  124OSM   H10F13175   3.016   3.555   3.515
  124OSM   C11F13176   3.233   3.602   3.498
  124OSM   H11F13177   3.238   3.711   3.478
  124OSM   H11G13178   3.310   3.550   3.436
  124OSM   C12F13179   3.247   3.569   3.651
  124OSM   H12F13180   3.351   3.602   3.673
  124OSM   H12G13181   3.256   3.459   3.665
  124OSM   C13F13182   3.139   3.621   3.756
  124OSM   H13F13183   3.050   3.558   3.735
  124OSM   H13G13184   3.108   3.721   3.718
  124OSM   C14F13185   3.187   3.607   3.897
  124OSM   H14F13186   3.261   3.527   3.916
  124OSM   H14G13187   3.103   3.580   3.964
  124OSM   C15F13188   3.223   3.739   3.964
  124OSM   H15F13189   3.136   3.808   3.962
  124OSM   H15G13190   3.306   3.786   3.906
  124OSM   C16F13191   3.253   3.717   4.113
  124OSM   H16F13192   3.354   3.672   4.115
  124OSM   H16G13193   3.182   3.641   4.153
  124OSM   C17F13194   3.271   3.850   4.196
  124OSM   H17F13195   3.170   3.896   4.200
  124OSM   H17G13196   3.333   3.921   4.137
  124OSM   C18F13197   3.316   3.822   4.345
  124OSM   H18F13198   3.231   3.786   4.408
  124OSM   H18G13199   3.352   3.907   4.406
  124OSM   H18H13200   3.395   3.744   4.353
  125OSM      N13201   4.164   0.525   2.185
  125OSM    C1513202   4.149   0.601   2.058
  125OSM   H15A13203   4.211   0.557   1.981
  125OSM   H15B13204   4.201   0.695   2.066
  125OSM   H15C13205   4.049   0.606   2.019
  125OSM    C1413206   4.160   0.376   2.162
  125OSM   H14A13207   4.141   0.326   2.256
  125OSM   H14B13208   4.250   0.340   2.113
  125OSM   H14C13209   4.074   0.356   2.100
  125OSM    C1313210   4.303   0.554   2.231
  125OSM   H13A13211   4.305   0.658   2.259
  125OSM   H13B13212   4.374   0.556   2.150
  125OSM   H13C13213   4.344   0.493   2.310
  125OSM    C1213214   4.062   0.564   2.288
  125OSM   H12A13215   4.075   0.670   2.307
  125OSM   H12B13216   4.081   0.505   2.377
  125OSM    C1113217   3.919   0.539   2.250
  125OSM   H11A13218   3.891   0.592   2.156
  125OSM   H11B13219   3.854   0.592   2.323
  125OSM      P13220   3.859   0.311   2.365
  125OSM    O1313221   3.810   0.182   2.317
  125OSM    O1413222   3.976   0.309   2.458
  125OSM    O1113223   3.749   0.403   2.437
  125OSM    O1213224   3.884   0.401   2.237
  125OSM    C1S13225   3.640   0.334   2.507
  125OSM    H1S13226   3.614   0.236   2.461
  125OSM    H1T13227   3.546   0.392   2.494
  125OSM     NF13228   3.573   0.227   2.717
  125OSM    HNF13229   3.495   0.273   2.760
  125OSM    C2S13230   3.681   0.308   2.659
  125OSM    H2S13231   3.777   0.253   2.674
  125OSM    C3S13232   3.699   0.444   2.739
  125OSM    H3S13233   3.598   0.481   2.765
  125OSM     O313234   3.780   0.542   2.672
  125OSM    HO313235   3.807   0.490   2.596
  125OSM    C4S13236   3.767   0.423   2.870
  125OSM    H4S13237   3.844   0.344   2.866
  125OSM    C5S13238   3.733   0.472   2.989
  125OSM    H5S13239   3.643   0.534   3.000
  125OSM    C6S13240   3.791   0.431   3.123
  125OSM    H6S13241   3.862   0.346   3.113
  125OSM    H6T13242   3.703   0.403   3.185
  125OSM    C7S13243   3.870   0.544   3.181
  125OSM    H7S13244   3.807   0.632   3.206
  125OSM    H7T13245   3.942   0.589   3.109
  125OSM    C8S13246   3.946   0.510   3.313
  125OSM    H8S13247   4.017   0.591   3.337
  125OSM    H8T13248   4.005   0.419   3.288
  125OSM    C9S13249   3.848   0.474   3.427
  125OSM    H9S13250   3.795   0.380   3.400
  125OSM    H9T13251   3.761   0.543   3.438
  125OSM   C10S13252   3.909   0.463   3.563
  125OSM   H10S13253   3.952   0.560   3.596
  125OSM   H10T13254   3.990   0.388   3.551
  125OSM   C11S13255   3.819   0.403   3.670
  125OSM   H11S13256   3.791   0.298   3.647
  125OSM   H11T13257   3.728   0.466   3.661
  125OSM   C12S13258   3.876   0.411   3.808
  125OSM   H12S13259   3.890   0.520   3.824
  125OSM   H12T13260   3.972   0.358   3.825
  125OSM   C13S13261   3.779   0.365   3.921
  125OSM   H13S13262   3.740   0.269   3.881
  125OSM   H13T13263   3.689   0.427   3.937
  125OSM   C14S13264   3.844   0.343   4.055
  125OSM   H14S13265   3.861   0.445   4.093
  125OSM   H14T13266   3.942   0.295   4.034
  125OSM   C15S13267   3.763   0.266   4.167
  125OSM   H15S13268   3.840   0.228   4.237
  125OSM   H15T13269   3.722   0.174   4.121
  125OSM   C16S13270   3.653   0.347   4.242
  125OSM   H16S13271   3.571   0.357   4.168
  125OSM   H16T13272   3.697   0.447   4.257
  125OSM   C17S13273   3.615   0.295   4.381
  125OSM   H17S13274   3.708   0.284   4.441
  125OSM   H17T13275   3.574   0.192   4.380
  125OSM   C18S13276   3.515   0.391   4.452
  125OSM   H18S13277   3.504   0.358   4.557
  125OSM   H18T13278   3.417   0.400   4.400
  125OSM   H18U13279   3.566   0.489   4.454
  125OSM    C1F13280   3.548   0.098   2.689
  125OSM     OF13281   3.641   0.032   2.634
  125OSM    C2F13282   3.415   0.039   2.715
  125OSM    H2F13283   3.374   6.768   2.624
  125OSM    H2G13284   3.346   0.122   2.743
  125OSM    C3F13285   3.413   6.720   2.834
  125OSM    H3F13286   3.309   6.691   2.860
  125OSM    H3G13287   3.451   6.766   2.928
  125OSM    C4F13288   3.496   6.595   2.791
  125OSM    H4F13289   3.605   6.610   2.775
  125OSM    H4G13290   3.461   6.551   2.696
  125OSM    C5F13291   3.498   6.483   2.898
  125OSM    H5F13292   3.564   6.404   2.857
  125OSM    H5G13293   3.404   6.431   2.924
  125OSM    C6F13294   3.570   6.511   3.031
  125OSM    H6F13295   3.529   6.592   3.095
  125OSM    H6G13296   3.676   6.533   3.008
  125OSM    C7F13297   3.585   6.382   3.119
  125OSM    H7F13298   3.627   6.306   3.050
  125OSM    H7G13299   3.485   6.347   3.152
  125OSM    C8F13300   3.679   6.401   3.246
  125OSM    H8F13301   3.772   6.421   3.190
  125OSM    H8G13302   3.689   6.312   3.311
  125OSM    C9F13303   3.626   6.515   3.327
  125OSM    H9F13304   3.603   6.608   3.274
  125OSM   C10F13305   3.585   6.498   3.459
  125OSM   H10F13306   3.554   6.587   3.515
  125OSM   C11F13307   3.579   6.374   3.548
  125OSM   H11F13308   3.678   6.368   3.599
  125OSM   H11G13309   3.564   6.286   3.483
  125OSM   C12F13310   3.470   6.353   3.658
  125OSM   H12F13311   3.376   6.357   3.601
  125OSM   H12G13312   3.464   6.430   3.738
  125OSM   C13F13313   3.477   6.214   3.720
  125OSM   H13F13314   3.577   6.209   3.769
  125OSM   H13G13315   3.482   6.134   3.644
  125OSM   C14F13316   3.370   6.193   3.825
  125OSM   H14F13317   3.274   6.233   3.786
  125OSM   H14G13318   3.392   6.269   3.903
  125OSM   C15F13319   3.364   6.048   3.891
  125OSM   H15F13320   3.322   6.054   3.994
  125OSM   H15G13321   3.466   6.004   3.886
  125OSM   C16F13322   3.265   5.951   3.824
  125OSM   H16F13323   3.285   5.844   3.845
  125OSM   H16G13324   3.274   5.960   3.713
  125OSM   C17F13325   3.125   5.989   3.876
  125OSM   H17F13326   3.111   6.098   3.863
  125OSM   H17G13327   3.120   5.961   3.984
  125OSM   C18F13328   3.022   5.912   3.795
  125OSM   H18F13329   3.006   5.822   3.858
  125OSM   H18G13330   3.056   5.873   3.696
  125OSM   H18H13331   2.925   5.962   3.773
  126OSM      N13332   2.703   1.642   1.913
  126OSM    C1513333   2.658   1.773   1.853
  126OSM   H15A13334   2.559   1.773   1.811
  126OSM   H15B13335   2.727   1.808   1.777
  126OSM   H15C13336   2.662   1.847   1.932
  126OSM    C1413337   2.705   1.529   1.811
  126OSM   H14A13338   2.795   1.532   1.751
  126OSM   H14B13339   2.614   1.542   1.752
  126OSM   H14C13340   2.698   1.431   1.856
  126OSM    C1313341   2.848   1.655   1.961
  126OSM   H13A13342   2.885   1.555   1.971
  126OSM   H13B13343   2.851   1.711   2.054
  126OSM   H13C13344   2.907   1.708   1.888
  126OSM    C1213345   2.608   1.600   2.022
  126OSM   H12A13346   2.642   1.501   2.048
  126OSM   H12B13347   2.507   1.580   1.992
  126OSM    C1113348   2.618   1.689   2.157
  126OSM   H11A13349   2.530   1.668   2.221
  126OSM   H11B13350   2.601   1.793   2.120
  126OSM      P13351   2.787   1.569   2.314
  126OSM    O1313352   2.746   1.447   2.243
  126OSM    O1413353   2.934   1.574   2.352
  126OSM    O1113354   2.697   1.599   2.438
  126OSM    O1213355   2.748   1.683   2.216
  126OSM    C1S13356   2.698   1.734   2.494
  126OSM    H1S13357   2.604   1.783   2.460
  126OSM    H1T13358   2.792   1.787   2.470
  126OSM     NF13359   2.711   1.884   2.692
  126OSM    HNF13360   2.803   1.909   2.722
  126OSM    C2S13361   2.692   1.741   2.656
  126OSM    H2S13362   2.588   1.716   2.685
  126OSM    C3S13363   2.788   1.650   2.727
  126OSM    H3S13364   2.888   1.689   2.701
  126OSM     O313365   2.795   1.509   2.680
  126OSM    HO313366   2.742   1.502   2.600
  126OSM    C4S13367   2.770   1.655   2.877
  126OSM    H4S13368   2.836   1.730   2.923
  126OSM    C5S13369   2.692   1.575   2.957
  126OSM    H5S13370   2.643   1.485   2.918
  126OSM    C6S13371   2.686   1.599   3.111
  126OSM    H6S13372   2.749   1.517   3.153
  126OSM    H6T13373   2.588   1.582   3.161
  126OSM    C7S13374   2.749   1.722   3.171
  126OSM    H7S13375   2.696   1.812   3.133
  126OSM    H7T13376   2.856   1.718   3.143
  126OSM    C8S13377   2.744   1.713   3.324
  126OSM    H8S13378   2.739   1.608   3.360
  126OSM    H8T13379   2.648   1.760   3.357
  126OSM    C9S13380   2.863   1.787   3.385
  126OSM    H9S13381   2.869   1.883   3.328
  126OSM    H9T13382   2.953   1.729   3.353
  126OSM   C10S13383   2.875   1.794   3.540
  126OSM   H10S13384   2.788   1.853   3.578
  126OSM   H10T13385   2.963   1.860   3.555
  126OSM   C11S13386   2.894   1.659   3.617
  126OSM   H11S13387   2.993   1.615   3.592
  126OSM   H11T13388   2.804   1.593   3.613
  126OSM   C12S13389   2.907   1.703   3.769
  126OSM   H12S13390   2.980   1.786   3.784
  126OSM   H12T13391   2.941   1.611   3.821
  126OSM   C13S13392   2.780   1.750   3.835
  126OSM   H13S13393   2.704   1.672   3.812
  126OSM   H13T13394   2.738   1.842   3.789
  126OSM   C14S13395   2.787   1.766   3.993
  126OSM   H14S13396   2.687   1.773   4.041
  126OSM   H14T13397   2.842   1.859   4.019
  126OSM   C15S13398   2.858   1.661   4.069
  126OSM   H15S13399   2.957   1.643   4.021
  126OSM   H15T13400   2.801   1.567   4.059
  126OSM   C16S13401   2.868   1.699   4.220
  126OSM   H16S13402   2.765   1.708   4.259
  126OSM   H16T13403   2.920   1.798   4.219
  126OSM   C17S13404   2.944   1.599   4.301
  126OSM   H17S13405   3.041   1.580   4.249
  126OSM   H17T13406   2.890   1.502   4.303
  126OSM   C18S13407   2.962   1.644   4.444
  126OSM   H18S13408   2.991   1.560   4.510
  126OSM   H18T13409   2.866   1.679   4.488
  126OSM   H18U13410   3.032   1.729   4.458
  126OSM    C1F13411   2.627   1.984   2.669
  126OSM     OF13412   2.533   1.966   2.591
  126OSM    C2F13413   2.661   2.118   2.731
  126OSM    H2F13414   2.714   2.182   2.658
  126OSM    H2G13415   2.738   2.099   2.809
  126OSM    C3F13416   2.525   2.178   2.785
  126OSM    H3F13417   2.469   2.099   2.839
  126OSM    H3G13418   2.471   2.218   2.696
  126OSM    C4F13419   2.549   2.301   2.880
  126OSM    H4F13420   2.445   2.331   2.903
  126OSM    H4G13421   2.598   2.381   2.819
  126OSM    C5F13422   2.641   2.275   3.002
  126OSM    H5F13423   2.646   2.369   3.061
  126OSM    H5G13424   2.745   2.263   2.966
  126OSM    C6F13425   2.603   2.149   3.082
  126OSM    H6F13426   2.614   2.068   3.007
  126OSM    H6G13427   2.498   2.158   3.119
  126OSM    C7F13428   2.702   2.122   3.194
  126OSM    H7F13429   2.799   2.149   3.146
  126OSM    H7G13430   2.706   2.014   3.219
  126OSM    C8F13431   2.692   2.190   3.333
  126OSM    H8F13432   2.708   2.298   3.315
  126OSM    H8G13433   2.779   2.154   3.393
  126OSM    C9F13434   2.556   2.177   3.397
  126OSM    H9F13435   2.477   2.183   3.322
  126OSM   C10F13436   2.522   2.120   3.514
  126OSM   H10F13437   2.414   2.121   3.537
  126OSM   C11F13438   2.615   2.077   3.621
  126OSM   H11F13439   2.721   2.083   3.588
  126OSM   H11G13440   2.599   1.970   3.644
  126OSM   C12F13441   2.609   2.151   3.757
  126OSM   H12F13442   2.628   2.260   3.742
  126OSM   H12G13443   2.697   2.111   3.811
  126OSM   C13F13444   2.474   2.122   3.829
  126OSM   H13F13445   2.462   2.012   3.841
  126OSM   H13G13446   2.394   2.164   3.764
  126OSM   C14F13447   2.460   2.195   3.963
  126OSM   H14F13448   2.364   2.168   4.012
  126OSM   H14G13449   2.468   2.305   3.949
  126OSM   C15F13450   2.561   2.148   4.075
  126OSM   H15F13451   2.654   2.159   4.016
  126OSM   H15G13452   2.540   2.042   4.100
  126OSM   C16F13453   2.562   2.228   4.201
  126OSM   H16F13454   2.618   2.321   4.176
  126OSM   H16G13455   2.630   2.167   4.264
  126OSM   C17F13456   2.429   2.270   4.263
  126OSM   H17F13457   2.365   2.180   4.271
  126OSM   H17G13458   2.383   2.335   4.186
  126OSM   C18F13459   2.439   2.327   4.405
  126OSM   H18F13460   2.506   2.416   4.401
  126OSM   H18G13461   2.485   2.257   4.477
  126OSM   H18H13462   2.337   2.354   4.437
  127OSM      N13463   2.489   3.251   2.130
  127OSM    C1513464   2.476   3.388   2.089
  127OSM   H15A13465   2.384   3.442   2.072
  127OSM   H15B13466   2.534   3.410   2.000
  127OSM   H15C13467   2.530   3.433   2.171
  127OSM    C1413468   2.639   3.231   2.140
  127OSM   H14A13469   2.659   3.128   2.166
  127OSM   H14B13470   2.684   3.294   2.216
  127OSM   H14C13471   2.693   3.229   2.046
  127OSM    C1313472   2.431   3.250   2.266
  127OSM   H13A13473   2.437   3.149   2.305
  127OSM   H13B13474   2.338   3.303   2.256
  127OSM   H13C13475   2.496   3.315   2.323
  127OSM    C1213476   2.423   3.153   2.046
  127OSM   H12A13477   2.471   3.060   2.073
  127OSM   H12B13478   2.450   3.176   1.944
  127OSM    C1113479   2.265   3.150   2.043
  127OSM   H11A13480   2.229   3.122   2.145
  127OSM   H11B13481   2.228   3.082   1.964
  127OSM      P13482   2.067   3.300   1.999
  127OSM    O1313483   2.044   3.435   1.936
  127OSM    O1413484   2.006   3.183   1.933
  127OSM    O1113485   2.022   3.304   2.149
  127OSM    O1213486   2.218   3.281   2.006
  127OSM    C1S13487   1.888   3.354   2.174
  127OSM    H1S13488   1.808   3.279   2.193
  127OSM    H1T13489   1.842   3.416   2.094
  127OSM     NF13490   1.750   3.460   2.341
  127OSM    HNF13491   1.686   3.529   2.306
  127OSM    C2S13492   1.893   3.444   2.303
  127OSM    H2S13493   1.941   3.390   2.387
  127OSM    C3S13494   1.978   3.569   2.293
  127OSM    H3S13495   1.922   3.625   2.215
  127OSM     O313496   2.108   3.553   2.245
  127OSM    HO313497   2.110   3.457   2.239
  127OSM    C4S13498   1.982   3.637   2.421
  127OSM    H4S13499   1.900   3.711   2.419
  127OSM    C5S13500   2.079   3.639   2.516
  127OSM    H5S13501   2.167   3.575   2.502
  127OSM    C6S13502   2.095   3.724   2.638
  127OSM    H6S13503   2.093   3.829   2.603
  127OSM    H6T13504   2.192   3.707   2.690
  127OSM    C7S13505   1.969   3.712   2.728
  127OSM    H7S13506   1.938   3.607   2.748
  127OSM    H7T13507   1.883   3.759   2.675
  127OSM    C8S13508   1.977   3.785   2.862
  127OSM    H8S13509   1.876   3.825   2.884
  127OSM    H8T13510   2.057   3.862   2.858
  127OSM    C9S13511   2.013   3.692   2.981
  127OSM    H9S13512   2.124   3.696   2.991
  127OSM    H9T13513   1.964   3.596   2.953
  127OSM   C10S13514   1.960   3.743   3.114
  127OSM   H10S13515   1.858   3.782   3.093
  127OSM   H10T13516   2.019   3.827   3.155
  127OSM   C11S13517   1.948   3.631   3.217
  127OSM   H11S13518   2.048   3.585   3.229
  127OSM   H11T13519   1.877   3.553   3.180
  127OSM   C12S13520   1.904   3.690   3.349
  127OSM   H12S13521   1.802   3.729   3.328
  127OSM   H12T13522   1.968   3.777   3.371
  127OSM   C13S13523   1.918   3.606   3.479
  127OSM   H13S13524   2.026   3.593   3.500
  127OSM   H13T13525   1.866   3.508   3.467
  127OSM   C14S13526   1.839   3.658   3.604
  127OSM   H14S13527   1.737   3.691   3.575
  127OSM   H14T13528   1.887   3.753   3.634
  127OSM   C15S13529   1.824   3.546   3.718
  127OSM   H15S13530   1.931   3.525   3.743
  127OSM   H15T13531   1.783   3.456   3.668
  127OSM   C16S13532   1.751   3.601   3.834
  127OSM   H16S13533   1.647   3.631   3.812
  127OSM   H16T13534   1.807   3.692   3.866
  127OSM   C17S13535   1.729   3.494   3.944
  127OSM   H17S13536   1.830   3.467   3.981
  127OSM   H17T13537   1.695   3.410   3.880
  127OSM   C18S13538   1.624   3.534   4.053
  127OSM   H18S13539   1.529   3.532   3.994
  127OSM   H18T13540   1.634   3.631   4.105
  127OSM   H18U13541   1.614   3.451   4.126
  127OSM    C1F13542   1.703   3.369   2.422
  127OSM     OF13543   1.775   3.300   2.484
  127OSM    C2F13544   1.548   3.357   2.422
  127OSM    H2F13545   1.525   3.249   2.438
  127OSM    H2G13546   1.504   3.375   2.321
  127OSM    C3F13547   1.486   3.439   2.537
  127OSM    H3F13548   1.376   3.447   2.526
  127OSM    H3G13549   1.528   3.540   2.519
  127OSM    C4F13550   1.525   3.391   2.677
  127OSM    H4F13551   1.629   3.351   2.673
  127OSM    H4G13552   1.468   3.303   2.715
  127OSM    C5F13553   1.497   3.495   2.786
  127OSM    H5F13554   1.406   3.541   2.743
  127OSM    H5G13555   1.573   3.576   2.787
  127OSM    C6F13556   1.492   3.429   2.923
  127OSM    H6F13557   1.593   3.384   2.929
  127OSM    H6G13558   1.412   3.353   2.919
  127OSM    C7F13559   1.481   3.518   3.042
  127OSM    H7F13560   1.372   3.540   3.049
  127OSM    H7G13561   1.538   3.612   3.022
  127OSM    C8F13562   1.546   3.472   3.182
  127OSM    H8F13563   1.498   3.545   3.251
  127OSM    H8G13564   1.657   3.479   3.172
  127OSM    C9F13565   1.500   3.333   3.215
  127OSM    H9F13566   1.499   3.272   3.124
  127OSM   C10F13567   1.447   3.293   3.338
  127OSM   H10F13568   1.413   3.189   3.332
  127OSM   C11F13569   1.446   3.377   3.459
  127OSM   H11F13570   1.374   3.461   3.452
  127OSM   H11G13571   1.546   3.419   3.481
  127OSM   C12F13572   1.399   3.296   3.576
  127OSM   H12F13573   1.478   3.222   3.601
  127OSM   H12G13574   1.293   3.263   3.570
  127OSM   C13F13575   1.379   3.374   3.707
  127OSM   H13F13576   1.321   3.468   3.699
  127OSM   H13G13577   1.474   3.417   3.744
  127OSM   C14F13578   1.322   3.280   3.815
  127OSM   H14F13579   1.392   3.198   3.841
  127OSM   H14G13580   1.231   3.223   3.788
  127OSM   C15F13581   1.271   3.365   3.938
  127OSM   H15F13582   1.217   3.446   3.885
  127OSM   H15G13583   1.352   3.417   3.993
  127OSM   C16F13584   1.180   3.291   4.031
  127OSM   H16F13585   1.089   3.245   3.988
  127OSM   H16G13586   1.143   3.360   4.109
  127OSM   C17F13587   1.256   3.176   4.110
  127OSM   H17F13588   1.290   3.107   4.030
  127OSM   H17G13589   1.186   3.107   4.162
  127OSM   C18F13590   1.361   3.222   4.214
  127OSM   H18F13591   1.302   3.275   4.292
  127OSM   H18G13592   1.436   3.295   4.179
  127OSM   H18H13593   1.415   3.134   4.257
  128OSM      N13594   1.267   0.813   1.882
  128OSM    C1513595   1.155   0.722   1.836
  128OSM   H15A13596   1.172   0.622   1.874
  128OSM   H15B13597   1.135   0.718   1.730
  128OSM   H15C13598   1.065   0.762   1.881
  128OSM    C1413599   1.397   0.748   1.839
  128OSM   H14A13600   1.475   0.819   1.865
  128OSM   H14B13601   1.397   0.746   1.731
  128OSM   H14C13602   1.420   0.649   1.877
  128OSM    C1313603   1.237   0.950   1.819
  128OSM   H13A13604   1.271   0.952   1.717
  128OSM   H13B13605   1.301   1.021   1.870
  128OSM   H13C13606   1.131   0.969   1.818
  128OSM    C1213607   1.266   0.813   2.035
  128OSM   H12A13608   1.289   0.715   2.074
  128OSM   H12B13609   1.165   0.823   2.071
  128OSM    C1113610   1.359   0.912   2.106
  128OSM   H11A13611   1.339   0.913   2.216
  128OSM   H11B13612   1.325   1.012   2.069
  128OSM      P13613   1.597   1.015   2.051
  128OSM    O1313614   1.732   0.977   2.011
  128OSM    O1413615   1.527   1.107   1.961
  128OSM    O1113616   1.608   1.071   2.192
  128OSM    O1213617   1.499   0.887   2.085
  128OSM    C1S13618   1.621   0.976   2.302
  128OSM    H1S13619   1.672   0.882   2.270
  128OSM    H1T13620   1.523   0.960   2.353
  128OSM     NF13621   1.726   0.962   2.526
  128OSM    HNF13622   1.670   0.988   2.605
  128OSM    C2S13623   1.714   1.041   2.409
  128OSM    H2S13624   1.813   1.055   2.362
  128OSM    C3S13625   1.668   1.184   2.465
  128OSM    H3S13626   1.561   1.163   2.486
  128OSM     O313627   1.666   1.282   2.360
  128OSM    HO313628   1.648   1.243   2.274
  128OSM    C4S13629   1.741   1.236   2.592
  128OSM    H4S13630   1.848   1.261   2.580
  128OSM    C5S13631   1.687   1.282   2.706
  128OSM    H5S13632   1.578   1.293   2.714
  128OSM    C6S13633   1.756   1.344   2.823
  128OSM    H6S13634   1.723   1.278   2.907
  128OSM    H6T13635   1.722   1.449   2.836
  128OSM    C7S13636   1.908   1.329   2.825
  128OSM    H7S13637   1.946   1.385   2.737
  128OSM    H7T13638   1.923   1.219   2.832
  128OSM    C8S13639   1.990   1.379   2.952
  128OSM    H8S13640   1.970   1.488   2.966
  128OSM    H8T13641   2.097   1.372   2.926
  128OSM    C9S13642   1.963   1.302   3.083
  128OSM    H9S13643   1.982   1.194   3.073
  128OSM    H9T13644   1.855   1.300   3.109
  128OSM   C10S13645   2.028   1.380   3.197
  128OSM   H10S13646   2.017   1.489   3.181
  128OSM   H10T13647   2.137   1.359   3.203
  128OSM   C11S13648   1.968   1.346   3.335
  128OSM   H11S13649   1.969   1.236   3.353
  128OSM   H11T13650   1.861   1.378   3.333
  128OSM   C12S13651   2.035   1.421   3.454
  128OSM   H12S13652   2.005   1.528   3.460
  128OSM   H12T13653   2.146   1.423   3.449
  128OSM   C13S13654   2.008   1.346   3.590
  128OSM   H13S13655   2.021   1.236   3.581
  128OSM   H13T13656   1.899   1.354   3.613
  128OSM   C14S13657   2.093   1.394   3.711
  128OSM   H14S13658   2.107   1.504   3.698
  128OSM   H14T13659   2.195   1.349   3.703
  128OSM   C15S13660   2.022   1.361   3.842
  128OSM   H15S13661   1.924   1.413   3.845
  128OSM   H15T13662   2.082   1.396   3.929
  128OSM   C16S13663   2.014   1.206   3.852
  128OSM   H16S13664   2.111   1.160   3.824
  128OSM   H16T13665   1.944   1.160   3.779
  128OSM   C17S13666   1.980   1.149   3.988
  128OSM   H17S13667   1.885   1.196   4.021
  128OSM   H17T13668   2.057   1.183   4.061
  128OSM   C18S13669   1.976   0.991   3.984
  128OSM   H18S13670   1.963   0.948   4.085
  128OSM   H18T13671   2.074   0.959   3.940
  128OSM   H18U13672   1.899   0.953   3.913
  128OSM    C1F13673   1.814   0.855   2.527
  128OSM     OF13674   1.891   0.836   2.430
  128OSM    C2F13675   1.823   0.773   2.647
  128OSM    H2F13676   1.827   0.666   2.618
  128OSM    H2G13677   1.742   0.792   2.720
  128OSM    C3F13678   1.950   0.815   2.723
  128OSM    H3F13679   1.945   0.925   2.739
  128OSM    H3G13680   2.047   0.799   2.671
  128OSM    C4F13681   1.967   0.748   2.856
  128OSM    H4F13682   1.975   0.638   2.845
  128OSM    H4G13683   1.871   0.762   2.911
  128OSM    C5F13684   2.072   0.809   2.948
  128OSM    H5F13685   2.061   0.918   2.970
  128OSM    H5G13686   2.173   0.801   2.903
  128OSM    C6F13687   2.064   0.732   3.085
  128OSM    H6F13688   2.158   0.745   3.142
  128OSM    H6G13689   2.061   0.623   3.068
  128OSM    C7F13690   1.937   0.769   3.165
  128OSM    H7F13691   1.932   0.691   3.244
  128OSM    H7G13692   1.842   0.742   3.114
  128OSM    C8F13693   1.935   0.911   3.229
  128OSM    H8F13694   1.902   0.987   3.155
  128OSM    H8G13695   2.039   0.937   3.257
  128OSM    C9F13696   1.844   0.920   3.347
  128OSM    H9F13697   1.736   0.933   3.328
  128OSM   C10F13698   1.864   0.927   3.484
  128OSM   H10F13699   1.783   0.930   3.558
  128OSM   C11F13700   1.996   0.928   3.554
  128OSM   H11F13701   1.984   1.011   3.626
  128OSM   H11G13702   2.071   0.959   3.479
  128OSM   C12F13703   2.041   0.805   3.626
  128OSM   H12F13704   1.951   0.763   3.676
  128OSM   H12G13705   2.122   0.838   3.695
  128OSM   C13F13706   2.091   0.701   3.526
  128OSM   H13F13707   2.176   0.739   3.466
  128OSM   H13G13708   2.007   0.679   3.456
  128OSM   C14F13709   2.139   0.573   3.587
  128OSM   H14F13710   2.219   0.594   3.661
  128OSM   H14G13711   2.188   0.518   3.504
  128OSM   C15F13712   2.022   0.486   3.640
  128OSM   H15F13713   1.947   0.476   3.559
  128OSM   H15G13714   1.975   0.533   3.730
  128OSM   C16F13715   2.065   0.343   3.688
  128OSM   H16F13716   2.160   0.356   3.744
  128OSM   H16G13717   2.078   0.275   3.601
  128OSM   C17F13718   1.975   0.278   3.794
  128OSM   H17F13719   1.866   0.285   3.772
  128OSM   H17G13720   1.995   0.334   3.888
  128OSM   C18F13721   2.012   0.131   3.817
  128OSM   H18F13722   2.115   0.123   3.856
  128OSM   H18G13723   2.001   0.071   3.724
  128OSM   H18H13724   1.948   0.089   3.898
  129OSM      N13725   3.310   0.769   2.018
  129OSM    C1513726   3.343   0.632   1.959
  129OSM   H15A13727   3.354   0.561   2.040
  129OSM   H15B13728   3.437   0.630   1.905
  129OSM   H15C13729   3.259   0.612   1.893
  129OSM    C1413730   3.412   0.796   2.117
  129OSM   H14A13731   3.414   0.715   2.189
  129OSM   H14B13732   3.403   0.887   2.176
  129OSM   H14C13733   3.509   0.803   2.070
  129OSM    C1313734   3.330   0.869   1.906
  129OSM   H13A13735   3.426   0.861   1.857
  129OSM   H13B13736   3.310   0.968   1.944
  129OSM   H13C13737   3.250   0.857   1.835
  129OSM    C1213738   3.171   0.778   2.085
  129OSM   H12A13739   3.089   0.765   2.015
  129OSM   H12B13740   3.158   0.877   2.124
  129OSM    C1113741   3.147   0.668   2.202
  129OSM   H11A13742   3.041   0.671   2.233
  129OSM   H11B13743   3.208   0.698   2.290
  129OSM      P13744   3.226   0.421   2.259
  129OSM    O1313745   3.115   0.337   2.294
  129OSM    O1413746   3.331   0.358   2.184
  129OSM    O1113747   3.287   0.500   2.379
  129OSM    O1213748   3.182   0.536   2.164
  129OSM    C1S13749   3.237   0.498   2.513
  129OSM    H1S13750   3.240   0.395   2.553
  129OSM    H1T13751   3.133   0.535   2.518
  129OSM     NF13752   3.270   0.565   2.754
  129OSM    HNF13753   3.248   0.649   2.804
  129OSM    C2S13754   3.321   0.577   2.618
  129OSM    H2S13755   3.419   0.526   2.623
  129OSM    C3S13756   3.344   0.718   2.560
  129OSM    H3S13757   3.241   0.753   2.540
  129OSM     O313758   3.424   0.724   2.441
  129OSM    HO313759   3.417   0.633   2.414
  129OSM    C4S13760   3.406   0.792   2.667
  129OSM    H4S13761   3.328   0.833   2.733
  129OSM    C5S13762   3.540   0.797   2.702
  129OSM    H5S13763   3.615   0.751   2.636
  129OSM    C6S13764   3.596   0.865   2.823
  129OSM    H6S13765   3.624   0.971   2.802
  129OSM    H6T13766   3.692   0.818   2.850
  129OSM    C7S13767   3.513   0.879   2.961
  129OSM    H7S13768   3.414   0.925   2.941
  129OSM    H7T13769   3.574   0.936   3.034
  129OSM    C8S13770   3.495   0.742   3.030
  129OSM    H8S13771   3.596   0.704   3.056
  129OSM    H8T13772   3.456   0.678   2.948
  129OSM    C9S13773   3.405   0.751   3.158
  129OSM    H9S13774   3.295   0.754   3.141
  129OSM    H9T13775   3.442   0.834   3.221
  129OSM   C10S13776   3.439   0.636   3.240
  129OSM   H10S13777   3.546   0.637   3.271
  129OSM   H10T13778   3.435   0.544   3.179
  129OSM   C11S13779   3.363   0.624   3.370
  129OSM   H11S13780   3.257   0.597   3.352
  129OSM   H11T13781   3.354   0.719   3.427
  129OSM   C12S13782   3.435   0.522   3.464
  129OSM   H12S13783   3.545   0.523   3.449
  129OSM   H12T13784   3.405   0.420   3.431
  129OSM   C13S13785   3.412   0.540   3.614
  129OSM   H13S13786   3.423   0.648   3.640
  129OSM   H13T13787   3.489   0.483   3.670
  129OSM   C14S13788   3.280   0.497   3.662
  129OSM   H14S13789   3.266   0.392   3.630
  129OSM   H14T13790   3.202   0.562   3.616
  129OSM   C15S13791   3.272   0.498   3.814
  129OSM   H15S13792   3.167   0.475   3.842
  129OSM   H15T13793   3.299   0.601   3.843
  129OSM   C16S13794   3.367   0.399   3.887
  129OSM   H16S13795   3.452   0.452   3.937
  129OSM   H16T13796   3.413   0.333   3.811
  129OSM   C17S13797   3.300   0.331   4.002
  129OSM   H17S13798   3.376   0.263   4.046
  129OSM   H17T13799   3.222   0.259   3.967
  129OSM   C18S13800   3.252   0.427   4.114
  129OSM   H18S13801   3.153   0.468   4.087
  129OSM   H18T13802   3.324   0.510   4.132
  129OSM   H18U13803   3.238   0.377   4.212
  129OSM    C1F13804   3.260   0.455   2.817
  129OSM     OF13805   3.311   0.354   2.771
  129OSM    C2F13806   3.192   0.448   2.944
  129OSM    H2F13807   3.096   0.505   2.949
  129OSM    H2G13808   3.263   0.499   3.013
  129OSM    C3F13809   3.165   0.300   2.991
  129OSM    H3F13810   3.237   0.226   2.950
  129OSM    H3G13811   3.073   0.271   2.936
  129OSM    C4F13812   3.137   0.288   3.145
  129OSM    H4F13813   3.082   0.191   3.147
  129OSM    H4G13814   3.072   0.373   3.172
  129OSM    C5F13815   3.256   0.286   3.244
  129OSM    H5F13816   3.231   0.299   3.351
  129OSM    H5G13817   3.322   0.371   3.216
  129OSM    C6F13818   3.337   0.156   3.239
  129OSM    H6F13819   3.353   0.144   3.130
  129OSM    H6G13820   3.264   0.080   3.275
  129OSM    C7F13821   3.467   0.146   3.320
  129OSM    H7F13822   3.536   0.233   3.322
  129OSM    H7G13823   3.537   0.068   3.283
  129OSM    C8F13824   3.434   0.113   3.470
  129OSM    H8F13825   3.387   0.012   3.473
  129OSM    H8G13826   3.370   0.193   3.514
  129OSM    C9F13827   3.555   0.113   3.557
  129OSM    H9F13828   3.641   0.169   3.518
  129OSM   C10F13829   3.562   0.066   3.680
  129OSM   H10F13830   3.657   0.066   3.736
  129OSM   C11F13831   3.453   6.773   3.752
  129OSM   H11F13832   3.411   6.687   3.696
  129OSM   H11G13833   3.365   0.065   3.759
  129OSM   C12F13834   3.505   6.721   3.886
  129OSM   H12F13835   3.556   0.020   3.950
  129OSM   H12G13836   3.591   6.653   3.871
  129OSM   C13F13837   3.401   6.634   3.959
  129OSM   H13F13838   3.396   6.542   3.897
  129OSM   H13G13839   3.302   6.685   3.963
  129OSM   C14F13840   3.436   6.576   4.098
  129OSM   H14F13841   3.518   6.501   4.092
  129OSM   H14G13842   3.349   6.526   4.145
  129OSM   C15F13843   3.496   6.687   4.191
  129OSM   H15F13844   3.418   6.766   4.190
  129OSM   H15G13845   3.587   6.734   4.147
  129OSM   C16F13846   3.533   6.643   4.335
  129OSM   H16F13847   3.593   6.724   4.381
  129OSM   H16G13848   3.575   6.541   4.326
  129OSM   C17F13849   3.401   6.636   4.423
  129OSM   H17F13850   3.310   6.617   4.363
  129OSM   H17G13851   3.386   6.738   4.463
  129OSM   C18F13852   3.404   6.526   4.534
  129OSM   H18F13853   3.418   6.428   4.484
  129OSM   H18G13854   3.313   6.539   4.596
  129OSM   H18H13855   3.493   6.544   4.599
  130OSM      N13856   3.255   4.984   2.469
  130OSM    C1513857   3.353   5.098   2.475
  130OSM   H15A13858   3.339   5.180   2.543
  130OSM   H15B13859   3.360   5.152   2.382
  130OSM   H15C13860   3.452   5.056   2.489
  130OSM    C1413861   3.299   4.892   2.576
  130OSM   H14A13862   3.384   4.841   2.533
  130OSM   H14B13863   3.232   4.815   2.610
  130OSM   H14C13864   3.324   4.948   2.665
  130OSM    C1313865   3.118   5.031   2.500
  130OSM   H13A13866   3.065   5.081   2.420
  130OSM   H13B13867   3.112   5.097   2.585
  130OSM   H13C13868   3.061   4.948   2.537
  130OSM    C1213869   3.258   4.915   2.334
  130OSM   H12A13870   3.238   4.988   2.257
  130OSM   H12B13871   3.181   4.838   2.329
  130OSM    C1113872   3.398   4.853   2.299
  130OSM   H11A13873   3.483   4.920   2.325
  130OSM   H11B13874   3.399   4.859   2.188
  130OSM      P13875   3.353   4.589   2.312
  130OSM    O1313876   3.219   4.618   2.262
  130OSM    O1413877   3.448   4.504   2.237
  130OSM    O1113878   3.341   4.524   2.455
  130OSM    O1213879   3.420   4.725   2.353
  130OSM    C1S13880   3.443   4.539   2.553
  130OSM    H1S13881   3.438   4.641   2.596
  130OSM    H1T13882   3.541   4.533   2.502
  130OSM     NF13883   3.533   4.452   2.772
  130OSM    HNF13884   3.606   4.385   2.781
  130OSM    C2S13885   3.438   4.426   2.660
  130OSM    H2S13886   3.335   4.443   2.699
  130OSM    C3S13887   3.439   4.281   2.601
  130OSM    H3S13888   3.544   4.271   2.567
  130OSM     O313889   3.357   4.271   2.484
  130OSM    HO313890   3.346   4.363   2.457
  130OSM    C4S13891   3.426   4.163   2.691
  130OSM    H4S13892   3.515   4.099   2.696
  130OSM    C5S13893   3.313   4.116   2.750
  130OSM    H5S13894   3.222   4.178   2.750
  130OSM    C6S13895   3.298   4.000   2.851
  130OSM    H6S13896   3.311   3.900   2.806
  130OSM    H6T13897   3.190   3.988   2.877
  130OSM    C7S13898   3.378   4.007   2.984
  130OSM    H7S13899   3.487   4.002   2.960
  130OSM    H7T13900   3.361   3.908   3.031
  130OSM    C8S13901   3.355   4.113   3.089
  130OSM    H8S13902   3.247   4.136   3.095
  130OSM    H8T13903   3.413   4.208   3.088
  130OSM    C9S13904   3.397   4.044   3.222
  130OSM    H9S13905   3.505   4.019   3.226
  130OSM    H9T13906   3.341   3.948   3.229
  130OSM   C10S13907   3.365   4.124   3.346
  130OSM   H10S13908   3.256   4.143   3.339
  130OSM   H10T13909   3.415   4.223   3.348
  130OSM   C11S13910   3.408   4.048   3.478
  130OSM   H11S13911   3.519   4.043   3.485
  130OSM   H11T13912   3.373   3.943   3.463
  130OSM   C12S13913   3.344   4.101   3.603
  130OSM   H12S13914   3.235   4.108   3.588
  130OSM   H12T13915   3.380   4.199   3.641
  130OSM   C13S13916   3.377   4.010   3.723
  130OSM   H13S13917   3.480   3.970   3.705
  130OSM   H13T13918   3.307   3.927   3.745
  130OSM   C14S13919   3.375   4.080   3.847
  130OSM   H14S13920   3.457   4.155   3.843
  130OSM   H14T13921   3.408   4.017   3.933
  130OSM   C15S13922   3.253   4.156   3.887
  130OSM   H15S13923   3.157   4.101   3.896
  130OSM   H15T13924   3.225   4.238   3.818
  130OSM   C16S13925   3.273   4.236   4.021
  130OSM   H16S13926   3.349   4.316   4.008
  130OSM   H16T13927   3.310   4.168   4.100
  130OSM   C17S13928   3.144   4.301   4.074
  130OSM   H17S13929   3.167   4.368   4.160
  130OSM   H17T13930   3.085   4.218   4.116
  130OSM   C18S13931   3.060   4.386   3.976
  130OSM   H18S13932   3.112   4.469   3.924
  130OSM   H18T13933   2.985   4.433   4.044
  130OSM   H18U13934   3.013   4.318   3.903
  130OSM    C1F13935   3.524   4.553   2.852
  130OSM     OF13936   3.432   4.629   2.833
  130OSM    C2F13937   3.616   4.558   2.967
  130OSM    H2F13938   3.705   4.619   2.940
  130OSM    H2G13939   3.641   4.452   2.989
  130OSM    C3F13940   3.556   4.614   3.101
  130OSM    H3F13941   3.450   4.582   3.106
  130OSM    H3G13942   3.551   4.723   3.082
  130OSM    C4F13943   3.625   4.588   3.232
  130OSM    H4F13944   3.564   4.648   3.303
  130OSM    H4G13945   3.727   4.630   3.239
  130OSM    C5F13946   3.620   4.444   3.285
  130OSM    H5F13947   3.687   4.380   3.223
  130OSM    H5G13948   3.519   4.400   3.286
  130OSM    C6F13949   3.685   4.445   3.425
  130OSM    H6F13950   3.764   4.522   3.418
  130OSM    H6G13951   3.722   4.342   3.447
  130OSM    C7F13952   3.588   4.480   3.534
  130OSM    H7F13953   3.521   4.394   3.551
  130OSM    H7G13954   3.523   4.567   3.510
  130OSM    C8F13955   3.652   4.514   3.676
  130OSM    H8F13956   3.707   4.610   3.664
  130OSM    H8G13957   3.728   4.439   3.706
  130OSM    C9F13958   3.540   4.527   3.773
  130OSM    H9F13959   3.453   4.467   3.743
  130OSM   C10F13960   3.555   4.587   3.897
  130OSM   H10F13961   3.468   4.604   3.962
  130OSM   C11F13962   3.676   4.666   3.952
  130OSM   H11F13963   3.647   4.772   3.964
  130OSM   H11G13964   3.764   4.668   3.884
  130OSM   C12F13965   3.716   4.616   4.091
  130OSM   H12F13966   3.826   4.606   4.080
  130OSM   H12G13967   3.672   4.515   4.100
  130OSM   C13F13968   3.669   4.697   4.218
  130OSM   H13F13969   3.563   4.727   4.217
  130OSM   H13G13970   3.721   4.794   4.230
  130OSM   C14F13971   3.694   4.622   4.342
  130OSM   H14F13972   3.789   4.566   4.332
  130OSM   H14G13973   3.618   4.541   4.348
  130OSM   C15F13974   3.688   4.700   4.469
  130OSM   H15F13975   3.766   4.779   4.456
  130OSM   H15G13976   3.690   4.638   4.561
  130OSM   C16F13977   3.546   4.759   4.478
  130OSM   H16F13978   3.479   4.672   4.463
  130OSM   H16G13979   3.525   4.840   4.405
  130OSM   C17F13980   3.516   4.823   4.614
  130OSM   H17F13981   3.528   4.754   4.700
  130OSM   H17G13982   3.407   4.843   4.611
  130OSM   C18F13983   3.583   4.950   4.655
  130OSM   H18F13984   3.564   5.036   4.588
  130OSM   H18G13985   3.691   4.922   4.654
  130OSM   H18H13986   3.551   4.994   4.751
  131OSM      N13987   0.636   0.763   1.699
  131OSM    C1513988   0.666   0.901   1.655
  131OSM   H15A13989   0.612   0.970   1.718
  131OSM   H15B13990   0.652   0.923   1.550
  131OSM   H15C13991   0.767   0.936   1.673
  131OSM    C1413992   0.505   0.721   1.641
  131OSM   H14A13993   0.421   0.760   1.696
  131OSM   H14B13994   0.502   0.613   1.647
  131OSM   H14C13995   0.496   0.753   1.539
  131OSM    C1313996   0.736   0.669   1.642
  131OSM   H13A13997   0.749   0.692   1.537
  131OSM   H13B13998   0.702   0.567   1.633
  131OSM   H13C13999   0.829   0.693   1.691
  131OSM    C1214000   0.637   0.750   1.849
  131OSM   H12A14001   0.589   0.658   1.881
  131OSM   H12B14002   0.589   0.842   1.880
  131OSM    C1114003   0.768   0.745   1.923
  131OSM   H11A14004   0.813   0.646   1.902
  131OSM   H11B14005   0.759   0.741   2.033
  131OSM      P14006   0.892   0.962   1.975
  131OSM    O1314007   0.973   1.071   1.911
  131OSM    O1414008   0.760   1.011   2.016
  131OSM    O1114009   0.976   0.903   2.105
  131OSM    O1214010   0.867   0.838   1.875
  131OSM    C1S14011   0.980   0.990   2.217
  131OSM    H1S14012   0.894   1.060   2.212
  131OSM    H1T14013   1.074   1.048   2.205
  131OSM     NF14014   0.984   1.020   2.469
  131OSM    HNF14015   1.072   1.027   2.516
  131OSM    C2S14016   0.969   0.923   2.362
  131OSM    H2S14017   0.864   0.888   2.369
  131OSM    C3S14018   1.065   0.800   2.376
  131OSM    H3S14019   1.163   0.850   2.362
  131OSM     O314020   1.053   0.710   2.265
  131OSM    HO314021   1.006   0.765   2.202
  131OSM    C4S14022   1.084   0.734   2.508
  131OSM    H4S14023   1.117   0.810   2.581
  131OSM    C5S14024   1.041   0.613   2.541
  131OSM    H5S14025   0.984   0.556   2.467
  131OSM    C6S14026   1.067   0.540   2.672
  131OSM    H6S14027   1.141   0.460   2.652
  131OSM    H6T14028   0.977   0.484   2.703
  131OSM    C7S14029   1.115   0.622   2.796
  131OSM    H7S14030   1.064   0.721   2.800
  131OSM    H7T14031   1.223   0.645   2.795
  131OSM    C8S14032   1.090   0.536   2.921
  131OSM    H8S14033   1.178   0.468   2.925
  131OSM    H8T14034   0.992   0.484   2.921
  131OSM    C9S14035   1.091   0.627   3.042
  131OSM    H9S14036   1.018   0.710   3.041
  131OSM    H9T14037   1.194   0.668   3.049
  131OSM   C10S14038   1.064   0.548   3.167
  131OSM   H10S14039   1.131   0.459   3.166
  131OSM   H10T14040   0.958   0.514   3.165
  131OSM   C11S14041   1.082   0.634   3.291
  131OSM   H11S14042   1.027   0.731   3.290
  131OSM   H11T14043   1.191   0.655   3.299
  131OSM   C12S14044   1.033   0.570   3.423
  131OSM   H12S14045   1.049   0.461   3.437
  131OSM   H12T14046   0.922   0.574   3.425
  131OSM   C13S14047   1.084   0.644   3.546
  131OSM   H13S14048   1.063   0.752   3.527
  131OSM   H13T14049   1.194   0.636   3.558
  131OSM   C14S14050   1.015   0.583   3.666
  131OSM   H14S14051   1.049   0.477   3.665
  131OSM   H14T14052   0.905   0.593   3.655
  131OSM   C15S14053   1.078   0.632   3.791
  131OSM   H15S14054   1.091   0.741   3.774
  131OSM   H15T14055   1.178   0.583   3.798
  131OSM   C16S14056   0.985   0.621   3.910
  131OSM   H16S14057   0.883   0.657   3.887
  131OSM   H16T14058   1.026   0.685   3.990
  131OSM   C17S14059   0.969   0.479   3.973
  131OSM   H17S14060   1.071   0.441   3.993
  131OSM   H17T14061   0.928   0.400   3.905
  131OSM   C18S14062   0.894   0.479   4.100
  131OSM   H18S14063   0.796   0.531   4.090
  131OSM   H18T14064   0.948   0.543   4.173
  131OSM   H18U14065   0.891   0.375   4.138
  131OSM    C1F14066   0.900   1.119   2.494
  131OSM     OF14067   0.798   1.119   2.427
  131OSM    C2F14068   0.939   1.214   2.608
  131OSM    H2F14069   1.038   1.258   2.583
  131OSM    H2G14070   0.948   1.149   2.698
  131OSM    C3F14071   0.841   1.324   2.652
  131OSM    H3F14072   0.822   1.393   2.567
  131OSM    H3G14073   0.887   1.370   2.742
  131OSM    C4F14074   0.707   1.267   2.709
  131OSM    H4F14075   0.745   1.190   2.780
  131OSM    H4G14076   0.644   1.231   2.624
  131OSM    C5F14077   0.635   1.378   2.786
  131OSM    H5F14078   0.587   1.445   2.711
  131OSM    H5G14079   0.703   1.439   2.849
  131OSM    C6F14080   0.517   1.323   2.863
  131OSM    H6F14081   0.558   1.234   2.916
  131OSM    H6G14082   0.444   1.291   2.786
  131OSM    C7F14083   0.471   1.421   2.972
  131OSM    H7F14084   0.422   1.513   2.935
  131OSM    H7G14085   0.563   1.470   3.011
  131OSM    C8F14086   0.400   1.359   3.093
  131OSM    H8F14087   0.459   1.273   3.133
  131OSM    H8G14088   0.299   1.316   3.076
  131OSM    C9F14089   0.377   1.475   3.189
  131OSM    H9F14090   0.328   1.566   3.150
  131OSM   C10F14091   0.406   1.472   3.317
  131OSM   H10F14092   0.381   1.566   3.370
  131OSM   C11F14093   0.482   1.362   3.394
  131OSM   H11F14094   0.585   1.361   3.351
  131OSM   H11G14095   0.452   1.259   3.364
  131OSM   C12F14096   0.497   1.388   3.544
  131OSM   H12F14097   0.559   1.479   3.558
  131OSM   H12G14098   0.554   1.305   3.591
  131OSM   C13F14099   0.363   1.384   3.617
  131OSM   H13F14100   0.314   1.287   3.594
  131OSM   H13G14101   0.291   1.464   3.591
  131OSM   C14F14102   0.370   1.411   3.772
  131OSM   H14F14103   0.385   1.520   3.791
  131OSM   H14G14104   0.468   1.371   3.806
  131OSM   C15F14105   0.253   1.354   3.849
  131OSM   H15F14106   0.164   1.416   3.823
  131OSM   H15G14107   0.272   1.379   3.956
  131OSM   C16F14108   0.227   1.201   3.832
  131OSM   H16F14109   0.321   1.157   3.793
  131OSM   H16G14110   0.149   1.189   3.755
  131OSM   C17F14111   0.195   1.141   3.959
  131OSM   H17F14112   0.095   1.175   3.996
  131OSM   H17G14113   0.270   1.176   4.033
  131OSM   C18F14114   0.197   0.984   3.955
  131OSM   H18F14115   0.158   0.937   4.047
  131OSM   H18G14116   0.299   0.940   3.953
  131OSM   H18H14117   0.137   0.953   3.866
  132OSM      N14118   6.172   0.066   1.641
  132OSM    C1514119   6.188   0.218   1.615
  132OSM   H15A14120   6.122   0.272   1.682
  132OSM   H15B14121   6.165   0.245   1.513
  132OSM   H15C14122   6.286   0.251   1.643
  132OSM    C1414123   6.035   0.023   1.602
  132OSM   H14A14124   5.967   0.075   1.668
  132OSM   H14B14125   6.006   6.698   1.626
  132OSM   H14C14126   6.014   0.031   1.497
  132OSM    C1314127   6.263   0.001   1.547
  132OSM   H13A14128   6.240   0.030   1.446
  132OSM   H13B14129   6.273   6.670   1.550
  132OSM   H13C14130   6.362   0.039   1.565
  132OSM    C1214131   6.204   0.035   1.783
  132OSM   H12A14132   6.312   0.036   1.794
  132OSM   H12B14133   6.179   6.709   1.803
  132OSM    C1114134   6.128   0.118   1.893
  132OSM   H11A14135   6.148   0.228   1.890
  132OSM   H11B14136   6.169   0.075   1.987
  132OSM      P14137   5.893   0.210   1.895
  132OSM    O1314138   5.952   0.319   1.808
  132OSM    O1414139   5.768   0.147   1.856
  132OSM    O1114140   5.878   0.255   2.045
  132OSM    O1214141   5.987   0.095   1.891
  132OSM    C1S14142   5.872   0.155   2.147
  132OSM    H1S14143   5.948   0.075   2.147
  132OSM    H1T14144   5.775   0.104   2.129
  132OSM     NF14145   5.882   0.105   2.394
  132OSM    HNF14146   5.814   0.100   2.467
  132OSM    C2S14147   5.865   0.211   2.294
  132OSM    H2S14148   5.954   0.275   2.312
  132OSM    C3S14149   5.742   0.297   2.317
  132OSM    H3S14150   5.650   0.239   2.342
  132OSM     O314151   5.708   0.396   2.217
  132OSM    HO314152   5.778   0.378   2.155
  132OSM    C4S14153   5.755   0.369   2.452
  132OSM    H4S14154   5.731   0.314   2.544
  132OSM    C5S14155   5.801   0.489   2.480
  132OSM    H5S14156   5.848   0.545   2.398
  132OSM    C6S14157   5.823   0.550   2.615
  132OSM    H6S14158   5.769   0.645   2.636
  132OSM    H6T14159   5.927   0.589   2.623
  132OSM    C7S14160   5.812   0.456   2.736
  132OSM    H7S14161   5.882   0.371   2.747
  132OSM    H7T14162   5.710   0.412   2.727
  132OSM    C8S14163   5.818   0.517   2.882
  132OSM    H8S14164   5.755   0.608   2.873
  132OSM    H8T14165   5.922   0.546   2.910
  132OSM    C9S14166   5.768   0.425   2.996
  132OSM    H9S14167   5.823   0.329   2.985
  132OSM    H9T14168   5.661   0.412   2.970
  132OSM   C10S14169   5.783   0.484   3.135
  132OSM   H10S14170   5.741   0.587   3.134
  132OSM   H10T14171   5.889   0.504   3.163
  132OSM   C11S14172   5.704   0.401   3.243
  132OSM   H11S14173   5.745   0.299   3.228
  132OSM   H11T14174   5.597   0.393   3.213
  132OSM   C12S14175   5.743   0.456   3.381
  132OSM   H12S14176   5.726   0.564   3.396
  132OSM   H12T14177   5.852   0.446   3.401
  132OSM   C13S14178   5.671   0.385   3.500
  132OSM   H13S14179   5.703   0.279   3.488
  132OSM   H13T14180   5.563   0.386   3.471
  132OSM   C14S14181   5.693   0.436   3.645
  132OSM   H14S14182   5.671   0.545   3.640
  132OSM   H14T14183   5.794   0.404   3.680
  132OSM   C15S14184   5.605   0.359   3.737
  132OSM   H15S14185   5.644   0.256   3.726
  132OSM   H15T14186   5.499   0.374   3.706
  132OSM   C16S14187   5.611   0.394   3.884
  132OSM   H16S14188   5.561   0.489   3.910
  132OSM   H16T14189   5.716   0.402   3.919
  132OSM   C17S14190   5.540   0.276   3.960
  132OSM   H17S14191   5.590   0.180   3.936
  132OSM   H17T14192   5.432   0.267   3.936
  132OSM   C18S14193   5.546   0.295   4.114
  132OSM   H18S14194   5.647   0.299   4.160
  132OSM   H18T14195   5.483   0.219   4.166
  132OSM   H18U14196   5.491   0.390   4.133
  132OSM    C1F14197   5.984   0.025   2.405
  132OSM     OF14198   6.079   0.038   2.328
  132OSM    C2F14199   5.986   6.704   2.522
  132OSM    H2F14200   5.891   6.646   2.528
  132OSM    H2G14201   5.995   6.761   2.616
  132OSM    C3F14202   6.102   6.610   2.511
  132OSM    H3F14203   6.189   6.677   2.494
  132OSM    H3G14204   6.084   6.538   2.429
  132OSM    C4F14205   6.129   6.528   2.640
  132OSM    H4F14206   6.163   6.427   2.608
  132OSM    H4G14207   6.028   6.506   2.680
  132OSM    C5F14208   6.219   6.582   2.744
  132OSM    H5F14209   6.196   6.690   2.755
  132OSM    H5G14210   6.320   6.576   2.698
  132OSM    C6F14211   6.221   6.495   2.871
  132OSM    H6F14212   6.248   6.393   2.837
  132OSM    H6G14213   6.124   6.500   2.925
  132OSM    C7F14214   6.315   6.548   2.973
  132OSM    H7F14215   6.269   6.646   2.997
  132OSM    H7G14216   6.413   6.583   2.933
  132OSM    C8F14217   6.328   6.467   3.103
  132OSM    H8F14218   6.360   6.363   3.078
  132OSM    H8G14219   6.222   6.457   3.135
  132OSM    C9F14220   6.397   6.530   3.221
  132OSM    H9F14221   6.343   6.610   3.272
  132OSM   C10F14222   6.512   6.490   3.268
  132OSM   H10F14223   6.562   6.552   3.345
  132OSM   C11F14224   6.593   6.370   3.219
  132OSM   H11F14225   6.530   6.289   3.177
  132OSM   H11G14226   6.643   6.316   3.302
  132OSM   C12F14227   6.694   6.405   3.105
  132OSM   H12F14228   6.641   6.440   3.014
  132OSM   H12G14229   6.758   6.316   3.087
  132OSM   C13F14230   0.025   6.510   3.143
  132OSM   H13F14231   0.074   6.478   3.237
  132OSM   H13G14232   6.755   6.607   3.166
  132OSM   C14F14233   0.128   6.536   3.029
  132OSM   H14F14234   0.087   6.597   2.946
  132OSM   H14G14235   0.164   6.440   2.986
  132OSM   C15F14236   0.249   6.604   3.090
  132OSM   H15F14237   0.297   6.538   3.164
  132OSM   H15G14238   0.213   6.690   3.150
  132OSM   C16F14239   0.354   6.646   2.986
  132OSM   H16F14240   0.306   6.716   2.915
  132OSM   H16G14241   0.387   6.551   2.938
  132OSM   C17F14242   0.472   6.729   3.041
  132OSM   H17F14243   0.437   0.041   3.098
  132OSM   H17G14244   0.534   6.760   2.954
  132OSM   C18F14245   0.565   6.644   3.125
  132OSM   H18F14246   0.652   6.699   3.166
  132OSM   H18G14247   0.605   6.557   3.069
  132OSM   H18H14248   0.510   6.598   3.210
  133OSM      N14249   3.977   2.868   2.148
  133OSM    C1514250   3.859   2.817   2.230
  133OSM   H15A14251   3.781   2.785   2.162
  133OSM   H15B14252   3.828   2.890   2.303
  133OSM   H15C14253   3.895   2.728   2.279
  133OSM    C1414254   4.041   2.742   2.091
  133OSM   H14A14255   3.972   2.670   2.050
  133OSM   H14B14256   4.095   2.687   2.166
  133OSM   H14C14257   4.115   2.766   2.015
  133OSM    C1314258   3.928   2.953   2.038
  133OSM   H13A14259   3.996   2.983   1.960
  133OSM   H13B14260   3.890   3.040   2.090
  133OSM   H13C14261   3.851   2.901   1.983
  133OSM    C1214262   4.070   2.951   2.229
  133OSM   H12A14263   4.012   3.039   2.254
  133OSM   H12B14264   4.155   2.977   2.169
  133OSM    C1114265   4.124   2.905   2.369
  133OSM   H11A14266   4.031   2.888   2.428
  133OSM   H11B14267   4.180   2.982   2.427
  133OSM      P14268   4.356   2.816   2.313
  133OSM    O1314269   4.417   2.681   2.293
  133OSM    O1414270   4.364   2.917   2.204
  133OSM    O1114271   4.423   2.876   2.442
  133OSM    O1214272   4.203   2.785   2.356
  133OSM    C1S14273   4.398   2.813   2.566
  133OSM    H1S14274   4.457   2.720   2.580
  133OSM    H1T14275   4.287   2.807   2.577
  133OSM     NF14276   4.448   2.838   2.802
  133OSM    HNF14277   4.372   2.828   2.866
  133OSM    C2S14278   4.430   2.913   2.679
  133OSM    H2S14279   4.529   2.955   2.654
  133OSM    C3S14280   4.317   3.022   2.687
  133OSM    H3S14281   4.216   2.976   2.674
  133OSM     O314282   4.340   3.130   2.594
  133OSM    HO314283   4.399   3.095   2.527
  133OSM    C4S14284   4.322   3.079   2.828
  133OSM    H4S14285   4.249   3.045   2.903
  133OSM    C5S14286   4.409   3.171   2.877
  133OSM    H5S14287   4.497   3.200   2.818
  133OSM    C6S14288   4.404   3.208   3.024
  133OSM    H6S14289   4.396   3.317   3.039
  133OSM    H6T14290   4.506   3.189   3.064
  133OSM    C7S14291   4.289   3.155   3.124
  133OSM    H7S14292   4.305   3.046   3.128
  133OSM    H7T14293   4.186   3.172   3.085
  133OSM    C8S14294   4.308   3.216   3.265
  133OSM    H8S14295   4.265   3.318   3.270
  133OSM    H8T14296   4.417   3.239   3.265
  133OSM    C9S14297   4.254   3.131   3.376
  133OSM    H9S14298   4.302   3.161   3.472
  133OSM    H9T14299   4.286   3.028   3.351
  133OSM   C10S14300   4.103   3.140   3.380
  133OSM   H10S14301   4.054   3.043   3.405
  133OSM   H10T14302   4.068   3.187   3.286
  133OSM   C11S14303   4.044   3.233   3.491
  133OSM   H11S14304   3.938   3.256   3.467
  133OSM   H11T14305   4.097   3.331   3.500
  133OSM   C12S14306   4.036   3.167   3.629
  133OSM   H12S14307   4.135   3.133   3.665
  133OSM   H12T14308   3.973   3.076   3.616
  133OSM   C13S14309   3.966   3.255   3.735
  133OSM   H13S14310   3.871   3.297   3.696
  133OSM   H13T14311   4.039   3.334   3.761
  133OSM   C14S14312   3.942   3.171   3.868
  133OSM   H14S14313   4.035   3.124   3.908
  133OSM   H14T14314   3.876   3.086   3.840
  133OSM   C15S14315   3.869   3.261   3.973
  133OSM   H15S14316   3.770   3.296   3.937
  133OSM   H15T14317   3.929   3.355   3.970
  133OSM   C16S14318   3.860   3.190   4.114
  133OSM   H16S14319   3.809   3.262   4.182
  133OSM   H16T14320   3.961   3.186   4.160
  133OSM   C17S14321   3.793   3.046   4.118
  133OSM   H17S14322   3.870   2.978   4.077
  133OSM   H17T14323   3.696   3.037   4.064
  133OSM   C18S14324   3.782   2.998   4.263
  133OSM   H18S14325   3.707   3.062   4.315
  133OSM   H18T14326   3.881   3.004   4.315
  133OSM   H18U14327   3.745   2.894   4.272
  133OSM    C1F14328   4.556   2.765   2.823
  133OSM     OF14329   4.655   2.774   2.752
  133OSM    C2F14330   4.550   2.661   2.934
  133OSM    H2F14331   4.627   2.583   2.917
  133OSM    H2G14332   4.442   2.638   2.935
  133OSM    C3F14333   4.586   2.730   3.072
  133OSM    H3F14334   4.685   2.779   3.077
  133OSM    H3G14335   4.594   2.639   3.135
  133OSM    C4F14336   4.485   2.832   3.131
  133OSM    H4F14337   4.384   2.787   3.117
  133OSM    H4G14338   4.494   2.929   3.077
  133OSM    C5F14339   4.518   2.849   3.282
  133OSM    H5F14340   4.487   2.954   3.300
  133OSM    H5G14341   4.626   2.840   3.308
  133OSM    C6F14342   4.405   2.780   3.363
  133OSM    H6F14343   4.418   2.670   3.365
  133OSM    H6G14344   4.303   2.814   3.336
  133OSM    C7F14345   4.434   2.807   3.512
  133OSM    H7F14346   4.433   2.915   3.539
  133OSM    H7G14347   4.538   2.772   3.527
  133OSM    C8F14348   4.343   2.724   3.596
  133OSM    H8F14349   4.394   2.711   3.694
  133OSM    H8G14350   4.335   2.625   3.545
  133OSM    C9F14351   4.207   2.800   3.610
  133OSM    H9F14352   4.175   2.872   3.533
  133OSM   C10F14353   4.123   2.794   3.719
  133OSM   H10F14354   4.031   2.854   3.718
  133OSM   C11F14355   4.153   2.711   3.843
  133OSM   H11F14356   4.226   2.628   3.830
  133OSM   H11G14357   4.059   2.658   3.872
  133OSM   C12F14358   4.189   2.798   3.962
  133OSM   H12F14359   4.105   2.866   3.985
  133OSM   H12G14360   4.282   2.856   3.942
  133OSM   C13F14361   4.222   2.711   4.084
  133OSM   H13F14362   4.291   2.628   4.056
  133OSM   H13G14363   4.130   2.661   4.122
  133OSM   C14F14364   4.284   2.785   4.204
  133OSM   H14F14365   4.216   2.865   4.242
  133OSM   H14G14366   4.381   2.834   4.177
  133OSM   C15F14367   4.324   2.690   4.314
  133OSM   H15F14368   4.243   2.618   4.337
  133OSM   H15G14369   4.328   2.733   4.417
  133OSM   C16F14370   4.454   2.611   4.296
  133OSM   H16F14371   4.541   2.680   4.291
  133OSM   H16G14372   4.457   2.557   4.199
  133OSM   C17F14373   4.484   2.514   4.408
  133OSM   H17F14374   4.408   2.433   4.415
  133OSM   H17G14375   4.481   2.560   4.509
  133OSM   C18F14376   4.626   2.458   4.383
  133OSM   H18F14377   4.630   2.420   4.279
  133OSM   H18G14378   4.644   2.370   4.447
  133OSM   H18H14379   4.702   2.537   4.403
  134OSM      N14380   5.113   5.362   1.794
  134OSM    C1514381   5.129   5.249   1.711
  134OSM   H15A14382   5.064   5.252   1.625
  134OSM   H15B14383   5.114   5.155   1.762
  134OSM   H15C14384   5.229   5.248   1.672
  134OSM    C1414385   5.127   5.482   1.707
  134OSM   H14A14386   5.220   5.485   1.654
  134OSM   H14B14387   5.122   5.570   1.769
  134OSM   H14C14388   5.048   5.485   1.633
  134OSM    C1314389   4.970   5.360   1.844
  134OSM   H13A14390   4.955   5.269   1.902
  134OSM   H13B14391   4.901   5.366   1.761
  134OSM   H13C14392   4.947   5.448   1.903
  134OSM    C1214393   5.210   5.357   1.911
  134OSM   H12A14394   5.310   5.358   1.869
  134OSM   H12B14395   5.193   5.262   1.957
  134OSM    C1114396   5.215   5.467   2.015
  134OSM   H11A14397   5.289   5.426   2.087
  134OSM   H11B14398   5.121   5.478   2.074
  134OSM      P14399   5.408   5.618   1.948
  134OSM    O1314400   5.479   5.485   1.946
  134OSM    O1414401   5.428   5.706   1.833
  134OSM    O1114402   5.448   5.686   2.082
  134OSM    O1214403   5.256   5.589   1.964
  134OSM    C1S14404   5.364   5.711   2.200
  134OSM    H1S14405   5.273   5.647   2.209
  134OSM    H1T14406   5.340   5.819   2.201
  134OSM     NF14407   5.368   5.702   2.447
  134OSM    HNF14408   5.393   5.776   2.509
  134OSM    C2S14409   5.446   5.684   2.326
  134OSM    H2S14410   5.471   5.577   2.316
  134OSM    C3S14411   5.588   5.755   2.330
  134OSM    H3S14412   5.564   5.863   2.343
  134OSM     O314413   5.665   5.761   2.208
  134OSM    HO314414   5.606   5.713   2.150
  134OSM    C4S14415   5.675   5.706   2.437
  134OSM    H4S14416   5.679   5.597   2.427
  134OSM    C5S14417   5.742   5.770   2.531
  134OSM    H5S14418   5.742   5.880   2.529
  134OSM    C6S14419   5.832   5.697   2.640
  134OSM    H6S14420   5.938   5.714   2.613
  134OSM    H6T14421   5.821   5.587   2.624
  134OSM    C7S14422   5.792   5.726   2.786
  134OSM    H7S14423   5.693   5.679   2.807
  134OSM    H7T14424   5.785   5.836   2.799
  134OSM    C8S14425   5.886   5.662   2.891
  134OSM    H8S14426   5.994   5.677   2.869
  134OSM    H8T14427   5.873   5.552   2.901
  134OSM    C9S14428   5.857   5.724   3.036
  134OSM    H9S14429   5.755   5.693   3.067
  134OSM    H9T14430   5.860   5.834   3.024
  134OSM   C10S14431   5.962   5.672   3.138
  134OSM   H10S14432   6.056   5.718   3.101
  134OSM   H10T14433   5.971   5.561   3.142
  134OSM   C11S14434   5.925   5.736   3.276
  134OSM   H11S14435   5.816   5.728   3.291
  134OSM   H11T14436   5.959   5.840   3.258
  134OSM   C12S14437   5.993   5.663   3.385
  134OSM   H12S14438   6.100   5.649   3.357
  134OSM   H12T14439   5.950   5.561   3.397
  134OSM   C13S14440   5.981   5.738   3.523
  134OSM   H13S14441   5.872   5.744   3.544
  134OSM   H13T14442   6.020   5.839   3.499
  134OSM   C14S14443   6.056   5.676   3.643
  134OSM   H14S14444   6.160   5.660   3.609
  134OSM   H14T14445   6.014   5.574   3.656
  134OSM   C15S14446   6.043   5.752   3.777
  134OSM   H15S14447   6.064   5.686   3.864
  134OSM   H15T14448   5.934   5.771   3.782
  134OSM   C16S14449   6.114   5.891   3.773
  134OSM   H16S14450   6.106   5.941   3.675
  134OSM   H16T14451   6.222   5.879   3.796
  134OSM   C17S14452   6.061   5.997   3.864
  134OSM   H17S14453   5.957   6.033   3.852
  134OSM   H17T14454   6.129   6.083   3.848
  134OSM   C18S14455   6.061   5.950   4.011
  134OSM   H18S14456   5.989   5.867   4.032
  134OSM   H18T14457   6.051   6.046   4.065
  134OSM   H18U14458   6.162   5.909   4.031
  134OSM    C1F14459   5.252   5.639   2.467
  134OSM     OF14460   5.220   5.539   2.402
  134OSM    C2F14461   5.166   5.704   2.568
  134OSM    H2F14462   5.091   5.759   2.508
  134OSM    H2G14463   5.231   5.781   2.616
  134OSM    C3F14464   5.109   5.604   2.666
  134OSM    H3F14465   5.190   5.538   2.703
  134OSM    H3G14466   5.040   5.535   2.613
  134OSM    C4F14467   5.020   5.678   2.770
  134OSM    H4F14468   4.945   5.727   2.704
  134OSM    H4G14469   5.067   5.765   2.820
  134OSM    C5F14470   4.961   5.593   2.880
  134OSM    H5F14471   4.867   5.544   2.847
  134OSM    H5G14472   4.929   5.676   2.947
  134OSM    C6F14473   5.050   5.486   2.949
  134OSM    H6F14474   5.138   5.539   2.992
  134OSM    H6G14475   5.064   5.408   2.871
  134OSM    C7F14476   4.978   5.425   3.073
  134OSM    H7F14477   4.880   5.379   3.048
  134OSM    H7G14478   4.944   5.507   3.140
  134OSM    C8F14479   5.064   5.332   3.155
  134OSM    H8F14480   5.153   5.387   3.192
  134OSM    H8G14481   5.092   5.247   3.089
  134OSM    C9F14482   4.981   5.272   3.271
  134OSM    H9F14483   4.925   5.180   3.251
  134OSM   C10F14484   4.971   5.324   3.395
  134OSM   H10F14485   4.918   5.261   3.467
  134OSM   C11F14486   5.026   5.450   3.447
  134OSM   H11F14487   4.949   5.512   3.497
  134OSM   H11G14488   5.070   5.509   3.364
  134OSM   C12F14489   5.138   5.424   3.556
  134OSM   H12F14490   5.169   5.527   3.585
  134OSM   H12G14491   5.221   5.363   3.516
  134OSM   C13F14492   5.076   5.360   3.674
  134OSM   H13F14493   5.028   5.261   3.662
  134OSM   H13G14494   4.988   5.422   3.700
  134OSM   C14F14495   5.176   5.339   3.791
  134OSM   H14F14496   5.215   5.438   3.822
  134OSM   H14G14497   5.255   5.271   3.752
  134OSM   C15F14498   5.120   5.274   3.917
  134OSM   H15F14499   5.202   5.236   3.982
  134OSM   H15G14500   5.071   5.177   3.894
  134OSM   C16F14501   5.017   5.364   3.983
  134OSM   H16F14502   4.923   5.374   3.924
  134OSM   H16G14503   5.069   5.460   4.006
  134OSM   C17F14504   4.986   5.312   4.121
  134OSM   H17F14505   4.946   5.208   4.117
  134OSM   H17G14506   4.914   5.383   4.166
  134OSM   C18F14507   5.101   5.318   4.222
  134OSM   H18F14508   5.141   5.421   4.218
  134OSM   H18G14509   5.190   5.252   4.207
  134OSM   H18H14510   5.059   5.285   4.320
  135OSM      N14511   0.379   1.540   1.860
  135OSM    C1514512   0.235   1.570   1.829
  135OSM   H15A14513   0.172   1.553   1.915
  135OSM   H15B14514   0.202   1.511   1.745
  135OSM   H15C14515   0.223   1.674   1.802
  135OSM    C1414516   0.401   1.396   1.885
  135OSM   H14A14517   0.381   1.341   1.794
  135OSM   H14B14518   0.330   1.368   1.961
  135OSM   H14C14519   0.502   1.378   1.920
  135OSM    C1314520   0.457   1.590   1.745
  135OSM   H13A14521   0.558   1.551   1.747
  135OSM   H13B14522   0.466   1.698   1.743
  135OSM   H13C14523   0.422   1.559   1.647
  135OSM    C1214524   0.413   1.625   1.981
  135OSM   H12A14525   0.409   1.724   1.937
  135OSM   H12B14526   0.514   1.597   2.004
  135OSM    C1114527   0.320   1.622   2.100
  135OSM   H11A14528   0.365   1.674   2.187
  135OSM   H11B14529   0.303   1.518   2.134
  135OSM      P14530   0.158   1.830   2.080
  135OSM    O1314531   0.225   1.885   2.198
  135OSM    O1414532   0.190   1.891   1.951
  135OSM    O1114533   0.005   1.844   2.105
  135OSM    O1214534   0.190   1.681   2.070
  135OSM    C1S14535   6.695   1.740   2.157
  135OSM    H1S14536   6.718   1.636   2.125
  135OSM    H1T14537   6.594   1.757   2.113
  135OSM     NF14538   6.593   1.638   2.364
  135OSM    HNF14539   6.498   1.657   2.386
  135OSM    C2S14540   6.678   1.751   2.310
  135OSM    H2S14541   6.776   1.732   2.359
  135OSM    C3S14542   6.619   1.890   2.350
  135OSM    H3S14543   6.514   1.900   2.315
  135OSM     O314544   6.672   2.000   2.273
  135OSM    HO314545   6.731   1.946   2.219
  135OSM    C4S14546   6.617   1.918   2.499
  135OSM    H4S14547   6.542   1.848   2.538
  135OSM    C5S14548   6.685   2.008   2.573
  135OSM    H5S14549   6.749   2.082   2.522
  135OSM    C6S14550   6.670   2.016   2.723
  135OSM    H6S14551   6.657   2.126   2.737
  135OSM    H6T14552   6.760   1.984   2.779
  135OSM    C7S14553   6.539   1.957   2.785
  135OSM    H7S14554   6.553   1.847   2.775
  135OSM    H7T14555   6.440   1.986   2.745
  135OSM    C8S14556   6.547   1.981   2.938
  135OSM    H8S14557   6.501   2.076   2.973
  135OSM    H8T14558   6.654   1.969   2.965
  135OSM    C9S14559   6.475   1.876   3.021
  135OSM    H9S14560   6.498   1.777   2.977
  135OSM    H9T14561   6.369   1.893   2.995
  135OSM   C10S14562   6.508   1.878   3.172
  135OSM   H10S14563   6.614   1.874   3.205
  135OSM   H10T14564   6.468   1.785   3.217
  135OSM   C11S14565   6.437   1.996   3.238
  135OSM   H11S14566   6.327   1.984   3.227
  135OSM   H11T14567   6.469   2.089   3.188
  135OSM   C12S14568   6.471   2.022   3.385
  135OSM   H12S14569   6.435   2.125   3.404
  135OSM   H12T14570   6.581   2.022   3.397
  135OSM   C13S14571   6.419   1.923   3.481
  135OSM   H13S14572   6.461   1.823   3.457
  135OSM   H13T14573   6.310   1.914   3.466
  135OSM   C14S14574   6.457   1.964   3.622
  135OSM   H14S14575   6.446   2.073   3.644
  135OSM   H14T14576   6.563   1.937   3.641
  135OSM   C15S14577   6.389   1.872   3.729
  135OSM   H15S14578   6.416   1.766   3.712
  135OSM   H15T14579   6.281   1.893   3.712
  135OSM   C16S14580   6.417   1.908   3.878
  135OSM   H16S14581   6.437   2.016   3.894
  135OSM   H16T14582   6.513   1.859   3.904
  135OSM   C17S14583   6.310   1.866   3.985
  135OSM   H17S14584   6.215   1.921   3.969
  135OSM   H17T14585   6.352   1.900   4.082
  135OSM   C18S14586   6.282   1.715   3.994
  135OSM   H18S14587   6.374   1.659   4.018
  135OSM   H18T14588   6.224   1.672   3.910
  135OSM   H18U14589   6.213   1.695   4.079
  135OSM    C1F14590   6.632   1.509   2.361
  135OSM     OF14591   6.742   1.469   2.318
  135OSM    C2F14592   6.531   1.408   2.401
  135OSM    H2F14593   6.500   1.344   2.315
  135OSM    H2G14594   6.451   1.467   2.448
  135OSM    C3F14595   6.576   1.294   2.500
  135OSM    H3F14596   6.599   1.339   2.599
  135OSM    H3G14597   6.649   1.224   2.454
  135OSM    C4F14598   6.452   1.201   2.536
  135OSM    H4F14599   6.406   1.156   2.446
  135OSM    H4G14600   6.377   1.266   2.585
  135OSM    C5F14601   6.486   1.085   2.624
  135OSM    H5F14602   6.579   1.036   2.589
  135OSM    H5G14603   6.410   1.005   2.613
  135OSM    C6F14604   6.514   1.123   2.774
  135OSM    H6F14605   6.597   1.197   2.765
  135OSM    H6G14606   6.557   1.029   2.815
  135OSM    C7F14607   6.398   1.171   2.859
  135OSM    H7F14608   6.312   1.101   2.857
  135OSM    H7G14609   6.363   1.270   2.821
  135OSM    C8F14610   6.435   1.194   3.005
  135OSM    H8F14611   6.337   1.233   3.040
  135OSM    H8G14612   6.516   1.269   3.015
  135OSM    C9F14613   6.465   1.061   3.056
  135OSM    H9F14614   6.561   1.022   3.019
  135OSM   C10F14615   6.387   0.984   3.135
  135OSM   H10F14616   6.431   0.887   3.163
  135OSM   C11F14617   6.249   1.012   3.185
  135OSM   H11F14618   6.200   0.913   3.201
  135OSM   H11G14619   6.184   1.070   3.116
  135OSM   C12F14620   6.256   1.089   3.319
  135OSM   H12F14621   6.154   1.101   3.362
  135OSM   H12G14622   6.291   1.194   3.308
  135OSM   C13F14623   6.330   1.017   3.429
  135OSM   H13F14624   6.436   0.993   3.409
  135OSM   H13G14625   6.277   0.922   3.450
  135OSM   C14F14626   6.350   1.108   3.558
  135OSM   H14F14627   6.251   1.138   3.600
  135OSM   H14G14628   6.418   1.192   3.534
  135OSM   C15F14629   6.414   1.034   3.677
  135OSM   H15F14630   6.454   1.111   3.746
  135OSM   H15G14631   6.508   0.982   3.649
  135OSM   C16F14632   6.314   0.935   3.748
  135OSM   H16F14633   6.255   0.878   3.673
  135OSM   H16G14634   6.250   0.995   3.817
  135OSM   C17F14635   6.382   0.825   3.840
  135OSM   H17F14636   6.456   0.763   3.785
  135OSM   H17G14637   6.314   0.757   3.895
  135OSM   C18F14638   6.461   0.891   3.959
  135OSM   H18F14639   6.495   0.824   4.041
  135OSM   H18G14640   6.395   0.974   3.993
  135OSM   H18H14641   6.548   0.943   3.914
  136OSM      N14642   2.196   4.658   1.915
  136OSM    C1514643   2.065   4.704   1.854
  136OSM   H15A14644   1.989   4.634   1.885
  136OSM   H15B14645   2.061   4.699   1.746
  136OSM   H15C14646   2.048   4.804   1.891
  136OSM    C1414647   2.231   4.526   1.856
  136OSM   H14A14648   2.253   4.538   1.751
  136OSM   H14B14649   2.156   4.451   1.870
  136OSM   H14C14650   2.325   4.488   1.894
  136OSM    C1314651   2.299   4.754   1.874
  136OSM   H13A14652   2.318   4.752   1.767
  136OSM   H13B14653   2.394   4.741   1.922
  136OSM   H13C14654   2.263   4.855   1.889
  136OSM    C1214655   2.183   4.662   2.069
  136OSM   H12A14656   2.106   4.593   2.098
  136OSM   H12B14657   2.157   4.760   2.104
  136OSM    C1114658   2.310   4.627   2.153
  136OSM   H11A14659   2.349   4.530   2.118
  136OSM   H11B14660   2.281   4.618   2.260
  136OSM      P14661   2.402   4.864   2.211
  136OSM    O1314662   2.506   4.962   2.166
  136OSM    O1414663   2.263   4.911   2.201
  136OSM    O1114664   2.444   4.811   2.359
  136OSM    O1214665   2.410   4.728   2.132
  136OSM    C1S14666   2.345   4.813   2.468
  136OSM    H1S14667   2.253   4.761   2.433
  136OSM    H1T14668   2.326   4.919   2.498
  136OSM     NF14669   2.316   4.741   2.699
  136OSM    HNF14670   2.347   4.789   2.781
  136OSM    C2S14671   2.412   4.739   2.591
  136OSM    H2S14672   2.419   4.632   2.562
  136OSM    C3S14673   2.557   4.790   2.626
  136OSM    H3S14674   2.552   4.900   2.642
  136OSM     O314675   2.652   4.778   2.524
  136OSM    HO314676   2.597   4.788   2.446
  136OSM    C4S14677   2.603   4.736   2.753
  136OSM    H4S14678   2.569   4.810   2.828
  136OSM    C5S14679   2.658   4.623   2.794
  136OSM    H5S14680   2.675   4.539   2.725
  136OSM    C6S14681   2.653   4.584   2.938
  136OSM    H6S14682   2.656   4.674   3.004
  136OSM    H6T14683   2.746   4.526   2.958
  136OSM    C7S14684   2.536   4.502   2.998
  136OSM    H7S14685   2.511   4.413   2.937
  136OSM    H7T14686   2.451   4.572   2.987
  136OSM    C8S14687   2.541   4.453   3.145
  136OSM    H8S14688   2.520   4.540   3.211
  136OSM    H8T14689   2.644   4.415   3.162
  136OSM    C9S14690   2.437   4.346   3.187
  136OSM    H9S14691   2.458   4.246   3.144
  136OSM    H9T14692   2.335   4.376   3.156
  136OSM   C10S14693   2.439   4.330   3.340
  136OSM   H10S14694   2.532   4.368   3.387
  136OSM   H10T14695   2.411   4.225   3.364
  136OSM   C11S14696   2.332   4.415   3.396
  136OSM   H11S14697   2.241   4.375   3.347
  136OSM   H11T14698   2.357   4.520   3.373
  136OSM   C12S14699   2.317   4.409   3.550
  136OSM   H12S14700   2.267   4.505   3.578
  136OSM   H12T14701   2.423   4.393   3.579
  136OSM   C13S14702   2.233   4.292   3.591
  136OSM   H13S14703   2.264   4.193   3.552
  136OSM   H13T14704   2.123   4.289   3.574
  136OSM   C14S14705   2.226   4.266   3.746
  136OSM   H14S14706   2.331   4.270   3.783
  136OSM   H14T14707   2.185   4.163   3.753
  136OSM   C15S14708   2.118   4.356   3.808
  136OSM   H15S14709   2.028   4.328   3.750
  136OSM   H15T14710   2.138   4.461   3.777
  136OSM   C16S14711   2.106   4.328   3.957
  136OSM   H16S14712   2.042   4.411   3.994
  136OSM   H16T14713   2.207   4.348   3.998
  136OSM   C17S14714   2.037   4.195   3.996
  136OSM   H17S14715   2.057   4.119   3.917
  136OSM   H17T14716   1.928   4.218   3.994
  136OSM   C18S14717   2.077   4.143   4.143
  136OSM   H18S14718   2.174   4.191   4.168
  136OSM   H18T14719   2.076   4.032   4.137
  136OSM   H18U14720   1.991   4.179   4.204
  136OSM    C1F14721   2.200   4.677   2.697
  136OSM     OF14722   2.174   4.598   2.609
  136OSM    C2F14723   2.105   4.707   2.813
  136OSM    H2F14724   2.009   4.727   2.761
  136OSM    H2G14725   2.127   4.805   2.862
  136OSM    C3F14726   2.092   4.609   2.923
  136OSM    H3F14727   2.195   4.589   2.960
  136OSM    H3G14728   2.054   4.510   2.891
  136OSM    C4F14729   2.004   4.662   3.038
  136OSM    H4F14730   1.896   4.674   3.017
  136OSM    H4G14731   2.044   4.762   3.068
  136OSM    C5F14732   2.016   4.585   3.172
  136OSM    H5F14733   2.125   4.597   3.189
  136OSM    H5G14734   1.987   4.479   3.153
  136OSM    C6F14735   1.942   4.643   3.292
  136OSM    H6F14736   1.834   4.657   3.270
  136OSM    H6G14737   1.982   4.745   3.312
  136OSM    C7F14738   1.950   4.560   3.414
  136OSM    H7F14739   2.056   4.533   3.434
  136OSM    H7G14740   1.892   4.465   3.416
  136OSM    C8F14741   1.901   4.628   3.549
  136OSM    H8F14742   1.938   4.733   3.549
  136OSM    H8G14743   1.955   4.577   3.631
  136OSM    C9F14744   1.752   4.616   3.571
  136OSM    H9F14745   1.707   4.710   3.533
  136OSM   C10F14746   1.681   4.523   3.627
  136OSM   H10F14747   1.572   4.532   3.633
  136OSM   C11F14748   1.733   4.398   3.703
  136OSM   H11F14749   1.843   4.390   3.690
  136OSM   H11G14750   1.700   4.307   3.647
  136OSM   C12F14751   1.682   4.387   3.848
  136OSM   H12F14752   1.707   4.285   3.883
  136OSM   H12G14753   1.571   4.382   3.850
  136OSM   C13F14754   1.733   4.496   3.938
  136OSM   H13F14755   1.693   4.594   3.904
  136OSM   H13G14756   1.842   4.479   3.927
  136OSM   C14F14757   1.679   4.480   4.081
  136OSM   H14F14758   1.720   4.383   4.116
  136OSM   H14G14759   1.569   4.464   4.075
  136OSM   C15F14760   1.721   4.602   4.171
  136OSM   H15F14761   1.659   4.591   4.262
  136OSM   H15G14762   1.698   4.695   4.114
  136OSM   C16F14763   1.873   4.615   4.204
  136OSM   H16F14764   1.874   4.713   4.258
  136OSM   H16G14765   1.938   4.643   4.118
  136OSM   C17F14766   1.918   4.510   4.296
  136OSM   H17F14767   1.919   4.415   4.238
  136OSM   H17G14768   1.849   4.507   4.383
  136OSM   C18F14769   2.065   4.534   4.339
  136OSM   H18F14770   2.132   4.555   4.253
  136OSM   H18G14771   2.104   4.442   4.386
  136OSM   H18H14772   2.072   4.615   4.416
  137OSM      N14773   0.579   2.612   1.809
  137OSM    C1514774   0.548   2.529   1.695
  137OSM   H15A14775   0.627   2.540   1.622
  137OSM   H15B14776   0.462   2.562   1.638
  137OSM   H15C14777   0.537   2.423   1.714
  137OSM    C1414778   0.591   2.758   1.773
  137OSM   H14A14779   0.677   2.792   1.719
  137OSM   H14B14780   0.569   2.828   1.853
  137OSM   H14C14781   0.512   2.781   1.703
  137OSM    C1314782   0.454   2.602   1.893
  137OSM   H13A14783   0.472   2.652   1.987
  137OSM   H13B14784   0.445   2.495   1.908
  137OSM   H13C14785   0.367   2.646   1.848
  137OSM    C1214786   0.707   2.564   1.876
  137OSM   H12A14787   0.709   2.587   1.982
  137OSM   H12B14788   0.792   2.619   1.836
  137OSM    C1114789   0.743   2.408   1.871
  137OSM   H11A14790   0.848   2.408   1.908
  137OSM   H11B14791   0.735   2.374   1.765
  137OSM      P14792   0.641   2.333   2.108
  137OSM    O1314793   0.506   2.280   2.145
  137OSM    O1414794   0.758   2.262   2.168
  137OSM    O1114795   0.654   2.492   2.137
  137OSM    O1214796   0.652   2.327   1.950
  137OSM    C1S14797   0.607   2.544   2.263
  137OSM    H1S14798   0.531   2.482   2.315
  137OSM    H1T14799   0.541   2.633   2.250
  137OSM     NF14800   0.688   2.594   2.495
  137OSM    HNF14801   0.689   2.691   2.519
  137OSM    C2S14802   0.728   2.572   2.353
  137OSM    H2S14803   0.794   2.483   2.367
  137OSM    C3S14804   0.817   2.689   2.296
  137OSM    H3S14805   0.748   2.777   2.298
  137OSM     O314806   0.863   2.674   2.160
  137OSM    HO314807   0.806   2.601   2.132
  137OSM    C4S14808   0.934   2.714   2.384
  137OSM    H4S14809   0.917   2.769   2.478
  137OSM    C5S14810   1.059   2.672   2.380
  137OSM    H5S14811   1.088   2.617   2.290
  137OSM    C6S14812   1.165   2.697   2.484
  137OSM    H6S14813   1.145   2.794   2.533
  137OSM    H6T14814   1.266   2.700   2.439
  137OSM    C7S14815   1.185   2.587   2.589
  137OSM    H7S14816   1.292   2.579   2.618
  137OSM    H7T14817   1.147   2.491   2.548
  137OSM    C8S14818   1.099   2.615   2.708
  137OSM    H8S14819   0.992   2.604   2.678
  137OSM    H8T14820   1.132   2.715   2.742
  137OSM    C9S14821   1.131   2.517   2.823
  137OSM    H9S14822   1.240   2.496   2.814
  137OSM    H9T14823   1.084   2.419   2.799
  137OSM   C10S14824   1.075   2.545   2.958
  137OSM   H10S14825   1.119   2.462   3.018
  137OSM   H10T14826   0.964   2.540   2.962
  137OSM   C11S14827   1.123   2.680   3.014
  137OSM   H11S14828   1.078   2.768   2.964
  137OSM   H11T14829   1.234   2.669   3.003
  137OSM   C12S14830   1.098   2.694   3.169
  137OSM   H12S14831   1.142   2.791   3.201
  137OSM   H12T14832   1.169   2.619   3.208
  137OSM   C13S14833   0.944   2.686   3.204
  137OSM   H13S14834   0.920   2.578   3.199
  137OSM   H13T14835   0.872   2.738   3.137
  137OSM   C14S14836   0.925   2.723   3.352
  137OSM   H14S14837   0.957   2.829   3.365
  137OSM   H14T14838   0.990   2.654   3.408
  137OSM   C15S14839   0.783   2.691   3.403
  137OSM   H15S14840   0.752   2.590   3.368
  137OSM   H15T14841   0.719   2.770   3.358
  137OSM   C16S14842   0.784   2.689   3.559
  137OSM   H16S14843   0.835   2.783   3.588
  137OSM   H16T14844   0.857   2.613   3.596
  137OSM   C17S14845   0.650   2.679   3.617
  137OSM   H17S14846   0.608   2.579   3.593
  137OSM   H17T14847   0.591   2.754   3.560
  137OSM   C18S14848   0.649   2.696   3.767
  137OSM   H18S14849   0.545   2.690   3.805
  137OSM   H18T14850   0.682   2.800   3.792
  137OSM   H18U14851   0.713   2.624   3.824
  137OSM    C1F14852   0.632   2.509   2.575
  137OSM     OF14853   0.618   2.393   2.539
  137OSM    C2F14854   0.578   2.560   2.704
  137OSM    H2F14855   0.478   2.516   2.723
  137OSM    H2G14856   0.543   2.665   2.692
  137OSM    C3F14857   0.677   2.547   2.828
  137OSM    H3F14858   0.777   2.586   2.798
  137OSM    H3G14859   0.679   2.439   2.851
  137OSM    C4F14860   0.633   2.623   2.958
  137OSM    H4F14861   0.616   2.731   2.936
  137OSM    H4G14862   0.724   2.618   3.021
  137OSM    C5F14863   0.520   2.568   3.039
  137OSM    H5F14864   0.428   2.554   2.980
  137OSM    H5G14865   0.475   2.648   3.101
  137OSM    C6F14866   0.548   2.435   3.111
  137OSM    H6F14867   0.644   2.430   3.167
  137OSM    H6G14868   0.549   2.353   3.037
  137OSM    C7F14869   0.438   2.388   3.218
  137OSM    H7F14870   0.415   2.280   3.205
  137OSM    H7G14871   0.341   2.441   3.206
  137OSM    C8F14872   0.477   2.425   3.363
  137OSM    H8F14873   0.381   2.423   3.418
  137OSM    H8G14874   0.513   2.530   3.369
  137OSM    C9F14875   0.569   2.339   3.442
  137OSM    H9F14876   0.663   2.314   3.390
  137OSM   C10F14877   0.555   2.286   3.566
  137OSM   H10F14878   0.631   2.216   3.604
  137OSM   C11F14879   0.438   2.301   3.664
  137OSM   H11F14880   0.373   2.211   3.667
  137OSM   H11G14881   0.380   2.388   3.626
  137OSM   C12F14882   0.487   2.345   3.800
  137OSM   H12F14883   0.397   2.402   3.832
  137OSM   H12G14884   0.565   2.423   3.797
  137OSM   C13F14885   0.518   2.235   3.903
  137OSM   H13F14886   0.617   2.190   3.878
  137OSM   H13G14887   0.433   2.163   3.897
  137OSM   C14F14888   0.532   2.290   4.048
  137OSM   H14F14889   0.555   2.209   4.120
  137OSM   H14G14890   0.439   2.337   4.085
  137OSM   C15F14891   0.646   2.386   4.063
  137OSM   H15F14892   0.650   2.464   3.985
  137OSM   H15G14893   0.745   2.337   4.067
  137OSM   C16F14894   0.624   2.466   4.194
  137OSM   H16F14895   0.595   2.389   4.270
  137OSM   H16G14896   0.532   2.527   4.189
  137OSM   C17F14897   0.741   2.561   4.216
  137OSM   H17F14898   0.760   2.640   4.139
  137OSM   H17G14899   0.836   2.504   4.223
  137OSM   C18F14900   0.735   2.651   4.344
  137OSM   H18F14901   0.809   2.733   4.333
  137OSM   H18G14902   0.762   2.598   4.438
  137OSM   H18H14903   0.632   2.691   4.350
  138OSM      N14904   5.177   6.375   1.913
  138OSM    C1514905   5.163   6.433   1.782
  138OSM   H15A14906   5.058   6.421   1.759
  138OSM   H15B14907   5.224   6.369   1.720
  138OSM   H15C14908   5.202   6.533   1.785
  138OSM    C1414909   5.114   6.237   1.905
  138OSM   H14A14910   5.009   6.244   1.880
  138OSM   H14B14911   5.117   6.185   2.000
  138OSM   H14C14912   5.174   6.174   1.842
  138OSM    C1314913   5.318   6.350   1.953
  138OSM   H13A14914   5.374   6.310   1.870
  138OSM   H13B14915   5.332   6.282   2.036
  138OSM   H13C14916   5.368   6.436   1.996
  138OSM    C1214917   5.103   6.457   2.021
  138OSM   H12A14918   5.120   6.415   2.119
  138OSM   H12B14919   4.997   6.460   2.003
  138OSM    C1114920   5.153   6.603   2.043
  138OSM   H11A14921   5.083   6.653   2.113
  138OSM   H11B14922   5.142   6.649   1.942
  138OSM      P14923   5.359   6.738   2.135
  138OSM    O1314924   5.457   6.686   2.239
  138OSM    O1414925   5.417   0.034   2.017
  138OSM    O1114926   5.250   0.063   2.212
  138OSM    O1214927   5.287   6.612   2.075
  138OSM    C1S14928   5.178   0.023   2.331
  138OSM    H1S14929   5.169   6.689   2.336
  138OSM    H1T14930   5.075   0.064   2.316
  138OSM     NF14931   5.150   0.045   2.565
  138OSM    HNF14932   5.067   0.094   2.591
  138OSM    C2S14933   5.233   0.086   2.460
  138OSM    H2S14934   5.335   0.053   2.484
  138OSM    C3S14935   5.224   0.249   2.450
  138OSM    H3S14936   5.116   0.274   2.440
  138OSM     O314937   5.292   0.308   2.338
  138OSM    HO314938   5.293   0.240   2.270
  138OSM    C4S14939   5.263   0.312   2.581
  138OSM    H4S14940   5.368   0.288   2.603
  138OSM    C5S14941   5.200   0.401   2.663
  138OSM    H5S14942   5.098   0.430   2.634
  138OSM    C6S14943   5.261   0.429   2.800
  138OSM    H6S14944   5.201   0.517   2.832
  138OSM    H6T14945   5.370   0.452   2.796
  138OSM    C7S14946   5.247   0.324   2.915
  138OSM    H7S14947   5.285   0.382   3.002
  138OSM    H7T14948   5.317   0.238   2.905
  138OSM    C8S14949   5.099   0.280   2.938
  138OSM    H8S14950   5.068   0.227   2.846
  138OSM    H8T14951   5.040   0.374   2.947
  138OSM    C9S14952   5.067   0.182   3.059
  138OSM    H9S14953   5.129   0.091   3.047
  138OSM    H9T14954   4.959   0.156   3.051
  138OSM   C10S14955   5.105   0.258   3.190
  138OSM   H10S14956   5.034   0.343   3.197
  138OSM   H10T14957   5.211   0.291   3.187
  138OSM   C11S14958   5.101   0.163   3.315
  138OSM   H11S14959   5.190   0.098   3.302
  138OSM   H11T14960   5.010   0.100   3.308
  138OSM   C12S14961   5.109   0.237   3.445
  138OSM   H12S14962   5.012   0.290   3.458
  138OSM   H12T14963   5.196   0.305   3.433
  138OSM   C13S14964   5.130   0.153   3.574
  138OSM   H13S14965   5.237   0.121   3.570
  138OSM   H13T14966   5.066   0.062   3.566
  138OSM   C14S14967   5.116   0.232   3.712
  138OSM   H14S14968   5.018   0.285   3.713
  138OSM   H14T14969   5.204   0.299   3.721
  138OSM   C15S14970   5.133   0.151   3.835
  138OSM   H15S14971   5.229   0.094   3.835
  138OSM   H15T14972   5.044   0.085   3.838
  138OSM   C16S14973   5.131   0.243   3.961
  138OSM   H16S14974   5.030   0.288   3.969
  138OSM   H16T14975   5.201   0.328   3.944
  138OSM   C17S14976   5.165   0.194   4.098
  138OSM   H17S14977   5.267   0.151   4.102
  138OSM   H17T14978   5.107   0.103   4.125
  138OSM   C18S14979   5.161   0.293   4.212
  138OSM   H18S14980   5.219   0.268   4.303
  138OSM   H18T14981   5.054   0.317   4.230
  138OSM   H18U14982   5.204   0.391   4.182
  138OSM    C1F14983   5.163   6.696   2.606
  138OSM     OF14984   5.251   6.629   2.562
  138OSM    C2F14985   5.073   6.650   2.719
  138OSM    H2F14986   4.970   6.652   2.676
  138OSM    H2G14987   5.083   6.726   2.799
  138OSM    C3F14988   5.107   6.509   2.766
  138OSM    H3F14989   5.200   6.509   2.826
  138OSM    H3G14990   5.114   6.435   2.683
  138OSM    C4F14991   4.998   6.461   2.860
  138OSM    H4F14992   5.004   6.351   2.873
  138OSM    H4G14993   4.903   6.485   2.807
  138OSM    C5F14994   4.980   6.518   3.001
  138OSM    H5F14995   4.875   6.495   3.031
  138OSM    H5G14996   4.973   6.627   3.023
  138OSM    C6F14997   5.081   6.463   3.108
  138OSM    H6F14998   5.186   6.474   3.074
  138OSM    H6G14999   5.067   6.353   3.112
  138OSM    C7F15000   5.064   6.530   3.247
  138OSM    H7F15001   4.964   6.510   3.292
  138OSM    H7G15002   5.073   6.640   3.237
  138OSM    C8F15003   5.168   6.486   3.352
  138OSM    H8F15004   5.156   6.557   3.437
  138OSM    H8G15005   5.267   6.511   3.306
  138OSM    C9F15006   5.153   6.343   3.399
  138OSM    H9F15007   5.172   6.261   3.327
  138OSM   C10F15008   5.107   6.298   3.520
  138OSM   H10F15009   5.101   6.190   3.540
  138OSM   C11F15010   5.060   6.388   3.631
  138OSM   H11F15011   4.956   6.421   3.612
  138OSM   H11G15012   5.144   6.460   3.644
  138OSM   C12F15013   5.066   6.322   3.774
  138OSM   H12F15014   5.161   6.266   3.786
  138OSM   H12G15015   4.979   6.253   3.779
  138OSM   C13F15016   5.084   6.427   3.881
  138OSM   H13F15017   5.007   6.507   3.875
  138OSM   H13G15018   5.184   6.471   3.863
  138OSM   C14F15019   5.083   6.369   4.023
  138OSM   H14F15020   4.992   6.317   4.058
  138OSM   H14G15021   5.091   6.446   4.103
  138OSM   C15F15022   5.205   6.275   4.051
  138OSM   H15F15023   5.297   6.325   4.013
  138OSM   H15G15024   5.193   6.185   3.987
  138OSM   C16F15025   5.201   6.242   4.196
  138OSM   H16F15026   5.110   6.181   4.217
  138OSM   H16G15027   5.195   6.338   4.251
  138OSM   C17F15028   5.321   6.173   4.256
  138OSM   H17F15029   5.413   6.228   4.226
  138OSM   H17G15030   5.331   6.069   4.219
  138OSM   C18F15031   5.309   6.178   4.404
  138OSM   H18F15032   5.385   6.111   4.449
  138OSM   H18G15033   5.209   6.142   4.435
  138OSM   H18H15034   5.334   6.280   4.441
  139OSM      N15035   0.827   1.911   2.021
  139OSM    C1515036   0.871   2.032   1.947
  139OSM   H15A15037   0.845   2.023   1.842
  139OSM   H15B15038   0.974   2.055   1.967
  139OSM   H15C15039   0.799   2.110   1.970
  139OSM    C1415040   0.828   1.943   2.169
  139OSM   H14A15041   0.775   2.034   2.194
  139OSM   H14B15042   0.932   1.956   2.195
  139OSM   H14C15043   0.786   1.859   2.222
  139OSM    C1315044   0.691   1.866   1.979
  139OSM   H13A15045   0.612   1.933   2.009
  139OSM   H13B15046   0.679   1.769   2.026
  139OSM   H13C15047   0.670   1.862   1.874
  139OSM    C1215048   0.926   1.794   1.996
  139OSM   H12A15049   1.029   1.823   2.008
  139OSM   H12B15050   0.922   1.770   1.890
  139OSM    C1115051   0.894   1.670   2.085
  139OSM   H11A15052   0.895   1.695   2.193
  139OSM   H11B15053   0.986   1.607   2.078
  139OSM      P15054   0.750   1.477   2.145
  139OSM    O1315055   0.622   1.418   2.122
  139OSM    O1415056   0.871   1.388   2.132
  139OSM    O1115057   0.753   1.539   2.290
  139OSM    O1215058   0.778   1.597   2.052
  139OSM    C1S15059   0.636   1.621   2.330
  139OSM    H1S15060   0.550   1.551   2.329
  139OSM    H1T15061   0.619   1.705   2.260
  139OSM     NF15062   0.505   1.730   2.514
  139OSM    HNF15063   0.489   1.829   2.510
  139OSM    C2S15064   0.639   1.677   2.479
  139OSM    H2S15065   0.661   1.584   2.535
  139OSM    C3S15066   0.759   1.773   2.507
  139OSM    H3S15067   0.728   1.870   2.461
  139OSM     O315068   0.884   1.748   2.435
  139OSM    HO315069   0.861   1.686   2.365
  139OSM    C4S15070   0.779   1.798   2.659
  139OSM    H4S15071   0.743   1.894   2.699
  139OSM    C5S15072   0.838   1.714   2.745
  139OSM    H5S15073   0.884   1.621   2.708
  139OSM    C6S15074   0.863   1.751   2.890
  139OSM    H6S15075   0.867   1.861   2.905
  139OSM    H6T15076   0.967   1.722   2.915
  139OSM    C7S15077   0.763   1.698   2.995
  139OSM    H7S15078   0.773   1.588   3.012
  139OSM    H7T15079   0.660   1.719   2.961
  139OSM    C8S15080   0.789   1.763   3.137
  139OSM    H8S15081   0.771   1.873   3.135
  139OSM    H8T15082   0.898   1.760   3.155
  139OSM    C9S15083   0.718   1.691   3.250
  139OSM    H9S15084   0.742   1.582   3.253
  139OSM    H9T15085   0.610   1.694   3.223
  139OSM   C10S15086   0.739   1.737   3.396
  139OSM   H10S15087   0.839   1.783   3.414
  139OSM   H10T15088   0.736   1.645   3.458
  139OSM   C11S15089   0.645   1.830   3.455
  139OSM   H11S15090   0.547   1.779   3.451
  139OSM   H11T15091   0.645   1.924   3.396
  139OSM   C12S15092   0.660   1.874   3.599
  139OSM   H12S15093   0.582   1.952   3.608
  139OSM   H12T15094   0.764   1.911   3.611
  139OSM   C13S15095   0.636   1.750   3.693
  139OSM   H13S15096   0.709   1.669   3.670
  139OSM   H13T15097   0.536   1.704   3.678
  139OSM   C14S15098   0.645   1.784   3.849
  139OSM   H14S15099   0.574   1.864   3.879
  139OSM   H14T15100   0.744   1.833   3.861
  139OSM   C15S15101   0.615   1.659   3.934
  139OSM   H15S15102   0.687   1.589   3.886
  139OSM   H15T15103   0.512   1.625   3.909
  139OSM   C16S15104   0.616   1.665   4.089
  139OSM   H16S15105   0.534   1.735   4.119
  139OSM   H16T15106   0.712   1.711   4.121
  139OSM   C17S15107   0.583   1.534   4.153
  139OSM   H17S15108   0.660   1.458   4.128
  139OSM   H17T15109   0.482   1.500   4.119
  139OSM   C18S15110   0.593   1.556   4.305
  139OSM   H18S15111   0.545   1.469   4.354
  139OSM   H18T15112   0.544   1.651   4.335
  139OSM   H18U15113   0.696   1.576   4.342
  139OSM    C1F15114   0.396   1.653   2.525
  139OSM     OF15115   0.411   1.534   2.525
  139OSM    C2F15116   0.258   1.719   2.504
  139OSM    H2F15117   0.247   1.730   2.394
  139OSM    H2G15118   0.264   1.819   2.553
  139OSM    C3F15119   0.147   1.642   2.586
  139OSM    H3F15120   0.151   1.541   2.540
  139OSM    H3G15121   0.043   1.672   2.558
  139OSM    C4F15122   0.164   1.648   2.737
  139OSM    H4F15123   0.173   1.753   2.771
  139OSM    H4G15124   0.263   1.606   2.766
  139OSM    C5F15125   0.050   1.570   2.800
  139OSM    H5F15126   0.029   1.484   2.734
  139OSM    H5G15127   6.740   1.639   2.803
  139OSM    C6F15128   0.086   1.513   2.944
  139OSM    H6F15129   0.162   1.580   2.989
  139OSM    H6G15130   0.137   1.417   2.921
  139OSM    C7F15131   6.738   1.495   3.035
  139OSM    H7F15132   6.675   1.414   2.994
  139OSM    H7G15133   6.681   1.587   3.060
  139OSM    C8F15134   0.014   1.438   3.174
  139OSM    H8F15135   0.037   1.527   3.238
  139OSM    H8G15136   0.110   1.383   3.162
  139OSM    C9F15137   6.694   1.345   3.243
  139OSM    H9F15138   6.700   1.242   3.206
  139OSM   C10F15139   6.607   1.376   3.337
  139OSM   H10F15140   6.542   1.293   3.367
  139OSM   C11F15141   6.580   1.516   3.382
  139OSM   H11F15142   6.474   1.535   3.408
  139OSM   H11G15143   6.602   1.592   3.304
  139OSM   C12F15144   6.652   1.558   3.515
  139OSM   H12F15145   6.615   1.657   3.548
  139OSM   H12G15146   6.759   1.582   3.495
  139OSM   C13F15147   6.635   1.465   3.636
  139OSM   H13F15148   6.720   1.395   3.617
  139OSM   H13G15149   6.536   1.415   3.632
  139OSM   C14F15150   6.665   1.534   3.767
  139OSM   H14F15151   6.622   1.636   3.774
  139OSM   H14G15152   6.774   1.554   3.766
  139OSM   C15F15153   6.631   1.445   3.892
  139OSM   H15F15154   6.678   1.345   3.879
  139OSM   H15G15155   6.525   1.419   3.875
  139OSM   C16F15156   6.664   1.515   4.024
  139OSM   H16F15157   6.647   1.625   4.020
  139OSM   H16G15158   6.772   1.494   4.042
  139OSM   C17F15159   6.579   1.457   4.137
  139OSM   H17F15160   6.476   1.463   4.096
  139OSM   H17G15161   6.600   1.529   4.219
  139OSM   C18F15162   6.588   1.308   4.175
  139OSM   H18F15163   6.691   1.279   4.148
  139OSM   H18G15164   6.518   1.249   4.113
  139OSM   H18H15165   6.575   1.293   4.285
  140OSM      N15166   5.064   0.336   2.002
  140OSM    C1515167   4.962   0.288   1.911
  140OSM   H15A15168   4.959   0.337   1.814
  140OSM   H15B15169   4.867   0.290   1.963
  140OSM   H15C15170   4.984   0.185   1.889
  140OSM    C1415171   5.200   0.281   1.972
  140OSM   H14A15172   5.278   0.341   2.017
  140OSM   H14B15173   5.219   0.282   1.866
  140OSM   H14C15174   5.208   0.182   2.014
  140OSM    C1315175   5.084   0.487   1.987
  140OSM   H13A15176   5.104   0.519   1.886
  140OSM   H13B15177   5.165   0.524   2.049
  140OSM   H13C15178   4.989   0.529   2.019
  140OSM    C1215179   5.023   0.312   2.145
  140OSM   H12A15180   5.121   0.301   2.189
  140OSM   H12B15181   4.961   0.224   2.140
  140OSM    C1115182   4.928   0.425   2.218
  140OSM   H11A15183   4.999   0.507   2.244
  140OSM   H11B15184   4.903   0.378   2.315
  140OSM      P15185   4.681   0.391   2.139
  140OSM    O1315186   4.569   0.475   2.088
  140OSM    O1415187   4.699   0.258   2.073
  140OSM    O1115188   4.648   0.367   2.288
  140OSM    O1215189   4.818   0.466   2.144
  140OSM    C1S15190   4.588   0.247   2.343
  140OSM    H1S15191   4.653   0.158   2.332
  140OSM    H1T15192   4.494   0.221   2.289
  140OSM     NF15193   4.495   0.125   2.527
  140OSM    HNF15194   4.396   0.126   2.540
  140OSM    C2S15195   4.557   0.258   2.492
  140OSM    H2S15196   4.653   0.262   2.548
  140OSM    C3S15197   4.467   0.378   2.527
  140OSM    H3S15198   4.369   0.354   2.480
  140OSM     O315199   4.504   0.507   2.488
  140OSM    HO315200   4.566   0.483   2.419
  140OSM    C4S15201   4.440   0.374   2.678
  140OSM    H4S15202   4.357   0.308   2.709
  140OSM    C5S15203   4.497   0.459   2.770
  140OSM    H5S15204   4.586   0.517   2.742
  140OSM    C6S15205   4.463   0.474   2.912
  140OSM    H6S15206   4.355   0.500   2.915
  140OSM    H6T15207   4.532   0.550   2.954
  140OSM    C7S15208   4.493   0.344   2.993
  140OSM    H7S15209   4.593   0.295   2.990
  140OSM    H7T15210   4.419   0.267   2.962
  140OSM    C8S15211   4.484   0.364   3.143
  140OSM    H8S15212   4.544   0.454   3.169
  140OSM    H8T15213   4.536   0.283   3.199
  140OSM    C9S15214   4.347   0.408   3.199
  140OSM    H9S15215   4.274   0.329   3.173
  140OSM    H9T15216   4.317   0.496   3.138
  140OSM   C10S15217   4.361   0.464   3.341
  140OSM   H10S15218   4.270   0.523   3.363
  140OSM   H10T15219   4.447   0.534   3.344
  140OSM   C11S15220   4.389   0.352   3.448
  140OSM   H11S15221   4.498   0.328   3.449
  140OSM   H11T15222   4.341   0.265   3.399
  140OSM   C12S15223   4.335   0.382   3.585
  140OSM   H12S15224   4.370   0.298   3.649
  140OSM   H12T15225   4.224   0.386   3.589
  140OSM   C13S15226   4.384   0.511   3.641
  140OSM   H13S15227   4.337   0.598   3.590
  140OSM   H13T15228   4.490   0.515   3.608
  140OSM   C14S15229   4.375   0.533   3.792
  140OSM   H14S15230   4.427   0.626   3.821
  140OSM   H14T15231   4.414   0.439   3.838
  140OSM   C15S15232   4.230   0.534   3.848
  140OSM   H15S15233   4.186   0.439   3.809
  140OSM   H15T15234   4.185   0.625   3.803
  140OSM   C16S15235   4.214   0.546   4.004
  140OSM   H16S15236   4.108   0.538   4.036
  140OSM   H16T15237   4.247   0.648   4.033
  140OSM   C17S15238   4.286   0.437   4.086
  140OSM   H17S15239   4.389   0.472   4.108
  140OSM   H17T15240   4.287   0.343   4.027
  140OSM   C18S15241   4.224   0.406   4.217
  140OSM   H18S15242   4.280   0.322   4.263
  140OSM   H18T15243   4.123   0.361   4.205
  140OSM   H18U15244   4.223   0.499   4.276
  140OSM    C1F15245   4.555   0.007   2.543
  140OSM     OF15246   4.667   6.765   2.500
  140OSM    C2F15247   4.475   6.666   2.590
  140OSM    H2F15248   4.547   6.582   2.602
  140OSM    H2G15249   4.395   6.635   2.519
  140OSM    C3F15250   4.386   6.683   2.717
  140OSM    H3F15251   4.344   6.581   2.730
  140OSM    H3G15252   4.305   6.758   2.705
  140OSM    C4F15253   4.481   6.701   2.836
  140OSM    H4F15254   4.529   0.024   2.829
  140OSM    H4G15255   4.566   6.631   2.819
  140OSM    C5F15256   4.407   6.697   2.965
  140OSM    H5F15257   4.363   6.596   2.978
  140OSM    H5G15258   4.322   6.768   2.969
  140OSM    C6F15259   4.497   6.716   3.087
  140OSM    H6F15260   4.574   0.019   3.073
  140OSM    H6G15261   4.556   6.630   3.127
  140OSM    C7F15262   4.408   6.758   3.204
  140OSM    H7F15263   4.334   6.678   3.224
  140OSM    H7G15264   4.360   0.079   3.180
  140OSM    C8F15265   4.486   0.013   3.329
  140OSM    H8F15266   4.412   0.045   3.406
  140OSM    H8G15267   4.554   0.098   3.307
  140OSM    C9F15268   4.560   6.673   3.394
  140OSM    H9F15269   4.522   6.573   3.369
  140OSM   C10F15270   4.668   6.680   3.475
  140OSM   H10F15271   4.704   6.596   3.537
  140OSM   C11F15272   4.746   0.031   3.515
  140OSM   H11F15273   4.738   0.109   3.437
  140OSM   H11G15274   4.853   0.004   3.529
  140OSM   C12F15275   4.696   0.094   3.649
  140OSM   H12F15276   4.589   0.120   3.630
  140OSM   H12G15277   4.752   0.188   3.664
  140OSM   C13F15278   4.695   0.005   3.771
  140OSM   H13F15279   4.785   6.717   3.779
  140OSM   H13G15280   4.620   6.700   3.757
  140OSM   C14F15281   4.666   0.083   3.896
  140OSM   H14F15282   4.564   0.128   3.892
  140OSM   H14G15283   4.744   0.161   3.900
  140OSM   C15F15284   4.681   0.001   4.030
  140OSM   H15F15285   4.603   6.698   4.026
  140OSM   H15G15286   4.660   0.077   4.109
  140OSM   C16F15287   4.827   6.719   4.046
  140OSM   H16F15288   4.906   0.020   4.032
  140OSM   H16G15289   4.852   6.637   3.976
  140OSM   C17F15290   4.841   6.656   4.192
  140OSM   H17F15291   4.942   6.611   4.189
  140OSM   H17G15292   4.755   6.587   4.204
  140OSM   C18F15293   4.840   6.751   4.313
  140OSM   H18F15294   4.912   0.052   4.279
  140OSM   H18G15295   4.883   6.697   4.400
  140OSM   H18H15296   4.739   0.014   4.337
  141OSM      N15297   0.423   4.809   1.638
  141OSM    C1515298   0.287   4.767   1.637
  141OSM   H15A15299   0.216   4.836   1.680
  141OSM   H15B15300   0.268   4.670   1.681
  141OSM   H15C15301   0.253   4.757   1.535
  141OSM    C1415302   0.502   4.702   1.571
  141OSM   H14A15303   0.495   4.614   1.633
  141OSM   H14B15304   0.607   4.728   1.566
  141OSM   H14C15305   0.481   4.672   1.469
  141OSM    C1315306   0.436   4.932   1.559
  141OSM   H13A15307   0.362   5.005   1.588
  141OSM   H13B15308   0.411   4.900   1.459
  141OSM   H13C15309   0.536   4.972   1.553
  141OSM    C1215310   0.484   4.838   1.776
  141OSM   H12A15311   0.453   4.939   1.796
  141OSM   H12B15312   0.591   4.847   1.766
  141OSM    C1115313   0.459   4.733   1.888
  141OSM   H11A15314   0.351   4.718   1.908
  141OSM   H11B15315   0.502   4.771   1.983
  141OSM      P15316   0.653   4.557   1.876
  141OSM    O1315317   0.664   4.422   1.823
  141OSM    O1415318   0.730   4.664   1.812
  141OSM    O1115319   0.687   4.561   2.035
  141OSM    O1215320   0.500   4.599   1.863
  141OSM    C1S15321   0.613   4.480   2.129
  141OSM    H1S15322   0.634   4.371   2.120
  141OSM    H1T15323   0.504   4.482   2.107
  141OSM     NF15324   0.590   4.415   2.374
  141OSM    HNF15325   0.501   4.431   2.417
  141OSM    C2S15326   0.631   4.520   2.276
  141OSM    H2S15327   0.736   4.542   2.307
  141OSM    C3S15328   0.567   4.662   2.296
  141OSM    H3S15329   0.460   4.648   2.269
  141OSM     O315330   0.625   4.753   2.211
  141OSM    HO315331   0.668   4.693   2.150
  141OSM    C4S15332   0.573   4.705   2.444
  141OSM    H4S15333   0.524   4.631   2.508
  141OSM    C5S15334   0.633   4.813   2.498
  141OSM    H5S15335   0.684   4.886   2.433
  141OSM    C6S15336   0.630   4.836   2.647
  141OSM    H6S15337   0.595   4.941   2.654
  141OSM    H6T15338   0.734   4.842   2.686
  141OSM    C7S15339   0.547   4.740   2.736
  141OSM    H7S15340   0.579   4.634   2.741
  141OSM    H7T15341   0.441   4.745   2.704
  141OSM    C8S15342   0.548   4.795   2.880
  141OSM    H8S15343   0.540   4.906   2.890
  141OSM    H8T15344   0.647   4.775   2.926
  141OSM    C9S15345   0.446   4.722   2.969
  141OSM    H9S15346   0.443   4.613   2.950
  141OSM    H9T15347   0.353   4.768   2.929
  141OSM   C10S15348   0.448   4.746   3.119
  141OSM   H10S15349   0.475   4.852   3.140
  141OSM   H10T15350   0.531   4.680   3.153
  141OSM   C11S15351   0.326   4.685   3.195
  141OSM   H11S15352   0.295   4.586   3.153
  141OSM   H11T15353   0.224   4.729   3.183
  141OSM   C12S15354   0.371   4.660   3.344
  141OSM   H12S15355   0.418   4.748   3.393
  141OSM   H12T15356   0.458   4.591   3.335
  141OSM   C13S15357   0.245   4.616   3.422
  141OSM   H13S15358   0.204   4.524   3.374
  141OSM   H13T15359   0.171   4.692   3.390
  141OSM   C14S15360   0.261   4.620   3.568
  141OSM   H14S15361   0.299   4.724   3.575
  141OSM   H14T15362   0.345   4.562   3.612
  141OSM   C15S15363   0.129   4.619   3.647
  141OSM   H15S15364   0.087   4.516   3.640
  141OSM   H15T15365   0.051   4.681   3.597
  141OSM   C16S15366   0.137   4.663   3.794
  141OSM   H16S15367   0.230   4.623   3.840
  141OSM   H16T15368   0.045   4.637   3.851
  141OSM   C17S15369   0.157   4.812   3.804
  141OSM   H17S15370   0.225   4.858   3.729
  141OSM   H17T15371   0.217   4.832   3.896
  141OSM   C18S15372   0.032   4.898   3.807
  141OSM   H18S15373   6.740   4.883   3.721
  141OSM   H18T15374   0.063   5.003   3.796
  141OSM   H18U15375   6.753   4.872   3.900
  141OSM    C1F15376   0.653   4.300   2.394
  141OSM     OF15377   0.744   4.268   2.323
  141OSM    C2F15378   0.604   4.220   2.514
  141OSM    H2F15379   0.648   4.118   2.515
  141OSM    H2G15380   0.493   4.212   2.506
  141OSM    C3F15381   0.645   4.283   2.640
  141OSM    H3F15382   0.650   4.394   2.632
  141OSM    H3G15383   0.749   4.252   2.662
  141OSM    C4F15384   0.552   4.238   2.764
  141OSM    H4F15385   0.586   4.134   2.784
  141OSM    H4G15386   0.442   4.239   2.746
  141OSM    C5F15387   0.589   4.313   2.894
  141OSM    H5F15388   0.544   4.414   2.877
  141OSM    H5G15389   0.698   4.329   2.911
  141OSM    C6F15390   0.537   4.249   3.027
  141OSM    H6F15391   0.582   4.147   3.037
  141OSM    H6G15392   0.427   4.243   3.015
  141OSM    C7F15393   0.573   4.331   3.156
  141OSM    H7F15394   0.500   4.413   3.168
  141OSM    H7G15395   0.669   4.376   3.123
  141OSM    C8F15396   0.572   4.246   3.284
  141OSM    H8F15397   0.631   4.309   3.354
  141OSM    H8G15398   0.619   4.146   3.271
  141OSM    C9F15399   0.435   4.231   3.355
  141OSM    H9F15400   0.354   4.206   3.285
  141OSM   C10F15401   0.411   4.250   3.483
  141OSM   H10F15402   0.310   4.229   3.521
  141OSM   C11F15403   0.504   4.294   3.588
  141OSM   H11F15404   0.501   4.404   3.573
  141OSM   H11G15405   0.601   4.243   3.573
  141OSM   C12F15406   0.459   4.276   3.737
  141OSM   H12F15407   0.468   4.168   3.761
  141OSM   H12G15408   0.355   4.316   3.739
  141OSM   C13F15409   0.547   4.348   3.839
  141OSM   H13F15410   0.559   4.454   3.808
  141OSM   H13G15411   0.647   4.300   3.836
  141OSM   C14F15412   0.478   4.344   3.973
  141OSM   H14F15413   0.557   4.383   4.041
  141OSM   H14G15414   0.472   4.235   3.994
  141OSM   C15F15415   0.341   4.420   3.991
  141OSM   H15F15416   0.262   4.378   3.925
  141OSM   H15G15417   0.354   4.523   3.950
  141OSM   C16F15418   0.294   4.419   4.135
  141OSM   H16F15419   0.207   4.485   4.156
  141OSM   H16G15420   0.376   4.457   4.200
  141OSM   C17F15421   0.264   4.268   4.191
  141OSM   H17F15422   0.349   4.202   4.164
  141OSM   H17G15423   0.174   4.240   4.132
  141OSM   C18F15424   0.238   4.256   4.346
  141OSM   H18F15425   0.141   4.306   4.366
  141OSM   H18G15426   0.316   4.309   4.405
  141OSM   H18H15427   0.228   4.150   4.377
  142OSM      N15428   1.939   5.603   2.168
  142OSM    C1515429   1.792   5.616   2.175
  142OSM   H15A15430   1.751   5.689   2.107
  142OSM   H15B15431   1.769   5.657   2.273
  142OSM   H15C15432   1.739   5.522   2.170
  142OSM    C1415433   1.960   5.492   2.070
  142OSM   H14A15434   1.896   5.409   2.097
  142OSM   H14B15435   2.066   5.474   2.061
  142OSM   H14C15436   1.936   5.525   1.970
  142OSM    C1315437   2.003   5.733   2.132
  142OSM   H13A15438   2.002   5.799   2.217
  142OSM   H13B15439   1.963   5.781   2.044
  142OSM   H13C15440   2.106   5.716   2.102
  142OSM    C1215441   1.976   5.558   2.317
  142OSM   H12A15442   2.083   5.545   2.309
  142OSM   H12B15443   1.941   5.457   2.331
  142OSM    C1115444   1.933   5.643   2.438
  142OSM   H11A15445   1.983   5.594   2.525
  142OSM   H11B15446   1.823   5.641   2.450
  142OSM      P15447   1.883   5.902   2.446
  142OSM    O1315448   1.949   6.013   2.372
  142OSM    O1415449   1.739   5.876   2.417
  142OSM    O1115450   1.890   5.935   2.604
  142OSM    O1215451   1.979   5.771   2.426
  142OSM    C1S15452   1.971   5.868   2.692
  142OSM    H1S15453   2.076   5.901   2.676
  142OSM    H1T15454   1.967   5.757   2.690
  142OSM     NF15455   2.037   5.855   2.926
  142OSM    HNF15456   2.029   5.769   2.977
  142OSM    C2S15457   1.929   5.895   2.836
  142OSM    H2S15458   1.930   6.005   2.827
  142OSM    C3S15459   1.793   5.836   2.877
  142OSM    H3S15460   1.811   5.726   2.870
  142OSM     O315461   1.683   5.861   2.789
  142OSM    HO315462   1.722   5.926   2.728
  142OSM    C4S15463   1.759   5.886   3.010
  142OSM    H4S15464   1.752   5.994   3.026
  142OSM    C5S15465   1.744   5.810   3.109
  142OSM    H5S15466   1.742   5.702   3.087
  142OSM    C6S15467   1.723   5.843   3.250
  142OSM    H6S15468   1.747   5.950   3.272
  142OSM    H6T15469   1.774   5.782   3.327
  142OSM    C7S15470   1.570   5.831   3.290
  142OSM    H7S15471   1.525   5.731   3.274
  142OSM    H7T15472   1.524   5.912   3.228
  142OSM    C8S15473   1.553   5.860   3.438
  142OSM    H8S15474   1.449   5.896   3.457
  142OSM    H8T15475   1.620   5.944   3.463
  142OSM    C9S15476   1.573   5.743   3.528
  142OSM    H9S15477   1.671   5.701   3.499
  142OSM    H9T15478   1.499   5.664   3.504
  142OSM   C10S15479   1.577   5.786   3.675
  142OSM   H10S15480   1.484   5.844   3.690
  142OSM   H10T15481   1.661   5.852   3.705
  142OSM   C11S15482   1.569   5.663   3.770
  142OSM   H11S15483   1.643   5.586   3.740
  142OSM   H11T15484   1.465   5.628   3.753
  142OSM   C12S15485   1.585   5.703   3.916
  142OSM   H12S15486   1.509   5.780   3.940
  142OSM   H12T15487   1.683   5.751   3.937
  142OSM   C13S15488   1.545   5.592   4.012
  142OSM   H13S15489   1.618   5.509   4.006
  142OSM   H13T15490   1.451   5.548   3.972
  142OSM   C14S15491   1.530   5.648   4.155
  142OSM   H14S15492   1.451   5.723   4.176
  142OSM   H14T15493   1.621   5.710   4.171
  142OSM   C15S15494   1.529   5.539   4.261
  142OSM   H15S15495   1.603   5.457   4.253
  142OSM   H15T15496   1.432   5.488   4.245
  142OSM   C16S15497   1.533   5.581   4.410
  142OSM   H16S15498   1.465   5.666   4.430
  142OSM   H16T15499   1.636   5.603   4.446
  142OSM   C17S15500   1.486   5.464   4.498
  142OSM   H17S15501   1.563   5.385   4.493
  142OSM   H17T15502   1.390   5.424   4.459
  142OSM   C18S15503   1.462   5.511   4.639
  142OSM   H18S15504   1.558   5.551   4.679
  142OSM   H18T15505   1.426   5.426   4.701
  142OSM   H18U15506   1.384   5.590   4.647
  142OSM    C1F15507   2.148   5.930   2.935
  142OSM     OF15508   2.154   6.043   2.879
  142OSM    C2F15509   2.266   5.864   3.013
  142OSM    H2F15510   2.338   5.811   2.947
  142OSM    H2G15511   2.226   5.787   3.084
  142OSM    C3F15512   2.345   5.973   3.091
  142OSM    H3F15513   2.395   6.041   3.019
  142OSM    H3G15514   2.415   5.905   3.145
  142OSM    C4F15515   2.255   6.051   3.183
  142OSM    H4F15516   2.192   6.119   3.123
  142OSM    H4G15517   2.327   6.122   3.229
  142OSM    C5F15518   2.194   5.985   3.311
  142OSM    H5F15519   2.269   5.935   3.376
  142OSM    H5G15520   2.135   5.895   3.283
  142OSM    C6F15521   2.116   6.078   3.404
  142OSM    H6F15522   2.174   6.167   3.436
  142OSM    H6G15523   2.080   6.018   3.490
  142OSM    C7F15524   1.987   6.129   3.338
  142OSM    H7F15525   1.943   6.041   3.286
  142OSM    H7G15526   2.020   6.195   3.255
  142OSM    C8F15527   1.895   6.200   3.437
  142OSM    H8F15528   1.803   6.237   3.387
  142OSM    H8G15529   1.946   6.288   3.482
  142OSM    C9F15530   1.847   6.116   3.551
  142OSM    H9F15531   1.802   6.019   3.525
  142OSM   C10F15532   1.857   6.146   3.684
  142OSM   H10F15533   1.809   6.091   3.766
  142OSM   C11F15534   1.919   6.277   3.741
  142OSM   H11F15535   1.908   6.356   3.664
  142OSM   H11G15536   2.029   6.273   3.752
  142OSM   C12F15537   1.844   6.337   3.863
  142OSM   H12F15538   1.736   6.347   3.841
  142OSM   H12G15539   1.883   6.442   3.864
  142OSM   C13F15540   1.862   6.262   3.990
  142OSM   H13F15541   1.968   6.227   3.987
  142OSM   H13G15542   1.789   6.178   3.990
  142OSM   C14F15543   1.854   6.342   4.123
  142OSM   H14F15544   1.755   6.392   4.113
  142OSM   H14G15545   1.929   6.423   4.114
  142OSM   C15F15546   1.863   6.253   4.249
  142OSM   H15F15547   1.793   6.168   4.233
  142OSM   H15G15548   1.831   6.323   4.330
  142OSM   C16F15549   2.002   6.187   4.273
  142OSM   H16F15550   2.058   6.169   4.178
  142OSM   H16G15551   1.964   6.097   4.324
  142OSM   C17F15552   2.088   6.278   4.365
  142OSM   H17F15553   2.111   6.375   4.315
  142OSM   H17G15554   2.189   6.235   4.383
  142OSM   C18F15555   2.029   6.309   4.505
  142OSM   H18F15556   1.990   6.413   4.507
  142OSM   H18G15557   2.108   6.310   4.584
  142OSM   H18H15558   1.958   6.234   4.544
  143OSM      N15559   1.501   4.941   1.901
  143OSM    C1515560   1.448   5.082   1.871
  143OSM   H15A15561   1.431   5.145   1.957
  143OSM   H15B15562   1.348   5.063   1.835
  143OSM   H15C15563   1.505   5.126   1.790
  143OSM    C1415564   1.494   4.858   1.774
  143OSM   H14A15565   1.570   4.882   1.701
  143OSM   H14B15566   1.397   4.866   1.729
  143OSM   H14C15567   1.518   4.757   1.806
  143OSM    C1315568   1.640   4.938   1.957
  143OSM   H13A15569   1.697   4.984   1.877
  143OSM   H13B15570   1.673   4.842   1.994
  143OSM   H13C15571   1.645   5.016   2.032
  143OSM    C1215572   1.400   4.882   2.009
  143OSM   H12A15573   1.402   4.950   2.092
  143OSM   H12B15574   1.435   4.791   2.055
  143OSM    C1115575   1.249   4.846   1.975
  143OSM   H11A15576   1.192   4.824   2.068
  143OSM   H11B15577   1.240   4.750   1.919
  143OSM      P15578   1.089   5.061   1.975
  143OSM    O1315579   1.080   5.170   1.877
  143OSM    O1415580   0.956   4.999   2.012
  143OSM    O1115581   1.177   5.121   2.090
  143OSM    O1215582   1.187   4.954   1.908
  143OSM    C1S15583   1.123   5.204   2.197
  143OSM    H1S15584   1.013   5.189   2.207
  143OSM    H1T15585   1.145   5.312   2.181
  143OSM     NF15586   1.084   5.220   2.442
  143OSM    HNF15587   1.117   5.306   2.479
  143OSM    C2S15588   1.169   5.156   2.341
  143OSM    H2S15589   1.149   5.047   2.335
  143OSM    C3S15590   1.320   5.166   2.358
  143OSM    H3S15591   1.348   5.272   2.379
  143OSM     O315592   1.400   5.126   2.241
  143OSM    HO315593   1.323   5.116   2.184
  143OSM    C4S15594   1.370   5.101   2.486
  143OSM    H4S15595   1.414   5.176   2.555
  143OSM    C5S15596   1.384   4.973   2.512
  143OSM    H5S15597   1.348   4.911   2.428
  143OSM    C6S15598   1.461   4.910   2.624
  143OSM    H6S15599   1.564   4.951   2.633
  143OSM    H6T15600   1.471   4.800   2.614
  143OSM    C7S15601   1.399   4.937   2.760
  143OSM    H7S15602   1.289   4.950   2.765
  143OSM    H7T15603   1.432   5.038   2.790
  143OSM    C8S15604   1.442   4.845   2.875
  143OSM    H8S15605   1.553   4.843   2.870
  143OSM    H8T15606   1.413   4.740   2.855
  143OSM    C9S15607   1.401   4.909   3.005
  143OSM    H9S15608   1.295   4.937   2.992
  143OSM    H9T15609   1.464   4.999   3.022
  143OSM   C10S15610   1.420   4.825   3.123
  143OSM   H10S15611   1.520   4.777   3.110
  143OSM   H10T15612   1.344   4.745   3.117
  143OSM   C11S15613   1.407   4.906   3.256
  143OSM   H11S15614   1.303   4.945   3.257
  143OSM   H11T15615   1.474   4.995   3.258
  143OSM   C12S15616   1.419   4.822   3.375
  143OSM   H12S15617   1.526   4.800   3.397
  143OSM   H12T15618   1.372   4.724   3.351
  143OSM   C13S15619   1.358   4.886   3.505
  143OSM   H13S15620   1.249   4.896   3.487
  143OSM   H13T15621   1.394   4.988   3.528
  143OSM   C14S15622   1.381   4.791   3.628
  143OSM   H14S15623   1.491   4.788   3.645
  143OSM   H14T15624   1.349   4.694   3.587
  143OSM   C15S15625   1.303   4.820   3.758
  143OSM   H15S15626   1.200   4.784   3.736
  143OSM   H15T15627   1.285   4.928   3.776
  143OSM   C16S15628   1.356   4.735   3.875
  143OSM   H16S15629   1.456   4.776   3.900
  143OSM   H16T15630   1.375   4.633   3.835
  143OSM   C17S15631   1.264   4.750   4.000
  143OSM   H17S15632   1.311   4.693   4.083
  143OSM   H17T15633   1.167   4.708   3.966
  143OSM   C18S15634   1.242   4.897   4.046
  143OSM   H18S15635   1.239   4.912   4.156
  143OSM   H18T15636   1.146   4.940   4.012
  143OSM   H18U15637   1.301   4.965   3.981
  143OSM    C1F15638   0.959   5.181   2.458
  143OSM     OF15639   0.918   5.073   2.408
  143OSM    C2F15640   0.875   5.262   2.548
  143OSM    H2F15641   0.837   5.354   2.498
  143OSM    H2G15642   0.942   5.288   2.632
  143OSM    C3F15643   0.762   5.189   2.609
  143OSM    H3F15644   0.795   5.087   2.639
  143OSM    H3G15645   0.688   5.170   2.529
  143OSM    C4F15646   0.687   5.261   2.725
  143OSM    H4F15647   0.605   5.192   2.753
  143OSM    H4G15648   0.634   5.356   2.701
  143OSM    C5F15649   0.779   5.275   2.850
  143OSM    H5F15650   0.844   5.365   2.842
  143OSM    H5G15651   0.844   5.186   2.864
  143OSM    C6F15652   0.698   5.267   2.977
  143OSM    H6F15653   0.617   5.191   2.971
  143OSM    H6G15654   0.655   5.369   2.980
  143OSM    C7F15655   0.789   5.229   3.095
  143OSM    H7F15656   0.851   5.320   3.109
  143OSM    H7G15657   0.865   5.156   3.061
  143OSM    C8F15658   0.722   5.191   3.227
  143OSM    H8F15659   0.645   5.269   3.246
  143OSM    H8G15660   0.792   5.207   3.311
  143OSM    C9F15661   0.670   5.052   3.243
  143OSM    H9F15662   0.674   4.975   3.165
  143OSM   C10F15663   0.605   5.012   3.357
  143OSM   H10F15664   0.583   4.905   3.371
  143OSM   C11F15665   0.554   5.097   3.478
  143OSM   H11F15666   0.444   5.087   3.483
  143OSM   H11G15667   0.576   5.205   3.463
  143OSM   C12F15668   0.615   5.054   3.614
  143OSM   H12F15669   0.726   5.060   3.606
  143OSM   H12G15670   0.595   4.951   3.653
  143OSM   C13F15671   0.581   5.155   3.727
  143OSM   H13F15672   0.593   5.262   3.700
  143OSM   H13G15673   0.665   5.150   3.800
  143OSM   C14F15674   0.439   5.129   3.781
  143OSM   H14F15675   0.428   5.027   3.823
  143OSM   H14G15676   0.377   5.147   3.691
  143OSM   C15F15677   0.398   5.230   3.885
  143OSM   H15F15678   0.395   5.333   3.845
  143OSM   H15G15679   0.477   5.228   3.963
  143OSM   C16F15680   0.254   5.200   3.939
  143OSM   H16F15681   0.226   5.093   3.955
  143OSM   H16G15682   0.182   5.231   3.860
  143OSM   C17F15683   0.216   5.272   4.075
  143OSM   H17F15684   0.204   5.379   4.048
  143OSM   H17G15685   0.296   5.250   4.149
  143OSM   C18F15686   0.090   5.213   4.127
  143OSM   H18F15687   0.048   5.286   4.199
  143OSM   H18G15688   0.115   5.118   4.178
  143OSM   H18H15689   0.018   5.194   4.045
  144OSM      N15690   1.260   5.911   1.775
  144OSM    C1515691   1.148   6.010   1.752
  144OSM   H15A15692   1.048   5.970   1.740
  144OSM   H15B15693   1.176   6.086   1.681
  144OSM   H15C15694   1.135   6.060   1.847
  144OSM    C1415695   1.260   5.805   1.657
  144OSM   H14A15696   1.275   5.859   1.564
  144OSM   H14B15697   1.171   5.743   1.659
  144OSM   H14C15698   1.337   5.731   1.670
  144OSM    C1315699   1.392   5.979   1.770
  144OSM   H13A15700   1.400   6.048   1.852
  144OSM   H13B15701   1.400   6.032   1.676
  144OSM   H13C15702   1.480   5.916   1.774
  144OSM    C1215703   1.239   5.840   1.907
  144OSM   H12A15704   1.311   5.761   1.917
  144OSM   H12B15705   1.142   5.792   1.909
  144OSM    C1115706   1.261   5.925   2.038
  144OSM   H11A15707   1.358   5.979   2.043
  144OSM   H11B15708   1.270   5.858   2.126
  144OSM      P15709   1.012   5.977   2.124
  144OSM    O1315710   0.914   6.086   2.092
  144OSM    O1415711   0.980   5.838   2.081
  144OSM    O1115712   1.057   5.984   2.278
  144OSM    O1215713   1.151   6.019   2.051
  144OSM    C1S15714   1.119   6.109   2.321
  144OSM    H1S15715   1.081   6.203   2.278
  144OSM    H1T15716   1.227   6.105   2.296
  144OSM     NF15717   1.174   6.257   2.505
  144OSM    HNF15718   1.252   6.257   2.567
  144OSM    C2S15719   1.119   6.128   2.479
  144OSM    H2S15720   1.014   6.125   2.516
  144OSM    C3S15721   1.182   5.995   2.541
  144OSM    H3S15722   1.284   5.989   2.496
  144OSM     O315723   1.126   5.874   2.503
  144OSM    HO315724   1.075   5.888   2.423
  144OSM    C4S15725   1.182   6.000   2.694
  144OSM    H4S15726   1.079   6.014   2.731
  144OSM    C5S15727   1.296   5.987   2.766
  144OSM    H5S15728   1.382   5.951   2.708
  144OSM    C6S15729   1.311   5.997   2.913
  144OSM    H6S15730   1.384   6.073   2.948
  144OSM    H6T15731   1.353   5.899   2.942
  144OSM    C7S15732   1.174   6.028   2.994
  144OSM    H7S15733   1.094   5.953   2.973
  144OSM    H7T15734   1.137   6.130   2.970
  144OSM    C8S15735   1.228   6.029   3.137
  144OSM    H8S15736   1.313   6.101   3.144
  144OSM    H8T15737   1.265   5.929   3.165
  144OSM    C9S15738   1.133   6.084   3.244
  144OSM    H9S15739   1.060   6.156   3.201
  144OSM    H9T15740   1.183   6.137   3.328
  144OSM   C10S15741   1.055   5.978   3.304
  144OSM   H10S15742   1.123   5.896   3.332
  144OSM   H10T15743   0.978   5.940   3.233
  144OSM   C11S15744   0.977   6.029   3.428
  144OSM   H11S15745   0.928   6.123   3.396
  144OSM   H11T15746   1.056   6.066   3.497
  144OSM   C12S15747   0.882   5.925   3.481
  144OSM   H12S15748   0.934   5.831   3.507
  144OSM   H12T15749   0.807   5.903   3.402
  144OSM   C13S15750   0.808   5.970   3.610
  144OSM   H13S15751   0.736   5.893   3.646
  144OSM   H13T15752   0.752   6.061   3.579
  144OSM   C14S15753   0.903   6.004   3.734
  144OSM   H14S15754   0.840   6.033   3.820
  144OSM   H14T15755   0.984   6.080   3.724
  144OSM   C15S15756   0.989   5.875   3.771
  144OSM   H15S15757   1.074   5.851   3.704
  144OSM   H15T15758   0.927   5.784   3.782
  144OSM   C16S15759   1.054   5.893   3.908
  144OSM   H16S15760   0.970   5.903   3.980
  144OSM   H16T15761   1.108   5.990   3.904
  144OSM   C17S15762   1.129   5.774   3.948
  144OSM   H17S15763   1.216   5.763   3.880
  144OSM   H17T15764   1.070   5.681   3.935
  144OSM   C18S15765   1.181   5.771   4.097
  144OSM   H18S15766   1.249   5.855   4.121
  144OSM   H18T15767   1.244   5.682   4.117
  144OSM   H18U15768   1.096   5.771   4.169
  144OSM    C1F15769   1.112   6.372   2.468
  144OSM     OF15770   0.994   6.373   2.426
  144OSM    C2F15771   1.196   6.496   2.493
  144OSM    H2F15772   1.260   6.504   2.402
  144OSM    H2G15773   1.262   6.464   2.577
  144OSM    C3F15774   1.128   6.634   2.520
  144OSM    H3F15775   1.061   6.659   2.435
  144OSM    H3G15776   1.200   6.719   2.520
  144OSM    C4F15777   1.064   6.641   2.656
  144OSM    H4F15778   1.134   6.614   2.737
  144OSM    H4G15779   0.994   6.556   2.663
  144OSM    C5F15780   1.007   0.003   2.700
  144OSM    H5F15781   0.930   0.041   2.630
  144OSM    H5G15782   1.091   0.076   2.693
  144OSM    C6F15783   0.951   0.012   2.841
  144OSM    H6F15784   1.026   6.753   2.915
  144OSM    H6G15785   0.864   6.720   2.848
  144OSM    C7F15786   0.906   0.156   2.875
  144OSM    H7F15787   0.844   0.188   2.789
  144OSM    H7G15788   0.996   0.221   2.868
  144OSM    C8F15789   0.829   0.166   3.013
  144OSM    H8F15790   0.906   0.135   3.087
  144OSM    H8G15791   0.749   0.090   2.997
  144OSM    C9F15792   0.783   0.305   3.048
  144OSM    H9F15793   0.779   0.371   2.960
  144OSM   C10F15794   0.736   0.347   3.167
  144OSM   H10F15795   0.704   0.452   3.173
  144OSM   C11F15796   0.717   0.255   3.293
  144OSM   H11F15797   0.721   0.148   3.266
  144OSM   H11G15798   0.611   0.271   3.324
  144OSM   C12F15799   0.807   0.284   3.420
  144OSM   H12F15800   0.807   0.392   3.447
  144OSM   H12G15801   0.912   0.258   3.393
  144OSM   C13F15802   0.774   0.194   3.544
  144OSM   H13F15803   0.745   0.090   3.518
  144OSM   H13G15804   0.678   0.222   3.592
  144OSM   C14F15805   0.890   0.188   3.642
  144OSM   H14F15806   0.922   0.291   3.668
  144OSM   H14G15807   0.982   0.152   3.592
  144OSM   C15F15808   0.863   0.100   3.767
  144OSM   H15F15809   0.953   0.079   3.829
  144OSM   H15G15810   0.831   0.004   3.722
  144OSM   C16F15811   0.747   0.151   3.864
  144OSM   H16F15812   0.650   0.131   3.813
  144OSM   H16G15813   0.766   0.256   3.895
  144OSM   C17F15814   0.744   0.081   4.001
  144OSM   H17F15815   0.835   0.099   4.062
  144OSM   H17G15816   0.736   6.750   3.976
  144OSM   C18F15817   0.626   0.133   4.092
  144OSM   H18F15818   0.631   0.088   4.194
  144OSM   H18G15819   0.525   0.119   4.049
  144OSM   H18H15820   0.636   0.242   4.106
  145SAPE     N15821   0.364   0.947   6.396
  145SAPE   HN115822   0.292   0.886   6.441
  145SAPE   HN215823   0.417   0.992   6.473
  145SAPE   HN315824   0.315   1.019   6.339
  145SAPE   C1215825   0.449   0.848   6.318
  145SAPE  H12A15826   0.476   0.772   6.394
  145SAPE  H12B15827   0.540   0.898   6.278
  145SAPE   C1115828   0.372   0.780   6.204
  145SAPE  H11A15829   0.445   0.733   6.135
  145SAPE  H11B15830   0.336   0.862   6.139
  145SAPE     P15831   0.279   0.549   6.251
  145SAPE   O1315832   0.414   0.516   6.302
  145SAPE   O1415833   0.164   0.503   6.330
  145SAPE   O1215834   0.262   0.705   6.250
  145SAPE   O1115835   0.264   0.505   6.099
  145SAPE    C115836   0.144   0.554   6.034
  145SAPE    HA15837   0.054   0.498   6.066
  145SAPE    HB15838   0.109   0.655   6.065
  145SAPE    C215839   0.155   0.538   5.883
  145SAPE    HS15840   0.172   0.432   5.856
  145SAPE   O2115841   0.266   0.627   5.840
  145SAPE   C2115842   0.347   0.572   5.741
  145SAPE   O2215843   0.328   0.464   5.693
  145SAPE   C2215844   0.458   0.671   5.689
  145SAPE   H2R15845   0.395   0.737   5.626
  145SAPE   H2S15846   0.503   0.741   5.762
  145SAPE    C315847   0.027   0.582   5.803
  145SAPE    HX15848   6.772   0.683   5.838
  145SAPE    HY15849   6.718   0.521   5.836
  145SAPE   O3115850   0.037   0.574   5.659
  145SAPE   C3115851   0.070   0.684   5.598
  145SAPE   O3215852   0.072   0.797   5.646
  145SAPE   C3215853   0.115   0.645   5.461
  145SAPE   H2X15854   0.026   0.603   5.409
  145SAPE   H2Y15855   0.196   0.572   5.483
  145SAPE   C2315856   0.576   0.589   5.617
  145SAPE   H3R15857   0.537   0.497   5.567
  145SAPE   H3S15858   0.647   0.556   5.696
  145SAPE   C2415859   0.645   0.676   5.514
  145SAPE   H4R15860   0.655   0.769   5.573
  145SAPE   H4S15861   0.573   0.698   5.432
  145SAPE   C2515862   0.784   0.637   5.467
  145SAPE   H5R15863   0.858   0.606   5.543
  145SAPE   C2615864   0.830   0.640   5.341
  145SAPE   H6R15865   0.935   0.608   5.325
  145SAPE   C2715866   0.750   0.679   5.213
  145SAPE   H7R15867   0.649   0.717   5.241
  145SAPE   H7S15868   0.736   0.590   5.149
  145SAPE   C2815869   0.827   0.784   5.136
  145SAPE   H8R15870   0.881   0.854   5.201
  145SAPE   C2915871   0.853   0.787   4.999
  145SAPE   H9R15872   0.925   0.865   4.971
  145SAPE  C21015873   0.798   0.692   4.896
  145SAPE  H10R15874   0.704   0.641   4.925
  145SAPE  H10S15875   0.872   0.611   4.882
  145SAPE  C21115876   0.774   0.770   4.773
  145SAPE  H11R15877   0.687   0.837   4.771
  145SAPE  C21215878   0.844   0.767   4.661
  145SAPE  H12R15879   0.810   0.837   4.584
  145SAPE  C21315880   0.973   0.692   4.629
  145SAPE  H13R15881   0.961   0.589   4.668
  145SAPE  H13S15882   1.053   0.741   4.688
  145SAPE  C21415883   1.016   0.699   4.482
  145SAPE  H14R15884   0.959   0.637   4.411
  145SAPE  C21515885   1.110   0.780   4.430
  145SAPE  H15R15886   1.117   0.774   4.320
  145SAPE  C21615887   1.203   0.875   4.500
  145SAPE  H16R15888   1.303   0.849   4.458
  145SAPE  H16S15889   1.220   0.846   4.606
  145SAPE  C21715890   1.175   1.024   4.480
  145SAPE  H17R15891   1.178   1.052   4.372
  145SAPE  H17S15892   1.254   1.084   4.529
  145SAPE  C21815893   1.027   1.068   4.521
  145SAPE  H18R15894   1.025   1.075   4.632
  145SAPE  H18S15895   0.955   0.990   4.488
  145SAPE  C21915896   0.984   1.198   4.464
  145SAPE  H19R15897   0.882   1.232   4.492
  145SAPE  H19S15898   0.985   1.189   4.353
  145SAPE  C22015899   1.066   1.308   4.520
  145SAPE  H20R15900   1.173   1.278   4.511
  145SAPE  H20S15901   1.043   1.315   4.628
  145SAPE  H20T15902   1.052   1.413   4.487
  145SAPE   C3315903   0.144   0.756   5.361
  145SAPE   H3X15904   0.238   0.804   5.396
  145SAPE   H3Y15905   0.059   0.828   5.363
  145SAPE   C3415906   0.156   0.704   5.220
  145SAPE   H4X15907   0.146   0.790   5.150
  145SAPE   H4Y15908   0.065   0.643   5.202
  145SAPE   C3515909   0.284   0.630   5.189
  145SAPE   H5X15910   0.279   0.534   5.244
  145SAPE   H5Y15911   0.372   0.680   5.234
  145SAPE   C3615912   0.314   0.627   5.042
  145SAPE   H6X15913   0.422   0.602   5.030
  145SAPE   H6Y15914   0.297   0.723   4.988
  145SAPE   C3715915   0.237   0.529   4.959
  145SAPE   H7X15916   0.129   0.520   4.983
  145SAPE   H7Y15917   0.272   0.425   4.978
  145SAPE   C3815918   0.255   0.551   4.804
  145SAPE   H8X15919   0.362   0.546   4.777
  145SAPE   H8Y15920   0.216   0.655   4.797
  145SAPE   C3915921   0.188   0.452   4.700
  145SAPE   H9X15922   0.085   0.432   4.737
  145SAPE   H9Y15923   0.244   0.357   4.710
  145SAPE  C31015924   0.181   0.490   4.553
  145SAPE  H10X15925   0.284   0.520   4.522
  145SAPE  H10Y15926   0.119   0.581   4.544
  145SAPE  C31115927   0.130   0.380   4.452
  145SAPE  H11X15928   0.153   0.427   4.355
  145SAPE  H11Y15929   0.021   0.368   4.471
  145SAPE  C31215930   0.195   0.245   4.471
  145SAPE  H12X15931   0.159   0.194   4.563
  145SAPE  H12Y15932   0.301   0.277   4.483
  145SAPE  C31315933   0.165   0.155   4.351
  145SAPE  H13X15934   0.226   0.203   4.272
  145SAPE  H13Y15935   0.056   0.150   4.327
  145SAPE  C31415936   0.237   0.023   4.365
  145SAPE  H14X15937   0.172   6.726   4.417
  145SAPE  H14Y15938   0.329   0.022   4.427
  145SAPE  C31515939   0.262   6.736   4.223
  145SAPE  H15X15940   0.283   0.042   4.152
  145SAPE  H15Y15941   0.167   6.684   4.199
  145SAPE  C31615942   0.387   6.642   4.227
  145SAPE  H16X15943   0.366   6.562   4.302
  145SAPE  H16Y15944   0.470   6.702   4.270
  145SAPE  C31715945   0.424   6.579   4.084
  145SAPE  H17X15946   0.435   6.667   4.017
  145SAPE  H17Y15947   0.330   6.522   4.064
  145SAPE  C31815948   0.554   6.503   4.081
  145SAPE  H18X15949   0.580   6.471   3.978
  145SAPE  H18Y15950   0.547   6.415   4.148
  145SAPE  H18Z15951   0.639   6.572   4.101
  146SAPE     N15952   3.393   0.032   7.024
  146SAPE   HN115953   3.417   0.128   7.059
  146SAPE   HN215954   3.305   0.045   6.969
  146SAPE   HN315955   3.384   6.734   7.096
  146SAPE   C1215956   3.497   6.750   6.931
  146SAPE  H12A15957   3.457   6.662   6.875
  146SAPE  H12B15958   3.581   6.721   6.998
  146SAPE   C1115959   3.549   0.074   6.825
  146SAPE  H11A15960   3.640   0.034   6.777
  146SAPE  H11B15961   3.571   0.160   6.891
  146SAPE     P15962   3.489   0.206   6.613
  146SAPE   O1315963   3.381   0.221   6.512
  146SAPE   O1415964   3.540   0.329   6.686
  146SAPE   O1215965   3.449   0.106   6.726
  146SAPE   O1115966   3.620   0.134   6.548
  146SAPE    C115967   3.610   6.776   6.497
  146SAPE    HA15968   3.630   6.697   6.573
  146SAPE    HB15969   3.511   6.754   6.453
  146SAPE    C215970   3.716   6.753   6.380
  146SAPE    HS15971   3.814   6.740   6.430
  146SAPE   O2115972   3.699   0.096   6.302
  146SAPE   C2115973   3.775   0.200   6.325
  146SAPE   O2215974   3.867   0.196   6.405
  146SAPE   C2215975   3.729   0.310   6.244
  146SAPE   H2R15976   3.794   0.323   6.154
  146SAPE   H2S15977   3.629   0.298   6.199
  146SAPE    C315978   3.679   6.627   6.290
  146SAPE    HX15979   3.570   6.626   6.267
  146SAPE    HY15980   3.697   6.533   6.346
  146SAPE   O3115981   3.758   6.633   6.168
  146SAPE   C3115982   3.880   6.630   6.182
  146SAPE   O3215983   3.946   6.609   6.286
  146SAPE   C3215984   3.944   6.649   6.040
  146SAPE   H2X15985   3.906   6.747   6.004
  146SAPE   H2Y15986   3.906   6.570   5.971
  146SAPE   C2315987   3.743   0.458   6.303
  146SAPE   H3R15988   3.847   0.460   6.343
  146SAPE   H3S15989   3.666   0.457   6.383
  146SAPE   C2415990   3.710   0.568   6.198
  146SAPE   H4R15991   3.783   0.556   6.115
  146SAPE   H4S15992   3.744   0.657   6.255
  146SAPE   C2515993   3.568   0.560   6.152
  146SAPE   H5R15994   3.489   0.558   6.229
  146SAPE   C2615995   3.527   0.562   6.020
  146SAPE   H6R15996   3.420   0.555   5.999
  146SAPE   C2715997   3.616   0.576   5.897
  146SAPE   H7R15998   3.724   0.583   5.925
  146SAPE   H7S15999   3.588   0.672   5.850
  146SAPE   C2816000   3.594   0.469   5.793
  146SAPE   H8R16001   3.535   0.380   5.821
  146SAPE   C2916002   3.605   0.490   5.660
  146SAPE   H9R16003   3.580   0.403   5.597
  146SAPE  C21016004   3.659   0.605   5.582
  146SAPE  H10R16005   3.733   0.575   5.505
  146SAPE  H10S16006   3.721   0.659   5.657
  146SAPE  C21116007   3.560   0.695   5.518
  146SAPE  H11R16008   3.455   0.662   5.518
  146SAPE  C21216009   3.591   0.802   5.443
  146SAPE  H12R16010   3.504   0.868   5.426
  146SAPE  C21316011   3.727   0.864   5.408
  146SAPE  H13R16012   3.757   0.828   5.307
  146SAPE  H13S16013   3.814   0.828   5.466
  146SAPE  C21416014   3.726   1.007   5.433
  146SAPE  H14R16015   3.732   1.025   5.541
  146SAPE  C21516016   3.716   1.111   5.348
  146SAPE  H15R16017   3.741   1.213   5.383
  146SAPE  C21616018   3.700   1.105   5.197
  146SAPE  H16R16019   3.628   1.172   5.147
  146SAPE  H16S16020   3.656   1.008   5.167
  146SAPE  C21716021   3.825   1.128   5.113
  146SAPE  H17R16022   3.820   1.083   5.011
  146SAPE  H17S16023   3.906   1.066   5.157
  146SAPE  C21816024   3.874   1.273   5.119
  146SAPE  H18R16025   3.887   1.305   5.225
  146SAPE  H18S16026   3.790   1.336   5.084
  146SAPE  C21916027   3.999   1.317   5.041
  146SAPE  H19R16028   4.080   1.319   5.118
  146SAPE  H19S16029   3.995   1.423   5.008
  146SAPE  C22016030   4.033   1.245   4.915
  146SAPE  H20R16031   4.111   1.308   4.868
  146SAPE  H20S16032   3.944   1.232   4.849
  146SAPE  H20T16033   4.066   1.140   4.927
  146SAPE   C3316034   4.098   6.661   6.023
  146SAPE   H3X16035   4.144   6.694   6.119
  146SAPE   H3Y16036   4.126   6.737   5.947
  146SAPE   C3416037   4.178   6.539   5.969
  146SAPE   H4X16038   4.137   6.442   6.006
  146SAPE   H4Y16039   4.285   6.547   5.997
  146SAPE   C3516040   4.178   6.540   5.812
  146SAPE   H5X16041   4.203   6.641   5.773
  146SAPE   H5Y16042   4.077   6.515   5.773
  146SAPE   C3616043   4.259   6.428   5.756
  146SAPE   H6X16044   4.226   6.333   5.805
  146SAPE   H6Y16045   4.366   6.437   5.784
  146SAPE   C3716046   4.246   6.401   5.604
  146SAPE   H7X16047   4.267   6.499   5.556
  146SAPE   H7Y16048   4.145   6.366   5.574
  146SAPE   C3816049   4.352   6.305   5.548
  146SAPE   H8X16050   4.374   6.218   5.613
  146SAPE   H8Y16051   4.450   6.358   5.540
  146SAPE   C3916052   4.321   6.260   5.404
  146SAPE   H9X16053   4.222   6.209   5.402
  146SAPE   H9Y16054   4.404   6.193   5.372
  146SAPE  C31016055   4.302   6.377   5.305
  146SAPE  H10X16056   4.371   6.455   5.344
  146SAPE  H10Y16057   4.202   6.423   5.318
  146SAPE  C31116058   4.342   6.352   5.156
  146SAPE  H11X16059   4.264   6.279   5.127
  146SAPE  H11Y16060   4.438   6.297   5.146
  146SAPE  C31216061   4.327   6.469   5.063
  146SAPE  H12X16062   4.399   6.548   5.092
  146SAPE  H12Y16063   4.224   6.509   5.074
  146SAPE  C31316064   4.350   6.438   4.913
  146SAPE  H13X16065   4.262   6.373   4.893
  146SAPE  H13Y16066   4.446   6.384   4.897
  146SAPE  C31416067   4.341   6.565   4.825
  146SAPE  H14X16068   4.434   6.621   4.846
  146SAPE  H14Y16069   4.253   6.628   4.846
  146SAPE  C31516070   4.316   6.543   4.673
  146SAPE  H15X16071   4.335   6.644   4.630
  146SAPE  H15Y16072   4.210   6.511   4.667
  146SAPE  C31616073   4.395   6.423   4.615
  146SAPE  H16X16074   4.355   6.394   4.515
  146SAPE  H16Y16075   4.371   6.328   4.668
  146SAPE  C31716076   4.548   6.440   4.590
  146SAPE  H17X16077   4.584   6.346   4.543
  146SAPE  H17Y16078   4.609   6.461   4.681
  146SAPE  C31816079   4.595   6.560   4.504
  146SAPE  H18X16080   4.702   6.552   4.475
  146SAPE  H18Y16081   4.576   6.650   4.567
  146SAPE  H18Z16082   4.532   6.561   4.413
  147SAPE     N16083   4.033   5.638   7.251
  147SAPE   HN116084   4.128   5.606   7.225
  147SAPE   HN216085   4.036   5.734   7.291
  147SAPE   HN316086   3.985   5.572   7.316
  147SAPE   C1216087   3.955   5.651   7.123
  147SAPE  H12A16088   3.857   5.700   7.145
  147SAPE  H12B16089   3.935   5.546   7.094
  147SAPE   C1116090   4.034   5.719   7.013
  147SAPE  H11A16091   4.046   5.822   7.053
  147SAPE  H11B16092   3.965   5.730   6.926
  147SAPE     P16093   4.203   5.601   6.848
  147SAPE   O1316094   4.249   5.712   6.765
  147SAPE   O1416095   4.304   5.494   6.877
  147SAPE   O1216096   4.158   5.648   6.991
  147SAPE   O1116097   4.068   5.537   6.782
  147SAPE    C116098   4.065   5.400   6.748
  147SAPE    HA16099   4.082   5.336   6.838
  147SAPE    HB16100   3.962   5.375   6.717
  147SAPE    C216101   4.156   5.368   6.629
  147SAPE    HS16102   4.258   5.370   6.672
  147SAPE   O2116103   4.142   5.473   6.524
  147SAPE   C2116104   4.259   5.508   6.457
  147SAPE   O2216105   4.365   5.450   6.471
  147SAPE   C2216106   4.228   5.627   6.373
  147SAPE   H2R16107   4.143   5.602   6.306
  147SAPE   H2S16108   4.189   5.702   6.444
  147SAPE    C316109   4.125   5.228   6.576
  147SAPE    HX16110   4.017   5.219   6.553
  147SAPE    HY16111   4.157   5.150   6.649
  147SAPE   O3116112   4.192   5.203   6.450
  147SAPE   C3116113   4.310   5.148   6.459
  147SAPE   O3216114   4.372   5.121   6.562
  147SAPE   C3216115   4.339   5.098   6.317
  147SAPE   H2X16116   4.252   5.126   6.254
  147SAPE   H2Y16117   4.345   4.987   6.326
  147SAPE   C2316118   4.349   5.681   6.293
  147SAPE   H3R16119   4.434   5.702   6.360
  147SAPE   H3S16120   4.315   5.778   6.252
  147SAPE   C2416121   4.391   5.593   6.174
  147SAPE   H4R16122   4.304   5.580   6.106
  147SAPE   H4S16123   4.400   5.486   6.205
  147SAPE   C2516124   4.507   5.639   6.091
  147SAPE   H5R16125   4.603   5.658   6.141
  147SAPE   C2616126   4.499   5.669   5.964
  147SAPE   H6R16127   4.595   5.702   5.921
  147SAPE   C2716128   4.385   5.642   5.871
  147SAPE   H7R16129   4.291   5.685   5.913
  147SAPE   H7S16130   4.382   5.532   5.856
  147SAPE   C2816131   4.402   5.700   5.729
  147SAPE   H8R16132   4.370   5.805   5.721
  147SAPE   C2916133   4.471   5.645   5.622
  147SAPE   H9R16134   4.469   5.699   5.525
  147SAPE  C21016135   4.534   5.508   5.625
  147SAPE  H10R16136   4.464   5.441   5.570
  147SAPE  H10S16137   4.547   5.462   5.726
  147SAPE  C21116138   4.671   5.515   5.554
  147SAPE  H11R16139   4.754   5.563   5.608
  147SAPE  C21216140   4.692   5.472   5.428
  147SAPE  H12R16141   4.794   5.478   5.388
  147SAPE  C21316142   4.590   5.406   5.338
  147SAPE  H13R16143   4.549   5.316   5.389
  147SAPE  H13S16144   4.643   5.359   5.252
  147SAPE  C21416145   4.488   5.498   5.286
  147SAPE  H14R16146   4.484   5.590   5.346
  147SAPE  C21516147   4.412   5.485   5.175
  147SAPE  H15R16148   4.342   5.561   5.137
  147SAPE  C21616149   4.412   5.365   5.087
  147SAPE  H16R16150   4.310   5.319   5.088
  147SAPE  H16S16151   4.483   5.283   5.110
  147SAPE  C21716152   4.445   5.390   4.937
  147SAPE  H17R16153   4.443   5.289   4.892
  147SAPE  H17S16154   4.545   5.438   4.927
  147SAPE  C21816155   4.340   5.475   4.870
  147SAPE  H18R16156   4.340   5.582   4.899
  147SAPE  H18S16157   4.236   5.438   4.886
  147SAPE  C21916158   4.348   5.484   4.710
  147SAPE  H19R16159   4.450   5.517   4.679
  147SAPE  H19S16160   4.282   5.567   4.677
  147SAPE  C22016161   4.306   5.349   4.643
  147SAPE  H20R16162   4.398   5.288   4.630
  147SAPE  H20S16163   4.270   5.371   4.540
  147SAPE  H20T16164   4.218   5.296   4.685
  147SAPE   C3316165   4.465   5.135   6.241
  147SAPE   H3X16166   4.544   5.116   6.316
  147SAPE   H3Y16167   4.472   5.240   6.207
  147SAPE   C3416168   4.500   5.050   6.113
  147SAPE   H4X16169   4.473   4.943   6.114
  147SAPE   H4Y16170   4.602   5.072   6.075
  147SAPE   C3516171   4.416   5.121   6.003
  147SAPE   H5X16172   4.432   5.231   6.008
  147SAPE   H5Y16173   4.310   5.093   6.019
  147SAPE   C3616174   4.455   5.066   5.869
  147SAPE   H6X16175   4.437   4.957   5.869
  147SAPE   H6Y16176   4.562   5.081   5.846
  147SAPE   C3716177   4.357   5.123   5.762
  147SAPE   H7X16178   4.348   5.233   5.772
  147SAPE   H7Y16179   4.254   5.090   5.788
  147SAPE   C3816180   4.394   5.099   5.612
  147SAPE   H8X16181   4.394   4.991   5.587
  147SAPE   H8Y16182   4.498   5.133   5.594
  147SAPE   C3916183   4.288   5.164   5.520
  147SAPE   H9X16184   4.301   5.274   5.531
  147SAPE   H9Y16185   4.187   5.137   5.559
  147SAPE  C31016186   4.298   5.118   5.376
  147SAPE  H10X16187   4.316   5.008   5.366
  147SAPE  H10Y16188   4.389   5.168   5.335
  147SAPE  C31116189   4.184   5.167   5.287
  147SAPE  H11X16190   4.210   5.274   5.272
  147SAPE  H11Y16191   4.083   5.159   5.331
  147SAPE  C31216192   4.198   5.096   5.158
  147SAPE  H12X16193   4.193   4.988   5.183
  147SAPE  H12Y16194   4.295   5.115   5.106
  147SAPE  C31316195   4.086   5.143   5.060
  147SAPE  H13X16196   4.100   5.252   5.044
  147SAPE  H13Y16197   3.994   5.129   5.121
  147SAPE  C31416198   4.106   5.066   4.932
  147SAPE  H14X16199   4.119   4.958   4.953
  147SAPE  H14Y16200   4.196   5.097   4.874
  147SAPE  C31516201   3.978   5.079   4.848
  147SAPE  H15X16202   3.897   5.015   4.891
  147SAPE  H15Y16203   4.002   5.047   4.744
  147SAPE  C31616204   3.921   5.225   4.839
  147SAPE  H16X16205   4.005   5.289   4.807
  147SAPE  H16Y16206   3.895   5.253   4.943
  147SAPE  C31716207   3.804   5.261   4.740
  147SAPE  H17X16208   3.714   5.227   4.796
  147SAPE  H17Y16209   3.821   5.213   4.642
  147SAPE  C31816210   3.786   5.409   4.710
  147SAPE  H18X16211   3.681   5.437   4.686
  147SAPE  H18Y16212   3.851   5.448   4.629
  147SAPE  H18Z16213   3.804   5.466   4.803
  148SAPE     N16214   1.158   0.288   6.436
  148SAPE   HN116215   1.155   0.362   6.363
  148SAPE   HN216216   1.061   0.280   6.474
  148SAPE   HN316217   1.229   0.321   6.505
  148SAPE   C1216218   1.217   0.166   6.379
  148SAPE  H12A16219   1.325   0.165   6.404
  148SAPE  H12B16220   1.205   0.166   6.268
  148SAPE   C1116221   1.152   0.032   6.430
  148SAPE  H11A16222   1.193   6.725   6.370
  148SAPE  H11B16223   1.046   0.027   6.395
  148SAPE     P16224   1.309   6.752   6.630
  148SAPE   O1316225   1.395   0.099   6.644
  148SAPE   O1416226   1.290   6.681   6.760
  148SAPE   O1216227   1.159   0.004   6.572
  148SAPE   O1116228   1.385   6.662   6.528
  148SAPE    C116229   1.331   6.530   6.498
  148SAPE    HA16230   1.341   6.471   6.591
  148SAPE    HB16231   1.220   6.532   6.495
  148SAPE    C216232   1.385   6.466   6.366
  148SAPE    HS16233   1.495   6.474   6.363
  148SAPE   O2116234   1.319   6.533   6.255
  148SAPE   C2116235   1.399   6.575   6.159
  148SAPE   O2216236   1.518   6.563   6.150
  148SAPE   C2216237   1.317   6.656   6.065
  148SAPE   H2R16238   1.273   6.591   5.987
  148SAPE   H2S16239   1.235   6.709   6.118
  148SAPE    C316240   1.344   6.319   6.360
  148SAPE    HX16241   1.236   6.301   6.376
  148SAPE    HY16242   1.387   6.272   6.452
  148SAPE   O3116243   1.388   6.260   6.241
  148SAPE   C3116244   1.514   6.240   6.232
  148SAPE   O3216245   1.598   6.263   6.313
  148SAPE   C3216246   1.552   6.172   6.094
  148SAPE   H2X16247   1.560   6.064   6.121
  148SAPE   H2Y16248   1.654   6.204   6.064
  148SAPE   C2316249   1.410   6.752   5.980
  148SAPE   H3R16250   1.473   6.674   5.931
  148SAPE   H3S16251   1.476   0.043   6.038
  148SAPE   C2416252   1.332   0.061   5.883
  148SAPE   H4R16253   1.388   0.150   5.849
  148SAPE   H4S16254   1.244   0.100   5.938
  148SAPE   C2516255   1.289   6.751   5.768
  148SAPE   H5R16256   1.220   6.671   5.795
  148SAPE   C2616257   1.305   6.774   5.639
  148SAPE   H6R16258   1.261   6.698   5.575
  148SAPE   C2716259   1.387   0.111   5.581
  148SAPE   H7R16260   1.362   0.205   5.633
  148SAPE   H7S16261   1.349   0.121   5.477
  148SAPE   C2816262   1.540   0.090   5.577
  148SAPE   H8R16263   1.591   0.074   5.673
  148SAPE   C2916264   1.610   0.085   5.463
  148SAPE   H9R16265   1.714   0.050   5.466
  148SAPE  C21016266   1.563   0.096   5.323
  148SAPE  H10R16267   1.486   0.175   5.313
  148SAPE  H10S16268   1.528   6.769   5.302
  148SAPE  C21116269   1.679   0.119   5.229
  148SAPE  H11R16270   1.708   0.225   5.221
  148SAPE  C21216271   1.759   0.027   5.167
  148SAPE  H12R16272   1.846   0.065   5.113
  148SAPE  C21316273   1.731   6.658   5.170
  148SAPE  H13R16274   1.702   6.614   5.073
  148SAPE  H13S16275   1.654   6.630   5.245
  148SAPE  C21416276   1.857   6.576   5.217
  148SAPE  H14R16277   1.863   6.580   5.326
  148SAPE  C21516278   1.939   6.501   5.146
  148SAPE  H15R16279   2.029   6.464   5.197
  148SAPE  C21616280   1.944   6.487   4.997
  148SAPE  H16R16281   1.845   6.506   4.951
  148SAPE  H16S16282   1.981   6.387   4.965
  148SAPE  C21716283   2.042   6.579   4.923
  148SAPE  H17R16284   2.129   6.589   4.991
  148SAPE  H17S16285   2.000   6.680   4.904
  148SAPE  C21816286   2.090   6.526   4.791
  148SAPE  H18R16287   2.000   6.535   4.727
  148SAPE  H18S16288   2.127   6.422   4.804
  148SAPE  C21916289   2.193   6.617   4.727
  148SAPE  H19R16290   2.146   6.717   4.727
  148SAPE  H19S16291   2.207   6.589   4.620
  148SAPE  C22016292   2.330   6.625   4.788
  148SAPE  H20R16293   2.398   6.537   4.784
  148SAPE  H20S16294   2.328   6.655   4.895
  148SAPE  H20T16295   2.377   6.709   4.733
  148SAPE   C3316296   1.448   6.194   5.980
  148SAPE   H3X16297   1.348   6.223   6.018
  148SAPE   H3Y16298   1.441   6.104   5.915
  148SAPE   C3416299   1.499   6.306   5.883
  148SAPE   H4X16300   1.607   6.285   5.869
  148SAPE   H4Y16301   1.500   6.406   5.930
  148SAPE   C3516302   1.412   6.314   5.757
  148SAPE   H5X16303   1.307   6.333   5.788
  148SAPE   H5Y16304   1.409   6.217   5.702
  148SAPE   C3616305   1.468   6.425   5.666
  148SAPE   H6X16306   1.578   6.414   5.654
  148SAPE   H6Y16307   1.455   6.525   5.712
  148SAPE   C3716308   1.399   6.433   5.530
  148SAPE   H7X16309   1.413   6.535   5.488
  148SAPE   H7Y16310   1.295   6.397   5.541
  148SAPE   C3816311   1.447   6.330   5.423
  148SAPE   H8X16312   1.399   6.232   5.447
  148SAPE   H8Y16313   1.556   6.319   5.441
  148SAPE   C3916314   1.426   6.383   5.280
  148SAPE   H9X16315   1.508   6.452   5.252
  148SAPE   H9Y16316   1.330   6.431   5.252
  148SAPE  C31016317   1.450   6.266   5.178
  148SAPE  H10X16318   1.375   6.184   5.188
  148SAPE  H10Y16319   1.546   6.215   5.201
  148SAPE  C31116320   1.462   6.314   5.032
  148SAPE  H11X16321   1.526   6.404   5.024
  148SAPE  H11Y16322   1.362   6.339   4.991
  148SAPE  C31216323   1.520   6.219   4.929
  148SAPE  H12X16324   1.497   6.254   4.826
  148SAPE  H12Y16325   1.485   6.114   4.936
  148SAPE  C31316326   1.677   6.212   4.935
  148SAPE  H13X16327   1.723   6.152   5.017
  148SAPE  H13Y16328   1.720   6.312   4.956
  148SAPE  C31416329   1.741   6.174   4.799
  148SAPE  H14X16330   1.850   6.190   4.813
  148SAPE  H14Y16331   1.705   6.247   4.723
  148SAPE  C31516332   1.705   6.039   4.744
  148SAPE  H15X16333   1.598   6.021   4.723
  148SAPE  H15Y16334   1.732   5.965   4.822
  148SAPE  C31616335   1.771   6.010   4.607
  148SAPE  H16X16336   1.880   6.015   4.628
  148SAPE  H16Y16337   1.754   6.095   4.538
  148SAPE  C31716338   1.735   5.868   4.561
  148SAPE  H17X16339   1.626   5.852   4.555
  148SAPE  H17Y16340   1.786   5.804   4.636
  148SAPE  C31816341   1.798   5.840   4.423
  148SAPE  H18X16342   1.742   5.894   4.344
  148SAPE  H18Y16343   1.809   5.732   4.402
  148SAPE  H18Z16344   1.901   5.882   4.413
  149SAPE     N16345   1.143   1.984   6.661
  149SAPE   HN116346   1.122   1.913   6.734
  149SAPE   HN216347   1.152   2.075   6.712
  149SAPE   HN316348   1.051   1.993   6.615
  149SAPE   C1216349   1.255   1.942   6.570
  149SAPE  H12A16350   1.353   1.980   6.608
  149SAPE  H12B16351   1.239   1.991   6.472
  149SAPE   C1116352   1.265   1.787   6.555
  149SAPE  H11A16353   1.352   1.762   6.491
  149SAPE  H11B16354   1.166   1.750   6.520
  149SAPE     P16355   1.302   1.579   6.710
  149SAPE   O1316356   1.447   1.574   6.720
  149SAPE   O1416357   1.222   1.527   6.821
  149SAPE   O1216358   1.260   1.731   6.684
  149SAPE   O1116359   1.254   1.512   6.572
  149SAPE    C116360   1.124   1.455   6.562
  149SAPE    HA16361   1.122   1.367   6.630
  149SAPE    HB16362   1.052   1.528   6.605
  149SAPE    C216363   1.082   1.416   6.421
  149SAPE    HS16364   1.030   1.318   6.430
  149SAPE   O2116365   1.201   1.400   6.335
  149SAPE   C2116366   1.263   1.282   6.351
  149SAPE   O2216367   1.227   1.193   6.426
  149SAPE   C2216368   1.378   1.275   6.256
  149SAPE   H2R16369   1.335   1.302   6.157
  149SAPE   H2S16370   1.447   1.362   6.263
  149SAPE    C316371   0.994   1.527   6.360
  149SAPE    HX16372   1.049   1.623   6.348
  149SAPE    HY16373   0.910   1.551   6.429
  149SAPE   O3116374   0.929   1.477   6.238
  149SAPE   C3116375   0.928   1.556   6.130
  149SAPE   O3216376   0.975   1.670   6.126
  149SAPE   C3216377   0.846   1.490   6.020
  149SAPE   H2X16378   0.744   1.535   6.022
  149SAPE   H2Y16379   0.839   1.379   6.030
  149SAPE   C2316380   1.457   1.144   6.248
  149SAPE   H3R16381   1.381   1.064   6.252
  149SAPE   H3S16382   1.526   1.146   6.335
  149SAPE   C2416383   1.537   1.139   6.121
  149SAPE   H4R16384   1.615   1.218   6.126
  149SAPE   H4S16385   1.470   1.176   6.041
  149SAPE   C2516386   1.601   1.004   6.085
  149SAPE   H5R16387   1.664   0.963   6.166
  149SAPE   C2616388   1.592   0.944   5.963
  149SAPE   H6R16389   1.642   0.848   5.941
  149SAPE   C2716390   1.514   1.007   5.847
  149SAPE   H7R16391   1.551   1.110   5.827
  149SAPE   H7S16392   1.406   1.008   5.873
  149SAPE   C2816393   1.508   0.923   5.721
  149SAPE   H8R16394   1.482   0.817   5.739
  149SAPE   C2916395   1.550   0.962   5.600
  149SAPE   H9R16396   1.529   0.895   5.515
  149SAPE  C21016397   1.599   1.093   5.543
  149SAPE  H10R16398   1.541   1.168   5.601
  149SAPE  H10S16399   1.562   1.094   5.439
  149SAPE  C21116400   1.745   1.125   5.546
  149SAPE  H11R16401   1.812   1.074   5.618
  149SAPE  C21216402   1.805   1.201   5.452
  149SAPE  H12R16403   1.914   1.214   5.464
  149SAPE  C21316404   1.737   1.281   5.345
  149SAPE  H13R16405   1.795   1.372   5.319
  149SAPE  H13S16406   1.641   1.327   5.376
  149SAPE  C21416407   1.721   1.189   5.223
  149SAPE  H14R16408   1.709   1.085   5.255
  149SAPE  C21516409   1.735   1.230   5.097
  149SAPE  H15R16410   1.749   1.152   5.021
  149SAPE  C21616411   1.758   1.365   5.036
  149SAPE  H16R16412   1.755   1.445   5.113
  149SAPE  H16S16413   1.688   1.381   4.951
  149SAPE  C21716414   1.901   1.355   4.971
  149SAPE  H17R16415   1.903   1.434   4.892
  149SAPE  H17S16416   1.921   1.254   4.930
  149SAPE  C21816417   2.020   1.395   5.068
  149SAPE  H18R16418   2.115   1.377   5.013
  149SAPE  H18S16419   2.005   1.331   5.157
  149SAPE  C21916420   2.029   1.545   5.116
  149SAPE  H19R16421   1.944   1.546   5.187
  149SAPE  H19S16422   2.010   1.615   5.032
  149SAPE  C22016423   2.168   1.593   5.176
  149SAPE  H20R16424   2.146   1.680   5.242
  149SAPE  H20S16425   2.242   1.632   5.103
  149SAPE  H20T16426   2.219   1.507   5.225
  149SAPE   C3316427   0.896   1.525   5.879
  149SAPE   H3X16428   0.992   1.470   5.866
  149SAPE   H3Y16429   0.907   1.636   5.872
  149SAPE   C3416430   0.811   1.472   5.764
  149SAPE   H4X16431   0.704   1.502   5.765
  149SAPE   H4Y16432   0.817   1.362   5.774
  149SAPE   C3516433   0.855   1.506   5.619
  149SAPE   H5X16434   0.957   1.465   5.603
  149SAPE   H5Y16435   0.863   1.616   5.606
  149SAPE   C3616436   0.749   1.443   5.530
  149SAPE   H6X16437   0.643   1.453   5.562
  149SAPE   H6Y16438   0.768   1.335   5.543
  149SAPE   C3716439   0.765   1.490   5.385
  149SAPE   H7X16440   0.793   1.597   5.381
  149SAPE   H7Y16441   0.666   1.482   5.335
  149SAPE   C3816442   0.849   1.389   5.303
  149SAPE   H8X16443   0.805   1.287   5.300
  149SAPE   H8Y16444   0.944   1.379   5.359
  149SAPE   C3916445   0.893   1.432   5.162
  149SAPE   H9X16446   0.910   1.541   5.176
  149SAPE   H9Y16447   0.812   1.433   5.086
  149SAPE  C31016448   1.026   1.376   5.111
  149SAPE  H10X16449   1.017   1.266   5.096
  149SAPE  H10Y16450   1.113   1.391   5.178
  149SAPE  C31116451   1.056   1.428   4.974
  149SAPE  H11X16452   1.083   1.535   4.983
  149SAPE  H11Y16453   0.972   1.408   4.903
  149SAPE  C31216454   1.179   1.354   4.911
  149SAPE  H12X16455   1.152   1.262   4.855
  149SAPE  H12Y16456   1.250   1.318   4.989
  149SAPE  C31316457   1.268   1.434   4.806
  149SAPE  H13X16458   1.316   1.518   4.862
  149SAPE  H13Y16459   1.210   1.480   4.723
  149SAPE  C31416460   1.378   1.351   4.744
  149SAPE  H14X16461   1.336   1.275   4.674
  149SAPE  H14Y16462   1.432   1.296   4.823
  149SAPE  C31516463   1.472   1.430   4.660
  149SAPE  H15X16464   1.553   1.356   4.642
  149SAPE  H15Y16465   1.521   1.510   4.718
  149SAPE  C31616466   1.426   1.489   4.523
  149SAPE  H16X16467   1.327   1.539   4.529
  149SAPE  H16Y16468   1.422   1.411   4.443
  149SAPE  C31716469   1.516   1.606   4.467
  149SAPE  H17X16470   1.490   1.615   4.360
  149SAPE  H17Y16471   1.625   1.596   4.486
  149SAPE  C31816472   1.478   1.739   4.529
  149SAPE  H18X16473   1.379   1.766   4.486
  149SAPE  H18Y16474   1.545   1.819   4.490
  149SAPE  H18Z16475   1.464   1.743   4.639
  150SAPE     N16476   4.239   3.206   6.774
  150SAPE   HN116477   4.276   3.303   6.766
  150SAPE   HN216478   4.285   3.133   6.716
  150SAPE   HN316479   4.138   3.198   6.753
  150SAPE   C1216480   4.269   3.176   6.920
  150SAPE  H12A16481   4.234   3.265   6.976
  150SAPE  H12B16482   4.380   3.171   6.921
  150SAPE   C1116483   4.217   3.046   6.966
  150SAPE  H11A16484   4.108   3.042   6.944
  150SAPE  H11B16485   4.240   3.036   7.075
  150SAPE     P16486   4.240   2.790   6.964
  150SAPE   O1316487   4.332   2.760   7.072
  150SAPE   O1416488   4.097   2.797   6.999
  150SAPE   O1216489   4.282   2.932   6.906
  150SAPE   O1116490   4.264   2.684   6.851
  150SAPE    C116491   4.268   2.732   6.713
  150SAPE    HA16492   4.166   2.771   6.690
  150SAPE    HB16493   4.336   2.818   6.698
  150SAPE    C216494   4.309   2.614   6.630
  150SAPE    HS16495   4.319   2.524   6.694
  150SAPE   O2116496   4.445   2.629   6.578
  150SAPE   C2116497   4.496   2.527   6.513
  150SAPE   O2216498   4.444   2.421   6.499
  150SAPE   C2216499   4.629   2.570   6.445
  150SAPE   H2R16500   4.698   2.582   6.531
  150SAPE   H2S16501   4.667   2.490   6.378
  150SAPE    C316502   4.193   2.572   6.518
  150SAPE    HX16503   4.098   2.582   6.574
  150SAPE    HY16504   4.198   2.465   6.489
  150SAPE   O3116505   4.201   2.664   6.402
  150SAPE   C3116506   4.111   2.630   6.305
  150SAPE   O3216507   4.020   2.551   6.315
  150SAPE   C3216508   4.143   2.715   6.182
  150SAPE   H2X16509   4.244   2.682   6.147
  150SAPE   H2Y16510   4.147   2.824   6.203
  150SAPE   C2316511   4.621   2.701   6.362
  150SAPE   H3R16512   4.721   2.734   6.327
  150SAPE   H3S16513   4.579   2.778   6.431
  150SAPE   C2416514   4.541   2.696   6.235
  150SAPE   H4R16515   4.439   2.669   6.268
  150SAPE   H4S16516   4.574   2.607   6.177
  150SAPE   C2516517   4.554   2.816   6.143
  150SAPE   H5R16518   4.583   2.908   6.196
  150SAPE   C2616519   4.518   2.808   6.011
  150SAPE   H6R16520   4.510   2.905   5.959
  150SAPE   C2716521   4.484   2.676   5.943
  150SAPE   H7R16522   4.382   2.688   5.901
  150SAPE   H7S16523   4.480   2.584   6.005
  150SAPE   C2816524   4.583   2.657   5.827
  150SAPE   H8R16525   4.688   2.638   5.853
  150SAPE   C2916526   4.562   2.694   5.700
  150SAPE   H9R16527   4.638   2.665   5.627
  150SAPE  C21016528   4.429   2.734   5.635
  150SAPE  H10R16529   4.338   2.722   5.698
  150SAPE  H10S16530   4.404   2.676   5.544
  150SAPE  C21116531   4.436   2.878   5.590
  150SAPE  H11R16532   4.417   2.947   5.674
  150SAPE  C21216533   4.472   2.936   5.479
  150SAPE  H12R16534   4.439   3.039   5.458
  150SAPE  C21316535   4.506   2.862   5.347
  150SAPE  H13R16536   4.534   2.755   5.362
  150SAPE  H13S16537   4.594   2.912   5.301
  150SAPE  C21416538   4.379   2.856   5.256
  150SAPE  H14R16539   4.293   2.812   5.310
  150SAPE  C21516540   4.359   2.912   5.137
  150SAPE  H15R16541   4.264   2.897   5.082
  150SAPE  C21616542   4.463   3.001   5.058
  150SAPE  H16R16543   4.567   2.972   5.085
  150SAPE  H16S16544   4.438   3.107   5.080
  150SAPE  C21716545   4.444   2.990   4.896
  150SAPE  H17R16546   4.489   3.079   4.848
  150SAPE  H17S16547   4.335   2.975   4.879
  150SAPE  C21816548   4.512   2.864   4.845
  150SAPE  H18R16549   4.461   2.771   4.875
  150SAPE  H18S16550   4.610   2.860   4.897
  150SAPE  C21916551   4.523   2.866   4.694
  150SAPE  H19R16552   4.424   2.865   4.644
  150SAPE  H19S16553   4.574   2.768   4.684
  150SAPE  C22016554   4.617   2.961   4.628
  150SAPE  H20R16555   4.716   2.971   4.676
  150SAPE  H20S16556   4.565   3.058   4.645
  150SAPE  H20T16557   4.632   2.941   4.520
  150SAPE   C3316558   4.034   2.692   6.076
  150SAPE   H3X16559   3.933   2.709   6.120
  150SAPE   H3Y16560   4.026   2.582   6.068
  150SAPE   C3416561   4.064   2.767   5.943
  150SAPE   H4X16562   4.174   2.759   5.928
  150SAPE   H4Y16563   4.047   2.876   5.960
  150SAPE   C3516564   3.966   2.722   5.833
  150SAPE   H5X16565   3.880   2.793   5.828
  150SAPE   H5Y16566   3.941   2.614   5.841
  150SAPE   C3616567   4.035   2.728   5.699
  150SAPE   H6X16568   4.103   2.641   5.694
  150SAPE   H6Y16569   4.096   2.819   5.682
  150SAPE   C3716570   3.935   2.724   5.583
  150SAPE   H7X16571   3.901   2.828   5.562
  150SAPE   H7Y16572   3.855   2.652   5.610
  150SAPE   C3816573   4.013   2.657   5.464
  150SAPE   H8X16574   4.015   2.546   5.467
  150SAPE   H8Y16575   4.117   2.692   5.477
  150SAPE   C3916576   3.972   2.720   5.328
  150SAPE   H9X16577   3.868   2.692   5.302
  150SAPE   H9Y16578   4.029   2.671   5.246
  150SAPE  C31016579   3.986   2.875   5.315
  150SAPE  H10X16580   4.059   2.918   5.387
  150SAPE  H10Y16581   3.895   2.917   5.364
  150SAPE  C31116582   3.998   2.940   5.178
  150SAPE  H11X16583   4.089   2.900   5.130
  150SAPE  H11Y16584   4.025   3.047   5.191
  150SAPE  C31216585   3.872   2.936   5.083
  150SAPE  H12X16586   3.776   2.966   5.131
  150SAPE  H12Y16587   3.861   2.834   5.040
  150SAPE  C31316588   3.890   3.042   4.973
  150SAPE  H13X16589   3.994   3.033   4.934
  150SAPE  H13Y16590   3.885   3.143   5.019
  150SAPE  C31416591   3.803   3.047   4.847
  150SAPE  H14X16592   3.832   3.132   4.782
  150SAPE  H14Y16593   3.699   3.061   4.883
  150SAPE  C31516594   3.810   2.912   4.772
  150SAPE  H15X16595   3.778   2.823   4.831
  150SAPE  H15Y16596   3.916   2.886   4.750
  150SAPE  C31616597   3.731   2.912   4.637
  150SAPE  H16X16598   3.769   2.829   4.573
  150SAPE  H16Y16599   3.755   3.005   4.581
  150SAPE  C31716600   3.580   2.891   4.654
  150SAPE  H17X16601   3.541   2.960   4.731
  150SAPE  H17Y16602   3.553   2.793   4.699
  150SAPE  C31816603   3.520   2.910   4.519
  150SAPE  H18X16604   3.586   2.977   4.459
  150SAPE  H18Y16605   3.419   2.954   4.529
  150SAPE  H18Z16606   3.523   2.811   4.469
  151SAPE     N16607   4.765   0.645   6.998
  151SAPE   HN116608   4.774   0.748   6.999
  151SAPE   HN216609   4.743   0.601   7.090
  151SAPE   HN316610   4.858   0.612   6.963
  151SAPE   C1216611   4.655   0.609   6.903
  151SAPE  H12A16612   4.700   0.599   6.802
  151SAPE  H12B16613   4.578   0.689   6.911
  151SAPE   C1116614   4.597   0.475   6.928
  151SAPE  H11A16615   4.539   0.455   6.835
  151SAPE  H11B16616   4.521   0.493   7.006
  151SAPE     P16617   4.613   0.222   6.965
  151SAPE   O1316618   4.706   0.116   7.015
  151SAPE   O1416619   4.487   0.234   7.039
  151SAPE   O1216620   4.683   0.361   6.964
  151SAPE   O1116621   4.570   0.201   6.814
  151SAPE    C116622   4.655   0.243   6.707
  151SAPE    HA16623   4.660   0.354   6.699
  151SAPE    HB16624   4.761   0.209   6.714
  151SAPE    C216625   4.606   0.172   6.566
  151SAPE    HS16626   4.686   0.191   6.492
  151SAPE   O2116627   4.483   0.223   6.525
  151SAPE   C2116628   4.468   0.347   6.481
  151SAPE   O2216629   4.558   0.427   6.469
  151SAPE   C2216630   4.319   0.372   6.445
  151SAPE   H2R16631   4.250   0.369   6.532
  151SAPE   H2S16632   4.308   0.475   6.405
  151SAPE    C316633   4.583   0.020   6.583
  151SAPE    HX16634   4.509   0.009   6.665
  151SAPE    HY16635   4.676   6.747   6.619
  151SAPE   O3116636   4.533   6.752   6.458
  151SAPE   C3116637   4.512   6.618   6.463
  151SAPE   O3216638   4.557   6.544   6.551
  151SAPE   C3216639   4.446   6.572   6.333
  151SAPE   H2X16640   4.342   6.606   6.314
  151SAPE   H2Y16641   4.438   6.461   6.338
  151SAPE   C2316642   4.279   0.272   6.323
  151SAPE   H3R16643   4.276   0.169   6.362
  151SAPE   H3S16644   4.353   0.267   6.241
  151SAPE   C2416645   4.152   0.333   6.260
  151SAPE   H4R16646   4.171   0.433   6.214
  151SAPE   H4S16647   4.077   0.357   6.339
  151SAPE   C2516648   4.105   0.230   6.160
  151SAPE   H5R16649   4.112   0.124   6.190
  151SAPE   C2616650   4.073   0.245   6.029
  151SAPE   H6R16651   4.046   0.158   5.968
  151SAPE   C2716652   4.067   0.377   5.959
  151SAPE   H7R16653   4.173   0.393   5.932
  151SAPE   H7S16654   4.037   0.465   6.020
  151SAPE   C2816655   3.977   0.387   5.836
  151SAPE   H8R16656   3.875   0.417   5.864
  151SAPE   C2916657   3.998   0.331   5.717
  151SAPE   H9R16658   3.916   0.352   5.647
  151SAPE  C21016659   4.124   0.266   5.653
  151SAPE  H10R16660   4.104   0.219   5.554
  151SAPE  H10S16661   4.179   0.190   5.712
  151SAPE  C21116662   4.220   0.378   5.613
  151SAPE  H11R16663   4.297   0.402   5.687
  151SAPE  C21216664   4.220   0.450   5.503
  151SAPE  H12R16665   4.287   0.537   5.491
  151SAPE  C21316666   4.123   0.439   5.384
  151SAPE  H13R16667   4.107   0.333   5.353
  151SAPE  H13S16668   4.183   0.491   5.307
  151SAPE  C21416669   3.997   0.517   5.402
  151SAPE  H14R16670   3.965   0.543   5.504
  151SAPE  C21516671   3.922   0.553   5.298
  151SAPE  H15R16672   3.838   0.622   5.316
  151SAPE  C21616673   3.958   0.530   5.155
  151SAPE  H16R16674   3.932   0.423   5.140
  151SAPE  H16S16675   4.066   0.525   5.132
  151SAPE  C21716676   3.893   0.626   5.052
  151SAPE  H17R16677   3.949   0.603   4.959
  151SAPE  H17S16678   3.906   0.728   5.094
  151SAPE  C21816679   3.744   0.609   5.035
  151SAPE  H18R16680   3.694   0.587   5.132
  151SAPE  H18S16681   3.732   0.520   4.971
  151SAPE  C21916682   3.686   0.733   4.965
  151SAPE  H19R16683   3.732   0.738   4.864
  151SAPE  H19S16684   3.723   0.824   5.017
  151SAPE  C22016685   3.534   0.725   4.941
  151SAPE  H20R16686   3.514   0.653   4.859
  151SAPE  H20S16687   3.497   0.824   4.904
  151SAPE  H20T16688   3.479   0.704   5.035
  151SAPE   C3316689   4.530   6.626   6.211
  151SAPE   H3X16690   4.502   6.547   6.138
  151SAPE   H3Y16691   4.638   6.619   6.235
  151SAPE   C3416692   4.478   6.759   6.161
  151SAPE   H4X16693   4.507   0.059   6.236
  151SAPE   H4Y16694   4.368   6.764   6.151
  151SAPE   C3516695   4.527   0.022   6.020
  151SAPE   H5X16696   4.496   6.717   5.951
  151SAPE   H5Y16697   4.638   0.021   6.020
  151SAPE   C3616698   4.473   0.152   5.978
  151SAPE   H6X16699   4.518   0.229   6.044
  151SAPE   H6Y16700   4.362   0.161   5.981
  151SAPE   C3716701   4.505   0.178   5.828
  151SAPE   H7X16702   4.615   0.190   5.816
  151SAPE   H7Y16703   4.466   0.281   5.813
  151SAPE   C3816704   4.454   0.076   5.726
  151SAPE   H8X16705   4.348   0.059   5.755
  151SAPE   H8Y16706   4.494   6.750   5.746
  151SAPE   C3916707   4.470   0.110   5.577
  151SAPE   H9X16708   4.577   0.119   5.550
  151SAPE   H9Y16709   4.421   0.206   5.550
  151SAPE  C31016710   4.407   6.770   5.493
  151SAPE  H10X16711   4.301   6.773   5.527
  151SAPE  H10Y16712   4.455   6.675   5.524
  151SAPE  C31116713   4.433   6.772   5.343
  151SAPE  H11X16714   4.445   6.672   5.297
  151SAPE  H11Y16715   4.530   0.049   5.333
  151SAPE  C31216716   4.319   0.060   5.262
  151SAPE  H12X16717   4.311   0.165   5.299
  151SAPE  H12Y16718   4.224   0.013   5.297
  151SAPE  C31316719   4.338   0.062   5.111
  151SAPE  H13X16720   4.357   6.743   5.058
  151SAPE  H13Y16721   4.431   0.122   5.098
  151SAPE  C31416722   4.214   0.119   5.043
  151SAPE  H14X16723   4.195   0.208   5.106
  151SAPE  H14Y16724   4.132   0.045   5.051
  151SAPE  C31516725   4.233   0.167   4.895
  151SAPE  H15X16726   4.253   0.074   4.837
  151SAPE  H15Y16727   4.322   0.230   4.876
  151SAPE  C31616728   4.103   0.217   4.831
  151SAPE  H16X16729   4.094   0.323   4.861
  151SAPE  H16Y16730   4.015   0.161   4.870
  151SAPE  C31716731   4.115   0.200   4.683
  151SAPE  H17X16732   4.127   0.091   4.663
  151SAPE  H17Y16733   4.206   0.254   4.649
  151SAPE  C31816734   3.988   0.250   4.602
  151SAPE  H18X16735   4.014   0.253   4.494
  151SAPE  H18Y16736   3.962   0.355   4.625
  151SAPE  H18Z16737   3.900   0.190   4.634
  152SAPE     N16738   6.324   2.312   6.676
  152SAPE   HN116739   6.337   2.209   6.689
  152SAPE   HN216740   6.409   2.366   6.701
  152SAPE   HN316741   6.240   2.349   6.724
  152SAPE   C1216742   6.306   2.314   6.532
  152SAPE  H12A16743   6.400   2.350   6.486
  152SAPE  H12B16744   6.217   2.373   6.501
  152SAPE   C1116745   6.283   2.175   6.484
  152SAPE  H11A16746   6.266   2.187   6.375
  152SAPE  H11B16747   6.185   2.134   6.518
  152SAPE     P16748   6.413   1.953   6.446
  152SAPE   O1316749   6.547   1.909   6.488
  152SAPE   O1416750   6.299   1.871   6.487
  152SAPE   O1216751   6.393   2.092   6.514
  152SAPE   O1116752   6.399   1.987   6.292
  152SAPE    C116753   6.512   2.056   6.240
  152SAPE    HA16754   6.497   2.161   6.272
  152SAPE    HB16755   6.612   2.017   6.270
  152SAPE    C216756   6.505   2.073   6.086
  152SAPE    HS16757   6.402   2.102   6.056
  152SAPE   O2116758   6.551   1.964   6.014
  152SAPE   C2116759   6.466   1.884   5.960
  152SAPE   O2216760   6.347   1.880   5.973
  152SAPE   C2216761   6.540   1.796   5.860
  152SAPE   H2R16762   6.643   1.835   5.843
  152SAPE   H2S16763   6.541   1.699   5.914
  152SAPE    C316764   6.598   2.200   6.050
  152SAPE    HX16765   6.683   2.184   6.119
  152SAPE    HY16766   6.552   2.296   6.081
  152SAPE   O3116767   6.636   2.207   5.910
  152SAPE   C3116768   6.541   2.253   5.826
  152SAPE   O3216769   6.427   2.281   5.864
  152SAPE   C3216770   6.596   2.292   5.688
  152SAPE   H2X16771   6.591   2.194   5.635
  152SAPE   H2Y16772   6.697   2.336   5.674
  152SAPE   C2316773   6.460   1.767   5.727
  152SAPE   H3R16774   6.415   1.859   5.683
  152SAPE   H3S16775   6.371   1.713   5.764
  152SAPE   C2416776   6.537   1.692   5.624
  152SAPE   H4R16777   6.457   1.648   5.562
  152SAPE   H4S16778   6.592   1.598   5.647
  152SAPE   C2516779   6.618   1.782   5.533
  152SAPE   H5R16780   6.719   1.813   5.564
  152SAPE   C2616781   6.591   1.824   5.408
  152SAPE   H6R16782   6.665   1.890   5.359
  152SAPE   C2716783   6.466   1.806   5.336
  152SAPE   H7R16784   6.372   1.787   5.392
  152SAPE   H7S16785   6.471   1.717   5.270
  152SAPE   C2816786   6.447   1.945   5.268
  152SAPE   H8R16787   6.470   2.038   5.321
  152SAPE   C2916788   6.419   1.958   5.140
  152SAPE   H9R16789   6.420   2.059   5.097
  152SAPE  C21016790   6.395   1.845   5.041
  152SAPE  H10R16791   6.291   1.811   5.063
  152SAPE  H10S16792   6.466   1.761   5.062
  152SAPE  C21116793   6.420   1.865   4.897
  152SAPE  H11R16794   6.374   1.954   4.852
  152SAPE  C21216795   6.506   1.798   4.814
  152SAPE  H12R16796   6.510   1.826   4.707
  152SAPE  C21316797   6.589   1.676   4.851
  152SAPE  H13R16798   6.559   1.596   4.780
  152SAPE  H13S16799   6.569   1.642   4.954
  152SAPE  C21416800   6.735   1.710   4.844
  152SAPE  H14R16801   0.003   1.808   4.866
  152SAPE  C21516802   0.055   1.620   4.814
  152SAPE  H15R16803   0.160   1.653   4.810
  152SAPE  C21616804   0.030   1.472   4.785
  152SAPE  H16R16805   6.700   1.444   4.796
  152SAPE  H16S16806   0.089   1.407   4.852
  152SAPE  C21716807   0.059   1.431   4.644
  152SAPE  H17R16808   6.767   1.476   4.569
  152SAPE  H17S16809   0.031   1.323   4.645
  152SAPE  C21816810   0.207   1.442   4.590
  152SAPE  H18R16811   0.290   1.430   4.663
  152SAPE  H18S16812   0.225   1.543   4.546
  152SAPE  C21916813   0.234   1.348   4.476
  152SAPE  H19R16814   0.250   1.245   4.515
  152SAPE  H19S16815   0.324   1.375   4.418
  152SAPE  C22016816   0.124   1.342   4.368
  152SAPE  H20R16817   0.026   1.317   4.413
  152SAPE  H20S16818   0.154   1.266   4.293
  152SAPE  H20T16819   0.098   1.439   4.319
  152SAPE   C3316820   6.504   2.387   5.619
  152SAPE   H3X16821   6.480   2.466   5.693
  152SAPE   H3Y16822   6.406   2.339   5.601
  152SAPE   C3416823   6.560   2.422   5.479
  152SAPE   H4X16824   6.571   2.328   5.421
  152SAPE   H4Y16825   6.662   2.466   5.487
  152SAPE   C3516826   6.479   2.517   5.392
  152SAPE   H5X16827   6.502   2.625   5.409
  152SAPE   H5Y16828   6.369   2.501   5.398
  152SAPE   C3616829   6.526   2.490   5.252
  152SAPE   H6X16830   6.632   2.456   5.249
  152SAPE   H6Y16831   6.503   2.580   5.190
  152SAPE   C3716832   6.434   2.380   5.190
  152SAPE   H7X16833   6.327   2.403   5.205
  152SAPE   H7Y16834   6.466   2.283   5.235
  152SAPE   C3816835   6.430   2.364   5.036
  152SAPE   H8X16836   6.360   2.281   5.015
  152SAPE   H8Y16837   6.532   2.326   5.015
  152SAPE   C3916838   6.382   2.483   4.948
  152SAPE   H9X16839   6.464   2.556   4.966
  152SAPE   H9Y16840   6.289   2.527   4.990
  152SAPE  C31016841   6.378   2.452   4.803
  152SAPE  H10X16842   6.315   2.361   4.794
  152SAPE  H10Y16843   6.481   2.424   4.771
  152SAPE  C31116844   6.330   2.573   4.714
  152SAPE  H11X16845   6.404   2.653   4.735
  152SAPE  H11Y16846   6.227   2.594   4.752
  152SAPE  C31216847   6.326   2.541   4.563
  152SAPE  H12X16848   6.275   2.447   4.532
  152SAPE  H12Y16849   6.427   2.527   4.518
  152SAPE  C31316850   6.253   2.653   4.491
  152SAPE  H13X16851   6.292   2.750   4.529
  152SAPE  H13Y16852   6.144   2.665   4.512
  152SAPE  C31416853   6.275   2.665   4.336
  152SAPE  H14X16854   6.188   2.704   4.278
  152SAPE  H14Y16855   6.285   2.562   4.294
  152SAPE  C31516856   6.402   2.748   4.294
  152SAPE  H15X16857   6.471   2.728   4.379
  152SAPE  H15Y16858   6.371   2.855   4.286
  152SAPE  C31616859   6.472   2.691   4.171
  152SAPE  H16X16860   6.402   2.657   4.092
  152SAPE  H16Y16861   6.549   2.616   4.201
  152SAPE  C31716862   6.549   2.809   4.104
  152SAPE  H17X16863   6.474   2.884   4.069
  152SAPE  H17Y16864   6.615   2.769   4.024
  152SAPE  C31816865   6.648   2.882   4.194
  152SAPE  H18X16866   6.736   2.818   4.214
  152SAPE  H18Y16867   6.614   2.892   4.300
  152SAPE  H18Z16868   6.666   2.987   4.163
  153SAPE     N16869   6.130   1.864   6.203
  153SAPE   HN116870   6.137   1.804   6.117
  153SAPE   HN216871   6.218   1.919   6.214
  153SAPE   HN316872   6.111   1.808   6.288
  153SAPE   C1216873   6.023   1.967   6.195
  153SAPE  H12A16874   6.063   2.041   6.123
  153SAPE  H12B16875   6.013   2.019   6.292
  153SAPE   C1116876   5.900   1.896   6.135
  153SAPE  H11A16877   5.933   1.863   6.034
  153SAPE  H11B16878   5.824   1.977   6.131
  153SAPE     P16879   5.740   1.795   6.322
  153SAPE   O1316880   5.732   1.662   6.391
  153SAPE   O1416881   5.774   1.908   6.408
  153SAPE   O1216882   5.852   1.786   6.209
  153SAPE   O1116883   5.618   1.810   6.223
  153SAPE    C116884   5.561   1.706   6.142
  153SAPE    HA16885   5.591   1.603   6.170
  153SAPE    HB16886   5.451   1.717   6.150
  153SAPE    C216887   5.601   1.721   5.989
  153SAPE    HS16888   5.711   1.733   5.988
  153SAPE   O2116889   5.529   1.832   5.930
  153SAPE   C2116890   5.610   1.900   5.848
  153SAPE   O2216891   5.718   1.865   5.810
  153SAPE   C2216892   5.532   2.022   5.810
  153SAPE   H2R16893   5.437   1.980   5.769
  153SAPE   H2S16894   5.503   2.081   5.899
  153SAPE    C316895   5.576   1.585   5.912
  153SAPE    HX16896   5.465   1.572   5.913
  153SAPE    HY16897   5.624   1.505   5.972
  153SAPE   O3116898   5.600   1.587   5.771
  153SAPE   C3116899   5.722   1.541   5.730
  153SAPE   O3216900   5.802   1.495   5.805
  153SAPE   C3216901   5.738   1.567   5.580
  153SAPE   H2X16902   5.838   1.534   5.544
  153SAPE   H2Y16903   5.725   1.676   5.567
  153SAPE   C2316904   5.598   2.105   5.700
  153SAPE   H3R16905   5.610   2.050   5.604
  153SAPE   H3S16906   5.703   2.123   5.733
  153SAPE   C2416907   5.514   2.240   5.671
  153SAPE   H4R16908   5.561   2.292   5.585
  153SAPE   H4S16909   5.522   2.307   5.759
  153SAPE   C2516910   5.371   2.208   5.632
  153SAPE   H5R16911   5.313   2.185   5.722
  153SAPE   C2616912   5.310   2.221   5.517
  153SAPE   H6R16913   5.201   2.206   5.505
  153SAPE   C2716914   5.374   2.270   5.392
  153SAPE   H7R16915   5.376   2.188   5.317
  153SAPE   H7S16916   5.481   2.296   5.409
  153SAPE   C2816917   5.317   2.384   5.315
  153SAPE   H8R16918   5.294   2.474   5.374
  153SAPE   C2916919   5.271   2.383   5.189
  153SAPE   H9R16920   5.226   2.478   5.157
  153SAPE  C21016921   5.268   2.269   5.086
  153SAPE  H10R16922   5.169   2.255   5.037
  153SAPE  H10S16923   5.286   2.167   5.126
  153SAPE  C21116924   5.368   2.292   4.981
  153SAPE  H11R16925   5.463   2.238   4.993
  153SAPE  C21216926   5.363   2.372   4.867
  153SAPE  H12R16927   5.448   2.379   4.798
  153SAPE  C21316928   5.253   2.470   4.836
  153SAPE  H13R16929   5.295   2.570   4.861
  153SAPE  H13S16930   5.163   2.453   4.900
  153SAPE  C21416931   5.219   2.468   4.684
  153SAPE  H14R16932   5.111   2.459   4.662
  153SAPE  C21516933   5.301   2.519   4.587
  153SAPE  H15R16934   5.278   2.527   4.480
  153SAPE  C21616935   5.440   2.570   4.617
  153SAPE  H16R16936   5.512   2.496   4.576
  153SAPE  H16S16937   5.462   2.597   4.722
  153SAPE  C21716938   5.463   2.699   4.532
  153SAPE  H17R16939   5.394   2.780   4.562
  153SAPE  H17S16940   5.446   2.688   4.422
  153SAPE  C21816941   5.604   2.749   4.549
  153SAPE  H18R16942   5.671   2.661   4.534
  153SAPE  H18S16943   5.608   2.783   4.655
  153SAPE  C21916944   5.638   2.871   4.460
  153SAPE  H19R16945   5.580   2.965   4.474
  153SAPE  H19S16946   5.609   2.838   4.358
  153SAPE  C22016947   5.782   2.909   4.462
  153SAPE  H20R16948   5.809   2.942   4.564
  153SAPE  H20S16949   5.791   2.993   4.390
  153SAPE  H20T16950   5.847   2.823   4.435
  153SAPE   C3316951   5.615   1.503   5.509
  153SAPE   H3X16952   5.519   1.545   5.544
  153SAPE   H3Y16953   5.633   1.397   5.539
  153SAPE   C3416954   5.620   1.519   5.357
  153SAPE   H4X16955   5.712   1.472   5.316
  153SAPE   H4Y16956   5.634   1.628   5.340
  153SAPE   C3516957   5.490   1.476   5.283
  153SAPE   H5X16958   5.403   1.523   5.334
  153SAPE   H5Y16959   5.483   1.368   5.305
  153SAPE   C3616960   5.488   1.509   5.127
  153SAPE   H6X16961   5.519   1.614   5.106
  153SAPE   H6Y16962   5.386   1.493   5.085
  153SAPE   C3716963   5.599   1.424   5.047
  153SAPE   H7X16964   5.595   1.322   5.092
  153SAPE   H7Y16965   5.695   1.474   5.071
  153SAPE   C3816966   5.580   1.430   4.899
  153SAPE   H8X16967   5.567   1.538   4.874
  153SAPE   H8Y16968   5.490   1.378   4.859
  153SAPE   C3916969   5.703   1.400   4.805
  153SAPE   H9X16970   5.719   1.290   4.796
  153SAPE   H9Y16971   5.799   1.425   4.856
  153SAPE  C31016972   5.684   1.460   4.664
  153SAPE  H10X16973   5.662   1.569   4.670
  153SAPE  H10Y16974   5.600   1.415   4.607
  153SAPE  C31116975   5.813   1.449   4.579
  153SAPE  H11X16976   5.832   1.342   4.561
  153SAPE  H11Y16977   5.906   1.485   4.628
  153SAPE  C31216978   5.808   1.517   4.438
  153SAPE  H12X16979   5.771   1.619   4.460
  153SAPE  H12Y16980   5.724   1.464   4.389
  153SAPE  C31316981   5.927   1.496   4.350
  153SAPE  H13X16982   5.976   1.402   4.383
  153SAPE  H13Y16983   6.006   1.573   4.368
  153SAPE  C31416984   5.908   1.512   4.199
  153SAPE  H14X16985   5.832   1.443   4.157
  153SAPE  H14Y16986   6.002   1.483   4.147
  153SAPE  C31516987   5.853   1.647   4.150
  153SAPE  H15X16988   5.919   1.723   4.198
  153SAPE  H15Y16989   5.746   1.658   4.178
  153SAPE  C31616990   5.859   1.665   3.994
  153SAPE  H16X16991   5.948   1.609   3.961
  153SAPE  H16Y16992   5.869   1.770   3.957
  153SAPE  C31716993   5.738   1.607   3.922
  153SAPE  H17X16994   5.650   1.646   3.977
  153SAPE  H17Y16995   5.733   1.499   3.948
  153SAPE  C31816996   5.735   1.627   3.776
  153SAPE  H18X16997   5.822   1.578   3.727
  153SAPE  H18Y16998   5.744   1.736   3.758
  153SAPE  H18Z16999   5.639   1.595   3.731
  154SAPE     N17000   2.846   0.766   6.561
  154SAPE   HN117001   2.756   0.718   6.541
  154SAPE   HN217002   2.821   0.865   6.577
  154SAPE   HN317003   2.906   0.758   6.477
  154SAPE   C1217004   2.915   0.720   6.688
  154SAPE  H12A17005   2.922   0.609   6.680
  154SAPE  H12B17006   2.860   0.748   6.781
  154SAPE   C1117007   3.059   0.770   6.694
  154SAPE  H11A17008   3.105   0.721   6.783
  154SAPE  H11B17009   3.055   0.880   6.706
  154SAPE     P17010   3.221   0.628   6.527
  154SAPE   O1317011   3.346   0.631   6.603
  154SAPE   O1417012   3.141   0.503   6.531
  154SAPE   O1217013   3.131   0.753   6.570
  154SAPE   O1117014   3.251   0.674   6.378
  154SAPE    C117015   3.296   0.803   6.335
  154SAPE    HA17016   3.364   0.845   6.412
  154SAPE    HB17017   3.360   0.777   6.248
  154SAPE    C217018   3.185   0.896   6.300
  154SAPE    HS17019   3.111   0.910   6.382
  154SAPE   O2117020   3.114   0.850   6.182
  154SAPE   C2117021   3.022   0.755   6.206
  154SAPE   O2217022   2.944   0.744   6.302
  154SAPE   C2217023   3.011   0.665   6.076
  154SAPE   H2R17024   2.929   0.596   6.105
  154SAPE   H2S17025   2.982   0.727   5.989
  154SAPE    C317026   3.253   1.036   6.265
  154SAPE    HX17027   3.326   1.073   6.340
  154SAPE    HY17028   3.172   1.112   6.265
  154SAPE   O3117029   3.334   1.028   6.144
  154SAPE   C3117030   3.283   1.074   6.027
  154SAPE   O3217031   3.171   1.114   6.020
  154SAPE   C3217032   3.391   1.068   5.921
  154SAPE   H2X17033   3.483   1.123   5.946
  154SAPE   H2Y17034   3.356   1.111   5.825
  154SAPE   C2317035   3.152   0.599   6.049
  154SAPE   H3R17036   3.178   0.530   6.133
  154SAPE   H3S17037   3.233   0.676   6.053
  154SAPE   C2417038   3.152   0.530   5.912
  154SAPE   H4R17039   3.250   0.482   5.895
  154SAPE   H4S17040   3.151   0.615   5.840
  154SAPE   C2517041   3.037   0.440   5.892
  154SAPE   H5R17042   2.938   0.488   5.890
  154SAPE   C2617043   3.040   0.307   5.876
  154SAPE   H6R17044   2.942   0.257   5.869
  154SAPE   C2717045   3.160   0.218   5.871
  154SAPE   H7R17046   3.167   0.153   5.961
  154SAPE   H7S17047   3.257   0.271   5.869
  154SAPE   C2817048   3.161   0.134   5.744
  154SAPE   H8R17049   3.107   0.038   5.754
  154SAPE   C2917050   3.239   0.156   5.636
  154SAPE   H9R17051   3.242   0.089   5.548
  154SAPE  C21017052   3.317   0.282   5.602
  154SAPE  H10R17053   3.426   0.269   5.616
  154SAPE  H10S17054   3.293   0.354   5.684
  154SAPE  C21117055   3.295   0.357   5.471
  154SAPE  H11R17056   3.234   0.449   5.476
  154SAPE  C21217057   3.360   0.325   5.357
  154SAPE  H12R17058   3.339   0.377   5.262
  154SAPE  C21317059   3.459   0.212   5.339
  154SAPE  H13R17060   3.408   0.137   5.276
  154SAPE  H13S17061   3.474   0.170   5.441
  154SAPE  C21417062   3.597   0.243   5.278
  154SAPE  H14R17063   3.686   0.241   5.341
  154SAPE  C21517064   3.629   0.259   5.145
  154SAPE  H15R17065   3.731   0.282   5.112
  154SAPE  C21617066   3.534   0.256   5.029
  154SAPE  H16R17067   3.558   0.339   4.959
  154SAPE  H16S17068   3.433   0.286   5.064
  154SAPE  C21717069   3.516   0.124   4.946
  154SAPE  H17R17070   3.419   0.121   4.892
  154SAPE  H17S17071   3.520   0.039   5.017
  154SAPE  C21817072   3.630   0.099   4.849
  154SAPE  H18R17073   3.728   0.142   4.879
  154SAPE  H18S17074   3.618   0.159   4.756
  154SAPE  C21917075   3.655   6.727   4.819
  154SAPE  H19R17076   3.564   6.665   4.802
  154SAPE  H19S17077   3.702   6.678   4.907
  154SAPE  C22017078   3.739   6.712   4.702
  154SAPE  H20R17079   3.735   6.607   4.666
  154SAPE  H20S17080   3.845   6.746   4.712
  154SAPE  H20T17081   3.707   0.001   4.618
  154SAPE   C3317082   3.429   0.919   5.899
  154SAPE   H3X17083   3.453   0.858   5.988
  154SAPE   H3Y17084   3.521   0.929   5.837
  154SAPE   C3417085   3.318   0.840   5.827
  154SAPE   H4X17086   3.216   0.841   5.871
  154SAPE   H4Y17087   3.363   0.739   5.834
  154SAPE   C3517088   3.290   0.882   5.679
  154SAPE   H5X17089   3.391   0.890   5.634
  154SAPE   H5Y17090   3.248   0.984   5.685
  154SAPE   C3617091   3.185   0.796   5.611
  154SAPE   H6X17092   3.087   0.840   5.637
  154SAPE   H6Y17093   3.187   0.693   5.653
  154SAPE   C3717094   3.212   0.797   5.457
  154SAPE   H7X17095   3.301   0.737   5.428
  154SAPE   H7Y17096   3.233   0.902   5.429
  154SAPE   C3817097   3.095   0.736   5.380
  154SAPE   H8X17098   3.009   0.807   5.388
  154SAPE   H8Y17099   3.075   0.641   5.433
  154SAPE   C3917100   3.126   0.703   5.239
  154SAPE   H9X17101   3.220   0.645   5.236
  154SAPE   H9Y17102   3.153   0.795   5.183
  154SAPE  C31017103   3.002   0.634   5.171
  154SAPE  H10X17104   2.979   0.693   5.080
  154SAPE  H10Y17105   2.915   0.643   5.240
  154SAPE  C31117106   3.028   0.488   5.132
  154SAPE  H11X17107   2.933   0.435   5.111
  154SAPE  H11Y17108   3.083   0.441   5.216
  154SAPE  C31217109   3.117   0.469   5.012
  154SAPE  H12X17110   3.216   0.512   5.039
  154SAPE  H12Y17111   3.071   0.527   4.929
  154SAPE  C31317112   3.146   0.323   4.970
  154SAPE  H13X17113   3.180   0.260   5.055
  154SAPE  H13Y17114   3.225   0.319   4.892
  154SAPE  C31417115   3.020   0.257   4.910
  154SAPE  H14X17116   2.965   0.346   4.871
  154SAPE  H14Y17117   2.957   0.212   4.990
  154SAPE  C31517118   3.033   0.145   4.804
  154SAPE  H15X17119   2.932   0.114   4.769
  154SAPE  H15Y17120   3.097   0.064   4.845
  154SAPE  C31617121   3.117   0.193   4.682
  154SAPE  H16X17122   3.224   0.215   4.704
  154SAPE  H16Y17123   3.071   0.291   4.657
  154SAPE  C31717124   3.103   0.100   4.562
  154SAPE  H17X17125   2.994   0.097   4.536
  154SAPE  H17Y17126   3.132   6.776   4.597
  154SAPE  C31817127   3.183   0.142   4.431
  154SAPE  H18X17128   3.133   0.217   4.367
  154SAPE  H18Y17129   3.208   0.054   4.367
  154SAPE  H18Z17130   3.282   0.177   4.468
  155SAPE     N17131   4.564   5.520   6.793
  155SAPE   HN117132   4.623   5.444   6.832
  155SAPE   HN217133   4.574   5.607   6.849
  155SAPE   HN317134   4.463   5.495   6.794
  155SAPE   C1217135   4.600   5.537   6.654
  155SAPE  H12A17136   4.581   5.446   6.592
  155SAPE  H12B17137   4.710   5.547   6.648
  155SAPE   C1117138   4.551   5.665   6.589
  155SAPE  H11A17139   4.442   5.669   6.569
  155SAPE  H11B17140   4.607   5.675   6.494
  155SAPE     P17141   4.716   5.868   6.658
  155SAPE   O1317142   4.673   6.003   6.626
  155SAPE   O1417143   4.800   5.847   6.782
  155SAPE   O1217144   4.591   5.776   6.671
  155SAPE   O1117145   4.798   5.808   6.537
  155SAPE    C117146   4.936   5.849   6.528
  155SAPE    HA17147   4.979   5.915   6.606
  155SAPE    HB17148   4.999   5.757   6.531
  155SAPE    C217149   4.973   5.914   6.392
  155SAPE    HS17150   5.082   5.900   6.381
  155SAPE   O2117151   4.916   6.044   6.386
  155SAPE   C2117152   5.003   6.144   6.400
  155SAPE   O2217153   5.120   6.137   6.426
  155SAPE   C2217154   4.942   6.273   6.360
  155SAPE   H2R17155   4.839   6.270   6.320
  155SAPE   H2S17156   4.945   6.338   6.450
  155SAPE    C317157   4.925   5.829   6.273
  155SAPE    HX17158   4.814   5.822   6.279
  155SAPE    HY17159   4.969   5.728   6.286
  155SAPE   O3117160   4.960   5.884   6.144
  155SAPE   C3117161   4.939   5.801   6.049
  155SAPE   O3217162   4.896   5.689   6.055
  155SAPE   C3217163   4.983   5.865   5.918
  155SAPE   H2X17164   5.085   5.904   5.934
  155SAPE   H2Y17165   4.923   5.957   5.900
  155SAPE   C2317166   5.032   6.330   6.241
  155SAPE   H3R17167   5.044   6.248   6.167
  155SAPE   H3S17168   5.136   6.352   6.274
  155SAPE   C2417169   4.979   6.455   6.164
  155SAPE   H4R17170   5.048   6.496   6.088
  155SAPE   H4S17171   4.970   6.535   6.240
  155SAPE   C2517172   4.839   6.435   6.100
  155SAPE   H5R17173   4.763   6.387   6.163
  155SAPE   C2617174   4.809   6.483   5.977
  155SAPE   H6R17175   4.722   6.448   5.919
  155SAPE   C2717176   4.911   6.569   5.891
  155SAPE   H7R17177   4.976   6.507   5.826
  155SAPE   H7S17178   4.977   6.633   5.953
  155SAPE   C2817179   4.843   6.650   5.796
  155SAPE   H8R17180   4.823   6.748   5.842
  155SAPE   C2917181   4.785   6.614   5.678
  155SAPE   H9R17182   4.722   6.686   5.624
  155SAPE  C21017183   4.801   6.486   5.602
  155SAPE  H10R17184   4.704   6.440   5.574
  155SAPE  H10S17185   4.858   6.419   5.670
  155SAPE  C21117186   4.886   6.498   5.481
  155SAPE  H11R17187   4.992   6.479   5.508
  155SAPE  C21217188   4.858   6.511   5.353
  155SAPE  H12R17189   4.934   6.525   5.275
  155SAPE  C21317190   4.721   6.536   5.302
  155SAPE  H13R17191   4.696   6.644   5.307
  155SAPE  H13S17192   4.639   6.500   5.367
  155SAPE  C21417193   4.688   6.494   5.160
  155SAPE  H14R17194   4.647   6.392   5.148
  155SAPE  C21517195   4.697   6.575   5.049
  155SAPE  H15R17196   4.653   6.542   4.954
  155SAPE  C21617197   4.731   6.724   5.046
  155SAPE  H16R17198   4.760   6.759   5.148
  155SAPE  H16S17199   4.638   0.002   5.021
  155SAPE  C21717200   4.837   6.749   4.938
  155SAPE  H17R17201   4.821   6.692   4.844
  155SAPE  H17S17202   4.932   6.709   4.979
  155SAPE  C21817203   4.873   0.122   4.908
  155SAPE  H18R17204   4.906   0.167   5.004
  155SAPE  H18S17205   4.774   0.171   4.895
  155SAPE  C21917206   4.976   0.143   4.792
  155SAPE  H19R17207   4.924   0.112   4.699
  155SAPE  H19S17208   5.071   0.092   4.815
  155SAPE  C22017209   5.005   0.297   4.772
  155SAPE  H20R17210   5.046   0.347   4.862
  155SAPE  H20S17211   4.913   0.346   4.733
  155SAPE  H20T17212   5.083   0.312   4.695
  155SAPE   C3317213   4.974   5.786   5.789
  155SAPE   H3X17214   4.868   5.798   5.758
  155SAPE   H3Y17215   4.994   5.678   5.808
  155SAPE   C3417216   5.051   5.838   5.670
  155SAPE   H4X17217   5.153   5.843   5.713
  155SAPE   H4Y17218   5.018   5.940   5.643
  155SAPE   C3517219   5.057   5.751   5.545
  155SAPE   H5X17220   4.952   5.720   5.526
  155SAPE   H5Y17221   5.109   5.655   5.563
  155SAPE   C3617222   5.105   5.819   5.413
  155SAPE   H6X17223   5.213   5.834   5.434
  155SAPE   H6Y17224   5.052   5.914   5.390
  155SAPE   C3717225   5.086   5.728   5.285
  155SAPE   H7X17226   5.132   5.628   5.302
  155SAPE   H7Y17227   5.159   5.763   5.210
  155SAPE   C3817228   4.952   5.723   5.215
  155SAPE   H8X17229   4.911   5.825   5.199
  155SAPE   H8Y17230   4.868   5.677   5.271
  155SAPE   C3917231   4.963   5.662   5.069
  155SAPE   H9X17232   5.051   5.595   5.060
  155SAPE   H9Y17233   4.978   5.740   4.992
  155SAPE  C31017234   4.833   5.574   5.038
  155SAPE  H10X17235   4.739   5.625   5.070
  155SAPE  H10Y17236   4.827   5.485   5.104
  155SAPE  C31117237   4.826   5.522   4.897
  155SAPE  H11X17238   4.741   5.450   4.897
  155SAPE  H11Y17239   4.922   5.468   4.885
  155SAPE  C31217240   4.816   5.618   4.781
  155SAPE  H12X17241   4.904   5.685   4.774
  155SAPE  H12Y17242   4.726   5.683   4.787
  155SAPE  C31317243   4.816   5.546   4.641
  155SAPE  H13X17244   4.721   5.489   4.629
  155SAPE  H13Y17245   4.907   5.487   4.618
  155SAPE  C31417246   4.807   5.653   4.530
  155SAPE  H14X17247   4.886   5.730   4.536
  155SAPE  H14Y17248   4.711   5.705   4.553
  155SAPE  C31517249   4.804   5.593   4.389
  155SAPE  H15X17250   4.716   5.528   4.372
  155SAPE  H15Y17251   4.894   5.531   4.368
  155SAPE  C31617252   4.797   5.700   4.281
  155SAPE  H16X17253   4.902   5.734   4.289
  155SAPE  H16Y17254   4.729   5.787   4.296
  155SAPE  C31717255   4.763   5.625   4.148
  155SAPE  H17X17256   4.770   5.516   4.170
  155SAPE  H17Y17257   4.837   5.652   4.070
  155SAPE  C31817258   4.615   5.650   4.103
  155SAPE  H18X17259   4.593   5.758   4.088
  155SAPE  H18Y17260   4.546   5.619   4.185
  155SAPE  H18Z17261   4.596   5.589   4.012
  156SAPE     N17262   0.077   0.235   6.275
  156SAPE   HN117263   0.135   0.170   6.331
  156SAPE   HN217264   0.117   0.250   6.180
  156SAPE   HN317265   0.080   0.328   6.321
  156SAPE   C1217266   6.710   0.196   6.261
  156SAPE  H12A17267   6.676   0.183   6.366
  156SAPE  H12B17268   6.708   0.099   6.206
  156SAPE   C1117269   6.634   0.314   6.198
  156SAPE  H11A17270   6.535   0.268   6.171
  156SAPE  H11B17271   6.681   0.343   6.102
  156SAPE     P17272   6.508   0.458   6.366
  156SAPE   O1317273   6.493   0.348   6.470
  156SAPE   O1417274   6.522   0.597   6.417
  156SAPE   O1217275   6.635   0.432   6.277
  156SAPE   O1117276   6.395   0.451   6.257
  156SAPE    C117277   6.368   0.549   6.159
  156SAPE    HA17278   6.271   0.599   6.175
  156SAPE    HB17279   6.445   0.628   6.154
  156SAPE    C217280   6.386   0.493   6.009
  156SAPE    HS17281   6.496   0.485   5.995
  156SAPE   O2117282   6.321   0.581   5.910
  156SAPE   C2117283   6.386   0.694   5.884
  156SAPE   O2217284   6.496   0.725   5.926
  156SAPE   C2217285   6.312   0.773   5.778
  156SAPE   H2R17286   6.250   0.700   5.721
  156SAPE   H2S17287   6.241   0.842   5.829
  156SAPE    C317288   6.321   0.359   5.986
  156SAPE    HX17289   6.211   0.364   5.998
  156SAPE    HY17290   6.348   0.284   6.063
  156SAPE   O3117291   6.359   0.295   5.862
  156SAPE   C3117292   6.272   0.302   5.761
  156SAPE   O3217293   6.155   0.324   5.768
  156SAPE   C3217294   6.348   0.277   5.627
  156SAPE   H2X17295   6.276   0.251   5.547
  156SAPE   H2Y17296   6.420   0.194   5.648
  156SAPE   C2317297   6.394   0.860   5.683
  156SAPE   H3R17298   6.453   0.930   5.747
  156SAPE   H3S17299   6.321   0.924   5.629
  156SAPE   C2417300   6.477   0.780   5.583
  156SAPE   H4R17301   6.406   0.711   5.532
  156SAPE   H4S17302   6.555   0.714   5.626
  156SAPE   C2517303   6.545   0.852   5.469
  156SAPE   H5R17304   6.629   0.912   5.506
  156SAPE   C2617305   6.500   0.859   5.342
  156SAPE   H6R17306   6.558   0.919   5.272
  156SAPE   C2717307   6.385   0.776   5.283
  156SAPE   H7R17308   6.375   0.681   5.340
  156SAPE   H7S17309   6.419   0.745   5.182
  156SAPE   C2817310   6.259   0.855   5.270
  156SAPE   H8R17311   6.263   0.943   5.336
  156SAPE   C2917312   6.145   0.839   5.204
  156SAPE   H9R17313   6.067   0.917   5.205
  156SAPE  C21017314   6.113   0.722   5.117
  156SAPE  H10R17315   6.118   0.635   5.186
  156SAPE  H10S17316   6.195   0.714   5.042
  156SAPE  C21117317   5.986   0.723   5.041
  156SAPE  H11R17318   5.896   0.754   5.096
  156SAPE  C21217319   5.970   0.685   4.912
  156SAPE  H12R17320   5.870   0.695   4.868
  156SAPE  C21317321   6.080   0.634   4.820
  156SAPE  H13R17322   6.181   0.633   4.866
  156SAPE  H13S17323   6.096   0.714   4.744
  156SAPE  C21417324   6.069   0.504   4.737
  156SAPE  H14R17325   6.108   0.412   4.782
  156SAPE  C21517326   6.029   0.504   4.605
  156SAPE  H15R17327   6.026   0.405   4.557
  156SAPE  C21617328   5.985   0.620   4.520
  156SAPE  H16R17329   6.071   0.689   4.519
  156SAPE  H16S17330   5.898   0.667   4.572
  156SAPE  C21717331   5.958   0.576   4.371
  156SAPE  H17R17332   5.889   0.489   4.374
  156SAPE  H17S17333   6.054   0.544   4.325
  156SAPE  C21817334   5.892   0.685   4.293
  156SAPE  H18R17335   5.961   0.771   4.280
  156SAPE  H18S17336   5.804   0.719   4.351
  156SAPE  C21917337   5.839   0.643   4.153
  156SAPE  H19R17338   5.779   0.551   4.171
  156SAPE  H19S17339   5.917   0.618   4.079
  156SAPE  C22017340   5.755   0.758   4.093
  156SAPE  H20R17341   5.815   0.851   4.082
  156SAPE  H20S17342   5.675   0.787   4.164
  156SAPE  H20T17343   5.713   0.738   3.992
  156SAPE   C3317344   6.438   0.391   5.569
  156SAPE   H3X17345   6.506   0.445   5.637
  156SAPE   H3Y17346   6.366   0.466   5.530
  156SAPE   C3417347   6.525   0.341   5.454
  156SAPE   H4X17348   6.464   0.265   5.400
  156SAPE   H4Y17349   6.616   0.291   5.493
  156SAPE   C3517350   6.557   0.451   5.346
  156SAPE   H5X17351   6.615   0.536   5.387
  156SAPE   H5Y17352   6.460   0.500   5.322
  156SAPE   C3617353   6.616   0.386   5.222
  156SAPE   H6X17354   6.574   0.286   5.198
  156SAPE   H6Y17355   6.725   0.376   5.241
  156SAPE   C3717356   6.601   0.478   5.097
  156SAPE   H7X17357   6.672   0.563   5.107
  156SAPE   H7Y17358   6.500   0.522   5.086
  156SAPE   C3817359   6.634   0.416   4.957
  156SAPE   H8X17360   6.565   0.331   4.941
  156SAPE   H8Y17361   6.731   0.364   4.974
  156SAPE   C3917362   6.631   0.495   4.831
  156SAPE   H9X17363   6.656   0.435   4.741
  156SAPE   H9Y17364   6.712   0.571   4.829
  156SAPE  C31017365   6.488   0.558   4.805
  156SAPE  H10X17366   6.462   0.626   4.888
  156SAPE  H10Y17367   6.418   0.471   4.806
  156SAPE  C31117368   6.479   0.621   4.666
  156SAPE  H11X17369   6.475   0.542   4.588
  156SAPE  H11Y17370   6.578   0.668   4.650
  156SAPE  C31217371   6.373   0.735   4.647
  156SAPE  H12X17372   6.354   0.801   4.733
  156SAPE  H12Y17373   6.281   0.675   4.629
  156SAPE  C31317374   6.394   0.813   4.521
  156SAPE  H13X17375   6.391   0.736   4.441
  156SAPE  H13Y17376   6.494   0.860   4.529
  156SAPE  C31417377   6.300   0.939   4.497
  156SAPE  H14X17378   6.354   1.019   4.552
  156SAPE  H14Y17379   6.201   0.919   4.542
  156SAPE  C31517380   6.281   0.989   4.353
  156SAPE  H15X17381   6.213   0.925   4.293
  156SAPE  H15Y17382   6.374   1.000   4.293
  156SAPE  C31617383   6.211   1.125   4.360
  156SAPE  H16X17384   6.285   1.190   4.413
  156SAPE  H16Y17385   6.137   1.124   4.443
  156SAPE  C31717386   6.147   1.181   4.231
  156SAPE  H17X17387   6.225   1.196   4.153
  156SAPE  H17Y17388   6.120   1.286   4.253
  156SAPE  C31817389   6.036   1.096   4.178
  156SAPE  H18X17390   5.946   1.084   4.242
  156SAPE  H18Y17391   6.077   1.004   4.130
  156SAPE  H18Z17392   5.995   1.143   4.086
  157SAPE     N17393   0.007   6.177   6.652
  157SAPE   HN117394   6.751   6.274   6.636
  157SAPE   HN217395   6.698   6.130   6.689
  157SAPE   HN317396   0.089   6.182   6.715
  157SAPE   C1217397   0.046   6.123   6.520
  157SAPE  H12A17398   0.052   6.012   6.529
  157SAPE  H12B17399   0.148   6.155   6.490
  157SAPE   C1117400   6.718   6.161   6.418
  157SAPE  H11A17401   6.621   6.112   6.441
  157SAPE  H11B17402   6.743   6.139   6.312
  157SAPE     P17403   6.734   6.409   6.347
  157SAPE   O1317404   6.618   6.498   6.308
  157SAPE   O1417405   0.077   6.464   6.417
  157SAPE   O1217406   6.687   6.294   6.439
  157SAPE   O1117407   0.010   6.336   6.213
  157SAPE    C117408   6.753   6.396   6.088
  157SAPE    HA17409   0.004   6.332   6.001
  157SAPE    HB17410   6.645   6.419   6.081
  157SAPE    C217411   0.035   6.541   6.069
  157SAPE    HS17412   6.746   6.610   6.127
  157SAPE   O2117413   0.025   6.578   5.932
  157SAPE   C2117414   6.684   6.608   5.879
  157SAPE   O2217415   6.576   6.592   5.931
  157SAPE   C2217416   6.721   6.666   5.738
  157SAPE   H2R17417   6.627   6.704   5.692
  157SAPE   H2S17418   0.021   6.740   5.767
  157SAPE    C317419   0.183   6.550   6.116
  157SAPE    HX17420   0.189   6.533   6.225
  157SAPE    HY17421   0.241   6.643   6.096
  157SAPE   O3117422   0.252   6.440   6.052
  157SAPE   C3117423   0.323   6.466   5.948
  157SAPE   O3217424   0.357   6.575   5.907
  157SAPE   C3217425   0.348   6.334   5.878
  157SAPE   H2X17426   0.253   6.287   5.845
  157SAPE   H2Y17427   0.403   6.266   5.946
  157SAPE   C2317428   0.002   6.540   5.666
  157SAPE   H3R17429   0.081   6.496   5.729
  157SAPE   H3S17430   0.061   6.577   5.580
  157SAPE   C2417431   6.675   6.446   5.613
  157SAPE   H4R17432   6.601   6.496   5.547
  157SAPE   H4S17433   6.626   6.393   5.697
  157SAPE   C2517434   6.752   6.346   5.540
  157SAPE   H5R17435   0.016   6.266   5.605
  157SAPE   C2617436   6.772   6.328   5.406
  157SAPE   H6R17437   0.056   6.243   5.371
  157SAPE   C2717438   6.727   6.423   5.299
  157SAPE   H7R17439   6.729   6.522   5.348
  157SAPE   H7S17440   6.622   6.397   5.272
  157SAPE   C2817441   0.032   6.433   5.173
  157SAPE   H8R17442   0.098   6.346   5.162
  157SAPE   C2917443   0.029   6.537   5.087
  157SAPE   H9R17444   0.105   6.545   5.007
  157SAPE  C21017445   6.731   6.666   5.110
  157SAPE  H10R17446   6.715   6.685   5.218
  157SAPE  H10S17447   6.631   6.651   5.064
  157SAPE  C21117448   0.007   0.022   5.059
  157SAPE  H11R17449   0.054   0.095   5.126
  157SAPE  C21217450   0.002   0.059   4.928
  157SAPE  H12R17451   0.046   0.158   4.906
  157SAPE  C21317452   6.702   6.758   4.823
  157SAPE  H13R17453   6.595   0.011   4.827
  157SAPE  H13S17454   6.703   6.650   4.848
  157SAPE  C21417455   6.747   6.771   4.677
  157SAPE  H14R17456   0.074   0.032   4.669
  157SAPE  C21517457   6.679   6.735   4.567
  157SAPE  H15R17458   6.717   6.769   4.470
  157SAPE  C21617459   6.547   6.666   4.559
  157SAPE  H16R17460   6.469   6.744   4.546
  157SAPE  H16S17461   6.517   6.621   4.656
  157SAPE  C21717462   6.549   6.559   4.446
  157SAPE  H17R17463   6.461   6.495   4.470
  157SAPE  H17S17464   6.638   6.496   4.468
  157SAPE  C21817465   6.545   6.607   4.300
  157SAPE  H18R17466   6.546   6.516   4.237
  157SAPE  H18S17467   6.640   6.659   4.275
  157SAPE  C21917468   6.415   6.685   4.280
  157SAPE  H19R17469   6.446   6.776   4.336
  157SAPE  H19S17470   6.331   6.647   4.341
  157SAPE  C22017471   6.389   6.725   4.134
  157SAPE  H20R17472   6.351   6.646   4.067
  157SAPE  H20S17473   6.482   6.771   4.093
  157SAPE  H20T17474   6.321   0.036   4.145
  157SAPE   C3317475   0.429   6.340   5.746
  157SAPE   H3X17476   0.468   6.238   5.727
  157SAPE   H3Y17477   0.515   6.406   5.767
  157SAPE   C3417478   0.336   6.386   5.639
  157SAPE   H4X17479   0.279   6.480   5.656
  157SAPE   H4Y17480   0.263   6.304   5.621
  157SAPE   C3517481   0.409   6.423   5.507
  157SAPE   H5X17482   0.483   6.504   5.527
  157SAPE   H5Y17483   0.328   6.457   5.439
  157SAPE   C3617484   0.483   6.300   5.449
  157SAPE   H6X17485   0.405   6.223   5.430
  157SAPE   H6Y17486   0.549   6.257   5.527
  157SAPE   C3717487   0.560   6.331   5.322
  157SAPE   H7X17488   0.632   6.249   5.302
  157SAPE   H7Y17489   0.619   6.417   5.360
  157SAPE   C3817490   0.487   6.387   5.199
  157SAPE   H8X17491   0.439   6.479   5.238
  157SAPE   H8Y17492   0.407   6.315   5.172
  157SAPE   C3917493   0.565   6.410   5.069
  157SAPE   H9X17494   0.612   6.316   5.031
  157SAPE   H9Y17495   0.658   6.470   5.078
  157SAPE  C31017496   0.479   6.478   4.964
  157SAPE  H10X17497   0.544   6.505   4.878
  157SAPE  H10Y17498   0.432   6.573   4.999
  157SAPE  C31117499   0.378   6.384   4.907
  157SAPE  H11X17500   0.297   6.389   4.982
  157SAPE  H11Y17501   0.420   6.281   4.900
  157SAPE  C31217502   0.303   6.433   4.777
  157SAPE  H12X17503   0.376   6.476   4.705
  157SAPE  H12Y17504   0.228   6.512   4.797
  157SAPE  C31317505   0.245   6.321   4.686
  157SAPE  H13X17506   0.188   6.252   4.753
  157SAPE  H13Y17507   0.334   6.262   4.658
  157SAPE  C31417508   0.179   6.371   4.562
  157SAPE  H14X17509   0.252   6.442   4.518
  157SAPE  H14Y17510   0.091   6.431   4.594
  157SAPE  C31517511   0.136   6.268   4.455
  157SAPE  H15X17512   0.047   6.211   4.489
  157SAPE  H15Y17513   0.221   6.198   4.445
  157SAPE  C31617514   0.112   6.337   4.315
  157SAPE  H16X17515   0.157   6.439   4.315
  157SAPE  H16Y17516   0.003   6.355   4.307
  157SAPE  C31717517   0.152   6.246   4.196
  157SAPE  H17X17518   0.099   6.289   4.108
  157SAPE  H17Y17519   0.113   6.143   4.207
  157SAPE  C31817520   0.300   6.248   4.155
  157SAPE  H18X17521   0.333   6.156   4.102
  157SAPE  H18Y17522   0.361   6.263   4.246
  157SAPE  H18Z17523   0.321   6.329   4.082
  158SAPE     N17524   3.017   4.743   6.828
  158SAPE   HN117525   2.935   4.681   6.816
  158SAPE   HN217526   3.073   4.708   6.747
  158SAPE   HN317527   3.064   4.721   6.918
  158SAPE   C1217528   2.995   4.886   6.821
  158SAPE  H12A17529   3.091   4.938   6.802
  158SAPE  H12B17530   2.944   4.918   6.914
  158SAPE   C1117531   2.896   4.912   6.702
  158SAPE  H11A17532   2.817   4.837   6.722
  158SAPE  H11B17533   2.932   4.888   6.600
  158SAPE     P17534   2.920   5.167   6.669
  158SAPE   O1317535   2.882   5.282   6.756
  158SAPE   O1417536   3.066   5.132   6.665
  158SAPE   O1217537   2.840   5.043   6.716
  158SAPE   O1117538   2.864   5.184   6.515
  158SAPE    C117539   2.756   5.277   6.493
  158SAPE    HA17540   2.686   5.237   6.417
  158SAPE    HB17541   2.698   5.291   6.587
  158SAPE    C217542   2.799   5.410   6.443
  158SAPE    HS17543   2.851   5.456   6.530
  158SAPE   O2117544   2.674   5.476   6.408
  158SAPE   C2117545   2.677   5.608   6.419
  158SAPE   O2217546   2.768   5.672   6.462
  158SAPE   C2217547   2.543   5.669   6.374
  158SAPE   H2R17548   2.560   5.779   6.376
  158SAPE   H2S17549   2.525   5.630   6.272
  158SAPE    C317550   2.883   5.416   6.320
  158SAPE    HX17551   2.978   5.364   6.343
  158SAPE    HY17552   2.907   5.523   6.300
  158SAPE   O3117553   2.822   5.355   6.205
  158SAPE   C3117554   2.827   5.432   6.098
  158SAPE   O3217555   2.890   5.531   6.089
  158SAPE   C3217556   2.734   5.372   5.992
  158SAPE   H2X17557   2.636   5.368   6.043
  158SAPE   H2Y17558   2.766   5.272   5.957
  158SAPE   C2317559   2.434   5.630   6.470
  158SAPE   H3R17560   2.454   5.644   6.578
  158SAPE   H3S17561   2.424   5.520   6.454
  158SAPE   C2417562   2.298   5.697   6.449
  158SAPE   H4R17563   2.226   5.665   6.528
  158SAPE   H4S17564   2.254   5.675   6.349
  158SAPE   C2517565   2.313   5.845   6.461
  158SAPE   H5R17566   2.393   5.875   6.530
  158SAPE   C2617567   2.257   5.941   6.378
  158SAPE   H6R17568   2.277   6.047   6.402
  158SAPE   C2717569   2.162   5.925   6.268
  158SAPE   H7R17570   2.109   6.020   6.245
  158SAPE   H7S17571   2.088   5.844   6.285
  158SAPE   C2817572   2.234   5.880   6.141
  158SAPE   H8R17573   2.331   5.830   6.154
  158SAPE   C2917574   2.178   5.871   6.020
  158SAPE   H9R17575   2.246   5.843   5.939
  158SAPE  C21017576   2.039   5.916   5.992
  158SAPE  H10R17577   2.040   6.025   5.967
  158SAPE  H10S17578   1.969   5.904   6.077
  158SAPE  C21117579   1.976   5.849   5.874
  158SAPE  H11R17580   1.954   5.743   5.893
  158SAPE  C21217581   1.953   5.897   5.746
  158SAPE  H12R17582   1.933   5.821   5.669
  158SAPE  C21317583   1.993   6.031   5.689
  158SAPE  H13R17584   2.070   6.011   5.612
  158SAPE  H13S17585   2.039   6.089   5.772
  158SAPE  C21417586   1.877   6.116   5.646
  158SAPE  H14R17587   1.794   6.111   5.718
  158SAPE  C21517588   1.859   6.180   5.534
  158SAPE  H15R17589   1.754   6.213   5.521
  158SAPE  C21617590   1.938   6.199   5.412
  158SAPE  H16R17591   2.045   6.222   5.432
  158SAPE  H16S17592   1.893   6.283   5.354
  158SAPE  C21717593   1.934   6.078   5.323
  158SAPE  H17R17594   1.834   6.062   5.277
  158SAPE  H17S17595   1.949   5.982   5.377
  158SAPE  C21817596   2.029   6.083   5.206
  158SAPE  H18R17597   2.130   6.110   5.242
  158SAPE  H18S17598   1.987   6.155   5.132
  158SAPE  C21917599   2.046   5.944   5.148
  158SAPE  H19R17600   2.007   5.867   5.218
  158SAPE  H19S17601   2.156   5.928   5.142
  158SAPE  C22017602   1.996   5.931   5.004
  158SAPE  H20R17603   1.899   5.982   4.988
  158SAPE  H20S17604   1.992   5.821   4.987
  158SAPE  H20T17605   2.080   5.977   4.947
  158SAPE   C3317606   2.727   5.467   5.872
  158SAPE   H3X17607   2.829   5.482   5.831
  158SAPE   H3Y17608   2.678   5.563   5.898
  158SAPE   C3417609   2.659   5.403   5.745
  158SAPE   H4X17610   2.549   5.405   5.758
  158SAPE   H4Y17611   2.685   5.295   5.737
  158SAPE   C3517612   2.714   5.462   5.615
  158SAPE   H5X17613   2.825   5.457   5.611
  158SAPE   H5Y17614   2.677   5.566   5.609
  158SAPE   C3617615   2.662   5.393   5.491
  158SAPE   H6X17616   2.670   5.465   5.407
  158SAPE   H6Y17617   2.559   5.357   5.509
  158SAPE   C3717618   2.737   5.271   5.444
  158SAPE   H7X17619   2.735   5.201   5.530
  158SAPE   H7Y17620   2.847   5.289   5.444
  158SAPE   C3817621   2.683   5.212   5.315
  158SAPE   H8X17622   2.710   5.293   5.244
  158SAPE   H8Y17623   2.575   5.187   5.311
  158SAPE   C3917624   2.757   5.079   5.279
  158SAPE   H9X17625   2.727   4.998   5.350
  158SAPE   H9Y17626   2.866   5.095   5.288
  158SAPE  C31017627   2.727   5.032   5.135
  158SAPE  H10X17628   2.619   5.012   5.125
  158SAPE  H10Y17629   2.784   4.938   5.115
  158SAPE  C31117630   2.751   5.143   5.023
  158SAPE  H11X17631   2.852   5.188   5.031
  158SAPE  H11Y17632   2.681   5.226   5.048
  158SAPE  C31217633   2.727   5.087   4.890
  158SAPE  H12X17634   2.637   5.022   4.887
  158SAPE  H12Y17635   2.817   5.026   4.867
  158SAPE  C31317636   2.718   5.192   4.769
  158SAPE  H13X17637   2.764   5.290   4.793
  158SAPE  H13Y17638   2.612   5.221   4.757
  158SAPE  C31417639   2.769   5.135   4.635
  158SAPE  H14X17640   2.875   5.102   4.633
  158SAPE  H14Y17641   2.757   5.208   4.553
  158SAPE  C31517642   2.667   5.024   4.578
  158SAPE  H15X17643   2.560   5.042   4.602
  158SAPE  H15Y17644   2.705   4.931   4.626
  158SAPE  C31617645   2.672   5.002   4.427
  158SAPE  H16X17646   2.771   4.954   4.411
  158SAPE  H16Y17647   2.656   5.102   4.380
  158SAPE  C31717648   2.569   4.903   4.371
  158SAPE  H17X17649   2.471   4.953   4.388
  158SAPE  H17Y17650   2.571   4.816   4.440
  158SAPE  C31817651   2.579   4.871   4.226
  158SAPE  H18X17652   2.684   4.874   4.190
  158SAPE  H18Y17653   2.520   4.951   4.177
  158SAPE  H18Z17654   2.526   4.776   4.203
  159SAPE     N17655   4.866   2.755   2.604
  159SAPE   HN117656   4.924   2.681   2.648
  159SAPE   HN217657   4.925   2.841   2.602
  159SAPE   HN317658   4.785   2.762   2.669
  159SAPE   C1217659   4.835   2.723   2.460
  159SAPE  H12A17660   4.762   2.639   2.457
  159SAPE  H12B17661   4.928   2.688   2.410
  159SAPE   C1117662   4.755   2.842   2.396
  159SAPE  H11A17663   4.664   2.883   2.445
  159SAPE  H11B17664   4.720   2.808   2.297
  159SAPE     P17665   4.887   3.038   2.268
  159SAPE   O1317666   4.823   2.984   2.144
  159SAPE   O1417667   4.851   3.171   2.313
  159SAPE   O1217668   4.858   2.941   2.384
  159SAPE   O1117669   5.046   3.020   2.266
  159SAPE    C117670   5.128   2.957   2.362
  159SAPE    HA17671   5.070   2.879   2.416
  159SAPE    HB17672   5.216   2.904   2.319
  159SAPE    C217673   5.192   3.057   2.472
  159SAPE    HS17674   5.238   3.000   2.556
  159SAPE   O2117675   5.102   3.157   2.513
  159SAPE   C2117676   5.021   3.101   2.603
  159SAPE   O2217677   5.024   2.983   2.630
  159SAPE   C2217678   4.925   3.205   2.662
  159SAPE   H2R17679   4.986   3.281   2.715
  159SAPE   H2S17680   4.894   3.262   2.572
  159SAPE    C317681   5.312   3.126   2.399
  159SAPE    HX17682   5.269   3.184   2.315
  159SAPE    HY17683   5.381   3.057   2.347
  159SAPE   O3117684   5.385   3.216   2.480
  159SAPE   C3117685   5.485   3.161   2.556
  159SAPE   O3217686   5.507   3.042   2.570
  159SAPE   C3217687   5.542   3.281   2.632
  159SAPE   H2X17688   5.469   3.317   2.707
  159SAPE   H2Y17689   5.548   3.365   2.560
  159SAPE   C2317690   4.813   3.148   2.750
  159SAPE   H3R17691   4.787   3.043   2.723
  159SAPE   H3S17692   4.723   3.211   2.731
  159SAPE   C2417693   4.855   3.156   2.911
  159SAPE   H4R17694   4.753   3.162   2.954
  159SAPE   H4S17695   4.906   3.253   2.931
  159SAPE   C2517696   4.924   3.041   2.967
  159SAPE   H5R17697   4.966   2.972   2.893
  159SAPE   C2617698   4.930   3.003   3.100
  159SAPE   H6R17699   4.977   2.908   3.128
  159SAPE   C2717700   4.871   3.071   3.216
  159SAPE   H7R17701   4.810   3.001   3.278
  159SAPE   H7S17702   4.809   3.158   3.187
  159SAPE   C2817703   4.977   3.131   3.302
  159SAPE   H8R17704   5.075   3.140   3.253
  159SAPE   C2917705   4.969   3.173   3.434
  159SAPE   H9R17706   5.056   3.219   3.484
  159SAPE  C21017707   4.843   3.191   3.514
  159SAPE  H10R17708   4.855   3.137   3.611
  159SAPE  H10S17709   4.759   3.153   3.452
  159SAPE  C21117710   4.816   3.339   3.549
  159SAPE  H11R17711   4.870   3.414   3.489
  159SAPE  C21217712   4.723   3.376   3.634
  159SAPE  H12R17713   4.719   3.486   3.644
  159SAPE  C21317714   4.628   3.297   3.713
  159SAPE  H13R17715   4.638   3.320   3.821
  159SAPE  H13S17716   4.655   3.193   3.686
  159SAPE  C21417717   4.478   3.304   3.674
  159SAPE  H14R17718   4.461   3.344   3.573
  159SAPE  C21517719   4.376   3.258   3.743
  159SAPE  H15R17720   4.290   3.251   3.676
  159SAPE  C21617721   4.377   3.174   3.862
  159SAPE  H16R17722   4.462   3.103   3.864
  159SAPE  H16S17723   4.286   3.109   3.866
  159SAPE  C21717724   4.386   3.247   4.001
  159SAPE  H17R17725   4.462   3.327   3.991
  159SAPE  H17S17726   4.419   3.172   4.076
  159SAPE  C21817727   4.252   3.309   4.052
  159SAPE  H18R17728   4.176   3.233   4.081
  159SAPE  H18S17729   4.210   3.375   3.974
  159SAPE  C21917730   4.272   3.403   4.174
  159SAPE  H19R17731   4.334   3.483   4.127
  159SAPE  H19S17732   4.322   3.342   4.252
  159SAPE  C22017733   4.140   3.466   4.227
  159SAPE  H20R17734   4.080   3.500   4.140
  159SAPE  H20S17735   4.163   3.565   4.273
  159SAPE  H20T17736   4.080   3.387   4.276
  159SAPE   C3317737   5.680   3.257   2.695
  159SAPE   H3X17738   5.751   3.213   2.622
  159SAPE   H3Y17739   5.665   3.183   2.777
  159SAPE   C3417740   5.747   3.377   2.760
  159SAPE   H4X17741   5.795   3.456   2.698
  159SAPE   H4Y17742   5.830   3.342   2.826
  159SAPE   C3517743   5.647   3.449   2.845
  159SAPE   H5X17744   5.591   3.389   2.920
  159SAPE   H5Y17745   5.579   3.493   2.769
  159SAPE   C3617746   5.709   3.571   2.930
  159SAPE   H6X17747   5.731   3.521   3.026
  159SAPE   H6Y17748   5.622   3.639   2.935
  159SAPE   C3717749   5.830   3.644   2.866
  159SAPE   H7X17750   5.782   3.689   2.777
  159SAPE   H7Y17751   5.913   3.575   2.838
  159SAPE   C3817752   5.901   3.749   2.953
  159SAPE   H8X17753   5.961   3.684   3.020
  159SAPE   H8Y17754   5.822   3.810   3.001
  159SAPE   C3917755   6.001   3.835   2.878
  159SAPE   H9X17756   5.942   3.921   2.840
  159SAPE   H9Y17757   6.049   3.774   2.799
  159SAPE  C31017758   6.124   3.886   2.964
  159SAPE  H10X17759   6.085   3.967   3.029
  159SAPE  H10Y17760   6.194   3.938   2.895
  159SAPE  C31117761   6.219   3.790   3.045
  159SAPE  H11X17762   6.307   3.752   2.990
  159SAPE  H11Y17763   6.149   3.704   3.059
  159SAPE  C31217764   6.271   3.857   3.166
  159SAPE  H12X17765   6.187   3.909   3.216
  159SAPE  H12Y17766   6.340   3.944   3.159
  159SAPE  C31317767   6.327   3.756   3.270
  159SAPE  H13X17768   6.411   3.697   3.228
  159SAPE  H13Y17769   6.250   3.677   3.282
  159SAPE  C31417770   6.383   3.822   3.400
  159SAPE  H14X17771   6.299   3.859   3.462
  159SAPE  H14Y17772   6.457   3.902   3.376
  159SAPE  C31517773   6.455   3.724   3.489
  159SAPE  H15X17774   6.499   3.796   3.561
  159SAPE  H15Y17775   6.542   3.681   3.437
  159SAPE  C31617776   6.357   3.627   3.551
  159SAPE  H16X17777   6.320   3.558   3.473
  159SAPE  H16Y17778   6.265   3.681   3.585
  159SAPE  C31717779   6.426   3.548   3.666
  159SAPE  H17X17780   6.534   3.535   3.644
  159SAPE  H17Y17781   6.363   3.457   3.673
  159SAPE  C31817782   6.400   3.611   3.799
  159SAPE  H18X17783   6.456   3.706   3.807
  159SAPE  H18Y17784   6.441   3.545   3.880
  159SAPE  H18Z17785   6.290   3.623   3.807
  160SAPE     N17786   4.992   1.930   2.418
  160SAPE   HN117787   4.896   1.959   2.390
  160SAPE   HN217788   5.060   1.928   2.339
  160SAPE   HN317789   4.997   1.834   2.459
  160SAPE   C1217790   5.033   2.039   2.521
  160SAPE  H12A17791   5.074   2.128   2.469
  160SAPE  H12B17792   5.116   1.995   2.581
  160SAPE   C1117793   4.907   2.073   2.594
  160SAPE  H11A17794   4.916   2.147   2.677
  160SAPE  H11B17795   4.896   1.984   2.659
  160SAPE     P17796   4.662   2.002   2.518
  160SAPE   O1317797   4.534   2.073   2.474
  160SAPE   O1417798   4.693   1.877   2.449
  160SAPE   O1217799   4.792   2.093   2.508
  160SAPE   O1117800   4.648   1.967   2.674
  160SAPE    C117801   4.627   2.073   2.771
  160SAPE    HA17802   4.712   2.143   2.780
  160SAPE    HB17803   4.531   2.126   2.753
  160SAPE    C217804   4.609   2.019   2.914
  160SAPE    HS17805   4.624   2.102   2.986
  160SAPE   O2117806   4.713   1.921   2.930
  160SAPE   C2117807   4.836   1.970   2.966
  160SAPE   O2217808   4.866   2.089   2.960
  160SAPE   C2217809   4.931   1.857   3.004
  160SAPE   H2R17810   4.980   1.816   2.913
  160SAPE   H2S17811   5.011   1.890   3.074
  160SAPE    C317812   4.468   1.953   2.933
  160SAPE    HX17813   4.453   1.896   2.839
  160SAPE    HY17814   4.385   2.027   2.922
  160SAPE   O3117815   4.443   1.880   3.057
  160SAPE   C3117816   4.435   1.750   3.057
  160SAPE   O3217817   4.452   1.665   2.968
  160SAPE   C3217818   4.392   1.719   3.208
  160SAPE   H2X17819   4.465   1.765   3.278
  160SAPE   H2Y17820   4.404   1.609   3.222
  160SAPE   C2317821   4.857   1.738   3.077
  160SAPE   H3R17822   4.917   1.646   3.065
  160SAPE   H3S17823   4.753   1.714   3.043
  160SAPE   C2417824   4.855   1.759   3.228
  160SAPE   H4R17825   4.956   1.784   3.267
  160SAPE   H4S17826   4.826   1.662   3.274
  160SAPE   C2517827   4.756   1.852   3.277
  160SAPE   H5R17828   4.714   1.923   3.204
  160SAPE   C2617829   4.714   1.863   3.404
  160SAPE   H6R17830   4.624   1.925   3.418
  160SAPE   C2717831   4.764   1.791   3.518
  160SAPE   H7R17832   4.871   1.816   3.531
  160SAPE   H7S17833   4.773   1.682   3.502
  160SAPE   C2817834   4.702   1.806   3.654
  160SAPE   H8R17835   4.610   1.746   3.659
  160SAPE   C2917836   4.744   1.873   3.763
  160SAPE   H9R17837   4.683   1.876   3.855
  160SAPE  C21017838   4.866   1.961   3.768
  160SAPE  H10R17839   4.949   1.937   3.699
  160SAPE  H10S17840   4.911   1.943   3.868
  160SAPE  C21117841   4.836   2.110   3.749
  160SAPE  H11R17842   4.772   2.140   3.664
  160SAPE  C21217843   4.856   2.216   3.830
  160SAPE  H12R17844   4.809   2.312   3.805
  160SAPE  C21317845   4.925   2.218   3.956
  160SAPE  H13R17846   5.001   2.298   3.946
  160SAPE  H13S17847   4.981   2.124   3.973
  160SAPE  C21417848   4.833   2.255   4.070
  160SAPE  H14R17849   4.737   2.300   4.041
  160SAPE  C21517850   4.872   2.244   4.201
  160SAPE  H15R17851   4.797   2.267   4.278
  160SAPE  C21617852   5.012   2.213   4.256
  160SAPE  H16R17853   5.086   2.182   4.179
  160SAPE  H16S17854   4.998   2.124   4.322
  160SAPE  C21717855   5.075   2.338   4.329
  160SAPE  H17R17856   5.167   2.323   4.391
  160SAPE  H17S17857   4.994   2.373   4.397
  160SAPE  C21817858   5.106   2.449   4.229
  160SAPE  H18R17859   5.124   2.538   4.293
  160SAPE  H18S17860   5.017   2.463   4.164
  160SAPE  C21917861   5.222   2.425   4.129
  160SAPE  H19R17862   5.237   2.510   4.060
  160SAPE  H19S17863   5.187   2.339   4.067
  160SAPE  C22017864   5.353   2.394   4.193
  160SAPE  H20R17865   5.392   2.475   4.257
  160SAPE  H20S17866   5.425   2.391   4.108
  160SAPE  H20T17867   5.361   2.299   4.250
  160SAPE   C3317868   4.246   1.751   3.245
  160SAPE   H3X17869   4.177   1.708   3.169
  160SAPE   H3Y17870   4.227   1.860   3.240
  160SAPE   C3417871   4.207   1.679   3.374
  160SAPE   H4X17872   4.211   1.569   3.354
  160SAPE   H4Y17873   4.099   1.694   3.396
  160SAPE   C3517874   4.294   1.696   3.502
  160SAPE   H5X17875   4.300   1.802   3.533
  160SAPE   H5Y17876   4.400   1.663   3.489
  160SAPE   C3617877   4.240   1.624   3.622
  160SAPE   H6X17878   4.275   1.519   3.612
  160SAPE   H6Y17879   4.131   1.629   3.641
  160SAPE   C3717880   4.303   1.676   3.754
  160SAPE   H7X17881   4.277   1.783   3.764
  160SAPE   H7Y17882   4.409   1.649   3.774
  160SAPE   C3817883   4.223   1.612   3.873
  160SAPE   H8X17884   4.220   1.501   3.868
  160SAPE   H8Y17885   4.119   1.648   3.853
  160SAPE   C3917886   4.267   1.662   4.013
  160SAPE   H9X17887   4.274   1.772   4.029
  160SAPE   H9Y17888   4.367   1.616   4.030
  160SAPE  C31017889   4.178   1.603   4.128
  160SAPE  H10X17890   4.185   1.492   4.129
  160SAPE  H10Y17891   4.074   1.637   4.108
  160SAPE  C31117892   4.214   1.637   4.272
  160SAPE  H11X17893   4.204   1.746   4.290
  160SAPE  H11Y17894   4.316   1.605   4.301
  160SAPE  C31217895   4.130   1.550   4.368
  160SAPE  H12X17896   4.183   1.553   4.465
  160SAPE  H12Y17897   4.113   1.444   4.340
  160SAPE  C31317898   3.995   1.622   4.391
  160SAPE  H13X17899   3.931   1.625   4.300
  160SAPE  H13Y17900   4.011   1.729   4.414
  160SAPE  C31417901   3.913   1.557   4.503
  160SAPE  H14X17902   3.991   1.535   4.580
  160SAPE  H14Y17903   3.852   1.470   4.473
  160SAPE  C31517904   3.815   1.656   4.562
  160SAPE  H15X17905   3.748   1.703   4.485
  160SAPE  H15Y17906   3.876   1.736   4.609
  160SAPE  C31617907   3.730   1.615   4.682
  160SAPE  H16X17908   3.631   1.665   4.671
  160SAPE  H16Y17909   3.760   1.659   4.780
  160SAPE  C31717910   3.736   1.466   4.715
  160SAPE  H17X17911   3.838   1.424   4.708
  160SAPE  H17Y17912   3.683   1.425   4.626
  160SAPE  C31817913   3.667   1.432   4.844
  160SAPE  H18X17914   3.723   1.472   4.931
  160SAPE  H18Y17915   3.659   1.323   4.863
  160SAPE  H18Z17916   3.565   1.476   4.846
  161SAPE     N17917   2.556   3.971   1.755
  161SAPE   HN117918   2.633   3.904   1.779
  161SAPE   HN217919   2.525   3.953   1.658
  161SAPE   HN317920   2.597   4.066   1.762
  161SAPE   C1217921   2.433   3.955   1.835
  161SAPE  H12A17922   2.389   3.853   1.833
  161SAPE  H12B17923   2.355   4.025   1.799
  161SAPE   C1117924   2.459   3.990   1.983
  161SAPE  H11A17925   2.508   3.901   2.029
  161SAPE  H11B17926   2.354   3.995   2.019
  161SAPE     P17927   2.468   4.248   2.017
  161SAPE   O1317928   2.583   4.347   2.011
  161SAPE   O1417929   2.349   4.263   1.936
  161SAPE   O1217930   2.541   4.110   1.987
  161SAPE   O1117931   2.417   4.222   2.164
  161SAPE    C117932   2.486   4.148   2.273
  161SAPE    HA17933   2.412   4.111   2.347
  161SAPE    HB17934   2.550   4.067   2.233
  161SAPE    C217935   2.575   4.243   2.352
  161SAPE    HS17936   2.664   4.262   2.289
  161SAPE   O2117937   2.613   4.184   2.471
  161SAPE   C2117938   2.709   4.092   2.459
  161SAPE   O2217939   2.756   4.049   2.357
  161SAPE   C2217940   2.753   4.042   2.596
  161SAPE   H2R17941   2.686   3.956   2.619
  161SAPE   H2S17942   2.859   4.014   2.574
  161SAPE    C317943   2.517   4.382   2.384
  161SAPE    HX17944   2.502   4.435   2.287
  161SAPE    HY17945   2.597   4.439   2.437
  161SAPE   O3117946   2.398   4.362   2.454
  161SAPE   C3117947   2.396   4.349   2.591
  161SAPE   O3217948   2.482   4.395   2.663
  161SAPE   C3217949   2.276   4.267   2.640
  161SAPE   H2X17950   2.299   4.171   2.587
  161SAPE   H2Y17951   2.184   4.311   2.597
  161SAPE   C2317952   2.731   4.140   2.713
  161SAPE   H3R17953   2.622   4.161   2.716
  161SAPE   H3S17954   2.782   4.238   2.699
  161SAPE   C2417955   2.785   4.069   2.837
  161SAPE   H4R17956   2.895   4.068   2.854
  161SAPE   H4S17957   2.758   3.962   2.850
  161SAPE   C2517958   2.711   4.133   2.955
  161SAPE   H5R17959   2.624   4.192   2.922
  161SAPE   C2617960   2.731   4.117   3.087
  161SAPE   H6R17961   2.664   4.180   3.147
  161SAPE   C2717962   2.836   4.034   3.158
  161SAPE   H7R17963   2.887   4.091   3.239
  161SAPE   H7S17964   2.924   4.011   3.093
  161SAPE   C2817965   2.775   3.915   3.213
  161SAPE   H8R17966   2.721   3.845   3.147
  161SAPE   C2917967   2.756   3.891   3.341
  161SAPE   H9R17968   2.704   3.802   3.377
  161SAPE  C21017969   2.801   3.981   3.447
  161SAPE  H10R17970   2.726   3.979   3.529
  161SAPE  H10S17971   2.783   4.084   3.409
  161SAPE  C21117972   2.947   3.965   3.482
  161SAPE  H11R17973   3.010   3.929   3.399
  161SAPE  C21217974   2.989   3.957   3.612
  161SAPE  H12R17975   3.093   3.944   3.644
  161SAPE  C21317976   2.898   3.995   3.723
  161SAPE  H13R17977   2.810   4.060   3.702
  161SAPE  H13S17978   2.969   4.053   3.786
  161SAPE  C21417979   2.858   3.872   3.799
  161SAPE  H14R17980   2.946   3.808   3.817
  161SAPE  C21517981   2.740   3.847   3.859
  161SAPE  H15R17982   2.717   3.753   3.913
  161SAPE  C21617983   2.615   3.936   3.839
  161SAPE  H16R17984   2.583   3.920   3.734
  161SAPE  H16S17985   2.640   4.044   3.832
  161SAPE  C21717986   2.497   3.901   3.914
  161SAPE  H17R17987   2.483   3.791   3.920
  161SAPE  H17S17988   2.401   3.951   3.888
  161SAPE  C21817989   2.523   3.930   4.063
  161SAPE  H18R17990   2.551   4.036   4.080
  161SAPE  H18S17991   2.604   3.865   4.104
  161SAPE  C21917992   2.405   3.921   4.151
  161SAPE  H19R17993   2.363   3.822   4.120
  161SAPE  H19S17994   2.331   3.995   4.114
  161SAPE  C22017995   2.419   3.917   4.300
  161SAPE  H20R17996   2.336   3.860   4.349
  161SAPE  H20S17997   2.420   4.021   4.339
  161SAPE  H20T17998   2.510   3.867   4.338
  161SAPE   C3317999   2.267   4.272   2.797
  161SAPE   H3X18000   2.265   4.378   2.829
  161SAPE   H3Y18001   2.360   4.228   2.839
  161SAPE   C3418002   2.141   4.205   2.849
  161SAPE   H4X18003   2.131   4.105   2.803
  161SAPE   H4Y18004   2.062   4.277   2.820
  161SAPE   C3518005   2.146   4.198   3.000
  161SAPE   H5X18006   2.173   4.298   3.039
  161SAPE   H5Y18007   2.228   4.136   3.042
  161SAPE   C3618008   2.023   4.144   3.077
  161SAPE   H6X18009   2.018   4.034   3.061
  161SAPE   H6Y18010   1.935   4.198   3.036
  161SAPE   C3718011   2.023   4.161   3.228
  161SAPE   H7X18012   2.037   4.265   3.265
  161SAPE   H7Y18013   2.109   4.108   3.273
  161SAPE   C3818014   1.898   4.108   3.306
  161SAPE   H8X18015   1.884   3.999   3.289
  161SAPE   H8Y18016   1.805   4.159   3.276
  161SAPE   C3918017   1.913   4.139   3.453
  161SAPE   H9X18018   1.895   4.247   3.475
  161SAPE   H9Y18019   2.015   4.103   3.478
  161SAPE  C31018020   1.816   4.055   3.543
  161SAPE  H10X18021   1.819   3.954   3.497
  161SAPE  H10Y18022   1.716   4.091   3.511
  161SAPE  C31118023   1.846   4.056   3.688
  161SAPE  H11X18024   1.862   4.160   3.724
  161SAPE  H11Y18025   1.942   4.001   3.699
  161SAPE  C31218026   1.729   3.994   3.765
  161SAPE  H12X18027   1.718   3.892   3.723
  161SAPE  H12Y18028   1.642   4.062   3.752
  161SAPE  C31318029   1.773   3.983   3.909
  161SAPE  H13X18030   1.815   4.084   3.925
  161SAPE  H13Y18031   1.851   3.905   3.919
  161SAPE  C31418032   1.661   3.964   4.005
  161SAPE  H14X18033   1.626   3.859   4.003
  161SAPE  H14Y18034   1.582   4.037   3.977
  161SAPE  C31518035   1.699   4.005   4.151
  161SAPE  H15X18036   1.735   4.109   4.138
  161SAPE  H15Y18037   1.786   3.947   4.190
  161SAPE  C31618038   1.590   4.002   4.252
  161SAPE  H16X18039   1.557   3.896   4.261
  161SAPE  H16Y18040   1.499   4.054   4.216
  161SAPE  C31718041   1.629   4.045   4.397
  161SAPE  H17X18042   1.705   3.985   4.451
  161SAPE  H17Y18043   1.538   4.019   4.456
  161SAPE  C31818044   1.651   4.196   4.407
  161SAPE  H18X18045   1.719   4.228   4.325
  161SAPE  H18Y18046   1.682   4.229   4.508
  161SAPE  H18Z18047   1.554   4.242   4.377
  162SAPE     N18048   2.015   6.564   1.964
  162SAPE   HN118049   2.118   6.555   1.981
  162SAPE   HN218050   1.972   6.503   2.037
  162SAPE   HN318051   1.997   6.530   1.868
  162SAPE   C1218052   1.976   6.703   1.979
  162SAPE  H12A18053   1.865   6.708   1.980
  162SAPE  H12B18054   2.016   6.766   1.896
  162SAPE   C1118055   2.030   6.763   2.115
  162SAPE  H11A18056   2.028   6.690   2.198
  162SAPE  H11B18057   1.959   0.069   2.139
  162SAPE     P18058   2.296   6.746   2.130
  162SAPE   O1318059   2.295   6.627   2.045
  162SAPE   O1418060   2.410   0.058   2.115
  162SAPE   O1218061   2.157   0.043   2.103
  162SAPE   O1118062   2.272   6.708   2.280
  162SAPE    C118063   2.326   0.013   2.381
  162SAPE    HA18064   2.432   6.766   2.402
  162SAPE    HB18065   2.314   0.120   2.354
  162SAPE    C218066   2.258   0.002   2.521
  162SAPE    HS18067   2.274   6.678   2.564
  162SAPE   O2118068   2.116   0.016   2.504
  162SAPE   C2118069   2.024   6.752   2.595
  162SAPE   O2218070   2.057   6.708   2.701
  162SAPE   C2218071   1.884   0.007   2.547
  162SAPE   H2R18072   1.864   6.700   2.477
  162SAPE   H2S18073   1.813   6.772   2.632
  162SAPE    C318074   2.305   0.116   2.625
  162SAPE    HX18075   2.247   0.111   2.720
  162SAPE    HY18076   2.280   0.214   2.578
  162SAPE   O3118077   2.450   0.101   2.648
  162SAPE   C3118078   2.491   0.013   2.741
  162SAPE   O3218079   2.418   6.711   2.798
  162SAPE   C3218080   2.645   0.014   2.746
  162SAPE   H2X18081   2.686   0.068   2.659
  162SAPE   H2Y18082   2.678   6.685   2.738
  162SAPE   C2318083   1.879   0.139   2.467
  162SAPE   H3R18084   1.782   0.123   2.414
  162SAPE   H3S18085   1.962   0.142   2.393
  162SAPE   C2418086   1.859   0.262   2.554
  162SAPE   H4R18087   1.777   0.250   2.627
  162SAPE   H4S18088   1.831   0.344   2.485
  162SAPE   C2518089   1.984   0.306   2.625
  162SAPE   H5R18090   2.064   0.345   2.561
  162SAPE   C2618091   2.009   0.298   2.763
  162SAPE   H6R18092   2.105   0.334   2.802
  162SAPE   C2718093   1.918   0.235   2.869
  162SAPE   H7R18094   1.831   0.186   2.822
  162SAPE   H7S18095   1.871   0.318   2.926
  162SAPE   C2818096   1.983   0.128   2.958
  162SAPE   H8R18097   2.028   0.039   2.911
  162SAPE   C2918098   1.999   0.139   3.091
  162SAPE   H9R18099   2.053   0.064   3.151
  162SAPE  C21018100   1.948   0.251   3.179
  162SAPE  H10R18101   1.839   0.238   3.160
  162SAPE  H10S18102   1.979   0.355   3.155
  162SAPE  C21118103   1.968   0.228   3.334
  162SAPE  H11R18104   2.043   0.301   3.371
  162SAPE  C21218105   1.889   0.164   3.420
  162SAPE  H12R18106   1.923   0.162   3.524
  162SAPE  C21318107   1.783   0.072   3.385
  162SAPE  H13R18108   1.823   6.745   3.390
  162SAPE  H13S18109   1.754   0.084   3.279
  162SAPE  C21418110   1.663   0.100   3.467
  162SAPE  H14R18111   1.600   0.178   3.423
  162SAPE  C21518112   1.636   0.055   3.589
  162SAPE  H15R18113   1.539   0.077   3.636
  162SAPE  C21618114   1.713   6.735   3.672
  162SAPE  H16R18115   1.799   0.011   3.719
  162SAPE  H16S18116   1.768   6.658   3.614
  162SAPE  C21718117   1.623   6.661   3.771
  162SAPE  H17R18118   1.667   6.565   3.806
  162SAPE  H17S18119   1.526   6.631   3.727
  162SAPE  C21818120   1.600   6.738   3.903
  162SAPE  H18R18121   1.525   0.042   3.889
  162SAPE  H18S18122   1.694   0.012   3.934
  162SAPE  C21918123   1.557   6.646   4.015
  162SAPE  H19R18124   1.573   6.693   4.114
  162SAPE  H19S18125   1.619   6.554   4.020
  162SAPE  C22018126   1.414   6.627   3.999
  162SAPE  H20R18127   1.380   6.564   4.084
  162SAPE  H20S18128   1.395   6.572   3.904
  162SAPE  H20T18129   1.360   6.723   4.013
  162SAPE   C3318130   2.705   0.073   2.879
  162SAPE   H3X18131   2.665   0.176   2.888
  162SAPE   H3Y18132   2.816   0.081   2.879
  162SAPE   C3418133   2.659   6.775   3.003
  162SAPE   H4X18134   2.691   6.670   2.993
  162SAPE   H4Y18135   2.548   6.766   3.005
  162SAPE   C3518136   2.715   0.043   3.139
  162SAPE   H5X18137   2.631   0.089   3.194
  162SAPE   H5Y18138   2.794   0.119   3.120
  162SAPE   C3618139   2.761   6.704   3.230
  162SAPE   H6X18140   2.841   6.741   3.299
  162SAPE   H6Y18141   2.802   6.619   3.172
  162SAPE   C3718142   2.647   6.669   3.330
  162SAPE   H7X18143   2.556   6.653   3.268
  162SAPE   H7Y18144   2.619   6.752   3.399
  162SAPE   C3818145   2.677   6.547   3.415
  162SAPE   H8X18146   2.768   6.570   3.474
  162SAPE   H8Y18147   2.714   6.464   3.350
  162SAPE   C3918148   2.565   6.506   3.516
  162SAPE   H9X18149   2.490   6.440   3.467
  162SAPE   H9Y18150   2.506   6.591   3.556
  162SAPE  C31018151   2.624   6.435   3.636
  162SAPE  H10X18152   2.663   6.509   3.709
  162SAPE  H10Y18153   2.715   6.380   3.606
  162SAPE  C31118154   2.529   6.347   3.711
  162SAPE  H11X18155   2.435   6.406   3.713
  162SAPE  H11Y18156   2.556   6.334   3.818
  162SAPE  C31218157   2.508   6.208   3.648
  162SAPE  H12X18158   2.608   6.159   3.642
  162SAPE  H12Y18159   2.476   6.219   3.542
  162SAPE  C31318160   2.401   6.120   3.722
  162SAPE  H13X18161   2.345   6.069   3.642
  162SAPE  H13Y18162   2.332   6.184   3.781
  162SAPE  C31418163   2.461   6.019   3.813
  162SAPE  H14X18164   2.490   6.070   3.907
  162SAPE  H14Y18165   2.556   5.985   3.766
  162SAPE  C31518166   2.362   5.903   3.848
  162SAPE  H15X18167   2.427   5.824   3.892
  162SAPE  H15Y18168   2.319   5.870   3.752
  162SAPE  C31618169   2.246   5.951   3.943
  162SAPE  H16X18170   2.187   6.032   3.894
  162SAPE  H16Y18171   2.303   6.006   4.020
  162SAPE  C31718172   2.148   5.844   3.997
  162SAPE  H17X18173   2.203   5.761   4.046
  162SAPE  H17Y18174   2.101   5.801   3.907
  162SAPE  C31818175   2.046   5.898   4.095
  162SAPE  H18X18176   1.974   5.972   4.056
  162SAPE  H18Y18177   2.103   5.934   4.183
  162SAPE  H18Z18178   1.976   5.821   4.134
  163SAPE     N18179   0.947   3.382   1.727
  163SAPE   HN118180   0.990   3.288   1.741
  163SAPE   HN218181   0.914   3.397   1.629
  163SAPE   HN318182   1.023   3.452   1.736
  163SAPE   C1218183   0.833   3.410   1.822
  163SAPE  H12A18184   0.750   3.338   1.805
  163SAPE  H12B18185   0.788   3.510   1.803
  163SAPE   C1118186   0.879   3.411   1.968
  163SAPE  H11A18187   0.908   3.309   2.001
  163SAPE  H11B18188   0.805   3.453   2.039
  163SAPE     P18189   1.045   3.565   2.111
  163SAPE   O1318190   1.189   3.574   2.135
  163SAPE   O1418191   0.979   3.698   2.122
  163SAPE   O1218192   1.001   3.483   1.979
  163SAPE   O1118193   0.984   3.475   2.222
  163SAPE    C118194   0.891   3.530   2.317
  163SAPE    HA18195   0.817   3.600   2.273
  163SAPE    HB18196   0.828   3.444   2.348
  163SAPE    C218197   0.966   3.579   2.453
  163SAPE    HS18198   0.890   3.591   2.532
  163SAPE   O2118199   1.027   3.710   2.435
  163SAPE   C2118200   0.946   3.813   2.450
  163SAPE   O2218201   0.836   3.804   2.498
  163SAPE   C2218202   1.005   3.934   2.377
  163SAPE   H2R18203   1.089   3.898   2.314
  163SAPE   H2S18204   0.923   3.972   2.313
  163SAPE    C318205   1.072   3.472   2.491
  163SAPE    HX18206   1.152   3.481   2.413
  163SAPE    HY18207   1.032   3.371   2.472
  163SAPE   O3118208   1.128   3.496   2.618
  163SAPE   C3118209   1.050   3.454   2.723
  163SAPE   O3218210   0.955   3.379   2.712
  163SAPE   C3218211   1.111   3.507   2.855
  163SAPE   H2X18212   1.187   3.584   2.829
  163SAPE   H2Y18213   1.170   3.418   2.883
  163SAPE   C2318214   1.035   4.049   2.471
  163SAPE   H3R18215   0.950   4.059   2.542
  163SAPE   H3S18216   1.033   4.141   2.409
  163SAPE   C2418217   1.170   4.036   2.550
  163SAPE   H4R18218   1.249   4.033   2.471
  163SAPE   H4S18219   1.183   3.940   2.603
  163SAPE   C2518220   1.184   4.158   2.640
  163SAPE   H5R18221   1.194   4.255   2.588
  163SAPE   C2618222   1.173   4.165   2.775
  163SAPE   H6R18223   1.190   4.261   2.825
  163SAPE   C2718224   1.139   4.045   2.862
  163SAPE   H7R18225   1.202   4.055   2.952
  163SAPE   H7S18226   1.175   3.950   2.816
  163SAPE   C2818227   0.995   4.047   2.887
  163SAPE   H8R18228   0.929   4.024   2.801
  163SAPE   C2918229   0.933   4.062   3.005
  163SAPE   H9R18230   0.823   4.072   2.996
  163SAPE  C21018231   0.994   4.072   3.143
  163SAPE  H10R18232   0.929   4.123   3.218
  163SAPE  H10S18233   1.090   4.128   3.143
  163SAPE  C21118234   1.019   3.929   3.184
  163SAPE  H11R18235   1.061   3.867   3.103
  163SAPE  C21218236   1.007   3.875   3.305
  163SAPE  H12R18237   1.027   3.768   3.319
  163SAPE  C21318238   0.962   3.942   3.438
  163SAPE  H13R18239   1.000   4.046   3.425
  163SAPE  H13S18240   1.015   3.905   3.529
  163SAPE  C21418241   0.818   3.963   3.451
  163SAPE  H14R18242   0.764   3.924   3.364
  163SAPE  C21518243   0.757   4.008   3.566
  163SAPE  H15R18244   0.648   4.023   3.565
  163SAPE  C21618245   0.837   4.048   3.691
  163SAPE  H16R18246   0.833   4.156   3.717
  163SAPE  H16S18247   0.946   4.023   3.689
  163SAPE  C21718248   0.789   3.970   3.818
  163SAPE  H17R18249   0.824   3.865   3.810
  163SAPE  H17S18250   0.679   3.969   3.833
  163SAPE  C21818251   0.850   4.029   3.951
  163SAPE  H18R18252   0.830   4.137   3.968
  163SAPE  H18S18253   0.959   4.017   3.932
  163SAPE  C21918254   0.805   3.965   4.078
  163SAPE  H19R18255   0.815   3.855   4.087
  163SAPE  H19S18256   0.701   3.997   4.102
  163SAPE  C22018257   0.888   4.030   4.188
  163SAPE  H20R18258   0.994   4.031   4.154
  163SAPE  H20S18259   0.873   3.991   4.291
  163SAPE  H20T18260   0.863   4.138   4.186
  163SAPE   C3318261   1.008   3.563   2.951
  163SAPE   H3X18262   0.919   3.497   2.957
  163SAPE   H3Y18263   0.972   3.660   2.912
  163SAPE   C3418264   1.063   3.583   3.092
  163SAPE   H4X18265   0.981   3.636   3.145
  163SAPE   H4Y18266   1.155   3.645   3.086
  163SAPE   C3518267   1.096   3.461   3.172
  163SAPE   H5X18268   1.204   3.444   3.153
  163SAPE   H5Y18269   1.022   3.385   3.139
  163SAPE   C3618270   1.101   3.487   3.324
  163SAPE   H6X18271   1.157   3.582   3.335
  163SAPE   H6Y18272   1.148   3.398   3.370
  163SAPE   C3718273   0.964   3.504   3.391
  163SAPE   H7X18274   0.916   3.405   3.376
  163SAPE   H7Y18275   0.905   3.589   3.350
  163SAPE   C3818276   0.993   3.530   3.544
  163SAPE   H8X18277   1.017   3.639   3.545
  163SAPE   H8Y18278   1.086   3.478   3.575
  163SAPE   C3918279   0.881   3.502   3.649
  163SAPE   H9X18280   0.841   3.400   3.631
  163SAPE   H9Y18281   0.789   3.561   3.632
  163SAPE  C31018282   0.930   3.511   3.798
  163SAPE  H10X18283   0.982   3.609   3.802
  163SAPE  H10Y18284   1.006   3.432   3.813
  163SAPE  C31118285   0.819   3.503   3.902
  163SAPE  H11X18286   0.783   3.399   3.897
  163SAPE  H11Y18287   0.742   3.576   3.869
  163SAPE  C31218288   0.862   3.547   4.041
  163SAPE  H12X18289   0.903   3.649   4.031
  163SAPE  H12Y18290   0.942   3.476   4.071
  163SAPE  C31318291   0.747   3.551   4.146
  163SAPE  H13X18292   0.684   3.460   4.140
  163SAPE  H13Y18293   0.679   3.631   4.109
  163SAPE  C31418294   0.784   3.602   4.285
  163SAPE  H14X18295   0.691   3.628   4.339
  163SAPE  H14Y18296   0.846   3.694   4.284
  163SAPE  C31518297   0.869   3.501   4.370
  163SAPE  H15X18298   0.927   3.562   4.442
  163SAPE  H15Y18299   0.929   3.439   4.300
  163SAPE  C31618300   0.774   3.409   4.455
  163SAPE  H16X18301   0.704   3.470   4.516
  163SAPE  H16Y18302   0.837   3.360   4.531
  163SAPE  C31718303   0.705   3.301   4.373
  163SAPE  H17X18304   0.775   3.238   4.314
  163SAPE  H17Y18305   0.639   3.352   4.300
  163SAPE  C31818306   0.612   3.198   4.448
  163SAPE  H18X18307   0.529   3.265   4.479
  163SAPE  H18Y18308   0.661   3.146   4.533
  163SAPE  H18Z18309   0.581   3.122   4.373
  164SAPE     N18310   6.464   4.314   1.885
  164SAPE   HN118311   6.482   4.263   1.974
  164SAPE   HN218312   6.437   4.407   1.922
  164SAPE   HN318313   6.381   4.276   1.834
  164SAPE   C1218314   6.578   4.331   1.796
  164SAPE  H12A18315   6.552   4.408   1.719
  164SAPE  H12B18316   6.605   4.232   1.752
  164SAPE   C1118317   6.709   4.393   1.858
  164SAPE  H11A18318   6.762   4.436   1.771
  164SAPE  H11B18319   6.776   4.314   1.899
  164SAPE     P18320   0.015   4.582   2.004
  164SAPE   O1318321   0.148   4.519   1.984
  164SAPE   O1418322   6.772   4.712   1.934
  164SAPE   O1218323   6.679   4.488   1.956
  164SAPE   O1118324   6.762   4.602   2.158
  164SAPE    C118325   0.083   4.677   2.230
  164SAPE    HA18326   0.151   4.605   2.281
  164SAPE    HB18327   0.159   4.734   2.173
  164SAPE    C218328   0.022   4.784   2.324
  164SAPE    HS18329   0.106   4.842   2.368
  164SAPE   O2118330   6.720   4.740   2.438
  164SAPE   C2118331   0.017   4.679   2.529
  164SAPE   O2218332   0.139   4.659   2.528
  164SAPE   C2218333   6.699   4.619   2.636
  164SAPE   H2R18334   6.597   4.604   2.594
  164SAPE   H2S18335   6.731   4.518   2.669
  164SAPE    C318336   6.714   4.880   2.235
  164SAPE    HX18337   6.637   4.821   2.181
  164SAPE    HY18338   6.775   4.930   2.158
  164SAPE   O3118339   6.657   4.988   2.310
  164SAPE   C3118340   6.525   4.986   2.337
  164SAPE   O3218341   6.446   4.902   2.314
  164SAPE   C3218342   6.491   5.107   2.419
  164SAPE   H2X18343   6.463   5.183   2.343
  164SAPE   H2Y18344   6.578   5.152   2.471
  164SAPE   C2318345   6.696   4.717   2.756
  164SAPE   H3R18346   6.607   4.691   2.818
  164SAPE   H3S18347   6.672   4.819   2.717
  164SAPE   C2418348   0.038   4.716   2.849
  164SAPE   H4R18349   0.032   4.801   2.921
  164SAPE   H4S18350   0.137   4.737   2.804
  164SAPE   C2518351   0.030   4.587   2.925
  164SAPE   H5R18352   0.060   4.493   2.878
  164SAPE   C2618353   6.760   4.564   3.047
  164SAPE   H6R18354   6.762   4.462   3.089
  164SAPE   C2718355   6.730   4.674   3.142
  164SAPE   H7R18356   6.773   4.773   3.115
  164SAPE   H7S18357   0.006   4.646   3.235
  164SAPE   C2818358   6.587   4.700   3.156
  164SAPE   H8R18359   6.530   4.694   3.062
  164SAPE   C2918360   6.521   4.722   3.273
  164SAPE   H9R18361   6.411   4.725   3.275
  164SAPE  C21018362   6.585   4.724   3.408
  164SAPE  H10R18363   6.696   4.730   3.408
  164SAPE  H10S18364   6.566   4.622   3.446
  164SAPE  C21118365   6.521   4.825   3.502
  164SAPE  H11R18366   6.508   4.920   3.447
  164SAPE  C21218367   6.473   4.814   3.629
  164SAPE  H12R18368   6.411   4.894   3.671
  164SAPE  C21318369   6.466   4.691   3.722
  164SAPE  H13R18370   6.498   4.717   3.825
  164SAPE  H13S18371   6.529   4.604   3.692
  164SAPE  C21418372   6.319   4.646   3.721
  164SAPE  H14R18373   6.288   4.628   3.617
  164SAPE  C21518374   6.230   4.632   3.821
  164SAPE  H15R18375   6.128   4.600   3.797
  164SAPE  C21618376   6.253   4.663   3.962
  164SAPE  H16R18377   6.350   4.718   3.971
  164SAPE  H16S18378   6.262   4.566   4.015
  164SAPE  C21718379   6.153   4.752   4.027
  164SAPE  H17R18380   6.052   4.706   4.023
  164SAPE  H17S18381   6.152   4.856   3.986
  164SAPE  C21818382   6.177   4.785   4.181
  164SAPE  H18R18383   6.286   4.798   4.199
  164SAPE  H18S18384   6.152   4.690   4.234
  164SAPE  C21918385   6.088   4.893   4.247
  164SAPE  H19R18386   5.982   4.866   4.228
  164SAPE  H19S18387   6.112   4.990   4.200
  164SAPE  C22018388   6.124   4.917   4.392
  164SAPE  H20R18389   6.142   4.821   4.445
  164SAPE  H20S18390   6.042   4.967   4.447
  164SAPE  H20T18391   6.222   4.970   4.389
  164SAPE   C3318392   6.382   5.076   2.524
  164SAPE   H3X18393   6.291   5.032   2.478
  164SAPE   H3Y18394   6.357   5.173   2.571
  164SAPE   C3418395   6.427   4.987   2.640
  164SAPE   H4X18396   6.513   5.034   2.693
  164SAPE   H4Y18397   6.465   4.889   2.602
  164SAPE   C3518398   6.311   4.941   2.723
  164SAPE   H5X18399   6.236   4.897   2.654
  164SAPE   H5Y18400   6.260   5.035   2.752
  164SAPE   C3618401   6.336   4.858   2.850
  164SAPE   H6X18402   6.413   4.897   2.919
  164SAPE   H6Y18403   6.366   4.755   2.819
  164SAPE   C3718404   6.209   4.861   2.937
  164SAPE   H7X18405   6.123   4.815   2.883
  164SAPE   H7Y18406   6.185   4.969   2.951
  164SAPE   C3818407   6.218   4.785   3.067
  164SAPE   H8X18408   6.281   4.848   3.134
  164SAPE   H8Y18409   6.253   4.682   3.047
  164SAPE   C3918410   6.077   4.765   3.125
  164SAPE   H9X18411   6.023   4.689   3.063
  164SAPE   H9Y18412   6.020   4.859   3.115
  164SAPE  C31018413   6.077   4.741   3.276
  164SAPE  H10X18414   6.129   4.651   3.315
  164SAPE  H10Y18415   5.970   4.720   3.301
  164SAPE  C31118416   6.103   4.873   3.346
  164SAPE  H11X18417   6.024   4.948   3.324
  164SAPE  H11Y18418   6.205   4.910   3.320
  164SAPE  C31218419   6.100   4.863   3.503
  164SAPE  H12X18420   6.199   4.816   3.523
  164SAPE  H12Y18421   6.027   4.785   3.534
  164SAPE  C31318422   6.090   5.002   3.567
  164SAPE  H13X18423   6.002   5.053   3.522
  164SAPE  H13Y18424   6.176   5.065   3.538
  164SAPE  C31418425   6.093   4.995   3.716
  164SAPE  H14X18426   6.178   4.931   3.748
  164SAPE  H14Y18427   6.003   4.930   3.732
  164SAPE  C31518428   6.074   5.131   3.775
  164SAPE  H15X18429   5.973   5.173   3.757
  164SAPE  H15Y18430   6.145   5.203   3.727
  164SAPE  C31618431   6.095   5.152   3.922
  164SAPE  H16X18432   6.202   5.142   3.953
  164SAPE  H16Y18433   6.046   5.070   3.978
  164SAPE  C31718434   6.050   5.291   3.963
  164SAPE  H17X18435   5.950   5.311   3.920
  164SAPE  H17Y18436   6.131   5.353   3.918
  164SAPE  C31818437   6.025   5.318   4.114
  164SAPE  H18X18438   6.113   5.278   4.170
  164SAPE  H18Y18439   5.942   5.251   4.142
  164SAPE  H18Z18440   6.015   5.424   4.144
  165SAPE     N18441   4.428   1.235   1.887
  165SAPE   HN118442   4.419   1.270   1.984
  165SAPE   HN218443   4.503   1.291   1.842
  165SAPE   HN318444   4.337   1.244   1.837
  165SAPE   C1218445   4.487   1.100   1.874
  165SAPE  H12A18446   4.454   1.051   1.780
  165SAPE  H12B18447   4.451   1.034   1.956
  165SAPE   C1118448   4.641   1.108   1.882
  165SAPE  H11A18449   4.698   1.162   1.804
  165SAPE  H11B18450   4.660   1.000   1.869
  165SAPE     P18451   4.814   1.133   2.078
  165SAPE   O1318452   4.921   1.188   1.991
  165SAPE   O1418453   4.809   1.188   2.212
  165SAPE   O1218454   4.672   1.154   2.009
  165SAPE   O1118455   4.830   0.974   2.082
  165SAPE    C118456   4.755   0.889   2.171
  165SAPE    HA18457   4.649   0.924   2.166
  165SAPE    HB18458   4.756   0.788   2.126
  165SAPE    C218459   4.812   0.878   2.313
  165SAPE    HS18460   4.803   0.971   2.373
  165SAPE   O2118461   4.951   0.843   2.299
  165SAPE   C2118462   5.033   0.906   2.383
  165SAPE   O2218463   4.998   0.983   2.467
  165SAPE   C2218464   5.174   0.848   2.360
  165SAPE   H2R18465   5.176   0.737   2.368
  165SAPE   H2S18466   5.214   0.870   2.259
  165SAPE    C318467   4.737   0.768   2.392
  165SAPE    HX18468   4.776   0.670   2.356
  165SAPE    HY18469   4.630   0.773   2.362
  165SAPE   O3118470   4.750   0.772   2.533
  165SAPE   C3118471   4.848   0.707   2.598
  165SAPE   O3218472   4.924   0.625   2.546
  165SAPE   C3218473   4.840   0.731   2.754
  165SAPE   H2X18474   4.734   0.747   2.782
  165SAPE   H2Y18475   4.889   0.827   2.782
  165SAPE   C2318476   5.272   0.906   2.460
  165SAPE   H3R18477   5.229   0.894   2.562
  165SAPE   H3S18478   5.273   1.014   2.436
  165SAPE   C2418479   5.413   0.846   2.446
  165SAPE   H4R18480   5.470   0.907   2.520
  165SAPE   H4S18481   5.449   0.871   2.343
  165SAPE   C2518482   5.429   0.705   2.487
  165SAPE   H5R18483   5.390   0.634   2.413
  165SAPE   C2618484   5.471   0.656   2.609
  165SAPE   H6R18485   5.497   0.550   2.622
  165SAPE   C2718486   5.519   0.722   2.736
  165SAPE   H7R18487   5.615   0.775   2.716
  165SAPE   H7S18488   5.543   0.639   2.805
  165SAPE   C2818489   5.425   0.820   2.803
  165SAPE   H8R18490   5.378   0.891   2.734
  165SAPE   C2918491   5.374   0.821   2.926
  165SAPE   H9R18492   5.303   0.901   2.952
  165SAPE  C21018493   5.411   0.741   3.049
  165SAPE  H10R18494   5.435   0.818   3.125
  165SAPE  H10S18495   5.497   0.672   3.031
  165SAPE  C21118496   5.294   0.662   3.101
  165SAPE  H11R18497   5.199   0.658   3.046
  165SAPE  C21218498   5.291   0.596   3.217
  165SAPE  H12R18499   5.201   0.549   3.261
  165SAPE  C21318500   5.406   0.581   3.313
  165SAPE  H13R18501   5.502   0.562   3.261
  165SAPE  H13S18502   5.390   0.492   3.378
  165SAPE  C21418503   5.425   0.704   3.396
  165SAPE  H14R18504   5.468   0.777   3.325
  165SAPE  C21518505   5.428   0.735   3.526
  165SAPE  H15R18506   5.436   0.842   3.550
  165SAPE  C21618507   5.381   0.642   3.641
  165SAPE  H16R18508   5.469   0.624   3.706
  165SAPE  H16S18509   5.352   0.541   3.604
  165SAPE  C21718510   5.269   0.689   3.735
  165SAPE  H17R18511   5.169   0.681   3.686
  165SAPE  H17S18512   5.294   0.795   3.754
  165SAPE  C21818513   5.250   0.617   3.866
  165SAPE  H18R18514   5.352   0.601   3.906
  165SAPE  H18S18515   5.206   0.517   3.844
  165SAPE  C21918516   5.158   0.681   3.968
  165SAPE  H19R18517   5.083   0.601   3.988
  165SAPE  H19S18518   5.104   0.766   3.922
  165SAPE  C22018519   5.223   0.733   4.096
  165SAPE  H20R18520   5.304   0.664   4.128
  165SAPE  H20S18521   5.152   0.731   4.181
  165SAPE  H20T18522   5.279   0.828   4.088
  165SAPE   C3318523   4.887   0.617   2.853
  165SAPE   H3X18524   4.998   0.621   2.862
  165SAPE   H3Y18525   4.860   0.518   2.809
  165SAPE   C3418526   4.823   0.639   2.990
  165SAPE   H4X18527   4.715   0.615   3.002
  165SAPE   H4Y18528   4.839   0.744   3.025
  165SAPE   C3518529   4.891   0.560   3.110
  165SAPE   H5X18530   5.000   0.582   3.116
  165SAPE   H5Y18531   4.888   0.450   3.094
  165SAPE   C3618532   4.824   0.594   3.240
  165SAPE   H6X18533   4.714   0.587   3.224
  165SAPE   H6Y18534   4.846   0.700   3.264
  165SAPE   C3718535   4.864   0.516   3.360
  165SAPE   H7X18536   4.970   0.548   3.372
  165SAPE   H7Y18537   4.850   0.406   3.353
  165SAPE   C3818538   4.777   0.563   3.485
  165SAPE   H8X18539   4.673   0.529   3.467
  165SAPE   H8Y18540   4.785   0.674   3.490
  165SAPE   C3918541   4.830   0.500   3.613
  165SAPE   H9X18542   4.936   0.526   3.634
  165SAPE   H9Y18543   4.823   0.389   3.600
  165SAPE  C31018544   4.758   0.552   3.738
  165SAPE  H10X18545   4.649   0.534   3.725
  165SAPE  H10Y18546   4.775   0.661   3.736
  165SAPE  C31118547   4.806   0.496   3.873
  165SAPE  H11X18548   4.917   0.504   3.878
  165SAPE  H11Y18549   4.782   0.389   3.889
  165SAPE  C31218550   4.758   0.584   3.985
  165SAPE  H12X18551   4.647   0.588   3.985
  165SAPE  H12Y18552   4.804   0.680   3.955
  165SAPE  C31318553   4.801   0.536   4.126
  165SAPE  H13X18554   4.787   0.621   4.197
  165SAPE  H13Y18555   4.908   0.506   4.126
  165SAPE  C31418556   4.718   0.418   4.170
  165SAPE  H14X18557   4.740   0.316   4.133
  165SAPE  H14Y18558   4.610   0.440   4.158
  165SAPE  C31518559   4.727   0.410   4.324
  165SAPE  H15X18560   4.696   0.509   4.366
  165SAPE  H15Y18561   4.829   0.381   4.355
  165SAPE  C31618562   4.633   0.302   4.383
  165SAPE  H16X18563   4.637   0.213   4.315
  165SAPE  H16Y18564   4.528   0.334   4.366
  165SAPE  C31718565   4.654   0.265   4.528
  165SAPE  H17X18566   4.690   0.354   4.584
  165SAPE  H17Y18567   4.737   0.191   4.522
  165SAPE  C31818568   4.536   0.195   4.603
  165SAPE  H18X18569   4.490   0.104   4.557
  165SAPE  H18Y18570   4.454   0.271   4.601
  165SAPE  H18Z18571   4.562   0.184   4.711
  166SAPE     N18572   0.668   6.202   2.110
  166SAPE   HN118573   0.666   6.280   2.179
  166SAPE   HN218574   0.610   6.126   2.150
  166SAPE   HN318575   0.763   6.160   2.100
  166SAPE   C1218576   0.598   6.253   1.986
  166SAPE  H12A18577   0.590   6.166   1.917
  166SAPE  H12B18578   0.669   6.328   1.944
  166SAPE   C1118579   0.468   6.317   1.998
  166SAPE  H11A18580   0.398   6.248   2.050
  166SAPE  H11B18581   0.426   6.355   1.903
  166SAPE     P18582   0.518   6.571   2.052
  166SAPE   O1318583   0.646   6.565   1.981
  166SAPE   O1418584   0.412   6.636   1.970
  166SAPE   O1218585   0.477   6.426   2.094
  166SAPE   O1118586   0.539   6.650   2.182
  166SAPE    C118587   0.418   6.670   2.271
  166SAPE    HA18588   0.363   6.758   2.234
  166SAPE    HB18589   0.342   6.590   2.258
  166SAPE    C218590   0.446   6.679   2.424
  166SAPE    HS18591   0.521   6.761   2.422
  166SAPE   O2118592   0.508   6.560   2.473
  166SAPE   C2118593   0.578   6.569   2.591
  166SAPE   O2218594   0.600   6.675   2.650
  166SAPE   C2218595   0.630   6.428   2.623
  166SAPE   H2R18596   0.552   6.353   2.598
  166SAPE   H2S18597   0.719   6.399   2.562
  166SAPE    C318598   0.325   6.709   2.509
  166SAPE    HX18599   0.291   0.033   2.478
  166SAPE    HY18600   0.340   6.717   2.619
  166SAPE   O3118601   0.224   6.617   2.479
  166SAPE   C3118602   0.223   6.509   2.551
  166SAPE   O3218603   0.299   6.478   2.638
  166SAPE   C3218604   0.097   6.429   2.511
  166SAPE   H2X18605   0.128   6.327   2.541
  166SAPE   H2Y18606   0.094   6.431   2.400
  166SAPE   C2318607   0.686   6.417   2.762
  166SAPE   H3R18608   0.596   6.395   2.824
  166SAPE   H3S18609   0.730   6.515   2.790
  166SAPE   C2418610   0.793   6.308   2.770
  166SAPE   H4R18611   0.832   6.329   2.872
  166SAPE   H4S18612   0.879   6.323   2.702
  166SAPE   C2518613   0.736   6.167   2.782
  166SAPE   H5R18614   0.688   6.124   2.693
  166SAPE   C2618615   0.735   6.088   2.891
  166SAPE   H6R18616   0.692   5.986   2.889
  166SAPE   C2718617   0.771   6.136   3.031
  166SAPE   H7R18618   0.726   6.237   3.039
  166SAPE   H7S18619   0.878   6.163   3.039
  166SAPE   C2818620   0.728   6.041   3.148
  166SAPE   H8R18621   0.765   5.938   3.147
  166SAPE   C2918622   0.626   6.065   3.234
  166SAPE   H9R18623   0.614   6.007   3.327
  166SAPE  C21018624   0.556   6.199   3.242
  166SAPE  H10R18625   0.617   6.288   3.220
  166SAPE  H10S18626   0.526   6.208   3.348
  166SAPE  C21118627   0.436   6.215   3.164
  166SAPE  H11R18628   0.453   6.235   3.057
  166SAPE  C21218629   0.309   6.224   3.210
  166SAPE  H12R18630   0.230   6.230   3.135
  166SAPE  C21318631   0.261   6.200   3.356
  166SAPE  H13R18632   0.328   6.125   3.403
  166SAPE  H13S18633   0.163   6.148   3.352
  166SAPE  C21418634   0.247   6.330   3.434
  166SAPE  H14R18635   0.263   6.424   3.378
  166SAPE  C21518636   0.220   6.345   3.568
  166SAPE  H15R18637   0.220   6.441   3.621
  166SAPE  C21618638   0.188   6.236   3.663
  166SAPE  H16R18639   0.096   6.183   3.629
  166SAPE  H16S18640   0.162   6.268   3.766
  166SAPE  C21718641   0.299   6.136   3.689
  166SAPE  H17R18642   0.358   6.096   3.604
  166SAPE  H17S18643   0.250   6.044   3.728
  166SAPE  C21818644   0.407   6.182   3.791
  166SAPE  H18R18645   0.350   6.207   3.882
  166SAPE  H18S18646   0.447   6.273   3.742
  166SAPE  C21918647   0.517   6.084   3.826
  166SAPE  H19R18648   0.559   6.053   3.727
  166SAPE  H19S18649   0.465   6.000   3.876
  166SAPE  C22018650   0.614   6.147   3.926
  166SAPE  H20R18651   0.675   6.076   3.985
  166SAPE  H20S18652   0.575   6.218   4.003
  166SAPE  H20T18653   0.688   6.206   3.868
  166SAPE   C3318654   6.745   6.462   2.588
  166SAPE   H3X18655   6.702   6.561   2.560
  166SAPE   H3Y18656   6.769   6.460   2.696
  166SAPE   C3418657   6.637   6.361   2.554
  166SAPE   H4X18658   6.675   6.272   2.499
  166SAPE   H4Y18659   6.554   6.405   2.494
  166SAPE   C3518660   6.586   6.302   2.684
  166SAPE   H5X18661   6.490   6.248   2.677
  166SAPE   H5Y18662   6.558   6.385   2.753
  166SAPE   C3618663   6.678   6.203   2.763
  166SAPE   H6X18664   6.764   6.264   2.800
  166SAPE   H6Y18665   6.697   6.141   2.672
  166SAPE   C3718666   6.610   6.127   2.882
  166SAPE   H7X18667   6.516   6.082   2.844
  166SAPE   H7Y18668   6.571   6.211   2.944
  166SAPE   C3818669   6.702   6.040   2.970
  166SAPE   H8X18670   0.020   6.097   2.986
  166SAPE   H8Y18671   6.731   5.947   2.916
  166SAPE   C3918672   6.642   5.996   3.109
  166SAPE   H9X18673   6.558   5.933   3.076
  166SAPE   H9Y18674   6.594   6.086   3.152
  166SAPE  C31018675   6.741   5.928   3.216
  166SAPE  H10X18676   0.055   5.988   3.240
  166SAPE  H10Y18677   6.763   5.828   3.174
  166SAPE  C31118678   6.671   5.900   3.351
  166SAPE  H11X18679   6.710   5.808   3.401
  166SAPE  H11Y18680   6.570   5.863   3.324
  166SAPE  C31218681   6.667   6.008   3.458
  166SAPE  H12X18682   6.620   6.097   3.410
  166SAPE  H12Y18683   6.773   6.026   3.486
  166SAPE  C31318684   6.575   5.984   3.581
  166SAPE  H13X18685   6.609   5.894   3.637
  166SAPE  H13Y18686   6.472   5.959   3.549
  166SAPE  C31418687   6.583   6.100   3.680
  166SAPE  H14X18688   6.571   6.202   3.636
  166SAPE  H14Y18689   6.689   6.096   3.715
  166SAPE  C31518690   6.487   6.084   3.793
  166SAPE  H15X18691   6.513   5.991   3.846
  166SAPE  H15Y18692   6.381   6.073   3.760
  166SAPE  C31618693   6.505   6.204   3.887
  166SAPE  H16X18694   6.483   6.296   3.830
  166SAPE  H16Y18695   6.610   6.205   3.922
  166SAPE  C31718696   6.411   6.191   4.014
  166SAPE  H17X18697   6.417   6.103   4.081
  166SAPE  H17Y18698   6.308   6.184   3.972
  166SAPE  C31818699   6.420   6.318   4.105
  166SAPE  H18X18700   6.508   6.303   4.171
  166SAPE  H18Y18701   6.328   6.315   4.167
  166SAPE  H18Z18702   6.417   6.412   4.045
  167SAPE     N18703   6.007   4.267   2.343
  167SAPE   HN118704   5.933   4.213   2.294
  167SAPE   HN218705   6.077   4.200   2.379
  167SAPE   HN318706   5.961   4.332   2.409
  167SAPE   C1218707   6.079   4.345   2.233
  167SAPE  H12A18708   6.150   4.409   2.289
  167SAPE  H12B18709   6.001   4.413   2.190
  167SAPE   C1118710   6.148   4.240   2.143
  167SAPE  H11A18711   6.208   4.289   2.064
  167SAPE  H11B18712   6.064   4.183   2.098
  167SAPE     P18713   6.335   4.068   2.142
  167SAPE   O1318714   6.268   3.987   2.032
  167SAPE   O1418715   6.449   4.154   2.107
  167SAPE   O1218716   6.236   4.158   2.219
  167SAPE   O1118717   6.386   3.969   2.253
  167SAPE    C118718   6.329   3.844   2.295
  167SAPE    HA18719   6.275   3.813   2.203
  167SAPE    HB18720   6.414   3.774   2.310
  167SAPE    C218721   6.227   3.853   2.405
  167SAPE    HS18722   6.135   3.908   2.373
  167SAPE   O2118723   6.298   3.914   2.509
  167SAPE   C2118724   6.269   4.037   2.537
  167SAPE   O2218725   6.180   4.108   2.486
  167SAPE   C2218726   6.361   4.085   2.650
  167SAPE   H2R18727   6.301   4.117   2.738
  167SAPE   H2S18728   6.419   3.998   2.688
  167SAPE    C318729   6.155   3.726   2.462
  167SAPE    HX18730   6.107   3.697   2.367
  167SAPE    HY18731   6.086   3.750   2.546
  167SAPE   O3118732   6.255   3.634   2.504
  167SAPE   C3118733   6.201   3.516   2.532
  167SAPE   O3218734   6.082   3.490   2.542
  167SAPE   C3218735   6.314   3.415   2.554
  167SAPE   H2X18736   6.371   3.443   2.645
  167SAPE   H2Y18737   6.386   3.420   2.469
  167SAPE   C2318738   6.456   4.196   2.599
  167SAPE   H3R18739   6.400   4.268   2.536
  167SAPE   H3S18740   6.539   4.151   2.541
  167SAPE   C2418741   6.539   4.274   2.700
  167SAPE   H4R18742   6.639   4.313   2.672
  167SAPE   H4S18743   6.556   4.202   2.783
  167SAPE   C2518744   6.458   4.387   2.754
  167SAPE   H5R18745   6.463   4.479   2.694
  167SAPE   C2618746   6.396   4.402   2.875
  167SAPE   H6R18747   6.345   4.496   2.901
  167SAPE   C2718748   6.382   4.291   2.979
  167SAPE   H7R18749   6.405   4.196   2.927
  167SAPE   H7S18750   6.278   4.271   3.014
  167SAPE   C2818751   6.482   4.316   3.087
  167SAPE   H8R18752   6.582   4.342   3.049
  167SAPE   C2918753   6.473   4.317   3.219
  167SAPE   H9R18754   6.563   4.327   3.282
  167SAPE  C21018755   6.352   4.284   3.296
  167SAPE  H10R18756   6.320   4.181   3.270
  167SAPE  H10S18757   6.271   4.344   3.249
  167SAPE  C21118758   6.356   4.310   3.445
  167SAPE  H11R18759   6.422   4.396   3.467
  167SAPE  C21218760   6.293   4.245   3.545
  167SAPE  H12R18761   6.300   4.286   3.647
  167SAPE  C21318762   6.196   4.125   3.528
  167SAPE  H13R18763   6.230   4.077   3.434
  167SAPE  H13S18764   6.095   4.165   3.504
  167SAPE  C21418765   6.187   4.031   3.646
  167SAPE  H14R18766   6.287   4.011   3.688
  167SAPE  C21518767   6.076   3.969   3.697
  167SAPE  H15R18768   6.093   3.885   3.766
  167SAPE  C21618769   5.926   3.979   3.657
  167SAPE  H16R18770   5.903   4.079   3.613
  167SAPE  H16S18771   5.863   3.973   3.748
  167SAPE  C21718772   5.882   3.866   3.569
  167SAPE  H17R18773   5.771   3.863   3.565
  167SAPE  H17S18774   5.908   3.763   3.602
  167SAPE  C21818775   5.934   3.884   3.422
  167SAPE  H18R18776   6.030   3.831   3.402
  167SAPE  H18S18777   5.942   3.989   3.388
  167SAPE  C21918778   5.842   3.839   3.322
  167SAPE  H19R18779   5.873   3.860   3.217
  167SAPE  H19S18780   5.744   3.889   3.327
  167SAPE  C22018781   5.796   3.691   3.331
  167SAPE  H20R18782   5.714   3.675   3.258
  167SAPE  H20S18783   5.762   3.662   3.433
  167SAPE  H20T18784   5.880   3.631   3.292
  167SAPE   C3318785   6.263   3.269   2.562
  167SAPE   H3X18786   6.356   3.209   2.554
  167SAPE   H3Y18787   6.206   3.242   2.471
  167SAPE   C3418788   6.175   3.232   2.679
  167SAPE   H4X18789   6.181   3.123   2.694
  167SAPE   H4Y18790   6.068   3.254   2.654
  167SAPE   C3518791   6.219   3.301   2.808
  167SAPE   H5X18792   6.170   3.401   2.800
  167SAPE   H5Y18793   6.326   3.332   2.815
  167SAPE   C3618794   6.165   3.236   2.934
  167SAPE   H6X18795   6.220   3.148   2.972
  167SAPE   H6Y18796   6.062   3.195   2.927
  167SAPE   C3718797   6.166   3.328   3.065
  167SAPE   H7X18798   6.106   3.420   3.049
  167SAPE   H7Y18799   6.269   3.364   3.085
  167SAPE   C3818800   6.120   3.257   3.193
  167SAPE   H8X18801   6.186   3.174   3.224
  167SAPE   H8Y18802   6.025   3.202   3.174
  167SAPE   C3918803   6.097   3.355   3.310
  167SAPE   H9X18804   6.034   3.445   3.299
  167SAPE   H9Y18805   6.199   3.389   3.339
  167SAPE  C31018806   6.045   3.284   3.442
  167SAPE  H10X18807   6.081   3.179   3.447
  167SAPE  H10Y18808   5.935   3.277   3.436
  167SAPE  C31118809   6.089   3.355   3.566
  167SAPE  H11X18810   6.184   3.411   3.552
  167SAPE  H11Y18811   6.101   3.272   3.639
  167SAPE  C31218812   5.983   3.457   3.615
  167SAPE  H12X18813   5.881   3.414   3.614
  167SAPE  H12Y18814   5.988   3.552   3.557
  167SAPE  C31318815   6.001   3.487   3.763
  167SAPE  H13X18816   6.101   3.535   3.771
  167SAPE  H13Y18817   6.024   3.387   3.804
  167SAPE  C31418818   5.885   3.570   3.827
  167SAPE  H14X18819   5.788   3.519   3.810
  167SAPE  H14Y18820   5.887   3.671   3.781
  167SAPE  C31518821   5.904   3.600   3.975
  167SAPE  H15X18822   5.992   3.667   3.981
  167SAPE  H15Y18823   5.925   3.518   4.047
  167SAPE  C31618824   5.787   3.690   4.017
  167SAPE  H16X18825   5.690   3.641   3.993
  167SAPE  H16Y18826   5.799   3.788   3.965
  167SAPE  C31718827   5.790   3.728   4.169
  167SAPE  H17X18828   5.800   3.629   4.218
  167SAPE  H17Y18829   5.691   3.765   4.201
  167SAPE  C31818830   5.902   3.821   4.213
  167SAPE  H18X18831   5.893   3.840   4.322
  167SAPE  H18Y18832   5.888   3.920   4.165
  167SAPE  H18Z18833   6.004   3.783   4.188
  168SAPE     N18834   2.634   5.173   2.329
  168SAPE   HN118835   2.563   5.154   2.256
  168SAPE   HN218836   2.669   5.271   2.334
  168SAPE   HN318837   2.713   5.106   2.323
  168SAPE   C1218838   2.567   5.127   2.459
  168SAPE  H12A18839   2.629   5.053   2.513
  168SAPE  H12B18840   2.481   5.066   2.423
  168SAPE   C1118841   2.522   5.242   2.557
  168SAPE  H11A18842   2.615   5.284   2.602
  168SAPE  H11B18843   2.464   5.191   2.638
  168SAPE     P18844   2.292   5.358   2.510
  168SAPE   O1318845   2.248   5.443   2.399
  168SAPE   O1418846   2.246   5.213   2.502
  168SAPE   O1218847   2.447   5.353   2.497
  168SAPE   O1118848   2.267   5.428   2.655
  168SAPE    C118849   2.366   5.406   2.759
  168SAPE    HA18850   2.370   5.299   2.788
  168SAPE    HB18851   2.461   5.453   2.726
  168SAPE    C218852   2.322   5.460   2.904
  168SAPE    HS18853   2.300   5.568   2.890
  168SAPE   O2118854   2.433   5.432   2.991
  168SAPE   C2118855   2.508   5.528   3.026
  168SAPE   O2218856   2.508   5.642   2.981
  168SAPE   C2218857   2.605   5.479   3.138
  168SAPE   H2R18858   2.563   5.392   3.192
  168SAPE   H2S18859   2.690   5.437   3.079
  168SAPE    C318860   2.199   5.380   2.946
  168SAPE    HX18861   2.218   5.272   2.929
  168SAPE    HY18862   2.123   5.423   2.878
  168SAPE   O3118863   2.176   5.401   3.086
  168SAPE   C3118864   2.104   5.502   3.126
  168SAPE   O3218865   2.062   5.593   3.062
  168SAPE   C3218866   2.109   5.495   3.282
  168SAPE   H2X18867   2.215   5.495   3.316
  168SAPE   H2Y18868   2.058   5.404   3.318
  168SAPE   C2318869   2.660   5.584   3.232
  168SAPE   H3R18870   2.704   5.666   3.171
  168SAPE   H3S18871   2.747   5.537   3.283
  168SAPE   C2418872   2.558   5.607   3.344
  168SAPE   H4R18873   2.544   5.517   3.408
  168SAPE   H4S18874   2.473   5.630   3.277
  168SAPE   C2518875   2.590   5.727   3.428
  168SAPE   H5R18876   2.620   5.812   3.365
  168SAPE   C2618877   2.606   5.743   3.562
  168SAPE   H6R18878   2.624   5.844   3.601
  168SAPE   C2718879   2.580   5.634   3.664
  168SAPE   H7R18880   2.606   5.534   3.622
  168SAPE   H7S18881   2.470   5.616   3.670
  168SAPE   C2818882   2.646   5.661   3.796
  168SAPE   H8R18883   2.722   5.740   3.803
  168SAPE   C2918884   2.614   5.598   3.908
  168SAPE   H9R18885   2.661   5.628   4.003
  168SAPE  C21018886   2.508   5.490   3.918
  168SAPE  H10R18887   2.471   5.450   3.821
  168SAPE  H10S18888   2.428   5.523   3.988
  168SAPE  C21118889   2.574   5.369   3.982
  168SAPE  H11R18890   2.661   5.331   3.926
  168SAPE  C21218891   2.542   5.295   4.088
  168SAPE  H12R18892   2.599   5.205   4.113
  168SAPE  C21318893   2.432   5.341   4.179
  168SAPE  H13R18894   2.331   5.313   4.142
  168SAPE  H13S18895   2.429   5.451   4.190
  168SAPE  C21418896   2.460   5.268   4.311
  168SAPE  H14R18897   2.437   5.160   4.316
  168SAPE  C21518898   2.497   5.333   4.429
  168SAPE  H15R18899   2.530   5.273   4.516
  168SAPE  C21618900   2.532   5.477   4.445
  168SAPE  H16R18901   2.477   5.520   4.531
  168SAPE  H16S18902   2.501   5.538   4.357
  168SAPE  C21718903   2.682   5.492   4.472
  168SAPE  H17R18904   2.710   5.572   4.401
  168SAPE  H17S18905   2.741   5.401   4.446
  168SAPE  C21818906   2.724   5.523   4.619
  168SAPE  H18R18907   2.699   5.451   4.699
  168SAPE  H18S18908   2.666   5.615   4.641
  168SAPE  C21918909   2.875   5.555   4.625
  168SAPE  H19R18910   2.901   5.602   4.722
  168SAPE  H19S18911   2.892   5.639   4.555
  168SAPE  C22018912   2.979   5.445   4.592
  168SAPE  H20R18913   2.979   5.426   4.483
  168SAPE  H20S18914   2.961   5.357   4.658
  168SAPE  H20T18915   3.077   5.489   4.622
  168SAPE   C3318916   2.064   5.623   3.357
  168SAPE   H3X18917   1.966   5.649   3.313
  168SAPE   H3Y18918   2.145   5.697   3.338
  168SAPE   C3418919   2.046   5.609   3.509
  168SAPE   H4X18920   1.953   5.554   3.533
  168SAPE   H4Y18921   2.034   5.710   3.555
  168SAPE   C3518922   2.158   5.535   3.591
  168SAPE   H5X18923   2.252   5.585   3.560
  168SAPE   H5Y18924   2.169   5.431   3.554
  168SAPE   C3618925   2.159   5.555   3.740
  168SAPE   H6X18926   2.199   5.654   3.769
  168SAPE   H6Y18927   2.229   5.478   3.780
  168SAPE   C3718928   2.014   5.530   3.800
  168SAPE   H7X18929   1.974   5.443   3.743
  168SAPE   H7Y18930   1.952   5.619   3.778
  168SAPE   C3818931   2.026   5.495   3.951
  168SAPE   H8X18932   2.041   5.592   4.003
  168SAPE   H8Y18933   2.111   5.429   3.977
  168SAPE   C3918934   1.899   5.437   4.010
  168SAPE   H9X18935   1.885   5.344   3.952
  168SAPE   H9Y18936   1.818   5.509   3.983
  168SAPE  C31018937   1.912   5.385   4.154
  168SAPE  H10X18938   1.978   5.296   4.148
  168SAPE  H10Y18939   1.814   5.351   4.195
  168SAPE  C31118940   1.986   5.482   4.249
  168SAPE  H11X18941   1.958   5.585   4.220
  168SAPE  H11Y18942   2.096   5.480   4.233
  168SAPE  C31218943   1.953   5.454   4.395
  168SAPE  H12X18944   1.980   5.349   4.418
  168SAPE  H12Y18945   1.844   5.468   4.405
  168SAPE  C31318946   2.031   5.535   4.489
  168SAPE  H13X18947   2.021   5.645   4.481
  168SAPE  H13Y18948   2.137   5.502   4.474
  168SAPE  C31418949   1.994   5.484   4.639
  168SAPE  H14X18950   2.005   5.374   4.643
  168SAPE  H14Y18951   1.889   5.511   4.667
  168SAPE  C31518952   2.072   5.558   4.750
  168SAPE  H15X18953   2.034   5.534   4.852
  168SAPE  H15Y18954   2.052   5.664   4.725
  168SAPE  C31618955   2.226   5.549   4.749
  168SAPE  H16X18956   2.256   5.627   4.823
  168SAPE  H16Y18957   2.263   5.578   4.648
  168SAPE  C31718958   2.274   5.413   4.793
  168SAPE  H17X18959   2.379   5.419   4.758
  168SAPE  H17Y18960   2.214   5.331   4.747
  168SAPE  C31818961   2.270   5.393   4.943
  168SAPE  H18X18962   2.340   5.466   4.989
  168SAPE  H18Y18963   2.304   5.291   4.974
  168SAPE  H18Z18964   2.170   5.408   4.987
  169SAPE     N18965   6.268   2.782   2.010
  169SAPE   HN118966   6.294   2.833   1.923
  169SAPE   HN218967   6.273   2.852   2.087
  169SAPE   HN318968   6.332   2.700   2.014
  169SAPE   C1218969   6.124   2.738   1.997
  169SAPE  H12A18970   6.115   2.669   2.084
  169SAPE  H12B18971   6.119   2.684   1.901
  169SAPE   C1118972   6.035   2.865   2.008
  169SAPE  H11A18973   5.941   2.842   1.951
  169SAPE  H11B18974   6.091   2.944   1.953
  169SAPE     P18975   6.092   2.983   2.232
  169SAPE   O1318976   6.235   2.967   2.193
  169SAPE   O1418977   6.027   3.118   2.216
  169SAPE   O1218978   6.001   2.892   2.144
  169SAPE   O1118979   6.066   2.924   2.373
  169SAPE    C118980   6.092   2.787   2.411
  169SAPE    HA18981   5.999   2.728   2.396
  169SAPE    HB18982   6.167   2.738   2.345
  169SAPE    C218983   6.135   2.775   2.559
  169SAPE    HS18984   6.152   2.665   2.567
  169SAPE   O2118985   6.035   2.816   2.652
  169SAPE   C2118986   5.923   2.735   2.662
  169SAPE   O2218987   5.932   2.617   2.637
  169SAPE   C2218988   5.791   2.800   2.697
  169SAPE   H2R18989   5.805   2.903   2.657
  169SAPE   H2S18990   5.723   2.736   2.637
  169SAPE    C318991   6.268   2.847   2.585
  169SAPE    HX18992   6.252   2.954   2.560
  169SAPE    HY18993   6.342   2.806   2.512
  169SAPE   O3118994   6.308   2.842   2.724
  169SAPE   C3118995   6.418   2.911   2.745
  169SAPE   O3218996   6.477   2.985   2.669
  169SAPE   C3218997   6.432   2.927   2.898
  169SAPE   H2X18998   6.341   2.970   2.944
  169SAPE   H2Y18999   6.514   3.002   2.908
  169SAPE   C2319000   5.749   2.803   2.844
  169SAPE   H3R19001   5.790   2.712   2.894
  169SAPE   H3S19002   5.642   2.825   2.864
  169SAPE   C2419003   5.815   2.914   2.934
  169SAPE   H4R19004   5.784   3.012   2.891
  169SAPE   H4S19005   5.925   2.913   2.923
  169SAPE   C2519006   5.779   2.904   3.077
  169SAPE   H5R19007   5.680   2.945   3.101
  169SAPE   C2619008   5.852   2.841   3.178
  169SAPE   H6R19009   5.804   2.831   3.277
  169SAPE   C2719010   5.984   2.762   3.169
  169SAPE   H7R19011   5.997   2.729   3.064
  169SAPE   H7S19012   5.976   2.664   3.220
  169SAPE   C2819013   6.110   2.832   3.223
  169SAPE   H8R19014   6.166   2.883   3.143
  169SAPE   C2919015   6.162   2.834   3.346
  169SAPE   H9R19016   6.262   2.877   3.360
  169SAPE  C21019017   6.090   2.786   3.470
  169SAPE  H10R19018   6.152   2.716   3.531
  169SAPE  H10S19019   5.997   2.729   3.449
  169SAPE  C21119020   6.048   2.902   3.565
  169SAPE  H11R19021   6.001   2.988   3.516
  169SAPE  C21219022   6.069   2.922   3.701
  169SAPE  H12R19023   6.038   3.020   3.738
  169SAPE  C21319024   6.141   2.826   3.793
  169SAPE  H13R19025   6.247   2.857   3.805
  169SAPE  H13S19026   6.145   2.730   3.738
  169SAPE  C21419027   6.064   2.817   3.923
  169SAPE  H14R19028   5.984   2.741   3.913
  169SAPE  C21519029   6.091   2.883   4.039
  169SAPE  H15R19030   6.026   2.851   4.121
  169SAPE  C21619031   6.177   2.999   4.070
  169SAPE  H16R19032   6.244   3.023   3.985
  169SAPE  H16S19033   6.234   2.979   4.163
  169SAPE  C21719034   6.114   3.141   4.091
  169SAPE  H17R19035   6.059   3.131   4.188
  169SAPE  H17S19036   6.035   3.160   4.016
  169SAPE  C21819037   6.223   3.253   4.091
  169SAPE  H18R19038   6.239   3.290   3.988
  169SAPE  H18S19039   6.324   3.214   4.119
  169SAPE  C21919040   6.183   3.380   4.168
  169SAPE  H19R19041   6.178   3.352   4.276
  169SAPE  H19S19042   6.085   3.417   4.132
  169SAPE  C22019043   6.282   3.495   4.145
  169SAPE  H20R19044   6.257   3.576   4.217
  169SAPE  H20S19045   6.273   3.541   4.044
  169SAPE  H20T19046   6.390   3.472   4.153
  169SAPE   C3319047   6.456   2.803   2.976
  169SAPE   H3X19048   6.370   2.733   2.970
  169SAPE   H3Y19049   6.474   2.832   3.082
  169SAPE   C3419050   6.580   2.724   2.925
  169SAPE   H4X19051   6.665   2.793   2.905
  169SAPE   H4Y19052   6.560   2.676   2.827
  169SAPE   C3519053   6.629   2.618   3.023
  169SAPE   H5X19054   6.550   2.550   3.062
  169SAPE   H5Y19055   6.665   2.666   3.116
  169SAPE   C3619056   6.749   2.538   2.961
  169SAPE   H6X19057   0.048   2.595   2.905
  169SAPE   H6Y19058   6.712   2.468   2.883
  169SAPE   C3719059   0.060   2.452   3.058
  169SAPE   H7X19060   0.120   2.514   3.127
  169SAPE   H7Y19061   0.138   2.404   2.995
  169SAPE   C3819062   6.760   2.344   3.135
  169SAPE   H8X19063   6.688   2.297   3.065
  169SAPE   H8Y19064   6.711   2.379   3.229
  169SAPE   C3919065   0.061   2.237   3.195
  169SAPE   H9X19066   0.140   2.203   3.125
  169SAPE   H9Y19067   0.003   2.144   3.212
  169SAPE  C31019068   0.111   2.281   3.340
  169SAPE  H10X19069   0.107   2.392   3.332
  169SAPE  H10Y19070   0.215   2.243   3.337
  169SAPE  C31119071   0.029   2.224   3.454
  169SAPE  H11X19072   0.053   2.116   3.454
  169SAPE  H11Y19073   6.698   2.239   3.432
  169SAPE  C31219074   0.051   2.294   3.586
  169SAPE  H12X19075   0.035   2.404   3.578
  169SAPE  H12Y19076   0.156   2.294   3.623
  169SAPE  C31319077   6.739   2.232   3.690
  169SAPE  H13X19078   6.753   2.122   3.687
  169SAPE  H13Y19079   6.634   2.248   3.658
  169SAPE  C31419080   6.754   2.284   3.832
  169SAPE  H14X19081   6.709   2.386   3.833
  169SAPE  H14Y19082   0.085   2.287   3.861
  169SAPE  C31519083   6.679   2.190   3.932
  169SAPE  H15X19084   6.725   2.090   3.921
  169SAPE  H15Y19085   6.578   2.188   3.886
  169SAPE  C31619086   6.690   2.246   4.075
  169SAPE  H16X19087   6.652   2.350   4.065
  169SAPE  H16Y19088   0.019   2.247   4.109
  169SAPE  C31719089   6.593   2.177   4.182
  169SAPE  H17X19090   6.488   2.170   4.147
  169SAPE  H17Y19091   6.588   2.244   4.271
  169SAPE  C31819092   6.635   2.041   4.235
  169SAPE  H18X19093   6.643   1.972   4.148
  169SAPE  H18Y19094   6.567   1.999   4.312
  169SAPE  H18Z19095   6.739   2.054   4.274
  170SAPE     N19096   6.314   3.813   1.827
  170SAPE   HN119097   6.382   3.862   1.765
  170SAPE   HN219098   6.229   3.801   1.768
  170SAPE   HN319099   6.303   3.880   1.906
  170SAPE   C1219100   6.369   3.673   1.877
  170SAPE  H12A19101   6.409   3.630   1.783
  170SAPE  H12B19102   6.292   3.599   1.906
  170SAPE   C1119103   6.472   3.681   1.989
  170SAPE  H11A19104   6.442   3.754   2.068
  170SAPE  H11B19105   6.570   3.721   1.955
  170SAPE     P19106   6.453   3.465   2.154
  170SAPE   O1319107   6.309   3.483   2.179
  170SAPE   O1419108   6.505   3.332   2.128
  170SAPE   O1219109   6.504   3.546   2.034
  170SAPE   O1119110   6.538   3.549   2.264
  170SAPE    C119111   6.665   3.499   2.306
  170SAPE    HA19112   6.664   3.431   2.394
  170SAPE    HB19113   6.712   3.440   2.225
  170SAPE    C219114   6.761   3.618   2.343
  170SAPE    HS19115   0.078   3.568   2.377
  170SAPE   O2119116   6.704   3.713   2.436
  170SAPE   C2119117   6.659   3.669   2.551
  170SAPE   O2219118   6.678   3.560   2.597
  170SAPE   C2219119   6.556   3.764   2.619
  170SAPE   H2R19120   6.594   3.868   2.618
  170SAPE   H2S19121   6.463   3.756   2.559
  170SAPE    C319122   0.031   3.698   2.216
  170SAPE    HX19123   6.713   3.741   2.176
  170SAPE    HY19124   0.069   3.626   2.141
  170SAPE   O3119125   0.129   3.804   2.248
  170SAPE   C3119126   0.260   3.769   2.255
  170SAPE   O3219127   0.303   3.660   2.220
  170SAPE   C3219128   0.348   3.884   2.305
  170SAPE   H2X19129   0.383   3.935   2.213
  170SAPE   H2Y19130   0.425   3.849   2.377
  170SAPE   C2319131   6.524   3.723   2.762
  170SAPE   H3R19132   6.489   3.617   2.759
  170SAPE   H3S19133   6.436   3.779   2.801
  170SAPE   C2419134   6.637   3.746   2.861
  170SAPE   H4R19135   6.650   3.856   2.875
  170SAPE   H4S19136   6.733   3.704   2.824
  170SAPE   C2519137   6.615   3.701   3.003
  170SAPE   H5R19138   6.619   3.786   3.073
  170SAPE   C2619139   6.593   3.575   3.058
  170SAPE   H6R19140   6.595   3.575   3.167
  170SAPE   C2719141   6.580   3.450   2.980
  170SAPE   H7R19142   6.583   3.468   2.871
  170SAPE   H7S19143   6.483   3.400   3.001
  170SAPE   C2819144   6.697   3.365   3.014
  170SAPE   H8R19145   0.017   3.408   2.983
  170SAPE   C2919146   6.697   3.243   3.076
  170SAPE   H9R19147   0.016   3.192   3.096
  170SAPE  C21019148   6.577   3.173   3.132
  170SAPE  H10R19149   6.589   3.063   3.132
  170SAPE  H10S19150   6.496   3.190   3.058
  170SAPE  C21119151   6.525   3.229   3.264
  170SAPE  H11R19152   6.515   3.338   3.260
  170SAPE  C21219153   6.507   3.162   3.379
  170SAPE  H12R19154   6.473   3.223   3.464
  170SAPE  C21319155   6.516   3.011   3.402
  170SAPE  H13R19156   6.511   2.960   3.304
  170SAPE  H13S19157   6.426   2.971   3.454
  170SAPE  C21419158   6.642   2.983   3.477
  170SAPE  H14R19159   6.733   3.005   3.419
  170SAPE  C21519160   6.653   2.933   3.604
  170SAPE  H15R19161   6.753   2.935   3.650
  170SAPE  C21619162   6.553   2.898   3.708
  170SAPE  H16R19163   6.606   2.838   3.785
  170SAPE  H16S19164   6.466   2.839   3.672
  170SAPE  C21719165   6.509   3.014   3.795
  170SAPE  H17R19166   6.429   2.978   3.863
  170SAPE  H17S19167   6.456   3.081   3.724
  170SAPE  C21819168   6.614   3.101   3.858
  170SAPE  H18R19169   6.666   3.154   3.776
  170SAPE  H18S19170   6.689   3.036   3.908
  170SAPE  C21919171   6.558   3.210   3.958
  170SAPE  H19R19172   6.512   3.152   4.040
  170SAPE  H19S19173   6.477   3.253   3.895
  170SAPE  C22019174   6.639   3.325   4.014
  170SAPE  H20R19175   6.642   3.355   4.121
  170SAPE  H20S19176   6.609   3.420   3.965
  170SAPE  H20T19177   6.739   3.295   3.977
  170SAPE   C3319178   0.273   3.993   2.378
  170SAPE   H3X19179   0.175   4.026   2.336
  170SAPE   H3Y19180   0.335   4.084   2.366
  170SAPE   C3419181   0.240   3.969   2.525
  170SAPE   H4X19182   0.334   3.980   2.583
  170SAPE   H4Y19183   0.205   3.865   2.538
  170SAPE   C3519184   0.132   4.064   2.580
  170SAPE   H5X19185   0.042   4.065   2.514
  170SAPE   H5Y19186   0.165   4.170   2.578
  170SAPE   C3619187   0.084   4.020   2.722
  170SAPE   H6X19188   0.082   3.908   2.719
  170SAPE   H6Y19189   6.763   4.071   2.733
  170SAPE   C3719190   0.186   4.066   2.835
  170SAPE   H7X19191   0.179   4.177   2.840
  170SAPE   H7Y19192   0.292   4.047   2.807
  170SAPE   C3819193   0.152   4.007   2.973
  170SAPE   H8X19194   0.233   4.034   3.044
  170SAPE   H8Y19195   0.123   3.900   2.983
  170SAPE   C3919196   0.031   4.086   3.025
  170SAPE   H9X19197   6.724   4.080   2.953
  170SAPE   H9Y19198   0.049   4.195   3.032
  170SAPE  C31019199   6.738   4.052   3.158
  170SAPE  H10X19200   6.740   3.942   3.164
  170SAPE  H10Y19201   6.632   4.086   3.154
  170SAPE  C31119202   0.031   4.123   3.279
  170SAPE  H11X19203   0.027   4.229   3.249
  170SAPE  H11Y19204   0.141   4.104   3.277
  170SAPE  C31219205   6.737   4.095   3.415
  170SAPE  H12X19206   6.748   3.985   3.422
  170SAPE  H12Y19207   6.634   4.133   3.399
  170SAPE  C31319208   0.015   4.160   3.545
  170SAPE  H13X19209   0.012   4.271   3.541
  170SAPE  H13Y19210   0.122   4.136   3.557
  170SAPE  C31419211   6.745   4.087   3.674
  170SAPE  H14X19212   0.036   4.127   3.752
  170SAPE  H14Y19213   0.000   3.981   3.664
  170SAPE  C31519214   6.604   4.104   3.704
  170SAPE  H15X19215   6.543   4.096   3.611
  170SAPE  H15Y19216   6.599   4.207   3.743
  170SAPE  C31619217   6.564   4.002   3.813
  170SAPE  H16X19218   6.660   3.958   3.844
  170SAPE  H16Y19219   6.505   3.924   3.760
  170SAPE  C31719220   6.470   4.063   3.922
  170SAPE  H17X19221   6.372   4.092   3.880
  170SAPE  H17Y19222   6.516   4.152   3.970
  170SAPE  C31819223   6.440   3.966   4.037
  170SAPE  H18X19224   6.370   4.016   4.107
  170SAPE  H18Y19225   6.531   3.920   4.082
  170SAPE  H18Z19226   6.381   3.878   4.004
  171SAPE     N19227   6.494   3.073   2.195
  171SAPE   HN119228   6.487   3.168   2.154
  171SAPE   HN219229   6.527   3.011   2.118
  171SAPE   HN319230   6.400   3.034   2.218
  171SAPE   C1219231   6.589   3.062   2.314
  171SAPE  H12A19232   6.592   2.959   2.354
  171SAPE  H12B19233   6.563   3.136   2.392
  171SAPE   C1119234   6.739   3.104   2.271
  171SAPE  H11A19235   0.028   3.091   2.359
  171SAPE  H11B19236   6.736   3.212   2.248
  171SAPE     P19237   0.073   2.893   2.154
  171SAPE   O1319238   6.735   2.795   2.133
  171SAPE   O1419239   0.175   2.898   2.045
  171SAPE   O1219240   0.012   3.035   2.160
  171SAPE   O1119241   0.135   2.867   2.303
  171SAPE    C119242   0.268   2.810   2.311
  171SAPE    HA19243   0.275   2.712   2.257
  171SAPE    HB19244   0.351   2.873   2.272
  171SAPE    C219245   0.294   2.775   2.455
  171SAPE    HS19246   0.390   2.719   2.463
  171SAPE   O2119247   0.187   2.696   2.508
  171SAPE   C2119248   0.187   2.565   2.470
  171SAPE   O2219249   0.273   2.513   2.401
  171SAPE   C2219250   0.063   2.497   2.517
  171SAPE   H2R19251   0.001   2.547   2.594
  171SAPE   H2S19252   6.774   2.502   2.427
  171SAPE    C319253   0.314   2.904   2.543
  171SAPE    HX19254   0.224   2.968   2.536
  171SAPE    HY19255   0.393   2.955   2.483
  171SAPE   O3119256   0.353   2.878   2.680
  171SAPE   C3119257   0.258   2.879   2.770
  171SAPE   O3219258   0.137   2.899   2.749
  171SAPE   C3219259   0.303   2.870   2.914
  171SAPE   H2X19260   0.385   2.942   2.935
  171SAPE   H2Y19261   0.345   2.767   2.926
  171SAPE   C2319262   0.073   2.344   2.538
  171SAPE   H3R19263   0.137   2.295   2.461
  171SAPE   H3S19264   6.748   2.303   2.521
  171SAPE   C2419265   0.113   2.296   2.680
  171SAPE   H4R19266   0.111   2.185   2.683
  171SAPE   H4S19267   0.033   2.335   2.746
  171SAPE   C2519268   0.243   2.357   2.724
  171SAPE   H5R19269   0.235   2.466   2.737
  171SAPE   C2619270   0.352   2.287   2.747
  171SAPE   H6R19271   0.437   2.338   2.796
  171SAPE   C2719272   0.356   2.133   2.734
  171SAPE   H7R19273   0.308   2.107   2.638
  171SAPE   H7S19274   0.283   2.104   2.813
  171SAPE   C2819275   0.481   2.069   2.766
  171SAPE   H8R19276   0.563   2.099   2.699
  171SAPE   C2919277   0.501   1.990   2.867
  171SAPE   H9R19278   0.603   1.956   2.890
  171SAPE  C21019279   0.392   1.929   2.958
  171SAPE  H10R19280   0.413   1.826   2.994
  171SAPE  H10S19281   0.295   1.913   2.906
  171SAPE  C21119282   0.361   2.016   3.076
  171SAPE  H11R19283   0.375   2.124   3.060
  171SAPE  C21219284   0.310   1.984   3.200
  171SAPE  H12R19285   0.276   2.069   3.260
  171SAPE  C21319286   0.297   1.845   3.252
  171SAPE  H13R19287   0.351   1.842   3.349
  171SAPE  H13S19288   0.354   1.771   3.193
  171SAPE  C21419289   0.158   1.797   3.265
  171SAPE  H14R19290   0.116   1.739   3.182
  171SAPE  C21519291   0.087   1.796   3.382
  171SAPE  H15R19292   6.758   1.769   3.379
  171SAPE  C21619293   0.122   1.870   3.504
  171SAPE  H16R19294   0.034   1.934   3.526
  171SAPE  H16S19295   0.214   1.931   3.489
  171SAPE  C21719296   0.151   1.776   3.621
  171SAPE  H17R19297   0.236   1.709   3.597
  171SAPE  H17S19298   0.057   1.721   3.638
  171SAPE  C21819299   0.176   1.858   3.747
  171SAPE  H18R19300   0.103   1.941   3.761
  171SAPE  H18S19301   0.274   1.910   3.744
  171SAPE  C21919302   0.167   1.790   3.876
  171SAPE  H19R19303   0.246   1.712   3.884
  171SAPE  H19S19304   0.074   1.728   3.874
  171SAPE  C22019305   0.177   1.879   4.002
  171SAPE  H20R19306   0.083   1.938   4.013
  171SAPE  H20S19307   0.259   1.952   3.987
  171SAPE  H20T19308   0.191   1.809   4.087
  171SAPE   C3319309   0.198   2.876   3.022
  171SAPE   H3X19310   0.103   2.830   2.987
  171SAPE   H3Y19311   0.172   2.981   3.047
  171SAPE   C3419312   0.235   2.797   3.151
  171SAPE   H4X19313   0.341   2.828   3.165
  171SAPE   H4Y19314   0.248   2.690   3.122
  171SAPE   C3519315   0.146   2.799   3.278
  171SAPE   H5X19316   0.046   2.755   3.259
  171SAPE   H5Y19317   0.124   2.903   3.310
  171SAPE   C3619318   0.227   2.730   3.388
  171SAPE   H6X19319   0.335   2.757   3.391
  171SAPE   H6Y19320   0.216   2.620   3.374
  171SAPE   C3719321   0.175   2.762   3.533
  171SAPE   H7X19322   0.066   2.739   3.531
  171SAPE   H7Y19323   0.181   2.871   3.557
  171SAPE   C3819324   0.232   2.685   3.654
  171SAPE   H8X19325   0.340   2.706   3.672
  171SAPE   H8Y19326   0.223   2.577   3.631
  171SAPE   C3919327   0.155   2.714   3.786
  171SAPE   H9X19328   0.049   2.687   3.763
  171SAPE   H9Y19329   0.155   2.823   3.807
  171SAPE  C31019330   0.226   2.650   3.906
  171SAPE  H10X19331   0.333   2.679   3.909
  171SAPE  H10Y19332   0.222   2.539   3.904
  171SAPE  C31119333   0.174   2.700   4.040
  171SAPE  H11X19334   0.065   2.699   4.062
  171SAPE  H11Y19335   0.216   2.802   4.051
  171SAPE  C31219336   0.249   2.614   4.149
  171SAPE  H12X19337   0.242   2.678   4.239
  171SAPE  H12Y19338   0.354   2.613   4.113
  171SAPE  C31319339   0.191   2.471   4.161
  171SAPE  H13X19340   0.200   2.408   4.070
  171SAPE  H13Y19341   0.086   2.493   4.189
  171SAPE  C31419342   0.255   2.405   4.280
  171SAPE  H14X19343   0.246   2.477   4.364
  171SAPE  H14Y19344   0.364   2.390   4.266
  171SAPE  C31519345   0.200   2.266   4.301
  171SAPE  H15X19346   0.222   2.193   4.220
  171SAPE  H15Y19347   0.088   2.268   4.302
  171SAPE  C31619348   0.247   2.196   4.432
  171SAPE  H16X19349   0.229   2.261   4.520
  171SAPE  H16Y19350   0.356   2.178   4.424
  171SAPE  C31719351   0.164   2.066   4.449
  171SAPE  H17X19352   0.058   2.097   4.438
  171SAPE  H17Y19353   0.179   2.028   4.552
  171SAPE  C31819354   0.203   1.951   4.354
  171SAPE  H18X19355   0.182   1.971   4.247
  171SAPE  H18Y19356   0.149   1.858   4.380
  171SAPE  H18Z19357   0.312   1.934   4.360
  172SAPE     N19358   0.528   5.601   1.717
  172SAPE   HN119359   0.555   5.673   1.788
  172SAPE   HN219360   0.535   5.508   1.763
  172SAPE   HN319361   0.594   5.601   1.637
  172SAPE   C1219362   0.381   5.616   1.674
  172SAPE  H12A19363   0.355   5.552   1.587
  172SAPE  H12B19364   0.373   5.719   1.634
  172SAPE   C1119365   0.280   5.588   1.795
  172SAPE  H11A19366   0.257   5.480   1.798
  172SAPE  H11B19367   0.184   5.643   1.786
  172SAPE     P19368   0.280   5.620   2.065
  172SAPE   O1319369   0.137   5.650   2.071
  172SAPE   O1419370   0.322   5.487   2.118
  172SAPE   O1219371   0.343   5.631   1.917
  172SAPE   O1119372   0.374   5.732   2.121
  172SAPE    C119373   0.512   5.713   2.117
  172SAPE    HA19374   0.542   5.620   2.065
  172SAPE    HB19375   0.547   5.802   2.060
  172SAPE    C219376   0.584   5.708   2.259
  172SAPE    HS19377   0.582   5.606   2.303
  172SAPE   O2119378   0.515   5.793   2.349
  172SAPE   C2119379   0.474   5.916   2.308
  172SAPE   O2219380   0.519   5.977   2.214
  172SAPE   C2219381   0.368   5.979   2.407
  172SAPE   H2R19382   0.313   6.052   2.344
  172SAPE   H2S19383   0.309   5.891   2.439
  172SAPE    C319384   0.736   5.747   2.254
  172SAPE    HX19385   0.757   5.855   2.240
  172SAPE    HY19386   0.776   5.693   2.165
  172SAPE   O3119387   0.808   5.698   2.367
  172SAPE   C3119388   0.804   5.766   2.483
  172SAPE   O3219389   0.794   5.887   2.494
  172SAPE   C3219390   0.814   5.670   2.600
  172SAPE   H2X19391   0.898   5.604   2.568
  172SAPE   H2Y19392   0.719   5.612   2.602
  172SAPE   C2319393   0.430   6.041   2.533
  172SAPE   H3R19394   0.488   6.134   2.511
  172SAPE   H3S19395   0.494   5.965   2.583
  172SAPE   C2419396   0.333   6.090   2.632
  172SAPE   H4R19397   0.251   6.149   2.586
  172SAPE   H4S19398   0.385   6.153   2.708
  172SAPE   C2519399   0.268   5.962   2.697
  172SAPE   H5R19400   0.186   5.919   2.637
  172SAPE   C2619401   0.283   5.910   2.822
  172SAPE   H6R19402   0.235   5.812   2.838
  172SAPE   C2719403   0.365   5.963   2.937
  172SAPE   H7R19404   0.299   6.000   3.019
  172SAPE   H7S19405   0.434   6.041   2.899
  172SAPE   C2819406   0.440   5.844   2.983
  172SAPE   H8R19407   0.531   5.818   2.927
  172SAPE   C2919408   0.417   5.768   3.090
  172SAPE   H9R19409   0.489   5.689   3.114
  172SAPE  C21019410   0.302   5.775   3.186
  172SAPE  H10R19411   0.281   5.670   3.215
  172SAPE  H10S19412   0.212   5.809   3.130
  172SAPE  C21119413   0.323   5.869   3.305
  172SAPE  H11R19414   0.375   5.963   3.283
  172SAPE  C21219415   0.288   5.846   3.436
  172SAPE  H12R19416   0.311   5.917   3.517
  172SAPE  C21319417   0.213   5.723   3.482
  172SAPE  H13R19418   0.147   5.684   3.402
  172SAPE  H13S19419   0.142   5.747   3.564
  172SAPE  C21419420   0.305   5.611   3.537
  172SAPE  H14R19421   0.379   5.580   3.461
  172SAPE  C21519422   0.309   5.558   3.660
  172SAPE  H15R19423   0.385   5.481   3.684
  172SAPE  C21619424   0.219   5.588   3.774
  172SAPE  H16R19425   0.230   5.509   3.852
  172SAPE  H16S19426   0.110   5.578   3.755
  172SAPE  C21719427   0.259   5.712   3.840
  172SAPE  H17R19428   0.230   5.796   3.773
  172SAPE  H17S19429   0.369   5.728   3.845
  172SAPE  C21819430   0.184   5.718   3.977
  172SAPE  H18R19431   0.244   5.661   4.051
  172SAPE  H18S19432   0.080   5.681   3.979
  172SAPE  C21919433   0.160   5.865   4.018
  172SAPE  H19R19434   0.252   5.922   3.991
  172SAPE  H19S19435   0.141   5.867   4.128
  172SAPE  C22019436   0.042   5.917   3.934
  172SAPE  H20R19437   6.726   5.869   3.972
  172SAPE  H20S19438   0.060   5.908   3.825
  172SAPE  H20T19439   0.023   6.023   3.963
  172SAPE   C3319440   0.840   5.743   2.733
  172SAPE   H3X19441   0.753   5.810   2.748
  172SAPE   H3Y19442   0.927   5.812   2.740
  172SAPE   C3419443   0.834   5.646   2.846
  172SAPE   H4X19444   0.923   5.579   2.842
  172SAPE   H4Y19445   0.735   5.599   2.830
  172SAPE   C3519446   0.839   5.700   2.989
  172SAPE   H5X19447   0.753   5.770   3.000
  172SAPE   H5Y19448   0.925   5.770   2.997
  172SAPE   C3619449   0.824   5.598   3.104
  172SAPE   H6X19450   0.916   5.535   3.102
  172SAPE   H6Y19451   0.732   5.536   3.093
  172SAPE   C3719452   0.827   5.636   3.250
  172SAPE   H7X19453   0.763   5.726   3.269
  172SAPE   H7Y19454   0.923   5.675   3.288
  172SAPE   C3819455   0.783   5.523   3.340
  172SAPE   H8X19456   0.842   5.432   3.317
  172SAPE   H8Y19457   0.679   5.491   3.319
  172SAPE   C3919458   0.791   5.566   3.486
  172SAPE   H9X19459   0.750   5.669   3.499
  172SAPE   H9Y19460   0.896   5.575   3.524
  172SAPE  C31019461   0.730   5.461   3.586
  172SAPE  H10X19462   0.768   5.362   3.551
  172SAPE  H10Y19463   0.619   5.460   3.578
  172SAPE  C31119464   0.763   5.491   3.734
  172SAPE  H11X19465   0.873   5.499   3.746
  172SAPE  H11Y19466   0.754   5.389   3.777
  172SAPE  C31219467   0.687   5.604   3.797
  172SAPE  H12X19468   0.578   5.584   3.805
  172SAPE  H12Y19469   0.715   5.696   3.742
  172SAPE  C31319470   0.731   5.644   3.946
  172SAPE  H13X19471   0.840   5.652   3.960
  172SAPE  H13Y19472   0.686   5.563   4.008
  172SAPE  C31419473   0.661   5.781   3.984
  172SAPE  H14X19474   0.552   5.759   3.985
  172SAPE  H14Y19475   0.683   5.857   3.906
  172SAPE  C31519476   0.690   5.836   4.125
  172SAPE  H15X19477   0.638   5.931   4.148
  172SAPE  H15Y19478   0.795   5.872   4.138
  172SAPE  C31619479   0.668   5.741   4.239
  172SAPE  H16X19480   0.666   5.640   4.193
  172SAPE  H16Y19481   0.568   5.754   4.284
  172SAPE  C31719482   0.776   5.748   4.353
  172SAPE  H17X19483   0.763   5.853   4.387
  172SAPE  H17Y19484   0.880   5.729   4.320
  172SAPE  C31819485   0.764   5.652   4.467
  172SAPE  H18X19486   0.781   5.546   4.439
  172SAPE  H18Y19487   0.658   5.648   4.501
  172SAPE  H18Z19488   0.810   5.672   4.566
  173SLPC     N19489   5.415   6.150   6.617
  173SLPC   C1319490   5.512   6.222   6.703
  173SLPC  H13A19491   5.614   6.203   6.676
  173SLPC  H13B19492   5.490   6.327   6.692
  173SLPC  H13C19493   5.503   6.191   6.807
  173SLPC   C1419494   5.279   6.158   6.677
  173SLPC  H14A19495   5.266   6.131   6.780
  173SLPC  H14B19496   5.231   6.255   6.670
  173SLPC  H14C19497   5.211   6.094   6.622
  173SLPC   C1519498   5.449   6.000   6.612
  173SLPC  H15A19499   5.442   5.976   6.717
  173SLPC  H15B19500   5.376   5.936   6.565
  173SLPC  H15C19501   5.547   5.968   6.580
  173SLPC   C1219502   5.416   6.201   6.468
  173SLPC  H12A19503   5.350   6.139   6.409
  173SLPC  H12B19504   5.514   6.180   6.430
  173SLPC   C1119505   5.384   6.352   6.439
  173SLPC  H11A19506   5.310   6.391   6.512
  173SLPC  H11B19507   5.346   6.347   6.335
  173SLPC     P19508   5.599   6.445   6.333
  173SLPC   O1319509   5.732   6.484   6.387
  173SLPC   O1419510   5.589   6.312   6.268
  173SLPC   O1219511   5.494   6.438   6.452
  173SLPC   O1119512   5.540   6.560   6.241
  173SLPC    C119513   5.417   6.630   6.251
  173SLPC    HA19514   5.335   6.572   6.204
  173SLPC    HB19515   5.397   6.660   6.357
  173SLPC    C219516   5.420   6.769   6.181
  173SLPC    HS19517   5.323   0.046   6.193
  173SLPC   O2119518   5.447   6.758   6.040
  173SLPC   C2119519   5.353   6.713   5.969
  173SLPC   O2219520   5.239   6.702   6.011
  173SLPC   C2219521   5.400   6.683   5.825
  173SLPC   H2R19522   5.459   6.775   5.803
  173SLPC   H2S19523   5.467   6.595   5.833
  173SLPC    C319524   5.529   0.090   6.229
  173SLPC    HX19525   5.630   0.046   6.240
  173SLPC    HY19526   5.494   0.107   6.334
  173SLPC   O3119527   5.533   0.212   6.152
  173SLPC   C3119528   5.442   0.314   6.184
  173SLPC   O3219529   5.338   0.293   6.236
  173SLPC   C3219530   5.491   0.447   6.133
  173SLPC   H2X19531   5.588   0.448   6.186
  173SLPC   H2Y19532   5.431   0.534   6.168
  173SLPC   C2319533   5.291   6.648   5.718
  173SLPC   H3R19534   5.199   6.705   5.745
  173SLPC   H3S19535   5.268   6.541   5.736
  173SLPC   C2419536   5.335   6.673   5.575
  173SLPC   H4R19537   5.431   6.628   5.546
  173SLPC   H4S19538   5.341   0.007   5.565
  173SLPC   C2519539   5.230   6.629   5.474
  173SLPC   H5R19540   5.145   6.698   5.490
  173SLPC   H5S19541   5.205   6.525   5.506
  173SLPC   C2619542   5.277   6.638   5.328
  173SLPC   H6R19543   5.339   6.547   5.312
  173SLPC   H6S19544   5.334   6.732   5.317
  173SLPC   C2719545   5.170   6.642   5.223
  173SLPC   H7R19546   5.086   6.713   5.239
  173SLPC   H7S19547   5.121   6.543   5.230
  173SLPC   C2819548   5.222   6.670   5.087
  173SLPC   H8R19549   5.144   6.640   5.014
  173SLPC   H8S19550   5.305   6.601   5.061
  173SLPC   C2919551   5.256   0.039   5.070
  173SLPC   H9R19552   5.168   0.104   5.079
  173SLPC  C21019553   5.375   0.092   5.027
  173SLPC  H10R19554   5.384   0.201   5.013
  173SLPC  C21119555   5.496   0.008   4.981
  173SLPC  H11R19556   5.461   6.686   4.945
  173SLPC  H11S19557   5.565   6.774   5.068
  173SLPC  C21219558   5.569   0.073   4.869
  173SLPC  H12R19559   5.506   0.132   4.801
  173SLPC  C21319560   5.695   0.062   4.836
  173SLPC  H13R19561   5.729   0.101   4.739
  173SLPC  C21419562   5.797   6.752   4.911
  173SLPC  H14R19563   5.778   6.766   5.019
  173SLPC  H14S19564   5.899   0.010   4.884
  173SLPC  C21519565   5.779   6.608   4.866
  173SLPC  H15R19566   5.674   6.584   4.838
  173SLPC  H15S19567   5.794   6.537   4.951
  173SLPC  C21619568   5.878   6.549   4.755
  173SLPC  H16R19569   5.849   6.582   4.653
  173SLPC  H16S19570   5.864   6.439   4.760
  173SLPC  C21719571   6.026   6.574   4.773
  173SLPC  H17R19572   6.067   6.542   4.871
  173SLPC  H17S19573   6.034   6.685   4.764
  173SLPC  C21819574   6.115   6.517   4.663
  173SLPC  H18R19575   6.076   6.557   4.567
  173SLPC  H18S19576   6.115   6.406   4.667
  173SLPC  H18T19577   6.216   6.561   4.676
  173SLPC   C3319578   5.499   0.440   5.983
  173SLPC   H3X19579   5.421   0.372   5.944
  173SLPC   H3Y19580   5.597   0.397   5.952
  173SLPC   C3419581   5.491   0.567   5.902
  173SLPC   H4X19582   5.545   0.643   5.963
  173SLPC   H4Y19583   5.384   0.596   5.902
  173SLPC   C3519584   5.545   0.575   5.762
  173SLPC   H5X19585   5.468   0.525   5.700
  173SLPC   H5Y19586   5.641   0.522   5.740
  173SLPC   C3619587   5.546   0.719   5.713
  173SLPC   H6X19588   5.626   0.775   5.766
  173SLPC   H6Y19589   5.456   0.774   5.750
  173SLPC   C3719590   5.546   0.727   5.560
  173SLPC   H7X19591   5.451   0.685   5.521
  173SLPC   H7Y19592   5.635   0.673   5.521
  173SLPC   C3819593   5.547   0.867   5.506
  173SLPC   H8X19594   5.624   0.936   5.548
  173SLPC   H8Y19595   5.454   0.920   5.535
  173SLPC   C3919596   5.543   0.864   5.353
  173SLPC   H9X19597   5.464   0.797   5.311
  173SLPC   H9Y19598   5.636   0.813   5.321
  173SLPC  C31019599   5.527   1.003   5.285
  173SLPC  H10X19600   5.604   1.073   5.325
  173SLPC  H10Y19601   5.439   1.052   5.330
  173SLPC  C31119602   5.537   1.009   5.132
  173SLPC  H11X19603   5.545   1.116   5.103
  173SLPC  H11Y19604   5.448   0.966   5.082
  173SLPC  C31219605   5.660   0.927   5.078
  173SLPC  H12X19606   5.640   0.818   5.088
  173SLPC  H12Y19607   5.750   0.944   5.140
  173SLPC  C31319608   5.696   0.962   4.932
  173SLPC  H13X19609   5.767   0.885   4.895
  173SLPC  H13Y19610   5.746   1.061   4.929
  173SLPC  C31419611   5.587   0.951   4.824
  173SLPC  H14X19612   5.504   1.020   4.849
  173SLPC  H14Y19613   5.546   0.849   4.811
  173SLPC  C31519614   5.637   1.012   4.695
  173SLPC  H15X19615   5.695   1.106   4.701
  173SLPC  H15Y19616   5.556   1.041   4.624
  173SLPC  C31619617   5.727   0.913   4.609
  173SLPC  H16X19618   5.666   0.874   4.525
  173SLPC  H16Y19619   5.736   0.821   4.670
  173SLPC  C31719620   5.864   0.973   4.569
  173SLPC  H17X19621   5.852   1.067   4.511
  173SLPC  H17Y19622   5.915   0.894   4.510
  173SLPC  C31819623   5.962   1.005   4.679
  173SLPC  H18X19624   6.044   1.075   4.650
  173SLPC  H18Y19625   6.012   0.917   4.725
  173SLPC  H18Z19626   5.911   1.062   4.760
  174SLPC     N19627   2.102   2.067   7.038
  174SLPC   C1319628   2.231   1.998   7.087
  174SLPC  H13A19629   2.285   1.964   6.999
  174SLPC  H13B19630   2.300   2.064   7.136
  174SLPC  H13C19631   2.202   1.908   7.140
  174SLPC   C1419632   2.006   2.091   7.150
  174SLPC  H14A19633   1.966   1.998   7.189
  174SLPC  H14B19634   2.066   2.138   7.227
  174SLPC  H14C19635   1.920   2.150   7.123
  174SLPC   C1519636   2.045   1.972   6.939
  174SLPC  H15A19637   1.950   2.008   6.903
  174SLPC  H15B19638   2.107   1.939   6.856
  174SLPC  H15C19639   2.039   1.880   6.994
  174SLPC   C1219640   2.153   2.199   6.967
  174SLPC  H12A19641   2.246   2.223   7.016
  174SLPC  H12B19642   2.085   2.279   6.990
  174SLPC   C1119643   2.193   2.200   6.814
  174SLPC  H11A19644   2.226   2.304   6.793
  174SLPC  H11B19645   2.103   2.183   6.751
  174SLPC     P19646   2.447   2.176   6.777
  174SLPC   O1319647   2.476   2.252   6.900
  174SLPC   O1419648   2.536   2.062   6.754
  174SLPC   O1219649   2.297   2.111   6.789
  174SLPC   O1119650   2.429   2.273   6.657
  174SLPC    C119651   2.446   2.232   6.519
  174SLPC    HA19652   2.455   2.121   6.511
  174SLPC    HB19653   2.353   2.259   6.465
  174SLPC    C219654   2.558   2.305   6.439
  174SLPC    HS19655   2.520   2.405   6.406
  174SLPC   O2119656   2.597   2.219   6.330
  174SLPC   C2119657   2.507   2.218   6.230
  174SLPC   O2219658   2.403   2.283   6.223
  174SLPC   C2219659   2.580   2.145   6.115
  174SLPC   H2R19660   2.682   2.184   6.099
  174SLPC   H2S19661   2.586   2.037   6.140
  174SLPC    C319662   2.680   2.335   6.524
  174SLPC    HX19663   2.712   2.237   6.566
  174SLPC    HY19664   2.646   2.395   6.611
  174SLPC   O3119665   2.778   2.402   6.446
  174SLPC   C3119666   2.762   2.534   6.451
  174SLPC   O3219667   2.669   2.592   6.496
  174SLPC   C3219668   2.881   2.612   6.402
  174SLPC   H2X19669   2.965   2.590   6.472
  174SLPC   H2Y19670   2.851   2.718   6.414
  174SLPC   C2319671   2.501   2.166   5.978
  174SLPC   H3R19672   2.493   2.275   5.960
  174SLPC   H3S19673   2.401   2.122   5.999
  174SLPC   C2419674   2.565   2.086   5.869
  174SLPC   H4R19675   2.560   1.976   5.886
  174SLPC   H4S19676   2.671   2.119   5.869
  174SLPC   C2519677   2.497   2.119   5.738
  174SLPC   H5R19678   2.463   2.225   5.733
  174SLPC   H5S19679   2.406   2.058   5.725
  174SLPC   C2619680   2.578   2.090   5.618
  174SLPC   H6R19681   2.614   1.985   5.628
  174SLPC   H6S19682   2.662   2.162   5.619
  174SLPC   C2719683   2.506   2.122   5.489
  174SLPC   H7R19684   2.431   2.203   5.497
  174SLPC   H7S19685   2.435   2.038   5.473
  174SLPC   C2819686   2.593   2.147   5.359
  174SLPC   H8R19687   2.648   2.239   5.385
  174SLPC   H8S19688   2.517   2.167   5.280
  174SLPC   C2919689   2.685   2.027   5.332
  174SLPC   H9R19690   2.774   2.011   5.394
  174SLPC  C21019691   2.668   1.936   5.233
  174SLPC  H10R19692   2.738   1.852   5.238
  174SLPC  C21119693   2.575   1.942   5.120
  174SLPC  H11R19694   2.643   1.964   5.035
  174SLPC  H11S19695   2.505   2.029   5.116
  174SLPC  C21219696   2.489   1.818   5.103
  174SLPC  H12R19697   2.407   1.809   5.176
  174SLPC  C21319698   2.496   1.731   4.999
  174SLPC  H13R19699   2.432   1.641   4.997
  174SLPC  C21419700   2.600   1.749   4.888
  174SLPC  H14R19701   2.701   1.704   4.901
  174SLPC  H14S19702   2.600   1.860   4.878
  174SLPC  C21519703   2.555   1.695   4.753
  174SLPC  H15R19704   2.624   1.742   4.680
  174SLPC  H15S19705   2.454   1.713   4.711
  174SLPC  C21619706   2.585   1.545   4.747
  174SLPC  H16R19707   2.510   1.488   4.807
  174SLPC  H16S19708   2.688   1.534   4.787
  174SLPC  C21719709   2.583   1.501   4.600
  174SLPC  H17R19710   2.631   1.578   4.535
  174SLPC  H17S19711   2.478   1.502   4.562
  174SLPC  C21819712   2.641   1.364   4.576
  174SLPC  H18R19713   2.617   1.331   4.473
  174SLPC  H18S19714   2.589   1.296   4.646
  174SLPC  H18T19715   2.751   1.354   4.587
  174SLPC   C3319716   2.920   2.573   6.256
  174SLPC   H3X19717   2.923   2.462   6.251
  174SLPC   H3Y19718   3.026   2.603   6.241
  174SLPC   C3419719   2.821   2.631   6.146
  174SLPC   H4X19720   2.840   2.740   6.132
  174SLPC   H4Y19721   2.722   2.613   6.192
  174SLPC   C3519722   2.816   2.551   6.019
  174SLPC   H5X19723   2.780   2.448   6.040
  174SLPC   H5Y19724   2.922   2.547   5.986
  174SLPC   C3619725   2.739   2.607   5.894
  174SLPC   H6X19726   2.784   2.708   5.895
  174SLPC   H6Y19727   2.629   2.617   5.906
  174SLPC   C3719728   2.776   2.543   5.759
  174SLPC   H7X19729   2.738   2.439   5.769
  174SLPC   H7Y19730   2.886   2.532   5.749
  174SLPC   C3819731   2.716   2.604   5.633
  174SLPC   H8X19732   2.781   2.695   5.624
  174SLPC   H8Y19733   2.613   2.644   5.648
  174SLPC   C3919734   2.727   2.511   5.505
  174SLPC   H9X19735   2.646   2.435   5.506
  174SLPC   H9Y19736   2.827   2.463   5.513
  174SLPC  C31019737   2.728   2.590   5.372
  174SLPC  H10X19738   2.825   2.644   5.372
  174SLPC  H10Y19739   2.650   2.668   5.359
  174SLPC  C31119740   2.733   2.492   5.255
  174SLPC  H11X19741   2.638   2.437   5.234
  174SLPC  H11Y19742   2.805   2.416   5.292
  174SLPC  C31219743   2.796   2.549   5.124
  174SLPC  H12X19744   2.884   2.615   5.139
  174SLPC  H12Y19745   2.711   2.610   5.086
  174SLPC  C31319746   2.846   2.447   5.018
  174SLPC  H13X19747   2.930   2.394   5.068
  174SLPC  H13Y19748   2.886   2.497   4.927
  174SLPC  C31419749   2.737   2.334   4.992
  174SLPC  H14X19750   2.645   2.385   4.959
  174SLPC  H14Y19751   2.712   2.278   5.084
  174SLPC  C31519752   2.777   2.237   4.876
  174SLPC  H15X19753   2.853   2.165   4.912
  174SLPC  H15Y19754   2.822   2.308   4.804
  174SLPC  C31619755   2.653   2.166   4.818
  174SLPC  H16X19756   2.586   2.230   4.757
  174SLPC  H16Y19757   2.595   2.124   4.903
  174SLPC  C31719758   2.697   2.050   4.731
  174SLPC  H17X19759   2.615   1.976   4.717
  174SLPC  H17Y19760   2.785   1.998   4.775
  174SLPC  C31819761   2.730   2.087   4.587
  174SLPC  H18X19762   2.723   2.000   4.519
  174SLPC  H18Y19763   2.820   2.150   4.570
  174SLPC  H18Z19764   2.648   2.156   4.556
  175SLPC     N19765   5.261   2.954   7.155
  175SLPC   C1319766   5.134   2.922   7.231
  175SLPC  H13A19767   5.141   2.832   7.291
  175SLPC  H13B19768   5.105   3.005   7.294
  175SLPC  H13C19769   5.051   2.910   7.163
  175SLPC   C1419770   5.317   2.829   7.105
  175SLPC  H14A19771   5.269   2.805   7.011
  175SLPC  H14B19772   5.421   2.841   7.075
  175SLPC  H14C19773   5.307   2.745   7.173
  175SLPC   C1519774   5.361   3.006   7.257
  175SLPC  H15A19775   5.336   3.110   7.275
  175SLPC  H15B19776   5.366   2.941   7.342
  175SLPC  H15C19777   5.459   3.019   7.215
  175SLPC   C1219778   5.238   3.060   7.050
  175SLPC  H12A19779   5.240   3.156   7.099
  175SLPC  H12B19780   5.143   3.048   7.000
  175SLPC   C1119781   5.332   3.060   6.924
  175SLPC  H11A19782   5.301   3.147   6.862
  175SLPC  H11B19783   5.326   2.968   6.862
  175SLPC     P19784   5.592   3.020   6.898
  175SLPC   O1319785   5.714   3.075   6.962
  175SLPC   O1419786   5.565   2.872   6.895
  175SLPC   O1219787   5.469   3.085   6.967
  175SLPC   O1119788   5.592   3.063   6.747
  175SLPC    C119789   5.536   2.976   6.647
  175SLPC    HA19790   5.614   2.901   6.622
  175SLPC    HB19791   5.445   2.924   6.686
  175SLPC    C219792   5.497   3.051   6.518
  175SLPC    HS19793   5.441   2.994   6.440
  175SLPC   O2119794   5.614   3.109   6.454
  175SLPC   C2119795   5.683   3.021   6.383
  175SLPC   O2219796   5.653   2.903   6.364
  175SLPC   C2219797   5.808   3.080   6.326
  175SLPC   H2R19798   5.800   3.191   6.328
  175SLPC   H2S19799   5.882   3.053   6.405
  175SLPC    C319800   5.393   3.158   6.556
  175SLPC    HX19801   5.432   3.216   6.642
  175SLPC    HY19802   5.310   3.109   6.611
  175SLPC   O3119803   5.347   3.232   6.446
  175SLPC   C3119804   5.395   3.356   6.438
  175SLPC   O3219805   5.469   3.407   6.515
  175SLPC   C3219806   5.324   3.424   6.318
  175SLPC   H2X19807   5.297   3.526   6.351
  175SLPC   H2Y19808   5.238   3.358   6.293
  175SLPC   C2319809   5.861   3.019   6.186
  175SLPC   H3R19810   5.860   2.909   6.198
  175SLPC   H3S19811   5.965   3.056   6.169
  175SLPC   C2419812   5.786   3.053   6.056
  175SLPC   H4R19813   5.755   3.160   6.058
  175SLPC   H4S19814   5.687   3.003   6.047
  175SLPC   C2519815   5.882   3.051   5.937
  175SLPC   H5R19816   5.941   2.958   5.948
  175SLPC   H5S19817   5.950   3.139   5.942
  175SLPC   C2619818   5.805   3.050   5.807
  175SLPC   H6R19819   5.756   3.149   5.796
  175SLPC   H6S19820   5.727   2.971   5.795
  175SLPC   C2719821   5.906   3.035   5.690
  175SLPC   H7R19822   5.954   2.935   5.691
  175SLPC   H7S19823   5.992   3.103   5.710
  175SLPC   C2819824   5.856   3.056   5.547
  175SLPC   H8R19825   5.774   2.982   5.535
  175SLPC   H8S19826   5.932   3.015   5.478
  175SLPC   C2919827   5.801   3.196   5.518
  175SLPC   H9R19828   5.726   3.227   5.592
  175SLPC  C21019829   5.835   3.267   5.405
  175SLPC  H10R19830   5.787   3.364   5.387
  175SLPC  C21119831   5.930   3.227   5.292
  175SLPC  H11R19832   6.025   3.182   5.326
  175SLPC  H11S19833   5.980   3.313   5.242
  175SLPC  C21219834   5.865   3.134   5.192
  175SLPC  H12R19835   5.824   3.039   5.231
  175SLPC  C21319836   5.867   3.166   5.062
  175SLPC  H13R19837   5.809   3.090   5.008
  175SLPC  C21419838   5.921   3.286   4.991
  175SLPC  H14R19839   6.028   3.309   5.010
  175SLPC  H14S19840   5.858   3.373   5.017
  175SLPC  C21519841   5.914   3.272   4.839
  175SLPC  H15R19842   5.980   3.194   4.797
  175SLPC  H15S19843   5.953   3.370   4.805
  175SLPC  C21619844   5.769   3.266   4.781
  175SLPC  H16R19845   5.702   3.325   4.848
  175SLPC  H16S19846   5.743   3.158   4.784
  175SLPC  C21719847   5.750   3.325   4.639
  175SLPC  H17R19848   5.802   3.248   4.579
  175SLPC  H17S19849   5.791   3.426   4.617
  175SLPC  C21819850   5.601   3.339   4.603
  175SLPC  H18R19851   5.553   3.242   4.577
  175SLPC  H18S19852   5.590   3.403   4.513
  175SLPC  H18T19853   5.553   3.372   4.698
  175SLPC   C3319854   5.405   3.453   6.187
  175SLPC   H3X19855   5.476   3.538   6.194
  175SLPC   H3Y19856   5.326   3.481   6.114
  175SLPC   C3419857   5.492   3.335   6.147
  175SLPC   H4X19858   5.575   3.324   6.221
  175SLPC   H4Y19859   5.537   3.364   6.050
  175SLPC   C3519860   5.427   3.200   6.116
  175SLPC   H5X19861   5.368   3.167   6.204
  175SLPC   H5Y19862   5.508   3.124   6.116
  175SLPC   C3619863   5.350   3.195   5.986
  175SLPC   H6X19864   5.275   3.276   5.995
  175SLPC   H6Y19865   5.287   3.104   5.999
  175SLPC   C3719866   5.425   3.183   5.854
  175SLPC   H7X19867   5.473   3.083   5.853
  175SLPC   H7Y19868   5.493   3.270   5.864
  175SLPC   C3819869   5.321   3.196   5.744
  175SLPC   H8X19870   5.284   3.299   5.722
  175SLPC   H8Y19871   5.236   3.126   5.754
  175SLPC   C3919872   5.389   3.172   5.604
  175SLPC   H9X19873   5.439   3.073   5.612
  175SLPC   H9Y19874   5.474   3.242   5.588
  175SLPC  C31019875   5.285   3.171   5.487
  175SLPC  H10X19876   5.210   3.249   5.512
  175SLPC  H10Y19877   5.229   3.075   5.494
  175SLPC  C31119878   5.338   3.166   5.339
  175SLPC  H11X19879   5.264   3.120   5.270
  175SLPC  H11Y19880   5.435   3.113   5.327
  175SLPC  C31219881   5.360   3.301   5.269
  175SLPC  H12X19882   5.397   3.377   5.341
  175SLPC  H12Y19883   5.261   3.337   5.234
  175SLPC  C31319884   5.470   3.293   5.160
  175SLPC  H13X19885   5.542   3.209   5.172
  175SLPC  H13Y19886   5.525   3.390   5.158
  175SLPC  C31419887   5.413   3.263   5.020
  175SLPC  H14X19888   5.493   3.286   4.946
  175SLPC  H14Y19889   5.327   3.332   5.006
  175SLPC  C31519890   5.373   3.116   4.988
  175SLPC  H15X19891   5.284   3.086   5.048
  175SLPC  H15Y19892   5.459   3.050   5.011
  175SLPC  C31619893   5.335   3.101   4.844
  175SLPC  H16X19894   5.405   3.151   4.774
  175SLPC  H16Y19895   5.233   3.145   4.838
  175SLPC  C31719896   5.322   2.959   4.791
  175SLPC  H17X19897   5.418   2.903   4.796
  175SLPC  H17Y19898   5.294   2.978   4.686
  175SLPC  C31819899   5.212   2.876   4.858
  175SLPC  H18X19900   5.114   2.927   4.858
  175SLPC  H18Y19901   5.248   2.838   4.956
  175SLPC  H18Z19902   5.195   2.782   4.801
  176SLPC     N19903   5.770   1.611   6.763
  176SLPC   C1319904   5.854   1.684   6.663
  176SLPC  H13A19905   5.805   1.696   6.567
  176SLPC  H13B19906   5.898   1.775   6.700
  176SLPC  H13C19907   5.942   1.622   6.650
  176SLPC   C1419908   5.673   1.714   6.826
  176SLPC  H14A19909   5.611   1.756   6.748
  176SLPC  H14B19910   5.618   1.664   6.903
  176SLPC  H14C19911   5.725   1.800   6.866
  176SLPC   C1519912   5.843   1.556   6.880
  176SLPC  H15A19913   5.782   1.521   6.962
  176SLPC  H15B19914   5.919   1.482   6.860
  176SLPC  H15C19915   5.907   1.631   6.925
  176SLPC   C1219916   5.691   1.500   6.699
  176SLPC  H12A19917   5.748   1.417   6.660
  176SLPC  H12B19918   5.642   1.535   6.609
  176SLPC   C1119919   5.580   1.430   6.780
  176SLPC  H11A19920   5.615   1.369   6.866
  176SLPC  H11B19921   5.536   1.351   6.715
  176SLPC     P19922   5.329   1.500   6.777
  176SLPC   O1319923   5.283   1.359   6.791
  176SLPC   O1419924   5.240   1.606   6.829
  176SLPC   O1219925   5.475   1.520   6.829
  176SLPC   O1119926   5.361   1.535   6.628
  176SLPC    C119927   5.245   1.542   6.539
  176SLPC    HA19928   5.159   1.473   6.554
  176SLPC    HB19929   5.208   1.646   6.527
  176SLPC    C219930   5.297   1.481   6.405
  176SLPC    HS19931   5.384   1.541   6.370
  176SLPC   O2119932   5.186   1.483   6.308
  176SLPC   C2119933   5.156   1.611   6.273
  176SLPC   O2219934   5.215   1.705   6.306
  176SLPC   C2219935   5.044   1.618   6.175
  176SLPC   H2R19936   4.955   1.585   6.233
  176SLPC   H2S19937   5.008   1.721   6.151
  176SLPC    C319938   5.350   1.333   6.430
  176SLPC    HX19939   5.284   1.293   6.510
  176SLPC    HY19940   5.444   1.332   6.490
  176SLPC   O3119941   5.353   1.243   6.324
  176SLPC   C3119942   5.442   1.270   6.220
  176SLPC   O3219943   5.519   1.364   6.213
  176SLPC   C3219944   5.419   1.172   6.109
  176SLPC   H2X19945   5.341   1.223   6.049
  176SLPC   H2Y19946   5.375   1.083   6.158
  176SLPC   C2319947   5.061   1.524   6.055
  176SLPC   H3R19948   4.962   1.510   6.008
  176SLPC   H3S19949   5.088   1.423   6.093
  176SLPC   C2419950   5.158   1.571   5.950
  176SLPC   H4R19951   5.190   1.493   5.878
  176SLPC   H4S19952   5.251   1.595   6.006
  176SLPC   C2519953   5.127   1.700   5.872
  176SLPC   H5R19954   5.147   1.784   5.942
  176SLPC   H5S19955   5.019   1.695   5.845
  176SLPC   C2619956   5.203   1.706   5.746
  176SLPC   H6R19957   5.163   1.620   5.687
  176SLPC   H6S19958   5.310   1.683   5.765
  176SLPC   C2719959   5.175   1.840   5.667
  176SLPC   H7R19960   5.231   1.920   5.721
  176SLPC   H7S19961   5.067   1.857   5.649
  176SLPC   C2819962   5.252   1.846   5.531
  176SLPC   H8R19963   5.361   1.840   5.550
  176SLPC   H8S19964   5.231   1.947   5.490
  176SLPC   C2919965   5.208   1.747   5.429
  176SLPC   H9R19966   5.212   1.644   5.469
  176SLPC  C21019967   5.171   1.765   5.300
  176SLPC  H10R19968   5.151   1.673   5.245
  176SLPC  C21119969   5.176   1.891   5.216
  176SLPC  H11R19970   5.159   1.984   5.274
  176SLPC  H11S19971   5.095   1.888   5.139
  176SLPC  C21219972   5.314   1.899   5.158
  176SLPC  H12R19973   5.385   1.946   5.228
  176SLPC  C21319974   5.345   1.868   5.027
  176SLPC  H13R19975   5.450   1.861   4.996
  176SLPC  C21419976   5.262   1.815   4.915
  176SLPC  H14R19977   5.165   1.770   4.947
  176SLPC  H14S19978   5.306   1.727   4.864
  176SLPC  C21519979   5.218   1.931   4.817
  176SLPC  H15R19980   5.161   2.015   4.861
  176SLPC  H15S19981   5.146   1.889   4.744
  176SLPC  C21619982   5.339   1.978   4.743
  176SLPC  H16R19983   5.381   1.893   4.685
  176SLPC  H16S19984   5.409   2.028   4.813
  176SLPC  C21719985   5.295   2.081   4.642
  176SLPC  H17R19986   5.242   2.166   4.691
  176SLPC  H17S19987   5.218   2.040   4.573
  176SLPC  C21819988   5.416   2.121   4.557
  176SLPC  H18R19989   5.496   2.172   4.614
  176SLPC  H18S19990   5.399   2.189   4.472
  176SLPC  H18T19991   5.461   2.025   4.524
  176SLPC   C3319992   5.537   1.151   6.020
  176SLPC   H3X19993   5.627   1.122   6.078
  176SLPC   H3Y19994   5.574   1.248   5.980
  176SLPC   C3419995   5.525   1.042   5.909
  176SLPC   H4X19996   5.473   0.960   5.963
  176SLPC   H4Y19997   5.621   1.005   5.867
  176SLPC   C3519998   5.417   1.076   5.800
  176SLPC   H5X19999   5.318   1.079   5.851
  176SLPC   H5Y20000   5.419   0.991   5.729
  176SLPC   C3620001   5.438   1.215   5.735
  176SLPC   H6X20002   5.542   1.222   5.698
  176SLPC   H6Y20003   5.433   1.301   5.804
  176SLPC   C3720004   5.346   1.232   5.613
  176SLPC   H7X20005   5.305   1.132   5.589
  176SLPC   H7Y20006   5.394   1.275   5.522
  176SLPC   C3820007   5.226   1.311   5.660
  176SLPC   H8X20008   5.248   1.418   5.682
  176SLPC   H8Y20009   5.186   1.258   5.749
  176SLPC   C3920010   5.111   1.287   5.558
  176SLPC   H9X20011   5.024   1.331   5.612
  176SLPC   H9Y20012   5.092   1.177   5.556
  176SLPC  C31020013   5.130   1.347   5.416
  176SLPC  H10X20014   5.207   1.427   5.419
  176SLPC  H10Y20015   5.031   1.388   5.387
  176SLPC  C31120016   5.146   1.236   5.311
  176SLPC  H11X20017   5.069   1.156   5.316
  176SLPC  H11Y20018   5.245   1.188   5.327
  176SLPC  C31220019   5.137   1.305   5.176
  176SLPC  H12X20020   5.204   1.394   5.176
  176SLPC  H12Y20021   5.040   1.359   5.170
  176SLPC  C31320022   5.167   1.209   5.060
  176SLPC  H13X20023   5.103   1.120   5.077
  176SLPC  H13Y20024   5.269   1.164   5.067
  176SLPC  C31420025   5.134   1.284   4.925
  176SLPC  H14X20026   5.207   1.368   4.924
  176SLPC  H14Y20027   5.029   1.317   4.914
  176SLPC  C31520028   5.139   1.191   4.800
  176SLPC  H15X20029   5.063   1.110   4.802
  176SLPC  H15Y20030   5.238   1.142   4.804
  176SLPC  C31620031   5.111   1.276   4.678
  176SLPC  H16X20032   5.206   1.332   4.671
  176SLPC  H16Y20033   5.012   1.324   4.692
  176SLPC  C31720034   5.114   1.194   4.550
  176SLPC  H17X20035   5.021   1.135   4.534
  176SLPC  H17Y20036   5.207   1.134   4.553
  176SLPC  C31820037   5.114   1.286   4.422
  176SLPC  H18X20038   5.030   1.359   4.420
  176SLPC  H18Y20039   5.121   1.215   4.337
  176SLPC  H18Z20040   5.208   1.345   4.420
  177SLPC     N20041   5.223   2.350   7.453
  177SLPC   C1320042   5.247   2.199   7.427
  177SLPC  H13A20043   5.155   2.142   7.435
  177SLPC  H13B20044   5.269   2.187   7.322
  177SLPC  H13C20045   5.325   2.165   7.493
  177SLPC   C1420046   5.355   2.423   7.462
  177SLPC  H14A20047   5.410   2.402   7.552
  177SLPC  H14B20048   5.428   2.413   7.384
  177SLPC  H14C20049   5.327   2.523   7.491
  177SLPC   C1520050   5.148   2.370   7.578
  177SLPC  H15A20051   5.145   2.477   7.592
  177SLPC  H15B20052   5.049   2.326   7.571
  177SLPC  H15C20053   5.187   2.318   7.664
  177SLPC   C1220054   5.145   2.420   7.339
  177SLPC  H12A20055   5.134   2.522   7.371
  177SLPC  H12B20056   5.048   2.374   7.346
  177SLPC   C1120057   5.203   2.416   7.194
  177SLPC  H11A20058   5.307   2.454   7.182
  177SLPC  H11B20059   5.143   2.483   7.129
  177SLPC     P20060   5.065   2.223   7.092
  177SLPC   O1320061   5.046   2.087   7.147
  177SLPC   O1420062   4.956   2.317   7.116
  177SLPC   O1220063   5.198   2.284   7.141
  177SLPC   O1120064   5.092   2.202   6.941
  177SLPC    C120065   5.165   2.301   6.860
  177SLPC    HA20066   5.238   2.366   6.912
  177SLPC    HB20067   5.223   2.246   6.783
  177SLPC    C220068   5.066   2.404   6.790
  177SLPC    HS20069   5.012   2.465   6.866
  177SLPC   O2120070   4.984   2.318   6.709
  177SLPC   C2120071   4.856   2.361   6.695
  177SLPC   O2220072   4.810   2.467   6.736
  177SLPC   C2220073   4.769   2.252   6.630
  177SLPC   H2R20074   4.756   2.163   6.695
  177SLPC   H2S20075   4.668   2.298   6.616
  177SLPC    C320076   5.145   2.498   6.694
  177SLPC    HX20077   5.206   2.578   6.739
  177SLPC    HY20078   5.061   2.558   6.652
  177SLPC   O3120079   5.229   2.431   6.601
  177SLPC   C3120080   5.171   2.400   6.490
  177SLPC   O3220081   5.080   2.461   6.432
  177SLPC   C3220082   5.244   2.279   6.428
  177SLPC   H2X20083   5.249   2.189   6.493
  177SLPC   H2Y20084   5.347   2.320   6.418
  177SLPC   C2320085   4.811   2.219   6.485
  177SLPC   H3R20086   4.889   2.141   6.504
  177SLPC   H3S20087   4.856   2.308   6.437
  177SLPC   C2420088   4.712   2.152   6.393
  177SLPC   H4R20089   4.637   2.226   6.356
  177SLPC   H4S20090   4.663   2.064   6.440
  177SLPC   C2520091   4.788   2.085   6.275
  177SLPC   H5R20092   4.869   2.030   6.328
  177SLPC   H5S20093   4.829   2.168   6.213
  177SLPC   C2620094   4.695   1.990   6.198
  177SLPC   H6R20095   4.599   2.045   6.185
  177SLPC   H6S20096   4.672   1.898   6.256
  177SLPC   C2720097   4.768   1.946   6.063
  177SLPC   H7R20098   4.858   1.884   6.082
  177SLPC   H7S20099   4.808   2.039   6.015
  177SLPC   C2820100   4.672   1.882   5.956
  177SLPC   H8R20101   4.716   1.900   5.856
  177SLPC   H8S20102   4.576   1.937   5.948
  177SLPC   C2920103   4.658   1.736   5.986
  177SLPC   H9R20104   4.657   1.701   6.090
  177SLPC  C21020105   4.660   1.629   5.898
  177SLPC  H10R20106   4.672   1.531   5.946
  177SLPC  C21120107   4.670   1.634   5.749
  177SLPC  H11R20108   4.675   1.742   5.721
  177SLPC  H11S20109   4.567   1.601   5.727
  177SLPC  C21220110   4.778   1.562   5.673
  177SLPC  H12R20111   4.832   1.481   5.723
  177SLPC  C21320112   4.803   1.569   5.539
  177SLPC  H13R20113   4.894   1.531   5.489
  177SLPC  C21420114   4.731   1.653   5.440
  177SLPC  H14R20115   4.682   1.735   5.498
  177SLPC  H14S20116   4.645   1.591   5.404
  177SLPC  C21520117   4.805   1.696   5.314
  177SLPC  H15R20118   4.906   1.733   5.341
  177SLPC  H15S20119   4.747   1.773   5.260
  177SLPC  C21620120   4.832   1.569   5.230
  177SLPC  H16R20121   4.740   1.507   5.231
  177SLPC  H16S20122   4.911   1.507   5.278
  177SLPC  C21720123   4.862   1.601   5.082
  177SLPC  H17R20124   4.921   1.516   5.039
  177SLPC  H17S20125   4.927   1.691   5.075
  177SLPC  C21820126   4.735   1.610   4.992
  177SLPC  H18R20127   4.666   1.533   5.032
  177SLPC  H18S20128   4.769   1.589   4.888
  177SLPC  H18T20129   4.686   1.710   4.995
  177SLPC   C3320130   5.191   2.239   6.290
  177SLPC   H3X20131   5.208   2.324   6.221
  177SLPC   H3Y20132   5.085   2.208   6.299
  177SLPC   C3420133   5.272   2.129   6.219
  177SLPC   H4X20134   5.244   2.111   6.113
  177SLPC   H4Y20135   5.242   2.031   6.262
  177SLPC   C3520136   5.422   2.122   6.238
  177SLPC   H5X20137   5.451   2.021   6.200
  177SLPC   H5Y20138   5.454   2.127   6.344
  177SLPC   C3620139   5.498   2.237   6.170
  177SLPC   H6X20140   5.487   2.340   6.212
  177SLPC   H6Y20141   5.461   2.242   6.066
  177SLPC   C3720142   5.647   2.209   6.177
  177SLPC   H7X20143   5.662   2.099   6.180
  177SLPC   H7Y20144   5.683   2.246   6.275
  177SLPC   C3820145   5.722   2.268   6.058
  177SLPC   H8X20146   5.668   2.253   5.962
  177SLPC   H8Y20147   5.810   2.203   6.040
  177SLPC   C3920148   5.763   2.411   6.069
  177SLPC   H9X20149   5.831   2.413   6.157
  177SLPC   H9Y20150   5.674   2.477   6.073
  177SLPC  C31020151   5.852   2.462   5.949
  177SLPC  H10X20152   5.943   2.398   5.937
  177SLPC  H10Y20153   5.889   2.566   5.956
  177SLPC  C31120154   5.778   2.464   5.817
  177SLPC  H11X20155   5.678   2.511   5.832
  177SLPC  H11Y20156   5.765   2.361   5.778
  177SLPC  C31220157   5.847   2.565   5.721
  177SLPC  H12X20158   5.956   2.540   5.719
  177SLPC  H12Y20159   5.834   2.664   5.770
  177SLPC  C31320160   5.787   2.557   5.580
  177SLPC  H13X20161   5.742   2.457   5.564
  177SLPC  H13Y20162   5.880   2.567   5.520
  177SLPC  C31420163   5.696   2.672   5.539
  177SLPC  H14X20164   5.737   2.767   5.580
  177SLPC  H14Y20165   5.596   2.650   5.583
  177SLPC  C31520166   5.671   2.692   5.387
  177SLPC  H15X20167   5.626   2.598   5.351
  177SLPC  H15Y20168   5.773   2.701   5.343
  177SLPC  C31620169   5.588   2.811   5.348
  177SLPC  H16X20170   5.619   2.902   5.404
  177SLPC  H16Y20171   5.490   2.785   5.395
  177SLPC  C31720172   5.572   2.844   5.202
  177SLPC  H17X20173   5.678   2.845   5.168
  177SLPC  H17Y20174   5.519   2.937   5.175
  177SLPC  C31820175   5.489   2.736   5.140
  177SLPC  H18X20176   5.459   2.771   5.039
  177SLPC  H18Y20177   5.390   2.719   5.189
  177SLPC  H18Z20178   5.538   2.638   5.120
  178SLPC     N20179   2.374   5.916   7.069
  178SLPC   C1320180   2.511   5.906   7.130
  178SLPC  H13A20181   2.509   5.935   7.234
  178SLPC  H13B20182   2.547   5.804   7.136
  178SLPC  H13C20183   2.582   5.971   7.081
  178SLPC   C1420184   2.319   6.052   7.117
  178SLPC  H14A20185   2.385   6.125   7.073
  178SLPC  H14B20186   2.219   6.068   7.077
  178SLPC  H14C20187   2.322   6.059   7.224
  178SLPC   C1520188   2.284   5.800   7.114
  178SLPC  H15A20189   2.301   5.777   7.218
  178SLPC  H15B20190   2.180   5.821   7.095
  178SLPC  H15C20191   2.307   5.706   7.065
  178SLPC   C1220192   2.385   5.922   6.919
  178SLPC  H12A20193   2.393   5.816   6.898
  178SLPC  H12B20194   2.476   5.973   6.890
  178SLPC   C1120195   2.260   5.972   6.845
  178SLPC  H11A20196   2.174   5.908   6.877
  178SLPC  H11B20197   2.285   5.955   6.738
  178SLPC     P20198   2.101   6.178   6.803
  178SLPC   O1320199   2.000   6.083   6.850
  178SLPC   O1420200   2.081   6.316   6.841
  178SLPC   O1220201   2.240   6.115   6.854
  178SLPC   O1120202   2.116   6.162   6.644
  178SLPC    C120203   2.224   6.236   6.579
  178SLPC    HA20204   2.278   6.295   6.656
  178SLPC    HB20205   2.302   6.169   6.536
  178SLPC    C220206   2.174   6.331   6.467
  178SLPC    HS20207   2.116   6.410   6.519
  178SLPC   O2120208   2.108   6.255   6.368
  178SLPC   C2120209   2.004   6.317   6.322
  178SLPC   O2220210   1.951   6.415   6.372
  178SLPC   C2220211   1.963   6.258   6.189
  178SLPC   H2R20212   2.054   6.210   6.147
  178SLPC   H2S20213   1.868   6.201   6.186
  178SLPC    C320214   2.295   6.400   6.401
  178SLPC    HX20215   2.372   6.418   6.479
  178SLPC    HY20216   2.272   6.504   6.370
  178SLPC   O3120217   2.358   6.331   6.293
  178SLPC   C3120218   2.308   6.355   6.172
  178SLPC   O3220219   2.227   6.439   6.143
  178SLPC   C3220220   2.373   6.257   6.074
  178SLPC   H2X20221   2.364   6.153   6.112
  178SLPC   H2Y20222   2.480   6.286   6.075
  178SLPC   C2320223   1.924   6.372   6.092
  178SLPC   H3R20224   1.988   6.463   6.092
  178SLPC   H3S20225   1.831   6.411   6.138
  178SLPC   C2420226   1.902   6.316   5.948
  178SLPC   H4R20227   1.823   6.240   5.964
  178SLPC   H4S20228   1.990   6.268   5.901
  178SLPC   C2520229   1.835   6.405   5.850
  178SLPC   H5R20230   1.767   6.481   5.895
  178SLPC   H5S20231   1.789   6.348   5.767
  178SLPC   C2620232   1.942   6.492   5.776
  178SLPC   H6R20233   2.020   6.423   5.738
  178SLPC   H6S20234   1.987   6.557   5.854
  178SLPC   C2720235   1.890   6.570   5.664
  178SLPC   H7R20236   1.815   6.627   5.722
  178SLPC   H7S20237   1.832   6.499   5.601
  178SLPC   C2820238   1.987   6.669   5.592
  178SLPC   H8R20239   2.010   6.741   5.673
  178SLPC   H8S20240   1.927   6.728   5.519
  178SLPC   C2920241   2.112   6.607   5.532
  178SLPC   H9R20242   2.129   6.499   5.549
  178SLPC  C21020243   2.178   6.656   5.426
  178SLPC  H10R20244   2.268   6.607   5.387
  178SLPC  C21120245   2.174   0.018   5.376
  178SLPC  H11R20246   2.262   0.079   5.406
  178SLPC  H11S20247   2.096   0.080   5.425
  178SLPC  C21220248   2.165   0.030   5.222
  178SLPC  H12R20249   2.070   6.776   5.178
  178SLPC  C21320250   2.258   0.084   5.138
  178SLPC  H13R20251   2.228   0.090   5.032
  178SLPC  C21420252   2.392   0.143   5.176
  178SLPC  H14R20253   2.451   0.056   5.212
  178SLPC  H14S20254   2.390   0.206   5.267
  178SLPC  C21520255   2.471   0.226   5.073
  178SLPC  H15R20256   2.555   0.273   5.129
  178SLPC  H15S20257   2.413   0.312   5.035
  178SLPC  C21620258   2.554   0.147   4.970
  178SLPC  H16R20259   2.490   0.069   4.922
  178SLPC  H16S20260   2.642   0.100   5.018
  178SLPC  C21720261   2.600   0.234   4.860
  178SLPC  H17R20262   2.671   0.176   4.798
  178SLPC  H17S20263   2.653   0.326   4.889
  178SLPC  C21820264   2.486   0.286   4.772
  178SLPC  H18R20265   2.429   0.207   4.718
  178SLPC  H18S20266   2.532   0.358   4.701
  178SLPC  H18T20267   2.413   0.345   4.832
  178SLPC   C3320268   2.316   6.263   5.933
  178SLPC   H3X20269   2.325   6.367   5.895
  178SLPC   H3Y20270   2.213   6.222   5.925
  178SLPC   C3420271   2.407   6.188   5.831
  178SLPC   H4X20272   2.401   6.080   5.856
  178SLPC   H4Y20273   2.513   6.222   5.834
  178SLPC   C3520274   2.349   6.205   5.693
  178SLPC   H5X20275   2.364   6.310   5.662
  178SLPC   H5Y20276   2.244   6.171   5.687
  178SLPC   C3620277   2.432   6.110   5.603
  178SLPC   H6X20278   2.398   6.009   5.635
  178SLPC   H6Y20279   2.543   6.109   5.608
  178SLPC   C3720280   2.397   6.127   5.452
  178SLPC   H7X20281   2.293   6.092   5.431
  178SLPC   H7Y20282   2.464   6.067   5.387
  178SLPC   C3820283   2.396   6.269   5.384
  178SLPC   H8X20284   2.490   6.325   5.406
  178SLPC   H8Y20285   2.311   6.331   5.419
  178SLPC   C3920286   2.386   6.258   5.232
  178SLPC   H9X20287   2.301   6.191   5.207
  178SLPC   H9Y20288   2.481   6.226   5.185
  178SLPC  C31020289   2.342   6.388   5.157
  178SLPC  H10X20290   2.254   6.433   5.207
  178SLPC  H10Y20291   2.330   6.371   5.048
  178SLPC  C31120292   2.458   6.491   5.163
  178SLPC  H11X20293   2.498   6.492   5.267
  178SLPC  H11Y20294   2.416   6.592   5.145
  178SLPC  C31220295   2.571   6.459   5.066
  178SLPC  H12X20296   2.531   6.458   4.962
  178SLPC  H12Y20297   2.603   6.355   5.088
  178SLPC  C31320298   2.695   6.559   5.069
  178SLPC  H13X20299   2.783   6.518   5.123
  178SLPC  H13Y20300   2.655   6.641   5.133
  178SLPC  C31420301   2.740   6.605   4.927
  178SLPC  H14X20302   2.790   6.702   4.948
  178SLPC  H14Y20303   2.651   6.631   4.866
  178SLPC  C31520304   2.839   6.516   4.845
  178SLPC  H15X20305   2.818   6.554   4.743
  178SLPC  H15Y20306   2.811   6.410   4.859
  178SLPC  C31620307   2.980   6.546   4.890
  178SLPC  H16X20308   2.984   6.512   4.995
  178SLPC  H16Y20309   2.992   6.655   4.873
  178SLPC  C31720310   3.079   6.458   4.805
  178SLPC  H17X20311   3.180   6.499   4.822
  178SLPC  H17Y20312   3.059   6.485   4.699
  178SLPC  C31820313   3.085   6.303   4.840
  178SLPC  H18X20314   3.009   6.246   4.783
  178SLPC  H18Y20315   3.069   6.292   4.949
  178SLPC  H18Z20316   3.189   6.271   4.815
  179SLPC     N20317   4.130   1.282   2.927
  179SLPC   C1320318   4.004   1.282   3.012
  179SLPC  H13A20319   3.949   1.374   3.000
  179SLPC  H13B20320   3.943   1.203   2.970
  179SLPC  H13C20321   4.023   1.257   3.115
  179SLPC   C1420322   4.210   1.161   2.954
  179SLPC  H14A20323   4.149   1.073   2.966
  179SLPC  H14B20324   4.277   1.134   2.874
  179SLPC  H14C20325   4.269   1.175   3.043
  179SLPC   C1520326   4.219   1.398   2.956
  179SLPC  H15A20327   4.160   1.488   2.955
  179SLPC  H15B20328   4.272   1.384   3.050
  179SLPC  H15C20329   4.299   1.402   2.884
  179SLPC   C1220330   4.072   1.282   2.789
  179SLPC  H12A20331   4.000   1.205   2.769
  179SLPC  H12B20332   4.146   1.284   2.710
  179SLPC   C1120333   3.979   1.401   2.752
  179SLPC  H11A20334   3.985   1.403   2.641
  179SLPC  H11B20335   4.009   1.505   2.777
  179SLPC     P20336   3.753   1.261   2.743
  179SLPC   O1320337   3.740   1.282   2.594
  179SLPC   O1420338   3.818   1.132   2.778
  179SLPC   O1220339   3.846   1.381   2.802
  179SLPC   O1120340   3.618   1.273   2.822
  179SLPC    C120341   3.565   1.390   2.878
  179SLPC    HA20342   3.591   1.474   2.810
  179SLPC    HB20343   3.455   1.374   2.869
  179SLPC    C220344   3.613   1.401   3.023
  179SLPC    HS20345   3.716   1.360   3.031
  179SLPC   O2120346   3.522   1.333   3.108
  179SLPC   C2120347   3.548   1.211   3.141
  179SLPC   O2220348   3.654   1.156   3.130
  179SLPC   C2220349   3.425   1.162   3.208
  179SLPC   H2R20350   3.335   1.194   3.151
  179SLPC   H2S20351   3.425   1.051   3.205
  179SLPC    C320352   3.631   1.541   3.064
  179SLPC    HX20353   3.527   1.580   3.054
  179SLPC    HY20354   3.697   1.594   2.992
  179SLPC   O3120355   3.664   1.555   3.211
  179SLPC   C3120356   3.795   1.566   3.231
  179SLPC   O3220357   3.874   1.547   3.143
  179SLPC   C3220358   3.835   1.590   3.373
  179SLPC   H2X20359   3.869   1.694   3.391
  179SLPC   H2Y20360   3.932   1.535   3.377
  179SLPC   C2320361   3.426   1.215   3.356
  179SLPC   H3R20362   3.440   1.325   3.363
  179SLPC   H3S20363   3.514   1.160   3.395
  179SLPC   C2420364   3.290   1.174   3.419
  179SLPC   H4R20365   3.208   1.221   3.360
  179SLPC   H4S20366   3.280   1.229   3.515
  179SLPC   C2520367   3.272   1.025   3.446
  179SLPC   H5R20368   3.359   0.986   3.503
  179SLPC   H5S20369   3.269   0.971   3.349
  179SLPC   C2620370   3.140   0.998   3.519
  179SLPC   H6R20371   3.056   1.038   3.457
  179SLPC   H6S20372   3.144   1.067   3.606
  179SLPC   C2720373   3.122   0.853   3.556
  179SLPC   H7R20374   3.217   0.799   3.573
  179SLPC   H7S20375   3.082   0.808   3.463
  179SLPC   C2820376   3.020   0.826   3.672
  179SLPC   H8R20377   2.986   0.721   3.662
  179SLPC   H8S20378   2.939   0.902   3.663
  179SLPC   C2920379   3.097   0.846   3.801
  179SLPC   H9R20380   3.180   0.919   3.801
  179SLPC  C21020381   3.075   0.787   3.921
  179SLPC  H10R20382   3.143   0.813   4.004
  179SLPC  C21120383   2.966   0.688   3.970
  179SLPC  H11R20384   3.025   0.602   4.008
  179SLPC  H11S20385   2.898   0.642   3.895
  179SLPC  C21220386   2.878   0.748   4.073
  179SLPC  H12R20387   2.863   0.857   4.072
  179SLPC  C21320388   2.794   0.694   4.162
  179SLPC  H13R20389   2.735   0.759   4.227
  179SLPC  C21420390   2.779   0.541   4.175
  179SLPC  H14R20391   2.819   0.497   4.081
  179SLPC  H14S20392   2.670   0.518   4.172
  179SLPC  C21520393   2.834   0.462   4.298
  179SLPC  H15R20394   2.943   0.476   4.309
  179SLPC  H15S20395   2.819   0.353   4.279
  179SLPC  C21620396   2.764   0.508   4.425
  179SLPC  H16R20397   2.655   0.487   4.417
  179SLPC  H16S20398   2.784   0.618   4.426
  179SLPC  C21720399   2.835   0.448   4.546
  179SLPC  H17R20400   2.945   0.447   4.535
  179SLPC  H17S20401   2.803   0.342   4.547
  179SLPC  C21820402   2.784   0.495   4.688
  179SLPC  H18R20403   2.831   0.445   4.776
  179SLPC  H18S20404   2.673   0.486   4.684
  179SLPC  H18T20405   2.801   0.604   4.701
  179SLPC   C3320406   3.747   1.531   3.485
  179SLPC   H3X20407   3.734   1.422   3.468
  179SLPC   H3Y20408   3.649   1.584   3.484
  179SLPC   C3420409   3.807   1.551   3.627
  179SLPC   H4X20410   3.792   1.644   3.685
  179SLPC   H4Y20411   3.917   1.546   3.624
  179SLPC   C3520412   3.752   1.455   3.728
  179SLPC   H5X20413   3.641   1.466   3.726
  179SLPC   H5Y20414   3.766   1.355   3.682
  179SLPC   C3620415   3.803   1.464   3.870
  179SLPC   H6X20416   3.845   1.565   3.888
  179SLPC   H6Y20417   3.891   1.397   3.884
  179SLPC   C3720418   3.695   1.428   3.978
  179SLPC   H7X20419   3.654   1.326   3.960
  179SLPC   H7Y20420   3.601   1.473   3.941
  179SLPC   C3820421   3.724   1.466   4.121
  179SLPC   H8X20422   3.786   1.558   4.121
  179SLPC   H8Y20423   3.775   1.382   4.174
  179SLPC   C3920424   3.603   1.497   4.209
  179SLPC   H9X20425   3.553   1.589   4.170
  179SLPC   H9Y20426   3.640   1.533   4.307
  179SLPC  C31020427   3.513   1.380   4.234
  179SLPC  H10X20428   3.573   1.287   4.245
  179SLPC  H10Y20429   3.456   1.372   4.139
  179SLPC  C31120430   3.431   1.394   4.359
  179SLPC  H11X20431   3.365   1.482   4.346
  179SLPC  H11Y20432   3.484   1.408   4.455
  179SLPC  C31220433   3.348   1.266   4.381
  179SLPC  H12X20434   3.419   1.181   4.371
  179SLPC  H12Y20435   3.270   1.264   4.303
  179SLPC  C31320436   3.279   1.267   4.516
  179SLPC  H13X20437   3.182   1.215   4.505
  179SLPC  H13Y20438   3.267   1.375   4.538
  179SLPC  C31420439   3.371   1.208   4.633
  179SLPC  H14X20440   3.440   1.291   4.657
  179SLPC  H14Y20441   3.427   1.121   4.594
  179SLPC  C31520442   3.296   1.159   4.756
  179SLPC  H15X20443   3.248   1.062   4.730
  179SLPC  H15Y20444   3.214   1.230   4.778
  179SLPC  C31620445   3.379   1.119   4.879
  179SLPC  H16X20446   3.434   1.208   4.916
  179SLPC  H16Y20447   3.461   1.051   4.848
  179SLPC  C31720448   3.283   1.052   4.977
  179SLPC  H17X20449   3.228   0.961   4.942
  179SLPC  H17Y20450   3.201   1.121   5.005
  179SLPC  C31820451   3.358   1.010   5.104
  179SLPC  H18X20452   3.434   0.934   5.075
  179SLPC  H18Y20453   3.283   0.954   5.164
  179SLPC  H18Z20454   3.405   1.096   5.156
  180SLPC     N20455   1.864   1.329   1.979
  180SLPC   C1320456   1.725   1.368   1.947
  180SLPC  H13A20457   1.659   1.283   1.937
  180SLPC  H13B20458   1.686   1.420   2.033
  180SLPC  H13C20459   1.726   1.440   1.866
  180SLPC   C1420460   1.902   1.225   1.879
  180SLPC  H14A20461   1.883   1.240   1.774
  180SLPC  H14B20462   2.010   1.218   1.876
  180SLPC  H14C20463   1.856   1.132   1.907
  180SLPC   C1520464   1.874   1.268   2.112
  180SLPC  H15A20465   1.979   1.275   2.136
  180SLPC  H15B20466   1.810   1.316   2.185
  180SLPC  H15C20467   1.844   1.165   2.108
  180SLPC   C1220468   1.962   1.441   1.952
  180SLPC  H12A20469   1.978   1.463   1.848
  180SLPC  H12B20470   2.063   1.412   1.978
  180SLPC   C1120471   1.933   1.575   2.025
  180SLPC  H11A20472   1.828   1.601   2.001
  180SLPC  H11B20473   1.990   1.664   1.990
  180SLPC     P20474   2.099   1.535   2.227
  180SLPC   O1320475   2.152   1.408   2.171
  180SLPC   O1420476   2.181   1.653   2.213
  180SLPC   O1220477   1.959   1.564   2.167
  180SLPC   O1120478   2.063   1.508   2.382
  180SLPC    C120479   1.967   1.588   2.457
  180SLPC    HA20480   1.899   1.637   2.384
  180SLPC    HB20481   1.901   1.536   2.529
  180SLPC    C220482   2.045   1.703   2.533
  180SLPC    HS20483   2.102   1.763   2.459
  180SLPC   O2120484   2.141   1.641   2.632
  180SLPC   C2120485   2.234   1.736   2.674
  180SLPC   O2220486   2.243   1.843   2.624
  180SLPC   C2220487   2.332   1.679   2.779
  180SLPC   H2R20488   2.275   1.614   2.848
  180SLPC   H2S20489   2.404   1.611   2.729
  180SLPC    C320490   1.947   1.802   2.601
  180SLPC    HX20491   1.879   1.833   2.518
  180SLPC    HY20492   2.003   1.883   2.652
  180SLPC   O3120493   1.865   1.731   2.696
  180SLPC   C3120494   1.901   1.742   2.827
  180SLPC   O3220495   2.011   1.774   2.870
  180SLPC   C3220496   1.766   1.742   2.905
  180SLPC   H2X20497   1.709   1.653   2.872
  180SLPC   H2Y20498   1.719   1.838   2.872
  180SLPC   C2320499   2.399   1.794   2.861
  180SLPC   H3R20500   2.418   1.879   2.792
  180SLPC   H3S20501   2.496   1.761   2.905
  180SLPC   C2420502   2.314   1.839   2.978
  180SLPC   H4R20503   2.214   1.863   2.938
  180SLPC   H4S20504   2.369   1.925   3.024
  180SLPC   C2520505   2.303   1.736   3.087
  180SLPC   H5R20506   2.406   1.700   3.108
  180SLPC   H5S20507   2.245   1.648   3.051
  180SLPC   C2620508   2.235   1.789   3.215
  180SLPC   H6R20509   2.131   1.823   3.195
  180SLPC   H6S20510   2.299   1.869   3.259
  180SLPC   C2720511   2.223   1.679   3.323
  180SLPC   H7R20512   2.302   1.607   3.294
  180SLPC   H7S20513   2.126   1.625   3.318
  180SLPC   C2820514   2.248   1.731   3.465
  180SLPC   H8R20515   2.211   1.652   3.534
  180SLPC   H8S20516   2.195   1.827   3.485
  180SLPC   C2920517   2.396   1.764   3.500
  180SLPC   H9R20518   2.440   1.823   3.418
  180SLPC  C21020519   2.479   1.714   3.591
  180SLPC  H10R20520   2.581   1.756   3.592
  180SLPC  C21120521   2.442   1.620   3.701
  180SLPC  H11R20522   2.335   1.600   3.682
  180SLPC  H11S20523   2.449   1.684   3.792
  180SLPC  C21220524   2.510   1.488   3.704
  180SLPC  H12R20525   2.527   1.455   3.600
  180SLPC  C21320526   2.520   1.407   3.808
  180SLPC  H13R20527   2.581   1.316   3.803
  180SLPC  C21420528   2.501   1.454   3.949
  180SLPC  H14R20529   2.395   1.488   3.952
  180SLPC  H14S20530   2.569   1.538   3.974
  180SLPC  C21520531   2.504   1.347   4.064
  180SLPC  H15R20532   2.520   1.407   4.156
  180SLPC  H15S20533   2.587   1.273   4.063
  180SLPC  C21620534   2.373   1.269   4.082
  180SLPC  H16R20535   2.352   1.221   3.984
  180SLPC  H16S20536   2.291   1.339   4.107
  180SLPC  C21720537   2.393   1.157   4.175
  180SLPC  H17R20538   2.401   1.200   4.277
  180SLPC  H17S20539   2.495   1.117   4.156
  180SLPC  C21820540   2.283   1.052   4.165
  180SLPC  H18R20541   2.305   0.980   4.247
  180SLPC  H18S20542   2.303   0.996   4.072
  180SLPC  H18T20543   2.182   1.092   4.191
  180SLPC   C3320544   1.788   1.763   3.057
  180SLPC   H3X20545   1.853   1.852   3.073
  180SLPC   H3Y20546   1.841   1.677   3.103
  180SLPC   C3420547   1.659   1.784   3.133
  180SLPC   H4X20548   1.603   1.690   3.115
  180SLPC   H4Y20549   1.609   1.873   3.089
  180SLPC   C3520550   1.674   1.799   3.283
  180SLPC   H5X20551   1.579   1.843   3.321
  180SLPC   H5Y20552   1.745   1.877   3.316
  180SLPC   C3620553   1.716   1.666   3.350
  180SLPC   H6X20554   1.817   1.640   3.312
  180SLPC   H6Y20555   1.654   1.578   3.320
  180SLPC   C3720556   1.734   1.671   3.500
  180SLPC   H7X20557   1.797   1.758   3.527
  180SLPC   H7Y20558   1.796   1.581   3.519
  180SLPC   C3820559   1.599   1.662   3.575
  180SLPC   H8X20560   1.538   1.588   3.520
  180SLPC   H8Y20561   1.556   1.765   3.574
  180SLPC   C3920562   1.614   1.632   3.722
  180SLPC   H9X20563   1.668   1.537   3.736
  180SLPC   H9Y20564   1.520   1.600   3.772
  180SLPC  C31020565   1.695   1.737   3.800
  180SLPC  H10X20566   1.651   1.836   3.774
  180SLPC  H10Y20567   1.795   1.728   3.753
  180SLPC  C31120568   1.685   1.711   3.954
  180SLPC  H11X20569   1.578   1.716   3.982
  180SLPC  H11Y20570   1.748   1.782   4.012
  180SLPC  C31220571   1.729   1.571   4.001
  180SLPC  H12X20572   1.833   1.552   3.965
  180SLPC  H12Y20573   1.662   1.504   3.942
  180SLPC  C31320574   1.705   1.540   4.149
  180SLPC  H13X20575   1.594   1.532   4.155
  180SLPC  H13Y20576   1.737   1.617   4.222
  180SLPC  C31420577   1.763   1.393   4.181
  180SLPC  H14X20578   1.869   1.389   4.147
  180SLPC  H14Y20579   1.703   1.312   4.134
  180SLPC  C31520580   1.758   1.364   4.330
  180SLPC  H15X20581   1.660   1.396   4.373
  180SLPC  H15Y20582   1.830   1.435   4.374
  180SLPC  C31620583   1.789   1.222   4.372
  180SLPC  H16X20584   1.883   1.193   4.321
  180SLPC  H16Y20585   1.704   1.154   4.348
  180SLPC  C31720586   1.810   1.212   4.522
  180SLPC  H17X20587   1.719   1.259   4.566
  180SLPC  H17Y20588   1.897   1.277   4.547
  180SLPC  C31820589   1.825   1.062   4.569
  180SLPC  H18X20590   1.855   1.066   4.676
  180SLPC  H18Y20591   1.916   1.018   4.523
  180SLPC  H18Z20592   1.743   0.993   4.542
  181SLPC     N20593   1.051   0.138   2.046
  181SLPC   C1320594   1.143   0.176   1.933
  181SLPC  H13A20595   1.248   0.184   1.955
  181SLPC  H13B20596   1.129   0.104   1.854
  181SLPC  H13C20597   1.111   0.267   1.885
  181SLPC   C1420598   1.127   0.037   2.127
  181SLPC  H14A20599   1.222   0.078   2.160
  181SLPC  H14B20600   1.066   0.011   2.212
  181SLPC  H14C20601   1.137   6.727   2.064
  181SLPC   C1520602   0.929   0.077   1.986
  181SLPC  H15A20603   0.883   0.008   2.055
  181SLPC  H15B20604   0.864   0.161   1.962
  181SLPC  H15C20605   0.948   0.010   1.904
  181SLPC   C1220606   1.021   0.254   2.139
  181SLPC  H12A20607   0.929   0.229   2.190
  181SLPC  H12B20608   0.997   0.340   2.078
  181SLPC   C1120609   1.131   0.302   2.239
  181SLPC  H11A20610   1.129   0.229   2.323
  181SLPC  H11B20611   1.111   0.402   2.282
  181SLPC     P20612   1.316   0.433   2.096
  181SLPC   O1320613   1.397   0.394   1.981
  181SLPC   O1420614   1.212   0.535   2.074
  181SLPC   O1220615   1.264   0.309   2.176
  181SLPC   O1120616   1.422   0.495   2.197
  181SLPC    C120617   1.380   0.549   2.319
  181SLPC    HA20618   1.412   0.655   2.323
  181SLPC    HB20619   1.272   0.549   2.344
  181SLPC    C220620   1.464   0.485   2.440
  181SLPC    HS20621   1.570   0.495   2.406
  181SLPC   O2120622   1.415   0.348   2.462
  181SLPC   C2120623   1.478   0.247   2.399
  181SLPC   O2220624   1.579   0.260   2.333
  181SLPC   C2220625   1.408   0.114   2.425
  181SLPC   H2R20626   1.317   0.139   2.484
  181SLPC   H2S20627   1.382   0.067   2.327
  181SLPC    C320628   1.450   0.575   2.560
  181SLPC    HX20629   1.351   0.625   2.571
  181SLPC    HY20630   1.531   0.649   2.544
  181SLPC   O3120631   1.476   0.503   2.682
  181SLPC   C3120632   1.510   0.572   2.790
  181SLPC   O3220633   1.528   0.690   2.788
  181SLPC   C3220634   1.508   0.484   2.919
  181SLPC   H2X20635   1.507   0.374   2.903
  181SLPC   H2Y20636   1.417   0.528   2.966
  181SLPC   C2320637   1.497   0.015   2.500
  181SLPC   H3R20638   1.595   0.013   2.447
  181SLPC   H3S20639   1.455   6.689   2.506
  181SLPC   C2420640   1.527   0.045   2.650
  181SLPC   H4R20641   1.579   0.142   2.666
  181SLPC   H4S20642   1.595   6.745   2.692
  181SLPC   C2520643   1.399   0.070   2.729
  181SLPC   H5R20644   1.317   6.772   2.720
  181SLPC   H5S20645   1.351   0.166   2.699
  181SLPC   C2620646   1.440   0.085   2.878
  181SLPC   H6R20647   1.518   0.163   2.895
  181SLPC   H6S20648   1.488   6.769   2.917
  181SLPC   C2720649   1.309   0.107   2.957
  181SLPC   H7R20650   1.239   0.026   2.928
  181SLPC   H7S20651   1.254   0.193   2.913
  181SLPC   C2820652   1.311   0.117   3.109
  181SLPC   H8R20653   1.379   0.200   3.135
  181SLPC   H8S20654   1.367   0.031   3.150
  181SLPC   C2920655   1.175   0.139   3.170
  181SLPC   H9R20656   1.114   0.224   3.138
  181SLPC  C21020657   1.117   0.065   3.267
  181SLPC  H10R20658   1.011   0.088   3.289
  181SLPC  C21120659   1.185   6.740   3.356
  181SLPC  H11R20660   1.251   6.679   3.292
  181SLPC  H11S20661   1.105   6.669   3.386
  181SLPC  C21220662   1.263   0.028   3.476
  181SLPC  H12R20663   1.302   0.129   3.455
  181SLPC  C21320664   1.277   6.740   3.596
  181SLPC  H13R20665   1.326   0.015   3.679
  181SLPC  C21420666   1.232   6.606   3.639
  181SLPC  H14R20667   1.320   6.549   3.675
  181SLPC  H14S20668   1.183   6.546   3.559
  181SLPC  C21520669   1.129   6.622   3.754
  181SLPC  H15R20670   1.033   6.637   3.701
  181SLPC  H15S20671   1.145   6.709   3.823
  181SLPC  C21620672   1.109   6.494   3.840
  181SLPC  H16R20673   1.196   6.471   3.905
  181SLPC  H16S20674   1.089   6.412   3.768
  181SLPC  C21720675   0.992   6.505   3.935
  181SLPC  H17R20676   0.901   6.538   3.880
  181SLPC  H17S20677   1.027   6.573   4.015
  181SLPC  C21820678   0.963   6.372   3.994
  181SLPC  H18R20679   1.046   6.339   4.060
  181SLPC  H18S20680   0.953   6.295   3.914
  181SLPC  H18T20681   0.874   6.374   4.060
  181SLPC   C3320682   1.624   0.516   3.011
  181SLPC   H3X20683   1.616   0.622   3.041
  181SLPC   H3Y20684   1.725   0.488   2.974
  181SLPC   C3420685   1.603   0.443   3.144
  181SLPC   H4X20686   1.704   0.452   3.191
  181SLPC   H4Y20687   1.574   0.343   3.108
  181SLPC   C3520688   1.492   0.492   3.231
  181SLPC   H5X20689   1.394   0.500   3.180
  181SLPC   H5Y20690   1.510   0.590   3.280
  181SLPC   C3620691   1.474   0.391   3.342
  181SLPC   H6X20692   1.571   0.393   3.395
  181SLPC   H6Y20693   1.439   0.297   3.295
  181SLPC   C3720694   1.365   0.429   3.445
  181SLPC   H7X20695   1.269   0.378   3.427
  181SLPC   H7Y20696   1.354   0.538   3.426
  181SLPC   C3820697   1.402   0.388   3.591
  181SLPC   H8X20698   1.412   0.278   3.607
  181SLPC   H8Y20699   1.310   0.423   3.642
  181SLPC   C3920700   1.524   0.453   3.659
  181SLPC   H9X20701   1.618   0.411   3.618
  181SLPC   H9Y20702   1.522   0.435   3.769
  181SLPC  C31020703   1.519   0.614   3.639
  181SLPC  H10X20704   1.423   0.656   3.675
  181SLPC  H10Y20705   1.510   0.637   3.531
  181SLPC  C31120706   1.635   0.700   3.690
  181SLPC  H11X20707   1.628   0.809   3.668
  181SLPC  H11Y20708   1.727   0.663   3.641
  181SLPC  C31220709   1.671   0.681   3.841
  181SLPC  H12X20710   1.753   0.751   3.867
  181SLPC  H12Y20711   1.719   0.582   3.850
  181SLPC  C31320712   1.562   0.697   3.942
  181SLPC  H13X20713   1.493   0.612   3.926
  181SLPC  H13Y20714   1.500   0.786   3.918
  181SLPC  C31420715   1.607   0.690   4.085
  181SLPC  H14X20716   1.671   0.600   4.098
  181SLPC  H14Y20717   1.523   0.681   4.157
  181SLPC  C31520718   1.697   0.799   4.141
  181SLPC  H15X20719   1.802   0.782   4.107
  181SLPC  H15Y20720   1.711   0.787   4.250
  181SLPC  C31620721   1.642   0.942   4.120
  181SLPC  H16X20722   1.619   0.965   4.013
  181SLPC  H16Y20723   1.715   1.013   4.164
  181SLPC  C31720724   1.499   0.952   4.186
  181SLPC  H17X20725   1.515   0.919   4.291
  181SLPC  H17Y20726   1.430   0.873   4.149
  181SLPC  C31820727   1.445   1.099   4.175
  181SLPC  H18X20728   1.514   1.174   4.219
  181SLPC  H18Y20729   1.344   1.119   4.216
  181SLPC  H18Z20730   1.430   1.126   4.068
  182SLPC     N20731   2.623   6.425   1.915
  182SLPC   C1320732   2.693   6.295   1.956
  182SLPC  H13A20733   2.628   6.240   2.023
  182SLPC  H13B20734   2.707   6.234   1.868
  182SLPC  H13C20735   2.789   6.314   2.002
  182SLPC   C1420736   2.475   6.410   1.913
  182SLPC  H14A20737   2.437   6.348   1.833
  182SLPC  H14B20738   2.447   6.355   2.002
  182SLPC  H14C20739   2.425   6.504   1.894
  182SLPC   C1520740   2.660   6.472   1.774
  182SLPC  H15A20741   2.766   6.492   1.769
  182SLPC  H15B20742   2.637   6.403   1.694
  182SLPC  H15C20743   2.613   6.565   1.743
  182SLPC   C1220744   2.651   6.535   2.011
  182SLPC  H12A20745   2.617   6.628   1.968
  182SLPC  H12B20746   2.757   6.550   2.025
  182SLPC   C1120747   2.605   6.507   2.155
  182SLPC  H11A20748   2.495   6.488   2.162
  182SLPC  H11B20749   2.615   6.602   2.212
  182SLPC     P20750   2.824   6.416   2.257
  182SLPC   O1320751   2.870   6.286   2.311
  182SLPC   O1420752   2.910   6.467   2.151
  182SLPC   O1220753   2.667   6.399   2.221
  182SLPC   O1120754   2.824   6.513   2.383
  182SLPC    C120755   2.732   6.488   2.495
  182SLPC    HA20756   2.692   6.589   2.518
  182SLPC    HB20757   2.648   6.423   2.462
  182SLPC    C220758   2.806   6.423   2.612
  182SLPC    HS20759   2.845   6.324   2.582
  182SLPC   O2120760   2.710   6.427   2.723
  182SLPC   C2120761   2.624   6.323   2.716
  182SLPC   O2220762   2.641   6.222   2.648
  182SLPC   C2220763   2.508   6.357   2.800
  182SLPC   H2R20764   2.480   6.458   2.763
  182SLPC   H2S20765   2.420   6.292   2.781
  182SLPC    C320766   2.926   6.502   2.658
  182SLPC    HX20767   2.878   6.600   2.679
  182SLPC    HY20768   3.000   6.516   2.577
  182SLPC   O3120769   2.985   6.444   2.772
  182SLPC   C3120770   3.047   6.537   2.848
  182SLPC   O3220771   3.056   6.654   2.819
  182SLPC   C3220772   3.081   6.478   2.987
  182SLPC   H2X20773   3.169   6.411   2.974
  182SLPC   H2Y20774   2.990   6.428   3.027
  182SLPC   C2320775   2.556   6.358   2.954
  182SLPC   H3R20776   2.654   6.410   2.951
  182SLPC   H3S20777   2.562   6.256   2.997
  182SLPC   C2420778   2.477   6.458   3.041
  182SLPC   H4R20779   2.463   6.555   2.987
  182SLPC   H4S20780   2.535   6.487   3.131
  182SLPC   C2520781   2.339   6.412   3.090
  182SLPC   H5R20782   2.334   6.303   3.112
  182SLPC   H5S20783   2.261   6.438   3.016
  182SLPC   C2620784   2.294   6.485   3.216
  182SLPC   H6R20785   2.321   6.593   3.216
  182SLPC   H6S20786   2.357   6.446   3.299
  182SLPC   C2720787   2.147   6.476   3.229
  182SLPC   H7R20788   2.124   6.369   3.206
  182SLPC   H7S20789   2.106   6.542   3.150
  182SLPC   C2820790   2.099   6.506   3.371
  182SLPC   H8R20791   2.132   6.429   3.444
  182SLPC   H8S20792   1.989   6.498   3.359
  182SLPC   C2920793   2.134   6.643   3.423
  182SLPC   H9R20794   2.099   6.721   3.353
  182SLPC  C21020795   2.198   6.678   3.532
  182SLPC  H10R20796   2.217   0.008   3.547
  182SLPC  C21120797   2.241   6.579   3.643
  182SLPC  H11R20798   2.330   6.617   3.697
  182SLPC  H11S20799   2.267   6.480   3.600
  182SLPC  C21220800   2.123   6.560   3.743
  182SLPC  H12R20801   2.025   6.539   3.697
  182SLPC  C21320802   2.143   6.540   3.874
  182SLPC  H13R20803   2.056   6.516   3.937
  182SLPC  C21420804   2.270   6.554   3.956
  182SLPC  H14R20805   2.282   6.638   4.028
  182SLPC  H14S20806   2.361   6.570   3.895
  182SLPC  C21520807   2.291   6.413   4.026
  182SLPC  H15R20808   2.302   6.334   3.949
  182SLPC  H15S20809   2.209   6.396   4.100
  182SLPC  C21620810   2.417   6.424   4.106
  182SLPC  H16R20811   2.423   6.508   4.179
  182SLPC  H16S20812   2.498   6.444   4.033
  182SLPC  C21720813   2.443   6.293   4.190
  182SLPC  H17R20814   2.476   6.212   4.121
  182SLPC  H17S20815   2.348   6.260   4.237
  182SLPC  C21820816   2.540   6.312   4.304
  182SLPC  H18R20817   2.642   6.333   4.264
  182SLPC  H18S20818   2.537   6.222   4.369
  182SLPC  H18T20819   2.511   6.404   4.359
  182SLPC   C3320820   3.091   6.577   3.105
  182SLPC   H3X20821   3.010   6.653   3.095
  182SLPC   H3Y20822   3.189   6.627   3.091
  182SLPC   C3420823   3.074   6.516   3.241
  182SLPC   H4X20824   3.150   6.436   3.256
  182SLPC   H4Y20825   2.974   6.468   3.246
  182SLPC   C3520826   3.105   6.616   3.358
  182SLPC   H5X20827   3.051   6.712   3.342
  182SLPC   H5Y20828   3.213   6.632   3.337
  182SLPC   C3620829   3.088   6.557   3.494
  182SLPC   H6X20830   3.176   6.493   3.517
  182SLPC   H6Y20831   2.989   6.519   3.528
  182SLPC   C3720832   3.090   6.673   3.597
  182SLPC   H7X20833   3.017   6.747   3.557
  182SLPC   H7Y20834   3.190   6.721   3.599
  182SLPC   C3820835   3.043   6.616   3.728
  182SLPC   H8X20836   2.934   6.597   3.733
  182SLPC   H8Y20837   3.065   6.699   3.799
  182SLPC   C3920838   3.116   6.490   3.774
  182SLPC   H9X20839   3.220   6.526   3.792
  182SLPC   H9Y20840   3.111   6.417   3.691
  182SLPC  C31020841   3.067   6.423   3.902
  182SLPC  H10X20842   3.064   6.500   3.982
  182SLPC  H10Y20843   3.133   6.343   3.941
  182SLPC  C31120844   2.933   6.348   3.882
  182SLPC  H11X20845   2.948   6.284   3.793
  182SLPC  H11Y20846   2.855   6.423   3.858
  182SLPC  C31220847   2.908   6.264   4.004
  182SLPC  H12X20848   2.887   6.329   4.092
  182SLPC  H12Y20849   3.002   6.207   4.021
  182SLPC  C31320850   2.789   6.167   3.996
  182SLPC  H13X20851   2.816   6.111   3.905
  182SLPC  H13Y20852   2.697   6.229   4.005
  182SLPC  C31420853   2.789   6.084   4.127
  182SLPC  H14X20854   2.748   6.143   4.212
  182SLPC  H14Y20855   2.893   6.055   4.151
  182SLPC  C31520856   2.699   5.956   4.117
  182SLPC  H15X20857   2.742   5.893   4.037
  182SLPC  H15Y20858   2.595   5.976   4.084
  182SLPC  C31620859   2.699   5.872   4.247
  182SLPC  H16X20860   2.802   5.838   4.272
  182SLPC  H16Y20861   2.644   5.778   4.227
  182SLPC  C31720862   2.638   5.938   4.371
  182SLPC  H17X20863   2.607   5.852   4.433
  182SLPC  H17Y20864   2.551   6.004   4.350
  182SLPC  C31820865   2.739   6.019   4.454
  182SLPC  H18X20866   2.796   6.095   4.397
  182SLPC  H18Y20867   2.805   5.942   4.500
  182SLPC  H18Z20868   2.693   6.065   4.544
  183SLPC     N20869   5.098   2.353   2.018
  183SLPC   C1320870   5.017   2.349   1.895
  183SLPC  H13A20871   5.056   2.272   1.830
  183SLPC  H13B20872   4.915   2.336   1.927
  183SLPC  H13C20873   5.031   2.440   1.837
  183SLPC   C1420874   5.028   2.449   2.102
  183SLPC  H14A20875   5.042   2.543   2.050
  183SLPC  H14B20876   4.926   2.419   2.118
  183SLPC  H14C20877   5.076   2.456   2.198
  183SLPC   C1520878   5.237   2.400   1.983
  183SLPC  H15A20879   5.312   2.391   2.060
  183SLPC  H15B20880   5.265   2.344   1.895
  183SLPC  H15C20881   5.226   2.503   1.952
  183SLPC   C1220882   5.118   2.224   2.099
  183SLPC  H12A20883   5.157   2.157   2.024
  183SLPC  H12B20884   5.018   2.187   2.118
  183SLPC   C1120885   5.197   2.229   2.230
  183SLPC  H11A20886   5.303   2.248   2.203
  183SLPC  H11B20887   5.197   2.126   2.270
  183SLPC     P20888   5.232   2.381   2.439
  183SLPC   O1320889   5.344   2.456   2.384
  183SLPC   O1420890   5.146   2.453   2.535
  183SLPC   O1220891   5.138   2.322   2.331
  183SLPC   O1120892   5.291   2.260   2.507
  183SLPC    C120893   5.291   2.248   2.650
  183SLPC    HA20894   5.204   2.296   2.700
  183SLPC    HB20895   5.271   2.140   2.668
  183SLPC    C220896   5.420   2.305   2.720
  183SLPC    HS20897   5.415   2.280   2.828
  183SLPC   O2120898   5.442   2.449   2.695
  183SLPC   C2120899   5.366   2.518   2.774
  183SLPC   O2220900   5.309   2.487   2.874
  183SLPC   C2220901   5.366   2.659   2.727
  183SLPC   H2R20902   5.470   2.696   2.715
  183SLPC   H2S20903   5.321   2.651   2.626
  183SLPC    C320904   5.550   2.235   2.662
  183SLPC    HX20905   5.554   2.264   2.555
  183SLPC    HY20906   5.534   2.126   2.669
  183SLPC   O3120907   5.670   2.288   2.719
  183SLPC   C3120908   5.746   2.213   2.805
  183SLPC   O3220909   5.710   2.104   2.848
  183SLPC   C3220910   5.855   2.307   2.864
  183SLPC   H2X20911   5.863   2.400   2.803
  183SLPC   H2Y20912   5.954   2.256   2.862
  183SLPC   C2320913   5.292   2.762   2.818
  183SLPC   H3R20914   5.296   2.725   2.923
  183SLPC   H3S20915   5.184   2.767   2.793
  183SLPC   C2420916   5.346   2.907   2.825
  183SLPC   H4R20917   5.350   2.941   2.719
  183SLPC   H4S20918   5.454   2.907   2.853
  183SLPC   C2520919   5.266   3.009   2.909
  183SLPC   H5R20920   5.229   2.972   3.007
  183SLPC   H5S20921   5.181   3.039   2.845
  183SLPC   C2620922   5.348   3.133   2.955
  183SLPC   H6R20923   5.289   3.201   3.021
  183SLPC   H6S20924   5.371   3.189   2.862
  183SLPC   C2720925   5.470   3.104   3.044
  183SLPC   H7R20926   5.548   3.055   2.982
  183SLPC   H7S20927   5.432   3.025   3.113
  183SLPC   C2820928   5.512   3.214   3.134
  183SLPC   H8R20929   5.448   3.205   3.224
  183SLPC   H8S20930   5.482   3.309   3.086
  183SLPC   C2920931   5.662   3.221   3.156
  183SLPC   H9R20932   5.722   3.258   3.071
  183SLPC  C21020933   5.727   3.194   3.272
  183SLPC  H10R20934   5.834   3.215   3.273
  183SLPC  C21120935   5.660   3.150   3.405
  183SLPC  H11R20936   5.730   3.083   3.460
  183SLPC  H11S20937   5.577   3.080   3.382
  183SLPC  C21220938   5.627   3.269   3.497
  183SLPC  H12R20939   5.589   3.360   3.449
  183SLPC  C21320940   5.652   3.276   3.633
  183SLPC  H13R20941   5.638   3.373   3.684
  183SLPC  C21420942   5.717   3.165   3.711
  183SLPC  H14R20943   5.825   3.190   3.720
  183SLPC  H14S20944   5.714   3.070   3.653
  183SLPC  C21520945   5.658   3.146   3.851
  183SLPC  H15R20946   5.703   3.057   3.900
  183SLPC  H15S20947   5.548   3.129   3.847
  183SLPC  C21620948   5.710   3.255   3.957
  183SLPC  H16R20949   5.651   3.346   3.932
  183SLPC  H16S20950   5.817   3.280   3.940
  183SLPC  C21720951   5.677   3.204   4.099
  183SLPC  H17R20952   5.715   3.100   4.105
  183SLPC  H17S20953   5.568   3.194   4.118
  183SLPC  C21820954   5.751   3.284   4.207
  183SLPC  H18R20955   5.858   3.264   4.189
  183SLPC  H18S20956   5.705   3.275   4.308
  183SLPC  H18T20957   5.725   3.391   4.187
  183SLPC   C3320958   5.821   2.336   3.010
  183SLPC   H3X20959   5.904   2.390   3.060
  183SLPC   H3Y20960   5.808   2.233   3.052
  183SLPC   C3420961   5.692   2.425   3.027
  183SLPC   H4X20962   5.600   2.376   2.991
  183SLPC   H4Y20963   5.700   2.512   2.959
  183SLPC   C3520964   5.682   2.483   3.174
  183SLPC   H5X20965   5.778   2.537   3.188
  183SLPC   H5Y20966   5.671   2.395   3.241
  183SLPC   C3620967   5.570   2.580   3.192
  183SLPC   H6X20968   5.477   2.522   3.175
  183SLPC   H6Y20969   5.580   2.653   3.108
  183SLPC   C3720970   5.569   2.649   3.323
  183SLPC   H7X20971   5.666   2.701   3.340
  183SLPC   H7Y20972   5.578   2.580   3.409
  183SLPC   C3820973   5.451   2.736   3.347
  183SLPC   H8X20974   5.360   2.672   3.357
  183SLPC   H8Y20975   5.436   2.815   3.270
  183SLPC   C3920976   5.475   2.812   3.483
  183SLPC   H9X20977   5.542   2.900   3.473
  183SLPC   H9Y20978   5.520   2.740   3.555
  183SLPC  C31020979   5.337   2.864   3.533
  183SLPC  H10X20980   5.289   2.765   3.550
  183SLPC  H10Y20981   5.278   2.930   3.467
  183SLPC  C31120982   5.353   2.940   3.662
  183SLPC  H11X20983   5.421   3.027   3.652
  183SLPC  H11Y20984   5.386   2.877   3.747
  183SLPC  C31220985   5.215   3.004   3.699
  183SLPC  H12X20986   5.144   2.928   3.736
  183SLPC  H12Y20987   5.183   3.058   3.608
  183SLPC  C31320988   5.228   3.112   3.809
  183SLPC  H13X20989   5.295   3.194   3.776
  183SLPC  H13Y20990   5.259   3.056   3.900
  183SLPC  C31420991   5.098   3.184   3.835
  183SLPC  H14X20992   5.021   3.105   3.843
  183SLPC  H14Y20993   5.079   3.249   3.747
  183SLPC  C31520994   5.110   3.279   3.956
  183SLPC  H15X20995   5.167   3.368   3.923
  183SLPC  H15Y20996   5.163   3.227   4.039
  183SLPC  C31620997   4.967   3.323   4.015
  183SLPC  H16X20998   4.899   3.235   4.021
  183SLPC  H16Y20999   4.925   3.401   3.948
  183SLPC  C31721000   4.975   3.363   4.163
  183SLPC  H17X21001   5.035   3.456   4.158
  183SLPC  H17Y21002   5.028   3.282   4.218
  183SLPC  C31821003   4.835   3.386   4.220
  183SLPC  H18X21004   4.774   3.295   4.199
  183SLPC  H18Y21005   4.796   3.481   4.180
  183SLPC  H18Z21006   4.863   3.386   4.327
  184SLPC     N21007   5.722   1.696   2.034
  184SLPC   C1321008   5.663   1.739   2.165
  184SLPC  H13A21009   5.745   1.783   2.220
  184SLPC  H13B21010   5.580   1.807   2.153
  184SLPC  H13C21011   5.636   1.651   2.221
  184SLPC   C1421012   5.615   1.640   1.944
  184SLPC  H14A21013   5.542   1.578   1.994
  184SLPC  H14B21014   5.559   1.725   1.909
  184SLPC  H14C21015   5.657   1.587   1.859
  184SLPC   C1521016   5.815   1.578   2.073
  184SLPC  H15A21017   5.904   1.606   2.128
  184SLPC  H15B21018   5.759   1.518   2.143
  184SLPC  H15C21019   5.852   1.524   1.987
  184SLPC   C1221020   5.802   1.812   1.975
  184SLPC  H12A21021   5.737   1.891   1.942
  184SLPC  H12B21022   5.836   1.766   1.883
  184SLPC   C1121023   5.915   1.869   2.061
  184SLPC  H11A21024   5.884   1.918   2.156
  184SLPC  H11B21025   5.957   1.957   2.008
  184SLPC     P21026   6.169   1.810   2.095
  184SLPC   O1321027   6.233   1.706   2.181
  184SLPC   O1421028   6.210   1.825   1.954
  184SLPC   O1221029   6.015   1.771   2.103
  184SLPC   O1121030   6.168   1.952   2.163
  184SLPC    C121031   6.116   1.977   2.294
  184SLPC    HA21032   6.028   2.045   2.292
  184SLPC    HB21033   6.075   1.883   2.337
  184SLPC    C221034   6.222   2.036   2.394
  184SLPC    HS21035   6.295   1.955   2.417
  184SLPC   O2121036   6.148   2.082   2.512
  184SLPC   C2121037   6.162   1.996   2.612
  184SLPC   O2221038   6.225   1.894   2.604
  184SLPC   C2221039   6.069   2.029   2.729
  184SLPC   H2R21040   6.043   2.136   2.718
  184SLPC   H2S21041   5.980   1.966   2.706
  184SLPC    C321042   6.303   2.148   2.329
  184SLPC    HX21043   6.235   2.223   2.285
  184SLPC    HY21044   6.374   2.100   2.258
  184SLPC   O3121045   6.386   2.208   2.434
  184SLPC   C3121046   6.347   2.315   2.488
  184SLPC   O3221047   6.255   2.387   2.456
  184SLPC   C3221048   6.423   2.329   2.618
  184SLPC   H2X21049   6.528   2.330   2.580
  184SLPC   H2Y21050   6.409   2.236   2.677
  184SLPC   C2321051   6.115   1.985   2.870
  184SLPC   H3R21052   6.192   2.056   2.907
  184SLPC   H3S21053   6.172   1.891   2.861
  184SLPC   C2421054   5.998   1.966   2.971
  184SLPC   H4R21055   5.940   1.873   2.956
  184SLPC   H4S21056   5.924   2.047   2.958
  184SLPC   C2521057   6.049   1.957   3.118
  184SLPC   H5R21058   6.088   2.058   3.145
  184SLPC   H5S21059   6.133   1.884   3.118
  184SLPC   C2621060   5.947   1.912   3.223
  184SLPC   H6R21061   5.907   1.815   3.188
  184SLPC   H6S21062   5.860   1.981   3.225
  184SLPC   C2721063   6.016   1.893   3.361
  184SLPC   H7R21064   6.072   1.984   3.390
  184SLPC   H7S21065   6.077   1.800   3.365
  184SLPC   C2821066   5.910   1.893   3.475
  184SLPC   H8R21067   5.822   1.832   3.446
  184SLPC   H8S21068   5.866   1.992   3.497
  184SLPC   C2921069   5.975   1.832   3.602
  184SLPC   H9R21070   5.990   1.724   3.589
  184SLPC  C21021071   6.011   1.895   3.716
  184SLPC  H10R21072   6.070   1.845   3.794
  184SLPC  C21121073   6.005   2.047   3.720
  184SLPC  H11R21074   5.920   2.095   3.667
  184SLPC  H11S21075   6.096   2.084   3.667
  184SLPC  C21221076   5.990   2.094   3.861
  184SLPC  H12R21077   5.890   2.074   3.901
  184SLPC  C21321078   6.068   2.176   3.932
  184SLPC  H13R21079   6.049   2.192   4.039
  184SLPC  C21421080   6.208   2.215   3.886
  184SLPC  H14R21081   6.238   2.134   3.817
  184SLPC  H14S21082   6.279   2.218   3.971
  184SLPC  C21521083   6.213   2.360   3.824
  184SLPC  H15R21084   6.180   2.434   3.901
  184SLPC  H15S21085   6.145   2.362   3.737
  184SLPC  C21621086   6.347   2.401   3.761
  184SLPC  H16R21087   6.379   2.312   3.702
  184SLPC  H16S21088   6.426   2.421   3.837
  184SLPC  C21721089   6.346   2.529   3.665
  184SLPC  H17R21090   6.331   2.621   3.726
  184SLPC  H17S21091   6.256   2.514   3.602
  184SLPC  C21821092   6.481   2.553   3.587
  184SLPC  H18R21093   6.511   2.466   3.525
  184SLPC  H18S21094   6.550   2.576   3.671
  184SLPC  H18T21095   6.466   2.640   3.519
  184SLPC   C3321096   6.389   2.450   2.699
  184SLPC   H3X21097   6.372   2.532   2.625
  184SLPC   H3Y21098   6.475   2.494   2.754
  184SLPC   C3421099   6.278   2.428   2.808
  184SLPC   H4X21100   6.188   2.374   2.772
  184SLPC   H4Y21101   6.240   2.528   2.841
  184SLPC   C3521102   6.324   2.345   2.932
  184SLPC   H5X21103   6.427   2.372   2.964
  184SLPC   H5Y21104   6.331   2.236   2.914
  184SLPC   C3621105   6.236   2.381   3.053
  184SLPC   H6X21106   6.136   2.343   3.023
  184SLPC   H6Y21107   6.220   2.490   3.066
  184SLPC   C3721108   6.279   2.312   3.180
  184SLPC   H7X21109   6.387   2.335   3.194
  184SLPC   H7Y21110   6.268   2.202   3.174
  184SLPC   C3821111   6.206   2.368   3.308
  184SLPC   H8X21112   6.203   2.478   3.321
  184SLPC   H8Y21113   6.265   2.329   3.393
  184SLPC   C3921114   6.063   2.314   3.306
  184SLPC   H9X21115   6.057   2.213   3.259
  184SLPC   H9Y21116   6.000   2.384   3.247
  184SLPC  C31021117   6.015   2.286   3.451
  184SLPC  H10X21118   6.095   2.242   3.514
  184SLPC  H10Y21119   5.920   2.229   3.444
  184SLPC  C31121120   5.970   2.426   3.499
  184SLPC  H11X21121   5.952   2.493   3.412
  184SLPC  H11Y21122   6.054   2.467   3.561
  184SLPC  C31221123   5.846   2.427   3.589
  184SLPC  H12X21124   5.854   2.341   3.659
  184SLPC  H12Y21125   5.760   2.411   3.520
  184SLPC  C31321126   5.825   2.562   3.657
  184SLPC  H13X21127   5.811   2.648   3.588
  184SLPC  H13Y21128   5.914   2.591   3.717
  184SLPC  C31421129   5.701   2.547   3.754
  184SLPC  H14X21130   5.723   2.485   3.843
  184SLPC  H14Y21131   5.614   2.502   3.702
  184SLPC  C31521132   5.667   2.682   3.814
  184SLPC  H15X21133   5.656   2.753   3.729
  184SLPC  H15Y21134   5.755   2.714   3.873
  184SLPC  C31621135   5.542   2.674   3.903
  184SLPC  H16X21136   5.546   2.589   3.974
  184SLPC  H16Y21137   5.445   2.665   3.850
  184SLPC  C31721138   5.529   2.806   3.985
  184SLPC  H17X21139   5.525   2.885   3.906
  184SLPC  H17Y21140   5.624   2.828   4.037
  184SLPC  C31821141   5.407   2.800   4.072
  184SLPC  H18X21142   5.422   2.860   4.165
  184SLPC  H18Y21143   5.381   2.700   4.112
  184SLPC  H18Z21144   5.323   2.844   4.015
  185POPC     N21145   1.366   5.765   6.863
  185POPC   C1221146   1.368   5.912   6.816
  185POPC  H12A21147   1.430   5.975   6.878
  185POPC  H12B21148   1.265   5.943   6.824
  185POPC   C1321149   1.260   5.690   6.789
  185POPC  H13A21150   1.262   5.584   6.808
  185POPC  H13B21151   1.164   5.732   6.815
  185POPC  H13C21152   1.264   5.719   6.685
  185POPC   C1421153   1.498   5.704   6.835
  185POPC  H14A21154   1.530   5.707   6.732
  185POPC  H14B21155   1.569   5.769   6.884
  185POPC  H14C21156   1.516   5.606   6.877
  185POPC   C1521157   1.335   5.763   7.007
  185POPC  H15A21158   1.406   5.825   7.059
  185POPC  H15B21159   1.350   5.665   7.049
  185POPC  H15C21160   1.237   5.806   7.021
  185POPC   C1121161   1.407   5.948   6.669
  185POPC  H11A21162   1.494   5.886   6.641
  185POPC  H11B21163   1.440   6.053   6.654
  185POPC     P21164   1.165   5.990   6.589
  185POPC   O1321165   1.169   6.077   6.469
  185POPC   O1421166   1.141   6.053   6.726
  185POPC   O1221167   1.296   5.905   6.584
  185POPC   O1121168   1.052   5.874   6.584
  185POPC    C121169   1.010   5.831   6.450
  185POPC    HA21170   1.099   5.811   6.387
  185POPC    HB21171   0.946   5.909   6.404
  185POPC    C221172   0.927   5.702   6.443
  185POPC    HS21173   0.844   5.724   6.513
  185POPC   O2121174   1.011   5.593   6.488
  185POPC   C2121175   0.937   5.488   6.526
  185POPC   O2221176   0.817   5.476   6.524
  185POPC   C2221177   1.029   5.369   6.563
  185POPC   H2R21178   0.979   5.271   6.547
  185POPC   H2S21179   1.043   5.380   6.673
  185POPC    C321180   0.870   5.669   6.299
  185POPC    HX21181   0.830   5.566   6.294
  185POPC    HY21182   0.961   5.656   6.236
  185POPC   O3121183   0.787   5.773   6.240
  185POPC   C3121184   0.659   5.752   6.266
  185POPC   O3221185   0.609   5.663   6.330
  185POPC   C3221186   0.581   5.855   6.176
  185POPC   H2X21187   0.586   5.956   6.223
  185POPC   H2Y21188   0.473   5.837   6.157
  185POPC   C2321189   1.169   5.367   6.492
  185POPC   H3R21190   1.232   5.291   6.543
  185POPC   H3S21191   1.217   5.467   6.482
  185POPC   C2421192   1.146   5.294   6.357
  185POPC   H4R21193   1.055   5.331   6.305
  185POPC   H4S21194   1.119   5.187   6.372
  185POPC   C2521195   1.256   5.314   6.257
  185POPC   H5R21196   1.338   5.245   6.289
  185POPC   H5S21197   1.309   5.411   6.260
  185POPC   C2621198   1.212   5.291   6.109
  185POPC   H6R21199   1.137   5.366   6.077
  185POPC   H6S21200   1.167   5.190   6.098
  185POPC   C2721201   1.338   5.301   6.017
  185POPC   H7R21202   1.426   5.292   6.083
  185POPC   H7S21203   1.351   5.395   5.960
  185POPC   C2821204   1.344   5.190   5.909
  185POPC   H8R21205   1.344   5.089   5.953
  185POPC   H8S21206   1.444   5.207   5.862
  185POPC   C2921207   1.232   5.199   5.809
  185POPC   H9121208   1.130   5.182   5.846
  185POPC  C21021209   1.255   5.230   5.678
  185POPC  H10121210   1.167   5.236   5.613
  185POPC  C21121211   1.381   5.257   5.603
  185POPC  H11R21212   1.474   5.251   5.663
  185POPC  H11S21213   1.382   5.353   5.546
  185POPC  C21221214   1.384   5.166   5.477
  185POPC  H12R21215   1.367   5.062   5.510
  185POPC  H12S21216   1.484   5.177   5.429
  185POPC  C21321217   1.274   5.196   5.374
  185POPC  H13R21218   1.278   5.303   5.346
  185POPC  H13S21219   1.171   5.187   5.412
  185POPC  C21421220   1.281   5.114   5.239
  185POPC  H14R21221   1.200   5.159   5.178
  185POPC  H14S21222   1.256   5.009   5.267
  185POPC  C21521223   1.413   5.113   5.157
  185POPC  H15R21224   1.490   5.082   5.230
  185POPC  H15S21225   1.430   5.220   5.131
  185POPC  C21621226   1.403   5.031   5.031
  185POPC  H16R21227   1.367   4.927   5.047
  185POPC  H16S21228   1.502   5.021   4.981
  185POPC  C21721229   1.321   5.087   4.916
  185POPC  H17R21230   1.380   5.169   4.870
  185POPC  H17S21231   1.232   5.146   4.945
  185POPC  C21821232   1.274   4.992   4.813
  185POPC  H18R21233   1.360   4.929   4.782
  185POPC  H18S21234   1.242   5.052   4.725
  185POPC  H18T21235   1.188   4.930   4.847
  185POPC   C3321236   0.650   5.875   6.036
  185POPC   H3X21237   0.700   5.782   6.003
  185POPC   H3Y21238   0.729   5.951   6.051
  185POPC   C3421239   0.559   5.925   5.919
  185POPC   H4X21240   0.503   6.017   5.950
  185POPC   H4Y21241   0.482   5.855   5.880
  185POPC   C3521242   0.630   5.973   5.794
  185POPC   H5X21243   0.703   6.051   5.824
  185POPC   H5Y21244   0.553   6.017   5.727
  185POPC   C3621245   0.723   5.864   5.734
  185POPC   H6X21246   0.678   5.768   5.700
  185POPC   H6Y21247   0.790   5.839   5.819
  185POPC   C3721248   0.814   5.913   5.619
  185POPC   H7X21249   0.913   5.863   5.628
  185POPC   H7Y21250   0.839   6.021   5.621
  185POPC   C3821251   0.746   5.880   5.486
  185POPC   H8X21252   0.656   5.944   5.478
  185POPC   H8Y21253   0.703   5.778   5.489
  185POPC   C3921254   0.839   5.884   5.363
  185POPC   H9X21255   0.924   5.813   5.362
  185POPC   H9Y21256   0.865   5.991   5.359
  185POPC  C31021257   0.751   5.857   5.233
  185POPC  H10X21258   0.669   5.932   5.240
  185POPC  H10Y21259   0.710   5.754   5.243
  185POPC  C31121260   0.831   5.874   5.105
  185POPC  H11X21261   0.908   5.794   5.100
  185POPC  H11Y21262   0.881   5.973   5.106
  185POPC  C31221263   0.749   5.865   4.971
  185POPC  H12X21264   0.715   5.762   4.947
  185POPC  H12Y21265   0.819   5.888   4.887
  185POPC  C31321266   0.635   5.964   4.969
  185POPC  H13X21267   0.662   6.070   4.982
  185POPC  H13Y21268   0.565   5.922   5.045
  185POPC  C31421269   0.546   5.948   4.841
  185POPC  H14X21270   0.469   6.028   4.850
  185POPC  H14Y21271   0.494   5.852   4.820
  185POPC  C31521272   0.630   5.979   4.713
  185POPC  H15X21273   0.695   5.892   4.692
  185POPC  H15Y21274   0.697   6.067   4.727
  185POPC  C31621275   0.552   6.006   4.585
  185POPC  H16X21276   0.473   6.084   4.588
  185POPC  H16Y21277   0.508   5.908   4.560
  185POPC  H16Z21278   0.624   6.031   4.503
  186POPC     N21279   3.376   5.261   6.922
  186POPC   C1221280   3.466   5.325   6.814
  186POPC  H12A21281   3.454   5.268   6.723
  186POPC  H12B21282   3.571   5.310   6.837
  186POPC   C1321283   3.392   5.113   6.928
  186POPC  H13A21284   3.485   5.080   6.972
  186POPC  H13B21285   3.311   5.071   6.984
  186POPC  H13C21286   3.389   5.070   6.829
  186POPC   C1421287   3.420   5.311   7.057
  186POPC  H14A21288   3.386   5.250   7.139
  186POPC  H14B21289   3.527   5.308   7.070
  186POPC  H14C21290   3.383   5.412   7.067
  186POPC   C1521291   3.240   5.302   6.899
  186POPC  H15A21292   3.188   5.262   6.814
  186POPC  H15B21293   3.241   5.410   6.897
  186POPC  H15C21294   3.182   5.279   6.987
  186POPC   C1121295   3.440   5.472   6.755
  186POPC  H11A21296   3.352   5.479   6.688
  186POPC  H11B21297   3.522   5.492   6.683
  186POPC     P21298   3.578   5.626   6.920
  186POPC   O1321299   3.676   5.512   6.926
  186POPC   O1421300   3.542   5.686   7.043
  186POPC   O1221301   3.447   5.577   6.845
  186POPC   O1121302   3.640   5.728   6.830
  186POPC    C121303   3.577   5.854   6.806
  186POPC    HA21304   3.650   5.937   6.818
  186POPC    HB21305   3.493   5.875   6.876
  186POPC    C221306   3.536   5.864   6.655
  186POPC    HS21307   3.516   5.971   6.633
  186POPC   O2121308   3.421   5.783   6.633
  186POPC   C2121309   3.338   5.826   6.544
  186POPC   O2221310   3.341   5.934   6.484
  186POPC   C2221311   3.233   5.723   6.518
  186POPC   H2R21312   3.170   5.729   6.610
  186POPC   H2S21313   3.284   5.626   6.509
  186POPC    C321314   3.651   5.826   6.554
  186POPC    HX21315   3.657   5.715   6.553
  186POPC    HY21316   3.741   5.879   6.592
  186POPC   O3121317   3.626   5.863   6.418
  186POPC   C3121318   3.657   5.994   6.388
  186POPC   O3221319   3.689   6.075   6.471
  186POPC   C3221320   3.621   6.027   6.243
  186POPC   H2X21321   3.518   6.002   6.212
  186POPC   H2Y21322   3.686   5.964   6.178
  186POPC   C2321323   3.147   5.752   6.400
  186POPC   H3R21324   3.113   5.858   6.398
  186POPC   H3S21325   3.057   5.689   6.388
  186POPC   C2421326   3.221   5.719   6.264
  186POPC   H4R21327   3.239   5.609   6.263
  186POPC   H4S21328   3.316   5.776   6.255
  186POPC   C2521329   3.140   5.767   6.145
  186POPC   H5R21330   3.122   5.876   6.155
  186POPC   H5S21331   3.040   5.718   6.145
  186POPC   C2621332   3.209   5.730   6.014
  186POPC   H6R21333   3.140   5.747   5.928
  186POPC   H6S21334   3.240   5.623   6.008
  186POPC   C2721335   3.336   5.808   5.973
  186POPC   H7R21336   3.417   5.788   6.046
  186POPC   H7S21337   3.315   5.917   5.983
  186POPC   C2821338   3.380   5.782   5.818
  186POPC   H8R21339   3.284   5.790   5.763
  186POPC   H8S21340   3.412   5.676   5.806
  186POPC   C2921341   3.481   5.882   5.769
  186POPC   H9121342   3.585   5.860   5.797
  186POPC  C21021343   3.451   5.990   5.693
  186POPC  H10121344   3.530   6.063   5.667
  186POPC  C21121345   3.307   6.033   5.660
  186POPC  H11R21346   3.285   6.142   5.651
  186POPC  H11S21347   3.233   5.992   5.732
  186POPC  C21221348   3.283   5.967   5.520
  186POPC  H12R21349   3.191   6.021   5.488
  186POPC  H12S21350   3.269   5.858   5.536
  186POPC  C21321351   3.391   6.007   5.415
  186POPC  H13R21352   3.480   5.947   5.443
  186POPC  H13S21353   3.416   6.115   5.427
  186POPC  C21421354   3.367   5.984   5.263
  186POPC  H14R21355   3.372   5.874   5.248
  186POPC  H14S21356   3.454   6.020   5.204
  186POPC  C21521357   3.242   6.048   5.214
  186POPC  H15R21358   3.238   6.154   5.247
  186POPC  H15S21359   3.149   6.000   5.252
  186POPC  C21621360   3.232   6.029   5.063
  186POPC  H16R21361   3.326   6.048   5.007
  186POPC  H16S21362   3.166   6.111   5.028
  186POPC  C21721363   3.158   5.897   5.025
  186POPC  H17R21364   3.069   5.908   5.091
  186POPC  H17S21365   3.215   5.805   5.048
  186POPC  C21821366   3.111   5.909   4.882
  186POPC  H18R21367   3.033   5.987   4.880
  186POPC  H18S21368   3.072   5.814   4.840
  186POPC  H18T21369   3.192   5.942   4.813
  186POPC   C3321370   3.648   6.178   6.207
  186POPC   H3X21371   3.742   6.212   6.255
  186POPC   H3Y21372   3.569   6.242   6.254
  186POPC   C3421373   3.649   6.195   6.062
  186POPC   H4X21374   3.572   6.131   6.014
  186POPC   H4Y21375   3.749   6.160   6.028
  186POPC   C3521376   3.622   6.332   6.016
  186POPC   H5X21377   3.654   6.398   6.099
  186POPC   H5Y21378   3.516   6.365   6.006
  186POPC   C3621379   3.702   6.376   5.887
  186POPC   H6X21380   3.805   6.342   5.908
  186POPC   H6Y21381   3.715   6.484   5.864
  186POPC   C3721382   3.660   6.309   5.754
  186POPC   H7X21383   3.557   6.330   5.720
  186POPC   H7Y21384   3.678   6.201   5.772
  186POPC   C3821385   3.755   6.337   5.640
  186POPC   H8X21386   3.859   6.345   5.679
  186POPC   H8Y21387   3.735   6.435   5.593
  186POPC   C3921388   3.752   6.219   5.538
  186POPC   H9X21389   3.646   6.209   5.506
  186POPC   H9Y21390   3.782   6.128   5.595
  186POPC  C31021391   3.843   6.252   5.421
  186POPC  H10X21392   3.943   6.285   5.457
  186POPC  H10Y21393   3.788   6.336   5.373
  186POPC  C31121394   3.837   6.146   5.314
  186POPC  H11X21395   3.741   6.141   5.258
  186POPC  H11Y21396   3.863   6.046   5.355
  186POPC  C31221397   3.943   6.184   5.210
  186POPC  H12X21398   3.950   6.093   5.146
  186POPC  H12Y21399   4.045   6.205   5.247
  186POPC  C31321400   3.909   6.307   5.120
  186POPC  H13X21401   3.955   6.398   5.162
  186POPC  H13Y21402   3.799   6.326   5.115
  186POPC  C31421403   3.964   6.282   4.978
  186POPC  H14X21404   3.924   6.190   4.930
  186POPC  H14Y21405   4.073   6.263   4.975
  186POPC  C31521406   3.939   6.398   4.886
  186POPC  H15X21407   4.016   6.475   4.908
  186POPC  H15Y21408   3.842   6.448   4.908
  186POPC  C31621409   3.926   6.356   4.741
  186POPC  H16X21410   4.024   6.319   4.704
  186POPC  H16Y21411   3.902   6.447   4.681
  186POPC  H16Z21412   3.848   6.278   4.729
  187POPC     N21413   6.005   5.500   1.667
  187POPC   C1221414   5.916   5.621   1.708
  187POPC  H12A21415   5.813   5.590   1.721
  187POPC  H12B21416   5.916   5.699   1.634
  187POPC   C1321417   6.153   5.534   1.658
  187POPC  H13A21418   6.223   5.464   1.615
  187POPC  H13B21419   6.158   5.626   1.603
  187POPC  H13C21420   6.186   5.563   1.756
  187POPC   C1421421   5.998   5.382   1.760
  187POPC  H14A21422   5.895   5.357   1.777
  187POPC  H14B21423   6.050   5.300   1.713
  187POPC  H14C21424   6.039   5.406   1.858
  187POPC   C1521425   5.954   5.444   1.534
  187POPC  H15A21426   5.942   5.514   1.453
  187POPC  H15B21427   5.858   5.397   1.551
  187POPC  H15C21428   6.026   5.369   1.504
  187POPC   C1121429   5.947   5.688   1.849
  187POPC  H11A21430   5.948   5.611   1.928
  187POPC  H11B21431   5.861   5.755   1.873
  187POPC     P21432   6.178   5.770   1.944
  187POPC   O1321433   6.220   5.911   1.959
  187POPC   O1421434   6.277   5.677   1.895
  187POPC   O1221435   6.063   5.775   1.840
  187POPC   O1121436   6.113   5.719   2.075
  187POPC    C121437   6.047   5.814   2.160
  187POPC    HA21438   5.946   5.771   2.180
  187POPC    HB21439   6.038   5.915   2.115
  187POPC    C221440   6.125   5.823   2.298
  187POPC    HS21441   6.228   5.853   2.271
  187POPC   O2121442   6.122   5.696   2.363
  187POPC   C2121443   6.231   5.617   2.343
  187POPC   O2221444   6.323   5.644   2.268
  187POPC   C2221445   6.226   5.497   2.427
  187POPC   H2R21446   6.329   5.461   2.448
  187POPC   H2S21447   6.192   5.414   2.362
  187POPC    C321448   6.059   5.937   2.383
  187POPC    HX21449   5.952   5.910   2.382
  187POPC    HY21450   6.085   6.026   2.322
  187POPC   O3121451   6.105   5.950   2.521
  187POPC   C3121452   6.071   6.062   2.581
  187POPC   O3221453   6.020   6.160   2.527
  187POPC   C3221454   6.103   6.072   2.731
  187POPC   H2X21455   6.063   6.168   2.772
  187POPC   H2Y21456   6.212   6.083   2.717
  187POPC   C2321457   6.131   5.492   2.554
  187POPC   H3R21458   6.031   5.536   2.531
  187POPC   H3S21459   6.175   5.558   2.631
  187POPC   C2421460   6.116   5.353   2.619
  187POPC   H4R21461   6.214   5.315   2.655
  187POPC   H4S21462   6.077   5.272   2.554
  187POPC   C2521463   6.029   5.349   2.745
  187POPC   H5R21464   5.925   5.386   2.731
  187POPC   H5S21465   6.079   5.416   2.818
  187POPC   C2621466   6.016   5.209   2.805
  187POPC   H6R21467   6.021   5.210   2.916
  187POPC   H6S21468   6.101   5.151   2.765
  187POPC   C2721469   5.882   5.142   2.776
  187POPC   H7R21470   5.856   5.151   2.668
  187POPC   H7S21471   5.801   5.196   2.829
  187POPC   C2821472   5.884   4.990   2.827
  187POPC   H8R21473   5.914   5.002   2.933
  187POPC   H8S21474   5.961   4.944   2.760
  187POPC   C2921475   5.748   4.935   2.796
  187POPC   H9121476   5.754   4.876   2.703
  187POPC  C21021477   5.630   4.937   2.859
  187POPC  H10121478   5.545   4.886   2.810
  187POPC  C21121479   5.624   5.004   2.996
  187POPC  H11R21480   5.522   5.047   2.992
  187POPC  H11S21481   5.694   5.090   2.996
  187POPC  C21221482   5.637   4.905   3.119
  187POPC  H12R21483   5.721   4.833   3.127
  187POPC  H12S21484   5.552   4.837   3.101
  187POPC  C21321485   5.628   4.967   3.264
  187POPC  H13R21486   5.540   5.035   3.252
  187POPC  H13S21487   5.712   5.034   3.290
  187POPC  C21421488   5.619   4.861   3.372
  187POPC  H14R21489   5.712   4.802   3.383
  187POPC  H14S21490   5.529   4.795   3.364
  187POPC  C21521491   5.582   4.929   3.506
  187POPC  H15R21492   5.547   4.845   3.570
  187POPC  H15S21493   5.504   5.006   3.490
  187POPC  C21621494   5.696   4.985   3.587
  187POPC  H16R21495   5.758   5.061   3.535
  187POPC  H16S21496   5.760   4.903   3.624
  187POPC  C21721497   5.636   5.043   3.718
  187POPC  H17R21498   5.716   5.075   3.788
  187POPC  H17S21499   5.575   4.966   3.769
  187POPC  C21821500   5.546   5.166   3.700
  187POPC  H18R21501   5.602   5.251   3.653
  187POPC  H18S21502   5.522   5.201   3.802
  187POPC  H18T21503   5.453   5.141   3.645
  187POPC   C3321504   6.074   5.963   2.829
  187POPC   H3X21505   6.119   5.867   2.797
  187POPC   H3Y21506   5.964   5.955   2.823
  187POPC   C3421507   6.106   5.998   2.975
  187POPC   H4X21508   6.057   5.916   3.031
  187POPC   H4Y21509   6.060   6.096   3.001
  187POPC   C3521510   6.253   6.006   2.996
  187POPC   H5X21511   6.302   6.062   2.914
  187POPC   H5Y21512   6.294   5.905   3.014
  187POPC   C3621513   6.290   6.068   3.133
  187POPC   H6X21514   6.289   6.179   3.130
  187POPC   H6Y21515   6.394   6.047   3.165
  187POPC   C3721516   6.197   6.033   3.251
  187POPC   H7X21517   6.203   5.922   3.258
  187POPC   H7Y21518   6.092   6.065   3.233
  187POPC   C3821519   6.238   6.103   3.385
  187POPC   H8X21520   6.339   6.064   3.408
  187POPC   H8Y21521   6.167   6.063   3.460
  187POPC   C3921522   6.217   6.247   3.392
  187POPC   H9X21523   6.109   6.265   3.371
  187POPC   H9Y21524   6.277   6.300   3.315
  187POPC  C31021525   6.239   6.310   3.527
  187POPC  H10X21526   6.348   6.328   3.540
  187POPC  H10Y21527   6.212   6.234   3.604
  187POPC  C31121528   6.150   6.434   3.552
  187POPC  H11X21529   6.041   6.415   3.543
  187POPC  H11Y21530   6.175   6.515   3.480
  187POPC  C31221531   6.172   6.495   3.696
  187POPC  H12X21532   6.141   6.601   3.700
  187POPC  H12Y21533   6.278   6.498   3.730
  187POPC  C31321534   6.099   6.408   3.803
  187POPC  H13X21535   6.141   6.305   3.800
  187POPC  H13Y21536   5.991   6.395   3.784
  187POPC  C31421537   6.121   6.453   3.947
  187POPC  H14X21538   6.087   6.559   3.958
  187POPC  H14Y21539   6.228   6.453   3.978
  187POPC  C31521540   6.033   6.371   4.053
  187POPC  H15X21541   6.073   6.269   4.072
  187POPC  H15Y21542   5.930   6.346   4.021
  187POPC  C31621543   6.018   6.445   4.186
  187POPC  H16X21544   6.037   6.372   4.268
  187POPC  H16Y21545   5.909   6.465   4.198
  187POPC  H16Z21546   6.086   6.531   4.196
  188POPC     N21547   5.559   4.618   1.851
  188POPC   C1221548   5.496   4.702   1.954
  188POPC  H12A21549   5.394   4.668   1.952
  188POPC  H12B21550   5.506   4.808   1.937
  188POPC   C1321551   5.496   4.634   1.711
  188POPC  H13A21552   5.540   4.560   1.645
  188POPC  H13B21553   5.392   4.606   1.710
  188POPC  H13C21554   5.508   4.733   1.671
  188POPC   C1421555   5.709   4.652   1.842
  188POPC  H14A21556   5.746   4.641   1.943
  188POPC  H14B21557   5.751   4.579   1.775
  188POPC  H14C21558   5.738   4.753   1.815
  188POPC   C1521559   5.556   4.474   1.883
  188POPC  H15A21560   5.613   4.461   1.973
  188POPC  H15B21561   5.600   4.422   1.799
  188POPC  H15C21562   5.460   4.424   1.888
  188POPC   C1121563   5.552   4.672   2.095
  188POPC  H11A21564   5.562   4.563   2.112
  188POPC  H11B21565   5.484   4.696   2.180
  188POPC     P21566   5.677   4.889   2.143
  188POPC   O1321567   5.544   4.952   2.129
  188POPC   O1421568   5.788   4.941   2.057
  188POPC   O1221569   5.675   4.735   2.119
  188POPC   O1121570   5.718   4.899   2.299
  188POPC    C121571   5.636   4.846   2.398
  188POPC    HA21572   5.683   4.826   2.497
  188POPC    HB21573   5.592   4.750   2.364
  188POPC    C221574   5.517   4.940   2.433
  188POPC    HS21575   5.459   4.966   2.342
  188POPC   O2121576   5.576   5.059   2.490
  188POPC   C2121577   5.534   5.179   2.455
  188POPC   O2221578   5.440   5.203   2.383
  188POPC   C2221579   5.618   5.292   2.515
  188POPC   H2R21580   5.649   5.350   2.425
  188POPC   H2S21581   5.708   5.256   2.570
  188POPC    C321582   5.430   4.873   2.541
  188POPC    HX21583   5.501   4.808   2.597
  188POPC    HY21584   5.366   4.800   2.488
  188POPC   O3121585   5.351   4.967   2.618
  188POPC   C3121586   5.231   5.002   2.562
  188POPC   O3221587   5.192   4.953   2.458
  188POPC   C3221588   5.170   5.112   2.640
  188POPC   H2X21589   5.145   5.199   2.575
  188POPC   H2Y21590   5.245   5.146   2.714
  188POPC   C2321591   5.536   5.381   2.601
  188POPC   H3R21592   5.433   5.399   2.564
  188POPC   H3S21593   5.576   5.484   2.608
  188POPC   C2421594   5.520   5.337   2.749
  188POPC   H4R21595   5.620   5.357   2.792
  188POPC   H4S21596   5.501   5.228   2.746
  188POPC   C2521597   5.407   5.401   2.835
  188POPC   H5R21598   5.310   5.383   2.783
  188POPC   H5S21599   5.406   5.509   2.859
  188POPC   C2621600   5.391   5.321   2.968
  188POPC   H6R21601   5.375   5.216   2.937
  188POPC   H6S21602   5.297   5.359   3.014
  188POPC   C2721603   5.516   5.341   3.059
  188POPC   H7R21604   5.601   5.292   3.007
  188POPC   H7S21605   5.500   5.279   3.149
  188POPC   C2821606   5.531   5.484   3.097
  188POPC   H8R21607   5.566   5.547   3.013
  188POPC   H8S21608   5.619   5.489   3.165
  188POPC   C2921609   5.399   5.545   3.161
  188POPC   H9121610   5.301   5.542   3.110
  188POPC  C21021611   5.393   5.575   3.291
  188POPC  H10121612   5.301   5.616   3.335
  188POPC  C21121613   5.506   5.560   3.390
  188POPC  H11R21614   5.590   5.629   3.363
  188POPC  H11S21615   5.545   5.457   3.382
  188POPC  C21221616   5.483   5.599   3.541
  188POPC  H12R21617   5.426   5.516   3.588
  188POPC  H12S21618   5.426   5.694   3.542
  188POPC  C21321619   5.607   5.600   3.623
  188POPC  H13R21620   5.691   5.657   3.578
  188POPC  H13S21621   5.636   5.495   3.646
  188POPC  C21421622   5.589   5.665   3.761
  188POPC  H14R21623   5.486   5.647   3.797
  188POPC  H14S21624   5.611   5.774   3.762
  188POPC  C21521625   5.678   5.591   3.871
  188POPC  H15R21626   5.705   5.677   3.936
  188POPC  H15S21627   5.768   5.557   3.816
  188POPC  C21621628   5.604   5.479   3.947
  188POPC  H16R21629   5.673   5.393   3.962
  188POPC  H16S21630   5.519   5.453   3.880
  188POPC  C21721631   5.549   5.526   4.080
  188POPC  H17R21632   5.485   5.615   4.061
  188POPC  H17S21633   5.630   5.567   4.142
  188POPC  C21821634   5.479   5.410   4.154
  188POPC  H18R21635   5.386   5.390   4.097
  188POPC  H18S21636   5.442   5.451   4.251
  188POPC  H18T21637   5.554   5.329   4.148
  188POPC   C3321638   5.038   5.082   2.713
  188POPC   H3X21639   4.969   5.080   2.627
  188POPC   H3Y21640   5.014   5.170   2.776
  188POPC   C3421641   5.030   4.949   2.801
  188POPC   H4X21642   5.042   4.868   2.726
  188POPC   H4Y21643   4.928   4.948   2.845
  188POPC   C3521644   5.138   4.929   2.911
  188POPC   H5X21645   5.146   5.035   2.941
  188POPC   H5Y21646   5.240   4.896   2.880
  188POPC   C3621647   5.086   4.856   3.033
  188POPC   H6X21648   5.103   4.747   3.020
  188POPC   H6Y21649   4.976   4.868   3.038
  188POPC   C3721650   5.147   4.908   3.165
  188POPC   H7X21651   5.144   5.019   3.169
  188POPC   H7Y21652   5.256   4.885   3.163
  188POPC   C3821653   5.079   4.840   3.283
  188POPC   H8X21654   5.096   4.733   3.259
  188POPC   H8Y21655   4.973   4.871   3.270
  188POPC   C3921656   5.143   4.884   3.420
  188POPC   H9X21657   5.154   4.994   3.420
  188POPC   H9Y21658   5.238   4.832   3.443
  188POPC  C31021659   5.051   4.844   3.532
  188POPC  H10X21660   5.029   4.735   3.529
  188POPC  H10Y21661   4.950   4.891   3.537
  188POPC  C31121662   5.122   4.861   3.670
  188POPC  H11X21663   5.138   4.971   3.677
  188POPC  H11Y21664   5.211   4.796   3.676
  188POPC  C31221665   5.033   4.827   3.793
  188POPC  H12X21666   5.016   4.717   3.795
  188POPC  H12Y21667   4.935   4.877   3.785
  188POPC  C31321668   5.097   4.884   3.928
  188POPC  H13X21669   5.137   4.988   3.922
  188POPC  H13Y21670   5.191   4.832   3.955
  188POPC  C31421671   4.999   4.849   4.041
  188POPC  H14X21672   4.980   4.739   4.038
  188POPC  H14Y21673   4.910   4.908   4.011
  188POPC  C31521674   5.050   4.898   4.180
  188POPC  H15X21675   5.081   5.005   4.173
  188POPC  H15Y21676   5.136   4.844   4.226
  188POPC  C31621677   4.940   4.885   4.285
  188POPC  H16X21678   4.859   4.961   4.275
  188POPC  H16Y21679   4.979   4.911   4.385
  188POPC  H16Z21680   4.901   4.782   4.293
  189SAPI   C1221681   2.373   5.365   7.118
  189SAPI    H221682   2.315   5.304   7.190
  189SAPI    O221683   2.314   5.488   7.098
  189SAPI   HO221684   2.226   5.486   7.134
  189SAPI   C1321685   2.515   5.371   7.176
  189SAPI    H321686   2.551   5.269   7.201
  189SAPI    O321687   2.516   5.438   7.304
  189SAPI   HO321688   2.494   5.528   7.280
  189SAPI   C1421689   2.615   5.437   7.078
  189SAPI    H421690   2.577   5.542   7.072
  189SAPI    O421691   2.748   5.447   7.129
  189SAPI   HO421692   2.805   5.503   7.077
  189SAPI   C1521693   2.606   5.367   6.944
  189SAPI    H521694   2.642   5.263   6.962
  189SAPI    O521695   2.688   5.429   6.840
  189SAPI   HO521696   2.760   5.372   6.814
  189SAPI   C1621697   2.463   5.352   6.886
  189SAPI    H621698   2.438   5.455   6.854
  189SAPI    O621699   2.468   5.274   6.766
  189SAPI   HO621700   2.496   5.336   6.699
  189SAPI   C1121701   2.367   5.298   6.983
  189SAPI    H121702   2.405   5.197   7.007
  189SAPI     P21703   2.117   5.185   6.981
  189SAPI   O1321704   2.017   5.256   7.062
  189SAPI   O1421705   2.184   5.067   7.044
  189SAPI   O1221706   2.232   5.295   6.934
  189SAPI   O1121707   2.047   5.132   6.852
  189SAPI    C121708   2.006   5.224   6.745
  189SAPI    HA21709   1.918   5.177   6.696
  189SAPI    HB21710   1.986   5.328   6.778
  189SAPI    C221711   2.106   5.238   6.622
  189SAPI    HS21712   2.178   5.317   6.652
  189SAPI   O2121713   2.027   5.275   6.513
  189SAPI   C2121714   2.005   5.410   6.506
  189SAPI   O2221715   2.037   5.488   6.592
  189SAPI   C2221716   1.927   5.444   6.372
  189SAPI   H2R21717   1.967   5.377   6.292
  189SAPI   H2S21718   1.820   5.420   6.391
  189SAPI    C321719   2.184   5.098   6.599
  189SAPI    HX21720   2.109   5.023   6.634
  189SAPI    HY21721   2.276   5.093   6.661
  189SAPI   O3121722   2.206   5.079   6.455
  189SAPI   C3121723   2.312   5.150   6.403
  189SAPI   O3221724   2.380   5.223   6.467
  189SAPI   C3221725   2.341   5.124   6.255
  189SAPI   H2X21726   2.263   5.059   6.211
  189SAPI   H2Y21727   2.436   5.068   6.248
  189SAPI   C2321728   1.930   5.592   6.330
  189SAPI   H3R21729   2.028   5.634   6.297
  189SAPI   H3S21730   1.900   5.654   6.417
  189SAPI   C2421731   1.836   5.628   6.212
  189SAPI   H4R21732   1.891   5.578   6.130
  189SAPI   H4S21733   1.829   5.739   6.208
  189SAPI   C2521734   1.691   5.573   6.225
  189SAPI   H5R21735   1.635   5.593   6.316
  189SAPI   C2621736   1.635   5.482   6.142
  189SAPI   H6R21737   1.538   5.439   6.169
  189SAPI   C2721738   1.715   5.414   6.023
  189SAPI   H7R21739   1.671   5.315   5.997
  189SAPI   H7S21740   1.822   5.401   6.049
  189SAPI   C2821741   1.706   5.496   5.893
  189SAPI   H8R21742   1.613   5.553   5.898
  189SAPI   C2921743   1.790   5.501   5.788
  189SAPI   H9R21744   1.766   5.562   5.700
  189SAPI  C21021745   1.919   5.434   5.768
  189SAPI  H10R21746   1.944   5.372   5.857
  189SAPI  H10S21747   2.005   5.503   5.755
  189SAPI  C21121748   1.925   5.340   5.651
  189SAPI  H11R21749   1.930   5.232   5.672
  189SAPI  C21221750   1.938   5.383   5.521
  189SAPI  H12R21751   1.930   5.310   5.439
  189SAPI  C21321752   1.962   5.526   5.477
  189SAPI  H13R21753   2.058   5.519   5.421
  189SAPI  H13S21754   1.970   5.583   5.573
  189SAPI  C21421755   1.852   5.589   5.394
  189SAPI  H14R21756   1.773   5.635   5.455
  189SAPI  C21521757   1.828   5.591   5.263
  189SAPI  H15R21758   1.738   5.636   5.219
  189SAPI  C21621759   1.926   5.529   5.169
  189SAPI  H16R21760   2.028   5.517   5.211
  189SAPI  H16S21761   1.929   5.594   5.079
  189SAPI  C21721762   1.869   5.393   5.121
  189SAPI  H17R21763   1.826   5.332   5.203
  189SAPI  H17S21764   1.954   5.326   5.098
  189SAPI  C21821765   1.763   5.400   5.008
  189SAPI  H18R21766   1.804   5.474   4.936
  189SAPI  H18S21767   1.666   5.432   5.051
  189SAPI  C21921768   1.762   5.272   4.925
  189SAPI  H19R21769   1.732   5.188   4.992
  189SAPI  H19S21770   1.866   5.251   4.893
  189SAPI  C22021771   1.664   5.271   4.806
  189SAPI  H20R21772   1.691   5.352   4.735
  189SAPI  H20S21773   1.559   5.285   4.839
  189SAPI  H20T21774   1.665   5.170   4.761
  189SAPI   C3321775   2.360   5.252   6.166
  189SAPI   H3X21776   2.364   5.208   6.064
  189SAPI   H3Y21777   2.448   5.316   6.187
  189SAPI   C3421778   2.237   5.338   6.166
  189SAPI   H4X21779   2.202   5.364   6.269
  189SAPI   H4Y21780   2.157   5.275   6.120
  189SAPI   C3521781   2.250   5.474   6.087
  189SAPI   H5X21782   2.341   5.531   6.118
  189SAPI   H5Y21783   2.158   5.530   6.115
  189SAPI   C3621784   2.247   5.455   5.938
  189SAPI   H6X21785   2.144   5.417   5.918
  189SAPI   H6Y21786   2.321   5.387   5.890
  189SAPI   C3721787   2.266   5.575   5.863
  189SAPI   H7X21788   2.354   5.636   5.889
  189SAPI   H7Y21789   2.167   5.625   5.875
  189SAPI   C3821790   2.280   5.552   5.715
  189SAPI   H8X21791   2.178   5.543   5.672
  189SAPI   H8Y21792   2.330   5.455   5.695
  189SAPI   C3921793   2.354   5.660   5.634
  189SAPI   H9X21794   2.458   5.675   5.669
  189SAPI   H9Y21795   2.300   5.756   5.651
  189SAPI  C31021796   2.349   5.622   5.481
  189SAPI  H10X21797   2.244   5.607   5.449
  189SAPI  H10Y21798   2.395   5.523   5.460
  189SAPI  C31121799   2.415   5.724   5.391
  189SAPI  H11X21800   2.526   5.714   5.397
  189SAPI  H11Y21801   2.394   5.831   5.413
  189SAPI  C31221802   2.365   5.695   5.245
  189SAPI  H12X21803   2.268   5.749   5.238
  189SAPI  H12Y21804   2.344   5.590   5.217
  189SAPI  C31321805   2.456   5.767   5.137
  189SAPI  H13X21806   2.473   5.874   5.158
  189SAPI  H13Y21807   2.404   5.748   5.040
  189SAPI  C31421808   2.594   5.713   5.131
  189SAPI  H14X21809   2.649   5.713   5.227
  189SAPI  H14Y21810   2.645   5.795   5.075
  189SAPI  C31521811   2.620   5.580   5.071
  189SAPI  H15X21812   2.591   5.585   4.964
  189SAPI  H15Y21813   2.550   5.509   5.119
  189SAPI  C31621814   2.762   5.521   5.095
  189SAPI  H16X21815   2.764   5.416   5.058
  189SAPI  H16Y21816   2.783   5.520   5.204
  189SAPI  C31721817   2.871   5.603   5.024
  189SAPI  H17X21818   2.899   5.690   5.088
  189SAPI  H17Y21819   2.843   5.645   4.925
  189SAPI  C31821820   3.002   5.516   5.006
  189SAPI  H18X21821   2.983   5.418   4.957
  189SAPI  H18Y21822   3.039   5.483   5.105
  189SAPI  H18Z21823   3.085   5.561   4.947
  190SAPI   C1221824   0.920   2.982   6.678
  190SAPI    H221825   0.940   2.931   6.582
  190SAPI    O221826   1.022   2.957   6.772
  190SAPI   HO221827   1.078   2.886   6.743
  190SAPI   C1321828   0.903   3.132   6.648
  190SAPI    H321829   0.800   3.149   6.610
  190SAPI    O321830   0.986   3.178   6.550
  190SAPI   HO321831   0.961   3.135   6.468
  190SAPI   C1421832   0.910   3.219   6.773
  190SAPI    H421833   1.006   3.199   6.825
  190SAPI    O421834   0.888   3.356   6.753
  190SAPI   HO421835   0.975   3.379   6.719
  190SAPI   C1521836   0.793   3.165   6.862
  190SAPI    H521837   0.705   3.227   6.836
  190SAPI    O521838   0.808   3.205   6.998
  190SAPI   HO521839   0.899   3.182   7.018
  190SAPI   C1621840   0.737   3.016   6.854
  190SAPI    H621841   0.770   2.959   6.944
  190SAPI    O621842   0.597   3.006   6.868
  190SAPI   HO621843   0.576   2.918   6.835
  190SAPI   C1121844   0.781   2.935   6.726
  190SAPI    H121845   0.720   2.964   6.638
  190SAPI     P21846   0.628   2.708   6.708
  190SAPI   O1321847   0.513   2.765   6.784
  190SAPI   O1421848   0.668   2.569   6.746
  190SAPI   O1221849   0.764   2.790   6.735
  190SAPI   O1121850   0.607   2.727   6.551
  190SAPI    C121851   0.727   2.721   6.467
  190SAPI    HA21852   0.773   2.821   6.451
  190SAPI    HB21853   0.811   2.663   6.511
  190SAPI    C221854   0.708   2.654   6.328
  190SAPI    HS21855   0.800   2.659   6.267
  190SAPI   O2121856   0.593   2.711   6.269
  190SAPI   C2121857   0.625   2.831   6.213
  190SAPI   O2221858   0.736   2.862   6.191
  190SAPI   C2221859   0.496   2.900   6.167
  190SAPI   H2R21860   0.426   2.905   6.254
  190SAPI   H2S21861   0.518   3.005   6.137
  190SAPI    C321862   0.674   2.505   6.338
  190SAPI    HX21863   0.574   2.493   6.385
  190SAPI    HY21864   0.756   2.459   6.398
  190SAPI   O3121865   0.669   2.446   6.208
  190SAPI   C3121866   0.553   2.403   6.152
  190SAPI   O3221867   0.446   2.416   6.200
  190SAPI   C3221868   0.580   2.349   6.008
  190SAPI   H2X21869   0.607   2.243   6.025
  190SAPI   H2Y21870   0.663   2.403   5.957
  190SAPI   C2321871   0.423   2.818   6.059
  190SAPI   H3R21872   0.338   2.881   6.024
  190SAPI   H3S21873   0.379   2.725   6.101
  190SAPI   C2421874   0.504   2.776   5.938
  190SAPI   H4R21875   0.432   2.711   5.884
  190SAPI   H4S21876   0.583   2.710   5.980
  190SAPI   C2521877   0.560   2.896   5.867
  190SAPI   H5R21878   0.578   2.982   5.934
  190SAPI   C2621879   0.577   2.911   5.734
  190SAPI   H6R21880   0.611   3.010   5.702
  190SAPI   C2721881   0.560   2.814   5.621
  190SAPI   H7R21882   0.528   2.860   5.524
  190SAPI   H7S21883   0.489   2.735   5.652
  190SAPI   C2821884   0.690   2.744   5.594
  190SAPI   H8R21885   0.756   2.709   5.675
  190SAPI   C2921886   0.750   2.747   5.475
  190SAPI   H9R21887   0.847   2.695   5.472
  190SAPI  C21021888   0.704   2.805   5.341
  190SAPI  H10R21889   0.798   2.826   5.286
  190SAPI  H10S21890   0.666   2.909   5.350
  190SAPI  C21121891   0.608   2.730   5.254
  190SAPI  H11R21892   0.534   2.678   5.317
  190SAPI  C21221893   0.597   2.723   5.120
  190SAPI  H12R21894   0.517   2.659   5.082
  190SAPI  C21321895   0.695   2.790   5.025
  190SAPI  H13R21896   0.783   2.834   5.076
  190SAPI  H13S21897   0.651   2.875   4.968
  190SAPI  C21421898   0.737   2.682   4.930
  190SAPI  H14R21899   0.747   2.581   4.972
  190SAPI  C21521900   0.779   2.704   4.803
  190SAPI  H15R21901   0.807   2.618   4.740
  190SAPI  C21621902   0.800   2.836   4.733
  190SAPI  H16R21903   0.827   2.913   4.809
  190SAPI  H16S21904   0.710   2.878   4.685
  190SAPI  C21721905   0.914   2.835   4.639
  190SAPI  H17R21906   0.907   2.739   4.584
  190SAPI  H17S21907   1.013   2.838   4.689
  190SAPI  C21821908   0.909   2.954   4.548
  190SAPI  H18R21909   0.894   3.051   4.600
  190SAPI  H18S21910   0.823   2.937   4.480
  190SAPI  C21921911   1.039   2.971   4.472
  190SAPI  H19R21912   1.118   2.999   4.546
  190SAPI  H19S21913   1.030   3.061   4.408
  190SAPI  C22021914   1.094   2.860   4.373
  190SAPI  H20R21915   1.001   2.834   4.318
  190SAPI  H20S21916   1.116   2.767   4.429
  190SAPI  H20T21917   1.170   2.907   4.307
  190SAPI   C3321918   0.467   2.372   5.908
  190SAPI   H3X21919   0.458   2.483   5.904
  190SAPI   H3Y21920   0.373   2.328   5.948
  190SAPI   C3421921   0.508   2.322   5.771
  190SAPI   H4X21922   0.418   2.283   5.719
  190SAPI   H4Y21923   0.576   2.236   5.789
  190SAPI   C3521924   0.577   2.430   5.685
  190SAPI   H5X21925   0.663   2.479   5.735
  190SAPI   H5Y21926   0.501   2.501   5.646
  190SAPI   C3621927   0.632   2.359   5.557
  190SAPI   H6X21928   0.650   2.250   5.567
  190SAPI   H6Y21929   0.724   2.409   5.520
  190SAPI   C3721930   0.529   2.387   5.439
  190SAPI   H7X21931   0.516   2.497   5.431
  190SAPI   H7Y21932   0.433   2.338   5.467
  190SAPI   C3821933   0.583   2.341   5.297
  190SAPI   H8X21934   0.645   2.250   5.316
  190SAPI   H8Y21935   0.660   2.418   5.273
  190SAPI   C3921936   0.477   2.304   5.191
  190SAPI   H9X21937   0.417   2.394   5.166
  190SAPI   H9Y21938   0.399   2.233   5.225
  190SAPI  C31021939   0.553   2.246   5.082
  190SAPI  H10X21940   0.585   2.141   5.100
  190SAPI  H10Y21941   0.651   2.294   5.064
  190SAPI  C31121942   0.481   2.253   4.946
  190SAPI  H11X21943   0.396   2.181   4.942
  190SAPI  H11Y21944   0.555   2.223   4.869
  190SAPI  C31221945   0.430   2.394   4.900
  190SAPI  H12X21946   0.475   2.470   4.968
  190SAPI  H12Y21947   0.322   2.400   4.923
  190SAPI  C31321948   0.459   2.439   4.754
  190SAPI  H13X21949   0.414   2.358   4.693
  190SAPI  H13Y21950   0.569   2.432   4.740
  190SAPI  C31421951   0.414   2.579   4.715
  190SAPI  H14X21952   0.456   2.638   4.800
  190SAPI  H14Y21953   0.305   2.577   4.735
  190SAPI  C31521954   0.452   2.617   4.574
  190SAPI  H15X21955   0.420   2.530   4.513
  190SAPI  H15Y21956   0.562   2.629   4.561
  190SAPI  C31621957   0.388   2.743   4.515
  190SAPI  H16X21958   0.285   2.713   4.486
  190SAPI  H16Y21959   0.442   2.774   4.424
  190SAPI  C31721960   0.394   2.861   4.614
  190SAPI  H17X21961   0.500   2.877   4.641
  190SAPI  H17Y21962   0.339   2.826   4.704
  190SAPI  C31821963   0.328   2.990   4.571
  190SAPI  H18X21964   0.333   3.078   4.639
  190SAPI  H18Y21965   0.228   2.964   4.528
  190SAPI  H18Z21966   0.378   3.018   4.476
  191SAPI   C1221967   3.861   4.301   2.001
  191SAPI    H221968   3.927   4.390   2.009
  191SAPI    O221969   3.736   4.354   2.044
  191SAPI   HO221970   3.688   4.370   1.962
  191SAPI   C1321971   3.847   4.262   1.857
  191SAPI    H321972   3.949   4.249   1.815
  191SAPI    O321973   3.797   4.374   1.782
  191SAPI   HO321974   3.871   4.417   1.738
  191SAPI   C1421975   3.761   4.141   1.828
  191SAPI    H421976   3.656   4.176   1.826
  191SAPI    O421977   3.776   4.099   1.692
  191SAPI   HO421978   3.725   4.166   1.645
  191SAPI   C1521979   3.774   4.024   1.929
  191SAPI    H521980   3.859   3.962   1.894
  191SAPI    O521981   3.662   3.938   1.925
  191SAPI   HO521982   3.684   3.853   1.885
  191SAPI   C1621983   3.806   4.060   2.073
  191SAPI    H621984   3.718   4.098   2.130
  191SAPI    O621985   3.865   3.949   2.147
  191SAPI   HO621986   3.950   3.982   2.177
  191SAPI   C1121987   3.901   4.183   2.094
  191SAPI    H121988   3.995   4.150   2.045
  191SAPI     P21989   4.052   4.194   2.313
  191SAPI   O1321990   4.075   4.048   2.284
  191SAPI   O1421991   4.036   4.235   2.452
  191SAPI   O1221992   3.923   4.237   2.228
  191SAPI   O1121993   4.159   4.285   2.238
  191SAPI    C121994   4.247   4.372   2.304
  191SAPI    HA21995   4.233   4.474   2.261
  191SAPI    HB21996   4.214   4.395   2.407
  191SAPI    C221997   4.389   4.331   2.285
  191SAPI    HS21998   4.421   4.336   2.179
  191SAPI   O2121999   4.402   4.203   2.357
  191SAPI   C2122000   4.521   4.148   2.345
  191SAPI   O2222001   4.605   4.196   2.273
  191SAPI   C2222002   4.538   4.016   2.427
  191SAPI   H2R22003   4.587   3.932   2.373
  191SAPI   H2S22004   4.601   4.043   2.515
  191SAPI    C322005   4.484   4.445   2.347
  191SAPI    HX22006   4.449   4.536   2.294
  191SAPI    HY22007   4.594   4.429   2.336
  191SAPI   O3122008   4.444   4.476   2.479
  191SAPI   C3122009   4.497   4.414   2.577
  191SAPI   O3222010   4.567   4.319   2.565
  191SAPI   C3222011   4.456   4.480   2.707
  191SAPI   H2X22012   4.370   4.417   2.737
  191SAPI   H2Y22013   4.403   4.576   2.690
  191SAPI   C2322014   4.409   3.961   2.485
  191SAPI   H3R22015   4.431   3.858   2.519
  191SAPI   H3S22016   4.334   3.953   2.403
  191SAPI   C2422017   4.357   4.050   2.603
  191SAPI   H4R22018   4.288   4.123   2.555
  191SAPI   H4S22019   4.444   4.106   2.644
  191SAPI   C2522020   4.293   3.953   2.697
  191SAPI   H5R22021   4.204   3.902   2.657
  191SAPI   C2622022   4.320   3.942   2.826
  191SAPI   H6R22023   4.253   3.881   2.889
  191SAPI   C2722024   4.431   4.004   2.912
  191SAPI   H7R22025   4.527   4.028   2.861
  191SAPI   H7S22026   4.458   3.929   2.990
  191SAPI   C2822027   4.396   4.138   2.973
  191SAPI   H8R22028   4.392   4.215   2.894
  191SAPI   C2922029   4.402   4.168   3.105
  191SAPI   H9R22030   4.379   4.271   3.136
  191SAPI  C21022031   4.423   4.082   3.226
  191SAPI  H10R22032   4.528   4.095   3.258
  191SAPI  H10S22033   4.411   3.974   3.203
  191SAPI  C21122034   4.327   4.117   3.331
  191SAPI  H11R22035   4.229   4.073   3.311
  191SAPI  C21222036   4.354   4.187   3.442
  191SAPI  H12R22037   4.281   4.204   3.522
  191SAPI  C21322038   4.500   4.242   3.477
  191SAPI  H13R22039   4.490   4.330   3.544
  191SAPI  H13S22040   4.547   4.279   3.384
  191SAPI  C21422041   4.594   4.144   3.546
  191SAPI  H14R22042   4.685   4.111   3.494
  191SAPI  C21522043   4.574   4.106   3.676
  191SAPI  H15R22044   4.643   4.032   3.718
  191SAPI  C21622045   4.460   4.152   3.764
  191SAPI  H16R22046   4.409   4.066   3.812
  191SAPI  H16S22047   4.382   4.198   3.700
  191SAPI  C21722048   4.491   4.247   3.887
  191SAPI  H17R22049   4.398   4.297   3.923
  191SAPI  H17S22050   4.555   4.337   3.875
  191SAPI  C21822051   4.551   4.167   4.010
  191SAPI  H18R22052   4.657   4.144   3.987
  191SAPI  H18S22053   4.492   4.073   4.016
  191SAPI  C21922054   4.569   4.254   4.138
  191SAPI  H19R22055   4.472   4.298   4.168
  191SAPI  H19S22056   4.640   4.339   4.127
  191SAPI  C22022057   4.618   4.179   4.260
  191SAPI  H20R22058   4.611   4.237   4.355
  191SAPI  H20S22059   4.725   4.154   4.249
  191SAPI  H20T22060   4.566   4.083   4.280
  191SAPI   C3322061   4.570   4.478   2.813
  191SAPI   H3X22062   4.660   4.510   2.757
  191SAPI   H3Y22063   4.607   4.376   2.836
  191SAPI   C3422064   4.556   4.565   2.938
  191SAPI   H4X22065   4.507   4.501   3.014
  191SAPI   H4Y22066   4.511   4.666   2.924
  191SAPI   C3522067   4.692   4.587   2.999
  191SAPI   H5X22068   4.759   4.647   2.934
  191SAPI   H5Y22069   4.739   4.488   3.017
  191SAPI   C3622070   4.702   4.666   3.133
  191SAPI   H6X22071   4.652   4.765   3.123
  191SAPI   H6Y22072   4.810   4.682   3.151
  191SAPI   C3722073   4.660   4.584   3.253
  191SAPI   H7X22074   4.726   4.496   3.269
  191SAPI   H7Y22075   4.561   4.537   3.235
  191SAPI   C3822076   4.655   4.668   3.386
  191SAPI   H8X22077   4.555   4.716   3.384
  191SAPI   H8Y22078   4.734   4.747   3.379
  191SAPI   C3922079   4.668   4.587   3.519
  191SAPI   H9X22080   4.767   4.537   3.515
  191SAPI   H9Y22081   4.597   4.502   3.517
  191SAPI  C31022082   4.642   4.679   3.641
  191SAPI  H10X22083   4.551   4.739   3.620
  191SAPI  H10Y22084   4.730   4.742   3.666
  191SAPI  C31122085   4.603   4.590   3.759
  191SAPI  H11X22086   4.676   4.507   3.768
  191SAPI  H11Y22087   4.510   4.542   3.723
  191SAPI  C31222088   4.617   4.677   3.883
  191SAPI  H12X22089   4.545   4.761   3.891
  191SAPI  H12Y22090   4.720   4.717   3.892
  191SAPI  C31322091   4.610   4.591   4.016
  191SAPI  H13X22092   4.710   4.543   4.015
  191SAPI  H13Y22093   4.528   4.516   4.010
  191SAPI  C31422094   4.604   4.667   4.155
  191SAPI  H14X22095   4.501   4.707   4.166
  191SAPI  H14Y22096   4.683   4.745   4.150
  191SAPI  C31522097   4.642   4.581   4.271
  191SAPI  H15X22098   4.726   4.519   4.233
  191SAPI  H15Y22099   4.558   4.512   4.294
  191SAPI  C31622100   4.676   4.659   4.399
  191SAPI  H16X22101   4.586   4.671   4.462
  191SAPI  H16Y22102   4.707   4.760   4.364
  191SAPI  C31722103   4.769   4.579   4.486
  191SAPI  H17X22104   4.817   4.648   4.559
  191SAPI  H17Y22105   4.849   4.546   4.416
  191SAPI  C31822106   4.698   4.461   4.552
  191SAPI  H18X22107   4.637   4.501   4.636
  191SAPI  H18Y22108   4.769   4.401   4.611
  191SAPI  H18Z22109   4.633   4.401   4.484
  192SAPI   C1222110   0.076   0.424   1.696
  192SAPI    H222111   0.030   0.514   1.740
  192SAPI    O222112   6.747   0.352   1.631
  192SAPI   HO222113   6.688   0.333   1.704
  192SAPI   C1322114   0.193   0.455   1.608
  192SAPI    H322115   0.270   0.494   1.679
  192SAPI    O322116   0.157   0.555   1.509
  192SAPI   HO322117   0.227   0.617   1.486
  192SAPI   C1422118   0.258   0.332   1.542
  192SAPI    H422119   0.182   0.297   1.469
  192SAPI    O422120   0.370   0.368   1.458
  192SAPI   HO422121   0.318   0.421   1.397
  192SAPI   C1522122   0.277   0.219   1.639
  192SAPI    H522123   0.366   0.245   1.699
  192SAPI    O522124   0.298   0.092   1.586
  192SAPI   HO522125   0.334   0.027   1.647
  192SAPI   C1622126   0.167   0.203   1.744
  192SAPI    H622127   0.086   0.140   1.701
  192SAPI    O622128   0.216   0.117   1.848
  192SAPI   HO622129   0.156   0.126   1.923
  192SAPI   C1122130   0.122   0.335   1.812
  192SAPI    H122131   0.204   0.380   1.872
  192SAPI     P22132   6.744   0.277   2.037
  192SAPI   O1322133   0.038   0.147   2.048
  192SAPI   O1422134   6.597   0.273   2.065
  192SAPI   O1222135   0.004   0.328   1.886
  192SAPI   O1122136   0.034   0.376   2.140
  192SAPI    C122137   0.173   0.372   2.164
  192SAPI    HA22138   0.233   0.346   2.074
  192SAPI    HB22139   0.208   0.473   2.197
  192SAPI    C222140   0.200   0.280   2.285
  192SAPI    HS22141   0.186   0.173   2.256
  192SAPI   O2122142   0.116   0.304   2.395
  192SAPI   C2122143   0.020   0.215   2.417
  192SAPI   O2222144   6.770   0.119   2.346
  192SAPI   C2222145   6.722   0.261   2.535
  192SAPI   H2R22146   6.694   0.366   2.515
  192SAPI   H2S22147   6.622   0.212   2.540
  192SAPI    C322148   0.346   0.296   2.318
  192SAPI    HX22149   0.374   0.403   2.311
  192SAPI    HY22150   0.411   0.242   2.246
  192SAPI   O3122151   0.369   0.236   2.449
  192SAPI   C3122152   0.409   0.308   2.545
  192SAPI   O3222153   0.428   0.432   2.544
  192SAPI   C3222154   0.450   0.218   2.665
  192SAPI   H2X22155   0.540   0.165   2.626
  192SAPI   H2Y22156   0.374   0.139   2.679
  192SAPI   C2322157   0.019   0.250   2.671
  192SAPI   H3R22158   6.746   0.312   2.749
  192SAPI   H3S22159   0.120   0.290   2.649
  192SAPI   C2422160   0.020   0.107   2.737
  192SAPI   H4R22161   0.072   0.114   2.835
  192SAPI   H4S22162   0.072   0.041   2.665
  192SAPI   C2522163   6.650   0.061   2.751
  192SAPI   H5R22164   6.612   0.021   2.656
  192SAPI   C2622165   6.577   0.055   2.859
  192SAPI   H6R22166   6.475   0.015   2.859
  192SAPI   C2722167   6.618   0.100   2.998
  192SAPI   H7R22168   6.721   0.063   3.017
  192SAPI   H7S22169   6.564   0.043   3.076
  192SAPI   C2822170   6.600   0.248   3.011
  192SAPI   H8R22171   6.571   0.306   2.922
  192SAPI   C2922172   6.644   0.318   3.122
  192SAPI   H9R22173   6.621   0.424   3.108
  192SAPI  C21022174   6.683   0.262   3.255
  192SAPI  H10R22175   0.017   0.248   3.263
  192SAPI  H10S22176   6.640   0.161   3.271
  192SAPI  C21122177   6.668   0.348   3.375
  192SAPI  H11R22178   6.742   0.429   3.376
  192SAPI  C21222179   6.596   0.330   3.483
  192SAPI  H12R22180   6.595   0.412   3.556
  192SAPI  C21322181   6.494   0.219   3.505
  192SAPI  H13R22182   6.542   0.132   3.455
  192SAPI  H13S22183   6.403   0.233   3.443
  192SAPI  C21422184   6.457   0.188   3.649
  192SAPI  H14R22185   6.432   0.276   3.710
  192SAPI  C21522186   6.449   0.065   3.704
  192SAPI  H15R22187   6.433   0.052   3.812
  192SAPI  C21622188   6.488   6.715   3.631
  192SAPI  H16R22189   6.563   6.736   3.551
  192SAPI  H16S22190   6.399   6.668   3.584
  192SAPI  C21722191   6.541   6.600   3.723
  192SAPI  H17R22192   6.533   6.501   3.671
  192SAPI  H17S22193   6.482   6.580   3.815
  192SAPI  C21822194   6.699   6.611   3.754
  192SAPI  H18R22195   6.713   6.720   3.770
  192SAPI  H18S22196   6.750   6.585   3.659
  192SAPI  C21922197   6.744   6.547   3.886
  192SAPI  H19R22198   6.715   6.440   3.882
  192SAPI  H19S22199   6.701   6.606   3.970
  192SAPI  C22022200   0.113   6.535   3.901
  192SAPI  H20R22201   0.135   6.479   3.994
  192SAPI  H20S22202   0.163   6.633   3.891
  192SAPI  H20T22203   0.155   6.472   3.819
  192SAPI   C3322204   0.481   0.292   2.795
  192SAPI   H3X22205   0.530   0.390   2.774
  192SAPI   H3Y22206   0.547   0.242   2.869
  192SAPI   C3422207   0.346   0.324   2.858
  192SAPI   H4X22208   0.280   0.235   2.874
  192SAPI   H4Y22209   0.288   0.399   2.800
  192SAPI   C3522210   0.382   0.396   2.990
  192SAPI   H5X22211   0.449   0.480   2.963
  192SAPI   H5Y22212   0.428   0.323   3.060
  192SAPI   C3622213   0.257   0.452   3.058
  192SAPI   H6X22214   0.182   0.373   3.083
  192SAPI   H6Y22215   0.207   0.507   2.976
  192SAPI   C3722216   0.292   0.546   3.173
  192SAPI   H7X22217   0.199   0.573   3.228
  192SAPI   H7Y22218   0.345   0.636   3.136
  192SAPI   C3822219   0.387   0.477   3.271
  192SAPI   H8X22220   0.489   0.513   3.246
  192SAPI   H8Y22221   0.398   0.367   3.265
  192SAPI   C3922222   0.341   0.518   3.417
  192SAPI   H9X22223   0.246   0.469   3.444
  192SAPI   H9Y22224   0.324   0.628   3.423
  192SAPI  C31022225   0.434   0.472   3.531
  192SAPI  H10X22226   0.540   0.491   3.505
  192SAPI  H10Y22227   0.421   0.363   3.543
  192SAPI  C31122228   0.413   0.556   3.658
  192SAPI  H11X22229   0.306   0.545   3.686
  192SAPI  H11Y22230   0.412   0.664   3.633
  192SAPI  C31222231   0.502   0.517   3.773
  192SAPI  H12X22232   0.605   0.500   3.736
  192SAPI  H12Y22233   0.462   0.416   3.793
  192SAPI  C31322234   0.501   0.605   3.898
  192SAPI  H13X22235   0.544   0.704   3.871
  192SAPI  H13Y22236   0.574   0.550   3.960
  192SAPI  C31422237   0.369   0.628   3.975
  192SAPI  H14X22238   0.314   0.533   3.993
  192SAPI  H14Y22239   0.305   0.694   3.912
  192SAPI  C31522240   0.391   0.695   4.115
  192SAPI  H15X22241   0.294   0.742   4.140
  192SAPI  H15Y22242   0.466   0.772   4.087
  192SAPI  C31622243   0.436   0.604   4.220
  192SAPI  H16X22244   0.509   0.530   4.179
  192SAPI  H16Y22245   0.344   0.550   4.249
  192SAPI  C31722246   0.501   0.667   4.349
  192SAPI  H17X22247   0.592   0.715   4.307
  192SAPI  H17Y22248   0.530   0.588   4.422
  192SAPI  C31822249   0.415   0.767   4.419
  192SAPI  H18X22250   0.427   0.763   4.529
  192SAPI  H18Y22251   0.314   0.720   4.411
  192SAPI  H18Z22252   0.421   0.867   4.371
  193SOD    SOD22253   1.733   1.899   6.675
  194SOD    SOD22254   6.738   4.340   6.790
  195SOD    SOD22255   4.261   0.394   1.674
  196SOD    SOD22256   0.397   5.882   8.139
  197SOD    SOD22257   3.887   0.716   7.414
  198SOD    SOD22258   0.052   0.636   0.194
  199SOD    SOD22259   2.928   4.105   2.213
  200SOD    SOD22260   5.968   2.386   2.019
  201SOD    SOD22261   4.089   4.136   1.394
  202SOD    SOD22262   3.128   1.670   2.430
  203SOD    SOD22263   3.948   3.516   8.635
  204SOD    SOD22264   1.620   5.222   8.750
  205SOD    SOD22265   1.967   1.632   0.105
  206SOD    SOD22266   3.670   5.693   1.213
  207SOD    SOD22267   4.277   4.779   1.407
  208SOD    SOD22268   0.747   1.325   8.894
  209SOD    SOD22269   3.025   1.827   8.150
  210SOD    SOD22270   4.938   5.729   1.110
  211SOD    SOD22271   3.827   3.367   1.177
  212SOD    SOD22272   0.643   5.889   6.829
  213SOD    SOD22273   6.627   2.010   7.875
  214SOD    SOD22274   1.582   3.165   8.594
  215SOD    SOD22275   5.614   6.556   7.162
  216SOD    SOD22276   1.986   5.614   6.792
  217SOD    SOD22277   5.198   1.257   8.139
  218SOD    SOD22278   2.394   0.026   7.074
  219SOD    SOD22279   1.924   4.288   1.693
  220SOD    SOD22280   3.769   4.271   8.070
  221SOD    SOD22281   1.788   4.978   7.623
  222SOD    SOD22282   2.684   0.146   1.729
  223SOD    SOD22283   3.784   0.075   1.967
  224SOD    SOD22284   0.181   4.872   8.074
  225SOD    SOD22285   5.187   0.912   6.586
  226SOD    SOD22286   4.003   2.348   1.724
  227SOD    SOD22287   2.158   1.348   7.134
  228SOD    SOD22288   3.984   3.721   7.464
  229SOD    SOD22289   1.689   1.012   7.502
  230SOD    SOD22290   2.937   2.179   1.681
  231SOD    SOD22291   3.065   0.313   8.435
  232SOD    SOD22292   2.199   0.898   2.111
  233SOD    SOD22293   2.340   1.989   2.492
  234CLA    CLA22294   3.759   0.716   0.265
  235CLA    CLA22295   0.687   3.861   7.826
  236CLA    CLA22296   2.159   0.935   8.422
  237CLA    CLA22297   6.281   6.616   7.508
  238CLA    CLA22298   4.315   6.032   1.223
  239CLA    CLA22299   2.919   0.523   7.344
  240CLA    CLA22300   1.646   0.446   8.290
  241CLA    CLA22301   3.101   4.237   0.487
  242CLA    CLA22302   2.062   0.063   1.268
  243CLA    CLA22303   5.138   4.448   1.458
  244CLA    CLA22304   5.038   2.688   0.353
  245CLA    CLA22305   3.767   2.140   7.435
  246CLA    CLA22306   3.580   2.557   8.570
  247CLA    CLA22307   1.300   2.303   8.376
  248CLA    CLA22308   3.382   5.839   0.565
  249CLA    CLA22309   1.723   2.543   7.038
  250CLA    CLA22310   2.309   6.116   1.788
  251TIP3   OH222311   1.167   2.538   0.965
  251TIP3    H122312   1.193   2.622   0.929
  251TIP3    H222313   1.123   2.560   1.047
  252TIP3   OH222314   2.751   0.468   6.785
  252TIP3    H122315   2.657   0.450   6.780
  252TIP3    H222316   2.793   0.386   6.757
  253TIP3   OH222317   2.171   2.708   8.158
  253TIP3    H122318   2.241   2.719   8.093
  253TIP3    H222319   2.091   2.701   8.107
  254TIP3   OH222320   6.561   3.572   1.255
  254TIP3    H122321   6.605   3.536   1.332
  254TIP3    H222322   6.511   3.498   1.220
  255TIP3   OH222323   5.132   5.351   7.411
  255TIP3    H122324   5.157   5.268   7.452
  255TIP3    H222325   5.146   5.337   7.317
  256TIP3   OH222326   6.363   5.203   0.024
  256TIP3    H122327   6.295   5.240   8.882
  256TIP3    H222328   6.329   5.212   0.113
  257TIP3   OH222329   2.252   3.665   8.024
  257TIP3    H122330   2.345   3.643   8.030
  257TIP3    H222331   2.206   3.582   8.038
  258TIP3   OH222332   3.918   2.019   6.792
  258TIP3    H122333   3.944   1.945   6.846
  258TIP3    H222334   3.830   2.042   6.823
  259TIP3   OH222335   4.900   5.222   8.215
  259TIP3    H122336   4.964   5.216   8.144
  259TIP3    H222337   4.914   5.143   8.267
  260TIP3   OH222338   5.579   4.391   0.489
  260TIP3    H122339   5.578   4.485   0.476
  260TIP3    H222340   5.536   4.378   0.573
  261TIP3   OH222341   5.464   4.010   7.620
  261TIP3    H122342   5.427   4.095   7.596
  261TIP3    H222343   5.503   3.978   7.538
  262TIP3   OH222344   1.656   1.193   8.817
  262TIP3    H122345   1.704   1.205   8.898
  262TIP3    H222346   1.707   1.241   8.751
  263TIP3   OH222347   1.404   3.977   0.610
  263TIP3    H122348   1.482   3.928   0.636
  263TIP3    H222349   1.355   3.989   0.691
  264TIP3   OH222350   0.233   3.494   1.909
  264TIP3    H122351   0.247   3.587   1.891
  264TIP3    H222352   0.143   3.478   1.881
  265TIP3   OH222353   2.880   5.148   2.057
  265TIP3    H122354   2.883   5.215   1.989
  265TIP3    H222355   2.953   5.169   2.115
  266TIP3   OH222356   6.246   6.264   0.261
  266TIP3    H122357   6.308   6.199   0.293
  266TIP3    H222358   6.257   6.263   0.166
  267TIP3   OH222359   2.775   5.350   1.312
  267TIP3    H122360   2.741   5.434   1.341
  267TIP3    H222361   2.860   5.342   1.355
  268TIP3   OH222362   6.398   1.093   0.879
  268TIP3    H122363   6.478   1.051   0.847
  268TIP3    H222364   6.390   1.172   0.826
  269TIP3   OH222365   5.726   5.222   8.146
  269TIP3    H122366   5.640   5.263   8.131
  269TIP3    H222367   5.714   5.172   8.227
  270TIP3   OH222368   1.726   3.261   0.586
  270TIP3    H122369   1.688   3.218   0.663
  270TIP3    H222370   1.808   3.299   0.619
  271TIP3   OH222371   6.010   5.958   8.315
  271TIP3    H122372   6.015   6.033   8.255
  271TIP3    H222373   5.917   5.945   8.329
  272TIP3   OH222374   2.515   1.734   1.004
  272TIP3    H122375   2.489   1.826   0.997
  272TIP3    H222376   2.553   1.727   1.092
  273TIP3   OH222377   0.044   2.799   7.697
  273TIP3    H122378   0.022   2.713   7.663
  273TIP3    H222379   0.139   2.796   7.709
  274TIP3   OH222380   5.238   5.257   7.181
  274TIP3    H122381   5.211   5.260   7.090
  274TIP3    H222382   5.269   5.167   7.194
  275TIP3   OH222383   5.364   4.672   0.253
  275TIP3    H122384   5.399   4.745   0.201
  275TIP3    H222385   5.432   4.653   0.318
  276TIP3   OH222386   0.717   1.541   8.239
  276TIP3    H122387   0.769   1.595   8.299
  276TIP3    H222388   0.628   1.546   8.274
  277TIP3   OH222389   2.187   4.589   7.414
  277TIP3    H122390   2.241   4.518   7.379
  277TIP3    H222391   2.236   4.621   7.491
  278TIP3   OH222392   5.663   2.196   7.993
  278TIP3    H122393   5.589   2.255   7.985
  278TIP3    H222394   5.715   2.231   8.065
  279TIP3   OH222395   1.460   1.851   0.198
  279TIP3    H122396   1.365   1.842   0.185
  279TIP3    H222397   1.493   1.880   0.113
  280TIP3   OH222398   5.464   5.357   8.165
  280TIP3    H122399   5.400   5.348   8.095
  280TIP3    H222400   5.437   5.293   8.231
  281TIP3   OH222401   4.082   4.545   7.957
  281TIP3    H122402   4.030   4.559   7.878
  281TIP3    H222403   4.162   4.503   7.925
  282TIP3   OH222404   5.146   6.130   2.375
  282TIP3    H122405   5.146   6.225   2.370
  282TIP3    H222406   5.061   6.108   2.414
  283TIP3   OH222407   4.547   5.159   1.772
  283TIP3    H122408   4.627   5.173   1.823
  283TIP3    H222409   4.477   5.199   1.825
  284TIP3   OH222410   3.955   0.499   7.413
  284TIP3    H122411   3.909   0.416   7.430
  284TIP3    H222412   4.032   0.474   7.361
  285TIP3   OH222413   5.423   0.142   6.602
  285TIP3    H122414   5.408   0.236   6.618
  285TIP3    H222415   5.518   0.135   6.591
  286TIP3   OH222416   4.553   1.199   8.552
  286TIP3    H122417   4.518   1.284   8.577
  286TIP3    H222418   4.476   1.144   8.537
  287TIP3   OH222419   1.355   2.279   7.240
  287TIP3    H122420   1.371   2.248   7.151
  287TIP3    H222421   1.266   2.314   7.237
  288TIP3   OH222422   6.706   3.097   6.159
  288TIP3    H122423   6.717   3.021   6.216
  288TIP3    H222424   0.001   3.091   6.096
  289TIP3   OH222425   2.003   4.447   1.551
  289TIP3    H122426   1.942   4.516   1.524
  289TIP3    H222427   2.089   4.479   1.522
  290TIP3   OH222428   1.780   5.605   0.379
  290TIP3    H122429   1.817   5.568   0.299
  290TIP3    H222430   1.755   5.530   0.432
  291TIP3   OH222431   0.561   1.761   6.990
  291TIP3    H122432   0.533   1.671   7.009
  291TIP3    H222433   0.573   1.762   6.895
  292TIP3   OH222434   2.868   4.476   8.863
  292TIP3    H122435   2.855   4.537   0.022
  292TIP3    H222436   2.954   4.438   8.878
  293TIP3   OH222437   5.357   2.700   2.039
  293TIP3    H122438   5.306   2.781   2.046
  293TIP3    H222439   5.419   2.716   1.968
  294TIP3   OH222440   0.796   1.146   1.343
  294TIP3    H122441   0.784   1.121   1.435
  294TIP3    H222442   0.887   1.124   1.324
  295TIP3   OH222443   3.683   0.131   0.794
  295TIP3    H122444   3.662   0.065   0.728
  295TIP3    H222445   3.605   0.185   0.800
  296TIP3   OH222446   2.828   6.765   2.400
  296TIP3    H122447   2.883   0.018   2.473
  296TIP3    H222448   2.824   6.670   2.409
  297TIP3   OH222449   6.674   5.840   8.627
  297TIP3    H122450   6.669   5.868   8.718
  297TIP3    H222451   6.747   5.891   8.590
  298TIP3   OH222452   1.114   2.627   7.324
  298TIP3    H122453   1.075   2.582   7.399
  298TIP3    H222454   1.127   2.717   7.354
  299TIP3   OH222455   1.615   5.758   8.749
  299TIP3    H122456   1.534   5.707   8.756
  299TIP3    H222457   1.608   5.823   8.819
  300TIP3   OH222458   1.979   2.691   7.187
  300TIP3    H122459   1.997   2.777   7.148
  300TIP3    H222460   1.893   2.666   7.152
  301TIP3   OH222461   6.074   2.353   6.796
  301TIP3    H122462   6.087   2.339   6.890
  301TIP3    H222463   5.979   2.351   6.785
  302TIP3   OH222464   0.060   0.891   8.821
  302TIP3    H122465   6.754   0.924   8.786
  302TIP3    H222466   0.121   0.964   8.811
  303TIP3   OH222467   6.724   5.243   0.189
  303TIP3    H122468   6.684   5.323   0.222
  303TIP3    H222469   0.041   5.259   0.194
  304TIP3   OH222470   1.111   2.432   8.061
  304TIP3    H122471   1.166   2.362   8.097
  304TIP3    H222472   1.130   2.508   8.117
  305TIP3   OH222473   5.891   6.233   7.149
  305TIP3    H122474   5.874   6.291   7.075
  305TIP3    H222475   5.936   6.157   7.111
  306TIP3   OH222476   1.481   3.713   0.821
  306TIP3    H122477   1.560   3.674   0.784
  306TIP3    H222478   1.511   3.795   0.860
  307TIP3   OH222479   1.597   2.654   6.614
  307TIP3    H122480   1.542   2.638   6.537
  307TIP3    H222481   1.681   2.682   6.577
  308TIP3   OH222482   3.412   1.140   2.728
  308TIP3    H122483   3.360   1.176   2.800
  308TIP3    H222484   3.502   1.145   2.759
  309TIP3   OH222485   5.898   3.968   8.650
  309TIP3    H122486   5.926   4.058   8.669
  309TIP3    H222487   5.871   3.933   8.735
  310TIP3   OH222488   2.278   5.815   8.593
  310TIP3    H122489   2.280   5.720   8.597
  310TIP3    H222490   2.186   5.838   8.607
  311TIP3   OH222491   1.800   1.044   7.992
  311TIP3    H122492   1.747   1.114   8.030
  311TIP3    H222493   1.827   0.992   8.067
  312TIP3   OH222494   5.034   1.538   8.006
  312TIP3    H122495   5.015   1.498   8.092
  312TIP3    H222496   4.950   1.577   7.980
  313TIP3   OH222497   5.081   5.542   0.912
  313TIP3    H122498   5.055   5.611   0.851
  313TIP3    H222499   5.175   5.555   0.924
  314TIP3   OH222500   1.619   6.742   6.405
  314TIP3    H122501   1.689   6.685   6.434
  314TIP3    H222502   1.539   6.701   6.437
  315TIP3   OH222503   6.019   0.983   0.348
  315TIP3    H122504   6.016   1.054   0.412
  315TIP3    H222505   5.932   0.984   0.307
  316TIP3   OH222506   2.454   2.284   1.354
  316TIP3    H122507   2.437   2.212   1.293
  316TIP3    H222508   2.376   2.339   1.349
  317TIP3   OH222509   5.607   2.487   2.442
  317TIP3    H122510   5.512   2.478   2.432
  317TIP3    H222511   5.625   2.463   2.532
  318TIP3   OH222512   6.013   4.580   8.459
  318TIP3    H122513   6.092   4.597   8.511
  318TIP3    H222514   5.942   4.577   8.522
  319TIP3   OH222515   4.307   2.622   8.456
  319TIP3    H122516   4.233   2.617   8.516
  319TIP3    H222517   4.288   2.556   8.389
  320TIP3   OH222518   1.727   2.040   0.256
  320TIP3    H122519   1.653   2.096   0.233
  320TIP3    H222520   1.799   2.074   0.203
  321TIP3   OH222521   0.526   1.235   8.119
  321TIP3    H122522   0.490   1.183   8.048
  321TIP3    H222523   0.603   1.185   8.148
  322TIP3   OH222524   5.536   2.615   6.580
  322TIP3    H122525   5.455   2.611   6.631
  322TIP3    H222526   5.514   2.671   6.505
  323TIP3   OH222527   5.530   6.527   6.707
  323TIP3    H122528   5.498   6.523   6.617
  323TIP3    H222529   5.622   6.502   6.701
  324TIP3   OH222530   0.124   1.643   6.503
  324TIP3    H122531   0.060   1.660   6.434
  324TIP3    H222532   0.110   1.712   6.567
  325TIP3   OH222533   3.360   6.092   7.573
  325TIP3    H122534   3.445   6.130   7.553
  325TIP3    H222535   3.318   6.154   7.632
  326TIP3   OH222536   4.844   4.506   7.324
  326TIP3    H122537   4.846   4.601   7.310
  326TIP3    H222538   4.848   4.469   7.236
  327TIP3   OH222539   6.416   3.443   1.475
  327TIP3    H122540   6.377   3.438   1.388
  327TIP3    H222541   6.376   3.370   1.524
  328TIP3   OH222542   0.573   4.982   0.540
  328TIP3    H122543   0.501   4.989   0.602
  328TIP3    H222544   0.569   4.892   0.508
  329TIP3   OH222545   5.261   0.360   0.436
  329TIP3    H122546   5.214   0.308   0.371
  329TIP3    H222547   5.240   0.317   0.520
  330TIP3   OH222548   2.729   1.040   0.592
  330TIP3    H122549   2.781   0.965   0.565
  330TIP3    H222550   2.699   1.019   0.680
  331TIP3   OH222551   0.303   5.774   0.537
  331TIP3    H122552   0.397   5.758   0.540
  331TIP3    H222553   0.280   5.795   0.628
  332TIP3   OH222554   5.298   1.633   1.146
  332TIP3    H122555   5.328   1.650   1.235
  332TIP3    H222556   5.236   1.561   1.155
  333TIP3   OH222557   5.290   2.662   8.514
  333TIP3    H122558   5.312   2.636   8.424
  333TIP3    H222559   5.201   2.697   8.507
  334TIP3   OH222560   5.092   4.077   7.273
  334TIP3    H122561   5.114   4.171   7.272
  334TIP3    H222562   5.010   4.073   7.321
  335TIP3   OH222563   4.745   3.002   7.448
  335TIP3    H122564   4.664   2.953   7.455
  335TIP3    H222565   4.718   3.093   7.437
  336TIP3   OH222566   4.500   4.913   0.595
  336TIP3    H122567   4.474   4.961   0.516
  336TIP3    H222568   4.445   4.950   0.664
  337TIP3   OH222569   6.287   3.894   0.073
  337TIP3    H122570   6.266   3.889   0.167
  337TIP3    H222571   6.225   3.834   0.032
  338TIP3   OH222572   5.399   0.541   7.193
  338TIP3    H122573   5.418   0.635   7.198
  338TIP3    H222574   5.480   0.498   7.218
  339TIP3   OH222575   3.968   0.035   7.573
  339TIP3    H122576   4.002   0.081   7.650
  339TIP3    H222577   4.039   6.753   7.547
  340TIP3   OH222578   4.090   5.942   8.476
  340TIP3    H122579   4.096   5.875   8.544
  340TIP3    H222580   4.012   5.917   8.426
  341TIP3   OH222581   0.106   3.756   7.820
  341TIP3    H122582   0.135   3.670   7.791
  341TIP3    H222583   0.075   3.799   7.740
  342TIP3   OH222584   3.974   0.519   0.941
  342TIP3    H122585   3.991   0.459   1.013
  342TIP3    H222586   3.987   0.606   0.979
  343TIP3   OH222587   2.082   0.967   2.302
  343TIP3    H122588   2.081   1.062   2.306
  343TIP3    H222589   1.994   0.940   2.330
  344TIP3   OH222590   0.682   6.281   0.981
  344TIP3    H122591   0.601   6.240   1.011
  344TIP3    H222592   0.750   6.245   1.037
  345TIP3   OH222593   4.570   5.710   1.110
  345TIP3    H122594   4.627   5.723   1.185
  345TIP3    H222595   4.507   5.782   1.114
  346TIP3   OH222596   1.470   2.021   0.724
  346TIP3    H122597   1.523   2.000   0.646
  346TIP3    H222598   1.511   1.973   0.795
  347TIP3   OH222599   6.007   1.530   0.653
  347TIP3    H122600   5.986   1.459   0.714
  347TIP3    H222601   5.926   1.581   0.646
  348TIP3   OH222602   5.784   2.499   7.671
  348TIP3    H122603   5.721   2.431   7.650
  348TIP3    H222604   5.730   2.575   7.693
  349TIP3   OH222605   6.382   4.847   0.067
  349TIP3    H122606   6.441   4.791   0.015
  349TIP3    H222607   6.439   4.915   0.102
  350TIP3   OH222608   3.625   0.149   2.127
  350TIP3    H122609   3.544   0.149   2.178
  350TIP3    H222610   3.694   0.165   2.191
  351TIP3   OH222611   4.980   2.388   0.624
  351TIP3    H122612   5.064   2.364   0.664
  351TIP3    H222613   4.917   2.328   0.663
  352TIP3   OH222614   5.954   1.143   2.160
  352TIP3    H122615   6.008   1.175   2.088
  352TIP3    H222616   5.878   1.104   2.117
  353TIP3   OH222617   0.213   5.200   6.981
  353TIP3    H122618   0.166   5.218   6.900
  353TIP3    H222619   0.292   5.152   6.954
  354TIP3   OH222620   2.421   2.187   8.299
  354TIP3    H122621   2.345   2.171   8.355
  354TIP3    H222622   2.384   2.191   8.210
  355TIP3   OH222623   0.373   3.815   0.345
  355TIP3    H122624   0.320   3.891   0.370
  355TIP3    H222625   0.309   3.744   0.337
  356TIP3   OH222626   2.224   2.416   1.371
  356TIP3    H122627   2.202   2.494   1.320
  356TIP3    H222628   2.231   2.447   1.461
  357TIP3   OH222629   5.672   0.135   6.802
  357TIP3    H122630   5.674   0.103   6.712
  357TIP3    H222631   5.667   0.230   6.794
  358TIP3   OH222632   0.884   3.374   8.110
  358TIP3    H122633   0.791   3.354   8.118
  358TIP3    H222634   0.926   3.289   8.098
  359TIP3   OH222635   4.470   2.965   7.178
  359TIP3    H122636   4.482   2.945   7.271
  359TIP3    H222637   4.434   2.885   7.140
  360TIP3   OH222638   4.232   2.376   8.202
  360TIP3    H122639   4.172   2.364   8.275
  360TIP3    H222640   4.254   2.287   8.174
  361TIP3   OH222641   1.995   5.418   7.702
  361TIP3    H122642   1.994   5.420   7.798
  361TIP3    H222643   2.088   5.410   7.680
  362TIP3   OH222644   4.147   6.420   2.369
  362TIP3    H122645   4.225   6.419   2.314
  362TIP3    H222646   4.170   6.364   2.444
  363TIP3   OH222647   0.829   5.123   8.352
  363TIP3    H122648   0.909   5.126   8.405
  363TIP3    H222649   0.797   5.034   8.361
  364TIP3   OH222650   5.673   0.276   7.534
  364TIP3    H122651   5.631   0.198   7.569
  364TIP3    H222652   5.766   0.265   7.553
  365TIP3   OH222653   3.958   3.256   1.982
  365TIP3    H122654   3.941   3.278   2.073
  365TIP3    H222655   4.046   3.216   1.982
  366TIP3   OH222656   3.363   5.813   0.952
  366TIP3    H122657   3.398   5.759   0.881
  366TIP3    H222658   3.285   5.854   0.915
  367TIP3   OH222659   5.302   3.960   7.139
  367TIP3    H122660   5.293   3.909   7.058
  367TIP3    H222661   5.214   3.960   7.177
  368TIP3   OH222662   2.929   0.331   7.637
  368TIP3    H122663   2.925   0.379   7.555
  368TIP3    H222664   2.901   0.242   7.614
  369TIP3   OH222665   1.337   5.309   7.968
  369TIP3    H122666   1.354   5.368   8.041
  369TIP3    H222667   1.250   5.272   7.986
  370TIP3   OH222668   1.463   5.536   0.988
  370TIP3    H122669   1.387   5.568   1.035
  370TIP3    H222670   1.536   5.587   1.022
  371TIP3   OH222671   2.431   0.413   7.499
  371TIP3    H122672   2.506   0.441   7.551
  371TIP3    H222673   2.411   0.488   7.443
  372TIP3   OH222674   2.012   4.742   8.128
  372TIP3    H122675   1.977   4.823   8.090
  372TIP3    H222676   2.050   4.769   8.211
  373TIP3   OH222677   5.984   0.352   0.251
  373TIP3    H122678   6.010   0.431   0.300
  373TIP3    H222679   5.916   0.382   0.191
  374TIP3   OH222680   3.769   0.938   8.013
  374TIP3    H122681   3.786   0.847   7.988
  374TIP3    H222682   3.770   0.986   7.930
  375TIP3   OH222683   0.383   1.546   7.102
  375TIP3    H122684   0.340   1.462   7.082
  375TIP3    H222685   0.338   1.610   7.048
  376TIP3   OH222686   3.670   5.600   0.987
  376TIP3    H122687   3.607   5.593   0.916
  376TIP3    H222688   3.689   5.694   0.993
  377TIP3   OH222689   5.105   1.831   1.164
  377TIP3    H122690   5.177   1.774   1.139
  377TIP3    H222691   5.142   1.919   1.162
  378TIP3   OH222692   5.461   6.114   1.413
  378TIP3    H122693   5.530   6.076   1.467
  378TIP3    H222694   5.507   6.153   1.339
  379TIP3   OH222695   2.632   0.763   0.244
  379TIP3    H122696   2.688   0.834   0.276
  379TIP3    H222697   2.626   0.779   0.149
  380TIP3   OH222698   5.874   3.424   8.735
  380TIP3    H122699   5.830   3.367   8.798
  380TIP3    H222700   5.805   3.484   8.705
  381TIP3   OH222701   3.370   4.086   1.339
  381TIP3    H122702   3.289   4.045   1.308
  381TIP3    H222703   3.428   4.012   1.359
  382TIP3   OH222704   2.511   1.254   0.614
  382TIP3    H122705   2.594   1.210   0.635
  382TIP3    H222706   2.460   1.186   0.570
  383TIP3   OH222707   1.140   1.270   8.265
  383TIP3    H122708   1.155   1.345   8.207
  383TIP3    H222709   1.223   1.222   8.263
  384TIP3   OH222710   4.324   5.797   8.701
  384TIP3    H122711   4.241   5.820   8.742
  384TIP3    H222712   4.310   5.708   8.669
  385TIP3   OH222713   3.490   3.221   7.684
  385TIP3    H122714   3.432   3.250   7.755
  385TIP3    H222715   3.458   3.268   7.607
  386TIP3   OH222716   1.377   4.533   1.656
  386TIP3    H122717   1.304   4.520   1.597
  386TIP3    H222718   1.420   4.447   1.661
  387TIP3   OH222719   5.056   0.559   0.145
  387TIP3    H122720   4.971   0.517   0.126
  387TIP3    H222721   5.058   0.564   0.241
  388TIP3   OH222722   2.144   4.378   8.907
  388TIP3    H122723   2.142   4.408   8.816
  388TIP3    H222724   2.206   4.305   8.907
  389TIP3   OH222725   4.115   4.239   7.367
  389TIP3    H122726   4.188   4.180   7.383
  389TIP3    H222727   4.093   4.226   7.275
  390TIP3   OH222728   6.141   4.938   0.326
  390TIP3    H122729   6.049   4.938   0.354
  390TIP3    H222730   6.137   4.954   0.232
  391TIP3   OH222731   2.576   3.110   0.720
  391TIP3    H122732   2.655   3.163   0.713
  391TIP3    H222733   2.555   3.085   0.630
  392TIP3   OH222734   6.196   5.247   1.086
  392TIP3    H122735   6.181   5.213   1.174
  392TIP3    H222736   6.282   5.212   1.061
  393TIP3   OH222737   3.820   3.932   0.609
  393TIP3    H122738   3.903   3.923   0.655
  393TIP3    H222739   3.841   3.982   0.530
  394TIP3   OH222740   4.425   2.751   1.649
  394TIP3    H122741   4.362   2.783   1.714
  394TIP3    H222742   4.484   2.694   1.697
  395TIP3   OH222743   4.351   6.438   8.881
  395TIP3    H122744   4.381   6.470   0.053
  395TIP3    H222745   4.259   6.416   8.894
  396TIP3   OH222746   2.608   2.332   2.322
  396TIP3    H122747   2.592   2.335   2.227
  396TIP3    H222748   2.687   2.385   2.334
  397TIP3   OH222749   2.817   5.059   7.915
  397TIP3    H122750   2.832   5.137   7.863
  397TIP3    H222751   2.765   5.088   7.989
  398TIP3   OH222752   5.355   0.576   6.419
  398TIP3    H122753   5.427   0.638   6.434
  398TIP3    H222754   5.278   0.623   6.449
  399TIP3   OH222755   4.082   4.479   7.514
  399TIP3    H122756   4.074   4.430   7.432
  399TIP3    H222757   4.167   4.523   7.507
  400TIP3   OH222758   0.492   0.704   0.299
  400TIP3    H122759   0.508   0.623   0.348
  400TIP3    H222760   0.563   0.708   0.235
  401TIP3   OH222761   4.436   6.724   0.867
  401TIP3    H122762   4.449   6.771   0.784
  401TIP3    H222763   4.366   6.661   0.848
  402TIP3   OH222764   5.574   6.671   6.935
  402TIP3    H122765   5.613   6.750   6.897
  402TIP3    H222766   5.555   6.615   6.859
  403TIP3   OH222767   1.054   5.194   8.897
  403TIP3    H122768   1.076   5.260   0.049
  403TIP3    H222769   0.993   5.135   0.027
  404TIP3   OH222770   0.783   3.992   0.508
  404TIP3    H122771   0.722   3.989   0.434
  404TIP3    H222772   0.733   4.032   0.579
  405TIP3   OH222773   4.620   0.670   8.428
  405TIP3    H122774   4.552   0.708   8.484
  405TIP3    H222775   4.631   0.735   8.358
  406TIP3   OH222776   3.138   2.252   7.442
  406TIP3    H122777   3.218   2.227   7.395
  406TIP3    H222778   3.076   2.273   7.373
  407TIP3   OH222779   1.971   5.140   0.812
  407TIP3    H122780   1.998   5.222   0.855
  407TIP3    H222781   1.903   5.105   0.868
  408TIP3   OH222782   4.515   3.240   8.267
  408TIP3    H122783   4.596   3.291   8.264
  408TIP3    H222784   4.456   3.284   8.206
  409TIP3   OH222785   3.243   3.743   0.352
  409TIP3    H122786   3.234   3.765   0.259
  409TIP3    H222787   3.161   3.773   0.392
  410TIP3   OH222788   6.107   1.269   7.650
  410TIP3    H122789   6.188   1.220   7.657
  410TIP3    H222790   6.116   1.341   7.713
  411TIP3   OH222791   0.937   0.533   2.085
  411TIP3    H122792   0.896   0.571   2.162
  411TIP3    H222793   1.031   0.552   2.097
  412TIP3   OH222794   3.296   1.160   8.508
  412TIP3    H122795   3.287   1.253   8.529
  412TIP3    H222796   3.385   1.153   8.473
  413TIP3   OH222797   2.480   4.591   0.842
  413TIP3    H122798   2.488   4.495   0.843
  413TIP3    H222799   2.567   4.622   0.818
  414TIP3   OH222800   6.676   5.471   8.162
  414TIP3    H122801   6.609   5.525   8.205
  414TIP3    H222802   6.628   5.395   8.130
  415TIP3   OH222803   1.338   6.582   1.834
  415TIP3    H122804   1.323   6.597   1.928
  415TIP3    H222805   1.331   6.487   1.825
  416TIP3   OH222806   2.781   4.573   1.414
  416TIP3    H122807   2.851   4.636   1.398
  416TIP3    H222808   2.818   4.512   1.477
  417TIP3   OH222809   3.696   3.695   2.126
  417TIP3    H122810   3.640   3.735   2.192
  417TIP3    H222811   3.774   3.750   2.124
  418TIP3   OH222812   0.114   3.479   7.067
  418TIP3    H122813   0.156   3.450   6.986
  418TIP3    H222814   0.090   3.570   7.050
  419TIP3   OH222815   2.193   3.924   7.116
  419TIP3    H122816   2.104   3.959   7.109
  419TIP3    H222817   2.190   3.842   7.067
  420TIP3   OH222818   0.786   3.569   0.139
  420TIP3    H122819   0.848   3.622   0.089
  420TIP3    H222820   0.792   3.603   0.229
  421TIP3   OH222821   3.725   5.139   1.765
  421TIP3    H122822   3.667   5.065   1.785
  421TIP3    H222823   3.813   5.101   1.763
  422TIP3   OH222824   3.217   0.167   0.133
  422TIP3    H122825   3.245   0.207   0.215
  422TIP3    H222826   3.130   0.204   0.117
  423TIP3   OH222827   0.037   3.695   7.278
  423TIP3    H122828   0.056   3.713   7.186
  423TIP3    H222829   0.059   3.776   7.324
  424TIP3   OH222830   6.101   5.818   8.523
  424TIP3    H122831   6.167   5.769   8.474
  424TIP3    H222832   6.068   5.882   8.461
  425TIP3   OH222833   1.531   5.898   0.089
  425TIP3    H122834   1.556   5.963   0.155
  425TIP3    H222835   1.557   5.814   0.126
  426TIP3   OH222836   3.125   6.265   2.366
  426TIP3    H122837   3.031   6.283   2.358
  426TIP3    H222838   3.137   6.183   2.317
  427TIP3   OH222839   3.666   4.405   0.490
  427TIP3    H122840   3.698   4.418   0.579
  427TIP3    H222841   3.620   4.321   0.493
  428TIP3   OH222842   4.527   1.186   0.983
  428TIP3    H122843   4.617   1.216   0.969
  428TIP3    H222844   4.484   1.258   1.028
  429TIP3   OH222845   1.045   0.465   7.195
  429TIP3    H122846   1.110   0.429   7.135
  429TIP3    H222847   1.070   0.556   7.207
  430TIP3   OH222848   1.929   1.161   8.451
  430TIP3    H122849   1.958   1.178   8.362
  430TIP3    H222850   1.969   1.077   8.474
  431TIP3   OH222851   2.794   2.098   6.828
  431TIP3    H122852   2.840   2.073   6.748
  431TIP3    H222853   2.702   2.081   6.809
  432TIP3   OH222854   3.813   0.974   3.009
  432TIP3    H122855   3.794   0.991   2.917
  432TIP3    H222856   3.768   1.043   3.057
  433TIP3   OH222857   6.616   1.177   6.852
  433TIP3    H122858   6.710   1.174   6.837
  433TIP3    H222859   6.605   1.242   6.922
  434TIP3   OH222860   3.863   5.821   7.412
  434TIP3    H122861   3.796   5.879   7.449
  434TIP3    H222862   3.931   5.817   7.479
  435TIP3   OH222863   1.317   0.274   7.555
  435TIP3    H122864   1.250   0.265   7.487
  435TIP3    H222865   1.399   0.286   7.506
  436TIP3   OH222866   0.256   5.286   0.391
  436TIP3    H122867   0.301   5.312   0.311
  436TIP3    H222868   0.246   5.367   0.440
  437TIP3   OH222869   0.449   3.529   7.695
  437TIP3    H122870   0.544   3.541   7.693
  437TIP3    H222871   0.414   3.600   7.641
  438TIP3   OH222872   2.287   2.410   8.907
  438TIP3    H122873   2.287   2.314   8.900
  438TIP3    H222874   2.250   2.440   8.824
  439TIP3   OH222875   0.041   6.451   7.366
  439TIP3    H122876   0.048   6.536   7.410
  439TIP3    H222877   6.745   6.408   7.411
  440TIP3   OH222878   1.408   2.184   0.096
  440TIP3    H122879   1.367   2.218   0.016
  440TIP3    H222880   1.455   2.106   0.066
  441TIP3   OH222881   5.531   2.359   8.459
  441TIP3    H122882   5.553   2.301   8.532
  441TIP3    H222883   5.435   2.365   8.462
  442TIP3   OH222884   0.004   0.425   8.715
  442TIP3    H122885   0.008   0.499   8.775
  442TIP3    H222886   6.695   0.431   8.674
  443TIP3   OH222887   3.902   4.315   6.857
  443TIP3    H122888   3.953   4.381   6.902
  443TIP3    H222889   3.919   4.329   6.764
  444TIP3   OH222890   1.231   3.082   0.007
  444TIP3    H122891   1.248   3.075   8.826
  444TIP3    H222892   1.250   3.173   0.028
  445TIP3   OH222893   3.932   6.196   0.040
  445TIP3    H122894   3.939   6.119   8.897
  445TIP3    H222895   3.965   6.167   0.125
  446TIP3   OH222896   2.183   2.601   0.862
  446TIP3    H122897   2.273   2.584   0.890
  446TIP3    H222898   2.188   2.610   0.767
  447TIP3   OH222899   0.605   6.120   7.835
  447TIP3    H122900   0.698   6.129   7.814
  447TIP3    H222901   0.564   6.194   7.790
  448TIP3   OH222902   0.312   6.712   8.563
  448TIP3    H122903   0.323   6.753   8.648
  448TIP3    H222904   0.359   6.629   8.570
  449TIP3   OH222905   2.939   1.822   1.048
  449TIP3    H122906   3.032   1.836   1.031
  449TIP3    H222907   2.921   1.872   1.127
  450TIP3   OH222908   5.380   4.452   7.162
  450TIP3    H122909   5.409   4.530   7.209
  450TIP3    H222910   5.286   4.447   7.180
  451TIP3   OH222911   4.770   4.319   7.790
  451TIP3    H122912   4.739   4.404   7.824
  451TIP3    H222913   4.711   4.299   7.718
  452TIP3   OH222914   2.164   5.334   1.715
  452TIP3    H122915   2.164   5.238   1.716
  452TIP3    H222916   2.072   5.357   1.699
  453TIP3   OH222917   2.863   0.282   2.355
  453TIP3    H122918   2.951   0.307   2.327
  453TIP3    H222919   2.820   0.252   2.275
  454TIP3   OH222920   6.380   5.493   7.234
  454TIP3    H122921   6.331   5.410   7.235
  454TIP3    H222922   6.472   5.467   7.233
  455TIP3   OH222923   1.667   5.229   0.107
  455TIP3    H122924   1.683   5.158   0.170
  455TIP3    H222925   1.578   5.257   0.124
  456TIP3   OH222926   1.452   2.307   0.330
  456TIP3    H122927   1.426   2.253   0.255
  456TIP3    H222928   1.377   2.365   0.344
  457TIP3   OH222929   4.343   1.823   7.166
  457TIP3    H122930   4.346   1.767   7.088
  457TIP3    H222931   4.272   1.787   7.218
  458TIP3   OH222932   0.115   4.665   7.733
  458TIP3    H122933   0.189   4.702   7.780
  458TIP3    H222934   0.095   4.583   7.779
  459TIP3   OH222935   5.221   3.360   0.065
  459TIP3    H122936   5.183   3.299   0.002
  459TIP3    H222937   5.314   3.338   0.067
  460TIP3   OH222938   0.406   5.893   6.875
  460TIP3    H122939   0.344   5.937   6.932
  460TIP3    H222940   0.351   5.850   6.809
  461TIP3   OH222941   3.382   1.047   0.970
  461TIP3    H122942   3.444   0.974   0.963
  461TIP3    H222943   3.403   1.103   0.895
  462TIP3   OH222944   4.596   3.492   0.205
  462TIP3    H122945   4.616   3.584   0.223
  462TIP3    H222946   4.661   3.465   0.140
  463TIP3   OH222947   3.395   4.805   7.364
  463TIP3    H122948   3.333   4.745   7.323
  463TIP3    H222949   3.401   4.878   7.302
  464TIP3   OH222950   4.824   1.579   7.789
  464TIP3    H122951   4.831   1.524   7.710
  464TIP3    H222952   4.735   1.615   7.785
  465TIP3   OH222953   1.292   1.142   7.190
  465TIP3    H122954   1.295   1.201   7.114
  465TIP3    H222955   1.338   1.189   7.259
  466TIP3   OH222956   0.562   5.629   0.198
  466TIP3    H122957   0.545   5.539   0.224
  466TIP3    H222958   0.569   5.677   0.280
  467TIP3   OH222959   3.506   2.897   8.616
  467TIP3    H122960   3.550   2.933   8.538
  467TIP3    H222961   3.525   2.803   8.614
  468TIP3   OH222962   0.528   5.950   7.618
  468TIP3    H122963   0.539   6.042   7.644
  468TIP3    H222964   0.483   5.954   7.534
  469TIP3   OH222965   2.151   0.349   2.246
  469TIP3    H122966   2.190   0.269   2.211
  469TIP3    H222967   2.058   0.342   2.221
  470TIP3   OH222968   4.644   0.494   1.435
  470TIP3    H122969   4.592   0.438   1.492
  470TIP3    H222970   4.673   0.436   1.364
  471TIP3   OH222971   1.929   3.954   1.322
  471TIP3    H122972   1.855   4.003   1.359
  471TIP3    H222973   1.937   3.877   1.378
  472TIP3   OH222974   6.484   0.534   1.197
  472TIP3    H122975   6.506   0.610   1.143
  472TIP3    H222976   6.568   0.508   1.236
  473TIP3   OH222977   5.405   1.164   1.617
  473TIP3    H122978   5.353   1.243   1.607
  473TIP3    H222979   5.406   1.146   1.711
  474TIP3   OH222980   0.052   0.888   6.193
  474TIP3    H122981   0.117   0.820   6.212
  474TIP3    H222982   0.080   0.964   6.244
  475TIP3   OH222983   1.425   3.450   0.324
  475TIP3    H122984   1.510   3.491   0.341
  475TIP3    H222985   1.362   3.521   0.339
  476TIP3   OH222986   6.262   4.442   0.054
  476TIP3    H122987   6.315   4.504   0.104
  476TIP3    H222988   6.195   4.497   0.012
  477TIP3   OH222989   1.580   0.842   7.638
  477TIP3    H122990   1.577   0.827   7.732
  477TIP3    H222991   1.522   0.774   7.601
  478TIP3   OH222992   2.007   2.471   7.645
  478TIP3    H122993   1.930   2.418   7.625
  478TIP3    H222994   2.000   2.545   7.584
  479TIP3   OH222995   1.591   5.556   7.453
  479TIP3    H122996   1.532   5.625   7.484
  479TIP3    H222997   1.538   5.476   7.457
  480TIP3   OH222998   0.177   2.449   7.850
  480TIP3    H122999   0.221   2.422   7.769
  480TIP3    H223000   0.138   2.369   7.885
  481TIP3   OH223001   2.992   6.173   8.808
  481TIP3    H123002   2.986   6.109   8.879
  481TIP3    H223003   3.060   6.234   8.836
  482TIP3   OH223004   0.459   0.521   7.426
  482TIP3    H123005   0.475   0.515   7.332
  482TIP3    H223006   0.392   0.455   7.443
  483TIP3   OH223007   5.093   2.730   0.905
  483TIP3    H123008   5.138   2.794   0.849
  483TIP3    H223009   5.045   2.675   0.843
  484TIP3   OH223010   2.478   6.249   7.482
  484TIP3    H123011   2.552   6.194   7.459
  484TIP3    H223012   2.470   6.310   7.408
  485TIP3   OH223013   0.711   6.014   8.488
  485TIP3    H123014   0.711   6.041   8.580
  485TIP3    H223015   0.801   5.986   8.471
  486TIP3   OH223016   1.120   4.229   1.314
  486TIP3    H123017   1.054   4.240   1.383
  486TIP3    H223018   1.074   4.182   1.244
  487TIP3   OH223019   4.702   6.730   8.171
  487TIP3    H123020   4.716   0.039   8.130
  487TIP3    H223021   4.758   6.670   8.121
  488TIP3   OH223022   6.048   3.166   1.047
  488TIP3    H123023   5.969   3.115   1.066
  488TIP3    H223024   6.085   3.184   1.134
  489TIP3   OH223025   3.406   5.676   7.269
  489TIP3    H123026   3.448   5.681   7.183
  489TIP3    H223027   3.401   5.767   7.299
  490TIP3   OH223028   6.184   1.875   0.689
  490TIP3    H123029   6.206   1.798   0.637
  490TIP3    H223030   6.269   1.917   0.705
  491TIP3   OH223031   4.309   5.521   7.242
  491TIP3    H123032   4.337   5.456   7.176
  491TIP3    H223033   4.383   5.580   7.251
  492TIP3   OH223034   1.076   5.217   8.487
  492TIP3    H123035   1.165   5.182   8.478
  492TIP3    H223036   1.077   5.298   8.436
  493TIP3   OH223037   0.695   2.151   8.682
  493TIP3    H123038   0.769   2.127   8.737
  493TIP3    H223039   0.670   2.239   8.710
  494TIP3   OH223040   1.622   2.508   0.619
  494TIP3    H123041   1.579   2.518   0.534
  494TIP3    H223042   1.562   2.453   0.670
  495TIP3   OH223043   0.437   5.610   1.047
  495TIP3    H123044   0.398   5.573   1.126
  495TIP3    H223045   0.520   5.562   1.037
  496TIP3   OH223046   4.154   0.736   1.356
  496TIP3    H123047   4.093   0.744   1.282
  496TIP3    H223048   4.214   0.809   1.346
  497TIP3   OH223049   1.658   5.883   1.608
  497TIP3    H123050   1.703   5.963   1.582
  497TIP3    H223051   1.713   5.847   1.679
  498TIP3   OH223052   2.305   5.570   7.782
  498TIP3    H123053   2.311   5.531   7.695
  498TIP3    H223054   2.394   5.601   7.800
  499TIP3   OH223055   4.600   1.624   0.642
  499TIP3    H123056   4.549   1.704   0.630
  499TIP3    H223057   4.597   1.580   0.557
  500TIP3   OH223058   0.062   1.538   7.007
  500TIP3    H123059   0.136   1.477   7.007
  500TIP3    H223060   0.038   1.546   7.100
  501TIP3   OH223061   4.823   2.123   2.111
  501TIP3    H123062   4.776   2.115   2.028
  501TIP3    H223063   4.834   2.033   2.142
  502TIP3   OH223064   3.132   2.809   8.552
  502TIP3    H123065   3.180   2.864   8.614
  502TIP3    H223066   3.176   2.724   8.556
  503TIP3   OH223067   0.057   6.708   0.992
  503TIP3    H123068   0.077   0.011   1.042
  503TIP3    H223069   0.120   6.709   0.920
  504TIP3   OH223070   0.298   1.848   8.112
  504TIP3    H123071   0.304   1.752   8.112
  504TIP3    H223072   0.363   1.876   8.175
  505TIP3   OH223073   1.266   4.407   0.253
  505TIP3    H123074   1.198   4.343   0.272
  505TIP3    H223075   1.273   4.406   0.158
  506TIP3   OH223076   4.942   3.118   6.975
  506TIP3    H123077   4.989   3.197   7.004
  506TIP3    H223078   4.985   3.093   6.893
  507TIP3   OH223079   0.126   3.442   7.412
  507TIP3    H123080   0.209   3.427   7.366
  507TIP3    H223081   0.098   3.529   7.384
  508TIP3   OH223082   3.458   2.132   8.790
  508TIP3    H123083   3.408   2.161   8.867
  508TIP3    H223084   3.532   2.193   8.785
  509TIP3   OH223085   1.797   0.085   1.044
  509TIP3    H123086   1.888   0.074   1.073
  509TIP3    H223087   1.754   0.005   1.074
  510TIP3   OH223088   2.437   2.868   8.566
  510TIP3    H123089   2.513   2.925   8.569
  510TIP3    H223090   2.448   2.810   8.642
  511TIP3   OH223091   4.220   5.210   8.871
  511TIP3    H123092   4.206   5.173   8.784
  511TIP3    H223093   4.141   5.187   0.006
  512TIP3   OH223094   6.366   2.047   1.158
  512TIP3    H123095   6.405   2.050   1.071
  512TIP3    H223096   6.379   1.957   1.187
  513TIP3   OH223097   0.314   4.462   7.200
  513TIP3    H123098   0.244   4.524   7.180
  513TIP3    H223099   0.395   4.510   7.182
  514TIP3   OH223100   6.016   3.126   1.364
  514TIP3    H123101   6.042   3.080   1.444
  514TIP3    H223102   5.932   3.166   1.386
  515TIP3   OH223103   4.750   2.886   8.305
  515TIP3    H123104   4.672   2.868   8.357
  515TIP3    H223105   4.717   2.926   8.224
  516TIP3   OH223106   1.648   2.760   0.726
  516TIP3    H123107   1.739   2.785   0.713
  516TIP3    H223108   1.640   2.674   0.685
  517TIP3   OH223109   0.040   6.086   0.904
  517TIP3    H123110   0.121   6.129   0.877
  517TIP3    H223111   0.022   6.120   0.991
  518TIP3   OH223112   3.360   5.576   2.243
  518TIP3    H123113   3.399   5.569   2.156
  518TIP3    H223114   3.328   5.666   2.249
  519TIP3   OH223115   0.204   3.590   0.292
  519TIP3    H123116   0.152   3.525   0.244
  519TIP3    H223117   0.292   3.552   0.295
  520TIP3   OH223118   4.886   0.610   8.549
  520TIP3    H123119   4.925   0.684   8.596
  520TIP3    H223120   4.797   0.640   8.528
  521TIP3   OH223121   4.743   3.836   7.560
  521TIP3    H123122   4.701   3.822   7.475
  521TIP3    H223123   4.780   3.751   7.584
  522TIP3   OH223124   1.796   6.766   7.684
  522TIP3    H123125   1.794   6.692   7.623
  522TIP3    H223126   1.825   6.728   7.767
  523TIP3   OH223127   6.605   4.281   2.274
  523TIP3    H123128   6.629   4.190   2.288
  523TIP3    H223129   6.530   4.278   2.214
  524TIP3   OH223130   0.747   2.385   1.148
  524TIP3    H123131   0.785   2.314   1.097
  524TIP3    H223132   0.795   2.384   1.231
  525TIP3   OH223133   1.206   2.572   7.683
  525TIP3    H123134   1.179   2.481   7.694
  525TIP3    H223135   1.284   2.567   7.628
  526TIP3   OH223136   5.920   4.492   1.675
  526TIP3    H123137   5.844   4.443   1.643
  526TIP3    H223138   5.952   4.540   1.599
  527TIP3   OH223139   0.087   1.062   6.807
  527TIP3    H123140   0.156   1.128   6.797
  527TIP3    H223141   0.108   0.995   6.742
  528TIP3   OH223142   4.871   4.043   6.862
  528TIP3    H123143   4.946   4.101   6.876
  528TIP3    H223144   4.873   3.982   6.936
  529TIP3   OH223145   5.450   5.824   0.531
  529TIP3    H123146   5.518   5.816   0.464
  529TIP3    H223147   5.367   5.817   0.482
  530TIP3   OH223148   4.355   1.736   2.389
  530TIP3    H123149   4.358   1.753   2.483
  530TIP3    H223150   4.286   1.670   2.379
  531TIP3   OH223151   5.112   0.519   7.174
  531TIP3    H123152   5.094   0.458   7.102
  531TIP3    H223153   5.206   0.536   7.167
  532TIP3   OH223154   3.589   1.785   1.052
  532TIP3    H123155   3.640   1.789   1.133
  532TIP3    H223156   3.590   1.875   1.019
  533TIP3   OH223157   3.635   1.527   8.856
  533TIP3    H123158   3.625   1.617   8.827
  533TIP3    H223159   3.707   1.529   0.006
  534TIP3   OH223160   0.245   5.622   7.349
  534TIP3    H123161   0.233   5.606   7.443
  534TIP3    H223162   0.163   5.664   7.322
  535TIP3   OH223163   6.203   0.289   0.926
  535TIP3    H123164   6.166   0.236   0.855
  535TIP3    H223165   6.285   0.244   0.947
  536TIP3   OH223166   1.395   4.917   1.487
  536TIP3    H123167   1.401   5.012   1.478
  536TIP3    H223168   1.482   4.885   1.461
  537TIP3   OH223169   2.617   6.435   1.341
  537TIP3    H123170   2.712   6.426   1.348
  537TIP3    H223171   2.600   6.441   1.247
  538TIP3   OH223172   3.699   3.303   7.033
  538TIP3    H123173   3.641   3.244   6.986
  538TIP3    H223174   3.669   3.391   7.008
  539TIP3   OH223175   5.556   0.336   8.645
  539TIP3    H123176   5.625   0.369   8.586
  539TIP3    H223177   5.560   0.241   8.635
  540TIP3   OH223178   0.321   2.687   6.431
  540TIP3    H123179   0.255   2.751   6.458
  540TIP3    H223180   0.390   2.739   6.389
  541TIP3   OH223181   0.509   2.088   6.830
  541TIP3    H123182   0.551   2.002   6.830
  541TIP3    H223183   0.443   2.081   6.762
  542TIP3   OH223184   0.954   5.743   7.332
  542TIP3    H123185   1.006   5.694   7.396
  542TIP3    H223186   0.887   5.681   7.303
  543TIP3   OH223187   5.375   2.686   1.742
  543TIP3    H123188   5.291   2.709   1.781
  543TIP3    H223189   5.391   2.754   1.677
  544TIP3   OH223190   6.305   2.655   1.617
  544TIP3    H123191   6.369   2.595   1.655
  544TIP3    H223192   6.298   2.726   1.680
  545TIP3   OH223193   1.243   0.821   0.420
  545TIP3    H123194   1.309   0.779   0.475
  545TIP3    H223195   1.194   0.749   0.381
  546TIP3   OH223196   4.994   5.488   8.396
  546TIP3    H123197   4.928   5.437   8.443
  546TIP3    H223198   5.058   5.510   8.463
  547TIP3   OH223199   6.012   2.430   2.270
  547TIP3    H123200   5.938   2.371   2.289
  547TIP3    H223201   6.081   2.400   2.329
  548TIP3   OH223202   2.435   0.192   7.259
  548TIP3    H123203   2.530   0.187   7.264
  548TIP3    H223204   2.406   0.194   7.351
  549TIP3   OH223205   4.314   0.133   1.071
  549TIP3    H123206   4.282   0.045   1.091
  549TIP3    H223207   4.261   0.162   0.997
  550TIP3   OH223208   6.627   2.368   6.593
  550TIP3    H123209   6.640   2.462   6.595
  550TIP3    H223210   6.672   2.339   6.514
  551TIP3   OH223211   2.324   1.185   8.885
  551TIP3    H123212   2.346   1.162   8.794
  551TIP3    H223213   2.311   1.280   8.883
  552TIP3   OH223214   5.740   0.308   1.587
  552TIP3    H123215   5.742   0.403   1.600
  552TIP3    H223216   5.776   0.272   1.668
  553TIP3   OH223217   4.803   6.364   6.959
  553TIP3    H123218   4.718   6.325   6.983
  553TIP3    H223219   4.782   6.455   6.939
  554TIP3   OH223220   0.503   2.297   0.277
  554TIP3    H123221   0.438   2.307   0.346
  554TIP3    H223222   0.512   2.384   0.240
  555TIP3   OH223223   3.110   4.980   7.930
  555TIP3    H123224   3.156   5.024   8.001
  555TIP3    H223225   3.023   5.019   7.930
  556TIP3   OH223226   2.950   4.881   1.921
  556TIP3    H123227   2.865   4.926   1.912
  556TIP3    H223228   2.981   4.907   2.008
  557TIP3   OH223229   2.801   5.244   0.723
  557TIP3    H123230   2.748   5.247   0.802
  557TIP3    H223231   2.885   5.281   0.750
  558TIP3   OH223232   0.138   4.067   1.415
  558TIP3    H123233   0.200   3.999   1.390
  558TIP3    H223234   0.193   4.140   1.444
  559TIP3   OH223235   1.743   5.521   0.774
  559TIP3    H123236   1.693   5.487   0.699
  559TIP3    H223237   1.833   5.529   0.741
  560TIP3   OH223238   2.640   5.294   7.833
  560TIP3    H123239   2.604   5.312   7.746
  560TIP3    H223240   2.621   5.372   7.884
  561TIP3   OH223241   1.071   3.446   1.148
  561TIP3    H123242   0.978   3.429   1.161
  561TIP3    H223243   1.100   3.377   1.089
  562TIP3   OH223244   6.041   1.672   7.764
  562TIP3    H123245   5.984   1.700   7.836
  562TIP3    H223246   6.130   1.683   7.798
  563TIP3   OH223247   2.293   3.299   0.654
  563TIP3    H123248   2.311   3.334   0.741
  563TIP3    H223249   2.374   3.313   0.605
  564TIP3   OH223250   0.336   0.215   6.112
  564TIP3    H123251   0.388   0.135   6.115
  564TIP3    H223252   0.401   0.285   6.103
  565TIP3   OH223253   0.349   3.414   2.448
  565TIP3    H123254   0.280   3.403   2.513
  565TIP3    H223255   0.410   3.341   2.465
  566TIP3   OH223256   3.368   2.218   1.814
  566TIP3    H123257   3.456   2.182   1.823
  566TIP3    H223258   3.376   2.284   1.746
  567TIP3   OH223259   5.637   6.725   7.316
  567TIP3    H123260   5.607   0.031   7.279
  567TIP3    H223261   5.719   6.747   7.361
  568TIP3   OH223262   6.080   6.379   2.142
  568TIP3    H123263   6.149   6.391   2.208
  568TIP3    H223264   6.089   6.454   2.083
  569TIP3   OH223265   3.814   6.691   8.171
  569TIP3    H123266   3.803   0.007   8.190
  569TIP3    H223267   3.876   6.660   8.237
  570TIP3   OH223268   4.726   5.138   6.598
  570TIP3    H123269   4.762   5.221   6.629
  570TIP3    H223270   4.719   5.084   6.676
  571TIP3   OH223271   1.254   2.846   8.393
  571TIP3    H123272   1.315   2.886   8.331
  571TIP3    H223273   1.172   2.893   8.379
  572TIP3   OH223274   2.122   6.028   7.648
  572TIP3    H123275   2.031   6.018   7.675
  572TIP3    H223276   2.161   5.941   7.663
  573TIP3   OH223277   6.274   3.879   7.663
  573TIP3    H123278   6.253   3.879   7.569
  573TIP3    H223279   6.244   3.964   7.694
  574TIP3   OH223280   4.888   2.411   2.477
  574TIP3    H123281   4.877   2.322   2.510
  574TIP3    H223282   4.982   2.428   2.485
  575TIP3   OH223283   6.335   0.035   6.345
  575TIP3    H123284   6.249   0.062   6.315
  575TIP3    H223285   6.377   6.774   6.267
  576TIP3   OH223286   2.832   0.134   8.825
  576TIP3    H123287   2.834   0.072   8.752
  576TIP3    H223288   2.739   0.139   8.850
  577TIP3   OH223289   6.204   6.126   7.739
  577TIP3    H123290   6.221   6.131   7.645
  577TIP3    H223291   6.267   6.187   7.779
  578TIP3   OH223292   4.329   5.602   1.178
  578TIP3    H123293   4.339   5.667   1.247
  578TIP3    H223294   4.405   5.544   1.189
  579TIP3   OH223295   1.272   2.614   8.221
  579TIP3    H123296   1.238   2.675   8.286
  579TIP3    H223297   1.284   2.532   8.270
  580TIP3   OH223298   4.225   0.382   8.004
  580TIP3    H123299   4.285   0.417   8.069
  580TIP3    H223300   4.274   0.313   7.960
  581TIP3   OH223301   1.708   5.189   1.598
  581TIP3    H123302   1.769   5.253   1.562
  581TIP3    H223303   1.624   5.234   1.600
  582TIP3   OH223304   4.669   0.691   6.545
  582TIP3    H123305   4.596   0.753   6.541
  582TIP3    H223306   4.635   0.612   6.504
  583TIP3   OH223307   6.325   1.433   7.479
  583TIP3    H123308   6.232   1.437   7.502
  583TIP3    H223309   6.347   1.522   7.449
  584TIP3   OH223310   3.758   6.553   0.039
  584TIP3    H123311   3.666   6.526   0.042
  584TIP3    H223312   3.755   6.649   0.044
  585TIP3   OH223313   3.407   0.788   0.957
  585TIP3    H123314   3.417   0.706   1.005
  585TIP3    H223315   3.347   0.766   0.885
  586TIP3   OH223316   1.826   0.913   8.868
  586TIP3    H123317   1.780   0.911   8.784
  586TIP3    H223318   1.918   0.923   8.844
  587TIP3   OH223319   5.723   6.022   8.742
  587TIP3    H123320   5.789   5.961   8.775
  587TIP3    H223321   5.646   6.006   8.796
  588TIP3   OH223322   3.278   5.708   1.375
  588TIP3    H123323   3.220   5.779   1.348
  588TIP3    H223324   3.219   5.642   1.412
  589TIP3   OH223325   0.900   0.670   7.687
  589TIP3    H123326   0.811   0.705   7.687
  589TIP3    H223327   0.937   0.699   7.770
  590TIP3   OH223328   1.502   1.801   8.328
  590TIP3    H123329   1.440   1.865   8.295
  590TIP3    H223330   1.458   1.759   8.402
  591TIP3   OH223331   0.388   3.994   7.637
  591TIP3    H123332   0.459   3.961   7.693
  591TIP3    H223333   0.352   3.915   7.597
  592TIP3   OH223334   3.909   3.517   7.317
  592TIP3    H123335   3.900   3.531   7.222
  592TIP3    H223336   3.962   3.438   7.324
  593TIP3   OH223337   1.942   4.462   0.781
  593TIP3    H123338   1.970   4.553   0.797
  593TIP3    H223339   1.993   4.434   0.706
  594TIP3   OH223340   4.689   1.800   1.218
  594TIP3    H123341   4.632   1.819   1.144
  594TIP3    H223342   4.763   1.753   1.179
  595TIP3   OH223343   6.756   4.882   1.430
  595TIP3    H123344   6.672   4.837   1.444
  595TIP3    H223345   0.039   4.813   1.402
  596TIP3   OH223346   0.922   2.690   0.489
  596TIP3    H123347   0.829   2.708   0.476
  596TIP3    H223348   0.929   2.595   0.480
  597TIP3   OH223349   0.735   1.243   7.796
  597TIP3    H123350   0.787   1.269   7.719
  597TIP3    H223351   0.743   1.148   7.799
  598TIP3   OH223352   3.398   1.579   2.170
  598TIP3    H123353   3.384   1.627   2.252
  598TIP3    H223354   3.391   1.487   2.195
  599TIP3   OH223355   0.182   0.705   1.884
  599TIP3    H123356   0.220   0.772   1.941
  599TIP3    H223357   0.136   0.755   1.816
  600TIP3   OH223358   3.904   4.710   8.117
  600TIP3    H123359   3.856   4.791   8.099
  600TIP3    H223360   3.967   4.704   8.044
  601TIP3   OH223361   4.436   2.003   6.806
  601TIP3    H123362   4.354   2.014   6.854
  601TIP3    H223363   4.422   2.049   6.724
  602TIP3   OH223364   4.924   3.502   1.964
  602TIP3    H123365   4.936   3.480   2.056
  602TIP3    H223366   4.836   3.471   1.943
  603TIP3   OH223367   1.507   1.032   7.961
  603TIP3    H123368   1.558   1.110   7.941
  603TIP3    H223369   1.566   0.959   7.941
  604TIP3   OH223370   1.607   0.050   1.505
  604TIP3    H123371   1.630   0.143   1.509
  604TIP3    H223372   1.521   0.048   1.463
  605TIP3   OH223373   1.207   3.675   7.278
  605TIP3    H123374   1.240   3.606   7.221
  605TIP3    H223375   1.245   3.756   7.244
  606TIP3   OH223376   4.895   6.646   7.525
  606TIP3    H123377   4.891   6.584   7.452
  606TIP3    H223378   4.988   6.662   7.538
  607TIP3   OH223379   0.527   1.831   7.346
  607TIP3    H123380   0.521   1.834   7.250
  607TIP3    H223381   0.590   1.761   7.363
  608TIP3   OH223382   1.407   4.561   0.731
  608TIP3    H123383   1.450   4.640   0.765
  608TIP3    H223384   1.318   4.590   0.712
  609TIP3   OH223385   6.092   0.212   7.149
  609TIP3    H123386   6.019   0.203   7.088
  609TIP3    H223387   6.081   0.139   7.211
  610TIP3   OH223388   2.617   0.088   1.947
  610TIP3    H123389   2.684   0.058   2.009
  610TIP3    H223390   2.534   0.065   1.989
  611TIP3   OH223391   4.668   3.835   1.366
  611TIP3    H123392   4.666   3.834   1.270
  611TIP3    H223393   4.674   3.928   1.388
  612TIP3   OH223394   1.071   2.750   1.957
  612TIP3    H123395   1.051   2.729   2.048
  612TIP3    H223396   1.128   2.827   1.961
  613TIP3   OH223397   1.167   0.598   8.279
  613TIP3    H123398   1.248   0.561   8.315
  613TIP3    H223399   1.171   0.691   8.303
  614TIP3   OH223400   5.851   2.439   1.183
  614TIP3    H123401   5.907   2.429   1.106
  614TIP3    H223402   5.779   2.378   1.168
  615TIP3   OH223403   2.129   4.383   1.151
  615TIP3    H123404   2.111   4.305   1.202
  615TIP3    H223405   2.179   4.440   1.210
  616TIP3   OH223406   5.866   1.210   7.492
  616TIP3    H123407   5.832   1.121   7.497
  616TIP3    H223408   5.949   1.207   7.541
  617TIP3   OH223409   2.390   6.387   7.874
  617TIP3    H123410   2.372   6.295   7.855
  617TIP3    H223411   2.373   6.396   7.968
  618TIP3   OH223412   4.936   1.418   0.468
  618TIP3    H123413   4.969   1.328   0.476
  618TIP3    H223414   4.902   1.439   0.555
  619TIP3   OH223415   6.143   0.492   1.843
  619TIP3    H123416   6.061   0.449   1.867
  619TIP3    H223417   6.211   0.433   1.875
  620TIP3   OH223418   5.316   2.568   8.271
  620TIP3    H123419   5.289   2.476   8.266
  620TIP3    H223420   5.270   2.611   8.198
  621TIP3   OH223421   0.654   3.918   1.894
  621TIP3    H123422   0.633   3.940   1.985
  621TIP3    H223423   0.659   3.823   1.894
  622TIP3   OH223424   2.625   4.916   8.669
  622TIP3    H123425   2.541   4.877   8.645
  622TIP3    H223426   2.663   4.855   8.733
  623TIP3   OH223427   4.472   2.620   0.824
  623TIP3    H123428   4.415   2.679   0.874
  623TIP3    H223429   4.485   2.664   0.740
  624TIP3   OH223430   1.035   5.048   0.551
  624TIP3    H123431   0.954   5.051   0.499
  624TIP3    H223432   1.067   4.958   0.540
  625TIP3   OH223433   4.764   0.356   1.223
  625TIP3    H123434   4.818   0.435   1.221
  625TIP3    H223435   4.767   0.323   1.133
  626TIP3   OH223436   5.630   4.195   1.307
  626TIP3    H123437   5.632   4.286   1.276
  626TIP3    H223438   5.544   4.186   1.348
  627TIP3   OH223439   2.279   1.885   8.070
  627TIP3    H123440   2.196   1.838   8.082
  627TIP3    H223441   2.333   1.856   8.144
  628TIP3   OH223442   4.975   5.902   1.653
  628TIP3    H123443   5.068   5.913   1.670
  628TIP3    H223444   4.943   5.847   1.725
  629TIP3   OH223445   0.657   0.603   1.287
  629TIP3    H123446   0.688   0.526   1.336
  629TIP3    H223447   0.737   0.647   1.259
  630TIP3   OH223448   3.610   2.094   1.787
  630TIP3    H123449   3.629   2.062   1.875
  630TIP3    H223450   3.667   2.042   1.730
  631TIP3   OH223451   4.930   2.280   1.513
  631TIP3    H123452   4.839   2.273   1.484
  631TIP3    H223453   4.928   2.342   1.586
  632TIP3   OH223454   0.691   4.680   7.484
  632TIP3    H123455   0.602   4.716   7.494
  632TIP3    H223456   0.735   4.742   7.425
  633TIP3   OH223457   0.213   4.375   8.040
  633TIP3    H123458   0.255   4.351   8.122
  633TIP3    H223459   0.241   4.308   7.978
  634TIP3   OH223460   1.636   4.657   1.621
  634TIP3    H123461   1.542   4.641   1.619
  634TIP3    H223462   1.663   4.626   1.707
  635TIP3   OH223463   4.906   3.423   1.225
  635TIP3    H123464   4.998   3.397   1.219
  635TIP3    H223465   4.906   3.517   1.209
  636TIP3   OH223466   1.926   3.970   0.222
  636TIP3    H123467   1.953   4.059   0.200
  636TIP3    H223468   1.843   3.981   0.267
  637TIP3   OH223469   4.242   4.023   0.315
  637TIP3    H123470   4.163   4.019   0.368
  637TIP3    H223471   4.312   3.995   0.374
  638TIP3   OH223472   2.434   2.767   1.678
  638TIP3    H123473   2.376   2.843   1.672
  638TIP3    H223474   2.506   2.786   1.618
  639TIP3   OH223475   0.089   5.083   0.499
  639TIP3    H123476   0.149   5.155   0.479
  639TIP3    H223477   0.119   5.011   0.445
  640TIP3   OH223478   0.130   3.628   1.153
  640TIP3    H123479   0.143   3.534   1.160
  640TIP3    H223480   0.103   3.655   1.241
  641TIP3   OH223481   5.664   1.751   0.244
  641TIP3    H123482   5.732   1.688   0.222
  641TIP3    H223483   5.696   1.795   0.323
  642TIP3   OH223484   3.240   2.956   1.748
  642TIP3    H123485   3.186   2.993   1.678
  642TIP3    H223486   3.184   2.961   1.826
  643TIP3   OH223487   6.204   2.134   7.347
  643TIP3    H123488   6.246   2.219   7.362
  643TIP3    H223489   6.111   2.155   7.339
  644TIP3   OH223490   4.074   5.346   1.993
  644TIP3    H123491   3.995   5.301   2.023
  644TIP3    H223492   4.120   5.371   2.073
  645TIP3   OH223493   2.920   3.205   2.548
  645TIP3    H123494   2.868   3.212   2.628
  645TIP3    H223495   2.968   3.123   2.558
  646TIP3   OH223496   4.641   6.602   0.502
  646TIP3    H123497   4.674   6.688   0.473
  646TIP3    H223498   4.656   6.602   0.596
  647TIP3   OH223499   5.787   0.900   6.628
  647TIP3    H123500   5.818   0.981   6.587
  647TIP3    H223501   5.795   0.834   6.560
  648TIP3   OH223502   6.328   3.915   0.999
  648TIP3    H123503   6.363   3.867   1.074
  648TIP3    H223504   6.265   3.854   0.960
  649TIP3   OH223505   5.775   3.698   0.067
  649TIP3    H123506   5.751   3.788   0.049
  649TIP3    H223507   5.726   3.676   0.147
  650TIP3   OH223508   1.435   5.411   0.751
  650TIP3    H123509   1.449   5.448   0.838
  650TIP3    H223510   1.497   5.458   0.695
  651TIP3   OH223511   0.618   5.780   8.860
  651TIP3    H123512   0.613   5.758   0.039
  651TIP3    H223513   0.688   5.724   8.825
  652TIP3   OH223514   2.247   1.671   7.638
  652TIP3    H123515   2.333   1.712   7.634
  652TIP3    H223516   2.186   1.745   7.647
  653TIP3   OH223517   6.562   3.672   0.806
  653TIP3    H123518   6.632   3.608   0.794
  653TIP3    H223519   6.510   3.637   0.878
  654TIP3   OH223520   0.966   1.857   0.425
  654TIP3    H123521   1.047   1.904   0.443
  654TIP3    H223522   0.933   1.896   0.344
  655TIP3   OH223523   4.856   2.709   7.815
  655TIP3    H123524   4.778   2.688   7.866
  655TIP3    H223525   4.829   2.697   7.724
  656TIP3   OH223526   4.364   5.344   1.656
  656TIP3    H123527   4.307   5.276   1.691
  656TIP3    H223528   4.388   5.313   1.569
  657TIP3   OH223529   3.103   5.559   7.397
  657TIP3    H123530   3.120   5.652   7.404
  657TIP3    H223531   3.071   5.546   7.308
  658TIP3   OH223532   4.007   0.711   0.717
  658TIP3    H123533   3.913   0.729   0.708
  658TIP3    H223534   4.029   0.660   0.640
  659TIP3   OH223535   5.983   4.233   8.776
  659TIP3    H123536   5.890   4.255   8.783
  659TIP3    H223537   6.016   4.239   8.866
  660TIP3   OH223538   1.740   6.512   6.502
  660TIP3    H123539   1.818   6.486   6.454
  660TIP3    H223540   1.772   6.571   6.571
  661TIP3   OH223541   3.645   5.156   0.375
  661TIP3    H123542   3.687   5.231   0.416
  661TIP3    H223543   3.665   5.083   0.434
  662TIP3   OH223544   3.361   4.911   8.442
  662TIP3    H123545   3.384   4.871   8.358
  662TIP3    H223546   3.442   4.909   8.493
  663TIP3   OH223547   5.297   1.639   0.587
  663TIP3    H123548   5.309   1.658   0.494
  663TIP3    H223549   5.319   1.546   0.595
  664TIP3   OH223550   0.353   4.527   1.231
  664TIP3    H123551   0.388   4.441   1.254
  664TIP3    H223552   0.338   4.522   1.136
  665TIP3   OH223553   0.464   5.303   1.715
  665TIP3    H123554   0.534   5.247   1.683
  665TIP3    H223555   0.472   5.299   1.811
  666TIP3   OH223556   4.966   4.436   2.104
  666TIP3    H123557   5.007   4.369   2.049
  666TIP3    H223558   5.000   4.419   2.192
  667TIP3   OH223559   4.853   0.102   2.753
  667TIP3    H123560   4.858   0.197   2.749
  667TIP3    H223561   4.796   0.077   2.680
  668TIP3   OH223562   1.452   1.222   1.009
  668TIP3    H123563   1.503   1.302   0.994
  668TIP3    H223564   1.507   1.152   0.974
  669TIP3   OH223565   5.215   5.293   2.304
  669TIP3    H123566   5.225   5.382   2.337
  669TIP3    H223567   5.296   5.248   2.329
  670TIP3   OH223568   4.737   2.483   7.214
  670TIP3    H123569   4.665   2.485   7.152
  670TIP3    H223570   4.804   2.429   7.171
  671TIP3   OH223571   0.527   5.685   8.150
  671TIP3    H123572   0.547   5.619   8.217
  671TIP3    H223573   0.574   5.655   8.073
  672TIP3   OH223574   3.131   1.576   0.895
  672TIP3    H123575   3.218   1.612   0.884
  672TIP3    H223576   3.145   1.481   0.900
  673TIP3   OH223577   4.514   5.161   8.003
  673TIP3    H123578   4.438   5.126   8.050
  673TIP3    H223579   4.478   5.197   7.922
  674TIP3   OH223580   0.001   3.935   0.145
  674TIP3    H123581   6.744   3.862   0.197
  674TIP3    H223582   0.091   3.910   0.124
  675TIP3   OH223583   5.467   5.362   7.342
  675TIP3    H123584   5.404   5.299   7.309
  675TIP3    H223585   5.487   5.419   7.267
  676TIP3   OH223586   5.596   3.243   2.211
  676TIP3    H123587   5.639   3.191   2.279
  676TIP3    H223588   5.667   3.277   2.158
  677TIP3   OH223589   0.498   1.703   8.793
  677TIP3    H123590   0.483   1.797   8.798
  677TIP3    H223591   0.437   1.672   8.725
  678TIP3   OH223592   3.313   1.965   1.010
  678TIP3    H123593   3.316   2.060   0.994
  678TIP3    H223594   3.318   1.926   0.923
  679TIP3   OH223595   1.799   0.199   0.483
  679TIP3    H123596   1.857   0.163   0.551
  679TIP3    H223597   1.769   0.122   0.435
  680TIP3   OH223598   0.476   6.745   6.089
  680TIP3    H123599   0.482   6.687   6.164
  680TIP3    H223600   0.435   6.693   6.020
  681TIP3   OH223601   3.568   1.738   2.618
  681TIP3    H123602   3.638   1.705   2.562
  681TIP3    H223603   3.598   1.824   2.647
  682TIP3   OH223604   3.256   4.170   7.710
  682TIP3    H123605   3.207   4.252   7.703
  682TIP3    H223606   3.241   4.125   7.627
  683TIP3   OH223607   1.455   4.776   8.276
  683TIP3    H123608   1.548   4.785   8.256
  683TIP3    H223609   1.410   4.798   8.194
  684TIP3   OH223610   0.719   6.534   0.905
  684TIP3    H123611   0.651   6.539   0.839
  684TIP3    H223612   0.706   6.449   0.947
  685TIP3   OH223613   2.893   2.768   7.826
  685TIP3    H123614   2.848   2.806   7.750
  685TIP3    H223615   2.827   2.767   7.895
  686TIP3   OH223616   0.599   1.221   7.468
  686TIP3    H123617   0.693   1.223   7.450
  686TIP3    H223618   0.591   1.164   7.545
  687TIP3   OH223619   0.884   6.164   7.801
  687TIP3    H123620   0.898   6.201   7.888
  687TIP3    H223621   0.968   6.173   7.757
  688TIP3   OH223622   2.536   1.885   6.559
  688TIP3    H123623   2.590   1.807   6.575
  688TIP3    H223624   2.556   1.943   6.633
  689TIP3   OH223625   5.241   6.620   8.316
  689TIP3    H123626   5.300   6.545   8.310
  689TIP3    H223627   5.297   6.692   8.347
  690TIP3   OH223628   3.468   3.432   1.528
  690TIP3    H123629   3.413   3.398   1.457
  690TIP3    H223630   3.556   3.402   1.506
  691TIP3   OH223631   4.181   6.692   7.465
  691TIP3    H123632   4.167   6.666   7.374
  691TIP3    H223633   4.258   6.643   7.493
  692TIP3   OH223634   3.442   4.140   1.943
  692TIP3    H123635   3.388   4.146   1.864
  692TIP3    H223636   3.514   4.083   1.919
  693TIP3   OH223637   0.571   3.088   1.148
  693TIP3    H123638   0.521   3.031   1.207
  693TIP3    H223639   0.533   3.073   1.062
  694TIP3   OH223640   2.776   3.423   8.433
  694TIP3    H123641   2.729   3.387   8.509
  694TIP3    H223642   2.730   3.505   8.413
  695TIP3   OH223643   3.989   0.204   0.174
  695TIP3    H123644   3.998   0.120   0.128
  695TIP3    H223645   3.897   0.205   0.202
  696TIP3   OH223646   1.908   0.616   6.905
  696TIP3    H123647   1.992   0.571   6.894
  696TIP3    H223648   1.870   0.576   6.982
  697TIP3   OH223649   0.164   4.923   0.297
  697TIP3    H123650   0.218   4.845   0.284
  697TIP3    H223651   0.167   4.968   0.212
  698TIP3   OH223652   4.411   4.637   0.530
  698TIP3    H123653   4.390   4.634   0.624
  698TIP3    H223654   4.495   4.682   0.525
  699TIP3   OH223655   3.249   0.072   0.756
  699TIP3    H123656   3.316   0.071   0.824
  699TIP3    H223657   3.274   0.001   0.697
  700TIP3   OH223658   6.300   3.212   0.298
  700TIP3    H123659   6.276   3.254   0.381
  700TIP3    H223660   6.221   3.220   0.244
  701TIP3   OH223661   3.300   0.365   0.344
  701TIP3    H123662   3.341   0.412   0.417
  701TIP3    H223663   3.269   0.434   0.286
  702TIP3   OH223664   0.921   6.325   1.984
  702TIP3    H123665   0.917   6.401   2.042
  702TIP3    H223666   0.936   6.251   2.042
  703TIP3   OH223667   2.288   6.135   2.661
  703TIP3    H123668   2.371   6.087   2.667
  703TIP3    H223669   2.239   6.107   2.738
  704TIP3   OH223670   2.932   3.940   1.735
  704TIP3    H123671   2.883   3.876   1.786
  704TIP3    H223672   2.926   3.908   1.645
  705TIP3   OH223673   2.417   1.452   0.030
  705TIP3    H123674   2.448   1.515   8.877
  705TIP3    H223675   2.479   1.461   0.102
  706TIP3   OH223676   5.522   5.592   1.162
  706TIP3    H123677   5.472   5.603   1.081
  706TIP3    H223678   5.605   5.635   1.144
  707TIP3   OH223679   6.399   3.663   8.568
  707TIP3    H123680   6.397   3.690   8.660
  707TIP3    H223681   6.418   3.569   8.571
  708TIP3   OH223682   4.254   1.851   8.035
  708TIP3    H123683   4.279   1.775   8.086
  708TIP3    H223684   4.307   1.846   7.956
  709TIP3   OH223685   5.458   4.417   7.580
  709TIP3    H123686   5.424   4.444   7.665
  709TIP3    H223687   5.409   4.338   7.558
  710TIP3   OH223688   5.935   6.280   7.413
  710TIP3    H123689   5.926   6.264   7.319
  710TIP3    H223690   5.845   6.285   7.445
  711TIP3   OH223691   4.733   6.296   7.260
  711TIP3    H123692   4.682   6.299   7.179
  711TIP3    H223693   4.779   6.212   7.256
  712TIP3   OH223694   1.895   0.450   7.991
  712TIP3    H123695   1.871   0.366   8.031
  712TIP3    H223696   1.847   0.450   7.908
  713TIP3   OH223697   0.547   4.275   0.228
  713TIP3    H123698   0.616   4.271   0.294
  713TIP3    H223699   0.589   4.247   0.147
  714TIP3   OH223700   2.539   0.840   7.480
  714TIP3    H123701   2.488   0.770   7.439
  714TIP3    H223702   2.626   0.832   7.442
  715TIP3   OH223703   3.856   4.130   0.858
  715TIP3    H123704   3.871   4.136   0.764
  715TIP3    H223705   3.927   4.181   0.897
  716TIP3   OH223706   0.471   6.431   0.448
  716TIP3    H123707   0.381   6.401   0.457
  716TIP3    H223708   0.478   6.458   0.357
  717TIP3   OH223709   3.592   2.527   0.518
  717TIP3    H123710   3.687   2.523   0.528
  717TIP3    H223711   3.559   2.544   0.607
  718TIP3   OH223712   1.540   3.934   8.665
  718TIP3    H123713   1.530   3.863   8.728
  718TIP3    H223714   1.487   3.906   8.590
  719TIP3   OH223715   0.424   3.526   8.800
  719TIP3    H123716   0.445   3.471   8.876
  719TIP3    H223717   0.398   3.464   8.732
  720TIP3   OH223718   0.211   0.994   0.265
  720TIP3    H123719   0.213   0.901   0.243
  720TIP3    H223720   0.214   0.997   0.360
  721TIP3   OH223721   6.376   0.716   0.782
  721TIP3    H123722   6.312   0.665   0.832
  721TIP3    H223723   6.388   0.666   0.701
  722TIP3   OH223724   1.939   4.416   2.644
  722TIP3    H123725   1.917   4.323   2.639
  722TIP3    H223726   2.035   4.418   2.643
  723TIP3   OH223727   2.080   3.375   7.321
  723TIP3    H123728   2.119   3.351   7.236
  723TIP3    H223729   2.138   3.335   7.386
  724TIP3   OH223730   3.584   3.984   8.735
  724TIP3    H123731   3.530   4.034   8.674
  724TIP3    H223732   3.536   3.987   8.818
  725TIP3   OH223733   5.197   5.548   8.581
  725TIP3    H123734   5.183   5.632   8.625
  725TIP3    H223735   5.275   5.562   8.527
  726TIP3   OH223736   1.468   3.690   7.574
  726TIP3    H123737   1.484   3.595   7.573
  726TIP3    H223738   1.381   3.699   7.612
  727TIP3   OH223739   5.362   1.318   7.374
  727TIP3    H123740   5.442   1.370   7.383
  727TIP3    H223741   5.291   1.382   7.373
  728TIP3   OH223742   1.857   6.571   1.732
  728TIP3    H123743   1.771   6.564   1.690
  728TIP3    H223744   1.919   6.575   1.659
  729TIP3   OH223745   6.050   6.167   8.125
  729TIP3    H123746   5.987   6.211   8.068
  729TIP3    H223747   6.133   6.173   8.078
  730TIP3   OH223748   1.191   3.418   8.662
  730TIP3    H123749   1.128   3.434   8.591
  730TIP3    H223750   1.209   3.504   8.698
  731TIP3   OH223751   5.926   5.025   2.451
  731TIP3    H123752   5.859   4.991   2.392
  731TIP3    H223753   5.972   4.947   2.483
  732TIP3   OH223754   3.215   3.054   1.261
  732TIP3    H123755   3.127   3.023   1.241
  732TIP3    H223756   3.249   3.086   1.177
  733TIP3   OH223757   2.313   1.562   0.925
  733TIP3    H123758   2.394   1.613   0.931
  733TIP3    H223759   2.338   1.473   0.947
  734TIP3   OH223760   4.279   0.624   7.025
  734TIP3    H123761   4.252   0.543   7.068
  734TIP3    H223762   4.197   0.663   6.994
  735TIP3   OH223763   4.070   0.125   8.499
  735TIP3    H123764   4.052   0.195   8.562
  735TIP3    H223765   4.110   0.170   8.425
  736TIP3   OH223766   1.707   4.349   1.721
  736TIP3    H123767   1.650   4.326   1.793
  736TIP3    H223768   1.649   4.353   1.644
  737TIP3   OH223769   2.599   3.864   0.140
  737TIP3    H123770   2.534   3.806   0.102
  737TIP3    H223771   2.572   3.875   0.231
  738TIP3   OH223772   4.401   4.159   8.476
  738TIP3    H123773   4.324   4.163   8.419
  738TIP3    H223774   4.462   4.101   8.430
  739TIP3   OH223775   5.970   2.034   7.204
  739TIP3    H123776   5.903   1.968   7.224
  739TIP3    H223777   5.945   2.109   7.258
  740TIP3   OH223778   3.214   5.388   8.899
  740TIP3    H123779   3.194   5.318   0.048
  740TIP3    H223780   3.199   5.468   0.035
  741TIP3   OH223781   2.118   3.817   7.523
  741TIP3    H123782   2.149   3.732   7.495
  741TIP3    H223783   2.025   3.804   7.542
  742TIP3   OH223784   4.019   3.908   0.956
  742TIP3    H123785   4.060   3.884   0.873
  742TIP3    H223786   3.932   3.868   0.952
  743TIP3   OH223787   0.463   3.000   8.772
  743TIP3    H123788   0.538   3.040   8.816
  743TIP3    H223789   0.500   2.959   8.693
  744TIP3   OH223790   1.582   6.771   7.380
  744TIP3    H123791   1.546   6.753   7.292
  744TIP3    H223792   1.677   6.773   7.367
  745TIP3   OH223793   6.157   1.386   7.969
  745TIP3    H123794   6.178   1.465   8.020
  745TIP3    H223795   6.163   1.315   8.033
  746TIP3   OH223796   2.020   3.417   8.712
  746TIP3    H123797   2.030   3.387   8.621
  746TIP3    H223798   1.931   3.451   8.717
  747TIP3   OH223799   5.363   0.813   6.684
  747TIP3    H123800   5.368   0.760   6.764
  747TIP3    H223801   5.444   0.792   6.637
  748TIP3   OH223802   0.365   2.967   0.144
  748TIP3    H123803   0.345   3.016   0.063
  748TIP3    H223804   0.343   3.028   0.214
  749TIP3   OH223805   5.265   0.245   8.407
  749TIP3    H123806   5.210   0.231   8.329
  749TIP3    H223807   5.213   0.302   8.463
  750TIP3   OH223808   4.840   3.833   7.980
  750TIP3    H123809   4.839   3.928   7.994
  750TIP3    H223810   4.918   3.817   7.926
  751TIP3   OH223811   3.114   2.052   8.179
  751TIP3    H123812   3.208   2.038   8.180
  751TIP3    H223813   3.101   2.136   8.224
  752TIP3   OH223814   3.760   0.178   8.282
  752TIP3    H123815   3.736   0.213   8.368
  752TIP3    H223816   3.769   0.256   8.226
  753TIP3   OH223817   0.552   5.777   8.570
  753TIP3    H123818   0.520   5.752   8.657
  753TIP3    H223819   0.608   5.853   8.586
  754TIP3   OH223820   4.130   1.014   7.289
  754TIP3    H123821   4.161   1.033   7.201
  754TIP3    H223822   4.157   1.090   7.340
  755TIP3   OH223823   5.941   2.803   6.452
  755TIP3    H123824   5.979   2.852   6.525
  755TIP3    H223825   6.011   2.800   6.386
  756TIP3   OH223826   1.786   5.952   1.136
  756TIP3    H123827   1.726   5.946   1.211
  756TIP3    H223828   1.868   5.916   1.170
  757TIP3   OH223829   1.580   2.083   2.129
  757TIP3    H123830   1.587   2.052   2.039
  757TIP3    H223831   1.671   2.100   2.156
  758TIP3   OH223832   5.463   0.393   8.257
  758TIP3    H123833   5.408   0.380   8.181
  758TIP3    H223834   5.434   0.326   8.320
  759TIP3   OH223835   2.742   5.120   8.266
  759TIP3    H123836   2.717   5.120   8.358
  759TIP3    H223837   2.838   5.121   8.267
  760TIP3   OH223838   5.398   1.936   8.716
  760TIP3    H123839   5.381   1.984   8.634
  760TIP3    H223840   5.329   1.965   8.775
  761TIP3   OH223841   5.531   6.760   8.190
  761TIP3    H123842   5.615   6.760   8.237
  761TIP3    H223843   5.530   0.067   8.143
  762TIP3   OH223844   2.506   3.312   0.468
  762TIP3    H123845   2.504   3.237   0.407
  762TIP3    H223846   2.543   3.383   0.416
  763TIP3   OH223847   2.423   6.472   0.807
  763TIP3    H123848   2.465   6.470   0.893
  763TIP3    H223849   2.365   6.396   0.807
  764TIP3   OH223850   0.425   0.117   2.014
  764TIP3    H123851   0.387   0.032   2.035
  764TIP3    H223852   0.385   0.141   1.931
  765TIP3   OH223853   6.418   0.615   7.634
  765TIP3    H123854   6.450   0.552   7.699
  765TIP3    H223855   6.450   0.582   7.551
  766TIP3   OH223856   6.696   1.244   1.000
  766TIP3    H123857   6.659   1.224   0.914
  766TIP3    H223858   6.638   1.310   1.036
  767TIP3   OH223859   6.607   5.065   7.808
  767TIP3    H123860   6.578   4.976   7.785
  767TIP3    H223861   6.527   5.116   7.810
  768TIP3   OH223862   4.515   4.260   0.109
  768TIP3    H123863   4.508   4.179   0.158
  768TIP3    H223864   4.447   4.253   0.041
  769TIP3   OH223865   4.679   4.793   0.776
  769TIP3    H123866   4.605   4.812   0.719
  769TIP3    H223867   4.750   4.846   0.742
  770TIP3   OH223868   1.017   3.955   8.416
  770TIP3    H123869   1.048   4.019   8.352
  770TIP3    H223870   0.946   3.909   8.372
  771TIP3   OH223871   2.518   5.677   7.625
  771TIP3    H123872   2.607   5.649   7.649
  771TIP3    H223873   2.507   5.761   7.670
  772TIP3   OH223874   5.782   6.315   2.513
  772TIP3    H123875   5.788   6.370   2.435
  772TIP3    H223876   5.865   6.268   2.516
  773TIP3   OH223877   5.005   6.618   8.589
  773TIP3    H123878   5.092   6.641   8.556
  773TIP3    H223879   4.975   6.697   8.634
  774TIP3   OH223880   3.422   6.424   1.154
  774TIP3    H123881   3.500   6.475   1.133
  774TIP3    H223882   3.388   6.397   1.069
  775TIP3   OH223883   4.932   6.708   7.167
  775TIP3    H123884   4.871   6.698   7.094
  775TIP3    H223885   4.901   0.009   7.213
  776TIP3   OH223886   6.456   4.444   6.486
  776TIP3    H123887   6.523   4.508   6.463
  776TIP3    H223888   6.399   4.490   6.548
  777TIP3   OH223889   5.969   1.881   0.873
  777TIP3    H123890   5.989   1.829   0.950
  777TIP3    H223891   6.051   1.884   0.823
  778TIP3   OH223892   3.532   4.854   1.434
  778TIP3    H123893   3.570   4.807   1.360
  778TIP3    H223894   3.458   4.800   1.462
  779TIP3   OH223895   1.592   4.529   0.988
  779TIP3    H123896   1.608   4.562   0.900
  779TIP3    H223897   1.513   4.575   1.017
  780TIP3   OH223898   6.365   5.181   7.278
  780TIP3    H123899   6.295   5.138   7.228
  780TIP3    H223900   6.429   5.112   7.295
  781TIP3   OH223901   6.688   3.555   8.641
  781TIP3    H123902   6.618   3.497   8.614
  781TIP3    H223903   6.683   3.629   8.581
  782TIP3   OH223904   1.351   4.175   7.236
  782TIP3    H123905   1.344   4.268   7.261
  782TIP3    H223906   1.291   4.130   7.295
  783TIP3   OH223907   0.786   6.547   8.015
  783TIP3    H123908   0.725   6.492   8.063
  783TIP3    H223909   0.834   6.595   8.082
  784TIP3   OH223910   4.749   5.330   6.899
  784TIP3    H123911   4.803   5.259   6.865
  784TIP3    H223912   4.732   5.305   6.990
  785TIP3   OH223913   1.617   4.833   1.302
  785TIP3    H123914   1.665   4.839   1.219
  785TIP3    H223915   1.636   4.744   1.333
  786TIP3   OH223916   5.912   2.085   1.047
  786TIP3    H123917   5.843   2.071   1.112
  786TIP3    H223918   5.909   2.008   0.991
  787TIP3   OH223919   5.113   3.302   0.918
  787TIP3    H123920   5.171   3.303   0.994
  787TIP3    H223921   5.036   3.253   0.947
  788TIP3   OH223922   1.322   1.196   0.122
  788TIP3    H123923   1.392   1.194   0.187
  788TIP3    H223924   1.271   1.275   0.143
  789TIP3   OH223925   5.671   0.264   0.398
  789TIP3    H123926   5.703   0.354   0.385
  789TIP3    H223927   5.717   0.213   0.331
  790TIP3   OH223928   2.869   4.672   7.556
  790TIP3    H123929   2.833   4.617   7.626
  790TIP3    H223930   2.844   4.761   7.581
  791TIP3   OH223931   4.077   2.117   7.418
  791TIP3    H123932   3.983   2.130   7.416
  791TIP3    H223933   4.111   2.193   7.465
  792TIP3   OH223934   0.279   3.060   8.055
  792TIP3    H123935   0.283   3.129   7.989
  792TIP3    H223936   0.362   3.013   8.046
  793TIP3   OH223937   4.452   5.151   6.842
  793TIP3    H123938   4.542   5.120   6.838
  793TIP3    H223939   4.414   5.129   6.757
  794TIP3   OH223940   5.981   5.226   2.225
  794TIP3    H123941   5.969   5.159   2.292
  794TIP3    H223942   5.941   5.304   2.263
  795TIP3   OH223943   4.749   0.638   1.900
  795TIP3    H123944   4.825   0.682   1.864
  795TIP3    H223945   4.776   0.611   1.988
  796TIP3   OH223946   1.309   2.130   2.078
  796TIP3    H123947   1.399   2.131   2.110
  796TIP3    H223948   1.255   2.131   2.157
  797TIP3   OH223949   0.695   5.144   1.737
  797TIP3    H123950   0.711   5.113   1.647
  797TIP3    H223951   0.707   5.066   1.791
  798TIP3   OH223952   3.529   2.040   0.451
  798TIP3    H123953   3.557   1.979   0.382
  798TIP3    H223954   3.600   2.104   0.457
  799TIP3   OH223955   5.125   4.711   8.314
  799TIP3    H123956   5.113   4.802   8.341
  799TIP3    H223957   5.041   4.670   8.333
  800TIP3   OH223958   2.195   5.594   6.831
  800TIP3    H123959   2.259   5.646   6.782
  800TIP3    H223960   2.246   5.523   6.870
  801TIP3   OH223961   5.505   0.661   1.347
  801TIP3    H123962   5.436   0.595   1.354
  801TIP3    H223963   5.575   0.629   1.403
  802TIP3   OH223964   4.306   4.654   8.597
  802TIP3    H123965   4.388   4.647   8.646
  802TIP3    H223966   4.263   4.568   8.609
  803TIP3   OH223967   1.759   4.778   1.044
  803TIP3    H123968   1.708   4.715   0.992
  803TIP3    H223969   1.840   4.732   1.064
  804TIP3   OH223970   2.112   0.086   5.894
  804TIP3    H123971   2.202   0.116   5.884
  804TIP3    H223972   2.117   0.013   5.955
  805TIP3   OH223973   0.756   1.168   8.722
  805TIP3    H123974   0.828   1.139   8.664
  805TIP3    H223975   0.681   1.176   8.663
  806TIP3   OH223976   4.378   5.365   8.222
  806TIP3    H123977   4.379   5.280   8.178
  806TIP3    H223978   4.428   5.423   8.163
  807TIP3   OH223979   0.959   0.005   7.689
  807TIP3    H123980   1.038   6.745   7.728
  807TIP3    H223981   0.973   0.099   7.689
  808TIP3   OH223982   4.918   5.300   8.584
  808TIP3    H123983   4.979   5.237   8.547
  808TIP3    H223984   4.973   5.357   8.638
  809TIP3   OH223985   0.779   3.489   7.293
  809TIP3    H123986   0.779   3.422   7.361
  809TIP3    H223987   0.798   3.571   7.339
  810TIP3   OH223988   0.015   3.477   0.779
  810TIP3    H123989   0.071   3.408   0.815
  810TIP3    H223990   0.066   3.558   0.792
  811TIP3   OH223991   2.277   4.363   7.273
  811TIP3    H123992   2.315   4.279   7.296
  811TIP3    H223993   2.188   4.342   7.244
  812TIP3   OH223994   4.136   4.970   1.279
  812TIP3    H123995   4.058   4.977   1.224
  812TIP3    H223996   4.110   5.009   1.362
  813TIP3   OH223997   4.783   4.679   2.401
  813TIP3    H123998   4.833   4.731   2.337
  813TIP3    H223999   4.850   4.638   2.456
  814TIP3   OH224000   6.775   4.310   8.626
  814TIP3    H124001   6.750   4.258   8.549
  814TIP3    H224002   0.001   4.246   8.697
  815TIP3   OH224003   6.674   4.225   6.992
  815TIP3    H124004   6.654   4.242   7.084
  815TIP3    H224005   6.685   4.130   6.986
  816TIP3   OH224006   3.175   0.592   7.518
  816TIP3    H124007   3.156   0.583   7.611
  816TIP3    H224008   3.108   0.539   7.474
  817TIP3   OH224009   1.398   5.055   8.355
  817TIP3    H124010   1.460   4.983   8.345
  817TIP3    H224011   1.341   5.049   8.278
  818TIP3   OH224012   0.477   4.954   0.034
  818TIP3    H124013   0.526   4.978   8.869
  818TIP3    H224014   0.385   4.968   0.010
  819TIP3   OH224015   5.945   0.149   0.452
  819TIP3    H124016   5.903   0.223   0.408
  819TIP3    H224017   5.974   0.092   0.381
  820TIP3   OH224018   1.743   0.515   7.436
  820TIP3    H124019   1.787   0.569   7.502
  820TIP3    H224020   1.806   0.511   7.364
  821TIP3   OH224021   6.578   6.369   0.479
  821TIP3    H124022   6.623   6.342   0.399
  821TIP3    H224023   6.627   6.446   0.510
  822TIP3   OH224024   3.419   2.807   7.696
  822TIP3    H124025   3.400   2.714   7.711
  822TIP3    H224026   3.477   2.831   7.769
  823TIP3   OH224027   3.679   3.423   6.716
  823TIP3    H124028   3.712   3.341   6.753
  823TIP3    H224029   3.622   3.459   6.784
  824TIP3   OH224030   0.858   2.809   7.705
  824TIP3    H124031   0.949   2.818   7.676
  824TIP3    H224032   0.811   2.774   7.630
  825TIP3   OH224033   5.876   2.314   1.818
  825TIP3    H124034   5.904   2.373   1.747
  825TIP3    H224035   5.844   2.236   1.773
  826TIP3   OH224036   3.391   6.441   7.757
  826TIP3    H124037   3.305   6.420   7.720
  826TIP3    H224038   3.371   6.493   7.835
  827TIP3   OH224039   3.925   6.053   8.699
  827TIP3    H124040   3.909   5.970   8.656
  827TIP3    H224041   3.946   6.114   8.628
  828TIP3   OH224042   5.437   5.658   6.755
  828TIP3    H124043   5.414   5.597   6.825
  828TIP3    H224044   5.492   5.724   6.797
  829TIP3   OH224045   2.572   4.025   6.327
  829TIP3    H124046   2.612   3.938   6.332
  829TIP3    H224047   2.585   4.052   6.236
  830TIP3   OH224048   6.714   2.731   7.196
  830TIP3    H124049   6.663   2.653   7.176
  830TIP3    H224050   6.674   2.800   7.144
  831TIP3   OH224051   6.004   6.123   0.981
  831TIP3    H124052   5.952   6.056   0.938
  831TIP3    H224053   5.943   6.168   1.038
  832TIP3   OH224054   4.736   6.073   8.470
  832TIP3    H124055   4.646   6.063   8.500
  832TIP3    H224056   4.730   6.134   8.397
  833TIP3   OH224057   1.415   2.882   0.670
  833TIP3    H124058   1.494   2.829   0.681
  833TIP3    H224059   1.345   2.830   0.708
  834TIP3   OH224060   4.407   3.240   7.205
  834TIP3    H124061   4.434   3.155   7.239
  834TIP3    H224062   4.312   3.239   7.210
  835TIP3   OH224063   6.489   2.743   1.412
  835TIP3    H124064   6.428   2.816   1.423
  835TIP3    H224065   6.484   2.695   1.495
  836TIP3   OH224066   4.874   6.069   8.019
  836TIP3    H124067   4.939   6.003   7.997
  836TIP3    H224068   4.830   6.089   7.936
  837TIP3   OH224069   5.586   4.367   8.389
  837TIP3    H124070   5.566   4.348   8.297
  837TIP3    H224071   5.520   4.431   8.416
  838TIP3   OH224072   2.573   3.096   2.532
  838TIP3    H124073   2.515   3.068   2.462
  838TIP3    H224074   2.634   3.023   2.542
  839TIP3   OH224075   3.609   3.326   8.824
  839TIP3    H124076   3.626   3.298   0.001
  839TIP3    H224077   3.571   3.413   8.832
  840TIP3   OH224078   3.685   1.375   8.152
  840TIP3    H124079   3.777   1.391   8.175
  840TIP3    H224080   3.687   1.358   8.058
  841TIP3   OH224081   0.637   5.166   6.902
  841TIP3    H124082   0.621   5.207   6.817
  841TIP3    H224083   0.668   5.238   6.958
  842TIP3   OH224084   2.575   3.050   6.674
  842TIP3    H124085   2.543   3.129   6.630
  842TIP3    H224086   2.660   3.074   6.710
  843TIP3   OH224087   1.388   2.027   8.256
  843TIP3    H124088   1.460   2.042   8.195
  843TIP3    H224089   1.378   2.110   8.302
  844TIP3   OH224090   5.589   0.811   7.957
  844TIP3    H124091   5.553   0.725   7.934
  844TIP3    H224092   5.557   0.869   7.888
  845TIP3   OH224093   4.515   0.185   0.339
  845TIP3    H124094   4.429   0.143   0.347
  845TIP3    H224095   4.519   0.214   0.248
  846TIP3   OH224096   2.258   5.258   7.781
  846TIP3    H124097   2.237   5.208   7.702
  846TIP3    H224098   2.330   5.211   7.822
  847TIP3   OH224099   1.229   4.851   0.518
  847TIP3    H124100   1.199   4.761   0.508
  847TIP3    H224101   1.285   4.867   0.443
  848TIP3   OH224102   4.655   3.848   1.086
  848TIP3    H124103   4.634   3.789   1.014
  848TIP3    H224104   4.748   3.868   1.074
  849TIP3   OH224105   2.779   6.599   7.830
  849TIP3    H124106   2.824   6.517   7.808
  849TIP3    H224107   2.725   6.617   7.753
  850TIP3   OH224108   0.371   4.493   0.924
  850TIP3    H124109   0.342   4.405   0.949
  850TIP3    H224110   0.360   4.496   0.829
  851TIP3   OH224111   4.583   0.827   1.720
  851TIP3    H124112   4.666   0.790   1.751
  851TIP3    H224113   4.591   0.826   1.624
  852TIP3   OH224114   2.380   0.315   0.076
  852TIP3    H124115   2.349   0.294   8.902
  852TIP3    H224116   2.474   0.296   0.073
  853TIP3   OH224117   2.571   5.313   7.577
  853TIP3    H124118   2.652   5.361   7.563
  853TIP3    H224119   2.521   5.327   7.496
  854TIP3   OH224120   4.637   4.770   2.182
  854TIP3    H124121   4.670   4.730   2.262
  854TIP3    H224122   4.545   4.742   2.177
  855TIP3   OH224123   6.370   0.337   0.508
  855TIP3    H124124   6.362   0.251   0.549
  855TIP3    H224125   6.398   0.319   0.418
  856TIP3   OH224126   1.439   2.326   0.722
  856TIP3    H124127   1.362   2.317   0.777
  856TIP3    H224128   1.455   2.238   0.687
  857TIP3   OH224129   5.961   4.295   1.385
  857TIP3    H124130   5.871   4.272   1.405
  857TIP3    H224131   5.965   4.390   1.399
  858TIP3   OH224132   4.796   6.759   0.091
  858TIP3    H124133   4.819   6.673   0.127
  858TIP3    H224134   4.815   0.044   0.161
  859TIP3   OH224135   0.578   3.070   8.169
  859TIP3    H124136   0.657   3.099   8.216
  859TIP3    H224137   0.590   2.976   8.160
  860TIP3   OH224138   1.876   3.734   7.439
  860TIP3    H124139   1.833   3.819   7.438
  860TIP3    H224140   1.826   3.681   7.500
  861TIP3   OH224141   5.348   6.055   2.557
  861TIP3    H124142   5.397   6.137   2.558
  861TIP3    H224143   5.291   6.063   2.481
  862TIP3   OH224144   6.024   2.189   1.308
  862TIP3    H124145   6.111   2.218   1.280
  862TIP3    H224146   5.966   2.260   1.281
  863TIP3   OH224147   5.280   4.341   8.558
  863TIP3    H124148   5.371   4.322   8.582
  863TIP3    H224149   5.240   4.374   8.638
  864TIP3   OH224150   5.855   0.177   1.389
  864TIP3    H124151   5.819   0.228   1.462
  864TIP3    H224152   5.794   0.104   1.379
  865TIP3   OH224153   0.952   4.114   8.708
  865TIP3    H124154   1.047   4.119   8.698
  865TIP3    H224155   0.919   4.101   8.619
  866TIP3   OH224156   5.769   3.401   8.235
  866TIP3    H124157   5.826   3.381   8.308
  866TIP3    H224158   5.694   3.342   8.245
  867TIP3   OH224159   2.571   0.630   2.464
  867TIP3    H124160   2.653   0.677   2.478
  867TIP3    H224161   2.589   0.541   2.495
  868TIP3   OH224162   0.538   6.059   0.221
  868TIP3    H124163   0.515   6.027   0.134
  868TIP3    H224164   0.455   6.077   0.263
  869TIP3   OH224165   1.082   5.508   8.110
  869TIP3    H124166   1.020   5.567   8.153
  869TIP3    H224167   1.162   5.517   8.162
  870TIP3   OH224168   4.714   4.616   0.183
  870TIP3    H124169   4.730   4.538   0.130
  870TIP3    H224170   4.718   4.688   0.121
  871TIP3   OH224171   1.612   1.074   0.692
  871TIP3    H124172   1.617   1.050   0.785
  871TIP3    H224173   1.603   1.169   0.692
  872TIP3   OH224174   6.051   3.808   7.951
  872TIP3    H124175   6.000   3.798   8.032
  872TIP3    H224176   6.027   3.895   7.919
  873TIP3   OH224177   3.420   0.409   8.644
  873TIP3    H124178   3.352   0.424   8.710
  873TIP3    H224179   3.381   0.343   8.585
  874TIP3   OH224180   4.365   3.818   7.156
  874TIP3    H124181   4.345   3.842   7.066
  874TIP3    H224182   4.299   3.752   7.178
  875TIP3   OH224183   4.640   6.282   0.695
  875TIP3    H124184   4.699   6.234   0.753
  875TIP3    H224185   4.633   6.369   0.736
  876TIP3   OH224186   6.375   0.212   1.249
  876TIP3    H124187   6.348   0.120   1.245
  876TIP3    H224188   6.436   0.222   1.176
  877TIP3   OH224189   6.707   1.595   1.308
  877TIP3    H124190   6.722   1.682   1.271
  877TIP3    H224191   6.680   1.612   1.398
  878TIP3   OH224192   1.896   3.955   7.034
  878TIP3    H124193   1.908   4.034   6.982
  878TIP3    H224194   1.849   3.984   7.112
  879TIP3   OH224195   2.488   1.617   8.686
  879TIP3    H124196   2.500   1.529   8.652
  879TIP3    H224197   2.473   1.671   8.608
  880TIP3   OH224198   4.399   0.871   0.542
  880TIP3    H124199   4.380   0.779   0.521
  880TIP3    H224200   4.438   0.906   0.462
  881TIP3   OH224201   2.952   0.130   8.332
  881TIP3    H124202   2.860   0.126   8.307
  881TIP3    H224203   2.996   0.069   8.273
  882TIP3   OH224204   3.897   6.651   0.831
  882TIP3    H124205   3.834   6.640   0.902
  882TIP3    H224206   3.848   6.628   0.752
  883TIP3   OH224207   2.069   2.303   8.311
  883TIP3    H124208   2.123   2.366   8.263
  883TIP3    H224209   1.989   2.351   8.333
  884TIP3   OH224210   3.787   6.551   8.606
  884TIP3    H124211   3.714   6.611   8.590
  884TIP3    H224212   3.748   6.476   8.651
  885TIP3   OH224213   5.514   6.690   2.502
  885TIP3    H124214   5.421   6.684   2.524
  885TIP3    H224215   5.517   6.684   2.407
  886TIP3   OH224216   4.315   0.903   8.905
  886TIP3    H124217   4.400   0.871   8.874
  886TIP3    H224218   4.275   0.827   0.033
  887TIP3   OH224219   5.187   2.425   1.130
  887TIP3    H124220   5.109   2.455   1.084
  887TIP3    H224221   5.178   2.330   1.133
  888TIP3   OH224222   0.026   1.785   1.146
  888TIP3    H124223   0.055   1.775   1.055
  888TIP3    H224224   6.708   1.771   1.142
  889TIP3   OH224225   3.388   4.487   1.331
  889TIP3    H124226   3.405   4.562   1.388
  889TIP3    H224227   3.359   4.418   1.391
  890TIP3   OH224228   0.238   3.369   2.196
  890TIP3    H124229   0.228   3.459   2.163
  890TIP3    H224230   0.287   3.380   2.278
  891TIP3   OH224231   6.739   2.439   1.791
  891TIP3    H124232   6.774   2.515   1.840
  891TIP3    H224233   0.035   2.376   1.791
  892TIP3   OH224234   3.639   2.947   1.318
  892TIP3    H124235   3.617   3.024   1.370
  892TIP3    H224236   3.566   2.939   1.256
  893TIP3   OH224237   3.492   5.553   1.520
  893TIP3    H124238   3.448   5.626   1.476
  893TIP3    H224239   3.462   5.475   1.471
  894TIP3   OH224240   6.751   3.174   1.212
  894TIP3    H124241   6.667   3.144   1.179
  894TIP3    H224242   6.770   3.253   1.161
  895TIP3   OH224243   4.052   1.335   1.011
  895TIP3    H124244   4.114   1.264   0.993
  895TIP3    H224245   4.070   1.400   0.943
  896TIP3   OH224246   2.056   6.541   0.814
  896TIP3    H124247   2.025   6.576   0.897
  896TIP3    H224248   2.001   6.583   0.748
  897TIP3   OH224249   1.230   3.979   0.826
  897TIP3    H124250   1.169   3.984   0.753
  897TIP3    H224251   1.189   3.919   0.889
  898TIP3   OH224252   4.456   6.461   1.655
  898TIP3    H124253   4.454   6.525   1.726
  898TIP3    H224254   4.372   6.416   1.660
  899TIP3   OH224255   0.800   0.931   6.826
  899TIP3    H124256   0.858   0.874   6.777
  899TIP3    H224257   0.786   1.007   6.769
  900TIP3   OH224258   6.511   3.029   1.705
  900TIP3    H124259   6.484   3.111   1.747
  900TIP3    H224260   6.569   3.057   1.634
  901TIP3   OH224261   6.745   5.757   6.513
  901TIP3    H124262   6.767   5.748   6.606
  901TIP3    H224263   6.673   5.820   6.511
  902TIP3   OH224264   0.889   0.818   7.114
  902TIP3    H124265   0.862   0.838   7.025
  902TIP3    H224266   0.983   0.797   7.107
  903TIP3   OH224267   0.655   2.680   0.402
  903TIP3    H124268   0.575   2.659   0.451
  903TIP3    H224269   0.643   2.771   0.374
  904TIP3   OH224270   0.758   3.565   8.635
  904TIP3    H124271   0.708   3.513   8.571
  904TIP3    H224272   0.710   3.647   8.643
  905TIP3   OH224273   1.307   0.401   7.018
  905TIP3    H124274   1.353   0.318   7.017
  905TIP3    H224275   1.376   0.468   7.018
  906TIP3   OH224276   0.829   5.933   0.878
  906TIP3    H124277   0.765   5.880   0.926
  906TIP3    H224278   0.777   5.981   0.814
  907TIP3   OH224279   6.408   6.161   2.398
  907TIP3    H124280   6.368   6.246   2.418
  907TIP3    H224281   6.390   6.147   2.305
  908TIP3   OH224282   3.664   4.539   7.000
  908TIP3    H124283   3.600   4.495   6.943
  908TIP3    H224284   3.747   4.530   6.953
  909TIP3   OH224285   3.744   5.441   0.153
  909TIP3    H124286   3.788   5.523   0.128
  909TIP3    H224287   3.652   5.456   0.134
  910TIP3   OH224288   2.517   3.050   2.805
  910TIP3    H124289   2.561   2.966   2.814
  910TIP3    H224290   2.507   3.062   2.710
  911TIP3   OH224291   3.832   0.208   7.025
  911TIP3    H124292   3.821   0.256   7.107
  911TIP3    H224293   3.812   0.117   7.047
  912TIP3   OH224294   5.366   6.597   7.187
  912TIP3    H124295   5.357   6.543   7.109
  912TIP3    H224296   5.320   6.549   7.255
  913TIP3   OH224297   4.385   2.375   7.368
  913TIP3    H124298   4.418   2.315   7.435
  913TIP3    H224299   4.387   2.324   7.287
  914TIP3   OH224300   2.589   5.694   1.963
  914TIP3    H124301   2.553   5.782   1.952
  914TIP3    H224302   2.673   5.708   2.006
  915TIP3   OH224303   2.676   3.536   0.448
  915TIP3    H124304   2.771   3.548   0.449
  915TIP3    H224305   2.651   3.533   0.541
  916TIP3   OH224306   2.029   1.033   1.136
  916TIP3    H124307   2.120   1.037   1.106
  916TIP3    H224308   2.035   1.042   1.231
  917TIP3   OH224309   3.013   1.393   8.387
  917TIP3    H124310   3.049   1.434   8.465
  917TIP3    H224311   2.930   1.354   8.416
  918TIP3   OH224312   6.128   4.385   8.284
  918TIP3    H124313   6.101   4.414   8.371
  918TIP3    H224314   6.223   4.394   8.284
  919TIP3   OH224315   0.126   3.373   2.612
  919TIP3    H124316   0.056   3.425   2.652
  919TIP3    H224317   0.084   3.291   2.587
  920TIP3   OH224318   4.938   3.221   8.649
  920TIP3    H124319   4.992   3.277   8.594
  920TIP3    H224320   4.928   3.140   8.599
  921TIP3   OH224321   2.462   2.375   8.557
  921TIP3    H124322   2.484   2.282   8.547
  921TIP3    H224323   2.528   2.408   8.618
  922TIP3   OH224324   4.209   5.189   0.937
  922TIP3    H124325   4.303   5.207   0.941
  922TIP3    H224326   4.169   5.265   0.979
  923TIP3   OH224327   1.720   0.359   0.733
  923TIP3    H124328   1.802   0.376   0.778
  923TIP3    H224329   1.688   0.445   0.708
  924TIP3   OH224330   3.706   6.527   7.665
  924TIP3    H124331   3.684   6.613   7.628
  924TIP3    H224332   3.690   6.536   7.759
  925TIP3   OH224333   0.296   0.279   7.751
  925TIP3    H124334   0.359   0.274   7.679
  925TIP3    H224335   0.326   0.352   7.805
  926TIP3   OH224336   5.413   3.917   6.713
  926TIP3    H124337   5.441   3.829   6.689
  926TIP3    H224338   5.340   3.903   6.773
  927TIP3   OH224339   5.332   4.698   0.789
  927TIP3    H124340   5.391   4.765   0.823
  927TIP3    H224341   5.247   4.742   0.783
  928TIP3   OH224342   4.083   0.486   2.917
  928TIP3    H124343   4.050   0.482   3.006
  928TIP3    H224344   4.131   0.569   2.913
  929TIP3   OH224345   3.258   1.962   0.155
  929TIP3    H124346   3.351   1.976   0.133
  929TIP3    H224347   3.253   1.980   0.249
  930TIP3   OH224348   3.891   2.991   8.496
  930TIP3    H124349   3.808   2.989   8.448
  930TIP3    H224350   3.866   3.013   8.586
  931TIP3   OH224351   1.152   0.082   6.966
  931TIP3    H124352   1.133   0.162   6.917
  931TIP3    H224353   1.165   0.015   6.899
  932TIP3   OH224354   1.304   6.561   6.981
  932TIP3    H124355   1.330   6.471   6.960
  932TIP3    H224356   1.306   6.607   6.898
  933TIP3   OH224357   6.171   2.498   7.854
  933TIP3    H124358   6.175   2.547   7.771
  933TIP3    H224359   6.204   2.411   7.831
  934TIP3   OH224360   0.708   4.299   7.972
  934TIP3    H124361   0.779   4.267   7.916
  934TIP3    H224362   0.691   4.228   8.033
  935TIP3   OH224363   4.286   2.594   1.888
  935TIP3    H124364   4.303   2.687   1.904
  935TIP3    H224365   4.278   2.555   1.975
  936TIP3   OH224366   1.403   5.869   8.029
  936TIP3    H124367   1.350   5.792   8.006
  936TIP3    H224368   1.357   5.942   7.987
  937TIP3   OH224369   6.676   2.180   7.711
  937TIP3    H124370   6.616   2.254   7.719
  937TIP3    H224371   6.718   2.191   7.626
  938TIP3   OH224372   2.449   5.697   8.225
  938TIP3    H124373   2.365   5.651   8.223
  938TIP3    H224374   2.491   5.668   8.306
  939TIP3   OH224375   3.471   2.861   2.579
  939TIP3    H124376   3.380   2.836   2.589
  939TIP3    H224377   3.469   2.954   2.556
  940TIP3   OH224378   2.091   3.975   6.610
  940TIP3    H124379   2.065   4.048   6.554
  940TIP3    H224380   2.011   3.948   6.654
  941TIP3   OH224381   2.410   3.691   1.638
  941TIP3    H124382   2.421   3.631   1.712
  941TIP3    H224383   2.363   3.640   1.572
  942TIP3   OH224384   4.451   2.106   1.365
  942TIP3    H124385   4.397   2.064   1.299
  942TIP3    H224386   4.430   2.199   1.357
  943TIP3   OH224387   4.627   5.315   8.831
  943TIP3    H124388   4.649   5.264   8.754
  943TIP3    H224389   4.605   5.402   8.797
  944TIP3   OH224390   1.179   1.814   0.896
  944TIP3    H124391   1.089   1.840   0.917
  944TIP3    H224392   1.170   1.747   0.829
  945TIP3   OH224393   0.515   0.947   0.468
  945TIP3    H124394   0.518   0.860   0.428
  945TIP3    H224395   0.599   0.987   0.446
  946TIP3   OH224396   3.879   3.843   0.225
  946TIP3    H124397   3.860   3.849   0.131
  946TIP3    H224398   3.817   3.778   0.258
  947TIP3   OH224399   0.967   5.203   1.478
  947TIP3    H124400   0.929   5.116   1.485
  947TIP3    H224401   1.022   5.199   1.399
  948TIP3   OH224402   6.214   6.482   1.815
  948TIP3    H124403   6.218   6.417   1.885
  948TIP3    H224404   6.296   6.471   1.767
  949TIP3   OH224405   5.747   3.572   0.520
  949TIP3    H124406   5.813   3.514   0.481
  949TIP3    H224407   5.698   3.517   0.580
  950TIP3   OH224408   5.187   3.002   8.107
  950TIP3    H124409   5.168   3.074   8.167
  950TIP3    H224410   5.244   3.040   8.041
  951TIP3   OH224411   1.428   0.061   1.851
  951TIP3    H124412   1.380   6.756   1.860
  951TIP3    H224413   1.398   0.097   1.767
  952TIP3   OH224414   1.901   6.501   6.759
  952TIP3    H124415   1.953   6.568   6.715
  952TIP3    H224416   1.964   6.448   6.807
  953TIP3   OH224417   5.711   4.294   8.833
  953TIP3    H124418   5.736   4.377   8.875
  953TIP3    H224419   5.703   4.232   8.906
  954TIP3   OH224420   3.931   3.245   0.981
  954TIP3    H124421   3.953   3.152   0.971
  954TIP3    H224422   3.948   3.283   0.895
  955TIP3   OH224423   0.301   2.486   2.129
  955TIP3    H124424   0.348   2.403   2.123
  955TIP3    H224425   0.295   2.504   2.223
  956TIP3   OH224426   1.188   4.838   7.616
  956TIP3    H124427   1.112   4.865   7.669
  956TIP3    H224428   1.152   4.829   7.528
  957TIP3   OH224429   1.293   1.226   2.378
  957TIP3    H124430   1.360   1.278   2.335
  957TIP3    H224431   1.214   1.242   2.327
  958TIP3   OH224432   5.029   6.469   0.444
  958TIP3    H124433   5.040   6.507   0.356
  958TIP3    H224434   5.059   6.379   0.435
  959TIP3   OH224435   3.324   2.922   0.374
  959TIP3    H124436   3.371   2.953   0.451
  959TIP3    H224437   3.393   2.903   0.310
  960TIP3   OH224438   2.161   2.577   8.711
  960TIP3    H124439   2.172   2.638   8.638
  960TIP3    H224440   2.119   2.629   8.779
  961TIP3   OH224441   1.959   0.762   7.902
  961TIP3    H124442   2.006   0.840   7.873
  961TIP3    H224443   2.027   0.705   7.939
  962TIP3   OH224444   0.467   0.058   7.299
  962TIP3    H124445   0.480   0.038   7.392
  962TIP3    H224446   0.529   0.129   7.281
  963TIP3   OH224447   4.538   4.683   7.340
  963TIP3    H124448   4.625   4.719   7.325
  963TIP3    H224449   4.478   4.750   7.304
  964TIP3   OH224450   3.659   6.608   1.495
  964TIP3    H124451   3.685   6.519   1.472
  964TIP3    H224452   3.606   6.597   1.574
  965TIP3   OH224453   3.229   1.487   1.202
  965TIP3    H124454   3.279   1.430   1.144
  965TIP3    H224455   3.153   1.514   1.150
  966TIP3   OH224456   1.866   3.976   8.738
  966TIP3    H124457   1.820   3.979   8.654
  966TIP3    H224458   1.817   3.911   8.789
  967TIP3   OH224459   2.413   1.962   1.696
  967TIP3    H124460   2.399   1.948   1.602
  967TIP3    H224461   2.331   2.000   1.727
  968TIP3   OH224462   3.037   1.649   7.708
  968TIP3    H124463   3.096   1.706   7.757
  968TIP3    H224464   3.007   1.584   7.773
  969TIP3   OH224465   4.693   0.408   1.729
  969TIP3    H124466   4.775   0.413   1.680
  969TIP3    H224467   4.703   0.473   1.799
  970TIP3   OH224468   3.795   3.918   8.886
  970TIP3    H124469   3.739   3.953   8.817
  970TIP3    H224470   3.799   3.987   0.038
  971TIP3   OH224471   1.747   5.289   2.428
  971TIP3    H124472   1.785   5.235   2.498
  971TIP3    H224473   1.675   5.336   2.470
  972TIP3   OH224474   4.257   1.152   8.839
  972TIP3    H124475   4.283   1.060   8.847
  972TIP3    H224476   4.252   1.183   0.016
  973TIP3   OH224477   3.284   6.087   0.412
  973TIP3    H124478   3.212   6.068   0.353
  973TIP3    H224479   3.299   6.005   0.460
  974TIP3   OH224480   4.059   6.388   7.145
  974TIP3    H124481   4.134   6.447   7.153
  974TIP3    H224482   4.026   6.378   7.234
  975TIP3   OH224483   3.097   2.146   1.497
  975TIP3    H124484   3.136   2.059   1.499
  975TIP3    H224485   3.166   2.203   1.463
  976TIP3   OH224486   0.724   3.987   7.545
  976TIP3    H124487   0.718   3.978   7.640
  976TIP3    H224488   0.692   3.903   7.511
  977TIP3   OH224489   1.855   5.805   0.147
  977TIP3    H124490   1.910   5.867   0.098
  977TIP3    H224491   1.837   5.848   0.230
  978TIP3   OH224492   1.666   3.831   8.011
  978TIP3    H124493   1.576   3.804   7.995
  978TIP3    H224494   1.701   3.853   7.924
  979TIP3   OH224495   5.831   3.125   1.762
  979TIP3    H124496   5.738   3.124   1.740
  979TIP3    H224497   5.836   3.179   1.841
  980TIP3   OH224498   3.058   3.247   0.096
  980TIP3    H124499   3.101   3.180   0.148
  980TIP3    H224500   3.101   3.242   0.010
  981TIP3   OH224501   3.722   4.963   2.114
  981TIP3    H124502   3.808   4.923   2.100
  981TIP3    H224503   3.665   4.890   2.138
  982TIP3   OH224504   0.001   1.907   7.198
  982TIP3    H124505   6.775   1.937   7.289
  982TIP3    H224506   6.734   1.977   7.149
  983TIP3   OH224507   1.120   3.941   6.486
  983TIP3    H124508   1.043   3.909   6.438
  983TIP3    H224509   1.168   3.862   6.510
  984TIP3   OH224510   1.761   3.909   1.616
  984TIP3    H124511   1.723   3.837   1.667
  984TIP3    H224512   1.721   3.900   1.529
  985TIP3   OH224513   3.682   2.766   1.943
  985TIP3    H124514   3.674   2.676   1.910
  985TIP3    H224515   3.599   2.783   1.986
  986TIP3   OH224516   4.534   1.677   8.650
  986TIP3    H124517   4.498   1.750   8.702
  986TIP3    H224518   4.516   1.702   8.560
  987TIP3   OH224519   6.640   6.275   8.835
  987TIP3    H124520   6.591   6.264   8.753
  987TIP3    H224521   6.578   6.317   8.894
  988TIP3   OH224522   2.182   6.690   6.094
  988TIP3    H124523   2.271   6.708   6.124
  988TIP3    H224524   2.171   6.595   6.106
  989TIP3   OH224525   5.326   1.911   7.490
  989TIP3    H124526   5.248   1.904   7.435
  989TIP3    H224527   5.296   1.890   7.578
  990TIP3   OH224528   4.406   1.025   7.103
  990TIP3    H124529   4.322   1.026   7.057
  990TIP3    H224530   4.387   1.067   7.187
  991TIP3   OH224531   0.268   3.172   8.866
  991TIP3    H124532   0.315   3.128   8.796
  991TIP3    H224533   0.246   3.258   8.830
  992TIP3   OH224534   4.345   4.278   7.580
  992TIP3    H124535   4.325   4.205   7.640
  992TIP3    H224536   4.260   4.320   7.566
  993TIP3   OH224537   0.990   2.663   1.166
  993TIP3    H124538   1.060   2.663   1.232
  993TIP3    H224539   0.924   2.723   1.201
  994TIP3   OH224540   3.888   6.100   7.688
  994TIP3    H124541   3.900   6.129   7.779
  994TIP3    H224542   3.892   6.180   7.636
  995TIP3   OH224543   3.166   6.314   7.567
  995TIP3    H124544   3.095   6.250   7.573
  995TIP3    H224545   3.167   6.341   7.476
  996TIP3   OH224546   6.536   4.555   2.324
  996TIP3    H124547   6.539   4.462   2.346
  996TIP3    H224548   6.612   4.568   2.267
  997TIP3   OH224549   6.109   5.741   8.159
  997TIP3    H124550   6.104   5.828   8.197
  997TIP3    H224551   6.175   5.749   8.089
  998TIP3   OH224552   0.434   5.891   7.902
  998TIP3    H124553   0.509   5.947   7.882
  998TIP3    H224554   0.374   5.903   7.828
  999TIP3   OH224555   3.233   1.751   8.088
  999TIP3    H124556   3.313   1.777   8.043
  999TIP3    H224557   3.261   1.678   8.145
 1000TIP3   OH224558   1.773   2.098   6.780
 1000TIP3    H124559   1.816   2.180   6.757
 1000TIP3    H224560   1.706   2.122   6.844
 1001TIP3   OH224561   3.360   5.511   7.504
 1001TIP3    H124562   3.419   5.565   7.452
 1001TIP3    H224563   3.297   5.476   7.440
 1002TIP3   OH224564   3.545   2.328   7.573
 1002TIP3    H124565   3.603   2.267   7.527
 1002TIP3    H224566   3.482   2.271   7.617
 1003TIP3   OH224567   4.038   3.432   1.217
 1003TIP3    H124568   4.087   3.438   1.134
 1003TIP3    H224569   4.104   3.444   1.285
 1004TIP3   OH224570   2.986   5.361   7.788
 1004TIP3    H124571   2.969   5.337   7.697
 1004TIP3    H224572   3.073   5.402   7.786
 1005TIP3   OH224573   3.028   4.691   0.179
 1005TIP3    H124574   3.067   4.612   0.217
 1005TIP3    H224575   3.057   4.762   0.236
 1006TIP3   OH224576   1.643   4.367   8.335
 1006TIP3    H124577   1.554   4.356   8.302
 1006TIP3    H224578   1.644   4.455   8.373
 1007TIP3   OH224579   2.119   6.746   1.574
 1007TIP3    H124580   2.110   0.003   1.485
 1007TIP3    H224581   2.097   6.653   1.566
 1008TIP3   OH224582   0.227   6.287   1.767
 1008TIP3    H124583   0.175   6.259   1.842
 1008TIP3    H224584   0.247   6.379   1.784
 1009TIP3   OH224585   0.236   1.696   0.294
 1009TIP3    H124586   0.301   1.637   0.255
 1009TIP3    H224587   0.268   1.784   0.274
 1010TIP3   OH224588   0.061   6.532   1.233
 1010TIP3    H124589   0.065   6.602   1.168
 1010TIP3    H224590   0.131   6.472   1.208
 1011TIP3   OH224591   0.367   4.712   7.859
 1011TIP3    H124592   0.416   4.740   7.781
 1011TIP3    H224593   0.422   4.647   7.901
 1012TIP3   OH224594   6.140   4.929   0.005
 1012TIP3    H124595   6.152   5.004   8.860
 1012TIP3    H224596   6.229   4.894   0.017
 1013TIP3   OH224597   2.039   5.407   7.260
 1013TIP3    H124598   2.007   5.337   7.318
 1013TIP3    H224599   2.027   5.372   7.172
 1014TIP3   OH224600   3.017   1.926   7.930
 1014TIP3    H124601   3.006   2.007   7.980
 1014TIP3    H224602   2.970   1.942   7.848
 1015TIP3   OH224603   1.996   5.535   8.432
 1015TIP3    H124604   1.940   5.607   8.458
 1015TIP3    H224605   1.940   5.458   8.438
 1016TIP3   OH224606   1.209   5.211   1.631
 1016TIP3    H124607   1.174   5.189   1.717
 1016TIP3    H224608   1.134   5.206   1.572
 1017TIP3   OH224609   5.925   2.091   6.533
 1017TIP3    H124610   5.913   2.100   6.627
 1017TIP3    H224611   5.874   2.014   6.509
 1018TIP3   OH224612   5.597   2.318   1.628
 1018TIP3    H124613   5.647   2.237   1.635
 1018TIP3    H224614   5.640   2.367   1.557
 1019TIP3   OH224615   5.869   0.473   8.485
 1019TIP3    H124616   5.896   0.535   8.417
 1019TIP3    H224617   5.935   0.404   8.483
 1020TIP3   OH224618   5.890   0.336   6.595
 1020TIP3    H124619   5.822   0.369   6.653
 1020TIP3    H224620   5.859   0.358   6.507
 1021TIP3   OH224621   0.846   0.079   1.547
 1021TIP3    H124622   0.757   0.080   1.514
 1021TIP3    H224623   0.846   0.014   1.617
 1022TIP3   OH224624   3.264   1.455   8.269
 1022TIP3    H124625   3.310   1.495   8.343
 1022TIP3    H224626   3.175   1.439   8.303
 1023TIP3   OH224627   4.828   1.881   8.690
 1023TIP3    H124628   4.910   1.855   8.731
 1023TIP3    H224629   4.774   1.914   8.762
 1024TIP3   OH224630   2.696   2.792   6.697
 1024TIP3    H124631   2.636   2.867   6.688
 1024TIP3    H224632   2.670   2.733   6.626
 1025TIP3   OH224633   1.226   5.032   8.761
 1025TIP3    H124634   1.177   4.954   8.733
 1025TIP3    H224635   1.160   5.089   8.800
 1026TIP3   OH224636   3.146   0.770   8.385
 1026TIP3    H124637   3.213   0.738   8.445
 1026TIP3    H224638   3.187   0.843   8.338
 1027TIP3   OH224639   5.806   5.413   0.597
 1027TIP3    H124640   5.842   5.340   0.546
 1027TIP3    H224641   5.848   5.491   0.560
 1028TIP3   OH224642   3.840   3.531   0.172
 1028TIP3    H124643   3.910   3.473   0.143
 1028TIP3    H224644   3.765   3.473   0.185
 1029TIP3   OH224645   4.506   1.892   1.957
 1029TIP3    H124646   4.432   1.944   1.989
 1029TIP3    H224647   4.541   1.850   2.036
 1030TIP3   OH224648   5.074   5.563   0.355
 1030TIP3    H124649   5.010   5.507   0.399
 1030TIP3    H224650   5.021   5.623   0.303
 1031TIP3   OH224651   5.841   4.291   7.207
 1031TIP3    H124652   5.841   4.201   7.174
 1031TIP3    H224653   5.771   4.293   7.272
 1032TIP3   OH224654   6.519   2.525   6.825
 1032TIP3    H124655   6.587   2.590   6.846
 1032TIP3    H224656   6.460   2.570   6.765
 1033TIP3   OH224657   1.032   3.102   7.085
 1033TIP3    H124658   1.082   3.084   7.005
 1033TIP3    H224659   1.089   3.160   7.136
 1034TIP3   OH224660   3.868   0.411   8.615
 1034TIP3    H124661   3.906   0.449   8.695
 1034TIP3    H224662   3.882   0.479   8.548
 1035TIP3   OH224663   6.416   4.450   8.284
 1035TIP3    H124664   6.445   4.396   8.210
 1035TIP3    H224665   6.493   4.455   8.341
 1036TIP3   OH224666   6.149   0.975   0.895
 1036TIP3    H124667   6.131   0.950   0.985
 1036TIP3    H224668   6.233   1.021   0.899
 1037TIP3   OH224669   3.281   2.470   1.991
 1037TIP3    H124670   3.308   2.532   2.058
 1037TIP3    H224671   3.233   2.402   2.039
 1038TIP3   OH224672   0.517   1.943   8.272
 1038TIP3    H124673   0.558   1.971   8.190
 1038TIP3    H224674   0.518   2.022   8.327
 1039TIP3   OH224675   0.100   5.825   0.855
 1039TIP3    H124676   0.073   5.917   0.851
 1039TIP3    H224677   0.044   5.781   0.791
 1040TIP3   OH224678   4.204   0.292   0.306
 1040TIP3    H124679   4.243   0.205   0.307
 1040TIP3    H224680   4.112   0.278   0.284
 1041TIP3   OH224681   3.947   2.409   8.432
 1041TIP3    H124682   3.924   2.432   8.522
 1041TIP3    H224683   4.029   2.360   8.440
 1042TIP3   OH224684   4.042   1.803   0.185
 1042TIP3    H124685   4.091   1.790   0.266
 1042TIP3    H224686   3.996   1.886   0.198
 1043TIP3   OH224687   0.679   3.613   8.087
 1043TIP3    H124688   0.685   3.671   8.012
 1043TIP3    H224689   0.667   3.526   8.050
 1044TIP3   OH224690   3.680   2.657   7.069
 1044TIP3    H124691   3.684   2.572   7.025
 1044TIP3    H224692   3.621   2.710   7.015
 1045TIP3   OH224693   3.637   4.336   0.991
 1045TIP3    H124694   3.571   4.346   1.058
 1045TIP3    H224695   3.628   4.245   0.961
 1046TIP3   OH224696   3.977   3.035   0.033
 1046TIP3    H124697   4.012   2.991   0.110
 1046TIP3    H224698   4.049   3.038   8.885
 1047TIP3   OH224699   0.172   5.344   8.607
 1047TIP3    H124700   0.191   5.433   8.636
 1047TIP3    H224701   0.116   5.355   8.530
 1048TIP3   OH224702   2.388   2.432   7.063
 1048TIP3    H124703   2.345   2.494   7.004
 1048TIP3    H224704   2.421   2.362   7.006
 1049TIP3   OH224705   3.715   5.237   1.026
 1049TIP3    H124706   3.700   5.246   0.932
 1049TIP3    H224707   3.803   5.272   1.039
 1050TIP3   OH224708   6.259   0.285   7.882
 1050TIP3    H124709   6.245   0.204   7.833
 1050TIP3    H224710   6.330   0.329   7.835
 1051TIP3   OH224711   0.205   1.167   0.989
 1051TIP3    H124712   0.256   1.185   1.068
 1051TIP3    H224713   0.117   1.202   1.009
 1052TIP3   OH224714   4.934   2.971   7.947
 1052TIP3    H124715   5.013   2.972   8.000
 1052TIP3    H224716   4.919   2.879   7.927
 1053TIP3   OH224717   6.455   3.631   6.168
 1053TIP3    H124718   6.524   3.660   6.227
 1053TIP3    H224719   6.385   3.696   6.179
 1054TIP3   OH224720   5.994   3.414   1.829
 1054TIP3    H124721   5.969   3.490   1.880
 1054TIP3    H224722   6.029   3.352   1.893
 1055TIP3   OH224723   2.250   2.937   8.269
 1055TIP3    H124724   2.343   2.953   8.255
 1055TIP3    H224725   2.237   2.847   8.237
 1056TIP3   OH224726   4.418   2.579   1.185
 1056TIP3    H124727   4.399   2.662   1.141
 1056TIP3    H224728   4.353   2.518   1.150
 1057TIP3   OH224729   6.681   2.074   0.697
 1057TIP3    H124730   6.742   2.137   0.658
 1057TIP3    H224731   6.738   2.008   0.736
 1058TIP3   OH224732   4.005   0.608   7.916
 1058TIP3    H124733   4.034   0.687   7.961
 1058TIP3    H224734   4.058   0.538   7.956
 1059TIP3   OH224735   0.087   6.050   8.273
 1059TIP3    H124736   0.139   5.969   8.277
 1059TIP3    H224737   0.152   6.120   8.272
 1060TIP3   OH224738   6.438   5.078   8.701
 1060TIP3    H124739   6.371   5.018   8.671
 1060TIP3    H224740   6.398   5.125   8.774
 1061TIP3   OH224741   3.839   4.730   0.229
 1061TIP3    H124742   3.758   4.679   0.234
 1061TIP3    H224743   3.810   4.820   0.218
 1062TIP3   OH224744   1.519   5.096   7.993
 1062TIP3    H124745   1.448   5.160   7.987
 1062TIP3    H224746   1.597   5.148   8.013
 1063TIP3   OH224747   3.032   2.595   7.311
 1063TIP3    H124748   3.085   2.525   7.273
 1063TIP3    H224749   3.070   2.675   7.274
 1064TIP3   OH224750   3.475   3.447   8.476
 1064TIP3    H124751   3.544   3.442   8.411
 1064TIP3    H224752   3.468   3.540   8.497
 1065TIP3   OH224753   3.666   0.981   8.423
 1065TIP3    H124754   3.645   1.074   8.411
 1065TIP3    H224755   3.743   0.966   8.369
 1066TIP3   OH224756   0.517   3.191   2.477
 1066TIP3    H124757   0.602   3.174   2.517
 1066TIP3    H224758   0.521   3.149   2.392
 1067TIP3   OH224759   0.547   0.361   7.932
 1067TIP3    H124760   0.490   0.424   7.977
 1067TIP3    H224761   0.540   0.281   7.983
 1068TIP3   OH224762   0.728   0.710   0.524
 1068TIP3    H124763   0.671   0.699   0.600
 1068TIP3    H224764   0.759   0.622   0.504
 1069TIP3   OH224765   1.207   0.951   8.039
 1069TIP3    H124766   1.175   1.028   7.993
 1069TIP3    H224767   1.301   0.968   8.050
 1070TIP3   OH224768   6.703   2.870   8.592
 1070TIP3    H124769   6.737   2.799   8.539
 1070TIP3    H224770   6.685   2.831   8.677
 1071TIP3   OH224771   1.731   2.277   7.170
 1071TIP3    H124772   1.699   2.232   7.092
 1071TIP3    H224773   1.700   2.367   7.159
 1072TIP3   OH224774   0.598   5.461   8.618
 1072TIP3    H124775   0.686   5.439   8.647
 1072TIP3    H224776   0.540   5.418   8.680
 1073TIP3   OH224777   2.411   4.454   7.812
 1073TIP3    H124778   2.319   4.466   7.836
 1073TIP3    H224779   2.453   4.426   7.894
 1074TIP3   OH224780   6.547   4.003   8.190
 1074TIP3    H124781   6.479   3.978   8.254
 1074TIP3    H224782   6.524   3.954   8.111
 1075TIP3   OH224783   2.378   0.127   8.299
 1075TIP3    H124784   2.389   0.191   8.368
 1075TIP3    H224785   2.293   0.086   8.316
 1076TIP3   OH224786   1.027   4.566   1.727
 1076TIP3    H124787   0.943   4.586   1.768
 1076TIP3    H224788   1.067   4.651   1.709
 1077TIP3   OH224789   1.368   0.363   0.715
 1077TIP3    H124790   1.443   0.327   0.669
 1077TIP3    H224791   1.301   0.373   0.647
 1078TIP3   OH224792   1.074   2.140   0.428
 1078TIP3    H124793   1.146   2.093   0.472
 1078TIP3    H224794   1.009   2.152   0.497
 1079TIP3   OH224795   2.765   3.408   0.022
 1079TIP3    H124796   2.740   3.392   0.113
 1079TIP3    H224797   2.751   3.502   0.009
 1080TIP3   OH224798   1.751   5.917   8.577
 1080TIP3    H124799   1.672   5.886   8.622
 1080TIP3    H224800   1.814   5.934   8.647
 1081TIP3   OH224801   5.483   3.656   1.792
 1081TIP3    H124802   5.508   3.747   1.773
 1081TIP3    H224803   5.405   3.641   1.739
 1082TIP3   OH224804   1.852   6.119   1.645
 1082TIP3    H124805   1.895   6.138   1.728
 1082TIP3    H224806   1.871   6.195   1.590
 1083TIP3   OH224807   6.682   3.393   1.437
 1083TIP3    H124808   6.596   3.391   1.479
 1083TIP3    H224809   6.686   3.312   1.385
 1084TIP3   OH224810   2.766   1.712   8.797
 1084TIP3    H124811   2.671   1.701   8.794
 1084TIP3    H224812   2.783   1.751   8.883
 1085TIP3   OH224813   6.093   0.913   1.463
 1085TIP3    H124814   6.036   0.896   1.537
 1085TIP3    H224815   6.074   0.842   1.401
 1086TIP3   OH224816   1.425   6.087   8.565
 1086TIP3    H124817   1.441   6.167   8.515
 1086TIP3    H224818   1.491   6.088   8.635
 1087TIP3   OH224819   6.504   5.289   0.577
 1087TIP3    H124820   6.555   5.215   0.613
 1087TIP3    H224821   6.459   5.252   0.502
 1088TIP3   OH224822   5.402   3.963   1.651
 1088TIP3    H124823   5.326   3.983   1.598
 1088TIP3    H224824   5.371   3.970   1.741
 1089TIP3   OH224825   3.994   4.486   7.223
 1089TIP3    H124826   3.903   4.485   7.250
 1089TIP3    H224827   3.991   4.501   7.128
 1090TIP3   OH224828   1.073   1.887   1.558
 1090TIP3    H124829   1.019   1.930   1.492
 1090TIP3    H224830   1.057   1.794   1.547
 1091TIP3   OH224831   6.033   3.054   8.485
 1091TIP3    H124832   6.025   2.962   8.512
 1091TIP3    H224833   6.003   3.104   8.561
 1092TIP3   OH224834   2.809   1.739   8.542
 1092TIP3    H124835   2.888   1.792   8.543
 1092TIP3    H224836   2.783   1.733   8.634
 1093TIP3   OH224837   5.671   0.942   1.676
 1093TIP3    H124838   5.717   1.022   1.700
 1093TIP3    H224839   5.637   0.907   1.758
 1094TIP3   OH224840   4.643   4.112   1.444
 1094TIP3    H124841   4.581   4.111   1.517
 1094TIP3    H224842   4.729   4.110   1.486
 1095TIP3   OH224843   1.380   2.986   7.591
 1095TIP3    H124844   1.312   2.959   7.653
 1095TIP3    H224845   1.383   2.915   7.527
 1096TIP3   OH224846   6.492   6.285   8.621
 1096TIP3    H124847   6.438   6.357   8.588
 1096TIP3    H224848   6.566   6.280   8.561
 1097TIP3   OH224849   6.665   3.984   2.336
 1097TIP3    H124850   6.690   3.909   2.389
 1097TIP3    H224851   6.591   3.953   2.284
 1098TIP3   OH224852   1.641   1.643   0.845
 1098TIP3    H124853   1.581   1.569   0.840
 1098TIP3    H224854   1.595   1.708   0.897
 1099TIP3   OH224855   2.001   3.920   2.014
 1099TIP3    H124856   1.976   3.938   1.924
 1099TIP3    H224857   2.023   3.827   2.015
 1100TIP3   OH224858   1.113   4.813   1.686
 1100TIP3    H124859   1.117   4.866   1.606
 1100TIP3    H224860   1.156   4.866   1.753
 1101TIP3   OH224861   0.639   1.220   1.846
 1101TIP3    H124862   0.696   1.147   1.870
 1101TIP3    H224863   0.699   1.288   1.815
 1102TIP3   OH224864   4.506   6.487   7.343
 1102TIP3    H124865   4.587   6.445   7.316
 1102TIP3    H224866   4.526   6.526   7.428
 1103TIP3   OH224867   4.364   0.213   7.843
 1103TIP3    H124868   4.402   0.131   7.811
 1103TIP3    H224869   4.365   0.272   7.767
 1104TIP3   OH224870   2.734   4.091   8.498
 1104TIP3    H124871   2.823   4.062   8.482
 1104TIP3    H224872   2.742   4.183   8.521
 1105TIP3   OH224873   1.394   3.940   2.184
 1105TIP3    H124874   1.439   3.940   2.269
 1105TIP3    H224875   1.424   4.020   2.141
 1106TIP3   OH224876   1.821   1.201   7.441
 1106TIP3    H124877   1.773   1.270   7.395
 1106TIP3    H224878   1.863   1.246   7.514
 1107TIP3   OH224879   2.160   5.048   2.697
 1107TIP3    H124880   2.179   5.089   2.613
 1107TIP3    H224881   2.245   5.044   2.741
 1108TIP3   OH224882   3.242   6.534   2.426
 1108TIP3    H124883   3.322   6.508   2.471
 1108TIP3    H224884   3.191   6.454   2.418
 1109TIP3   OH224885   5.611   4.030   7.873
 1109TIP3    H124886   5.574   4.020   7.786
 1109TIP3    H224887   5.587   4.119   7.899
 1110TIP3   OH224888   2.471   2.419   8.095
 1110TIP3    H124889   2.405   2.414   8.163
 1110TIP3    H224890   2.555   2.415   8.142
 1111TIP3   OH224891   2.208   0.431   1.049
 1111TIP3    H124892   2.124   0.440   1.094
 1111TIP3    H224893   2.200   0.486   0.971
 1112TIP3   OH224894   1.546   1.805   1.293
 1112TIP3    H124895   1.467   1.792   1.345
 1112TIP3    H224896   1.525   1.878   1.235
 1113TIP3   OH224897   6.566   6.725   1.672
 1113TIP3    H124898   6.516   6.670   1.613
 1113TIP3    H224899   6.631   6.666   1.711
 1114TIP3   OH224900   6.527   4.836   8.134
 1114TIP3    H124901   6.560   4.926   8.140
 1114TIP3    H224902   6.534   4.814   8.041
 1115TIP3   OH224903   4.807   3.219   7.800
 1115TIP3    H124904   4.878   3.204   7.862
 1115TIP3    H224905   4.756   3.138   7.802
 1116TIP3   OH224906   3.163   2.586   0.470
 1116TIP3    H124907   3.212   2.625   0.397
 1116TIP3    H224908   3.075   2.573   0.436
 1117TIP3   OH224909   4.690   0.938   8.829
 1117TIP3    H124910   4.729   1.020   8.798
 1117TIP3    H224911   4.747   0.870   8.794
 1118TIP3   OH224912   3.488   0.085   7.385
 1118TIP3    H124913   3.576   0.067   7.418
 1118TIP3    H224914   3.458   0.160   7.436
 1119TIP3   OH224915   1.746   3.387   1.301
 1119TIP3    H124916   1.727   3.418   1.212
 1119TIP3    H224917   1.777   3.297   1.288
 1120TIP3   OH224918   6.634   3.059   0.703
 1120TIP3    H124919   6.603   3.143   0.736
 1120TIP3    H224920   6.592   3.050   0.617
 1121TIP3   OH224921   2.619   2.433   0.144
 1121TIP3    H124922   2.532   2.471   0.130
 1121TIP3    H224923   2.614   2.393   0.231
 1122TIP3   OH224924   6.371   6.067   2.110
 1122TIP3    H124925   6.340   5.983   2.077
 1122TIP3    H224926   6.457   6.047   2.147
 1123TIP3   OH224927   5.597   2.871   8.848
 1123TIP3    H124928   5.544   2.796   8.820
 1123TIP3    H224929   5.650   2.892   8.771
 1124TIP3   OH224930   1.949   4.668   2.496
 1124TIP3    H124931   2.031   4.637   2.534
 1124TIP3    H224932   1.884   4.601   2.520
 1125TIP3   OH224933   2.877   3.580   1.385
 1125TIP3    H124934   2.808   3.588   1.319
 1125TIP3    H224935   2.834   3.605   1.467
 1126TIP3   OH224936   2.614   1.964   1.503
 1126TIP3    H124937   2.670   2.040   1.520
 1126TIP3    H224938   2.580   1.939   1.589
 1127TIP3   OH224939   0.429   3.299   1.059
 1127TIP3    H124940   0.498   3.249   1.101
 1127TIP3    H224941   0.464   3.322   0.973
 1128TIP3   OH224942   5.123   5.806   0.683
 1128TIP3    H124943   5.179   5.812   0.606
 1128TIP3    H224944   5.047   5.859   0.661
 1129TIP3   OH224945   4.094   6.089   7.116
 1129TIP3    H124946   4.099   6.184   7.130
 1129TIP3    H224947   4.178   6.066   7.075
 1130TIP3   OH224948   2.240   6.518   2.772
 1130TIP3    H124949   2.312   6.581   2.778
 1130TIP3    H224950   2.161   6.571   2.783
 1131TIP3   OH224951   3.510   6.483   2.406
 1131TIP3    H124952   3.569   6.547   2.367
 1131TIP3    H224953   3.522   6.404   2.353
 1132TIP3   OH224954   0.874   5.708   1.374
 1132TIP3    H124955   0.967   5.685   1.384
 1132TIP3    H224956   0.858   5.701   1.280
 1133TIP3   OH224957   5.459   5.156   0.622
 1133TIP3    H124958   5.449   5.231   0.564
 1133TIP3    H224959   5.452   5.192   0.710
 1134TIP3   OH224960   4.689   0.274   0.800
 1134TIP3    H124961   4.623   0.208   0.782
 1134TIP3    H224962   4.744   0.236   0.869
 1135TIP3   OH224963   6.447   1.273   1.565
 1135TIP3    H124964   6.440   1.280   1.660
 1135TIP3    H224965   6.391   1.198   1.543
 1136TIP3   OH224966   4.099   4.352   8.419
 1136TIP3    H124967   4.023   4.298   8.441
 1136TIP3    H224968   4.122   4.396   8.501
 1137TIP3   OH224969   4.196   2.327   8.747
 1137TIP3    H124970   4.120   2.377   8.776
 1137TIP3    H224971   4.259   2.335   8.818
 1138TIP3   OH224972   3.054   5.892   7.779
 1138TIP3    H124973   3.060   5.971   7.726
 1138TIP3    H224974   3.098   5.824   7.727
 1139TIP3   OH224975   4.115   6.710   8.023
 1139TIP3    H124976   4.105   0.003   7.959
 1139TIP3    H224977   4.086   6.748   8.105
 1140TIP3   OH224978   5.834   6.774   8.793
 1140TIP3    H124979   5.885   6.697   8.819
 1140TIP3    H224980   5.784   0.021   8.871
 1141TIP3   OH224981   0.513   6.291   6.843
 1141TIP3    H124982   0.555   6.283   6.929
 1141TIP3    H224983   0.553   6.222   6.790
 1142TIP3   OH224984   5.736   0.159   7.801
 1142TIP3    H124985   5.752   0.216   7.876
 1142TIP3    H224986   5.799   0.189   7.735
 1143TIP3   OH224987   0.688   3.825   8.682
 1143TIP3    H124988   0.606   3.834   8.634
 1143TIP3    H224989   0.715   3.916   8.700
 1144TIP3   OH224990   3.012   3.861   0.703
 1144TIP3    H124991   3.017   3.899   0.616
 1144TIP3    H224992   2.918   3.842   0.715
 1145TIP3   OH224993   6.102   4.469   7.722
 1145TIP3    H124994   6.050   4.549   7.715
 1145TIP3    H224995   6.058   4.407   7.664
 1146TIP3   OH224996   1.560   5.447   2.554
 1146TIP3    H124997   1.573   5.540   2.572
 1146TIP3    H224998   1.468   5.431   2.573
 1147TIP3   OH224999   0.989   2.428   0.582
 1147TIP3    H125000   0.919   2.378   0.540
 1147TIP3    H225001   0.949   2.464   0.661
 1148TIP3   OH225002   6.171   1.047   0.026
 1148TIP3    H125003   6.158   0.976   8.877
 1148TIP3    H225004   6.099   1.108   0.008
 1149TIP3   OH225005   3.287   3.791   0.733
 1149TIP3    H125006   3.340   3.850   0.679
 1149TIP3    H225007   3.197   3.817   0.714
 1150TIP3   OH225008   3.305   4.583   7.230
 1150TIP3    H125009   3.255   4.577   7.148
 1150TIP3    H225010   3.251   4.537   7.295
 1151TIP3   OH225011   1.338   6.308   1.808
 1151TIP3    H125012   1.429   6.299   1.778
 1151TIP3    H225013   1.342   6.293   1.902
 1152TIP3   OH225014   5.750   2.648   6.271
 1152TIP3    H125015   5.780   2.724   6.320
 1152TIP3    H225016   5.670   2.677   6.227
 1153TIP3   OH225017   2.400   0.639   7.346
 1153TIP3    H125018   2.409   0.610   7.255
 1153TIP3    H225019   2.312   0.678   7.350
 1154TIP3   OH225020   3.234   3.075   0.860
 1154TIP3    H125021   3.302   3.015   0.830
 1154TIP3    H225022   3.241   3.151   0.801
 1155TIP3   OH225023   3.488   1.917   2.378
 1155TIP3    H125024   3.573   1.880   2.399
 1155TIP3    H225025   3.474   1.985   2.443
 1156TIP3   OH225026   2.446   1.817   6.939
 1156TIP3    H125027   2.445   1.883   6.869
 1156TIP3    H225028   2.507   1.854   7.005
 1157TIP3   OH225029   2.159   1.890   1.885
 1157TIP3    H125030   2.105   1.903   1.963
 1157TIP3    H225031   2.172   1.978   1.849
 1158TIP3   OH225032   0.650   0.236   2.113
 1158TIP3    H125033   0.649   0.291   2.035
 1158TIP3    H225034   0.589   0.165   2.094
 1159TIP3   OH225035   4.034   6.587   6.884
 1159TIP3    H125036   4.101   6.556   6.823
 1159TIP3    H225037   4.044   6.533   6.962
 1160TIP3   OH225038   0.946   6.208   1.526
 1160TIP3    H125039   0.897   6.274   1.478
 1160TIP3    H225040   1.033   6.246   1.537
 1161TIP3   OH225041   1.737   6.626   1.392
 1161TIP3    H125042   1.725   6.655   1.301
 1161TIP3    H225043   1.713   6.702   1.445
 1162TIP3   OH225044   4.820   3.381   0.074
 1162TIP3    H125045   4.822   3.385   0.169
 1162TIP3    H225046   4.894   3.435   0.046
 1163TIP3   OH225047   1.246   3.129   8.234
 1163TIP3    H125048   1.271   3.221   8.244
 1163TIP3    H225049   1.170   3.131   8.176
 1164TIP3   OH225050   2.057   3.258   0.019
 1164TIP3    H125051   2.124   3.221   8.874
 1164TIP3    H225052   2.009   3.320   8.878
 1165TIP3   OH225053   6.132   2.442   0.681
 1165TIP3    H125054   6.166   2.470   0.766
 1165TIP3    H225055   6.091   2.357   0.698
 1166TIP3   OH225056   1.820   0.546   1.526
 1166TIP3    H125057   1.743   0.551   1.469
 1166TIP3    H225058   1.873   0.476   1.488
 1167TIP3   OH225059   2.734   5.692   7.316
 1167TIP3    H125060   2.730   5.787   7.319
 1167TIP3    H225061   2.748   5.672   7.223
 1168TIP3   OH225062   1.160   2.215   6.832
 1168TIP3    H125063   1.098   2.242   6.899
 1168TIP3    H225064   1.241   2.196   6.880
 1169TIP3   OH225065   3.736   4.053   7.679
 1169TIP3    H125066   3.711   4.037   7.588
 1169TIP3    H225067   3.765   3.967   7.711
 1170TIP3   OH225068   6.279   2.652   6.402
 1170TIP3    H125069   6.232   2.732   6.379
 1170TIP3    H225070   6.257   2.590   6.333
 1171TIP3   OH225071   0.595   0.469   1.049
 1171TIP3    H125072   0.685   0.449   1.075
 1171TIP3    H225073   0.577   0.554   1.088
 1172TIP3   OH225074   5.271   3.332   1.808
 1172TIP3    H125075   5.210   3.259   1.803
 1172TIP3    H225076   5.315   3.322   1.893
 1173TIP3   OH225077   4.759   1.822   8.430
 1173TIP3    H125078   4.805   1.818   8.514
 1173TIP3    H225079   4.690   1.887   8.444
 1174TIP3   OH225080   0.978   0.459   8.540
 1174TIP3    H125081   1.058   0.490   8.582
 1174TIP3    H225082   0.914   0.528   8.557
 1175TIP3   OH225083   5.002   1.059   6.579
 1175TIP3    H125084   4.920   1.028   6.618
 1175TIP3    H225085   5.027   1.134   6.634
 1176TIP3   OH225086   3.459   6.167   1.265
 1176TIP3    H125087   3.450   6.259   1.242
 1176TIP3    H225088   3.393   6.123   1.211
 1177TIP3   OH225089   0.895   4.320   6.566
 1177TIP3    H125090   0.951   4.398   6.567
 1177TIP3    H225091   0.950   4.250   6.602
 1178TIP3   OH225092   2.934   6.680   1.174
 1178TIP3    H125093   2.935   6.589   1.146
 1178TIP3    H225094   2.853   6.690   1.224
 1179TIP3   OH225095   5.749   3.791   7.815
 1179TIP3    H125096   5.689   3.859   7.847
 1179TIP3    H225097   5.777   3.745   7.895
 1180TIP3   OH225098   4.450   3.177   1.450
 1180TIP3    H125099   4.475   3.202   1.539
 1180TIP3    H225100   4.520   3.117   1.422
 1181TIP3   OH225101   6.518   6.127   0.943
 1181TIP3    H125102   6.435   6.164   0.973
 1181TIP3    H225103   6.530   6.049   0.996
 1182TIP3   OH225104   4.942   3.671   0.076
 1182TIP3    H125105   4.854   3.707   0.085
 1182TIP3    H225106   4.999   3.747   0.075
 1183TIP3   OH225107   3.993   6.483   8.846
 1183TIP3    H125108   3.968   6.403   8.893
 1183TIP3    H225109   3.911   6.525   8.824
 1184TIP3   OH225110   6.609   3.010   8.332
 1184TIP3    H125111   6.664   3.086   8.348
 1184TIP3    H225112   6.628   2.951   8.405
 1185TIP3   OH225113   5.551   0.761   6.474
 1185TIP3    H125114   5.529   0.808   6.394
 1185TIP3    H225115   5.621   0.701   6.448
 1186TIP3   OH225116   4.286   6.349   7.424
 1186TIP3    H125117   4.279   6.412   7.495
 1186TIP3    H225118   4.358   6.382   7.370
 1187TIP3   OH225119   5.431   6.229   7.373
 1187TIP3    H125120   5.357   6.265   7.323
 1187TIP3    H225121   5.393   6.159   7.426
 1188TIP3   OH225122   1.587   6.624   6.885
 1188TIP3    H125123   1.513   6.562   6.888
 1188TIP3    H225124   1.609   6.631   6.793
 1189TIP3   OH225125   4.903   4.612   1.596
 1189TIP3    H125126   4.958   4.562   1.536
 1189TIP3    H225127   4.963   4.639   1.666
 1190TIP3   OH225128   4.163   2.858   7.287
 1190TIP3    H125129   4.117   2.852   7.203
 1190TIP3    H225130   4.244   2.810   7.273
 1191TIP3   OH225131   1.616   2.446   7.827
 1191TIP3    H125132   1.567   2.527   7.840
 1191TIP3    H225133   1.572   2.382   7.883
 1192TIP3   OH225134   6.371   2.762   0.378
 1192TIP3    H125135   6.342   2.672   0.392
 1192TIP3    H225136   6.354   2.806   0.461
 1193TIP3   OH225137   0.102   5.333   8.273
 1193TIP3    H125138   0.107   5.280   8.193
 1193TIP3    H225139   0.022   5.385   8.263
 1194TIP3   OH225140   4.889   4.580   8.376
 1194TIP3    H125141   4.822   4.538   8.321
 1194TIP3    H225142   4.888   4.531   8.458
 1195TIP3   OH225143   4.719   2.372   8.089
 1195TIP3    H125144   4.629   2.346   8.071
 1195TIP3    H225145   4.712   2.456   8.135
 1196TIP3   OH225146   0.412   4.964   1.248
 1196TIP3    H125147   0.367   5.046   1.226
 1196TIP3    H225148   0.392   4.905   1.175
 1197TIP3   OH225149   2.745   1.041   7.333
 1197TIP3    H125150   2.766   0.956   7.372
 1197TIP3    H225151   2.821   1.061   7.278
 1198TIP3   OH225152   1.831   5.171   2.219
 1198TIP3    H125153   1.905   5.125   2.260
 1198TIP3    H225154   1.801   5.232   2.286
 1199TIP3   OH225155   1.591   5.533   6.563
 1199TIP3    H125156   1.523   5.572   6.510
 1199TIP3    H225157   1.551   5.453   6.598
 1200TIP3   OH225158   3.082   5.391   0.742
 1200TIP3    H125159   3.143   5.428   0.805
 1200TIP3    H225160   3.097   5.297   0.746
 1201TIP3   OH225161   3.256   2.116   2.073
 1201TIP3    H125162   3.339   2.149   2.109
 1201TIP3    H225163   3.283   2.062   1.999
 1202TIP3   OH225164   2.099   4.583   7.934
 1202TIP3    H125165   2.086   4.650   8.001
 1202TIP3    H225166   2.125   4.505   7.984
 1203TIP3   OH225167   1.915   0.621   1.964
 1203TIP3    H125168   1.851   0.626   2.036
 1203TIP3    H225169   1.875   0.563   1.900
 1204TIP3   OH225170   3.774   5.005   1.496
 1204TIP3    H125171   3.710   4.940   1.524
 1204TIP3    H225172   3.792   4.983   1.404
 1205TIP3   OH225173   4.848   1.858   0.420
 1205TIP3    H125174   4.790   1.806   0.363
 1205TIP3    H225175   4.885   1.924   0.362
 1206TIP3   OH225176   2.784   2.206   1.452
 1206TIP3    H125177   2.718   2.270   1.479
 1206TIP3    H225178   2.865   2.256   1.447
 1207TIP3   OH225179   5.630   1.373   7.140
 1207TIP3    H125180   5.541   1.346   7.115
 1207TIP3    H225181   5.686   1.302   7.109
 1208TIP3   OH225182   0.345   1.175   0.490
 1208TIP3    H125183   0.380   1.090   0.464
 1208TIP3    H225184   0.404   1.205   0.559
 1209TIP3   OH225185   1.273   6.257   6.855
 1209TIP3    H125186   1.224   6.205   6.791
 1209TIP3    H225187   1.365   6.240   6.834
 1210TIP3   OH225188   1.086   5.591   2.104
 1210TIP3    H125189   1.034   5.671   2.092
 1210TIP3    H225190   1.024   5.528   2.141
 1211TIP3   OH225191   4.089   0.751   0.336
 1211TIP3    H125192   3.996   0.728   0.331
 1211TIP3    H225193   4.089   0.846   0.350
 1212TIP3   OH225194   1.808   5.397   1.416
 1212TIP3    H125195   1.842   5.431   1.499
 1212TIP3    H225196   1.884   5.390   1.359
 1213TIP3   OH225197   2.607   0.129   7.043
 1213TIP3    H125198   2.655   0.211   7.037
 1213TIP3    H225199   2.673   0.064   7.066
 1214TIP3   OH225200   4.810   0.310   8.682
 1214TIP3    H125201   4.733   0.301   8.626
 1214TIP3    H225202   4.836   0.220   8.702
 1215TIP3   OH225203   5.658   3.367   7.433
 1215TIP3    H125204   5.569   3.402   7.434
 1215TIP3    H225205   5.699   3.403   7.511
 1216TIP3   OH225206   6.329   2.905   0.604
 1216TIP3    H125207   6.262   2.957   0.650
 1216TIP3    H225208   6.390   2.879   0.673
 1217TIP3   OH225209   1.241   4.891   6.826
 1217TIP3    H125210   1.158   4.937   6.832
 1217TIP3    H225211   1.240   4.849   6.740
 1218TIP3   OH225212   6.391   1.685   0.379
 1218TIP3    H125213   6.358   1.656   0.294
 1218TIP3    H225214   6.412   1.777   0.367
 1219TIP3   OH225215   2.667   2.877   2.109
 1219TIP3    H125216   2.606   2.877   2.036
 1219TIP3    H225217   2.611   2.890   2.186
 1220TIP3   OH225218   6.647   1.600   7.587
 1220TIP3    H125219   6.727   1.652   7.588
 1220TIP3    H225220   6.668   1.521   7.636
 1221TIP3   OH225221   6.431   0.094   8.057
 1221TIP3    H125222   6.415   0.148   7.980
 1221TIP3    H225223   6.520   0.061   8.045
 1222TIP3   OH225224   4.527   3.358   7.725
 1222TIP3    H125225   4.574   3.277   7.741
 1222TIP3    H225226   4.449   3.332   7.675
 1223TIP3   OH225227   3.281   3.591   1.315
 1223TIP3    H125228   3.271   3.497   1.303
 1223TIP3    H225229   3.372   3.609   1.288
 1224TIP3   OH225230   5.681   2.258   0.473
 1224TIP3    H125231   5.746   2.298   0.415
 1224TIP3    H225232   5.653   2.179   0.427
 1225TIP3   OH225233   5.399   5.545   0.903
 1225TIP3    H125234   5.469   5.526   0.841
 1225TIP3    H225235   5.372   5.459   0.936
 1226TIP3   OH225236   0.638   2.040   8.062
 1226TIP3    H125237   0.719   2.087   8.082
 1226TIP3    H225238   0.600   2.089   7.989
 1227TIP3   OH225239   2.798   1.319   0.989
 1227TIP3    H125240   2.871   1.381   0.986
 1227TIP3    H225241   2.825   1.252   1.051
 1228TIP3   OH225242   3.087   5.041   0.144
 1228TIP3    H125243   3.116   5.054   0.054
 1228TIP3    H225244   3.165   5.007   0.190
 1229TIP3   OH225245   0.454   2.457   8.904
 1229TIP3    H125246   0.413   2.527   0.041
 1229TIP3    H225247   0.528   2.428   0.044
 1230TIP3   OH225248   2.632   3.405   8.675
 1230TIP3    H125249   2.559   3.467   8.670
 1230TIP3    H225250   2.688   3.441   8.744
 1231TIP3   OH225251   0.600   5.336   6.709
 1231TIP3    H125252   0.618   5.387   6.630
 1231TIP3    H225253   0.528   5.382   6.751
 1232TIP3   OH225254   2.744   0.457   8.103
 1232TIP3    H125255   2.729   0.367   8.130
 1232TIP3    H225256   2.685   0.470   8.029
 1233TIP3   OH225257   0.024   4.652   0.690
 1233TIP3    H125258   6.732   4.643   0.625
 1233TIP3    H225259   6.770   4.602   0.766
 1234TIP3   OH225260   4.255   4.115   1.994
 1234TIP3    H125261   4.351   4.115   1.990
 1234TIP3    H225262   4.234   4.045   2.056
 1235TIP3   OH225263   0.333   2.539   1.398
 1235TIP3    H125264   0.285   2.550   1.480
 1235TIP3    H225265   0.323   2.446   1.377
 1236TIP3   OH225266   0.259   1.334   0.278
 1236TIP3    H125267   0.292   1.247   0.296
 1236TIP3    H225268   0.229   1.366   0.363
 1237TIP3   OH225269   1.497   2.931   8.683
 1237TIP3    H125270   1.536   2.862   8.735
 1237TIP3    H225271   1.424   2.888   8.637
 1238TIP3   OH225272   3.733   4.145   1.284
 1238TIP3    H125273   3.673   4.143   1.210
 1238TIP3    H225274   3.801   4.208   1.259
 1239TIP3   OH225275   2.246   5.523   8.609
 1239TIP3    H125276   2.167   5.515   8.556
 1239TIP3    H225277   2.317   5.502   8.548
 1240TIP3   OH225278   3.199   6.480   8.241
 1240TIP3    H125279   3.137   6.470   8.314
 1240TIP3    H225280   3.218   6.573   8.239
 1241TIP3   OH225281   0.276   6.556   0.699
 1241TIP3    H125282   0.370   6.537   0.698
 1241TIP3    H225283   0.242   6.503   0.771
 1242TIP3   OH225284   1.531   3.169   8.020
 1242TIP3    H125285   1.482   3.087   8.019
 1242TIP3    H225286   1.515   3.208   7.934
 1243TIP3   OH225287   0.316   5.329   0.741
 1243TIP3    H125288   0.272   5.380   0.673
 1243TIP3    H225289   0.408   5.329   0.716
 1244TIP3   OH225290   3.530   4.783   7.038
 1244TIP3    H125291   3.546   4.690   7.026
 1244TIP3    H225292   3.461   4.787   7.104
 1245TIP3   OH225293   2.202   1.290   7.686
 1245TIP3    H125294   2.272   1.324   7.741
 1245TIP3    H225295   2.226   1.317   7.597
 1246TIP3   OH225296   1.707   2.127   8.556
 1246TIP3    H125297   1.687   2.220   8.549
 1246TIP3    H225298   1.630   2.089   8.598
 1247TIP3   OH225299   2.798   3.936   1.425
 1247TIP3    H125300   2.712   3.970   1.448
 1247TIP3    H225301   2.785   3.892   1.341
 1248TIP3   OH225302   4.875   3.106   0.265
 1248TIP3    H125303   4.876   3.200   0.278
 1248TIP3    H225304   4.956   3.088   0.217
 1249TIP3   OH225305   5.674   2.237   6.965
 1249TIP3    H125306   5.623   2.168   7.008
 1249TIP3    H225307   5.609   2.303   6.942
 1250TIP3   OH225308   4.358   1.335   7.088
 1250TIP3    H125309   4.436   1.351   7.140
 1250TIP3    H225310   4.390   1.282   7.014
 1251TIP3   OH225311   3.738   0.646   7.952
 1251TIP3    H125312   3.833   0.630   7.958
 1251TIP3    H225313   3.703   0.565   7.914
 1252TIP3   OH225314   1.325   5.943   6.269
 1252TIP3    H125315   1.417   5.958   6.293
 1252TIP3    H225316   1.277   6.014   6.312
 1253TIP3   OH225317   2.575   2.694   1.461
 1253TIP3    H125318   2.587   2.600   1.449
 1253TIP3    H225319   2.524   2.722   1.385
 1254TIP3   OH225320   5.317   4.508   7.808
 1254TIP3    H125321   5.345   4.583   7.860
 1254TIP3    H225322   5.306   4.437   7.872
 1255TIP3   OH225323   5.872   1.805   0.567
 1255TIP3    H125324   5.778   1.816   0.553
 1255TIP3    H225325   5.883   1.812   0.662
 1256TIP3   OH225326   5.044   0.583   7.626
 1256TIP3    H125327   5.070   0.667   7.588
 1256TIP3    H225328   4.992   0.541   7.558
 1257TIP3   OH225329   1.911   2.555   0.626
 1257TIP3    H125330   1.832   2.513   0.661
 1257TIP3    H225331   1.903   2.647   0.653
 1258TIP3   OH225332   3.759   4.525   6.685
 1258TIP3    H125333   3.765   4.615   6.652
 1258TIP3    H225334   3.836   4.481   6.649
 1259TIP3   OH225335   6.628   2.207   8.428
 1259TIP3    H125336   6.691   2.261   8.380
 1259TIP3    H225337   6.582   2.157   8.361
 1260TIP3   OH225338   6.525   6.131   7.185
 1260TIP3    H125339   6.619   6.132   7.202
 1260TIP3    H225340   6.504   6.221   7.162
 1261TIP3   OH225341   6.362   5.966   0.127
 1261TIP3    H125342   6.321   6.044   0.089
 1261TIP3    H225343   6.394   5.996   0.213
 1262TIP3   OH225344   1.216   1.931   0.562
 1262TIP3    H125345   1.205   1.842   0.596
 1262TIP3    H225346   1.310   1.944   0.558
 1263TIP3   OH225347   3.221   4.024   7.946
 1263TIP3    H125348   3.305   3.978   7.945
 1263TIP3    H225349   3.220   4.074   7.864
 1264TIP3   OH225350   5.787   4.964   1.569
 1264TIP3    H125351   5.875   4.983   1.535
 1264TIP3    H225352   5.802   4.908   1.645
 1265TIP3   OH225353   0.053   1.835   6.667
 1265TIP3    H125354   6.770   1.907   6.647
 1265TIP3    H225355   0.023   1.802   6.752
 1266TIP3   OH225356   5.512   5.735   7.344
 1266TIP3    H125357   5.529   5.643   7.322
 1266TIP3    H225358   5.550   5.746   7.431
 1267TIP3   OH225359   0.647   4.288   6.450
 1267TIP3    H125360   0.738   4.311   6.468
 1267TIP3    H225361   0.609   4.369   6.415
 1268TIP3   OH225362   0.568   6.063   6.677
 1268TIP3    H125363   0.602   6.137   6.626
 1268TIP3    H225364   0.514   6.014   6.615
 1269TIP3   OH225365   4.509   3.059   0.664
 1269TIP3    H125366   4.526   2.967   0.642
 1269TIP3    H225367   4.570   3.108   0.610
 1270TIP3   OH225368   4.523   4.975   0.309
 1270TIP3    H125369   4.484   5.051   0.265
 1270TIP3    H225370   4.549   4.917   0.238
 1271TIP3   OH225371   3.551   5.315   7.390
 1271TIP3    H125372   3.619   5.302   7.324
 1271TIP3    H225373   3.537   5.409   7.393
 1272TIP3   OH225374   0.715   3.721   7.465
 1272TIP3    H125375   0.719   3.658   7.537
 1272TIP3    H225376   0.804   3.756   7.460
 1273TIP3   OH225377   0.951   6.300   0.092
 1273TIP3    H125378   0.965   6.382   0.045
 1273TIP3    H225379   0.857   6.297   0.109
 1274TIP3   OH225380   0.863   0.249   0.218
 1274TIP3    H125381   0.850   0.260   0.124
 1274TIP3    H225382   0.955   0.223   0.226
 1275TIP3   OH225383   3.615   1.858   1.335
 1275TIP3    H125384   3.531   1.835   1.296
 1275TIP3    H225385   3.620   1.953   1.330
 1276TIP3   OH225386   1.440   6.720   0.280
 1276TIP3    H125387   1.358   6.760   0.311
 1276TIP3    H225388   1.438   6.730   0.185
 1277TIP3   OH225389   3.916   0.741   1.147
 1277TIP3    H125390   3.961   0.805   1.091
 1277TIP3    H225391   3.831   0.781   1.165
 1278TIP3   OH225392   1.336   2.712   1.219
 1278TIP3    H125393   1.307   2.735   1.307
 1278TIP3    H225394   1.364   2.621   1.226
 1279TIP3   OH225395   1.581   1.572   0.206
 1279TIP3    H125396   1.553   1.662   0.222
 1279TIP3    H225397   1.554   1.554   0.116
 1280TIP3   OH225398   3.361   6.256   1.504
 1280TIP3    H125399   3.348   6.340   1.461
 1280TIP3    H225400   3.429   6.213   1.452
 1281TIP3   OH225401   1.165   5.077   1.257
 1281TIP3    H125402   1.253   5.104   1.283
 1281TIP3    H225403   1.161   5.094   1.163
 1282TIP3   OH225404   6.501   2.940   7.386
 1282TIP3    H125405   6.500   2.990   7.467
 1282TIP3    H225406   6.459   2.997   7.322
 1283TIP3   OH225407   3.321   5.217   8.421
 1283TIP3    H125408   3.246   5.245   8.474
 1283TIP3    H225409   3.352   5.137   8.463
 1284TIP3   OH225410   5.190   4.677   1.246
 1284TIP3    H125411   5.169   4.629   1.326
 1284TIP3    H225412   5.189   4.611   1.177
 1285TIP3   OH225413   5.062   3.306   7.118
 1285TIP3    H125414   5.086   3.399   7.117
 1285TIP3    H225415   5.025   3.292   7.205
 1286TIP3   OH225416   5.966   6.582   7.580
 1286TIP3    H125417   5.937   6.493   7.599
 1286TIP3    H225418   6.060   6.581   7.595
 1287TIP3   OH225419   3.065   5.282   7.165
 1287TIP3    H125420   2.994   5.240   7.117
 1287TIP3    H225421   3.078   5.227   7.242
 1288TIP3   OH225422   4.692   3.339   8.686
 1288TIP3    H125423   4.782   3.309   8.673
 1288TIP3    H225424   4.637   3.268   8.652
 1289TIP3   OH225425   2.226   6.058   8.004
 1289TIP3    H125426   2.262   6.135   8.048
 1289TIP3    H225427   2.293   5.991   8.015
 1290TIP3   OH225428   3.882   2.489   8.686
 1290TIP3    H125429   3.867   2.443   8.769
 1290TIP3    H225430   3.795   2.511   8.655
 1291TIP3   OH225431   3.605   0.579   6.618
 1291TIP3    H125432   3.519   0.619   6.608
 1291TIP3    H225433   3.587   0.485   6.627
 1292TIP3   OH225434   6.123   0.611   8.627
 1292TIP3    H125435   6.076   0.649   8.554
 1292TIP3    H225436   6.055   0.586   8.690
 1293TIP3   OH225437   5.072   3.444   8.516
 1293TIP3    H125438   5.102   3.470   8.603
 1293TIP3    H225439   5.061   3.527   8.469
 1294TIP3   OH225440   5.387   6.343   0.409
 1294TIP3    H125441   5.386   6.248   0.418
 1294TIP3    H225442   5.359   6.375   0.495
 1295TIP3   OH225443   5.176   6.250   7.962
 1295TIP3    H125444   5.195   6.336   8.000
 1295TIP3    H225445   5.169   6.266   7.868
 1296TIP3   OH225446   4.187   5.536   1.823
 1296TIP3    H125447   4.246   5.484   1.769
 1296TIP3    H225448   4.145   5.472   1.881
 1297TIP3   OH225449   0.691   2.153   6.398
 1297TIP3    H125450   0.600   2.123   6.388
 1297TIP3    H225451   0.683   2.248   6.411
 1298TIP3   OH225452   4.422   2.698   8.153
 1298TIP3    H125453   4.334   2.706   8.116
 1298TIP3    H225454   4.450   2.789   8.165
 1299TIP3   OH225455   1.411   2.743   7.362
 1299TIP3    H125456   1.357   2.667   7.385
 1299TIP3    H225457   1.372   2.776   7.281
 1300TIP3   OH225458   1.286   3.635   8.813
 1300TIP3    H125459   1.378   3.655   8.827
 1300TIP3    H225460   1.262   3.685   8.735
 1301TIP3   OH225461   4.677   5.013   2.016
 1301TIP3    H125462   4.651   4.929   2.055
 1301TIP3    H225463   4.743   4.990   1.951
 1302TIP3   OH225464   0.242   5.321   1.431
 1302TIP3    H125465   0.251   5.266   1.508
 1302TIP3    H225466   0.189   5.395   1.461
 1303TIP3   OH225467   3.372   0.869   6.810
 1303TIP3    H125468   3.463   0.860   6.838
 1303TIP3    H225469   3.366   0.815   6.731
 1304TIP3   OH225470   0.503   1.057   6.939
 1304TIP3    H125471   0.431   1.119   6.952
 1304TIP3    H225472   0.562   1.102   6.878
 1305TIP3   OH225473   1.578   0.112   7.875
 1305TIP3    H125474   1.583   0.048   7.804
 1305TIP3    H225475   1.564   0.196   7.832
 1306TIP3   OH225476   3.307   2.918   1.472
 1306TIP3    H125477   3.256   2.974   1.414
 1306TIP3    H225478   3.376   2.976   1.507
 1307TIP3   OH225479   6.123   2.863   1.228
 1307TIP3    H125480   6.129   2.770   1.207
 1307TIP3    H225481   6.039   2.873   1.272
 1308TIP3   OH225482   3.674   3.505   7.482
 1308TIP3    H125483   3.639   3.420   7.453
 1308TIP3    H225484   3.762   3.508   7.445
 1309TIP3   OH225485   0.056   4.471   1.533
 1309TIP3    H125486   0.151   4.482   1.528
 1309TIP3    H225487   0.023   4.500   1.448
 1310TIP3   OH225488   6.357   0.107   7.645
 1310TIP3    H125489   6.326   0.023   7.611
 1310TIP3    H225490   6.352   0.166   7.570
 1311TIP3   OH225491   6.294   5.532   0.988
 1311TIP3    H125492   6.289   5.437   1.002
 1311TIP3    H225493   6.320   5.567   1.073
 1312TIP3   OH225494   0.913   3.108   7.761
 1312TIP3    H125495   0.895   3.015   7.777
 1312TIP3    H225496   0.941   3.112   7.670
 1313TIP3   OH225497   2.291   1.170   6.648
 1313TIP3    H125498   2.270   1.106   6.716
 1313TIP3    H225499   2.240   1.248   6.671
 1314TIP3   OH225500   1.066   0.817   1.340
 1314TIP3    H125501   1.018   0.802   1.259
 1314TIP3    H225502   1.069   0.912   1.350
 1315TIP3   OH225503   5.788   5.712   1.109
 1315TIP3    H125504   5.762   5.783   1.168
 1315TIP3    H225505   5.784   5.751   1.022
 1316TIP3   OH225506   5.963   5.252   7.768
 1316TIP3    H125507   5.974   5.180   7.706
 1316TIP3    H225508   6.040   5.307   7.754
 1317TIP3   OH225509   6.086   5.188   1.332
 1317TIP3    H125510   6.142   5.256   1.367
 1317TIP3    H225511   6.088   5.118   1.397
 1318TIP3   OH225512   4.138   2.616   0.559
 1318TIP3    H125513   4.106   2.705   0.542
 1318TIP3    H225514   4.231   2.627   0.579
 1319TIP3   OH225515   1.313   6.568   7.248
 1319TIP3    H125516   1.292   6.557   7.155
 1319TIP3    H225517   1.385   6.631   7.249
 1320TIP3   OH225518   3.345   5.914   8.500
 1320TIP3    H125519   3.302   5.980   8.555
 1320TIP3    H225520   3.281   5.843   8.493
 1321TIP3   OH225521   2.573   6.409   6.786
 1321TIP3    H125522   2.597   6.342   6.722
 1321TIP3    H225523   2.510   6.366   6.843
 1322TIP3   OH225524   5.341   5.240   7.677
 1322TIP3    H125525   5.352   5.189   7.757
 1322TIP3    H225526   5.296   5.181   7.616
 1323TIP3   OH225527   6.398   4.685   0.869
 1323TIP3    H125528   6.432   4.597   0.854
 1323TIP3    H225529   6.462   4.726   0.927
 1324TIP3   OH225530   0.997   1.104   7.359
 1324TIP3    H125531   1.049   1.025   7.373
 1324TIP3    H225532   0.909   1.072   7.339
 1325TIP3   OH225533   5.021   4.835   2.296
 1325TIP3    H125534   5.094   4.802   2.243
 1325TIP3    H225535   5.061   4.889   2.363
 1326TIP3   OH225536   2.248   4.660   7.677
 1326TIP3    H125537   2.157   4.637   7.695
 1326TIP3    H225538   2.276   4.712   7.752
 1327TIP3   OH225539   1.430   1.443   2.222
 1327TIP3    H125540   1.399   1.530   2.195
 1327TIP3    H225541   1.525   1.450   2.223
 1328TIP3   OH225542   1.234   3.807   7.690
 1328TIP3    H125543   1.157   3.853   7.659
 1328TIP3    H225544   1.304   3.872   7.688
 1329TIP3   OH225545   1.731   0.495   7.768
 1329TIP3    H125546   1.717   0.414   7.718
 1329TIP3    H225547   1.674   0.487   7.844
 1330TIP3   OH225548   2.180   2.011   0.130
 1330TIP3    H125549   2.104   2.058   0.095
 1330TIP3    H225550   2.247   2.020   0.062
 1331TIP3   OH225551   1.800   1.036   7.707
 1331TIP3    H125552   1.777   1.003   7.794
 1331TIP3    H225553   1.861   1.108   7.724
 1332TIP3   OH225554   3.823   5.123   7.849
 1332TIP3    H125555   3.808   5.032   7.823
 1332TIP3    H225556   3.823   5.121   7.945
 1333TIP3   OH225557   1.038   4.296   0.521
 1333TIP3    H125558   1.066   4.245   0.597
 1333TIP3    H225559   1.071   4.247   0.446
 1334TIP3   OH225560   3.304   2.431   0.687
 1334TIP3    H125561   3.348   2.389   0.613
 1334TIP3    H225562   3.233   2.482   0.647
 1335TIP3   OH225563   1.753   0.793   0.719
 1335TIP3    H125564   1.685   0.860   0.714
 1335TIP3    H225565   1.821   0.832   0.773
 1336TIP3   OH225566   5.167   6.169   1.112
 1336TIP3    H125567   5.115   6.143   1.036
 1336TIP3    H225568   5.121   6.244   1.149
 1337TIP3   OH225569   4.807   1.155   1.444
 1337TIP3    H125570   4.814   1.197   1.530
 1337TIP3    H225571   4.719   1.177   1.414
 1338TIP3   OH225572   2.442   3.250   6.517
 1338TIP3    H125573   2.398   3.192   6.455
 1338TIP3    H225574   2.372   3.287   6.570
 1339TIP3   OH225575   1.705   0.582   0.132
 1339TIP3    H125576   1.798   0.585   0.109
 1339TIP3    H225577   1.703   0.589   0.227
 1340TIP3   OH225578   6.390   2.293   8.639
 1340TIP3    H125579   6.317   2.294   8.701
 1340TIP3    H225580   6.355   2.336   8.561
 1341TIP3   OH225581   3.866   2.780   8.230
 1341TIP3    H125582   3.788   2.822   8.193
 1341TIP3    H225583   3.838   2.691   8.251
 1342TIP3   OH225584   5.653   0.620   8.325
 1342TIP3    H125585   5.591   0.550   8.303
 1342TIP3    H225586   5.673   0.606   8.417
 1343TIP3   OH225587   5.930   2.896   7.830
 1343TIP3    H125588   5.920   2.991   7.842
 1343TIP3    H225589   5.995   2.888   7.761
 1344TIP3   OH225590   5.623   3.712   0.320
 1344TIP3    H125591   5.540   3.744   0.356
 1344TIP3    H225592   5.676   3.692   0.398
 1345TIP3   OH225593   5.252   1.398   7.927
 1345TIP3    H125594   5.322   1.447   7.885
 1345TIP3    H225595   5.174   1.453   7.917
 1346TIP3   OH225596   6.490   6.683   6.171
 1346TIP3    H125597   6.502   6.663   6.078
 1346TIP3    H225598   6.537   6.613   6.216
 1347TIP3   OH225599   2.939   6.571   6.724
 1347TIP3    H125600   2.907   6.611   6.643
 1347TIP3    H225601   2.933   6.477   6.708
 1348TIP3   OH225602   0.299   6.022   0.361
 1348TIP3    H125603   0.241   5.964   0.409
 1348TIP3    H225604   0.260   6.028   0.274
 1349TIP3   OH225605   5.653   6.474   0.539
 1349TIP3    H125606   5.579   6.413   0.535
 1349TIP3    H225607   5.625   6.542   0.599
 1350TIP3   OH225608   2.258   1.958   0.545
 1350TIP3    H125609   2.249   1.870   0.510
 1350TIP3    H225610   2.239   2.015   0.471
 1351TIP3   OH225611   4.864   1.895   7.674
 1351TIP3    H125612   4.952   1.930   7.685
 1351TIP3    H225613   4.873   1.829   7.605
 1352TIP3   OH225614   6.548   5.374   2.135
 1352TIP3    H125615   6.543   5.458   2.090
 1352TIP3    H225616   6.641   5.362   2.154
 1353TIP3   OH225617   5.583   4.563   6.689
 1353TIP3    H125618   5.647   4.505   6.649
 1353TIP3    H225619   5.532   4.506   6.747
 1354TIP3   OH225620   2.321   1.667   1.976
 1354TIP3    H125621   2.277   1.670   2.061
 1354TIP3    H225622   2.275   1.732   1.923
 1355TIP3   OH225623   1.968   2.935   7.006
 1355TIP3    H125624   2.035   2.890   6.953
 1355TIP3    H225625   1.905   2.968   6.942
 1356TIP3   OH225626   3.343   5.017   0.129
 1356TIP3    H125627   3.333   5.051   0.040
 1356TIP3    H225628   3.353   5.095   0.183
 1357TIP3   OH225629   6.552   4.287   0.696
 1357TIP3    H125630   6.555   4.375   0.660
 1357TIP3    H225631   6.603   4.234   0.635
 1358TIP3   OH225632   3.693   6.564   7.945
 1358TIP3    H125633   3.677   6.652   7.980
 1358TIP3    H225634   3.758   6.527   8.005
 1359TIP3   OH225635   3.575   1.464   1.069
 1359TIP3    H125636   3.657   1.418   1.049
 1359TIP3    H225637   3.596   1.556   1.055
 1360TIP3   OH225638   6.154   3.314   7.283
 1360TIP3    H125639   6.158   3.268   7.200
 1360TIP3    H225640   6.245   3.333   7.305
 1361TIP3   OH225641   5.847   5.767   7.195
 1361TIP3    H125642   5.854   5.751   7.289
 1361TIP3    H225643   5.814   5.856   7.187
 1362TIP3   OH225644   3.622   4.694   2.110
 1362TIP3    H125645   3.578   4.663   2.189
 1362TIP3    H225646   3.704   4.644   2.106
 1363TIP3   OH225647   5.434   1.869   6.417
 1363TIP3    H125648   5.479   1.879   6.333
 1363TIP3    H225649   5.379   1.791   6.406
 1364TIP3   OH225650   4.827   3.514   7.883
 1364TIP3    H125651   4.846   3.435   7.833
 1364TIP3    H225652   4.913   3.545   7.912
 1365TIP3   OH225653   2.127   5.063   1.729
 1365TIP3    H125654   2.135   5.038   1.821
 1365TIP3    H225655   2.039   5.036   1.704
 1366TIP3   OH225656   0.565   0.898   8.599
 1366TIP3    H125657   0.479   0.857   8.584
 1366TIP3    H225658   0.554   0.987   8.566
 1367TIP3   OH225659   6.704   1.446   8.857
 1367TIP3    H125660   6.636   1.419   8.796
 1367TIP3    H225661   6.759   1.505   8.806
 1368TIP3   OH225662   3.721   3.031   2.427
 1368TIP3    H125663   3.659   3.102   2.446
 1368TIP3    H225664   3.767   3.016   2.509
 1369TIP3   OH225665   0.712   0.292   6.695
 1369TIP3    H125666   0.625   0.300   6.654
 1369TIP3    H225667   0.694   0.292   6.789
 1370TIP3   OH225668   5.045   0.162   8.135
 1370TIP3    H125669   4.976   0.228   8.128
 1370TIP3    H225670   4.998   0.082   8.158
 1371TIP3   OH225671   5.858   4.403   1.967
 1371TIP3    H125672   5.794   4.343   2.006
 1371TIP3    H225673   5.910   4.347   1.908
 1372TIP3   OH225674   6.247   3.022   7.927
 1372TIP3    H125675   6.228   2.944   7.875
 1372TIP3    H225676   6.164   3.070   7.928
 1373TIP3   OH225677   3.173   4.269   7.309
 1373TIP3    H125678   3.117   4.229   7.243
 1373TIP3    H225679   3.246   4.208   7.319
 1374TIP3   OH225680   0.092   4.327   2.377
 1374TIP3    H125681   0.148   4.285   2.311
 1374TIP3    H225682   0.007   4.335   2.334
 1375TIP3   OH225683   5.958   4.576   1.353
 1375TIP3    H125684   6.015   4.628   1.410
 1375TIP3    H225685   6.003   4.574   1.269
 1376TIP3   OH225686   5.780   6.660   1.455
 1376TIP3    H125687   5.849   6.595   1.469
 1376TIP3    H225688   5.717   6.615   1.398
 1377TIP3   OH225689   5.453   1.876   8.293
 1377TIP3    H125690   5.479   1.948   8.350
 1377TIP3    H225691   5.404   1.816   8.349
 1378TIP3   OH225692   5.314   4.215   7.489
 1378TIP3    H125693   5.230   4.172   7.504
 1378TIP3    H225694   5.322   4.220   7.394
 1379TIP3   OH225695   0.296   3.585   0.876
 1379TIP3    H125696   0.256   3.575   0.962
 1379TIP3    H225697   0.387   3.608   0.895
 1380TIP3   OH225698   1.028   4.804   0.979
 1380TIP3    H125699   0.941   4.770   0.957
 1380TIP3    H225700   1.070   4.733   1.028
 1381TIP3   OH225701   6.717   1.023   0.449
 1381TIP3    H125702   6.635   1.013   0.498
 1381TIP3    H225703   6.747   1.111   0.471
 1382TIP3   OH225704   1.635   1.279   8.425
 1382TIP3    H125705   1.670   1.286   8.514
 1382TIP3    H225706   1.711   1.295   8.368
 1383TIP3   OH225707   4.867   6.022   7.229
 1383TIP3    H125708   4.819   5.961   7.285
 1383TIP3    H225709   4.817   6.024   7.147
 1384TIP3   OH225710   0.894   6.696   1.081
 1384TIP3    H125711   0.854   6.679   0.996
 1384TIP3    H225712   0.880   6.616   1.131
 1385TIP3   OH225713   1.628   3.404   1.011
 1385TIP3    H125714   1.699   3.456   0.972
 1385TIP3    H225715   1.646   3.315   0.983
 1386TIP3   OH225716   5.141   3.948   8.279
 1386TIP3    H125717   5.221   3.997   8.295
 1386TIP3    H225718   5.168   3.856   8.279
 1387TIP3   OH225719   0.410   1.264   7.264
 1387TIP3    H125720   0.338   1.289   7.322
 1387TIP3    H225721   0.486   1.258   7.322
 1388TIP3   OH225722   2.371   4.851   8.467
 1388TIP3    H125723   2.388   4.806   8.550
 1388TIP3    H225724   2.456   4.850   8.422
 1389TIP3   OH225725   5.250   2.860   0.713
 1389TIP3    H125726   5.307   2.784   0.712
 1389TIP3    H225727   5.250   2.891   0.622
 1390TIP3   OH225728   5.866   4.052   7.587
 1390TIP3    H125729   5.850   3.990   7.658
 1390TIP3    H225730   5.819   4.015   7.512
 1391TIP3   OH225731   6.024   1.202   1.156
 1391TIP3    H125732   6.002   1.223   1.247
 1391TIP3    H225733   6.120   1.200   1.154
 1392TIP3   OH225734   0.450   0.139   5.801
 1392TIP3    H125735   0.478   0.096   5.882
 1392TIP3    H225736   0.416   0.224   5.828
 1393TIP3   OH225737   2.185   3.934   8.233
 1393TIP3    H125738   2.147   3.928   8.145
 1393TIP3    H225739   2.243   4.010   8.229
 1394TIP3   OH225740   0.386   6.609   7.654
 1394TIP3    H125741   0.435   6.626   7.574
 1394TIP3    H225742   0.451   6.614   7.724
 1395TIP3   OH225743   1.122   4.640   0.096
 1395TIP3    H125744   1.128   4.638   0.001
 1395TIP3    H225745   1.193   4.698   0.124
 1396TIP3   OH225746   0.851   2.278   1.440
 1396TIP3    H125747   0.804   2.360   1.458
 1396TIP3    H225748   0.833   2.223   1.517
 1397TIP3   OH225749   4.745   4.885   1.581
 1397TIP3    H125750   4.775   4.857   1.668
 1397TIP3    H225751   4.792   4.829   1.520
 1398TIP3   OH225752   2.314   0.252   6.940
 1398TIP3    H125753   2.382   0.277   7.002
 1398TIP3    H225754   2.253   0.326   6.940
 1399TIP3   OH225755   6.077   3.354   6.694
 1399TIP3    H125756   6.118   3.271   6.720
 1399TIP3    H225757   5.992   3.328   6.659
 1400TIP3   OH225758   0.270   0.101   6.445
 1400TIP3    H125759   0.255   0.022   6.498
 1400TIP3    H225760   0.361   0.125   6.463
 1401TIP3   OH225761   5.919   5.502   2.253
 1401TIP3    H125762   5.936   5.585   2.298
 1401TIP3    H225763   5.851   5.523   2.189
 1402TIP3   OH225764   1.415   2.855   0.074
 1402TIP3    H125765   1.440   2.894   0.158
 1402TIP3    H225766   1.393   2.930   0.018
 1403TIP3   OH225767   5.233   4.580   7.425
 1403TIP3    H125768   5.272   4.539   7.501
 1403TIP3    H225769   5.257   4.673   7.433
 1404TIP3   OH225770   5.422   3.433   1.054
 1404TIP3    H125771   5.461   3.352   1.022
 1404TIP3    H225772   5.476   3.502   1.016
 1405TIP3   OH225773   1.026   3.530   8.489
 1405TIP3    H125774   0.933   3.523   8.510
 1405TIP3    H225775   1.028   3.545   8.394
 1406TIP3   OH225776   4.809   0.734   0.334
 1406TIP3    H125777   4.862   0.812   0.319
 1406TIP3    H225778   4.787   0.737   0.427
 1407TIP3   OH225779   1.867   4.745   7.633
 1407TIP3    H125780   1.846   4.721   7.723
 1407TIP3    H225781   1.829   4.675   7.580
 1408TIP3   OH225782   3.707   5.462   1.304
 1408TIP3    H125783   3.728   5.418   1.386
 1408TIP3    H225784   3.709   5.392   1.238
 1409TIP3   OH225785   0.426   6.467   8.515
 1409TIP3    H125786   0.334   6.443   8.515
 1409TIP3    H225787   0.473   6.384   8.514
 1410TIP3   OH225788   5.095   5.119   7.983
 1410TIP3    H125789   5.059   5.140   7.897
 1410TIP3    H225790   5.177   5.168   7.988
 1411TIP3   OH225791   0.686   0.100   7.760
 1411TIP3    H125792   0.686   0.193   7.735
 1411TIP3    H225793   0.779   0.076   7.759
 1412TIP3   OH225794   4.242   5.096   8.466
 1412TIP3    H125795   4.297   5.117   8.391
 1412TIP3    H225796   4.173   5.162   8.464
 1413TIP3   OH225797   1.969   1.879   6.617
 1413TIP3    H125798   2.054   1.919   6.603
 1413TIP3    H225799   1.989   1.789   6.643
 1414TIP3   OH225800   5.056   0.261   7.319
 1414TIP3    H125801   5.049   0.342   7.268
 1414TIP3    H225802   4.978   0.211   7.294
 1415TIP3   OH225803   6.040   2.202   0.380
 1415TIP3    H125804   5.967   2.263   0.368
 1415TIP3    H225805   6.050   2.195   0.474
 1416TIP3   OH225806   6.616   4.736   8.885
 1416TIP3    H125807   6.682   4.694   0.026
 1416TIP3    H225808   6.657   4.743   8.799
 1417TIP3   OH225809   0.654   6.575   7.764
 1417TIP3    H125810   0.670   6.668   7.780
 1417TIP3    H225811   0.700   6.530   7.835
 1418TIP3   OH225812   3.976   1.631   1.742
 1418TIP3    H125813   3.883   1.618   1.762
 1418TIP3    H225814   4.009   1.686   1.813
 1419TIP3   OH225815   5.330   5.324   1.473
 1419TIP3    H125816   5.255   5.347   1.418
 1419TIP3    H225817   5.369   5.408   1.498
 1420TIP3   OH225818   6.744   3.066   7.652
 1420TIP3    H125819   6.740   2.970   7.644
 1420TIP3    H225820   0.057   3.089   7.628
 1421TIP3   OH225821   2.331   0.380   7.983
 1421TIP3    H125822   2.379   0.301   8.006
 1421TIP3    H225823   2.269   0.393   8.054
 1422TIP3   OH225824   2.217   3.465   6.327
 1422TIP3    H125825   2.201   3.389   6.382
 1422TIP3    H225826   2.187   3.539   6.380
 1423TIP3   OH225827   2.735   6.096   2.432
 1423TIP3    H125828   2.774   6.169   2.383
 1423TIP3    H225829   2.714   6.134   2.518
 1424TIP3   OH225830   6.545   1.823   1.217
 1424TIP3    H125831   6.487   1.876   1.272
 1424TIP3    H225832   6.489   1.794   1.145
 1425TIP3   OH225833   0.129   1.567   0.924
 1425TIP3    H125834   0.209   1.527   0.957
 1425TIP3    H225835   0.158   1.647   0.880
 1426TIP3   OH225836   0.305   2.667   0.140
 1426TIP3    H125837   0.270   2.687   0.053
 1426TIP3    H225838   0.351   2.747   0.166
 1427TIP3   OH225839   0.722   0.818   8.346
 1427TIP3    H125840   0.731   0.809   8.441
 1427TIP3    H225841   0.792   0.763   8.310
 1428TIP3   OH225842   6.373   2.720   7.003
 1428TIP3    H125843   6.434   2.780   6.960
 1428TIP3    H225844   6.395   2.633   6.967
 1429TIP3   OH225845   5.967   4.308   7.513
 1429TIP3    H125846   5.881   4.316   7.473
 1429TIP3    H225847   5.960   4.232   7.570
 1430TIP3   OH225848   2.078   2.825   1.585
 1430TIP3    H125849   1.983   2.813   1.587
 1430TIP3    H225850   2.108   2.798   1.672
 1431TIP3   OH225851   2.411   1.326   1.341
 1431TIP3    H125852   2.432   1.299   1.251
 1431TIP3    H225853   2.330   1.377   1.332
 1432TIP3   OH225854   4.120   0.837   0.958
 1432TIP3    H125855   4.093   0.771   0.894
 1432TIP3    H225856   4.213   0.848   0.944
 1433TIP3   OH225857   0.856   5.986   1.356
 1433TIP3    H125858   0.893   6.045   1.421
 1433TIP3    H225859   0.832   5.907   1.405
 1434TIP3   OH225860   1.944   2.122   0.070
 1434TIP3    H125861   1.961   2.215   0.083
 1434TIP3    H225862   1.925   2.113   8.890
 1435TIP3   OH225863   0.561   3.321   2.160
 1435TIP3    H125864   0.477   3.275   2.162
 1435TIP3    H225865   0.540   3.410   2.189
 1436TIP3   OH225866   2.788   4.031   2.038
 1436TIP3    H125867   2.758   4.092   1.971
 1436TIP3    H225868   2.719   3.965   2.043
 1437TIP3   OH225869   4.700   0.691   7.772
 1437TIP3    H125870   4.701   0.595   7.777
 1437TIP3    H225871   4.638   0.711   7.702
 1438TIP3   OH225872   4.093   2.641   8.659
 1438TIP3    H125873   4.102   2.669   8.750
 1438TIP3    H225874   4.011   2.592   8.656
 1439TIP3   OH225875   2.113   1.308   0.741
 1439TIP3    H125876   2.024   1.279   0.722
 1439TIP3    H225877   2.132   1.375   0.675
 1440TIP3   OH225878   4.666   4.447   8.279
 1440TIP3    H125879   4.656   4.356   8.249
 1440TIP3    H225880   4.612   4.498   8.218
 1441TIP3   OH225881   5.023   1.618   8.617
 1441TIP3    H125882   5.074   1.673   8.558
 1441TIP3    H225883   5.087   1.589   8.683
 1442TIP3   OH225884   6.647   6.289   8.403
 1442TIP3    H125885   6.697   6.238   8.339
 1442TIP3    H225886   6.635   6.374   8.361
 1443TIP3   OH225887   1.750   6.188   7.570
 1443TIP3    H125888   1.672   6.226   7.531
 1443TIP3    H225889   1.739   6.093   7.558
 1444TIP3   OH225890   5.446   3.563   2.061
 1444TIP3    H125891   5.371   3.505   2.075
 1444TIP3    H225892   5.439   3.591   1.970
 1445TIP3   OH225893   3.492   1.232   8.880
 1445TIP3    H125894   3.477   1.180   8.801
 1445TIP3    H225895   3.563   1.187   0.013
 1446TIP3   OH225896   3.986   1.012   0.662
 1446TIP3    H125897   3.898   0.999   0.628
 1446TIP3    H225898   4.020   0.924   0.675
 1447TIP3   OH225899   3.445   1.209   0.762
 1447TIP3    H125900   3.385   1.151   0.717
 1447TIP3    H225901   3.516   1.224   0.700
 1448TIP3   OH225902   2.013   2.826   0.968
 1448TIP3    H125903   2.061   2.755   0.924
 1448TIP3    H225904   2.077   2.863   1.029
 1449TIP3   OH225905   4.254   0.549   0.792
 1449TIP3    H125906   4.299   0.587   0.716
 1449TIP3    H225907   4.161   0.567   0.776
 1450TIP3   OH225908   2.395   1.299   2.404
 1450TIP3    H125909   2.305   1.285   2.432
 1450TIP3    H225910   2.447   1.242   2.460
 1451TIP3   OH225911   4.152   5.366   8.385
 1451TIP3    H125912   4.216   5.359   8.314
 1451TIP3    H225913   4.068   5.375   8.340
 1452TIP3   OH225914   1.745   6.150   6.483
 1452TIP3    H125915   1.708   6.200   6.411
 1452TIP3    H225916   1.802   6.212   6.529
 1453TIP3   OH225917   0.135   4.206   1.644
 1453TIP3    H125918   0.115   4.296   1.666
 1453TIP3    H225919   0.051   4.167   1.621
 1454TIP3   OH225920   4.595   4.035   8.297
 1454TIP3    H125921   4.596   4.055   8.203
 1454TIP3    H225922   4.666   3.972   8.309
 1455TIP3   OH225923   2.977   4.153   1.152
 1455TIP3    H125924   3.017   4.131   1.068
 1455TIP3    H225925   2.886   4.172   1.131
 1456TIP3   OH225926   5.786   1.059   7.214
 1456TIP3    H125927   5.705   1.092   7.253
 1456TIP3    H225928   5.829   1.011   7.285
 1457TIP3   OH225929   1.558   0.795   0.400
 1457TIP3    H125930   1.501   0.866   0.372
 1457TIP3    H225931   1.632   0.798   0.339
 1458TIP3   OH225932   5.220   2.072   8.864
 1458TIP3    H125933   5.141   2.114   8.831
 1458TIP3    H225934   5.241   2.120   0.030
 1459TIP3   OH225935   2.821   4.976   0.962
 1459TIP3    H125936   2.771   4.939   1.034
 1459TIP3    H225937   2.855   5.059   0.996
 1460TIP3   OH225938   3.667   1.272   0.288
 1460TIP3    H125939   3.712   1.356   0.295
 1460TIP3    H225940   3.588   1.292   0.237
 1461TIP3   OH225941   1.112   1.489   8.638
 1461TIP3    H125942   1.186   1.430   8.623
 1461TIP3    H225943   1.122   1.557   8.571
 1462TIP3   OH225944   0.022   2.058   0.066
 1462TIP3    H125945   6.764   2.054   8.891
 1462TIP3    H225946   6.722   2.048   0.122
 1463TIP3   OH225947   6.460   3.143   7.214
 1463TIP3    H125948   6.491   3.231   7.192
 1463TIP3    H225949   6.407   3.117   7.139
 1464TIP3   OH225950   2.805   0.027   0.891
 1464TIP3    H125951   2.763   6.774   0.972
 1464TIP3    H225952   2.737   0.076   0.845
 1465TIP3   OH225953   2.656   4.309   7.674
 1465TIP3    H125954   2.711   4.277   7.603
 1465TIP3    H225955   2.590   4.363   7.632
 1466TIP3   OH225956   4.957   3.628   0.777
 1466TIP3    H125957   4.898   3.702   0.764
 1466TIP3    H225958   4.969   3.592   0.689
 1467TIP3   OH225959   5.342   3.461   6.832
 1467TIP3    H125960   5.248   3.471   6.844
 1467TIP3    H225961   5.366   3.528   6.769
 1468TIP3   OH225962   5.919   3.536   7.574
 1468TIP3    H125963   5.974   3.550   7.651
 1468TIP3    H225964   5.980   3.532   7.501
 1469TIP3   OH225965   2.585   6.504   8.188
 1469TIP3    H125966   2.599   6.411   8.176
 1469TIP3    H225967   2.666   6.536   8.228
 1470TIP3   OH225968   0.387   2.372   8.518
 1470TIP3    H125969   0.449   2.438   8.487
 1470TIP3    H225970   0.301   2.409   8.502
 1471TIP3   OH225971   6.172   0.671   7.991
 1471TIP3    H125972   6.086   0.700   7.961
 1471TIP3    H225973   6.168   0.575   7.988
 1472TIP3   OH225974   1.490   5.046   8.816
 1472TIP3    H125975   1.535   4.963   8.834
 1472TIP3    H225976   1.403   5.020   8.787
 1473TIP3   OH225977   2.107   1.472   8.470
 1473TIP3    H125978   2.172   1.403   8.481
 1473TIP3    H225979   2.158   1.550   8.449
 1474TIP3   OH225980   0.816   2.860   0.158
 1474TIP3    H125981   0.854   2.772   0.151
 1474TIP3    H225982   0.892   2.917   0.173
 1475TIP3   OH225983   2.429   5.893   7.741
 1475TIP3    H125984   2.383   5.976   7.729
 1475TIP3    H225985   2.443   5.887   7.835
 1476TIP3   OH225986   1.876   6.004   7.736
 1476TIP3    H125987   1.868   5.984   7.829
 1476TIP3    H225988   1.835   6.090   7.726
 1477TIP3   OH225989   0.626   6.324   8.750
 1477TIP3    H125990   0.578   6.255   8.706
 1477TIP3    H225991   0.668   6.373   8.679
 1478TIP3   OH225992   0.580   3.270   7.722
 1478TIP3    H125993   0.529   3.340   7.680
 1478TIP3    H225994   0.632   3.234   7.650
 1479TIP3   OH225995   1.960   6.578   1.075
 1479TIP3    H125996   1.983   6.650   1.133
 1479TIP3    H225997   1.866   6.565   1.088
 1480TIP3   OH225998   5.222   3.969   1.466
 1480TIP3    H125999   5.161   4.029   1.422
 1480TIP3    H226000   5.173   3.887   1.475
 1481TIP3   OH226001   5.332   3.012   0.927
 1481TIP3    H126002   5.343   3.090   0.874
 1481TIP3    H226003   5.270   2.958   0.877
 1482TIP3   OH226004   1.840   2.688   6.499
 1482TIP3    H126005   1.881   2.601   6.495
 1482TIP3    H226006   1.872   2.733   6.420
 1483TIP3   OH226007   0.235   1.967   1.122
 1483TIP3    H126008   0.170   1.907   1.158
 1483TIP3    H226009   0.217   1.968   1.028
 1484TIP3   OH226010   3.846   0.219   7.381
 1484TIP3    H126011   3.754   0.247   7.391
 1484TIP3    H226012   3.865   0.169   7.461
 1485TIP3   OH226013   5.511   0.850   8.254
 1485TIP3    H126014   5.527   0.839   8.160
 1485TIP3    H226015   5.530   0.764   8.292
 1486TIP3   OH226016   1.162   0.264   7.325
 1486TIP3    H126017   1.124   0.198   7.267
 1486TIP3    H226018   1.107   0.342   7.312
 1487TIP3   OH226019   3.914   3.583   7.020
 1487TIP3    H126020   3.923   3.675   6.995
 1487TIP3    H226021   3.822   3.563   7.001
 1488TIP3   OH226022   1.732   0.867   8.622
 1488TIP3    H126023   1.738   0.935   8.555
 1488TIP3    H226024   1.728   0.785   8.573
 1489TIP3   OH226025   1.144   0.734   7.125
 1489TIP3    H126026   1.161   0.682   7.047
 1489TIP3    H226027   1.204   0.808   7.118
 1490TIP3   OH226028   5.977   4.477   0.535
 1490TIP3    H126029   6.066   4.492   0.565
 1490TIP3    H226030   5.964   4.383   0.542
 1491TIP3   OH226031   6.504   0.330   1.476
 1491TIP3    H126032   6.592   0.354   1.445
 1491TIP3    H226033   6.461   0.292   1.399
 1492TIP3   OH226034   4.627   3.657   0.890
 1492TIP3    H126035   4.687   3.584   0.874
 1492TIP3    H226036   4.620   3.702   0.806
 1493TIP3   OH226037   5.552   6.600   7.554
 1493TIP3    H126038   5.619   6.597   7.622
 1493TIP3    H226039   5.601   6.595   7.472
 1494TIP3   OH226040   6.006   5.333   7.347
 1494TIP3    H126041   6.042   5.362   7.263
 1494TIP3    H226042   5.918   5.301   7.326
 1495TIP3   OH226043   1.797   5.888   1.915
 1495TIP3    H126044   1.854   5.863   1.842
 1495TIP3    H226045   1.834   5.970   1.948
 1496TIP3   OH226046   4.561   1.245   1.327
 1496TIP3    H126047   4.477   1.220   1.287
 1496TIP3    H226048   4.594   1.315   1.270
 1497TIP3   OH226049   5.773   2.098   1.628
 1497TIP3    H126050   5.765   2.003   1.639
 1497TIP3    H226051   5.783   2.111   1.534
 1498TIP3   OH226052   4.051   3.365   0.110
 1498TIP3    H126053   4.110   3.369   0.185
 1498TIP3    H226054   4.002   3.284   0.122
 1499TIP3   OH226055   5.696   0.104   6.521
 1499TIP3    H126056   5.721   0.184   6.476
 1499TIP3    H226057   5.760   0.039   6.493
 1500TIP3   OH226058   5.857   0.241   6.990
 1500TIP3    H126059   5.870   0.304   6.919
 1500TIP3    H226060   5.835   0.159   6.945
 1501TIP3   OH226061   6.593   6.640   7.530
 1501TIP3    H126062   6.609   6.724   7.487
 1501TIP3    H226063   6.500   6.622   7.513
 1502TIP3   OH226064   4.864   6.199   6.661
 1502TIP3    H126065   4.805   6.126   6.643
 1502TIP3    H226066   4.868   6.203   6.756
 1503TIP3   OH226067   3.783   2.174   8.245
 1503TIP3    H126068   3.739   2.125   8.314
 1503TIP3    H226069   3.815   2.253   8.289
 1504TIP3   OH226070   1.876   3.868   6.720
 1504TIP3    H126071   1.822   3.833   6.790
 1504TIP3    H226072   1.815   3.912   6.661
 1505TIP3   OH226073   6.124   1.108   1.883
 1505TIP3    H126074   6.144   1.015   1.876
 1505TIP3    H226075   6.177   1.139   1.957
 1506TIP3   OH226076   3.389   0.469   7.306
 1506TIP3    H126077   3.361   0.413   7.233
 1506TIP3    H226078   3.313   0.471   7.364
 1507TIP3   OH226079   4.296   1.147   1.318
 1507TIP3    H126080   4.250   1.183   1.394
 1507TIP3    H226081   4.313   1.056   1.341
 1508TIP3   OH226082   6.405   4.451   6.222
 1508TIP3    H126083   6.415   4.478   6.313
 1508TIP3    H226084   6.341   4.511   6.186
 1509TIP3   OH226085   4.262   1.652   1.915
 1509TIP3    H126086   4.347   1.695   1.902
 1509TIP3    H226087   4.276   1.594   1.989
 1510TIP3   OH226088   1.472   6.185   2.266
 1510TIP3    H126089   1.556   6.232   2.271
 1510TIP3    H226090   1.496   6.093   2.265
 1511TIP3   OH226091   1.068   3.139   1.753
 1511TIP3    H126092   1.140   3.096   1.708
 1511TIP3    H226093   1.006   3.069   1.772
 1512TIP3   OH226094   1.449   3.919   7.388
 1512TIP3    H126095   1.446   3.823   7.393
 1512TIP3    H226096   1.415   3.939   7.301
 1513TIP3   OH226097   2.778   3.611   0.986
 1513TIP3    H126098   2.846   3.677   0.995
 1513TIP3    H226099   2.734   3.610   1.071
 1514TIP3   OH226100   3.407   2.520   8.837
 1514TIP3    H126101   3.322   2.518   8.793
 1514TIP3    H226102   3.471   2.523   8.765
 1515TIP3   OH226103   5.630   6.409   7.358
 1515TIP3    H126104   5.668   6.380   7.441
 1515TIP3    H226105   5.551   6.356   7.347
 1516TIP3   OH226106   0.610   5.848   0.724
 1516TIP3    H126107   0.602   5.919   0.660
 1516TIP3    H226108   0.524   5.806   0.724
 1517TIP3   OH226109   4.277   1.091   8.581
 1517TIP3    H126110   4.223   1.153   8.531
 1517TIP3    H226111   4.263   1.116   8.672
 1518TIP3   OH226112   2.632   5.517   0.102
 1518TIP3    H126113   2.599   5.555   0.020
 1518TIP3    H226114   2.586   5.434   0.110
 1519TIP3   OH226115   3.400   2.593   2.201
 1519TIP3    H126116   3.479   2.580   2.255
 1519TIP3    H226117   3.388   2.688   2.199
 1520TIP3   OH226118   4.318   4.027   6.879
 1520TIP3    H126119   4.408   4.035   6.847
 1520TIP3    H226120   4.291   4.116   6.898
 1521TIP3   OH226121   3.045   5.875   7.466
 1521TIP3    H126122   3.037   5.797   7.521
 1521TIP3    H226123   3.139   5.887   7.454
 1522TIP3   OH226124   4.342   6.076   1.562
 1522TIP3    H126125   4.326   6.055   1.470
 1522TIP3    H226126   4.418   6.024   1.587
 1523TIP3   OH226127   4.760   5.427   0.795
 1523TIP3    H126128   4.724   5.356   0.742
 1523TIP3    H226129   4.855   5.419   0.786
 1524TIP3   OH226130   0.312   1.950   6.627
 1524TIP3    H126131   0.289   2.037   6.659
 1524TIP3    H226132   0.228   1.906   6.614
 1525TIP3   OH226133   3.545   4.167   7.386
 1525TIP3    H126134   3.641   4.169   7.387
 1525TIP3    H226135   3.520   4.226   7.316
 1526TIP3   OH226136   6.776   6.477   6.780
 1526TIP3    H126137   6.758   6.403   6.838
 1526TIP3    H226138   6.693   6.524   6.774
 1527TIP3   OH226139   0.530   2.172   0.955
 1527TIP3    H126140   0.616   2.150   0.918
 1527TIP3    H226141   0.483   2.089   0.958
 1528TIP3   OH226142   5.407   0.728   0.376
 1528TIP3    H126143   5.451   0.668   0.437
 1528TIP3    H226144   5.324   0.749   0.420
 1529TIP3   OH226145   5.708   2.436   8.255
 1529TIP3    H126146   5.657   2.412   8.333
 1529TIP3    H226147   5.754   2.516   8.280
 1530TIP3   OH226148   5.405   3.609   0.718
 1530TIP3    H126149   5.473   3.591   0.783
 1530TIP3    H226150   5.453   3.647   0.644
 1531TIP3   OH226151   1.391   5.193   0.131
 1531TIP3    H126152   1.322   5.258   0.117
 1531TIP3    H226153   1.399   5.148   0.047
 1532TIP3   OH226154   0.209   1.051   0.750
 1532TIP3    H126155   0.296   1.026   0.718
 1532TIP3    H226156   0.224   1.087   0.837
 1533TIP3   OH226157   6.538   0.125   0.252
 1533TIP3    H126158   6.471   0.160   0.193
 1533TIP3    H226159   6.491   0.067   0.312
 1534TIP3   OH226160   0.565   1.563   0.427
 1534TIP3    H126161   0.549   1.511   0.349
 1534TIP3    H226162   0.582   1.651   0.395
 1535TIP3   OH226163   4.243   1.353   8.284
 1535TIP3    H126164   4.183   1.323   8.353
 1535TIP3    H226165   4.298   1.277   8.265
 1536TIP3   OH226166   2.246   2.999   2.909
 1536TIP3    H126167   2.262   2.910   2.878
 1536TIP3    H226168   2.310   3.053   2.864
 1537TIP3   OH226169   2.265   0.654   5.955
 1537TIP3    H126170   2.245   0.714   6.027
 1537TIP3    H226171   2.334   0.698   5.906
 1538TIP3   OH226172   1.612   4.927   2.262
 1538TIP3    H126173   1.591   5.019   2.278
 1538TIP3    H226174   1.688   4.910   2.319
 1539TIP3   OH226175   6.605   0.761   7.093
 1539TIP3    H126176   6.626   0.699   7.163
 1539TIP3    H226177   6.684   0.815   7.084
 1540TIP3   OH226178   4.696   6.624   2.042
 1540TIP3    H126179   4.657   6.608   2.128
 1540TIP3    H226180   4.621   6.625   1.981
 1541TIP3   OH226181   2.618   6.336   7.729
 1541TIP3    H126182   2.572   6.332   7.645
 1541TIP3    H226183   2.558   6.381   7.788
 1542TIP3   OH226184   2.619   1.386   6.944
 1542TIP3    H126185   2.564   1.450   6.899
 1542TIP3    H226186   2.699   1.383   6.891
 1543TIP3   OH226187   1.338   1.609   6.193
 1543TIP3    H126188   1.273   1.562   6.245
 1543TIP3    H226189   1.291   1.681   6.152
 1544TIP3   OH226190   3.726   1.466   8.460
 1544TIP3    H126191   3.737   1.405   8.533
 1544TIP3    H226192   3.795   1.443   8.398
 1545TIP3   OH226193   5.541   1.198   7.800
 1545TIP3    H126194   5.504   1.273   7.754
 1545TIP3    H226195   5.585   1.147   7.732
 1546TIP3   OH226196   6.290   0.180   2.269
 1546TIP3    H126197   6.207   0.136   2.289
 1546TIP3    H226198   6.276   0.271   2.295
 1547TIP3   OH226199   2.349   0.498   1.379
 1547TIP3    H126200   2.360   0.407   1.350
 1547TIP3    H226201   2.290   0.536   1.314
 1548TIP3   OH226202   5.855   3.169   7.731
 1548TIP3    H126203   5.898   3.226   7.795
 1548TIP3    H226204   5.908   3.177   7.652
 1549TIP3   OH226205   6.250   5.895   0.983
 1549TIP3    H126206   6.224   5.987   0.994
 1549TIP3    H226207   6.179   5.856   0.932
 1550TIP3   OH226208   5.157   0.576   1.698
 1550TIP3    H126209   5.215   0.639   1.740
 1550TIP3    H226210   5.212   0.498   1.685
 1551TIP3   OH226211   0.128   6.622   8.171
 1551TIP3    H126212   0.168   6.548   8.126
 1551TIP3    H226213   0.202   6.671   8.207
 1552TIP3   OH226214   3.325   0.771   1.533
 1552TIP3    H126215   3.310   0.710   1.461
 1552TIP3    H226216   3.391   0.832   1.499
 1553TIP3   OH226217   4.734   5.925   1.505
 1553TIP3    H126218   4.826   5.900   1.518
 1553TIP3    H226219   4.727   6.012   1.545
 1554TIP3   OH226220   0.442   3.998   6.947
 1554TIP3    H126221   0.467   3.906   6.935
 1554TIP3    H226222   0.421   4.029   6.859
 1555TIP3   OH226223   4.667   2.486   0.637
 1555TIP3    H126224   4.713   2.537   0.704
 1555TIP3    H226225   4.677   2.395   0.665
 1556TIP3   OH226226   5.173   4.665   1.674
 1556TIP3    H126227   5.174   4.613   1.594
 1556TIP3    H226228   5.157   4.602   1.744
 1557TIP3   OH226229   2.152   5.077   1.475
 1557TIP3    H126230   2.224   5.139   1.468
 1557TIP3    H226231   2.155   5.048   1.566
 1558TIP3   OH226232   6.462   6.031   7.510
 1558TIP3    H126233   6.470   5.996   7.421
 1558TIP3    H226234   6.397   6.100   7.503
 1559TIP3   OH226235   2.475   0.695   0.719
 1559TIP3    H126236   2.489   0.678   0.812
 1559TIP3    H226237   2.430   0.617   0.687
 1560TIP3   OH226238   4.975   3.283   6.662
 1560TIP3    H126239   4.988   3.191   6.686
 1560TIP3    H226240   4.988   3.285   6.567
 1561TIP3   OH226241   3.555   4.198   8.019
 1561TIP3    H126242   3.503   4.166   8.093
 1561TIP3    H226243   3.527   4.144   7.945
 1562TIP3   OH226244   2.993   2.696   8.212
 1562TIP3    H126245   2.977   2.604   8.192
 1562TIP3    H226246   2.917   2.742   8.177
 1563TIP3   OH226247   2.848   5.066   0.279
 1563TIP3    H126248   2.846   4.988   0.335
 1563TIP3    H226249   2.919   5.050   0.218
 1564TIP3   OH226250   2.028   4.709   0.801
 1564TIP3    H126251   1.974   4.784   0.779
 1564TIP3    H226252   2.021   4.701   0.897
 1565TIP3   OH226253   0.015   0.718   8.479
 1565TIP3    H126254   6.711   0.701   8.529
 1565TIP3    H226255   0.027   0.639   8.426
 1566TIP3   OH226256   4.192   3.400   1.772
 1566TIP3    H126257   4.239   3.319   1.794
 1566TIP3    H226258   4.261   3.466   1.763
 1567TIP3   OH226259   1.449   5.385   6.916
 1567TIP3    H126260   1.461   5.388   6.822
 1567TIP3    H226261   1.432   5.293   6.936
 1568TIP3   OH226262   4.457   1.411   8.677
 1568TIP3    H126263   4.499   1.494   8.655
 1568TIP3    H226264   4.364   1.433   8.684
 1569TIP3   OH226265   1.877   0.623   8.242
 1569TIP3    H126266   1.923   0.570   8.177
 1569TIP3    H226267   1.798   0.573   8.262
 1570TIP3   OH226268   0.686   1.110   0.078
 1570TIP3    H126269   0.607   1.065   0.109
 1570TIP3    H226270   0.704   1.070   8.906
 1571TIP3   OH226271   5.505   1.022   8.749
 1571TIP3    H126272   5.456   1.087   8.799
 1571TIP3    H226273   5.445   0.993   8.681
 1572TIP3   OH226274   3.346   3.837   1.493
 1572TIP3    H126275   3.380   3.748   1.496
 1572TIP3    H226276   3.270   3.832   1.435
 1573TIP3   OH226277   5.908   2.815   1.512
 1573TIP3    H126278   5.961   2.886   1.550
 1573TIP3    H226279   5.971   2.745   1.495
 1574TIP3   OH226280   5.198   1.754   7.958
 1574TIP3    H126281   5.125   1.703   7.992
 1574TIP3    H226282   5.271   1.733   8.017
 1575TIP3   OH226283   0.590   0.752   7.428
 1575TIP3    H126284   0.683   0.730   7.420
 1575TIP3    H226285   0.547   0.669   7.449
 1576TIP3   OH226286   6.695   5.365   1.208
 1576TIP3    H126287   6.766   5.390   1.150
 1576TIP3    H226288   6.732   5.298   1.265
 1577TIP3   OH226289   2.168   1.659   1.739
 1577TIP3    H126290   2.105   1.728   1.762
 1577TIP3    H226291   2.168   1.658   1.644
 1578TIP3   OH226292   3.343   0.274   7.905
 1578TIP3    H126293   3.294   0.281   7.822
 1578TIP3    H226294   3.275   0.276   7.972
 1579TIP3   OH226295   3.782   0.674   7.204
 1579TIP3    H126296   3.820   0.694   7.118
 1579TIP3    H226297   3.688   0.669   7.188
 1580TIP3   OH226298   4.101   6.416   1.501
 1580TIP3    H126299   4.136   6.353   1.563
 1580TIP3    H226300   4.072   6.364   1.427
 1581TIP3   OH226301   5.889   4.201   0.575
 1581TIP3    H126302   5.804   4.177   0.613
 1581TIP3    H226303   5.905   4.134   0.509
 1582TIP3   OH226304   0.629   4.110   8.692
 1582TIP3    H126305   0.623   4.159   8.773
 1582TIP3    H226306   0.539   4.085   8.671
 1583TIP3   OH226307   1.488   2.853   8.257
 1583TIP3    H126308   1.547   2.790   8.296
 1583TIP3    H226309   1.505   2.847   8.163
 1584TIP3   OH226310   0.428   6.754   0.979
 1584TIP3    H126311   0.395   6.687   1.039
 1584TIP3    H226312   0.453   0.050   1.036
 1585TIP3   OH226313   3.073   2.470   0.085
 1585TIP3    H126314   2.997   2.438   0.036
 1585TIP3    H226315   3.143   2.474   0.019
 1586TIP3   OH226316   2.856   0.009   8.578
 1586TIP3    H126317   2.881   0.056   8.499
 1586TIP3    H226318   2.790   6.723   8.549
 1587TIP3   OH226319   0.113   5.809   1.616
 1587TIP3    H126320   0.183   5.861   1.657
 1587TIP3    H226321   0.034   5.832   1.665
 1588TIP3   OH226322   4.833   5.324   2.378
 1588TIP3    H126323   4.818   5.231   2.393
 1588TIP3    H226324   4.791   5.368   2.452
 1589TIP3   OH226325   5.557   3.218   0.924
 1589TIP3    H126326   5.576   3.149   0.860
 1589TIP3    H226327   5.575   3.177   1.009
 1590TIP3   OH226328   6.109   5.603   6.395
 1590TIP3    H126329   6.100   5.691   6.359
 1590TIP3    H226330   6.104   5.545   6.320
 1591TIP3   OH226331   1.273   4.671   8.790
 1591TIP3    H126332   1.331   4.595   8.791
 1591TIP3    H226333   1.323   4.739   8.743
 1592TIP3   OH226334   0.714   4.863   8.436
 1592TIP3    H126335   0.623   4.892   8.446
 1592TIP3    H226336   0.725   4.795   8.502
 1593TIP3   OH226337   2.242   0.824   6.205
 1593TIP3    H126338   2.196   0.813   6.289
 1593TIP3    H226339   2.334   0.807   6.226
 1594TIP3   OH226340   1.615   1.635   7.803
 1594TIP3    H126341   1.528   1.642   7.841
 1594TIP3    H226342   1.609   1.685   7.721
 1595TIP3   OH226343   1.890   5.410   1.757
 1595TIP3    H126344   1.832   5.470   1.710
 1595TIP3    H226345   1.831   5.347   1.797
 1596TIP3   OH226346   5.063   1.334   2.205
 1596TIP3    H126347   4.996   1.312   2.141
 1596TIP3    H226348   5.014   1.371   2.279
 1597TIP3   OH226349   0.068   2.782   1.045
 1597TIP3    H126350   0.144   2.735   1.078
 1597TIP3    H226351   0.021   2.808   1.124
 1598TIP3   OH226352   1.764   5.233   7.035
 1598TIP3    H126353   1.859   5.226   7.038
 1598TIP3    H226354   1.741   5.213   6.944
 1599TIP3   OH226355   0.639   6.191   1.365
 1599TIP3    H126356   0.616   6.163   1.454
 1599TIP3    H226357   0.663   6.110   1.320
 1600TIP3   OH226358   2.807   2.279   7.845
 1600TIP3    H126359   2.853   2.363   7.838
 1600TIP3    H226360   2.837   2.243   7.929
 1601TIP3   OH226361   4.799   0.367   8.029
 1601TIP3    H126362   4.872   0.369   7.967
 1601TIP3    H226363   4.823   0.431   8.096
 1602TIP3   OH226364   0.121   1.839   8.557
 1602TIP3    H126365   0.108   1.893   8.478
 1602TIP3    H226366   0.210   1.859   8.585
 1603TIP3   OH226367   0.835   5.674   0.203
 1603TIP3    H126368   0.850   5.631   0.286
 1603TIP3    H226369   0.745   5.651   0.179
 1604TIP3   OH226370   0.485   4.322   7.805
 1604TIP3    H126371   0.525   4.387   7.746
 1604TIP3    H226372   0.551   4.309   7.873
 1605TIP3   OH226373   5.769   0.015   0.156
 1605TIP3    H126374   5.734   6.707   0.181
 1605TIP3    H226375   5.858   0.016   0.191
 1606TIP3   OH226376   6.435   5.189   6.594
 1606TIP3    H126377   6.364   5.191   6.657
 1606TIP3    H226378   6.455   5.281   6.577
 1607TIP3   OH226379   4.180   2.451   0.214
 1607TIP3    H126380   4.261   2.407   0.190
 1607TIP3    H226381   4.140   2.476   0.130
 1608TIP3   OH226382   4.348   2.361   2.767
 1608TIP3    H126383   4.435   2.373   2.730
 1608TIP3    H226384   4.288   2.388   2.698
 1609TIP3   OH226385   5.128   1.387   1.616
 1609TIP3    H126386   5.186   1.443   1.565
 1609TIP3    H226387   5.077   1.339   1.550
 1610TIP3   OH226388   0.752   1.992   1.172
 1610TIP3    H126389   0.704   1.935   1.231
 1610TIP3    H226390   0.687   2.019   1.106
 1611TIP3   OH226391   5.734   5.213   1.683
 1611TIP3    H126392   5.742   5.206   1.778
 1611TIP3    H226393   5.776   5.134   1.649
 1612TIP3   OH226394   0.007   5.535   0.269
 1612TIP3    H126395   0.094   5.570   0.289
 1612TIP3    H226396   6.760   5.483   0.346
 1613TIP3   OH226397   5.658   4.784   8.147
 1613TIP3    H126398   5.708   4.830   8.079
 1613TIP3    H226399   5.719   4.719   8.182
 1614TIP3   OH226400   1.275   6.544   2.121
 1614TIP3    H126401   1.337   6.534   2.193
 1614TIP3    H226402   1.228   6.461   2.118
 1615TIP3   OH226403   3.540   6.496   8.237
 1615TIP3    H126404   3.523   6.500   8.143
 1615TIP3    H226405   3.590   6.576   8.255
 1616TIP3   OH226406   1.653   5.771   0.857
 1616TIP3    H126407   1.714   5.845   0.851
 1616TIP3    H226408   1.708   5.694   0.840
 1617TIP3   OH226409   4.550   5.308   7.330
 1617TIP3    H126410   4.501   5.266   7.259
 1617TIP3    H226411   4.526   5.258   7.408
 1618TIP3   OH226412   0.202   6.687   0.092
 1618TIP3    H126413   0.160   6.618   0.041
 1618TIP3    H226414   0.148   6.764   0.078
 1619TIP3   OH226415   2.756   6.606   7.531
 1619TIP3    H126416   2.660   6.611   7.526
 1619TIP3    H226417   2.774   6.512   7.537
 1620TIP3   OH226418   4.915   6.668   7.974
 1620TIP3    H126419   4.993   6.674   8.029
 1620TIP3    H226420   4.919   6.580   7.937
 1621TIP3   OH226421   2.248   5.465   7.503
 1621TIP3    H126422   2.331   5.506   7.479
 1621TIP3    H226423   2.182   5.509   7.449
 1622TIP3   OH226424   4.035   1.783   2.369
 1622TIP3    H126425   3.946   1.755   2.391
 1622TIP3    H226426   4.071   1.816   2.451
 1623TIP3   OH226427   3.053   5.039   7.590
 1623TIP3    H126428   3.058   5.135   7.592
 1623TIP3    H226429   2.960   5.020   7.603
 1624TIP3   OH226430   3.762   3.047   8.751
 1624TIP3    H126431   3.680   3.037   8.799
 1624TIP3    H226432   3.821   3.091   8.813
 1625TIP3   OH226433   1.787   3.460   8.849
 1625TIP3    H126434   1.746   3.500   8.772
 1625TIP3    H226435   1.745   3.374   8.855
 1626TIP3   OH226436   0.503   0.950   1.363
 1626TIP3    H126437   0.519   0.952   1.269
 1626TIP3    H226438   0.480   1.040   1.386
 1627TIP3   OH226439   2.071   1.552   8.171
 1627TIP3    H126440   2.076   1.497   8.249
 1627TIP3    H226441   2.127   1.508   8.107
 1628TIP3   OH226442   0.685   3.119   8.863
 1628TIP3    H126443   0.727   3.197   8.827
 1628TIP3    H226444   0.756   3.068   8.900
 1629TIP3   OH226445   6.010   5.548   1.265
 1629TIP3    H126446   6.031   5.480   1.202
 1629TIP3    H226447   5.937   5.596   1.226
 1630TIP3   OH226448   4.677   5.195   8.586
 1630TIP3    H126449   4.677   5.134   8.512
 1630TIP3    H226450   4.768   5.226   8.592
 1631TIP3   OH226451   2.006   4.884   1.340
 1631TIP3    H126452   2.019   4.975   1.367
 1631TIP3    H226453   2.088   4.859   1.297
 1632TIP3   OH226454   4.786   3.948   0.620
 1632TIP3    H126455   4.716   3.883   0.623
 1632TIP3    H226456   4.748   4.021   0.572
 1633TIP3   OH226457   0.856   2.203   8.413
 1633TIP3    H126458   0.914   2.141   8.368
 1633TIP3    H226459   0.800   2.148   8.468
 1634TIP3   OH226460   0.088   3.895   1.687
 1634TIP3    H126461   0.120   3.970   1.738
 1634TIP3    H226462   0.126   3.908   1.600
 1635TIP3   OH226463   5.989   0.573   0.446
 1635TIP3    H126464   6.042   0.528   0.512
 1635TIP3    H226465   6.009   0.665   0.458
 1636TIP3   OH226466   0.820   2.247   0.472
 1636TIP3    H126467   0.827   2.186   0.398
 1636TIP3    H226468   0.726   2.265   0.479
 1637TIP3   OH226469   0.677   4.274   8.471
 1637TIP3    H126470   0.679   4.216   8.547
 1637TIP3    H226471   0.666   4.214   8.397
 1638TIP3   OH226472   4.662   4.063   7.659
 1638TIP3    H126473   4.705   3.984   7.626
 1638TIP3    H226474   4.629   4.106   7.580
 1639TIP3   OH226475   6.300   4.691   2.367
 1639TIP3    H126476   6.334   4.779   2.351
 1639TIP3    H226477   6.375   4.634   2.353
 1640TIP3   OH226478   0.243   0.347   0.408
 1640TIP3    H126479   0.265   0.288   0.337
 1640TIP3    H226480   0.298   0.319   0.482
 1641TIP3   OH226481   3.320   1.090   6.656
 1641TIP3    H126482   3.314   1.013   6.712
 1641TIP3    H226483   3.412   1.094   6.630
 1642TIP3   OH226484   2.284   3.087   0.501
 1642TIP3    H126485   2.338   3.108   0.425
 1642TIP3    H226486   2.275   3.170   0.548
 1643TIP3   OH226487   1.418   1.518   7.615
 1643TIP3    H126488   1.479   1.556   7.552
 1643TIP3    H226489   1.362   1.591   7.641
 1644TIP3   OH226490   2.894   5.728   8.292
 1644TIP3    H126491   2.925   5.813   8.259
 1644TIP3    H226492   2.833   5.751   8.363
 1645TIP3   OH226493   0.324   4.112   6.707
 1645TIP3    H126494   0.312   4.050   6.635
 1645TIP3    H226495   0.241   4.111   6.753
 1646TIP3   OH226496   2.123   3.828   0.743
 1646TIP3    H126497   2.077   3.879   0.677
 1646TIP3    H226498   2.137   3.889   0.816
 1647TIP3   OH226499   4.228   5.952   8.228
 1647TIP3    H126500   4.206   5.928   8.318
 1647TIP3    H226501   4.310   6.001   8.235
 1648TIP3   OH226502   6.766   1.646   0.141
 1648TIP3    H126503   6.772   1.632   0.046
 1648TIP3    H226504   0.076   1.677   0.167
 1649TIP3   OH226505   5.107   4.045   0.326
 1649TIP3    H126506   5.196   4.073   0.305
 1649TIP3    H226507   5.068   4.121   0.370
 1650TIP3   OH226508   1.044   0.099   8.580
 1650TIP3    H126509   1.123   0.148   8.557
 1650TIP3    H226510   1.051   0.085   8.675
 1651TIP3   OH226511   2.402   2.510   0.539
 1651TIP3    H126512   2.442   2.580   0.590
 1651TIP3    H226513   2.396   2.545   0.450
 1652TIP3   OH226514   1.664   2.416   1.504
 1652TIP3    H126515   1.621   2.450   1.583
 1652TIP3    H226516   1.750   2.388   1.534
 1653TIP3   OH226517   5.397   0.667   6.903
 1653TIP3    H126518   5.448   0.645   6.981
 1653TIP3    H226519   5.341   0.590   6.889
 1654TIP3   OH226520   6.615   4.655   6.463
 1654TIP3    H126521   6.688   4.700   6.421
 1654TIP3    H226522   6.558   4.725   6.494
 1655TIP3   OH226523   4.253   6.071   0.735
 1655TIP3    H126524   4.282   6.155   0.699
 1655TIP3    H226525   4.225   6.021   0.658
 1656TIP3   OH226526   2.777   2.806   8.097
 1656TIP3    H126527   2.696   2.755   8.108
 1656TIP3    H226528   2.774   2.870   8.169
 1657TIP3   OH226529   1.222   2.480   0.399
 1657TIP3    H126530   1.162   2.446   0.465
 1657TIP3    H226531   1.166   2.530   0.339
 1658TIP3   OH226532   3.796   3.353   8.587
 1658TIP3    H126533   3.744   3.365   8.508
 1658TIP3    H226534   3.734   3.319   8.652
 1659TIP3   OH226535   2.857   3.703   7.945
 1659TIP3    H126536   2.941   3.674   7.981
 1659TIP3    H226537   2.865   3.798   7.940
 1660TIP3   OH226538   0.580   6.609   0.620
 1660TIP3    H126539   0.641   6.659   0.567
 1660TIP3    H226540   0.534   6.552   0.558
 1661TIP3   OH226541   5.834   3.372   0.865
 1661TIP3    H126542   5.865   3.299   0.919
 1661TIP3    H226543   5.891   3.371   0.788
 1662TIP3   OH226544   6.146   5.004   6.874
 1662TIP3    H126545   6.121   5.085   6.830
 1662TIP3    H226546   6.148   4.939   6.804
 1663TIP3   OH226547   1.631   5.687   1.129
 1663TIP3    H126548   1.692   5.744   1.084
 1663TIP3    H226549   1.589   5.743   1.194
 1664TIP3   OH226550   1.471   5.299   1.659
 1664TIP3    H126551   1.487   5.362   1.729
 1664TIP3    H226552   1.376   5.294   1.651
 1665TIP3   OH226553   1.889   0.362   2.196
 1665TIP3    H126554   1.803   0.342   2.158
 1665TIP3    H226555   1.872   0.432   2.259
 1666TIP3   OH226556   0.816   3.648   1.472
 1666TIP3    H126557   0.812   3.734   1.514
 1666TIP3    H226558   0.814   3.667   1.378
 1667TIP3   OH226559   2.760   2.230   1.809
 1667TIP3    H126560   2.680   2.181   1.829
 1667TIP3    H226561   2.743   2.318   1.841
 1668TIP3   OH226562   0.250   3.183   1.328
 1668TIP3    H126563   0.171   3.192   1.275
 1668TIP3    H226564   0.275   3.092   1.319
 1669TIP3   OH226565   5.930   2.655   0.214
 1669TIP3    H126566   5.982   2.732   0.193
 1669TIP3    H226567   5.941   2.644   0.309
 1670TIP3   OH226568   6.641   5.933   1.500
 1670TIP3    H126569   6.565   5.891   1.459
 1670TIP3    H226570   6.717   5.886   1.464
 1671TIP3   OH226571   3.752   6.342   6.494
 1671TIP3    H126572   3.765   6.248   6.479
 1671TIP3    H226573   3.837   6.374   6.524
 1672TIP3   OH226574   4.751   1.709   7.199
 1672TIP3    H126575   4.704   1.722   7.281
 1672TIP3    H226576   4.816   1.779   7.197
 1673TIP3   OH226577   0.873   6.159   1.117
 1673TIP3    H126578   0.875   6.088   1.054
 1673TIP3    H226579   0.873   6.116   1.202
 1674TIP3   OH226580   2.273   3.436   0.915
 1674TIP3    H126581   2.218   3.512   0.895
 1674TIP3    H226582   2.224   3.389   0.982
 1675TIP3   OH226583   0.335   6.238   7.932
 1675TIP3    H126584   0.383   6.211   7.853
 1675TIP3    H226585   0.246   6.207   7.918
 1676TIP3   OH226586   2.828   3.240   7.989
 1676TIP3    H126587   2.897   3.193   7.942
 1676TIP3    H226588   2.779   3.286   7.920
 1677TIP3   OH226589   4.189   4.377   1.977
 1677TIP3    H126590   4.146   4.379   2.062
 1677TIP3    H226591   4.218   4.286   1.967
 1678TIP3   OH226592   4.244   1.146   0.920
 1678TIP3    H126593   4.225   1.111   0.833
 1678TIP3    H226594   4.339   1.141   0.927
 1679TIP3   OH226595   5.786   3.776   1.921
 1679TIP3    H126596   5.753   3.691   1.950
 1679TIP3    H226597   5.871   3.785   1.962
 1680TIP3   OH226598   0.937   2.324   6.988
 1680TIP3    H126599   0.861   2.374   7.017
 1680TIP3    H226600   1.011   2.366   7.033
 1681TIP3   OH226601   4.107   2.800   1.633
 1681TIP3    H126602   4.174   2.867   1.650
 1681TIP3    H226603   4.024   2.845   1.648
 1682TIP3   OH226604   1.638   4.248   6.952
 1682TIP3    H126605   1.543   4.237   6.945
 1682TIP3    H226606   1.659   4.318   6.890
 1683TIP3   OH226607   6.684   6.190   8.139
 1683TIP3    H126608   6.628   6.114   8.155
 1683TIP3    H226609   6.772   6.153   8.134
 1684TIP3   OH226610   0.637   0.390   6.263
 1684TIP3    H126611   0.694   0.466   6.277
 1684TIP3    H226612   0.548   0.424   6.276
 1685TIP3   OH226613   1.956   0.335   8.403
 1685TIP3    H126614   1.869   0.376   8.396
 1685TIP3    H226615   2.000   0.384   8.472
 1686TIP3   OH226616   2.829   1.945   0.697
 1686TIP3    H126617   2.740   1.978   0.694
 1686TIP3    H226618   2.825   1.870   0.757
 1687TIP3   OH226619   3.918   0.023   6.780
 1687TIP3    H126620   3.959   6.745   6.847
 1687TIP3    H226621   3.985   0.032   6.712
 1688TIP3   OH226622   1.679   2.200   1.338
 1688TIP3    H126623   1.669   2.286   1.379
 1688TIP3    H226624   1.647   2.139   1.404
 1689TIP3   OH226625   6.411   4.250   1.328
 1689TIP3    H126626   6.455   4.309   1.267
 1689TIP3    H226627   6.339   4.212   1.277
 1690TIP3   OH226628   1.564   4.246   0.735
 1690TIP3    H126629   1.542   4.333   0.702
 1690TIP3    H226630   1.521   4.241   0.820
 1691TIP3   OH226631   5.334   6.587   1.461
 1691TIP3    H126632   5.388   6.556   1.533
 1691TIP3    H226633   5.264   6.636   1.504
 1692TIP3   OH226634   4.891   0.467   8.291
 1692TIP3    H126635   4.921   0.504   8.374
 1692TIP3    H226636   4.818   0.411   8.316
 1693TIP3   OH226637   0.019   0.330   7.074
 1693TIP3    H126638   6.759   0.243   7.089
 1693TIP3    H226639   6.765   0.354   6.987
 1694TIP3   OH226640   4.232   2.438   1.018
 1694TIP3    H126641   4.168   2.372   1.047
 1694TIP3    H226642   4.178   2.513   0.991
 1695TIP3   OH226643   4.906   3.866   0.390
 1695TIP3    H126644   4.881   3.897   0.477
 1695TIP3    H226645   4.965   3.933   0.357
 1696TIP3   OH226646   3.145   1.157   8.869
 1696TIP3    H126647   3.131   1.091   0.023
 1696TIP3    H226648   3.239   1.175   8.872
 1697TIP3   OH226649   1.165   6.318   1.218
 1697TIP3    H126650   1.152   6.223   1.217
 1697TIP3    H226651   1.178   6.339   1.310
 1698TIP3   OH226652   4.307   5.684   0.412
 1698TIP3    H126653   4.327   5.684   0.506
 1698TIP3    H226654   4.219   5.647   0.406
 1699TIP3   OH226655   5.443   2.352   7.981
 1699TIP3    H126656   5.371   2.386   7.928
 1699TIP3    H226657   5.461   2.421   8.045
 1700TIP3   OH226658   2.436   4.970   1.019
 1700TIP3    H126659   2.470   4.895   1.068
 1700TIP3    H226660   2.380   4.931   0.952
 1701TIP3   OH226661   4.327   0.600   0.512
 1701TIP3    H126662   4.233   0.584   0.516
 1701TIP3    H226663   4.352   0.578   0.422
 1702TIP3   OH226664   6.056   5.535   0.151
 1702TIP3    H126665   6.118   5.588   0.201
 1702TIP3    H226666   5.974   5.584   0.155
 1703TIP3   OH226667   1.301   3.258   1.017
 1703TIP3    H126668   1.376   3.220   0.971
 1703TIP3    H226669   1.287   3.342   0.974
 1704TIP3   OH226670   2.748   4.969   1.679
 1704TIP3    H126671   2.666   5.001   1.642
 1704TIP3    H226672   2.728   4.952   1.771
 1705TIP3   OH226673   2.959   3.797   0.989
 1705TIP3    H126674   3.024   3.813   0.920
 1705TIP3    H226675   3.010   3.796   1.070
 1706TIP3   OH226676   1.077   6.583   8.549
 1706TIP3    H126677   1.146   6.593   8.483
 1706TIP3    H226678   1.039   6.670   8.557
 1707TIP3   OH226679   4.525   1.710   2.157
 1707TIP3    H126680   4.462   1.738   2.224
 1707TIP3    H226681   4.532   1.615   2.168
 1708TIP3   OH226682   4.595   2.571   1.402
 1708TIP3    H126683   4.534   2.562   1.328
 1708TIP3    H226684   4.557   2.640   1.456
 1709TIP3   OH226685   1.091   0.286   1.282
 1709TIP3    H126686   1.127   0.206   1.243
 1709TIP3    H226687   1.167   0.329   1.321
 1710TIP3   OH226688   1.649   4.608   1.903
 1710TIP3    H126689   1.621   4.519   1.880
 1710TIP3    H226690   1.617   4.622   1.992
 1711TIP3   OH226691   1.593   1.675   6.308
 1711TIP3    H126692   1.647   1.616   6.256
 1711TIP3    H226693   1.503   1.657   6.279
 1712TIP3   OH226694   6.520   0.605   1.925
 1712TIP3    H126695   6.493   0.664   1.854
 1712TIP3    H226696   6.460   0.531   1.918
 1713TIP3   OH226697   5.785   4.972   0.158
 1713TIP3    H126698   5.801   4.958   0.251
 1713TIP3    H226699   5.700   4.931   0.142
 1714TIP3   OH226700   5.099   5.826   0.991
 1714TIP3    H126701   5.173   5.869   1.034
 1714TIP3    H226702   5.106   5.853   0.899
 1715TIP3   OH226703   4.149   3.552   6.622
 1715TIP3    H126704   4.168   3.504   6.542
 1715TIP3    H226705   4.200   3.507   6.689
 1716TIP3   OH226706   5.209   6.480   0.228
 1716TIP3    H126707   5.271   6.422   0.273
 1716TIP3    H226708   5.254   6.564   0.222
 1717TIP3   OH226709   2.708   0.759   7.276
 1717TIP3    H126710   2.723   0.745   7.183
 1717TIP3    H226711   2.764   0.695   7.320
 1718TIP3   OH226712   6.704   6.750   8.038
 1718TIP3    H126713   6.714   6.685   7.968
 1718TIP3    H226714   0.007   6.740   8.091
 1719TIP3   OH226715   5.139   2.803   1.816
 1719TIP3    H126716   5.136   2.832   1.907
 1719TIP3    H226717   5.058   2.754   1.804
 1720TIP3   OH226718   1.732   5.722   8.382
 1720TIP3    H126719   1.639   5.700   8.386
 1720TIP3    H226720   1.746   5.779   8.458
 1721TIP3   OH226721   5.755   0.330   0.071
 1721TIP3    H126722   5.663   0.347   0.050
 1721TIP3    H226723   5.766   0.236   0.058
 1722TIP3   OH226724   2.533   5.298   0.695
 1722TIP3    H126725   2.624   5.270   0.691
 1722TIP3    H226726   2.493   5.259   0.617
 1723TIP3   OH226727   5.632   5.576   7.906
 1723TIP3    H126728   5.545   5.568   7.866
 1723TIP3    H226729   5.662   5.663   7.880
 1724TIP3   OH226730   1.263   5.992   8.374
 1724TIP3    H126731   1.324   6.026   8.439
 1724TIP3    H226732   1.287   6.037   8.293
 1725TIP3   OH226733   2.057   0.240   6.678
 1725TIP3    H126734   2.088   0.330   6.672
 1725TIP3    H226735   2.137   0.188   6.688
 1726TIP3   OH226736   1.461   1.327   7.357
 1726TIP3    H126737   1.433   1.418   7.351
 1726TIP3    H226738   1.541   1.323   7.306
 1727TIP3   OH226739   5.841   5.073   1.042
 1727TIP3    H126740   5.856   5.152   1.094
 1727TIP3    H226741   5.861   5.100   0.952
 1728TIP3   OH226742   6.253   1.593   8.526
 1728TIP3    H126743   6.279   1.514   8.573
 1728TIP3    H226744   6.164   1.575   8.494
 1729TIP3   OH226745   3.644   3.276   7.322
 1729TIP3    H126746   3.665   3.285   7.229
 1729TIP3    H226747   3.616   3.185   7.331
 1730TIP3   OH226748   0.857   1.595   0.443
 1730TIP3    H126749   0.764   1.590   0.422
 1730TIP3    H226750   0.879   1.687   0.430
 1731TIP3   OH226751   6.164   5.739   1.378
 1731TIP3    H126752   6.106   5.668   1.351
 1731TIP3    H226753   6.108   5.799   1.427
 1732TIP3   OH226754   4.068   0.539   1.712
 1732TIP3    H126755   3.987   0.511   1.755
 1732TIP3    H226756   4.046   0.540   1.618
 1733TIP3   OH226757   1.295   0.161   1.632
 1733TIP3    H126758   1.305   0.130   1.542
 1733TIP3    H226759   1.218   0.217   1.629
 1734TIP3   OH226760   4.885   0.170   2.445
 1734TIP3    H126761   4.799   0.181   2.485
 1734TIP3    H226762   4.870   0.110   2.371
 1735TIP3   OH226763   5.866   5.910   0.903
 1735TIP3    H126764   5.940   5.849   0.898
 1735TIP3    H226765   5.821   5.899   0.819
 1736TIP3   OH226766   2.276   6.208   0.857
 1736TIP3    H126767   2.297   6.129   0.907
 1736TIP3    H226768   2.187   6.232   0.886
 1737TIP3   OH226769   6.301   0.843   8.389
 1737TIP3    H126770   6.237   0.914   8.387
 1737TIP3    H226771   6.361   0.862   8.318
 1738TIP3   OH226772   1.403   1.565   8.412
 1738TIP3    H126773   1.330   1.619   8.383
 1738TIP3    H226774   1.430   1.516   8.334
 1739TIP3   OH226775   0.265   4.355   2.157
 1739TIP3    H126776   0.220   4.419   2.102
 1739TIP3    H226777   0.323   4.308   2.097
 1740TIP3   OH226778   6.076   6.321   0.722
 1740TIP3    H126779   6.053   6.410   0.750
 1740TIP3    H226780   6.168   6.328   0.697
 1741TIP3   OH226781   4.650   3.648   8.469
 1741TIP3    H126782   4.628   3.680   8.382
 1741TIP3    H226783   4.743   3.668   8.479
 1742TIP3   OH226784   3.004   1.461   1.472
 1742TIP3    H126785   3.080   1.519   1.470
 1742TIP3    H226786   2.980   1.449   1.380
 1743TIP3   OH226787   1.360   5.487   8.181
 1743TIP3    H126788   1.432   5.436   8.218
 1743TIP3    H226789   1.372   5.575   8.217
 1744TIP3   OH226790   5.111   6.149   0.336
 1744TIP3    H126791   5.155   6.132   0.253
 1744TIP3    H226792   5.179   6.137   0.402
 1745TIP3   OH226793   0.795   1.012   0.519
 1745TIP3    H126794   0.844   0.932   0.499
 1745TIP3    H226795   0.800   1.019   0.614
 1746TIP3   OH226796   3.713   0.006   7.551
 1746TIP3    H126797   3.724   0.080   7.610
 1746TIP3    H226798   3.802   6.756   7.527
 1747TIP3   OH226799   4.364   3.577   1.632
 1747TIP3    H126800   4.379   3.656   1.684
 1747TIP3    H226801   4.451   3.554   1.598
 1748TIP3   OH226802   3.432   0.529   1.063
 1748TIP3    H126803   3.515   0.530   1.016
 1748TIP3    H226804   3.424   0.439   1.095
 1749TIP3   OH226805   4.710   0.915   6.963
 1749TIP3    H126806   4.674   0.963   7.037
 1749TIP3    H226807   4.786   0.966   6.935
 1750TIP3   OH226808   3.276   1.117   7.024
 1750TIP3    H126809   3.241   1.205   7.006
 1750TIP3    H226810   3.217   1.058   6.977
 1751TIP3   OH226811   5.469   1.537   0.009
 1751TIP3    H126812   5.378   1.559   0.029
 1751TIP3    H226813   5.489   1.461   0.064
 1752TIP3   OH226814   1.341   1.574   7.263
 1752TIP3    H126815   1.340   1.512   7.191
 1752TIP3    H226816   1.418   1.628   7.247
 1753TIP3   OH226817   3.995   0.393   7.705
 1753TIP3    H126818   4.075   0.401   7.652
 1753TIP3    H226819   3.990   0.477   7.751
 1754TIP3   OH226820   2.961   2.413   1.670
 1754TIP3    H126821   2.936   2.492   1.622
 1754TIP3    H226822   3.056   2.412   1.668
 1755TIP3   OH226823   0.246   6.238   6.778
 1755TIP3    H126824   0.330   6.272   6.810
 1755TIP3    H226825   0.221   6.298   6.708
 1756TIP3   OH226826   1.619   0.596   0.600
 1756TIP3    H126827   1.577   0.634   0.524
 1756TIP3    H226828   1.665   0.669   0.641
 1757TIP3   OH226829   4.575   3.055   7.833
 1757TIP3    H126830   4.489   3.014   7.831
 1757TIP3    H226831   4.593   3.069   7.926
 1758TIP3   OH226832   0.039   1.007   7.732
 1758TIP3    H126833   0.110   1.033   7.673
 1758TIP3    H226834   6.753   1.080   7.727
 1759TIP3   OH226835   2.724   6.051   7.689
 1759TIP3    H126836   2.640   6.092   7.710
 1759TIP3    H226837   2.725   5.970   7.740
 1760TIP3   OH226838   3.763   6.751   0.364
 1760TIP3    H126839   3.809   6.668   0.381
 1760TIP3    H226840   3.815   0.018   0.297
 1761TIP3   OH226841   4.240   2.364   0.459
 1761TIP3    H126842   4.187   2.410   0.524
 1761TIP3    H226843   4.195   2.377   0.376
 1762TIP3   OH226844   1.162   2.803   8.799
 1762TIP3    H126845   1.171   2.885   8.751
 1762TIP3    H226846   1.197   2.823   8.886
 1763TIP3   OH226847   1.261   3.900   0.384
 1763TIP3    H126848   1.204   3.831   0.418
 1763TIP3    H226849   1.309   3.932   0.461
 1764TIP3   OH226850   0.212   1.326   2.369
 1764TIP3    H126851   0.257   1.384   2.431
 1764TIP3    H226852   0.129   1.370   2.351
 1765TIP3   OH226853   6.694   5.584   6.320
 1765TIP3    H126854   6.714   5.641   6.394
 1765TIP3    H226855   6.769   5.523   6.316
 1766TIP3   OH226856   2.608   3.411   2.536
 1766TIP3    H126857   2.638   3.320   2.540
 1766TIP3    H226858   2.546   3.419   2.609
 1767TIP3   OH226859   5.124   1.469   8.853
 1767TIP3    H126860   5.131   1.391   8.799
 1767TIP3    H226861   5.104   1.436   0.027
 1768TIP3   OH226862   0.172   2.705   8.797
 1768TIP3    H126863   0.089   2.657   8.801
 1768TIP3    H226864   0.218   2.667   8.722
 1769TIP3   OH226865   2.456   6.576   1.506
 1769TIP3    H126866   2.374   6.557   1.461
 1769TIP3    H226867   2.521   6.522   1.463
 1770TIP3   OH226868   3.064   4.219   2.417
 1770TIP3    H126869   3.159   4.209   2.425
 1770TIP3    H226870   3.043   4.293   2.474
 1771TIP3   OH226871   2.883   4.683   8.659
 1771TIP3    H126872   2.866   4.603   8.708
 1771TIP3    H226873   2.948   4.730   8.712
 1772TIP3   OH226874   0.485   4.877   7.695
 1772TIP3    H126875   0.445   4.897   7.611
 1772TIP3    H226876   0.514   4.961   7.729
 1773TIP3   OH226877   4.509   3.417   8.006
 1773TIP3    H126878   4.583   3.475   8.023
 1773TIP3    H226879   4.515   3.397   7.912
 1774TIP3   OH226880   6.760   2.601   1.441
 1774TIP3    H126881   6.682   2.567   1.485
 1774TIP3    H226882   6.727   2.661   1.374
 1775TIP3   OH226883   1.805   1.836   7.180
 1775TIP3    H126884   1.832   1.763   7.236
 1775TIP3    H226885   1.710   1.839   7.190
 1776TIP3   OH226886   2.338   4.911   0.355
 1776TIP3    H126887   2.371   4.932   0.442
 1776TIP3    H226888   2.400   4.952   0.295
 1777TIP3   OH226889   2.341   2.288   0.979
 1777TIP3    H126890   2.299   2.244   0.906
 1777TIP3    H226891   2.316   2.238   1.056
 1778TIP3   OH226892   6.387   1.555   7.109
 1778TIP3    H126893   6.311   1.553   7.167
 1778TIP3    H226894   6.402   1.649   7.093
 1779TIP3   OH226895   1.412   0.248   8.758
 1779TIP3    H126896   1.483   0.185   8.768
 1779TIP3    H226897   1.387   0.272   8.847
 1780TIP3   OH226898   0.593   5.999   8.224
 1780TIP3    H126899   0.626   6.010   8.313
 1780TIP3    H226900   0.670   5.976   8.173
 1781TIP3   OH226901   2.669   3.599   1.232
 1781TIP3    H126902   2.664   3.693   1.215
 1781TIP3    H226903   2.579   3.568   1.221
 1782TIP3   OH226904   6.177   5.490   0.478
 1782TIP3    H126905   6.144   5.579   0.470
 1782TIP3    H226906   6.179   5.473   0.572
 1783TIP3   OH226907   4.987   1.995   8.476
 1783TIP3    H126908   4.907   1.946   8.455
 1783TIP3    H226909   4.956   2.078   8.512
 1784TIP3   OH226910   1.303   3.644   8.273
 1784TIP3    H126911   1.316   3.553   8.248
 1784TIP3    H226912   1.219   3.668   8.233
 1785TIP3   OH226913   5.726   0.795   6.056
 1785TIP3    H126914   5.758   0.741   6.128
 1785TIP3    H226915   5.728   0.885   6.090
 1786TIP3   OH226916   6.157   4.201   1.240
 1786TIP3    H126917   6.095   4.231   1.306
 1786TIP3    H226918   6.108   4.135   1.190
 1787TIP3   OH226919   1.307   1.722   1.425
 1787TIP3    H126920   1.238   1.772   1.381
 1787TIP3    H226921   1.294   1.632   1.396
 1788TIP3   OH226922   3.994   1.026   8.629
 1788TIP3    H126923   3.993   0.957   8.695
 1788TIP3    H226924   3.975   0.980   8.547
 1789TIP3   OH226925   0.134   6.499   8.830
 1789TIP3    H126926   0.091   6.420   8.861
 1789TIP3    H226927   0.228   6.481   8.840
 1790TIP3   OH226928   0.336   4.967   7.928
 1790TIP3    H126929   0.354   4.912   7.852
 1790TIP3    H226930   0.304   5.049   7.891
 1791TIP3   OH226931   2.719   0.209   7.356
 1791TIP3    H126932   2.709   0.297   7.393
 1791TIP3    H226933   2.763   0.222   7.272
 1792TIP3   OH226934   3.011   0.733   1.411
 1792TIP3    H126935   3.035   0.818   1.448
 1792TIP3    H226936   2.940   0.701   1.467
 1793TIP3   OH226937   4.268   4.950   1.591
 1793TIP3    H126938   4.218   4.955   1.672
 1793TIP3    H226939   4.358   4.937   1.619
 1794TIP3   OH226940   0.401   3.470   7.972
 1794TIP3    H126941   0.390   3.471   7.877
 1794TIP3    H226942   0.313   3.487   8.007
 1795TIP3   OH226943   5.470   2.205   7.158
 1795TIP3    H126944   5.375   2.211   7.156
 1795TIP3    H226945   5.489   2.139   7.225
 1796TIP3   OH226946   0.606   5.380   2.215
 1796TIP3    H126947   0.514   5.386   2.189
 1796TIP3    H226948   0.607   5.312   2.282
 1797TIP3   OH226949   4.859   5.459   1.501
 1797TIP3    H126950   4.796   5.387   1.507
 1797TIP3    H226951   4.833   5.520   1.570
 1798TIP3   OH226952   3.149   4.010   7.477
 1798TIP3    H126953   3.067   4.006   7.429
 1798TIP3    H226954   3.207   3.949   7.431
 1799TIP3   OH226955   3.115   3.990   1.337
 1799TIP3    H126956   3.095   3.907   1.292
 1799TIP3    H226957   3.056   4.053   1.296
 1800TIP3   OH226958   0.095   6.703   6.538
 1800TIP3    H126959   0.083   6.621   6.489
 1800TIP3    H226960   0.058   6.685   6.624
 1801TIP3   OH226961   2.633   0.486   1.386
 1801TIP3    H126962   2.543   0.516   1.397
 1801TIP3    H226963   2.685   0.549   1.436
 1802TIP3   OH226964   5.421   3.306   0.436
 1802TIP3    H126965   5.479   3.319   0.510
 1802TIP3    H226966   5.395   3.214   0.441
 1803TIP3   OH226967   0.864   0.499   6.846
 1803TIP3    H126968   0.960   0.503   6.848
 1803TIP3    H226969   0.842   0.490   6.754
 1804TIP3   OH226970   2.343   6.293   8.160
 1804TIP3    H126971   2.298   6.258   8.237
 1804TIP3    H226972   2.435   6.272   8.175
 1805TIP3   OH226973   0.145   5.016   0.038
 1805TIP3    H126974   0.160   4.937   8.899
 1805TIP3    H226975   0.081   5.066   8.901
 1806TIP3   OH226976   2.849   5.480   8.804
 1806TIP3    H126977   2.855   5.471   8.899
 1806TIP3    H226978   2.755   5.483   8.786
 1807TIP3   OH226979   0.864   5.833   6.786
 1807TIP3    H126980   0.910   5.863   6.707
 1807TIP3    H226981   0.934   5.815   6.848
 1808TIP3   OH226982   3.449   5.663   1.169
 1808TIP3    H126983   3.399   5.679   1.249
 1808TIP3    H226984   3.405   5.716   1.102
 1809TIP3   OH226985   2.392   1.066   7.410
 1809TIP3    H126986   2.436   1.151   7.421
 1809TIP3    H226987   2.460   1.001   7.427
 1810TIP3   OH226988   6.166   2.899   7.628
 1810TIP3    H126989   6.096   2.929   7.570
 1810TIP3    H226990   6.227   2.973   7.633
 1811TIP3   OH226991   2.613   5.417   1.872
 1811TIP3    H126992   2.704   5.394   1.853
 1811TIP3    H226993   2.617   5.507   1.905
 1812TIP3   OH226994   4.329   2.786   1.007
 1812TIP3    H126995   4.361   2.875   0.991
 1812TIP3    H226996   4.238   2.797   1.033
 1813TIP3   OH226997   0.335   4.075   8.647
 1813TIP3    H126998   0.302   4.164   8.659
 1813TIP3    H226999   0.292   4.044   8.567
 1814TIP3   OH227000   2.866   2.713   8.514
 1814TIP3    H127001   2.927   2.779   8.546
 1814TIP3    H227002   2.921   2.641   8.483
 1815TIP3   OH227003   0.422   4.348   8.648
 1815TIP3    H127004   0.490   4.370   8.711
 1815TIP3    H227005   0.470   4.307   8.575
 1816TIP3   OH227006   4.579   3.618   7.828
 1816TIP3    H127007   4.549   3.541   7.778
 1816TIP3    H227008   4.667   3.595   7.856
 1817TIP3   OH227009   5.948   1.738   8.646
 1817TIP3    H127010   5.872   1.702   8.691
 1817TIP3    H227011   6.011   1.665   8.643
 1818TIP3   OH227012   0.458   2.613   0.567
 1818TIP3    H127013   0.366   2.613   0.544
 1818TIP3    H227014   0.466   2.548   0.637
 1819TIP3   OH227015   1.364   0.501   8.434
 1819TIP3    H127016   1.374   0.549   8.517
 1819TIP3    H227017   1.452   0.499   8.398
 1820TIP3   OH227018   0.705   6.306   6.569
 1820TIP3    H127019   0.703   6.395   6.533
 1820TIP3    H227020   0.784   6.267   6.530
 1821TIP3   OH227021   2.499   2.563   7.275
 1821TIP3    H127022   2.588   2.527   7.272
 1821TIP3    H227023   2.449   2.510   7.213
 1822TIP3   OH227024   2.554   5.051   0.234
 1822TIP3    H127025   2.579   5.122   0.175
 1822TIP3    H227026   2.638   5.016   0.267
 1823TIP3   OH227027   1.416   1.065   8.231
 1823TIP3    H127028   1.482   1.049   8.299
 1823TIP3    H227029   1.466   1.079   8.151
 1824TIP3   OH227030   2.440   6.663   6.898
 1824TIP3    H127031   2.368   6.615   6.858
 1824TIP3    H227032   2.501   6.679   6.826
 1825TIP3   OH227033   5.620   1.859   0.523
 1825TIP3    H127034   5.544   1.910   0.494
 1825TIP3    H227035   5.590   1.815   0.602
 1826TIP3   OH227036   0.442   4.954   2.226
 1826TIP3    H127037   0.475   5.043   2.242
 1826TIP3    H227038   0.520   4.898   2.231
 1827TIP3   OH227039   1.736   4.430   7.663
 1827TIP3    H127040   1.744   4.386   7.579
 1827TIP3    H227041   1.803   4.390   7.718
 1828TIP3   OH227042   5.206   3.391   1.191
 1828TIP3    H127043   5.233   3.300   1.199
 1828TIP3    H227044   5.282   3.436   1.154
 1829TIP3   OH227045   2.925   1.125   7.612
 1829TIP3    H127046   2.941   1.090   7.525
 1829TIP3    H227047   2.921   1.048   7.669
 1830TIP3   OH227048   4.682   3.424   0.589
 1830TIP3    H127049   4.722   3.338   0.572
 1830TIP3    H227050   4.678   3.430   0.684
 1831TIP3   OH227051   1.728   0.088   0.782
 1831TIP3    H127052   1.723   0.175   0.742
 1831TIP3    H227053   1.774   0.102   0.865
 1832TIP3   OH227054   6.677   6.612   0.218
 1832TIP3    H127055   6.606   6.642   0.275
 1832TIP3    H227056   6.695   6.688   0.161
 1833TIP3   OH227057   2.588   0.210   2.267
 1833TIP3    H127058   2.578   0.169   2.181
 1833TIP3    H227059   2.617   0.139   2.324
 1834TIP3   OH227060   0.644   4.139   8.222
 1834TIP3    H127061   0.693   4.057   8.215
 1834TIP3    H227062   0.552   4.113   8.211
 1835TIP3   OH227063   4.821   2.915   0.457
 1835TIP3    H127064   4.880   2.845   0.430
 1835TIP3    H227065   4.834   2.983   0.390
 1836TIP3   OH227066   0.446   4.193   2.030
 1836TIP3    H127067   0.467   4.235   1.946
 1836TIP3    H227068   0.531   4.165   2.064
 1837TIP3   OH227069   1.198   5.146   7.717
 1837TIP3    H127070   1.155   5.141   7.632
 1837TIP3    H227071   1.134   5.189   7.774
 1838TIP3   OH227072   4.759   0.519   7.264
 1838TIP3    H127073   4.674   0.476   7.264
 1838TIP3    H227074   4.805   0.479   7.338
 1839TIP3   OH227075   1.760   5.141   8.380
 1839TIP3    H127076   1.780   5.048   8.367
 1839TIP3    H227077   1.801   5.185   8.306
 1840TIP3   OH227078   5.443   2.763   0.399
 1840TIP3    H127079   5.477   2.679   0.431
 1840TIP3    H227080   5.358   2.741   0.362
 1841TIP3   OH227081   1.857   0.913   8.240
 1841TIP3    H127082   1.854   0.819   8.257
 1841TIP3    H227083   1.938   0.942   8.283
 1842TIP3   OH227084   2.337   1.247   8.144
 1842TIP3    H127085   2.409   1.297   8.106
 1842TIP3    H227086   2.337   1.164   8.095
 1843TIP3   OH227087   6.187   5.304   0.218
 1843TIP3    H127088   6.116   5.245   0.190
 1843TIP3    H227089   6.153   5.392   0.201
 1844TIP3   OH227090   2.876   5.561   0.761
 1844TIP3    H127091   2.949   5.501   0.768
 1844TIP3    H227092   2.878   5.611   0.843
 1845TIP3   OH227093   1.761   2.979   7.300
 1845TIP3    H127094   1.680   3.026   7.279
 1845TIP3    H227095   1.734   2.888   7.312
 1846TIP3   OH227096   3.399   0.504   6.860
 1846TIP3    H127097   3.442   0.426   6.826
 1846TIP3    H227098   3.379   0.557   6.783
 1847TIP3   OH227099   0.377   2.461   0.772
 1847TIP3    H127100   0.356   2.478   0.864
 1847TIP3    H227101   0.295   2.432   0.734
 1848TIP3   OH227102   0.637   3.465   6.968
 1848TIP3    H127103   0.683   3.381   6.974
 1848TIP3    H227104   0.640   3.487   6.875
 1849TIP3   OH227105   3.537   5.158   2.080
 1849TIP3    H127106   3.562   5.193   2.166
 1849TIP3    H227107   3.610   5.102   2.055
 1850TIP3   OH227108   2.727   2.897   2.624
 1850TIP3    H127109   2.813   2.863   2.599
 1850TIP3    H227110   2.746   2.964   2.690
 1851TIP3   OH227111   3.134   0.914   0.948
 1851TIP3    H127112   3.223   0.920   0.983
 1851TIP3    H227113   3.078   0.943   1.020
 1852TIP3   OH227114   6.472   4.895   6.569
 1852TIP3    H127115   6.440   4.984   6.553
 1852TIP3    H227116   6.407   4.857   6.629
 1853TIP3   OH227117   0.743   2.800   8.268
 1853TIP3    H127118   0.751   2.734   8.199
 1853TIP3    H227119   0.649   2.807   8.283
 1854TIP3   OH227120   5.402   1.835   6.686
 1854TIP3    H127121   5.439   1.866   6.603
 1854TIP3    H227122   5.396   1.740   6.676
 1855TIP3   OH227123   5.115   5.144   8.484
 1855TIP3    H127124   5.094   5.087   8.410
 1855TIP3    H227125   5.177   5.208   8.449
 1856TIP3   OH227126   0.143   2.215   8.003
 1856TIP3    H127127   0.050   2.214   8.024
 1856TIP3    H227128   0.186   2.240   8.085
 1857TIP3   OH227129   2.088   2.665   1.324
 1857TIP3    H127130   2.129   2.674   1.410
 1857TIP3    H227131   2.114   2.743   1.276
 1858TIP3   OH227132   6.238   1.216   2.179
 1858TIP3    H127133   6.306   1.149   2.185
 1858TIP3    H227134   6.192   1.212   2.263
 1859TIP3   OH227135   2.887   1.516   6.587
 1859TIP3    H127136   2.812   1.573   6.602
 1859TIP3    H227137   2.951   1.541   6.654
 1860TIP3   OH227138   3.693   0.407   7.188
 1860TIP3    H127139   3.674   0.389   7.280
 1860TIP3    H227140   3.756   0.479   7.191
 1861TIP3   OH227141   5.378   5.661   7.816
 1861TIP3    H127142   5.397   5.607   7.740
 1861TIP3    H227143   5.286   5.685   7.807
 1862TIP3   OH227144   5.869   1.982   8.208
 1862TIP3    H127145   5.893   2.074   8.216
 1862TIP3    H227146   5.904   1.940   8.286
 1863TIP3   OH227147   3.596   5.297   8.363
 1863TIP3    H127148   3.517   5.285   8.415
 1863TIP3    H227149   3.575   5.369   8.304
 1864TIP3   OH227150   0.894   5.219   7.688
 1864TIP3    H127151   0.864   5.225   7.598
 1864TIP3    H227152   0.851   5.291   7.733
 1865TIP3   OH227153   6.549   3.905   7.516
 1865TIP3    H127154   6.478   3.855   7.556
 1865TIP3    H227155   6.608   3.839   7.480
 1866TIP3   OH227156   5.192   0.543   7.869
 1866TIP3    H127157   5.159   0.539   7.779
 1866TIP3    H227158   5.129   0.600   7.914
 1867TIP3   OH227159   6.542   4.744   7.868
 1867TIP3    H127160   6.491   4.741   7.787
 1867TIP3    H227161   6.539   4.654   7.901
 1868TIP3   OH227162   3.263   4.302   1.794
 1868TIP3    H127163   3.169   4.286   1.790
 1868TIP3    H227164   3.292   4.297   1.703
 1869TIP3   OH227165   0.262   1.052   7.149
 1869TIP3    H127166   0.313   0.972   7.139
 1869TIP3    H227167   0.322   1.114   7.190
 1870TIP3   OH227168   1.318   0.426   1.403
 1870TIP3    H127169   1.354   0.459   1.486
 1870TIP3    H227170   1.381   0.455   1.336
 1871TIP3   OH227171   6.718   4.254   7.294
 1871TIP3    H127172   6.768   4.334   7.278
 1871TIP3    H227173   6.716   4.246   7.390
 1872TIP3   OH227174   5.338   1.114   1.068
 1872TIP3    H127175   5.427   1.150   1.066
 1872TIP3    H227176   5.346   1.032   1.117
 1873TIP3   OH227177   4.511   4.890   7.653
 1873TIP3    H127178   4.417   4.875   7.660
 1873TIP3    H227179   4.550   4.803   7.668
 1874TIP3   OH227180   3.425   1.201   8.100
 1874TIP3    H127181   3.433   1.182   8.007
 1874TIP3    H227182   3.372   1.281   8.104
 1875TIP3   OH227183   5.216   5.805   6.667
 1875TIP3    H127184   5.267   5.739   6.714
 1875TIP3    H227185   5.209   5.770   6.578
 1876TIP3   OH227186   1.711   4.481   8.718
 1876TIP3    H127187   1.618   4.498   8.700
 1876TIP3    H227188   1.710   4.426   8.796
 1877TIP3   OH227189   4.828   2.593   8.244
 1877TIP3    H127190   4.895   2.525   8.255
 1877TIP3    H227191   4.867   2.671   8.284
 1878TIP3   OH227192   0.886   1.962   6.786
 1878TIP3    H127193   0.830   1.896   6.745
 1878TIP3    H227194   0.845   1.979   6.871
 1879TIP3   OH227195   2.031   4.187   8.532
 1879TIP3    H127196   2.009   4.232   8.450
 1879TIP3    H227197   1.947   4.182   8.579
 1880TIP3   OH227198   0.565   1.433   8.807
 1880TIP3    H127199   0.582   1.522   8.778
 1880TIP3    H227200   0.472   1.431   8.826
 1881TIP3   OH227201   6.260   3.481   0.153
 1881TIP3    H127202   6.206   3.402   0.145
 1881TIP3    H227203   6.213   3.548   0.104
 1882TIP3   OH227204   5.175   4.802   7.755
 1882TIP3    H127205   5.108   4.854   7.799
 1882TIP3    H227206   5.127   4.751   7.690
 1883TIP3   OH227207   2.874   0.257   1.860
 1883TIP3    H127208   2.902   0.346   1.842
 1883TIP3    H227209   2.944   0.220   1.914
 1884TIP3   OH227210   1.796   1.644   1.655
 1884TIP3    H127211   1.723   1.609   1.604
 1884TIP3    H227212   1.869   1.647   1.593
 1885TIP3   OH227213   2.162   1.790   0.951
 1885TIP3    H127214   2.164   1.709   0.901
 1885TIP3    H227215   2.148   1.859   0.886
 1886TIP3   OH227216   5.481   5.391   8.862
 1886TIP3    H127217   5.515   5.387   8.772
 1886TIP3    H227218   5.423   5.467   8.862
 1887TIP3   OH227219   5.780   2.012   6.787
 1887TIP3    H127220   5.711   2.034   6.724
 1887TIP3    H227221   5.740   2.027   6.872
 1888TIP3   OH227222   0.433   2.045   1.289
 1888TIP3    H127223   0.487   1.967   1.302
 1888TIP3    H227224   0.361   2.015   1.234
 1889TIP3   OH227225   2.071   0.355   1.922
 1889TIP3    H127226   2.007   0.388   1.859
 1889TIP3    H227227   2.018   0.333   1.999
 1890TIP3   OH227228   6.480   2.742   7.646
 1890TIP3    H127229   6.477   2.753   7.551
 1890TIP3    H227230   6.516   2.825   7.678
 1891TIP3   OH227231   6.306   6.674   8.195
 1891TIP3    H127232   6.379   6.640   8.246
 1891TIP3    H227233   6.345   6.741   8.139
 1892TIP3   OH227234   1.126   4.625   0.739
 1892TIP3    H127235   1.039   4.611   0.703
 1892TIP3    H227236   1.126   4.716   0.768
 1893TIP3   OH227237   0.844   4.961   0.014
 1893TIP3    H127238   0.853   4.869   8.904
 1893TIP3    H227239   0.774   4.994   8.871
 1894TIP3   OH227240   6.166   3.297   2.021
 1894TIP3    H127241   6.103   3.249   2.075
 1894TIP3    H227242   6.202   3.364   2.079
 1895TIP3   OH227243   4.492   0.728   1.998
 1895TIP3    H127244   4.544   0.740   1.919
 1895TIP3    H227245   4.516   0.642   2.030
 1896TIP3   OH227246   0.475   3.587   1.301
 1896TIP3    H127247   0.390   3.546   1.316
 1896TIP3    H227248   0.502   3.619   1.387
 1897TIP3   OH227249   3.473   1.089   0.361
 1897TIP3    H127250   3.454   1.035   0.285
 1897TIP3    H227251   3.527   1.160   0.327
 1898TIP3   OH227252   1.760   0.232   8.074
 1898TIP3    H127253   1.693   0.187   8.023
 1898TIP3    H227254   1.712   0.293   8.129
 1899TIP3   OH227255   4.685   0.277   8.389
 1899TIP3    H127256   4.741   0.200   8.388
 1899TIP3    H227257   4.605   0.248   8.345
 1900TIP3   OH227258   5.581   0.350   1.303
 1900TIP3    H127259   5.642   0.416   1.334
 1900TIP3    H227260   5.633   0.295   1.244
 1901TIP3   OH227261   6.173   0.435   8.297
 1901TIP3    H127262   6.167   0.375   8.223
 1901TIP3    H227263   6.177   0.379   8.374
 1902TIP3   OH227264   3.921   0.166   1.279
 1902TIP3    H127265   3.960   0.104   1.342
 1902TIP3    H227266   3.873   0.110   1.217
 1903TIP3   OH227267   2.158   3.500   0.253
 1903TIP3    H127268   2.153   3.432   0.186
 1903TIP3    H227269   2.168   3.582   0.204
 1904TIP3   OH227270   4.731   3.664   1.605
 1904TIP3    H127271   4.716   3.583   1.654
 1904TIP3    H227272   4.651   3.676   1.555
 1905TIP3   OH227273   6.078   0.965   8.034
 1905TIP3    H127274   6.083   0.960   7.939
 1905TIP3    H227275   6.043   0.880   8.061
 1906TIP3   OH227276   2.803   3.698   7.641
 1906TIP3    H127277   2.798   3.729   7.731
 1906TIP3    H227278   2.872   3.632   7.642
 1907TIP3   OH227279   5.899   1.264   8.298
 1907TIP3    H127280   5.860   1.272   8.386
 1907TIP3    H227281   5.831   1.222   8.246
 1908TIP3   OH227282   5.798   0.079   0.676
 1908TIP3    H127283   5.814   0.119   0.591
 1908TIP3    H227284   5.714   0.116   0.704
 1909TIP3   OH227285   3.404   2.206   2.882
 1909TIP3    H127286   3.340   2.148   2.923
 1909TIP3    H227287   3.360   2.238   2.803
 1910TIP3   OH227288   0.993   3.703   7.450
 1910TIP3    H127289   0.994   3.609   7.467
 1910TIP3    H227290   1.078   3.722   7.412
 1911TIP3   OH227291   6.105   3.582   7.377
 1911TIP3    H127292   6.096   3.490   7.352
 1911TIP3    H227293   6.198   3.592   7.396
 1912TIP3   OH227294   1.666   6.350   6.700
 1912TIP3    H127295   1.653   6.400   6.619
 1912TIP3    H227296   1.734   6.397   6.746
 1913TIP3   OH227297   3.871   6.057   1.130
 1913TIP3    H127298   3.936   6.075   1.063
 1913TIP3    H227299   3.913   6.085   1.212
 1914TIP3   OH227300   4.596   0.767   1.428
 1914TIP3    H127301   4.687   0.794   1.417
 1914TIP3    H227302   4.599   0.672   1.435
 1915TIP3   OH227303   5.968   5.168   7.091
 1915TIP3    H127304   6.006   5.253   7.067
 1915TIP3    H227305   6.042   5.107   7.088
 1916TIP3   OH227306   2.456   4.359   0.204
 1916TIP3    H127307   2.407   4.284   0.170
 1916TIP3    H227308   2.461   4.345   0.298
 1917TIP3   OH227309   5.480   3.002   7.544
 1917TIP3    H127310   5.529   2.997   7.462
 1917TIP3    H227311   5.547   3.011   7.612
 1918TIP3   OH227312   4.780   3.177   0.567
 1918TIP3    H127313   4.871   3.206   0.566
 1918TIP3    H227314   4.784   3.083   0.585
 1919TIP3   OH227315   2.567   5.611   8.751
 1919TIP3    H127316   2.540   5.552   8.681
 1919TIP3    H227317   2.572   5.697   8.709
 1920TIP3   OH227318   1.304   0.998   2.565
 1920TIP3    H127319   1.379   1.001   2.625
 1920TIP3    H227320   1.327   1.058   2.495
 1921TIP3   OH227321   3.985   5.278   0.241
 1921TIP3    H127322   4.010   5.187   0.255
 1921TIP3    H227323   3.906   5.273   0.187
 1922TIP3   OH227324   0.059   3.020   0.909
 1922TIP3    H127325   6.762   3.023   0.848
 1922TIP3    H227326   0.062   2.930   0.940
 1923TIP3   OH227327   5.930   6.393   0.469
 1923TIP3    H127328   5.845   6.430   0.492
 1923TIP3    H227329   5.966   6.362   0.552
 1924TIP3   OH227330   6.466   4.039   8.816
 1924TIP3    H127331   6.498   4.054   8.905
 1924TIP3    H227332   6.371   4.029   8.826
 1925TIP3   OH227333   4.024   3.054   7.576
 1925TIP3    H127334   4.003   2.964   7.551
 1925TIP3    H227335   4.112   3.069   7.543
 1926TIP3   OH227336   5.402   1.718   7.732
 1926TIP3    H127337   5.431   1.808   7.744
 1926TIP3    H227338   5.333   1.706   7.797
 1927TIP3   OH227339   3.985   5.456   2.298
 1927TIP3    H127340   3.947   5.374   2.267
 1927TIP3    H227341   4.078   5.449   2.275
 1928TIP3   OH227342   6.769   5.720   7.307
 1928TIP3    H127343   6.775   5.728   7.212
 1928TIP3    H227344   6.707   5.650   7.322
 1929TIP3   OH227345   1.832   6.089   2.101
 1929TIP3    H127346   1.879   6.044   2.171
 1929TIP3    H227347   1.794   6.166   2.144
 1930TIP3   OH227348   4.023   2.127   1.800
 1930TIP3    H127349   4.070   2.064   1.854
 1930TIP3    H227350   3.946   2.080   1.768
 1931TIP3   OH227351   1.617   0.290   2.080
 1931TIP3    H127352   1.532   0.322   2.049
 1931TIP3    H227353   1.607   0.282   2.175
 1932TIP3   OH227354   4.459   6.031   8.618
 1932TIP3    H127355   4.406   5.951   8.615
 1932TIP3    H227356   4.423   6.081   8.691
 1933TIP3   OH227357   6.234   2.227   0.880
 1933TIP3    H127358   6.320   2.226   0.839
 1933TIP3    H227359   6.244   2.175   0.960
 1934TIP3   OH227360   5.468   4.395   6.903
 1934TIP3    H127361   5.475   4.310   6.947
 1934TIP3    H227362   5.478   4.460   6.973
 1935TIP3   OH227363   2.147   4.199   1.751
 1935TIP3    H127364   2.228   4.247   1.768
 1935TIP3    H227365   2.112   4.179   1.838
 1936TIP3   OH227366   1.499   4.303   1.568
 1936TIP3    H127367   1.480   4.341   1.482
 1936TIP3    H227368   1.500   4.208   1.553
 1937TIP3   OH227369   4.714   3.084   8.080
 1937TIP3    H127370   4.796   3.042   8.055
 1937TIP3    H227371   4.739   3.172   8.108
 1938TIP3   OH227372   0.157   3.517   7.669
 1938TIP3    H127373   0.237   3.489   7.714
 1938TIP3    H227374   0.159   3.471   7.585
 1939TIP3   OH227375   0.238   2.405   0.342
 1939TIP3    H127376   0.247   2.498   0.363
 1939TIP3    H227377   0.223   2.403   0.247
 1940TIP3   OH227378   1.862   2.399   0.035
 1940TIP3    H127379   1.847   2.488   0.066
 1940TIP3    H227380   1.874   2.408   8.854
 1941TIP3   OH227381   3.065   4.484   2.536
 1941TIP3    H127382   3.055   4.534   2.617
 1941TIP3    H227383   3.137   4.528   2.490
 1942TIP3   OH227384   1.288   5.658   2.508
 1942TIP3    H127385   1.367   5.710   2.520
 1942TIP3    H227386   1.217   5.723   2.501
 1943TIP3   OH227387   5.899   3.922   2.274
 1943TIP3    H127388   5.833   3.852   2.273
 1943TIP3    H227389   5.848   4.003   2.276
 1944TIP3   OH227390   3.609   6.052   0.504
 1944TIP3    H127391   3.657   6.050   0.586
 1944TIP3    H227392   3.535   5.993   0.518
 1945TIP3   OH227393   0.425   3.578   7.298
 1945TIP3    H127394   0.431   3.615   7.209
 1945TIP3    H227395   0.471   3.495   7.292
 1946TIP3   OH227396   5.942   3.905   1.548
 1946TIP3    H127397   5.855   3.868   1.532
 1946TIP3    H227398   5.926   3.995   1.577
 1947TIP3   OH227399   5.375   3.328   7.079
 1947TIP3    H127400   5.358   3.374   6.997
 1947TIP3    H227401   5.427   3.252   7.053
 1948TIP3   OH227402   2.084   5.060   2.352
 1948TIP3    H127403   2.141   5.108   2.413
 1948TIP3    H227404   2.144   5.014   2.294
 1949TIP3   OH227405   0.715   6.720   7.111
 1949TIP3    H127406   0.765   6.652   7.157
 1949TIP3    H227407   0.742   0.025   7.153
 1950TIP3   OH227408   4.697   2.747   1.213
 1950TIP3    H127409   4.689   2.651   1.219
 1950TIP3    H227410   4.641   2.780   1.283
 1951TIP3   OH227411   6.635   0.942   6.005
 1951TIP3    H127412   6.604   0.856   5.977
 1951TIP3    H227413   6.689   0.925   6.082
 1952TIP3   OH227414   1.159   3.567   1.688
 1952TIP3    H127415   1.137   3.661   1.691
 1952TIP3    H227416   1.250   3.563   1.718
 1953TIP3   OH227417   2.937   4.470   1.730
 1953TIP3    H127418   2.927   4.514   1.814
 1953TIP3    H227419   3.032   4.463   1.718
 1954TIP3   OH227420   3.609   0.605   8.630
 1954TIP3    H127421   3.643   0.661   8.699
 1954TIP3    H227422   3.582   0.525   8.675
 1955TIP3   OH227423   3.758   5.807   8.798
 1955TIP3    H127424   3.673   5.812   8.753
 1955TIP3    H227425   3.740   5.840   8.886
 1956TIP3   OH227426   1.105   5.569   1.030
 1956TIP3    H127427   1.124   5.584   1.123
 1956TIP3    H227428   1.010   5.566   1.026
 1957TIP3   OH227429   5.421   1.680   8.078
 1957TIP3    H127430   5.476   1.602   8.083
 1957TIP3    H227431   5.460   1.742   8.139
 1958TIP3   OH227432   0.105   0.255   5.685
 1958TIP3    H127433   0.157   0.324   5.643
 1958TIP3    H227434   0.147   0.173   5.657
 1959TIP3   OH227435   5.059   6.446   0.735
 1959TIP3    H127436   5.032   6.441   0.643
 1959TIP3    H227437   5.060   6.355   0.764
 1960TIP3   OH227438   6.040   0.878   7.044
 1960TIP3    H127439   6.031   0.971   7.062
 1960TIP3    H227440   5.982   0.862   6.969
 1961TIP3   OH227441   3.160   6.619   0.907
 1961TIP3    H127442   3.103   6.638   0.982
 1961TIP3    H227443   3.176   6.704   0.867
 1962TIP3   OH227444   2.077   0.530   1.668
 1962TIP3    H127445   2.085   0.436   1.651
 1962TIP3    H227446   1.983   0.545   1.678
 1963TIP3   OH227447   0.113   2.414   7.189
 1963TIP3    H127448   0.161   2.350   7.137
 1963TIP3    H227449   0.122   2.496   7.141
 1964TIP3   OH227450   2.007   3.026   7.808
 1964TIP3    H127451   1.996   3.112   7.768
 1964TIP3    H227452   2.083   3.036   7.865
 1965TIP3   OH227453   5.145   4.121   1.113
 1965TIP3    H127454   5.194   4.041   1.092
 1965TIP3    H227455   5.145   4.125   1.208
 1966TIP3   OH227456   2.606   5.157   1.242
 1966TIP3    H127457   2.620   5.150   1.148
 1966TIP3    H227458   2.666   5.227   1.270
 1967TIP3   OH227459   4.423   0.850   2.431
 1967TIP3    H127460   4.349   0.833   2.488
 1967TIP3    H227461   4.462   0.931   2.465
 1968TIP3   OH227462   6.567   3.793   6.611
 1968TIP3    H127463   6.522   3.713   6.582
 1968TIP3    H227464   6.559   3.853   6.537
 1969TIP3   OH227465   3.363   4.210   2.185
 1969TIP3    H127466   3.385   4.193   2.093
 1969TIP3    H227467   3.416   4.287   2.208
 1970TIP3   OH227468   4.896   0.621   1.319
 1970TIP3    H127469   4.932   0.689   1.375
 1970TIP3    H227470   4.819   0.590   1.366
 1971TIP3   OH227471   0.372   0.667   6.743
 1971TIP3    H127472   0.433   0.712   6.801
 1971TIP3    H227473   0.425   0.604   6.695
 1972TIP3   OH227474   4.284   5.468   0.079
 1972TIP3    H127475   4.288   5.375   0.056
 1972TIP3    H227476   4.198   5.496   0.047
 1973TIP3   OH227477   2.947   3.116   7.243
 1973TIP3    H127478   2.967   3.022   7.240
 1973TIP3    H227479   2.865   3.125   7.195
 1974TIP3   OH227480   3.296   6.382   0.446
 1974TIP3    H127481   3.242   6.311   0.481
 1974TIP3    H227482   3.379   6.341   0.422
 1975TIP3   OH227483   0.318   4.515   0.659
 1975TIP3    H127484   0.264   4.446   0.621
 1975TIP3    H227485   0.258   4.589   0.672
 1976TIP3   OH227486   0.719   5.595   8.382
 1976TIP3    H127487   0.710   5.672   8.439
 1976TIP3    H227488   0.684   5.523   8.434
 1977TIP3   OH227489   2.539   5.866   8.680
 1977TIP3    H127490   2.535   5.886   8.774
 1977TIP3    H227491   2.448   5.863   8.652
 1978TIP3   OH227492   5.582   5.426   7.020
 1978TIP3    H127493   5.597   5.332   7.033
 1978TIP3    H227494   5.507   5.430   6.962
 1979TIP3   OH227495   0.677   2.046   7.434
 1979TIP3    H127496   0.624   2.090   7.501
 1979TIP3    H227497   0.623   1.973   7.404
 1980TIP3   OH227498   2.824   2.596   0.264
 1980TIP3    H127499   2.868   2.551   0.335
 1980TIP3    H227500   2.763   2.531   0.229
 1981TIP3   OH227501   2.580   6.235   6.529
 1981TIP3    H127502   2.534   6.256   6.448
 1981TIP3    H227503   2.575   6.140   6.536
 1982TIP3   OH227504   3.829   1.013   0.957
 1982TIP3    H127505   3.904   0.987   0.903
 1982TIP3    H227506   3.844   1.105   0.976
 1983TIP3   OH227507   6.103   5.783   7.510
 1983TIP3    H127508   6.090   5.847   7.580
 1983TIP3    H227509   6.018   5.776   7.467
 1984TIP3   OH227510   2.225   2.338   7.757
 1984TIP3    H127511   2.223   2.250   7.719
 1984TIP3    H227512   2.151   2.384   7.718
 1985TIP3   OH227513   1.527   2.341   8.098
 1985TIP3    H127514   1.442   2.366   8.136
 1985TIP3    H227515   1.590   2.395   8.145
 1986TIP3   OH227516   4.617   3.453   1.736
 1986TIP3    H127517   4.642   3.450   1.828
 1986TIP3    H227518   4.599   3.362   1.713
 1987TIP3   OH227519   2.171   3.881   7.905
 1987TIP3    H127520   2.202   3.800   7.947
 1987TIP3    H227521   2.237   3.900   7.839
 1988TIP3   OH227522   0.910   1.927   7.450
 1988TIP3    H127523   0.948   1.938   7.363
 1988TIP3    H227524   0.820   1.959   7.441
 1989TIP3   OH227525   4.791   6.359   1.771
 1989TIP3    H127526   4.835   6.443   1.760
 1989TIP3    H227527   4.813   6.333   1.861
 1990TIP3   OH227528   6.032   4.881   2.156
 1990TIP3    H127529   6.066   4.945   2.093
 1990TIP3    H227530   5.936   4.890   2.150
 1991TIP3   OH227531   5.458   3.004   0.109
 1991TIP3    H127532   5.380   2.953   0.128
 1991TIP3    H227533   5.507   2.950   0.047
 1992TIP3   OH227534   6.006   5.238   0.458
 1992TIP3    H127535   6.002   5.247   0.363
 1992TIP3    H227536   6.094   5.268   0.481
 1993TIP3   OH227537   0.884   2.058   0.231
 1993TIP3    H127538   0.829   2.110   0.172
 1993TIP3    H227539   0.964   2.109   0.241
 1994TIP3   OH227540   6.220   2.203   8.026
 1994TIP3    H127541   6.266   2.199   8.110
 1994TIP3    H227542   6.160   2.128   8.028
 1995TIP3   OH227543   4.509   2.347   6.875
 1995TIP3    H127544   4.495   2.273   6.816
 1995TIP3    H227545   4.594   2.330   6.916
 1996TIP3   OH227546   1.650   6.483   0.644
 1996TIP3    H127547   1.693   6.496   0.560
 1996TIP3    H227548   1.683   6.398   0.675
 1997TIP3   OH227549   4.865   0.056   8.759
 1997TIP3    H127550   4.867   0.053   8.855
 1997TIP3    H227551   4.825   6.750   8.733
 1998TIP3   OH227552   4.795   5.629   1.278
 1998TIP3    H127553   4.749   5.546   1.265
 1998TIP3    H227554   4.798   5.640   1.373
 1999TIP3   OH227555   3.846   1.985   0.535
 1999TIP3    H127556   3.792   2.062   0.556
 1999TIP3    H227557   3.877   2.002   0.446
 2000TIP3   OH227558   1.213   1.265   1.471
 2000TIP3    H127559   1.277   1.272   1.542
 2000TIP3    H227560   1.135   1.309   1.505
 2001TIP3   OH227561   1.893   6.673   0.645
 2001TIP3    H127562   1.820   6.727   0.678
 2001TIP3    H227563   1.963   6.736   0.628
 2002TIP3   OH227564   2.857   2.719   1.224
 2002TIP3    H127565   2.895   2.755   1.144
 2002TIP3    H227566   2.768   2.694   1.199
 2003TIP3   OH227567   2.160   0.916   6.721
 2003TIP3    H127568   2.147   0.874   6.636
 2003TIP3    H227569   2.086   0.976   6.729
 2004TIP3   OH227570   3.812   1.193   1.773
 2004TIP3    H127571   3.879   1.141   1.817
 2004TIP3    H227572   3.774   1.134   1.708
 2005TIP3   OH227573   5.823   6.289   8.037
 2005TIP3    H127574   5.759   6.232   7.994
 2005TIP3    H227575   5.771   6.347   8.092
 2006TIP3   OH227576   2.933   0.941   7.916
 2006TIP3    H127577   2.857   0.885   7.931
 2006TIP3    H227578   2.974   0.904   7.837
 2007TIP3   OH227579   4.349   3.875   8.871
 2007TIP3    H127580   4.295   3.902   8.797
 2007TIP3    H227581   4.291   3.823   0.012
 2008TIP3   OH227582   0.169   1.266   7.481
 2008TIP3    H127583   0.093   1.210   7.461
 2008TIP3    H227584   0.144   1.311   7.561
 2009TIP3   OH227585   1.780   1.805   6.898
 2009TIP3    H127586   1.804   1.849   6.980
 2009TIP3    H227587   1.765   1.714   6.923
 2010TIP3   OH227588   4.842   1.539   8.406
 2010TIP3    H127589   4.901   1.584   8.466
 2010TIP3    H227590   4.869   1.568   8.319
 2011TIP3   OH227591   2.806   6.755   7.125
 2011TIP3    H127592   2.805   6.673   7.174
 2011TIP3    H227593   2.877   0.029   7.164
 2012TIP3   OH227594   3.983   5.211   1.167
 2012TIP3    H127595   4.011   5.206   1.259
 2012TIP3    H227596   3.996   5.302   1.143
 2013TIP3   OH227597   5.704   1.734   0.869
 2013TIP3    H127598   5.611   1.757   0.867
 2013TIP3    H227599   5.749   1.818   0.879
 2014TIP3   OH227600   0.449   4.208   7.248
 2014TIP3    H127601   0.481   4.298   7.250
 2014TIP3    H227602   0.482   4.169   7.329
 2015TIP3   OH227603   2.550   0.078   7.716
 2015TIP3    H127604   2.605   0.149   7.749
 2015TIP3    H227605   2.535   0.023   7.793
 2016TIP3   OH227606   1.626   1.722   6.575
 2016TIP3    H127607   1.609   1.707   6.482
 2016TIP3    H227608   1.561   1.669   6.621
 2017TIP3   OH227609   6.230   3.843   7.385
 2017TIP3    H127610   6.178   3.774   7.344
 2017TIP3    H227611   6.181   3.924   7.369
 2018TIP3   OH227612   4.635   6.628   7.576
 2018TIP3    H127613   4.641   6.555   7.637
 2018TIP3    H227614   4.726   6.647   7.553
 2019TIP3   OH227615   3.714   0.235   0.256
 2019TIP3    H127616   3.674   0.290   0.323
 2019TIP3    H227617   3.648   0.169   0.236
 2020TIP3   OH227618   3.248   1.829   2.273
 2020TIP3    H127619   3.327   1.864   2.314
 2020TIP3    H227620   3.257   1.852   2.181
 2021TIP3   OH227621   5.277   1.143   8.875
 2021TIP3    H127622   5.272   1.048   8.890
 2021TIP3    H227623   5.243   1.182   0.042
 2022TIP3   OH227624   2.408   1.398   7.525
 2022TIP3    H127625   2.470   1.337   7.486
 2022TIP3    H227626   2.452   1.483   7.522
 2023TIP3   OH227627   0.511   1.158   8.546
 2023TIP3    H127628   0.515   1.218   8.472
 2023TIP3    H227629   0.418   1.135   8.553
 2024TIP3   OH227630   2.509   4.498   8.601
 2024TIP3    H127631   2.478   4.582   8.636
 2024TIP3    H227632   2.534   4.448   8.679
 2025TIP3   OH227633   0.012   0.076   0.510
 2025TIP3    H127634   6.758   0.156   0.553
 2025TIP3    H227635   0.027   0.103   0.419
 2026TIP3   OH227636   2.624   4.356   8.828
 2026TIP3    H127637   2.563   4.356   8.901
 2026TIP3    H227638   2.696   4.412   8.857
 2027TIP3   OH227639   1.661   1.301   0.295
 2027TIP3    H127640   1.718   1.250   0.238
 2027TIP3    H227641   1.674   1.391   0.268
 2028TIP3   OH227642   3.977   1.539   0.559
 2028TIP3    H127643   3.982   1.453   0.599
 2028TIP3    H227644   3.929   1.526   0.478
 2029TIP3   OH227645   1.229   6.361   1.536
 2029TIP3    H127646   1.244   6.314   1.618
 2029TIP3    H227647   1.246   6.453   1.557
 2030TIP3   OH227648   6.302   3.707   8.101
 2030TIP3    H127649   6.229   3.765   8.080
 2030TIP3    H227650   6.266   3.619   8.093
 2031TIP3   OH227651   2.544   0.181   1.283
 2031TIP3    H127652   2.455   0.212   1.269
 2031TIP3    H227653   2.595   0.261   1.299
 2032TIP3   OH227654   1.222   2.140   0.770
 2032TIP3    H127655   1.175   2.099   0.697
 2032TIP3    H227656   1.303   2.089   0.778
 2033TIP3   OH227657   0.450   1.669   8.322
 2033TIP3    H127658   0.368   1.653   8.277
 2033TIP3    H227659   0.468   1.761   8.307
 2034TIP3   OH227660   6.011   1.336   1.432
 2034TIP3    H127661   6.058   1.278   1.493
 2034TIP3    H227662   6.063   1.416   1.431
 2035TIP3   OH227663   5.601   3.067   8.109
 2035TIP3    H127664   5.611   3.066   8.014
 2035TIP3    H227665   5.683   3.030   8.142
 2036TIP3   OH227666   3.008   1.564   8.842
 2036TIP3    H127667   3.069   1.622   8.887
 2036TIP3    H227668   2.935   1.621   8.817
 2037TIP3   OH227669   6.115   4.964   1.008
 2037TIP3    H127670   6.172   4.983   1.083
 2037TIP3    H227671   6.037   5.016   1.023
 2038TIP3   OH227672   1.051   6.555   1.858
 2038TIP3    H127673   1.120   6.542   1.924
 2038TIP3    H227674   1.001   6.474   1.859
 2039TIP3   OH227675   1.503   1.931   6.817
 2039TIP3    H127676   1.413   1.901   6.823
 2039TIP3    H227677   1.522   1.969   6.903
 2040TIP3   OH227678   4.178   1.282   7.745
 2040TIP3    H127679   4.229   1.280   7.664
 2040TIP3    H227680   4.217   1.213   7.800
 2041TIP3   OH227681   0.906   4.959   7.996
 2041TIP3    H127682   0.908   4.925   8.086
 2041TIP3    H227683   0.838   4.908   7.953
 2042TIP3   OH227684   6.549   3.907   1.651
 2042TIP3    H127685   6.519   3.854   1.577
 2042TIP3    H227686   6.581   3.988   1.612
 2043TIP3   OH227687   3.518   4.296   0.198
 2043TIP3    H127688   3.432   4.254   0.210
 2043TIP3    H227689   3.527   4.354   0.274
 2044TIP3   OH227690   1.305   6.627   1.336
 2044TIP3    H127691   1.382   6.571   1.350
 2044TIP3    H227692   1.265   6.633   1.423
 2045TIP3   OH227693   1.396   4.814   8.593
 2045TIP3    H127694   1.457   4.775   8.530
 2045TIP3    H227695   1.349   4.881   8.544
 2046TIP3   OH227696   1.335   3.065   1.235
 2046TIP3    H127697   1.416   3.017   1.255
 2046TIP3    H227698   1.360   3.127   1.167
 2047TIP3   OH227699   2.991   3.468   0.626
 2047TIP3    H127700   3.029   3.402   0.568
 2047TIP3    H227701   2.976   3.544   0.569
 2048TIP3   OH227702   3.563   3.641   0.371
 2048TIP3    H127703   3.569   3.667   0.279
 2048TIP3    H227704   3.515   3.558   0.370
 2049TIP3   OH227705   2.076   4.397   0.325
 2049TIP3    H127706   2.004   4.458   0.338
 2049TIP3    H227707   2.040   4.329   0.268
 2050TIP3   OH227708   0.453   3.994   1.699
 2050TIP3    H127709   0.380   4.003   1.760
 2050TIP3    H227710   0.525   3.958   1.752
 2051TIP3   OH227711   1.069   2.275   0.962
 2051TIP3    H127712   1.102   2.364   0.957
 2051TIP3    H227713   1.125   2.225   0.903
 2052TIP3   OH227714   3.825   4.898   8.866
 2052TIP3    H127715   3.909   4.856   8.884
 2052TIP3    H227716   3.790   4.920   0.039
 2053TIP3   OH227717   4.772   1.528   8.701
 2053TIP3    H127718   4.725   1.607   8.675
 2053TIP3    H227719   4.865   1.552   8.693
 2054TIP3   OH227720   1.860   6.774   7.347
 2054TIP3    H127721   1.878   6.689   7.307
 2054TIP3    H227722   1.929   0.008   7.413
 2055TIP3   OH227723   6.688   3.685   1.713
 2055TIP3    H127724   6.769   3.736   1.710
 2055TIP3    H227725   6.619   3.749   1.703
 2056TIP3   OH227726   4.070   5.211   1.743
 2056TIP3    H127727   4.035   5.124   1.762
 2056TIP3    H227728   4.059   5.259   1.825
 2057TIP3   OH227729   2.936   1.562   1.151
 2057TIP3    H127730   2.943   1.652   1.120
 2057TIP3    H227731   2.844   1.538   1.136
 2058TIP3   OH227732   3.355   2.220   7.292
 2058TIP3    H127733   3.438   2.262   7.270
 2058TIP3    H227734   3.313   2.204   7.208
 2059TIP3   OH227735   4.316   6.141   8.826
 2059TIP3    H127736   4.341   6.218   8.878
 2059TIP3    H227737   4.309   6.070   8.891
 2060TIP3   OH227738   4.085   3.218   2.668
 2060TIP3    H127739   4.176   3.201   2.643
 2060TIP3    H227740   4.052   3.277   2.601
 2061TIP3   OH227741   3.318   1.575   0.586
 2061TIP3    H127742   3.395   1.529   0.620
 2061TIP3    H227743   3.298   1.640   0.654
 2062TIP3   OH227744   5.636   3.954   7.419
 2062TIP3    H127745   5.675   3.877   7.459
 2062TIP3    H227746   5.651   3.942   7.325
 2063TIP3   OH227747   5.919   1.169   0.074
 2063TIP3    H127748   5.875   1.123   0.145
 2063TIP3    H227749   5.871   1.143   8.909
 2064TIP3   OH227750   5.561   1.033   0.829
 2064TIP3    H127751   5.623   1.061   0.897
 2064TIP3    H227752   5.561   0.938   0.834
 2065TIP3   OH227753   5.576   5.714   0.301
 2065TIP3    H127754   5.635   5.683   0.232
 2065TIP3    H227755   5.489   5.709   0.262
 2066TIP3   OH227756   6.670   6.554   7.135
 2066TIP3    H127757   6.710   6.628   7.090
 2066TIP3    H227758   6.737   6.522   7.195
 2067TIP3   OH227759   4.797   5.685   0.928
 2067TIP3    H127760   4.784   5.613   0.866
 2067TIP3    H227761   4.708   5.715   0.947
 2068TIP3   OH227762   3.954   1.155   7.579
 2068TIP3    H127763   4.023   1.159   7.513
 2068TIP3    H227764   4.000   1.160   7.663
 2069TIP3   OH227765   5.351   5.760   1.287
 2069TIP3    H127766   5.370   5.825   1.219
 2069TIP3    H227767   5.395   5.680   1.257
 2070TIP3   OH227768   5.629   4.769   0.902
 2070TIP3    H127769   5.627   4.846   0.845
 2070TIP3    H227770   5.706   4.781   0.957
 2071TIP3   OH227771   5.764   0.697   7.218
 2071TIP3    H127772   5.813   0.772   7.253
 2071TIP3    H227773   5.676   0.733   7.200
 2072TIP3   OH227774   4.655   4.956   1.029
 2072TIP3    H127775   4.748   4.959   1.053
 2072TIP3    H227776   4.652   4.895   0.956
 2073TIP3   OH227777   4.311   3.807   0.992
 2073TIP3    H127778   4.287   3.760   1.072
 2073TIP3    H227779   4.231   3.809   0.940
 2074TIP3   OH227780   3.724   6.689   2.363
 2074TIP3    H127781   3.789   6.759   2.369
 2074TIP3    H227782   3.645   6.727   2.402
 2075TIP3   OH227783   1.556   3.021   1.369
 2075TIP3    H127784   1.565   2.927   1.387
 2075TIP3    H227785   1.635   3.042   1.319
 2076TIP3   OH227786   4.151   5.920   1.748
 2076TIP3    H127787   4.087   5.874   1.693
 2076TIP3    H227788   4.195   5.980   1.687
 2077TIP3   OH227789   2.271   1.839   1.197
 2077TIP3    H127790   2.251   1.827   1.104
 2077TIP3    H227791   2.354   1.793   1.209
 2078TIP3   OH227792   1.806   4.844   0.447
 2078TIP3    H127793   1.869   4.773   0.452
 2078TIP3    H227794   1.791   4.870   0.538
 2079TIP3   OH227795   1.370   2.122   1.419
 2079TIP3    H127796   1.352   2.064   1.492
 2079TIP3    H227797   1.380   2.209   1.459
 2080TIP3   OH227798   5.148   6.631   0.959
 2080TIP3    H127799   5.150   6.599   1.049
 2080TIP3    H227800   5.114   6.557   0.908
 2081TIP3   OH227801   0.643   4.904   1.014
 2081TIP3    H127802   0.702   4.831   0.995
 2081TIP3    H227803   0.651   4.962   0.938
 2082TIP3   OH227804   3.755   5.959   8.215
 2082TIP3    H127805   3.690   5.968   8.285
 2082TIP3    H227806   3.815   6.032   8.229
 2083TIP3   OH227807   1.281   6.396   7.603
 2083TIP3    H127808   1.215   6.441   7.550
 2083TIP3    H227809   1.323   6.335   7.542
 2084TIP3   OH227810   0.260   4.040   1.887
 2084TIP3    H127811   0.307   4.082   1.959
 2084TIP3    H227812   0.188   4.099   1.867
 2085TIP3   OH227813   2.250   5.570   2.168
 2085TIP3    H127814   2.253   5.519   2.249
 2085TIP3    H227815   2.266   5.506   2.098
 2086TIP3   OH227816   6.042   0.727   0.689
 2086TIP3    H127817   6.104   0.675   0.638
 2086TIP3    H227818   6.091   0.753   0.767
 2087TIP3   OH227819   4.490   0.722   7.183
 2087TIP3    H127820   4.464   0.814   7.174
 2087TIP3    H227821   4.416   0.673   7.147
 2088TIP3   OH227822   2.059   1.900   7.600
 2088TIP3    H127823   2.113   1.969   7.638
 2088TIP3    H227824   2.037   1.932   7.512
 2089TIP3   OH227825   4.906   3.389   1.497
 2089TIP3    H127826   4.913   3.380   1.402
 2089TIP3    H227827   4.934   3.478   1.515
 2090TIP3   OH227828   5.855   3.799   0.674
 2090TIP3    H127829   5.838   3.712   0.638
 2090TIP3    H227830   5.928   3.833   0.622
 2091TIP3   OH227831   4.175   5.205   2.299
 2091TIP3    H127832   4.221   5.132   2.258
 2091TIP3    H227833   4.212   5.283   2.257
 2092TIP3   OH227834   3.219   5.731   6.828
 2092TIP3    H127835   3.170   5.649   6.831
 2092TIP3    H227836   3.311   5.704   6.821
 2093TIP3   OH227837   2.820   4.866   0.464
 2093TIP3    H127838   2.792   4.899   0.550
 2093TIP3    H227839   2.807   4.771   0.470
 2094TIP3   OH227840   0.481   1.410   7.802
 2094TIP3    H127841   0.548   1.343   7.802
 2094TIP3    H227842   0.491   1.455   7.718
 2095TIP3   OH227843   4.011   0.476   8.240
 2095TIP3    H127844   4.040   0.565   8.219
 2095TIP3    H227845   4.052   0.456   8.324
 2096TIP3   OH227846   2.526   0.818   6.753
 2096TIP3    H127847   2.551   0.800   6.663
 2096TIP3    H227848   2.512   0.912   6.756
 2097TIP3   OH227849   6.235   4.862   6.228
 2097TIP3    H127850   6.177   4.922   6.181
 2097TIP3    H227851   6.225   4.886   6.320
 2098TIP3   OH227852   2.342   1.625   1.481
 2098TIP3    H127853   2.319   1.717   1.493
 2098TIP3    H227854   2.313   1.605   1.392
 2099TIP3   OH227855   3.077   0.230   8.039
 2099TIP3    H127856   3.089   0.324   8.049
 2099TIP3    H227857   2.984   0.219   8.019
 2100TIP3   OH227858   4.186   2.601   1.471
 2100TIP3    H127859   4.172   2.687   1.511
 2100TIP3    H227860   4.124   2.599   1.398
 2101TIP3   OH227861   4.710   4.439   0.671
 2101TIP3    H127862   4.731   4.359   0.622
 2101TIP3    H227863   4.712   4.509   0.606
 2102TIP3   OH227864   2.411   4.662   0.495
 2102TIP3    H127865   2.428   4.711   0.415
 2102TIP3    H227866   2.478   4.691   0.556
 2103TIP3   OH227867   6.525   3.745   8.849
 2103TIP3    H127868   6.598   3.806   8.846
 2103TIP3    H227869   6.455   3.794   8.892
 2104TIP3   OH227870   3.444   0.299   1.190
 2104TIP3    H127871   3.531   0.272   1.161
 2104TIP3    H227872   3.433   0.257   1.275
 2105TIP3   OH227873   3.535   6.227   1.718
 2105TIP3    H127874   3.462   6.241   1.658
 2105TIP3    H227875   3.520   6.290   1.788
 2106TIP3   OH227876   0.020   6.635   8.418
 2106TIP3    H127877   0.066   6.635   8.334
 2106TIP3    H227878   0.046   6.718   8.459
 2107TIP3   OH227879   6.022   0.109   6.675
 2107TIP3    H127880   5.970   0.180   6.639
 2107TIP3    H227881   6.113   0.133   6.657
 2108TIP3   OH227882   2.533   5.956   1.920
 2108TIP3    H127883   2.566   6.018   1.985
 2108TIP3    H227884   2.463   6.004   1.875
 2109TIP3   OH227885   4.274   1.104   0.628
 2109TIP3    H127886   4.293   1.016   0.596
 2109TIP3    H227887   4.358   1.150   0.622
 2110TIP3   OH227888   2.550   3.160   7.935
 2110TIP3    H127889   2.642   3.149   7.960
 2110TIP3    H227890   2.516   3.071   7.927
 2111TIP3   OH227891   2.178   1.449   1.254
 2111TIP3    H127892   2.127   1.410   1.325
 2111TIP3    H227893   2.130   1.528   1.230
 2112TIP3   OH227894   6.278   5.684   0.272
 2112TIP3    H127895   6.299   5.772   0.243
 2112TIP3    H227896   6.354   5.655   0.322
 2113TIP3   OH227897   6.381   4.855   1.445
 2113TIP3    H127898   6.459   4.805   1.470
 2113TIP3    H227899   6.319   4.839   1.517
 2114TIP3   OH227900   4.408   0.383   1.875
 2114TIP3    H127901   4.423   0.291   1.895
 2114TIP3    H227902   4.457   0.431   1.943
 2115TIP3   OH227903   4.305   3.201   1.037
 2115TIP3    H127904   4.360   3.278   1.054
 2115TIP3    H227905   4.282   3.169   1.124
 2116TIP3   OH227906   0.060   2.979   7.365
 2116TIP3    H127907   0.064   3.021   7.279
 2116TIP3    H227908   6.762   2.919   7.359
 2117TIP3   OH227909   1.495   3.882   2.438
 2117TIP3    H127910   1.554   3.938   2.487
 2117TIP3    H227911   1.414   3.882   2.489
 2118TIP3   OH227912   3.616   0.840   0.766
 2118TIP3    H127913   3.524   0.866   0.762
 2118TIP3    H227914   3.665   0.922   0.754
 2119TIP3   OH227915   6.104   5.859   6.268
 2119TIP3    H127916   6.080   5.951   6.281
 2119TIP3    H227917   6.155   5.859   6.187
 2120TIP3   OH227918   0.572   0.545   0.736
 2120TIP3    H127919   0.477   0.530   0.727
 2120TIP3    H227920   0.610   0.457   0.737
 2121TIP3   OH227921   2.927   1.540   7.019
 2121TIP3    H127922   2.898   1.501   7.102
 2121TIP3    H227923   2.911   1.634   7.029
 2122TIP3   OH227924   0.676   0.078   0.321
 2122TIP3    H127925   0.740   0.138   0.282
 2122TIP3    H227926   0.729   0.016   0.371
 2123TIP3   OH227927   2.701   2.935   0.888
 2123TIP3    H127928   2.764   2.875   0.848
 2123TIP3    H227929   2.672   2.991   0.815
 2124TIP3   OH227930   6.328   3.027   0.091
 2124TIP3    H127931   6.385   3.049   0.018
 2124TIP3    H227932   6.315   3.110   0.137
 2125TIP3   OH227933   0.093   2.605   1.951
 2125TIP3    H127934   0.167   2.590   2.010
 2125TIP3    H227935   0.054   2.687   1.982
 2126TIP3   OH227936   3.936   5.558   1.669
 2126TIP3    H127937   3.864   5.556   1.733
 2126TIP3    H227938   4.001   5.497   1.705
 2127TIP3   OH227939   6.721   2.116   6.640
 2127TIP3    H127940   6.674   2.057   6.583
 2127TIP3    H227941   6.669   2.196   6.640
 2128TIP3   OH227942   1.428   4.163   0.965
 2128TIP3    H127943   1.386   4.205   1.040
 2128TIP3    H227944   1.356   4.130   0.912
 2129TIP3   OH227945   1.807   0.464   1.786
 2129TIP3    H127946   1.783   0.473   1.694
 2129TIP3    H227947   1.727   0.435   1.829
 2130TIP3   OH227948   1.961   5.783   6.987
 2130TIP3    H127949   1.887   5.776   7.047
 2130TIP3    H227950   1.954   5.871   6.950
 2131TIP3   OH227951   2.158   1.333   2.602
 2131TIP3    H127952   2.229   1.309   2.662
 2131TIP3    H227953   2.138   1.424   2.622
 2132TIP3   OH227954   2.354   1.782   2.363
 2132TIP3    H127955   2.386   1.714   2.422
 2132TIP3    H227956   2.309   1.734   2.293
 2133TIP3   OH227957   5.399   4.970   8.223
 2133TIP3    H127958   5.446   4.940   8.145
 2133TIP3    H227959   5.463   4.961   8.294
 2134TIP3   OH227960   3.262   4.415   0.698
 2134TIP3    H127961   3.188   4.394   0.755
 2134TIP3    H227962   3.259   4.349   0.629
 2135TIP3   OH227963   5.728   5.531   7.236
 2135TIP3    H127964   5.692   5.505   7.151
 2135TIP3    H227965   5.781   5.608   7.217
 2136TIP3   OH227966   3.773   4.162   0.109
 2136TIP3    H127967   3.842   4.190   0.169
 2136TIP3    H227968   3.692   4.189   0.151
 2137TIP3   OH227969   2.013   2.214   0.748
 2137TIP3    H127970   1.958   2.225   0.671
 2137TIP3    H227971   1.961   2.248   0.820
 2138TIP3   OH227972   1.573   5.341   8.306
 2138TIP3    H127973   1.626   5.276   8.352
 2138TIP3    H227974   1.614   5.348   8.220
 2139TIP3   OH227975   3.624   1.322   7.875
 2139TIP3    H127976   3.533   1.295   7.884
 2139TIP3    H227977   3.622   1.400   7.820
 2140TIP3   OH227978   5.617   5.439   1.724
 2140TIP3    H127979   5.549   5.434   1.791
 2140TIP3    H227980   5.632   5.347   1.699
 2141TIP3   OH227981   2.585   2.716   7.759
 2141TIP3    H127982   2.509   2.707   7.701
 2141TIP3    H227983   2.657   2.673   7.713
 2142TIP3   OH227984   1.999   0.129   8.212
 2142TIP3    H127985   1.994   0.200   8.276
 2142TIP3    H227986   1.909   0.121   8.178
 2143TIP3   OH227987   4.265   3.655   6.913
 2143TIP3    H127988   4.336   3.646   6.849
 2143TIP3    H227989   4.200   3.710   6.869
 2144TIP3   OH227990   4.292   3.923   8.135
 2144TIP3    H127991   4.244   4.005   8.132
 2144TIP3    H227992   4.380   3.945   8.103
 2145TIP3   OH227993   2.565   0.274   8.464
 2145TIP3    H127994   2.541   0.265   8.556
 2145TIP3    H227995   2.584   0.368   8.455
 2146TIP3   OH227996   4.634   0.379   0.083
 2146TIP3    H127997   4.591   0.319   0.022
 2146TIP3    H227998   4.721   0.392   0.046
 2147TIP3   OH227999   0.666   4.133   0.941
 2147TIP3    H128000   0.642   4.216   0.984
 2147TIP3    H228001   0.614   4.132   0.861
 2148TIP3   OH228002   4.488   0.104   0.613
 2148TIP3    H128003   4.420   0.171   0.614
 2148TIP3    H228004   4.532   0.116   0.529
 2149TIP3   OH228005   4.604   1.565   0.019
 2149TIP3    H128006   4.686   1.528   8.901
 2149TIP3    H228007   4.537   1.520   8.881
 2150TIP3   OH228008   3.534   2.694   6.800
 2150TIP3    H128009   3.597   2.765   6.805
 2150TIP3    H228010   3.539   2.663   6.710
 2151TIP3   OH228011   3.686   3.415   2.112
 2151TIP3    H128012   3.767   3.377   2.145
 2151TIP3    H228013   3.710   3.502   2.081
 2152TIP3   OH228014   0.478   5.339   0.225
 2152TIP3    H128015   0.559   5.290   0.234
 2152TIP3    H228016   0.421   5.283   0.173
 2153TIP3   OH228017   0.930   2.029   6.465
 2153TIP3    H128018   0.982   2.013   6.386
 2153TIP3    H228019   0.863   2.091   6.438
 2154TIP3   OH228020   2.763   3.249   7.573
 2154TIP3    H128021   2.740   3.160   7.547
 2154TIP3    H228022   2.778   3.295   7.491
 2155TIP3   OH228023   2.779   2.695   0.768
 2155TIP3    H128024   2.802   2.626   0.830
 2155TIP3    H228025   2.859   2.711   0.718
 2156TIP3   OH228026   6.042   3.189   7.525
 2156TIP3    H128027   6.122   3.224   7.564
 2156TIP3    H228028   6.033   3.235   7.442
 2157TIP3   OH228029   2.309   6.287   1.512
 2157TIP3    H128030   2.282   6.377   1.530
 2157TIP3    H228031   2.272   6.235   1.583
 2158TIP3   OH228032   0.426   5.449   6.925
 2158TIP3    H128033   0.414   5.386   6.996
 2158TIP3    H228034   0.419   5.534   6.968
 2159TIP3   OH228035   6.296   1.037   0.269
 2159TIP3    H128036   6.233   1.049   0.198
 2159TIP3    H228037   6.250   0.983   0.333
 2160TIP3   OH228038   4.072   1.287   8.076
 2160TIP3    H128039   4.019   1.217   8.114
 2160TIP3    H228040   4.150   1.293   8.131
 2161TIP3   OH228041   1.893   6.713   6.976
 2161TIP3    H128042   1.832   6.662   6.923
 2161TIP3    H228043   1.875   0.027   6.952
 2162TIP3   OH228044   6.572   3.451   8.343
 2162TIP3    H128045   6.663   3.420   8.344
 2162TIP3    H228046   6.573   3.527   8.286
 2163TIP3   OH228047   4.313   5.249   1.919
 2163TIP3    H128048   4.288   5.169   1.965
 2163TIP3    H228049   4.251   5.315   1.951
 2164TIP3   OH228050   6.604   4.380   0.037
 2164TIP3    H128051   6.697   4.376   0.011
 2164TIP3    H228052   6.601   4.445   0.107
 2165TIP3   OH228053   1.647   3.314   1.810
 2165TIP3    H128054   1.651   3.280   1.899
 2165TIP3    H228055   1.676   3.241   1.755
 2166TIP3   OH228056   2.340   5.549   1.490
 2166TIP3    H128057   2.374   5.615   1.551
 2166TIP3    H228058   2.343   5.468   1.541
 2167TIP3   OH228059   0.202   3.074   7.136
 2167TIP3    H128060   0.242   3.093   7.051
 2167TIP3    H228061   0.225   2.982   7.152
 2168TIP3   OH228062   4.467   6.722   7.795
 2168TIP3    H128063   4.505   6.698   7.711
 2168TIP3    H228064   4.383   6.677   7.797
 2169TIP3   OH228065   2.280   3.651   6.785
 2169TIP3    H128066   2.209   3.713   6.806
 2169TIP3    H228067   2.344   3.663   6.855
 2170TIP3   OH228068   4.456   6.286   1.889
 2170TIP3    H128069   4.540   6.321   1.917
 2170TIP3    H228070   4.466   6.191   1.895
 2171TIP3   OH228071   0.704   2.670   8.711
 2171TIP3    H128072   0.654   2.711   8.782
 2171TIP3    H228073   0.712   2.578   8.738
 2172TIP3   OH228074   3.204   3.931   8.618
 2172TIP3    H128075   3.225   4.018   8.651
 2172TIP3    H228076   3.159   3.888   8.691
 2173TIP3   OH228077   5.806   5.065   7.495
 2173TIP3    H128078   5.899   5.058   7.518
 2173TIP3    H228079   5.791   5.159   7.485
 2174TIP3   OH228080   2.027   5.277   1.296
 2174TIP3    H128081   2.055   5.210   1.358
 2174TIP3    H228082   2.079   5.260   1.218
 2175TIP3   OH228083   2.290   2.142   8.066
 2175TIP3    H128084   2.290   2.048   8.084
 2175TIP3    H228085   2.200   2.163   8.041
 2176TIP3   OH228086   5.633   4.595   7.057
 2176TIP3    H128087   5.679   4.528   7.007
 2176TIP3    H228088   5.584   4.645   6.991
 2177TIP3   OH228089   2.303   0.444   2.467
 2177TIP3    H128090   2.357   0.365   2.467
 2177TIP3    H228091   2.233   0.425   2.406
 2178TIP3   OH228092   3.732   3.332   7.727
 2178TIP3    H128093   3.649   3.289   7.706
 2178TIP3    H228094   3.799   3.272   7.693
 2179TIP3   OH228095   6.317   4.866   8.588
 2179TIP3    H128096   6.331   4.879   8.494
 2179TIP3    H228097   6.292   4.774   8.596
 2180TIP3   OH228098   5.281   1.521   8.463
 2180TIP3    H128099   5.225   1.595   8.441
 2180TIP3    H228100   5.334   1.553   8.536
 2181TIP3   OH228101   3.131   2.821   7.983
 2181TIP3    H128102   3.060   2.815   7.919
 2181TIP3    H228103   3.094   2.782   8.063
 2182TIP3   OH228104   4.022   4.701   8.365
 2182TIP3    H128105   3.960   4.674   8.298
 2182TIP3    H228106   3.999   4.648   8.442
 2183TIP3   OH228107   4.056   4.085   1.608
 2183TIP3    H128108   4.088   4.039   1.685
 2183TIP3    H228109   3.966   4.109   1.631
 2184TIP3   OH228110   1.284   3.898   7.149
 2184TIP3    H128111   1.227   3.966   7.111
 2184TIP3    H228112   1.322   3.854   7.073
 2185TIP3   OH228113   6.548   0.487   8.591
 2185TIP3    H128114   6.486   0.430   8.638
 2185TIP3    H228115   6.517   0.486   8.501
 2186TIP3   OH228116   3.055   5.828   2.400
 2186TIP3    H128117   3.099   5.892   2.456
 2186TIP3    H228118   3.115   5.816   2.326
 2187TIP3   OH228119   1.778   2.517   8.700
 2187TIP3    H128120   1.689   2.498   8.727
 2187TIP3    H228121   1.803   2.595   8.749
 2188TIP3   OH228122   6.756   4.154   6.648
 2188TIP3    H128123   6.767   4.171   6.554
 2188TIP3    H228124   6.752   4.058   6.653
 2189TIP3   OH228125   0.854   0.388   1.387
 2189TIP3    H128126   0.879   0.301   1.357
 2189TIP3    H228127   0.928   0.418   1.440
 2190TIP3   OH228128   3.775   2.431   7.315
 2190TIP3    H128129   3.698   2.414   7.261
 2190TIP3    H228130   3.785   2.352   7.369
 2191TIP3   OH228131   1.711   3.124   1.583
 2191TIP3    H128132   1.641   3.070   1.548
 2191TIP3    H228133   1.772   3.061   1.623
 2192TIP3   OH228134   4.911   4.591   7.716
 2192TIP3    H128135   4.935   4.561   7.803
 2192TIP3    H228136   4.890   4.684   7.727
 2193TIP3   OH228137   6.452   1.868   8.020
 2193TIP3    H128138   6.392   1.800   8.049
 2193TIP3    H228139   6.535   1.823   8.004
 2194TIP3   OH228140   3.751   2.825   7.272
 2194TIP3    H128141   3.707   2.765   7.212
 2194TIP3    H228142   3.783   2.896   7.216
 2195TIP3   OH228143   2.922   0.894   1.962
 2195TIP3    H128144   2.877   0.866   2.041
 2195TIP3    H228145   2.852   0.923   1.903
 2196TIP3   OH228146   2.805   5.739   1.241
 2196TIP3    H128147   2.799   5.794   1.318
 2196TIP3    H228148   2.722   5.690   1.240
 2197TIP3   OH228149   5.846   6.709   6.312
 2197TIP3    H128150   5.793   6.639   6.352
 2197TIP3    H228151   5.836   6.696   6.218
 2198TIP3   OH228152   6.332   3.019   7.003
 2198TIP3    H128153   6.317   3.005   6.910
 2198TIP3    H228154   6.247   3.001   7.043
 2199TIP3   OH228155   4.378   3.467   1.116
 2199TIP3    H128156   4.344   3.455   1.204
 2199TIP3    H228157   4.464   3.506   1.128
 2200TIP3   OH228158   2.029   6.248   0.113
 2200TIP3    H128159   2.121   6.270   0.127
 2200TIP3    H228160   1.988   6.331   0.092
 2201TIP3   OH228161   1.806   0.512   7.139
 2201TIP3    H128162   1.892   0.476   7.156
 2201TIP3    H228163   1.745   0.440   7.157
 2202TIP3   OH228164   5.397   5.041   7.205
 2202TIP3    H128165   5.491   5.042   7.188
 2202TIP3    H228166   5.388   5.002   7.291
 2203TIP3   OH228167   5.618   0.421   7.299
 2203TIP3    H128168   5.625   0.374   7.382
 2203TIP3    H228169   5.691   0.482   7.300
 2204TIP3   OH228170   3.713   4.863   7.661
 2204TIP3    H128171   3.638   4.921   7.666
 2204TIP3    H228172   3.683   4.789   7.608
 2205TIP3   OH228173   1.658   0.805   7.890
 2205TIP3    H128174   1.751   0.812   7.911
 2205TIP3    H228175   1.635   0.715   7.913
 2206TIP3   OH228176   1.180   5.002   8.182
 2206TIP3    H128177   1.210   4.938   8.118
 2206TIP3    H228178   1.140   5.071   8.129
 2207TIP3   OH228179   1.128   0.539   7.597
 2207TIP3    H128180   1.044   0.581   7.613
 2207TIP3    H228181   1.158   0.576   7.514
 2208TIP3   OH228182   3.153   4.445   1.164
 2208TIP3    H128183   3.099   4.369   1.183
 2208TIP3    H228184   3.149   4.499   1.243
 2209TIP3   OH228185   3.260   3.395   8.853
 2209TIP3    H128186   3.321   3.467   8.871
 2209TIP3    H228187   3.306   3.317   8.884
 2210TIP3   OH228188   2.169   5.486   0.408
 2210TIP3    H128189   2.223   5.509   0.332
 2210TIP3    H228190   2.158   5.391   0.403
 2211TIP3   OH228191   3.109   5.909   1.285
 2211TIP3    H128192   3.167   5.955   1.224
 2211TIP3    H228193   3.032   5.964   1.292
 2212TIP3   OH228194   2.469   0.804   0.460
 2212TIP3    H128195   2.508   0.771   0.541
 2212TIP3    H228196   2.536   0.788   0.393
 2213TIP3   OH228197   4.468   5.605   0.200
 2213TIP3    H128198   4.424   5.637   0.278
 2213TIP3    H228199   4.406   5.544   0.160
 2214TIP3   OH228200   5.621   6.132   7.044
 2214TIP3    H128201   5.671   6.102   6.968
 2214TIP3    H228202   5.542   6.077   7.044
 2215TIP3   OH228203   6.065   0.985   6.411
 2215TIP3    H128204   6.029   1.069   6.437
 2215TIP3    H228205   5.989   0.928   6.398
 2216TIP3   OH228206   0.223   2.054   7.651
 2216TIP3    H128207   0.214   2.150   7.655
 2216TIP3    H228208   0.188   2.023   7.734
 2217TIP3   OH228209   4.943   1.379   1.824
 2217TIP3    H128210   5.025   1.363   1.776
 2217TIP3    H228211   4.936   1.305   1.884
 2218TIP3   OH228212   5.765   1.168   6.796
 2218TIP3    H128213   5.838   1.115   6.765
 2218TIP3    H228214   5.805   1.238   6.846
 2219TIP3   OH228215   3.660   4.483   7.318
 2219TIP3    H128216   3.704   4.400   7.335
 2219TIP3    H228217   3.649   4.486   7.223
 2220TIP3   OH228218   4.555   1.106   0.078
 2220TIP3    H128219   4.581   1.026   0.033
 2220TIP3    H228220   4.591   1.176   0.024
 2221TIP3   OH228221   4.803   5.120   7.486
 2221TIP3    H128222   4.732   5.075   7.439
 2221TIP3    H228223   4.883   5.087   7.445
 2222TIP3   OH228224   1.781   5.046   0.992
 2222TIP3    H128225   1.756   4.955   1.011
 2222TIP3    H228226   1.784   5.087   1.078
 2223TIP3   OH228227   3.798   1.304   1.091
 2223TIP3    H128228   3.782   1.307   1.185
 2223TIP3    H228229   3.885   1.341   1.080
 2224TIP3   OH228230   0.335   5.326   7.611
 2224TIP3    H128231   0.347   5.412   7.651
 2224TIP3    H228232   0.422   5.303   7.578
 2225TIP3   OH228233   0.347   1.995   8.611
 2225TIP3    H128234   0.405   2.028   8.542
 2225TIP3    H228235   0.362   2.053   8.685
 2226TIP3   OH228236   2.448   2.349   2.072
 2226TIP3    H128237   2.354   2.359   2.087
 2226TIP3    H228238   2.462   2.380   1.983
 2227TIP3   OH228239   0.757   3.493   1.196
 2227TIP3    H128240   0.754   3.401   1.221
 2227TIP3    H228241   0.671   3.511   1.158
 2228TIP3   OH228242   6.303   5.928   7.189
 2228TIP3    H128243   6.306   5.867   7.263
 2228TIP3    H228244   6.369   5.994   7.210
 2229TIP3   OH228245   2.804   0.267   1.533
 2229TIP3    H128246   2.812   0.358   1.564
 2229TIP3    H228247   2.865   0.263   1.459
 2230TIP3   OH228248   2.595   3.973   0.498
 2230TIP3    H128249   2.647   3.923   0.561
 2230TIP3    H228250   2.527   3.911   0.469
 2231TIP3   OH228251   3.605   0.361   7.445
 2231TIP3    H128252   3.537   0.412   7.401
 2231TIP3    H228253   3.561   0.324   7.521
 2232TIP3   OH228254   3.243   4.589   6.947
 2232TIP3    H128255   3.306   4.585   6.875
 2232TIP3    H228256   3.226   4.497   6.969
 2233TIP3   OH228257   6.657   3.378   7.604
 2233TIP3    H128258   6.675   3.430   7.683
 2233TIP3    H228259   6.696   3.293   7.621
 2234TIP3   OH228260   6.217   3.812   6.180
 2234TIP3    H128261   6.162   3.874   6.228
 2234TIP3    H228262   6.180   3.727   6.201
 2235TIP3   OH228263   0.042   1.425   7.696
 2235TIP3    H128264   0.087   1.372   7.761
 2235TIP3    H228265   0.082   1.512   7.704
 2236TIP3   OH228266   4.739   1.341   8.171
 2236TIP3    H128267   4.696   1.318   8.089
 2236TIP3    H228268   4.672   1.386   8.222
 2237TIP3   OH228269   3.368   4.992   0.894
 2237TIP3    H128270   3.381   4.897   0.894
 2237TIP3    H228271   3.434   5.025   0.956
 2238TIP3   OH228272   5.584   6.334   0.191
 2238TIP3    H128273   5.563   6.248   0.153
 2238TIP3    H228274   5.529   6.340   0.269
 2239TIP3   OH228275   1.691   3.590   0.741
 2239TIP3    H128276   1.770   3.537   0.742
 2239TIP3    H228277   1.627   3.538   0.693
 2240TIP3   OH228278   0.894   3.054   6.327
 2240TIP3    H128279   0.801   3.076   6.325
 2240TIP3    H228280   0.906   2.992   6.255
 2241TIP3   OH228281   4.006   5.757   1.486
 2241TIP3    H128282   3.959   5.754   1.403
 2241TIP3    H228283   3.990   5.672   1.526
 2242TIP3   OH228284   4.960   6.123   0.019
 2242TIP3    H128285   4.957   6.219   0.021
 2242TIP3    H228286   4.883   6.098   8.881
 2243TIP3   OH228287   1.984   2.697   7.482
 2243TIP3    H128288   2.054   2.733   7.428
 2243TIP3    H228289   1.917   2.670   7.420
 2244TIP3   OH228290   1.732   1.387   7.230
 2244TIP3    H128291   1.778   1.462   7.268
 2244TIP3    H228292   1.741   1.399   7.135
 2245TIP3   OH228293   1.880   1.630   7.712
 2245TIP3    H128294   1.897   1.723   7.695
 2245TIP3    H228295   1.793   1.629   7.752
 2246TIP3   OH228296   3.123   1.602   1.754
 2246TIP3    H128297   3.175   1.570   1.680
 2246TIP3    H228298   3.142   1.541   1.825
 2247TIP3   OH228299   1.085   3.316   1.434
 2247TIP3    H128300   1.085   3.222   1.415
 2247TIP3    H228301   1.106   3.357   1.351
 2248TIP3   OH228302   3.375   6.515   8.742
 2248TIP3    H128303   3.462   6.510   8.780
 2248TIP3    H228304   3.389   6.502   8.648
 2249TIP3   OH228305   2.979   0.301   0.136
 2249TIP3    H128306   2.929   0.254   0.069
 2249TIP3    H228307   2.961   0.394   0.119
 2250TIP3   OH228308   0.522   3.508   1.781
 2250TIP3    H128309   0.501   3.433   1.726
 2250TIP3    H228310   0.451   3.511   1.845
 2251TIP3   OH228311   6.500   2.013   0.281
 2251TIP3    H128312   6.475   2.102   0.306
 2251TIP3    H228313   6.474   2.005   0.189
 2252TIP3   OH228314   2.513   1.277   1.752
 2252TIP3    H128315   2.479   1.364   1.729
 2252TIP3    H228316   2.464   1.217   1.696
 2253TIP3   OH228317   5.102   4.373   7.277
 2253TIP3    H128318   5.012   4.388   7.248
 2253TIP3    H228319   5.122   4.447   7.334
 2254TIP3   OH228320   2.108   3.112   0.763
 2254TIP3    H128321   2.155   3.030   0.746
 2254TIP3    H228322   2.167   3.181   0.732
 2255TIP3   OH228323   2.893   2.594   7.000
 2255TIP3    H128324   2.882   2.614   6.907
 2255TIP3    H228325   2.977   2.549   7.004
 2256TIP3   OH228326   2.969   2.696   6.721
 2256TIP3    H128327   3.013   2.777   6.697
 2256TIP3    H228328   2.882   2.704   6.684
 2257TIP3   OH228329   3.913   1.958   6.519
 2257TIP3    H128330   3.874   2.035   6.477
 2257TIP3    H228331   3.905   1.976   6.612
 2258TIP3   OH228332   2.067   6.623   7.485
 2258TIP3    H128333   2.091   6.715   7.491
 2258TIP3    H228334   2.136   6.583   7.432
 2259TIP3   OH228335   6.026   4.250   1.812
 2259TIP3    H128336   6.075   4.329   1.792
 2259TIP3    H228337   5.977   4.231   1.732
 2260TIP3   OH228338   0.929   1.857   0.995
 2260TIP3    H128339   0.877   1.901   1.062
 2260TIP3    H228340   0.867   1.838   0.924
 2261TIP3   OH228341   1.182   5.988   0.165
 2261TIP3    H128342   1.222   6.073   0.150
 2261TIP3    H228343   1.208   5.964   0.254
 2262TIP3   OH228344   4.225   6.316   8.035
 2262TIP3    H128345   4.230   6.397   7.984
 2262TIP3    H228346   4.229   6.345   8.127
 2263TIP3   OH228347   0.566   5.664   0.486
 2263TIP3    H128348   0.539   5.579   0.522
 2263TIP3    H228349   0.662   5.661   0.489
 2264TIP3   OH228350   3.364   1.607   2.457
 2264TIP3    H128351   3.377   1.517   2.488
 2264TIP3    H228352   3.425   1.659   2.509
 2265TIP3   OH228353   1.953   5.254   0.197
 2265TIP3    H128354   1.866   5.288   0.180
 2265TIP3    H228355   1.977   5.207   0.118
 2266TIP3   OH228356   6.295   1.811   8.306
 2266TIP3    H128357   6.307   1.739   8.367
 2266TIP3    H228358   6.337   1.886   8.349
 2267TIP3   OH228359   0.668   4.983   1.267
 2267TIP3    H128360   0.577   4.962   1.285
 2267TIP3    H228361   0.679   4.964   1.173
 2268TIP3   OH228362   5.717   3.543   2.084
 2268TIP3    H128363   5.623   3.533   2.101
 2268TIP3    H228364   5.751   3.589   2.160
 2269TIP3   OH228365   3.004   1.963   1.274
 2269TIP3    H128366   2.982   1.961   1.367
 2269TIP3    H228367   3.082   2.018   1.269
 2270TIP3   OH228368   3.679   5.585   7.691
 2270TIP3    H128369   3.630   5.660   7.724
 2270TIP3    H228370   3.649   5.574   7.601
 2271TIP3   OH228371   1.118   2.814   7.620
 2271TIP3    H128372   1.163   2.875   7.679
 2271TIP3    H228373   1.140   2.727   7.653
 2272TIP3   OH228374   4.340   4.600   1.563
 2272TIP3    H128375   4.318   4.527   1.621
 2272TIP3    H228376   4.430   4.582   1.535
 2273TIP3   OH228377   0.491   3.312   0.042
 2273TIP3    H128378   0.414   3.265   0.010
 2273TIP3    H228379   0.564   3.252   0.027
 2274TIP3   OH228380   3.894   1.252   2.094
 2274TIP3    H128381   3.974   1.199   2.101
 2274TIP3    H228382   3.903   1.318   2.162
 2275TIP3   OH228383   1.779   4.330   0.966
 2275TIP3    H128384   1.713   4.393   0.993
 2275TIP3    H228385   1.828   4.374   0.897
 2276TIP3   OH228386   1.347   4.875   0.777
 2276TIP3    H128387   1.356   4.971   0.780
 2276TIP3    H228388   1.318   4.857   0.687
 2277TIP3   OH228389   4.917   0.115   0.305
 2277TIP3    H128390   4.951   0.076   0.385
 2277TIP3    H228391   4.875   0.196   0.334
 2278TIP3   OH228392   2.069   4.150   6.936
 2278TIP3    H128393   2.043   4.215   6.871
 2278TIP3    H228394   2.121   4.087   6.887
 2279TIP3   OH228395   1.486   6.144   1.317
 2279TIP3    H128396   1.424   6.115   1.250
 2279TIP3    H228397   1.497   6.238   1.301
 2280TIP3   OH228398   3.221   6.499   1.482
 2280TIP3    H128399   3.180   6.421   1.445
 2280TIP3    H228400   3.240   6.555   1.406
 2281TIP3   OH228401   4.533   5.512   0.908
 2281TIP3    H128402   4.556   5.574   0.977
 2281TIP3    H228403   4.616   5.472   0.882
 2282TIP3   OH228404   5.967   1.854   7.516
 2282TIP3    H128405   6.004   1.806   7.590
 2282TIP3    H228406   6.032   1.843   7.446
 2283TIP3   OH228407   0.012   3.760   1.377
 2283TIP3    H128408   6.700   3.730   1.356
 2283TIP3    H228409   0.033   3.715   1.459
 2284TIP3   OH228410   5.365   4.409   1.119
 2284TIP3    H128411   5.448   4.392   1.075
 2284TIP3    H228412   5.366   4.352   1.196
 2285TIP3   OH228413   2.402   3.973   1.207
 2285TIP3    H128414   2.369   3.975   1.117
 2285TIP3    H228415   2.344   3.911   1.251
 2286TIP3   OH228416   0.334   3.210   7.829
 2286TIP3    H128417   0.302   3.182   7.743
 2286TIP3    H228418   0.425   3.234   7.815
 2287TIP3   OH228419   3.498   0.893   0.126
 2287TIP3    H128420   3.579   0.874   0.173
 2287TIP3    H228421   3.472   0.810   0.088
 2288TIP3   OH228422   6.458   2.003   0.019
 2288TIP3    H128423   6.470   1.924   8.880
 2288TIP3    H228424   6.498   2.073   8.881
 2289TIP3   OH228425   2.756   1.366   7.645
 2289TIP3    H128426   2.821   1.297   7.629
 2289TIP3    H228427   2.762   1.423   7.568
 2290TIP3   OH228428   0.316   1.468   6.562
 2290TIP3    H128429   0.282   1.386   6.526
 2290TIP3    H228430   0.257   1.536   6.529
 2291TIP3   OH228431   4.917   1.246   7.826
 2291TIP3    H128432   4.981   1.199   7.879
 2291TIP3    H228433   4.931   1.338   7.848
 2292TIP3   OH228434   6.554   2.550   1.635
 2292TIP3    H128435   6.609   2.489   1.685
 2292TIP3    H228436   6.599   2.635   1.643
 2293TIP3   OH228437   2.547   1.351   0.888
 2293TIP3    H128438   2.526   1.349   0.795
 2293TIP3    H228439   2.643   1.344   0.891
 2294TIP3   OH228440   3.037   5.185   8.237
 2294TIP3    H128441   3.119   5.151   8.201
 2294TIP3    H228442   3.051   5.187   8.331
 2295TIP3   OH228443   4.184   1.931   6.695
 2295TIP3    H128444   4.182   1.836   6.684
 2295TIP3    H228445   4.114   1.963   6.640
 2296TIP3   OH228446   4.459   2.990   8.131
 2296TIP3    H128447   4.389   3.043   8.169
 2296TIP3    H228448   4.535   3.048   8.132
 2297TIP3   OH228449   5.994   5.459   0.972
 2297TIP3    H128450   5.905   5.436   0.999
 2297TIP3    H228451   6.050   5.394   1.014
 2298TIP3   OH228452   5.990   1.228   0.747
 2298TIP3    H128453   5.959   1.139   0.761
 2298TIP3    H228454   5.968   1.274   0.828
 2299TIP3   OH228455   1.728   3.675   8.220
 2299TIP3    H128456   1.721   3.733   8.144
 2299TIP3    H228457   1.821   3.675   8.242
 2300TIP3   OH228458   3.913   6.219   8.491
 2300TIP3    H128459   3.824   6.253   8.479
 2300TIP3    H228460   3.969   6.282   8.445
 2301TIP3   OH228461   5.825   1.152   1.811
 2301TIP3    H128462   5.921   1.147   1.813
 2301TIP3    H228463   5.798   1.110   1.892
 2302TIP3   OH228464   3.096   4.764   8.827
 2302TIP3    H128465   3.082   4.745   0.007
 2302TIP3    H228466   3.151   4.842   8.827
 2303TIP3   OH228467   6.741   0.090   1.422
 2303TIP3    H128468   6.768   0.141   1.498
 2303TIP3    H228469   0.046   0.058   1.384
 2304TIP3   OH228470   4.270   5.282   2.568
 2304TIP3    H128471   4.363   5.300   2.558
 2304TIP3    H228472   4.245   5.237   2.487
 2305TIP3   OH228473   2.332   2.480   8.326
 2305TIP3    H128474   2.280   2.554   8.356
 2305TIP3    H228475   2.378   2.450   8.405
 2306TIP3   OH228476   3.661   5.732   1.448
 2306TIP3    H128477   3.627   5.648   1.478
 2306TIP3    H228478   3.693   5.774   1.528
 2307TIP3   OH228479   5.625   2.873   2.382
 2307TIP3    H128480   5.602   2.908   2.469
 2307TIP3    H228481   5.543   2.834   2.350
 2308TIP3   OH228482   4.790   1.288   8.484
 2308TIP3    H128483   4.784   1.383   8.474
 2308TIP3    H228484   4.701   1.260   8.505
 2309TIP3   OH228485   5.686   6.611   2.148
 2309TIP3    H128486   5.700   6.637   2.058
 2309TIP3    H228487   5.614   6.667   2.178
 2310TIP3   OH228488   3.818   3.601   8.135
 2310TIP3    H128489   3.900   3.595   8.086
 2310TIP3    H228490   3.782   3.687   8.113
 2311TIP3   OH228491   0.670   5.432   1.951
 2311TIP3    H128492   0.673   5.391   2.038
 2311TIP3    H228493   0.749   5.401   1.907
 2312TIP3   OH228494   4.032   1.286   0.666
 2312TIP3    H128495   4.035   1.190   0.671
 2312TIP3    H228496   4.121   1.311   0.642
 2313TIP3   OH228497   0.716   2.235   0.092
 2313TIP3    H128498   0.757   2.321   0.095
 2313TIP3    H228499   0.642   2.242   0.153
 2314TIP3   OH228500   1.740   2.365   0.383
 2314TIP3    H128501   1.645   2.360   0.372
 2314TIP3    H228502   1.755   2.341   0.474
 2315TIP3   OH228503   4.487   5.650   7.722
 2315TIP3    H128504   4.419   5.615   7.664
 2315TIP3    H228505   4.560   5.588   7.713
 2316TIP3   OH228506   4.310   4.785   1.869
 2316TIP3    H128507   4.238   4.758   1.811
 2316TIP3    H228508   4.377   4.819   1.810
 2317TIP3   OH228509   1.151   1.577   2.407
 2317TIP3    H128510   1.200   1.657   2.391
 2317TIP3    H228511   1.063   1.607   2.431
 2318TIP3   OH228512   2.066   6.381   7.100
 2318TIP3    H128513   2.065   6.359   7.007
 2318TIP3    H228514   2.060   6.297   7.145
 2319TIP3   OH228515   2.468   2.443   7.820
 2319TIP3    H128516   2.490   2.422   7.910
 2319TIP3    H228517   2.378   2.412   7.809
 2320TIP3   OH228518   0.891   6.479   1.501
 2320TIP3    H128519   0.863   6.494   1.411
 2320TIP3    H228520   0.851   6.549   1.551
 2321TIP3   OH228521   4.060   2.823   1.109
 2321TIP3    H128522   4.029   2.771   1.183
 2321TIP3    H228523   4.078   2.759   1.040
 2322TIP3   OH228524   1.716   2.588   0.234
 2322TIP3    H128525   1.647   2.613   0.296
 2322TIP3    H228526   1.763   2.517   0.278
 2323TIP3   OH228527   4.186   1.651   6.694
 2323TIP3    H128528   4.278   1.635   6.673
 2323TIP3    H228529   4.140   1.572   6.666
 2324TIP3   OH228530   0.997   4.093   0.061
 2324TIP3    H128531   0.975   4.124   8.886
 2324TIP3    H228532   1.083   4.051   0.051
 2325TIP3   OH228533   3.265   2.752   7.153
 2325TIP3    H128534   3.315   2.686   7.107
 2325TIP3    H228535   3.311   2.764   7.236
 2326TIP3   OH228536   2.918   2.237   7.240
 2326TIP3    H128537   2.896   2.144   7.238
 2326TIP3    H228538   2.912   2.264   7.149
 2327TIP3   OH228539   0.325   6.289   0.185
 2327TIP3    H128540   0.298   6.299   0.276
 2327TIP3    H228541   0.250   6.247   0.142
 2328TIP3   OH228542   0.266   1.321   7.011
 2328TIP3    H128543   0.265   1.233   7.048
 2328TIP3    H228544   0.286   1.309   6.919
 2329TIP3   OH228545   2.016   0.435   0.573
 2329TIP3    H128546   1.964   0.472   0.502
 2329TIP3    H228547   2.078   0.377   0.530
 2330TIP3   OH228548   2.629   0.938   1.367
 2330TIP3    H128549   2.710   0.908   1.407
 2330TIP3    H228550   2.652   0.954   1.275
 2331TIP3   OH228551   6.359   1.469   2.114
 2331TIP3    H128552   6.323   1.398   2.167
 2331TIP3    H228553   6.306   1.546   2.138
 2332TIP3   OH228554   3.891   2.043   0.874
 2332TIP3    H128555   3.796   2.055   0.875
 2332TIP3    H228556   3.903   1.948   0.876
 2333TIP3   OH228557   1.566   1.153   7.060
 2333TIP3    H128558   1.581   1.246   7.042
 2333TIP3    H228559   1.589   1.110   6.978
 2334TIP3   OH228560   0.220   0.393   7.453
 2334TIP3    H128561   0.130   0.424   7.457
 2334TIP3    H228562   0.219   0.310   7.500
 2335TIP3   OH228563   4.457   0.889   0.837
 2335TIP3    H128564   4.541   0.932   0.818
 2335TIP3    H228565   4.431   0.850   0.754
 2336TIP3   OH228566   3.971   6.186   2.480
 2336TIP3    H128567   3.958   6.263   2.537
 2336TIP3    H228568   3.882   6.160   2.455
 2337TIP3   OH228569   4.810   1.843   2.200
 2337TIP3    H128570   4.773   1.838   2.288
 2337TIP3    H228571   4.800   1.754   2.165
 2338TIP3   OH228572   0.218   3.370   6.831
 2338TIP3    H128573   0.219   3.397   6.739
 2338TIP3    H228574   0.262   3.285   6.831
 2339TIP3   OH228575   1.726   2.295   1.868
 2339TIP3    H128576   1.743   2.206   1.900
 2339TIP3    H228577   1.813   2.334   1.860
 2340TIP3   OH228578   6.503   1.262   7.966
 2340TIP3    H128579   6.560   1.277   7.890
 2340TIP3    H228580   6.455   1.344   7.976
 2341TIP3   OH228581   1.701   0.341   1.122
 2341TIP3    H128582   1.791   0.374   1.130
 2341TIP3    H228583   1.712   0.246   1.114
 2342TIP3   OH228584   2.273   6.505   0.357
 2342TIP3    H128585   2.197   6.502   0.415
 2342TIP3    H228586   2.340   6.453   0.403
 2343TIP3   OH228587   5.673   4.758   1.334
 2343TIP3    H128588   5.694   4.830   1.394
 2343TIP3    H228589   5.592   4.785   1.291
 2344TIP3   OH228590   2.523   6.108   0.228
 2344TIP3    H128591   2.488   6.072   0.310
 2344TIP3    H228592   2.543   6.199   0.249
 2345TIP3   OH228593   6.758   0.043   7.064
 2345TIP3    H128594   0.060   0.032   7.117
 2345TIP3    H228595   0.014   0.059   6.976
 2346TIP3   OH228596   1.412   5.492   7.189
 2346TIP3    H128597   1.465   5.458   7.116
 2346TIP3    H228598   1.376   5.413   7.231
 2347TIP3   OH228599   6.740   4.231   8.107
 2347TIP3    H128600   0.041   4.286   8.095
 2347TIP3    H228601   6.758   4.153   8.053
 2348TIP3   OH228602   5.975   1.424   0.956
 2348TIP3    H128603   5.886   1.434   0.988
 2348TIP3    H228604   6.015   1.359   1.013
 2349TIP3   OH228605   3.256   5.469   1.874
 2349TIP3    H128606   3.207   5.506   1.948
 2349TIP3    H228607   3.286   5.384   1.905
 2350TIP3   OH228608   4.687   5.354   2.674
 2350TIP3    H128609   4.691   5.450   2.677
 2350TIP3    H228610   4.608   5.335   2.623
 2351TIP3   OH228611   4.695   3.556   7.495
 2351TIP3    H128612   4.621   3.512   7.454
 2351TIP3    H228613   4.738   3.488   7.546
 2352TIP3   OH228614   2.794   5.293   7.341
 2352TIP3    H128615   2.761   5.203   7.330
 2352TIP3    H228616   2.771   5.337   7.259
 2353TIP3   OH228617   4.618   5.887   7.316
 2353TIP3    H128618   4.583   5.886   7.405
 2353TIP3    H228619   4.556   5.834   7.266
 2354TIP3   OH228620   0.303   1.244   1.234
 2354TIP3    H128621   0.360   1.233   1.311
 2354TIP3    H228622   0.230   1.297   1.266
 2355TIP3   OH228623   2.242   4.749   1.215
 2355TIP3    H128624   2.318   4.772   1.161
 2355TIP3    H228625   2.265   4.665   1.254
 2356TIP3   OH228626   6.467   0.160   6.789
 2356TIP3    H128627   6.384   0.197   6.759
 2356TIP3    H228628   6.527   0.174   6.716
 2357TIP3   OH228629   1.743   2.342   6.533
 2357TIP3    H128630   1.752   2.254   6.495
 2357TIP3    H228631   1.822   2.388   6.505
 2358TIP3   OH228632   1.106   1.310   0.292
 2358TIP3    H128633   1.029   1.332   0.344
 2358TIP3    H228634   1.135   1.226   0.327
 2359TIP3   OH228635   2.128   1.245   1.667
 2359TIP3    H128636   2.171   1.307   1.727
 2359TIP3    H228637   2.175   1.163   1.678
 2360TIP3   OH228638   6.456   4.290   8.070
 2360TIP3    H128639   6.535   4.244   8.098
 2360TIP3    H228640   6.423   4.239   7.996
 2361TIP3   OH228641   3.216   3.159   2.411
 2361TIP3    H128642   3.219   3.253   2.392
 2361TIP3    H228643   3.140   3.149   2.468
 2362TIP3   OH228644   1.472   0.592   7.664
 2362TIP3    H128645   1.383   0.562   7.685
 2362TIP3    H228646   1.528   0.542   7.724
 2363TIP3   OH228647   3.886   1.588   0.062
 2363TIP3    H128648   3.948   1.557   8.910
 2363TIP3    H228649   3.911   1.679   0.078
 2364TIP3   OH228650   5.286   4.149   0.034
 2364TIP3    H128651   5.202   4.186   0.005
 2364TIP3    H228652   5.288   4.164   0.128
 2365TIP3   OH228653   6.348   6.388   2.250
 2365TIP3    H128654   6.410   6.457   2.275
 2365TIP3    H228655   6.385   6.350   2.170
 2366TIP3   OH228656   4.786   2.068   7.201
 2366TIP3    H128657   4.877   2.059   7.173
 2366TIP3    H228658   4.792   2.090   7.294
 2367TIP3   OH228659   1.787   1.840   8.408
 2367TIP3    H128660   1.702   1.833   8.364
 2367TIP3    H228661   1.782   1.923   8.456
 2368TIP3   OH228662   6.736   1.460   1.626
 2368TIP3    H128663   6.698   1.442   1.712
 2368TIP3    H228664   6.728   1.378   1.578
 2369TIP3   OH228665   5.898   6.255   1.190
 2369TIP3    H128666   5.934   6.343   1.194
 2369TIP3    H228667   5.865   6.238   1.278
 2370TIP3   OH228668   0.897   0.498   6.163
 2370TIP3    H128669   0.940   0.437   6.103
 2370TIP3    H228670   0.968   0.539   6.211
 2371TIP3   OH228671   1.688   5.585   1.673
 2371TIP3    H128672   1.599   5.575   1.706
 2371TIP3    H228673   1.689   5.670   1.630
 2372TIP3   OH228674   1.507   1.996   0.442
 2372TIP3    H128675   1.463   1.952   0.369
 2372TIP3    H228676   1.600   1.997   0.417
 2373TIP3   OH228677   6.370   5.731   7.376
 2373TIP3    H128678   6.355   5.656   7.319
 2373TIP3    H228679   6.296   5.730   7.437
 2374TIP3   OH228680   4.415   3.292   0.122
 2374TIP3    H128681   4.479   3.343   0.172
 2374TIP3    H228682   4.373   3.356   0.065
 2375TIP3   OH228683   1.263   3.052   6.890
 2375TIP3    H128684   1.305   2.969   6.865
 2375TIP3    H228685   1.209   3.075   6.814
 2376TIP3   OH228686   2.248   6.750   7.773
 2376TIP3    H128687   2.209   0.025   7.844
 2376TIP3    H228688   2.253   0.034   7.699
 2377TIP3   OH228689   4.336   5.197   1.396
 2377TIP3    H128690   4.326   5.109   1.433
 2377TIP3    H228691   4.303   5.191   1.307
 2378TIP3   OH228692   0.193   0.030   0.744
 2378TIP3    H128693   0.244   6.726   0.749
 2378TIP3    H228694   0.160   0.033   0.654
 2379TIP3   OH228695   4.324   0.865   2.175
 2379TIP3    H128696   4.391   0.831   2.116
 2379TIP3    H228697   4.370   0.878   2.258
 2380TIP3   OH228698   1.215   0.048   7.979
 2380TIP3    H128699   1.210   0.134   7.937
 2380TIP3    H228700   1.188   0.064   8.070
 2381TIP3   OH228701   6.283   6.516   7.180
 2381TIP3    H128702   6.204   6.555   7.219
 2381TIP3    H228703   6.342   6.502   7.255
 2382TIP3   OH228704   3.125   5.847   0.820
 2382TIP3    H128705   3.080   5.929   0.805
 2382TIP3    H228706   3.182   5.836   0.744
 2383TIP3   OH228707   5.994   0.265   7.804
 2383TIP3    H128708   6.076   0.280   7.851
 2383TIP3    H228709   5.983   0.170   7.806
 2384TIP3   OH228710   1.461   5.271   8.545
 2384TIP3    H128711   1.411   5.197   8.510
 2384TIP3    H228712   1.498   5.313   8.467
 2385TIP3   OH228713   3.988   3.597   1.790
 2385TIP3    H128714   4.029   3.510   1.787
 2385TIP3    H228715   4.043   3.647   1.849
 2386TIP3   OH228716   5.625   1.634   8.376
 2386TIP3    H128717   5.575   1.577   8.434
 2386TIP3    H228718   5.659   1.575   8.308
 2387TIP3   OH228719   6.504   1.649   8.895
 2387TIP3    H128720   6.428   1.610   0.025
 2387TIP3    H228721   6.580   1.615   0.030
 2388TIP3   OH228722   1.126   4.838   1.393
 2388TIP3    H128723   1.221   4.836   1.396
 2388TIP3    H228724   1.104   4.917   1.343
 2389TIP3   OH228725   4.570   5.410   1.276
 2389TIP3    H128726   4.626   5.343   1.236
 2389TIP3    H228727   4.556   5.379   1.366
 2390TIP3   OH228728   2.321   5.898   1.362
 2390TIP3    H128729   2.247   5.900   1.423
 2390TIP3    H228730   2.296   5.832   1.297
 2391TIP3   OH228731   6.735   0.647   8.890
 2391TIP3    H128732   6.653   0.694   8.898
 2391TIP3    H228733   0.024   0.715   8.871
 2392TIP3   OH228734   4.883   0.039   2.117
 2392TIP3    H128735   4.850   6.732   2.084
 2392TIP3    H228736   4.804   0.091   2.133
 2393TIP3   OH228737   6.413   0.823   7.329
 2393TIP3    H128738   6.445   0.894   7.273
 2393TIP3    H228739   6.440   0.848   7.417
 2394TIP3   OH228740   4.028   3.308   0.735
 2394TIP3    H128741   4.003   3.254   0.659
 2394TIP3    H228742   4.117   3.335   0.717
 2395TIP3   OH228743   0.016   5.216   8.786
 2395TIP3    H128744   0.061   5.272   8.723
 2395TIP3    H228745   6.713   5.263   8.808
 2396TIP3   OH228746   4.138   6.657   6.468
 2396TIP3    H128747   4.065   6.635   6.410
 2396TIP3    H228748   4.154   6.576   6.518
 2397TIP3   OH228749   5.998   0.203   8.205
 2397TIP3    H128750   5.955   0.144   8.266
 2397TIP3    H228751   5.927   0.249   8.160
 2398TIP3   OH228752   6.210   2.278   6.021
 2398TIP3    H128753   6.285   2.290   5.963
 2398TIP3    H228754   6.143   2.239   5.965
 2399TIP3   OH228755   1.005   0.030   6.139
 2399TIP3    H128756   0.930   0.070   6.181
 2399TIP3    H228757   0.979   6.716   6.124
 2400TIP3   OH228758   4.954   2.652   0.677
 2400TIP3    H128759   4.969   2.559   0.696
 2400TIP3    H228760   4.980   2.663   0.586
 2401TIP3   OH228761   2.731   0.660   7.015
 2401TIP3    H128762   2.820   0.696   7.016
 2401TIP3    H228763   2.725   0.612   6.933
 2402TIP3   OH228764   1.017   6.514   8.838
 2402TIP3    H128765   1.028   6.531   8.745
 2402TIP3    H228766   1.091   6.559   8.880
 2403TIP3   OH228767   3.415   5.056   7.214
 2403TIP3    H128768   3.478   5.068   7.285
 2403TIP3    H228769   3.330   5.075   7.254
 2404TIP3   OH228770   4.135   0.262   1.842
 2404TIP3    H128771   4.048   0.226   1.861
 2404TIP3    H228772   4.196   0.196   1.877
 2405TIP3   OH228773   0.991   5.259   6.899
 2405TIP3    H128774   0.920   5.323   6.891
 2405TIP3    H228775   1.066   5.309   6.930
 2406TIP3   OH228776   1.097   2.629   0.193
 2406TIP3    H128777   1.168   2.615   0.130
 2406TIP3    H228778   1.093   2.724   0.204
 2407TIP3   OH228779   5.723   4.006   7.144
 2407TIP3    H128780   5.776   3.951   7.087
 2407TIP3    H228781   5.664   4.052   7.084
 2408TIP3   OH228782   0.560   2.971   7.793
 2408TIP3    H128783   0.625   2.945   7.727
 2408TIP3    H228784   0.571   3.066   7.802
 2409TIP3   OH228785   3.957   5.891   0.836
 2409TIP3    H128786   3.998   5.853   0.758
 2409TIP3    H228787   4.022   5.878   0.905
 2410TIP3   OH228788   2.730   2.484   1.903
 2410TIP3    H128789   2.771   2.559   1.861
 2410TIP3    H228790   2.745   2.497   1.996
 2411TIP3   OH228791   0.797   1.435   8.006
 2411TIP3    H128792   0.768   1.446   8.096
 2411TIP3    H228793   0.741   1.365   7.971
 2412TIP3   OH228794   1.141   6.646   0.633
 2412TIP3    H128795   1.193   6.616   0.708
 2412TIP3    H228796   1.063   6.591   0.635
 2413TIP3   OH228797   2.609   3.523   7.036
 2413TIP3    H128798   2.567   3.463   6.974
 2413TIP3    H228799   2.595   3.482   7.121
 2414TIP3   OH228800   2.407   3.518   1.155
 2414TIP3    H128801   2.340   3.459   1.188
 2414TIP3    H228802   2.390   3.525   1.061
 2415TIP3   OH228803   3.588   0.516   2.202
 2415TIP3    H128804   3.513   0.457   2.195
 2415TIP3    H228805   3.635   0.485   2.279
 2416TIP3   OH228806   0.484   0.372   0.133
 2416TIP3    H128807   0.453   0.287   0.166
 2416TIP3    H228808   0.527   0.413   0.208
 2417TIP3   OH228809   6.375   1.165   8.319
 2417TIP3    H128810   6.444   1.118   8.272
 2417TIP3    H228811   6.306   1.178   8.254
 2418TIP3   OH228812   2.631   1.681   7.226
 2418TIP3    H128813   2.579   1.761   7.220
 2418TIP3    H228814   2.715   1.703   7.187
 2419TIP3   OH228815   3.388   6.768   8.908
 2419TIP3    H128816   3.353   6.690   8.865
 2419TIP3    H228817   3.312   0.033   0.035
 2420TIP3   OH228818   2.440   2.866   1.954
 2420TIP3    H128819   2.422   2.811   1.878
 2420TIP3    H228820   2.367   2.851   2.013
 2421TIP3   OH228821   4.176   1.892   7.531
 2421TIP3    H128822   4.178   1.982   7.500
 2421TIP3    H228823   4.146   1.841   7.456
 2422TIP3   OH228824   6.546   3.043   8.839
 2422TIP3    H128825   6.544   3.023   8.745
 2422TIP3    H228826   6.639   3.059   8.858
 2423TIP3   OH228827   5.826   2.702   1.129
 2423TIP3    H128828   5.842   2.611   1.153
 2423TIP3    H228829   5.750   2.727   1.181
 2424TIP3   OH228830   1.940   1.354   7.637
 2424TIP3    H128831   1.935   1.449   7.648
 2424TIP3    H228832   2.022   1.330   7.680
 2425TIP3   OH228833   3.302   2.198   0.835
 2425TIP3    H128834   3.305   2.288   0.803
 2425TIP3    H228835   3.216   2.166   0.807
 2426TIP3   OH228836   0.587   0.782   8.064
 2426TIP3    H128837   0.610   0.865   8.106
 2426TIP3    H228838   0.580   0.720   8.136
 2427TIP3   OH228839   4.418   0.230   1.614
 2427TIP3    H128840   4.396   0.164   1.549
 2427TIP3    H228841   4.494   0.194   1.660
 2428TIP3   OH228842   3.427   3.426   0.950
 2428TIP3    H128843   3.481   3.481   0.894
 2428TIP3    H228844   3.337   3.441   0.920
 2429TIP3   OH228845   2.801   4.701   2.229
 2429TIP3    H128846   2.717   4.682   2.188
 2429TIP3    H228847   2.816   4.627   2.288
 2430TIP3   OH228848   0.360   6.320   2.325
 2430TIP3    H128849   0.386   6.370   2.248
 2430TIP3    H228850   0.439   6.273   2.351
 2431TIP3   OH228851   2.053   3.532   7.626
 2431TIP3    H128852   2.126   3.475   7.648
 2431TIP3    H228853   2.008   3.547   7.709
 2432TIP3   OH228854   5.806   3.653   7.265
 2432TIP3    H128855   5.845   3.590   7.326
 2432TIP3    H228856   5.860   3.732   7.274
 2433TIP3   OH228857   5.210   6.512   8.045
 2433TIP3    H128858   5.265   6.561   7.983
 2433TIP3    H228859   5.221   6.558   8.128
 2434TIP3   OH228860   4.628   2.598   2.136
 2434TIP3    H128861   4.550   2.628   2.182
 2434TIP3    H228862   4.649   2.513   2.176
 2435TIP3   OH228863   3.501   6.423   0.141
 2435TIP3    H128864   3.483   6.338   0.181
 2435TIP3    H228865   3.416   6.466   0.138
 2436TIP3   OH228866   0.838   5.581   0.467
 2436TIP3    H128867   0.861   5.502   0.514
 2436TIP3    H228868   0.888   5.650   0.510
 2437TIP3   OH228869   0.530   0.614   7.108
 2437TIP3    H128870   0.564   0.693   7.065
 2437TIP3    H228871   0.601   0.549   7.097
 2438TIP3   OH228872   0.803   6.655   1.768
 2438TIP3    H128873   0.745   6.613   1.831
 2438TIP3    H228874   0.891   6.643   1.803
 2439TIP3   OH228875   4.348   5.045   2.131
 2439TIP3    H128876   4.413   5.084   2.190
 2439TIP3    H228877   4.366   4.951   2.134
 2440TIP3   OH228878   0.904   0.399   1.821
 2440TIP3    H128879   0.920   0.449   1.901
 2440TIP3    H228880   0.813   0.370   1.829
 2441TIP3   OH228881   5.459   4.975   1.315
 2441TIP3    H128882   5.471   4.934   1.229
 2441TIP3    H228883   5.368   4.957   1.337
 2442TIP3   OH228884   6.701   0.835   0.223
 2442TIP3    H128885   6.615   0.857   0.188
 2442TIP3    H228886   6.721   0.907   0.284
 2443TIP3   OH228887   4.437   6.277   7.782
 2443TIP3    H128888   4.395   6.215   7.722
 2443TIP3    H228889   4.429   6.236   7.868
 2444TIP3   OH228890   4.221   4.808   7.435
 2444TIP3    H128891   4.266   4.835   7.354
 2444TIP3    H228892   4.231   4.713   7.437
 2445TIP3   OH228893   0.647   0.295   0.783
 2445TIP3    H128894   0.649   0.294   0.879
 2445TIP3    H228895   0.626   0.205   0.759
 2446TIP3   OH228896   4.935   1.059   7.630
 2446TIP3    H128897   4.979   1.101   7.556
 2446TIP3    H228898   4.919   1.130   7.692
 2447TIP3   OH228899   0.529   0.240   6.453
 2447TIP3    H128900   0.572   0.155   6.444
 2447TIP3    H228901   0.556   0.289   6.375
 2448TIP3   OH228902   3.451   4.807   8.188
 2448TIP3    H128903   3.449   4.765   8.103
 2448TIP3    H228904   3.532   4.776   8.229
 2449TIP3   OH228905   1.160   6.664   1.586
 2449TIP3    H128906   1.147   6.642   1.678
 2449TIP3    H228907   1.096   6.733   1.569
 2450TIP3   OH228908   2.697   0.217   0.708
 2450TIP3    H128909   2.640   0.167   0.649
 2450TIP3    H228910   2.778   0.229   0.658
 2451TIP3   OH228911   2.189   5.746   7.560
 2451TIP3    H128912   2.204   5.716   7.650
 2451TIP3    H228913   2.116   5.694   7.529
 2452TIP3   OH228914   4.496   6.327   1.009
 2452TIP3    H128915   4.560   6.394   1.032
 2452TIP3    H228916   4.548   6.252   0.982
 2453TIP3   OH228917   0.913   2.151   7.973
 2453TIP3    H128918   0.895   2.223   7.913
 2453TIP3    H228919   1.000   2.169   8.008
 2454TIP3   OH228920   4.630   6.357   2.261
 2454TIP3    H128921   4.554   6.304   2.238
 2454TIP3    H228922   4.598   6.447   2.258
 2455TIP3   OH228923   0.419   0.292   8.797
 2455TIP3    H128924   0.482   0.239   8.747
 2455TIP3    H228925   0.469   0.324   8.872
 2456TIP3   OH228926   0.443   2.216   1.823
 2456TIP3    H128927   0.453   2.205   1.728
 2456TIP3    H228928   0.530   2.244   1.853
 2457TIP3   OH228929   0.410   3.640   7.022
 2457TIP3    H128930   0.427   3.671   6.933
 2457TIP3    H228931   0.455   3.555   7.026
 2458TIP3   OH228932   4.669   6.376   0.347
 2458TIP3    H128933   4.706   6.298   0.387
 2458TIP3    H228934   4.659   6.438   0.420
 2459TIP3   OH228935   5.820   3.424   1.400
 2459TIP3    H128936   5.799   3.422   1.307
 2459TIP3    H228937   5.735   3.424   1.445
 2460TIP3   OH228938   0.304   2.708   7.267
 2460TIP3    H128939   0.225   2.673   7.226
 2460TIP3    H228940   0.371   2.642   7.250
 2461TIP3   OH228941   4.906   2.998   8.502
 2461TIP3    H128942   4.857   2.945   8.439
 2461TIP3    H228943   4.863   2.981   8.586
 2462TIP3   OH228944   5.470   3.682   7.442
 2462TIP3    H128945   5.451   3.593   7.471
 2462TIP3    H228946   5.560   3.698   7.471
 2463TIP3   OH228947   1.917   3.364   7.937
 2463TIP3    H128948   1.858   3.346   8.011
 2463TIP3    H228949   1.923   3.459   7.934
 2464TIP3   OH228950   3.628   3.223   1.470
 2464TIP3    H128951   3.598   3.174   1.547
 2464TIP3    H228952   3.718   3.248   1.491
 2465TIP3   OH228953   1.278   5.647   7.946
 2465TIP3    H128954   1.315   5.594   7.875
 2465TIP3    H228955   1.251   5.584   8.012
 2466TIP3   OH228956   5.489   5.430   0.453
 2466TIP3    H128957   5.407   5.420   0.403
 2466TIP3    H228958   5.558   5.428   0.387
 2467TIP3   OH228959   0.235   1.577   8.150
 2467TIP3    H128960   0.197   1.490   8.161
 2467TIP3    H228961   0.300   1.567   8.080
 2468TIP3   OH228962   0.744   4.925   1.873
 2468TIP3    H128963   0.826   4.935   1.921
 2468TIP3    H228964   0.740   4.833   1.849
 2469TIP3   OH228965   4.852   4.053   7.438
 2469TIP3    H128966   4.844   3.963   7.471
 2469TIP3    H228967   4.768   4.071   7.397
 2470TIP3   OH228968   0.001   1.070   7.451
 2470TIP3    H128969   0.071   1.005   7.443
 2470TIP3    H228970   6.698   1.018   7.462
 2471TIP3   OH228971   2.195   6.034   1.088
 2471TIP3    H128972   2.266   5.975   1.061
 2471TIP3    H228973   2.225   6.071   1.171
 2472TIP3   OH228974   0.104   1.140   1.717
 2472TIP3    H128975   0.145   1.158   1.802
 2472TIP3    H228976   0.045   1.067   1.735
 2473TIP3   OH228977   0.624   3.887   1.254
 2473TIP3    H128978   0.644   3.971   1.296
 2473TIP3    H228979   0.710   3.848   1.237
 2474TIP3   OH228980   3.362   3.573   6.300
 2474TIP3    H128981   3.370   3.576   6.395
 2474TIP3    H228982   3.293   3.636   6.280
 2475TIP3   OH228983   6.153   3.420   8.691
 2475TIP3    H128984   6.085   3.487   8.695
 2475TIP3    H228985   6.116   3.345   8.738
 2476TIP3   OH228986   0.931   1.504   7.459
 2476TIP3    H128987   0.909   1.561   7.532
 2476TIP3    H228988   0.965   1.562   7.391
 2477TIP3   OH228989   2.956   3.372   8.199
 2477TIP3    H128990   2.903   3.372   8.278
 2477TIP3    H228991   2.899   3.331   8.133
 2478TIP3   OH228992   3.223   0.621   8.786
 2478TIP3    H128993   3.284   0.694   8.804
 2478TIP3    H228994   3.182   0.604   8.871
 2479TIP3   OH228995   3.750   4.983   0.210
 2479TIP3    H128996   3.680   5.043   0.236
 2479TIP3    H228997   3.830   5.025   0.242
 2480TIP3   OH228998   0.300   2.790   0.806
 2480TIP3    H128999   0.387   2.801   0.768
 2480TIP3    H229000   0.273   2.879   0.829
 2481TIP3   OH229001   3.198   5.918   8.006
 2481TIP3    H129002   3.135   5.929   7.935
 2481TIP3    H229003   3.280   5.897   7.962
 2482TIP3   OH229004   5.603   6.703   1.855
 2482TIP3    H129005   5.520   6.732   1.894
 2482TIP3    H229006   5.661   0.002   1.862
 2483TIP3   OH229007   1.929   3.413   0.723
 2483TIP3    H129008   1.980   3.459   0.657
 2483TIP3    H229009   1.991   3.395   0.793
 2484TIP3   OH229010   6.046   2.718   7.351
 2484TIP3    H129011   5.996   2.790   7.391
 2484TIP3    H229012   6.137   2.735   7.377
 2485TIP3   OH229013   4.165   6.099   1.985
 2485TIP3    H129014   4.145   6.059   1.900
 2485TIP3    H229015   4.258   6.118   1.982
 2486TIP3   OH229016   4.413   2.617   7.728
 2486TIP3    H129017   4.366   2.534   7.718
 2486TIP3    H229018   4.346   2.684   7.715
 2487TIP3   OH229019   3.636   4.332   2.301
 2487TIP3    H129020   3.689   4.306   2.226
 2487TIP3    H229021   3.575   4.396   2.265
 2488TIP3   OH229022   5.245   2.430   0.385
 2488TIP3    H129023   5.332   2.468   0.401
 2488TIP3    H229024   5.185   2.505   0.393
 2489TIP3   OH229025   3.362   6.545   2.152
 2489TIP3    H129026   3.315   6.529   2.234
 2489TIP3    H229027   3.454   6.538   2.175
 2490TIP3   OH229028   4.191   0.146   2.543
 2490TIP3    H129029   4.140   0.227   2.538
 2490TIP3    H229030   4.125   0.078   2.559
 2491TIP3   OH229031   0.613   3.098   1.932
 2491TIP3    H129032   0.558   3.169   1.898
 2491TIP3    H229033   0.639   3.128   2.019
 2492TIP3   OH229034   1.663   0.262   7.638
 2492TIP3    H129035   1.641   0.284   7.547
 2492TIP3    H229036   1.686   0.169   7.635
 2493TIP3   OH229037   2.443   4.757   8.099
 2493TIP3    H129038   2.430   4.813   8.023
 2493TIP3    H229039   2.396   4.676   8.078
 2494TIP3   OH229040   4.133   0.823   1.631
 2494TIP3    H129041   4.162   0.738   1.664
 2494TIP3    H229042   4.127   0.812   1.536
 2495TIP3   OH229043   5.527   2.362   0.212
 2495TIP3    H129044   5.558   2.280   0.250
 2495TIP3    H229045   5.561   2.430   0.270
 2496TIP3   OH229046   2.441   5.147   7.930
 2496TIP3    H129047   2.516   5.185   7.883
 2496TIP3    H229048   2.446   5.185   8.017
 2497TIP3   OH229049   2.767   2.707   2.964
 2497TIP3    H129050   2.824   2.671   2.897
 2497TIP3    H229051   2.825   2.723   3.039
 2498TIP3   OH229052   2.512   1.219   1.115
 2498TIP3    H129053   2.578   1.150   1.110
 2498TIP3    H229054   2.524   1.270   1.035
 2499TIP3   OH229055   1.848   4.059   1.072
 2499TIP3    H129056   1.816   4.146   1.048
 2499TIP3    H229057   1.829   4.052   1.166
 2500TIP3   OH229058   5.056   1.940   7.398
 2500TIP3    H129059   5.076   1.964   7.308
 2500TIP3    H229060   4.978   1.992   7.420
 2501TIP3   OH229061   3.255   2.276   1.162
 2501TIP3    H129062   3.230   2.331   1.237
 2501TIP3    H229063   3.182   2.285   1.101
 2502TIP3   OH229064   0.691   1.444   0.185
 2502TIP3    H129065   0.605   1.473   0.156
 2502TIP3    H229066   0.674   1.372   0.245
 2503TIP3   OH229067   0.942   4.207   7.798
 2503TIP3    H129068   0.975   4.235   7.713
 2503TIP3    H229069   0.969   4.277   7.858
 2504TIP3   OH229070   6.421   0.513   7.123
 2504TIP3    H129071   6.392   0.472   7.041
 2504TIP3    H229072   6.369   0.594   7.128
 2505TIP3   OH229073   5.300   1.696   1.413
 2505TIP3    H129074   5.249   1.773   1.437
 2505TIP3    H229075   5.379   1.702   1.467
 2506TIP3   OH229076   5.976   2.248   8.282
 2506TIP3    H129077   6.070   2.262   8.291
 2506TIP3    H229078   5.942   2.333   8.254
 2507TIP3   OH229079   4.526   0.044   7.215
 2507TIP3    H129080   4.504   0.112   7.151
 2507TIP3    H229081   4.524   6.739   7.164
 2508TIP3   OH229082   3.392   1.168   1.969
 2508TIP3    H129083   3.351   1.146   2.053
 2508TIP3    H229084   3.486   1.163   1.987
 2509TIP3   OH229085   2.972   2.356   2.040
 2509TIP3    H129086   2.940   2.355   1.950
 2509TIP3    H229087   2.917   2.420   2.085
 2510TIP3   OH229088   1.858   2.161   2.132
 2510TIP3    H129089   1.868   2.095   2.064
 2510TIP3    H229090   1.938   2.214   2.126
 2511TIP3   OH229091   4.414   5.332   0.414
 2511TIP3    H129092   4.408   5.274   0.339
 2511TIP3    H229093   4.350   5.402   0.397
 2512TIP3   OH229094   0.131   5.166   1.628
 2512TIP3    H129095   0.109   5.083   1.671
 2512TIP3    H229096   0.093   5.233   1.684
 2513TIP3   OH229097   4.777   2.414   7.475
 2513TIP3    H129098   4.748   2.437   7.387
 2513TIP3    H229099   4.747   2.487   7.530
 2514TIP3   OH229100   1.157   6.247   0.253
 2514TIP3    H129101   1.091   6.260   0.185
 2514TIP3    H229102   1.109   6.203   0.324
 2515TIP3   OH229103   0.217   1.302   7.878
 2515TIP3    H129104   0.246   1.231   7.935
 2515TIP3    H229105   0.298   1.340   7.844
 2516TIP3   OH229106   4.932   1.762   8.190
 2516TIP3    H129107   4.858   1.781   8.247
 2516TIP3    H229108   4.908   1.803   8.106
 2517TIP3   OH229109   0.387   5.876   0.055
 2517TIP3    H129110   0.376   5.953   8.913
 2517TIP3    H229111   0.424   5.810   8.910
 2518TIP3   OH229112   5.514   0.800   7.144
 2518TIP3    H129113   5.545   0.861   7.077
 2518TIP3    H229114   5.464   0.855   7.204
 2519TIP3   OH229115   3.108   5.633   2.063
 2519TIP3    H129116   3.030   5.686   2.047
 2519TIP3    H229117   3.166   5.690   2.113
 2520TIP3   OH229118   1.547   0.013   2.121
 2520TIP3    H129119   1.550   0.036   2.029
 2520TIP3    H229120   1.580   0.090   2.167
 2521TIP3   OH229121   3.625   0.013   1.292
 2521TIP3    H129122   3.649   6.716   1.348
 2521TIP3    H229123   3.546   0.049   1.333
 2522TIP3   OH229124   6.072   3.713   6.394
 2522TIP3    H129125   6.109   3.671   6.472
 2522TIP3    H229126   6.096   3.805   6.403
 2523TIP3   OH229127   3.007   0.285   2.678
 2523TIP3    H129128   3.081   0.323   2.630
 2523TIP3    H229129   2.981   0.354   2.740
 2524TIP3   OH229130   2.987   6.071   0.732
 2524TIP3    H129131   2.991   6.162   0.703
 2524TIP3    H229132   2.928   6.029   0.670
 2525TIP3   OH229133   0.716   6.404   2.312
 2525TIP3    H129134   0.679   6.490   2.330
 2525TIP3    H229135   0.796   6.400   2.363
 2526TIP3   OH229136   0.853   1.273   7.549
 2526TIP3    H129137   0.918   1.216   7.508
 2526TIP3    H229138   0.875   1.361   7.519
 2527TIP3   OH229139   3.383   1.418   8.615
 2527TIP3    H129140   3.439   1.492   8.592
 2527TIP3    H229141   3.428   1.376   8.689
 2528TIP3   OH229142   5.519   4.624   7.397
 2528TIP3    H129143   5.527   4.550   7.457
 2528TIP3    H229144   5.603   4.629   7.353
 2529TIP3   OH229145   0.375   0.519   8.078
 2529TIP3    H129146   0.281   0.516   8.063
 2529TIP3    H229147   0.387   0.592   8.140
 2530TIP3   OH229148   5.952   2.290   7.048
 2530TIP3    H129149   5.871   2.282   6.998
 2530TIP3    H229150   5.931   2.254   7.134
 2531TIP3   OH229151   5.442   2.644   0.116
 2531TIP3    H129152   5.443   2.665   0.023
 2531TIP3    H229153   5.485   2.558   0.122
 2532TIP3   OH229154   4.786   4.767   7.305
 2532TIP3    H129155   4.833   4.788   7.385
 2532TIP3    H229156   4.811   4.836   7.244
 2533TIP3   OH229157   0.688   2.809   7.462
 2533TIP3    H129158   0.622   2.849   7.406
 2533TIP3    H229159   0.746   2.763   7.401
 2534TIP3   OH229160   3.270   5.028   1.607
 2534TIP3    H129161   3.198   4.976   1.644
 2534TIP3    H229162   3.230   5.110   1.581
 2535TIP3   OH229163   1.842   3.421   7.515
 2535TIP3    H129164   1.894   3.387   7.443
 2535TIP3    H229165   1.896   3.489   7.554
 2536TIP3   OH229166   3.468   6.211   2.298
 2536TIP3    H129167   3.487   6.129   2.252
 2536TIP3    H229168   3.374   6.224   2.287
 2537TIP3   OH229169   3.096   6.534   7.732
 2537TIP3    H129170   3.089   6.516   7.826
 2537TIP3    H229171   3.086   6.448   7.691
 2538TIP3   OH229172   0.584   4.575   7.965
 2538TIP3    H129173   0.598   4.484   7.939
 2538TIP3    H229174   0.590   4.575   8.061
 2539TIP3   OH229175   4.366   5.634   0.698
 2539TIP3    H129176   4.428   5.707   0.701
 2539TIP3    H229177   4.399   5.572   0.762
 2540TIP3   OH229178   4.837   3.263   6.278
 2540TIP3    H129179   4.872   3.239   6.364
 2540TIP3    H229180   4.903   3.230   6.216
 2541TIP3   OH229181   6.499   2.379   8.092
 2541TIP3    H129182   6.455   2.416   8.015
 2541TIP3    H229183   6.525   2.455   8.143
 2542TIP3   OH229184   2.518   6.729   5.920
 2542TIP3    H129185   2.508   6.714   6.014
 2542TIP3    H229186   2.557   6.649   5.886
 2543TIP3   OH229187   3.747   5.154   6.700
 2543TIP3    H129188   3.809   5.088   6.668
 2543TIP3    H229189   3.725   5.206   6.623
 2544TIP3   OH229190   3.956   6.160   8.163
 2544TIP3    H129191   4.048   6.150   8.141
 2544TIP3    H229192   3.910   6.156   8.079
 2545TIP3   OH229193   0.814   2.423   8.765
 2545TIP3    H129194   0.882   2.395   8.704
 2545TIP3    H229195   0.858   2.429   8.849
 2546TIP3   OH229196   2.409   5.699   7.386
 2546TIP3    H129197   2.459   5.672   7.463
 2546TIP3    H229198   2.326   5.730   7.422
 2547TIP3   OH229199   3.575   2.340   7.162
 2547TIP3    H129200   3.604   2.390   7.085
 2547TIP3    H229201   3.604   2.251   7.145
 2548TIP3   OH229202   5.387   6.482   7.748
 2548TIP3    H129203   5.400   6.507   7.656
 2548TIP3    H229204   5.409   6.561   7.797
 2549TIP3   OH229205   0.091   4.523   0.044
 2549TIP3    H129206   0.114   4.572   0.122
 2549TIP3    H229207   0.175   4.507   8.913
 2550TIP3   OH229208   2.255   2.144   0.344
 2550TIP3    H129209   2.274   2.084   0.271
 2550TIP3    H229210   2.183   2.198   0.312
 2551TIP3   OH229211   3.663   0.850   1.101
 2551TIP3    H129212   3.713   0.912   1.049
 2551TIP3    H229213   3.595   0.817   1.042
 2552TIP3   OH229214   3.659   4.734   0.554
 2552TIP3    H129215   3.715   4.805   0.523
 2552TIP3    H229216   3.575   4.747   0.509
 2553TIP3   OH229217   0.700   6.315   0.561
 2553TIP3    H129218   0.651   6.243   0.602
 2553TIP3    H229219   0.640   6.352   0.497
 2554TIP3   OH229220   4.025   5.929   2.407
 2554TIP3    H129221   4.002   6.016   2.441
 2554TIP3    H229222   4.008   5.870   2.480
 2555TIP3   OH229223   6.626   3.356   7.163
 2555TIP3    H129224   6.661   3.408   7.090
 2555TIP3    H229225   6.688   3.370   7.234
 2556TIP3   OH229226   3.770   1.914   8.114
 2556TIP3    H129227   3.848   1.912   8.059
 2556TIP3    H229228   3.761   2.005   8.140
 2557TIP3   OH229229   1.367   5.039   7.456
 2557TIP3    H129230   1.326   5.011   7.538
 2557TIP3    H229231   1.295   5.040   7.392
 2558TIP3   OH229232   5.057   1.386   0.202
 2558TIP3    H129233   5.013   1.301   0.207
 2558TIP3    H229234   5.036   1.429   0.285
 2559TIP3   OH229235   2.045   0.851   0.368
 2559TIP3    H129236   2.110   0.838   0.437
 2559TIP3    H229237   2.097   0.877   0.291
 2560TIP3   OH229238   4.411   3.764   1.824
 2560TIP3    H129239   4.469   3.725   1.889
 2560TIP3    H229240   4.323   3.756   1.862
 2561TIP3   OH229241   2.312   1.839   8.831
 2561TIP3    H129242   2.302   1.869   8.740
 2561TIP3    H229243   2.245   1.771   8.840
 2562TIP3   OH229244   1.463   2.469   1.318
 2562TIP3    H129245   1.400   2.444   1.386
 2562TIP3    H229246   1.545   2.481   1.366
 2563TIP3   OH229247   0.709   3.477   0.515
 2563TIP3    H129248   0.778   3.481   0.582
 2563TIP3    H229249   0.708   3.564   0.476
 2564TIP3   OH229250   2.230   0.774   1.788
 2564TIP3    H129251   2.166   0.712   1.754
 2564TIP3    H229252   2.258   0.737   1.872
 2565TIP3   OH229253   0.540   4.709   0.135
 2565TIP3    H129254   0.632   4.715   0.109
 2565TIP3    H229255   0.505   4.797   0.119
 2566TIP3   OH229256   2.148   0.210   8.710
 2566TIP3    H129257   2.058   0.200   8.741
 2566TIP3    H229258   2.158   0.142   8.644
 2567TIP3   OH229259   5.052   1.493   0.910
 2567TIP3    H129260   5.032   1.487   0.816
 2567TIP3    H229261   5.138   1.451   0.919
 2568TIP3   OH229262   5.804   5.221   1.964
 2568TIP3    H129263   5.898   5.226   1.980
 2568TIP3    H229264   5.773   5.152   2.023
 2569TIP3   OH229265   0.305   4.451   1.779
 2569TIP3    H129266   0.237   4.480   1.840
 2569TIP3    H229267   0.376   4.514   1.792
 2570TIP3   OH229268   1.448   5.322   7.415
 2570TIP3    H129269   1.513   5.266   7.372
 2570TIP3    H229270   1.397   5.261   7.469
 2571TIP3   OH229271   2.267   5.769   2.401
 2571TIP3    H129272   2.172   5.773   2.412
 2571TIP3    H229273   2.287   5.675   2.400
 2572TIP3   OH229274   5.708   2.012   2.356
 2572TIP3    H129275   5.749   2.094   2.382
 2572TIP3    H229276   5.615   2.032   2.352
 2573TIP3   OH229277   3.768   0.901   2.170
 2573TIP3    H129278   3.722   0.856   2.240
 2573TIP3    H229279   3.856   0.916   2.204
 2574TIP3   OH229280   3.141   2.956   7.657
 2574TIP3    H129281   3.199   2.902   7.710
 2574TIP3    H229282   3.177   2.951   7.568
 2575TIP3   OH229283   0.249   1.723   6.920
 2575TIP3    H129284   0.231   1.768   6.838
 2575TIP3    H229285   0.169   1.676   6.941
 2576TIP3   OH229286   5.264   2.821   0.182
 2576TIP3    H129287   5.177   2.784   0.199
 2576TIP3    H229288   5.322   2.745   0.178
 2577TIP3   OH229289   4.772   1.889   7.973
 2577TIP3    H129290   4.763   1.896   7.878
 2577TIP3    H229291   4.691   1.928   8.007
 2578TIP3   OH229292   4.053   4.940   0.676
 2578TIP3    H129293   4.117   4.962   0.608
 2578TIP3    H229294   4.084   4.857   0.712
 2579TIP3   OH229295   5.602   2.421   7.255
 2579TIP3    H129296   5.564   2.344   7.211
 2579TIP3    H229297   5.639   2.473   7.183
 2580TIP3   OH229298   4.310   1.226   0.191
 2580TIP3    H129299   4.390   1.184   0.160
 2580TIP3    H229300   4.330   1.319   0.191
 2581TIP3   OH229301   2.629   6.636   8.483
 2581TIP3    H129302   2.633   6.541   8.485
 2581TIP3    H229303   2.589   6.660   8.567
 2582TIP3   OH229304   3.201   3.297   8.534
 2582TIP3    H129305   3.294   3.319   8.538
 2582TIP3    H229306   3.157   3.379   8.552
 2583TIP3   OH229307   1.256   5.652   8.539
 2583TIP3    H129308   1.210   5.732   8.566
 2583TIP3    H229309   1.310   5.629   8.614
 2584TIP3   OH229310   5.446   1.867   1.814
 2584TIP3    H129311   5.464   1.960   1.829
 2584TIP3    H229312   5.377   1.845   1.877
 2585TIP3   OH229313   3.130   6.265   2.045
 2585TIP3    H129314   3.097   6.316   2.119
 2585TIP3    H229315   3.153   6.180   2.084
 2586TIP3   OH229316   6.689   1.208   1.478
 2586TIP3    H129317   6.742   1.163   1.545
 2586TIP3    H229318   6.601   1.210   1.515
 2587TIP3   OH229319   0.835   6.049   1.723
 2587TIP3    H129320   0.759   6.077   1.671
 2587TIP3    H229321   0.899   6.119   1.711
 2588TIP3   OH229322   6.195   1.026   0.609
 2588TIP3    H129323   6.169   1.004   0.698
 2588TIP3    H229324   6.139   1.100   0.585
 2589TIP3   OH229325   6.751   5.901   7.719
 2589TIP3    H129326   6.752   5.810   7.749
 2589TIP3    H229327   6.668   5.935   7.750
 2590TIP3   OH229328   5.202   6.415   7.350
 2590TIP3    H129329   5.169   6.326   7.342
 2590TIP3    H229330   5.125   6.471   7.340
 2591TIP3   OH229331   5.228   0.880   6.992
 2591TIP3    H129332   5.295   0.813   6.980
 2591TIP3    H229333   5.224   0.926   6.908
 2592TIP3   OH229334   0.950   0.389   8.841
 2592TIP3    H129335   0.948   0.473   8.887
 2592TIP3    H229336   1.018   0.399   8.775
 2593TIP3   OH229337   0.862   1.321   8.357
 2593TIP3    H129338   0.945   1.326   8.310
 2593TIP3    H229339   0.815   1.401   8.332
 2594TIP3   OH229340   6.058   3.168   8.802
 2594TIP3    H129341   6.004   3.089   8.806
 2594TIP3    H229342   6.135   3.141   8.752
 2595TIP3   OH229343   3.186   6.554   6.837
 2595TIP3    H129344   3.225   6.600   6.763
 2595TIP3    H229345   3.101   6.523   6.804
 2596TIP3   OH229346   2.207   0.252   0.477
 2596TIP3    H129347   2.221   0.299   0.395
 2596TIP3    H229348   2.263   0.174   0.470
 2597TIP3   OH229349   4.614   5.008   7.298
 2597TIP3    H129350   4.525   4.978   7.278
 2597TIP3    H229351   4.665   4.984   7.221
 2598TIP3   OH229352   1.146   5.516   0.732
 2598TIP3    H129353   1.229   5.504   0.687
 2598TIP3    H229354   1.169   5.514   0.825
 2599TIP3   OH229355   0.053   1.151   0.075
 2599TIP3    H129356   0.136   1.181   0.113
 2599TIP3    H229357   0.038   1.065   0.114
 2600TIP3   OH229358   6.120   3.465   8.171
 2600TIP3    H129359   6.051   3.467   8.104
 2600TIP3    H229360   6.120   3.375   8.202
 2601TIP3   OH229361   2.649   6.622   0.220
 2601TIP3    H129362   2.673   6.667   0.301
 2601TIP3    H229363   2.561   6.654   0.201
 2602TIP3   OH229364   1.313   1.466   1.279
 2602TIP3    H129365   1.228   1.460   1.235
 2602TIP3    H229366   1.298   1.429   1.366
 2603TIP3   OH229367   2.170   0.477   6.967
 2603TIP3    H129368   2.169   0.469   7.062
 2603TIP3    H229369   2.218   0.558   6.950
 2604TIP3   OH229370   4.220   5.811   7.663
 2604TIP3    H129371   4.258   5.724   7.652
 2604TIP3    H229372   4.209   5.821   7.757
 2605TIP3   OH229373   0.998   3.630   8.186
 2605TIP3    H129374   1.012   3.670   8.100
 2605TIP3    H229375   0.942   3.554   8.167
 2606TIP3   OH229376   4.334   4.396   0.405
 2606TIP3    H129377   4.307   4.410   0.314
 2606TIP3    H229378   4.359   4.483   0.436
 2607TIP3   OH229379   2.604   4.751   7.440
 2607TIP3    H129380   2.671   4.683   7.445
 2607TIP3    H229381   2.582   4.756   7.347
 2608TIP3   OH229382   5.862   0.969   0.757
 2608TIP3    H129383   5.808   0.975   0.677
 2608TIP3    H229384   5.910   0.887   0.747
 2609TIP3   OH229385   6.624   3.237   1.910
 2609TIP3    H129386   6.582   3.235   1.995
 2609TIP3    H229387   6.673   3.319   1.909
 2610TIP3   OH229388   3.002   2.848   7.157
 2610TIP3    H129389   3.052   2.783   7.107
 2610TIP3    H229390   2.911   2.818   7.152
 2611TIP3   OH229391   3.246   6.506   0.207
 2611TIP3    H129392   3.156   6.538   0.199
 2611TIP3    H229393   3.247   6.458   0.289
 2612TIP3   OH229394   1.302   5.636   7.408
 2612TIP3    H129395   1.362   5.599   7.344
 2612TIP3    H229396   1.349   5.711   7.444
 2613TIP3   OH229397   3.043   1.961   8.561
 2613TIP3    H129398   3.087   2.046   8.568
 2613TIP3    H229399   3.089   1.905   8.624
 2614TIP3   OH229400   3.799   3.809   1.158
 2614TIP3    H129401   3.716   3.852   1.178
 2614TIP3    H229402   3.863   3.855   1.212
 2615TIP3   OH229403   2.764   0.962   6.937
 2615TIP3    H129404   2.685   0.920   6.973
 2615TIP3    H229405   2.770   1.045   6.984
 2616TIP3   OH229406   0.574   2.823   0.741
 2616TIP3    H129407   0.665   2.819   0.769
 2616TIP3    H229408   0.564   2.748   0.683
 2617TIP3   OH229409   2.658   3.662   8.789
 2617TIP3    H129410   2.667   3.735   8.728
 2617TIP3    H229411   2.563   3.653   8.801
 2618TIP3   OH229412   0.812   6.685   2.284
 2618TIP3    H129413   0.722   6.701   2.255
 2618TIP3    H229414   0.842   6.771   2.314
 2619TIP3   OH229415   2.503   3.046   8.251
 2619TIP3    H129416   2.515   3.122   8.307
 2619TIP3    H229417   2.590   3.007   8.244
 2620TIP3   OH229418   0.200   2.293   0.620
 2620TIP3    H129419   0.187   2.200   0.601
 2620TIP3    H229420   0.176   2.337   0.538
 2621TIP3   OH229421   1.015   3.199   8.704
 2621TIP3    H129422   0.954   3.260   8.745
 2621TIP3    H229423   1.097   3.249   8.697
 2622TIP3   OH229424   6.521   6.674   1.380
 2622TIP3    H129425   6.590   6.738   1.399
 2622TIP3    H229426   6.567   6.590   1.378
 2623TIP3   OH229427   2.459   4.757   6.848
 2623TIP3    H129428   2.511   4.834   6.824
 2623TIP3    H229429   2.377   4.794   6.883
 2624TIP3   OH229430   5.475   2.216   6.755
 2624TIP3    H129431   5.515   2.166   6.685
 2624TIP3    H229432   5.431   2.151   6.809
 2625TIP3   OH229433   3.128   3.581   1.537
 2625TIP3    H129434   3.064   3.534   1.483
 2625TIP3    H229435   3.211   3.568   1.492
 2626TIP3   OH229436   2.245   3.041   7.965
 2626TIP3    H129437   2.326   2.992   7.976
 2626TIP3    H229438   2.257   3.120   8.018
 2627TIP3   OH229439   1.997   1.849   8.708
 2627TIP3    H129440   2.063   1.830   8.642
 2627TIP3    H229441   1.998   1.944   8.716
 2628TIP3   OH229442   0.307   5.135   8.717
 2628TIP3    H129443   0.217   5.163   8.705
 2628TIP3    H229444   0.312   5.050   8.672
 2629TIP3   OH229445   6.710   6.601   7.790
 2629TIP3    H129446   0.029   6.608   7.791
 2629TIP3    H229447   6.689   6.581   7.699
 2630TIP3   OH229448   0.867   4.342   7.245
 2630TIP3    H129449   0.865   4.421   7.299
 2630TIP3    H229450   0.915   4.368   7.166
 2631TIP3   OH229451   4.886   2.193   7.781
 2631TIP3    H129452   4.954   2.132   7.810
 2631TIP3    H229453   4.905   2.274   7.828
 2632TIP3   OH229454   5.249   0.894   7.982
 2632TIP3    H129455   5.176   0.836   7.960
 2632TIP3    H229456   5.316   0.875   7.916
 2633TIP3   OH229457   5.634   0.234   8.117
 2633TIP3    H129458   5.571   0.300   8.144
 2633TIP3    H229459   5.708   0.283   8.082
 2634TIP3   OH229460   0.532   5.920   1.811
 2634TIP3    H129461   0.470   5.937   1.883
 2634TIP3    H229462   0.615   5.900   1.855
 2635TIP3   OH229463   3.017   5.307   7.529
 2635TIP3    H129464   2.945   5.276   7.474
 2635TIP3    H229465   3.047   5.387   7.486
 2636TIP3   OH229466   1.130   6.167   7.705
 2636TIP3    H129467   1.202   6.104   7.712
 2636TIP3    H229468   1.173   6.252   7.708
 2637TIP3   OH229469   0.092   0.108   7.703
 2637TIP3    H129470   0.172   0.153   7.731
 2637TIP3    H229471   0.052   0.169   7.641
 2638TIP3   OH229472   2.598   0.300   8.859
 2638TIP3    H129473   2.656   0.375   8.847
 2638TIP3    H229474   2.521   0.320   8.805
 2639TIP3   OH229475   1.622   6.534   8.696
 2639TIP3    H129476   1.597   6.625   8.678
 2639TIP3    H229477   1.542   6.494   8.729
 2640TIP3   OH229478   0.019   3.588   6.710
 2640TIP3    H129479   6.734   3.637   6.656
 2640TIP3    H229480   0.105   3.605   6.671
 2641TIP3   OH229481   4.959   3.721   8.591
 2641TIP3    H129482   5.002   3.769   8.662
 2641TIP3    H229483   4.910   3.651   8.634
 2642TIP3   OH229484   4.155   1.082   1.749
 2642TIP3    H129485   4.166   0.990   1.726
 2642TIP3    H229486   4.073   1.084   1.800
 2643TIP3   OH229487   2.524   0.885   7.079
 2643TIP3    H129488   2.512   0.800   7.036
 2643TIP3    H229489   2.565   0.864   7.163
 2644TIP3   OH229490   5.499   5.337   1.136
 2644TIP3    H129491   5.528   5.290   1.214
 2644TIP3    H229492   5.500   5.430   1.162
 2645TIP3   OH229493   4.683   5.229   0.595
 2645TIP3    H129494   4.713   5.139   0.585
 2645TIP3    H229495   4.600   5.233   0.547
 2646TIP3   OH229496   1.063   4.250   7.564
 2646TIP3    H129497   1.032   4.313   7.498
 2646TIP3    H229498   1.079   4.170   7.514
 2647TIP3   OH229499   4.430   5.173   0.142
 2647TIP3    H129500   4.375   5.176   0.064
 2647TIP3    H229501   4.519   5.188   0.109
 2648TIP3   OH229502   2.063   5.563   1.415
 2648TIP3    H129503   2.081   5.489   1.356
 2648TIP3    H229504   2.149   5.585   1.452
 2649TIP3   OH229505   0.515   2.593   7.115
 2649TIP3    H129506   0.600   2.560   7.088
 2649TIP3    H229507   0.453   2.557   7.051
 2650TIP3   OH229508   2.547   0.521   7.870
 2650TIP3    H129509   2.501   0.591   7.825
 2650TIP3    H229510   2.477   0.465   7.905
 2651TIP3   OH229511   3.714   5.998   0.757
 2651TIP3    H129512   3.804   5.969   0.764
 2651TIP3    H229513   3.682   5.998   0.848
 2652TIP3   OH229514   4.458   6.574   8.151
 2652TIP3    H129515   4.507   6.494   8.133
 2652TIP3    H229516   4.525   6.638   8.175
 2653TIP3   OH229517   4.712   4.084   0.895
 2653TIP3    H129518   4.733   4.059   0.806
 2653TIP3    H229519   4.796   4.088   0.940
 2654TIP3   OH229520   6.718   2.202   1.082
 2654TIP3    H129521   0.034   2.198   1.059
 2654TIP3    H229522   6.713   2.167   1.171
 2655TIP3   OH229523   5.565   6.579   0.060
 2655TIP3    H129524   5.586   6.501   0.110
 2655TIP3    H229525   5.505   6.629   0.116
 2656TIP3   OH229526   3.187   3.089   7.981
 2656TIP3    H129527   3.146   3.011   8.017
 2656TIP3    H229528   3.120   3.127   7.924
 2657TIP3   OH229529   3.437   4.138   8.563
 2657TIP3    H129530   3.357   4.129   8.510
 2657TIP3    H229531   3.452   4.232   8.566
 2658TIP3   OH229532   2.165   5.783   0.361
 2658TIP3    H129533   2.086   5.787   0.414
 2658TIP3    H229534   2.201   5.696   0.379
 2659TIP3   OH229535   0.051   4.490   7.511
 2659TIP3    H129536   0.039   4.565   7.569
 2659TIP3    H229537   0.145   4.485   7.498
 2660TIP3   OH229538   6.281   6.213   8.892
 2660TIP3    H129539   6.331   6.295   8.900
 2660TIP3    H229540   6.295   6.186   8.801
 2661TIP3   OH229541   3.968   6.398   7.646
 2661TIP3    H129542   4.003   6.441   7.723
 2661TIP3    H229543   3.887   6.446   7.626
 2662TIP3   OH229544   6.331   3.525   7.129
 2662TIP3    H129545   6.287   3.536   7.045
 2662TIP3    H229546   6.403   3.588   7.127
 2663TIP3   OH229547   3.462   1.684   0.373
 2663TIP3    H129548   3.471   1.605   0.320
 2663TIP3    H229549   3.404   1.659   0.445
 2664TIP3   OH229550   5.597   1.943   7.032
 2664TIP3    H129551   5.593   1.926   7.126
 2664TIP3    H229552   5.506   1.953   7.005
 2665TIP3   OH229553   1.750   5.917   6.596
 2665TIP3    H129554   1.745   5.933   6.690
 2665TIP3    H229555   1.765   6.004   6.558
 2666TIP3   OH229556   2.700   3.252   7.034
 2666TIP3    H129557   2.722   3.226   6.945
 2666TIP3    H229558   2.768   3.315   7.059
 2667TIP3   OH229559   6.105   5.445   2.068
 2667TIP3    H129560   6.043   5.417   2.135
 2667TIP3    H229561   6.114   5.540   2.081
 2668TIP3   OH229562   5.039   1.257   6.752
 2668TIP3    H129563   5.129   1.287   6.763
 2668TIP3    H229564   4.987   1.338   6.755
 2669TIP3   OH229565   6.332   2.653   6.679
 2669TIP3    H129566   6.306   2.673   6.589
 2669TIP3    H229567   6.325   2.737   6.725
 2670TIP3   OH229568   2.280   2.648   7.888
 2670TIP3    H129569   2.278   2.685   7.800
 2670TIP3    H229570   2.354   2.587   7.886
 2671TIP3   OH229571   6.566   5.992   1.211
 2671TIP3    H129572   6.495   5.990   1.274
 2671TIP3    H229573   6.588   5.900   1.196
 2672TIP3   OH229574   6.636   5.869   8.898
 2672TIP3    H129575   6.631   5.956   0.026
 2672TIP3    H229576   6.655   5.809   0.056
 2673TIP3   OH229577   0.653   1.739   8.015
 2673TIP3    H129578   0.738   1.703   8.042
 2673TIP3    H229579   0.661   1.833   8.030
 2674TIP3   OH229580   0.480   1.376   8.367
 2674TIP3    H129581   0.481   1.342   8.277
 2674TIP3    H229582   0.392   1.357   8.399
 2675TIP3   OH229583   0.184   2.056   2.404
 2675TIP3    H129584   0.247   2.127   2.412
 2675TIP3    H229585   0.215   2.004   2.330
 2676TIP3   OH229586   1.133   5.285   0.458
 2676TIP3    H129587   1.116   5.207   0.511
 2676TIP3    H229588   1.057   5.341   0.472
 2677TIP3   OH229589   5.545   6.065   1.835
 2677TIP3    H129590   5.571   6.008   1.907
 2677TIP3    H229591   5.456   6.038   1.812
 2678TIP3   OH229592   3.617   3.838   0.776
 2678TIP3    H129593   3.611   3.742   0.771
 2678TIP3    H229594   3.696   3.859   0.726
 2679TIP3   OH229595   5.711   6.271   7.561
 2679TIP3    H129596   5.773   6.219   7.612
 2679TIP3    H229597   5.630   6.267   7.611
 2680TIP3   OH229598   1.902   1.141   0.584
 2680TIP3    H129599   1.839   1.082   0.625
 2680TIP3    H229600   1.852   1.222   0.570
 2681TIP3   OH229601   5.971   3.485   7.927
 2681TIP3    H129602   5.881   3.518   7.933
 2681TIP3    H229603   6.017   3.551   7.875
 2682TIP3   OH229604   5.343   0.930   8.480
 2682TIP3    H129605   5.303   0.843   8.478
 2682TIP3    H229606   5.394   0.934   8.399
 2683TIP3   OH229607   4.459   2.271   1.778
 2683TIP3    H129608   4.437   2.314   1.862
 2683TIP3    H229609   4.404   2.316   1.714
 2684TIP3   OH229610   1.620   2.684   7.595
 2684TIP3    H129611   1.650   2.694   7.505
 2684TIP3    H229612   1.700   2.670   7.646
 2685TIP3   OH229613   2.182   6.737   7.041
 2685TIP3    H129614   2.192   6.663   6.982
 2685TIP3    H229615   2.090   6.736   7.066
 2686TIP3   OH229616   0.331   2.098   7.393
 2686TIP3    H129617   0.322   2.029   7.328
 2686TIP3    H229618   0.302   2.058   7.475
 2687TIP3   OH229619   3.561   0.185   8.797
 2687TIP3    H129620   3.564   0.160   8.705
 2687TIP3    H229621   3.493   0.130   8.835
 2688TIP3   OH229622   1.029   4.100   1.681
 2688TIP3    H129623   1.004   4.168   1.620
 2688TIP3    H229624   0.977   4.118   1.760
 2689TIP3   OH229625   6.057   3.974   0.307
 2689TIP3    H129626   5.961   3.966   0.306
 2689TIP3    H229627   6.075   4.043   0.243
 2690TIP3   OH229628   1.430   1.002   1.546
 2690TIP3    H129629   1.523   1.016   1.564
 2690TIP3    H229630   1.394   1.090   1.537
 2691TIP3   OH229631   0.345   4.264   1.305
 2691TIP3    H129632   0.392   4.199   1.252
 2691TIP3    H229633   0.375   4.248   1.394
 2692TIP3   OH229634   3.132   3.871   8.218
 2692TIP3    H129635   3.156   3.783   8.245
 2692TIP3    H229636   3.146   3.872   8.123
 2693TIP3   OH229637   2.515   1.345   2.163
 2693TIP3    H129638   2.599   1.384   2.186
 2693TIP3    H229639   2.468   1.339   2.246
 2694TIP3   OH229640   5.994   5.455   8.559
 2694TIP3    H129641   5.939   5.392   8.512
 2694TIP3    H229642   6.054   5.489   8.493
 2695TIP3   OH229643   0.053   0.221   8.006
 2695TIP3    H129644   0.095   0.220   7.920
 2695TIP3    H229645   6.764   0.152   8.002
 2696TIP3   OH229646   6.660   2.290   6.893
 2696TIP3    H129647   6.744   2.305   6.848
 2696TIP3    H229648   6.622   2.378   6.902
 2697TIP3   OH229649   6.595   6.402   1.320
 2697TIP3    H129650   6.684   6.438   1.314
 2697TIP3    H229651   6.605   6.325   1.377
 2698TIP3   OH229652   4.289   6.555   7.916
 2698TIP3    H129653   4.363   6.548   7.977
 2698TIP3    H229654   4.234   6.624   7.953
 2699TIP3   OH229655   0.294   2.902   7.449
 2699TIP3    H129656   0.199   2.908   7.439
 2699TIP3    H229657   0.321   2.833   7.389
 2700TIP3   OH229658   1.343   1.560   0.837
 2700TIP3    H129659   1.283   1.488   0.856
 2700TIP3    H229660   1.411   1.553   0.903
 2701TIP3   OH229661   2.667   0.995   1.079
 2701TIP3    H129662   2.624   0.973   0.997
 2701TIP3    H229663   2.760   0.980   1.062
 2702TIP3   OH229664   0.184   0.811   6.556
 2702TIP3    H129665   0.233   0.745   6.604
 2702TIP3    H229666   0.112   0.763   6.516
 2703TIP3   OH229667   1.987   1.244   8.178
 2703TIP3    H129668   2.012   1.166   8.128
 2703TIP3    H229669   1.929   1.292   8.120
 2704TIP3   OH229670   1.719   3.668   1.034
 2704TIP3    H129671   1.630   3.672   1.067
 2704TIP3    H229672   1.733   3.753   0.992
 2705TIP3   OH229673   2.387   4.919   1.594
 2705TIP3    H129674   2.388   4.965   1.510
 2705TIP3    H229675   2.442   4.842   1.580
 2706TIP3   OH229676   4.429   0.847   8.585
 2706TIP3    H129677   4.447   0.792   8.662
 2706TIP3    H229678   4.364   0.910   8.616
 2707TIP3   OH229679   0.351   6.736   6.753
 2707TIP3    H129680   0.393   6.703   6.673
 2707TIP3    H229681   0.421   0.006   6.799
 2708TIP3   OH229682   5.826   1.059   8.097
 2708TIP3    H129683   5.814   0.989   8.161
 2708TIP3    H229684   5.902   1.032   8.046
 2709TIP3   OH229685   2.582   1.944   7.155
 2709TIP3    H129686   2.546   2.033   7.152
 2709TIP3    H229687   2.677   1.956   7.151
 2710TIP3   OH229688   5.300   2.606   7.769
 2710TIP3    H129689   5.274   2.697   7.784
 2710TIP3    H229690   5.247   2.556   7.832
 2711TIP3   OH229691   3.641   6.447   2.154
 2711TIP3    H129692   3.726   6.407   2.174
 2711TIP3    H229693   3.617   6.411   2.069
 2712TIP3   OH229694   0.072   4.000   7.962
 2712TIP3    H129695   0.080   3.924   7.904
 2712TIP3    H229696   0.153   4.050   7.948
 2713TIP3   OH229697   4.854   0.407   0.350
 2713TIP3    H129698   4.834   0.440   0.438
 2713TIP3    H229699   4.785   0.443   0.294
 2714TIP3   OH229700   0.376   6.513   1.104
 2714TIP3    H129701   0.337   6.431   1.137
 2714TIP3    H229702   0.451   6.528   1.161
 2715TIP3   OH229703   6.664   2.769   6.880
 2715TIP3    H129704   6.671   2.846   6.936
 2715TIP3    H229705   6.687   2.801   6.793
 2716TIP3   OH229706   3.945   1.972   8.493
 2716TIP3    H129707   3.858   2.008   8.511
 2716TIP3    H229708   4.004   2.017   8.553
 2717TIP3   OH229709   3.590   0.372   7.917
 2717TIP3    H129710   3.513   0.318   7.901
 2717TIP3    H229711   3.661   0.309   7.929
 2718TIP3   OH229712   3.177   2.318   8.770
 2718TIP3    H129713   3.252   2.300   8.827
 2718TIP3    H229714   3.197   2.273   8.688
 2719TIP3   OH229715   6.637   1.230   7.742
 2719TIP3    H129716   6.583   1.201   7.669
 2719TIP3    H229717   6.705   1.284   7.702
 2720TIP3   OH229718   5.018   5.354   0.743
 2720TIP3    H129719   5.076   5.280   0.723
 2720TIP3    H229720   5.070   5.411   0.799
 2721TIP3   OH229721   4.601   0.079   1.068
 2721TIP3    H129722   4.534   0.075   1.000
 2721TIP3    H229723   4.559   0.125   1.140
 2722TIP3   OH229724   4.337   2.930   0.277
 2722TIP3    H129725   4.411   2.902   0.330
 2722TIP3    H229726   4.376   2.984   0.208
 2723TIP3   OH229727   1.404   4.037   7.636
 2723TIP3    H129728   1.421   3.981   7.561
 2723TIP3    H229729   1.488   4.079   7.655
 2724TIP3   OH229730   4.513   0.413   8.083
 2724TIP3    H129731   4.591   0.358   8.084
 2724TIP3    H229732   4.511   0.450   7.995
 2725TIP3   OH229733   1.371   3.856   8.444
 2725TIP3    H129734   1.375   3.789   8.376
 2725TIP3    H229735   1.295   3.831   8.498
 2726TIP3   OH229736   5.723   6.013   7.299
 2726TIP3    H129737   5.758   6.083   7.244
 2726TIP3    H229738   5.640   6.047   7.332
 2727TIP3   OH229739   3.077   3.400   7.930
 2727TIP3    H129740   3.029   3.461   7.874
 2727TIP3    H229741   3.021   3.389   8.007
 2728TIP3   OH229742   4.801   6.691   1.041
 2728TIP3    H129743   4.729   6.754   1.042
 2728TIP3    H229744   4.766   6.615   1.087
 2729TIP3   OH229745   6.448   2.660   1.023
 2729TIP3    H129746   6.467   2.741   1.070
 2729TIP3    H229747   6.456   2.591   1.089
 2730TIP3   OH229748   5.708   2.722   8.539
 2730TIP3    H129749   5.741   2.651   8.594
 2730TIP3    H229750   5.734   2.699   8.450
 2731TIP3   OH229751   2.113   1.321   8.706
 2731TIP3    H129752   2.113   1.354   8.616
 2731TIP3    H229753   2.028   1.277   8.715
 2732TIP3   OH229754   1.230   2.994   0.474
 2732TIP3    H129755   1.179   3.074   0.488
 2732TIP3    H229756   1.271   2.976   0.558
 2733TIP3   OH229757   3.702   0.994   0.507
 2733TIP3    H129758   3.629   1.045   0.471
 2733TIP3    H229759   3.691   0.907   0.469
 2734TIP3   OH229760   4.920   6.765   0.813
 2734TIP3    H129761   4.928   0.082   0.833
 2734TIP3    H229762   4.858   6.732   0.879
 2735TIP3   OH229763   1.606   6.065   8.086
 2735TIP3    H129764   1.629   6.124   8.014
 2735TIP3    H229765   1.622   5.978   8.052
 2736TIP3   OH229766   0.993   1.564   0.067
 2736TIP3    H129767   0.961   1.541   8.893
 2736TIP3    H229768   0.930   1.525   0.127
 2737TIP3   OH229769   4.221   3.361   8.398
 2737TIP3    H129770   4.145   3.303   8.395
 2737TIP3    H229771   4.253   3.365   8.308
 2738TIP3   OH229772   0.091   0.216   5.984
 2738TIP3    H129773   0.182   0.209   6.013
 2738TIP3    H229774   0.098   0.245   5.893
 2739TIP3   OH229775   1.402   2.614   7.931
 2739TIP3    H129776   1.357   2.578   8.007
 2739TIP3    H229777   1.342   2.601   7.858
 2740TIP3   OH229778   5.495   2.219   7.755
 2740TIP3    H129779   5.548   2.263   7.688
 2740TIP3    H229780   5.509   2.272   7.834
 2741TIP3   OH229781   2.219   3.203   7.130
 2741TIP3    H129782   2.159   3.140   7.171
 2741TIP3    H229783   2.297   3.201   7.185
 2742TIP3   OH229784   6.631   6.124   0.686
 2742TIP3    H129785   6.584   6.041   0.692
 2742TIP3    H229786   6.657   6.144   0.776
 2743TIP3   OH229787   3.909   2.625   7.734
 2743TIP3    H129788   3.924   2.599   7.825
 2743TIP3    H229789   3.816   2.608   7.719
 2744TIP3   OH229790   0.164   2.812   8.143
 2744TIP3    H129791   0.216   2.754   8.088
 2744TIP3    H229792   0.200   2.899   8.126
 2745TIP3   OH229793   2.844   0.967   1.551
 2745TIP3    H129794   2.922   0.997   1.504
 2745TIP3    H229795   2.819   1.041   1.606
 2746TIP3   OH229796   1.171   3.686   1.169
 2746TIP3    H129797   1.186   3.706   1.261
 2746TIP3    H229798   1.170   3.590   1.165
 2747TIP3   OH229799   3.450   0.918   8.234
 2747TIP3    H129800   3.454   1.003   8.192
 2747TIP3    H229801   3.487   0.932   8.321
 2748TIP3   OH229802   5.556   3.192   1.210
 2748TIP3    H129803   5.464   3.166   1.206
 2748TIP3    H229804   5.583   3.176   1.300
 2749TIP3   OH229805   5.993   6.768   7.821
 2749TIP3    H129806   5.941   6.697   7.784
 2749TIP3    H229807   6.069   6.725   7.860
 2750TIP3   OH229808   4.306   6.578   0.615
 2750TIP3    H129809   4.399   6.598   0.600
 2750TIP3    H229810   4.280   6.529   0.537
 2751TIP3   OH229811   0.222   2.935   0.410
 2751TIP3    H129812   0.245   3.025   0.386
 2751TIP3    H229813   0.133   2.924   0.377
 2752TIP3   OH229814   2.390   1.083   0.446
 2752TIP3    H129815   2.416   1.122   0.362
 2752TIP3    H229816   2.386   0.989   0.428
 2753TIP3   OH229817   2.074   6.662   6.629
 2753TIP3    H129818   2.067   6.675   6.534
 2753TIP3    H229819   2.108   6.746   6.662
 2754TIP3   OH229820   5.990   3.598   1.060
 2754TIP3    H129821   5.904   3.556   1.049
 2754TIP3    H229822   5.989   3.630   1.150
 2755TIP3   OH229823   6.651   1.701   6.327
 2755TIP3    H129824   6.631   1.786   6.368
 2755TIP3    H229825   6.588   1.695   6.255
 2756TIP3   OH229826   4.087   3.582   0.924
 2756TIP3    H129827   4.180   3.566   0.906
 2756TIP3    H229828   4.041   3.519   0.869
 2757TIP3   OH229829   3.838   5.257   6.929
 2757TIP3    H129830   3.806   5.346   6.941
 2757TIP3    H229831   3.795   5.226   6.849
 2758TIP3   OH229832   4.768   3.404   0.853
 2758TIP3    H129833   4.861   3.423   0.842
 2758TIP3    H229834   4.764   3.343   0.926
 2759TIP3   OH229835   5.541   3.580   7.910
 2759TIP3    H129836   5.573   3.523   7.841
 2759TIP3    H229837   5.602   3.567   7.983
 2760TIP3   OH229838   6.465   0.437   7.367
 2760TIP3    H129839   6.372   0.428   7.390
 2760TIP3    H229840   6.465   0.452   7.273
 2761TIP3   OH229841   2.229   0.657   7.994
 2761TIP3    H129842   2.252   0.595   8.064
 2761TIP3    H229843   2.282   0.734   8.013
 2762TIP3   OH229844   4.651   3.827   6.898
 2762TIP3    H129845   4.620   3.754   6.845
 2762TIP3    H229846   4.614   3.904   6.856
 2763TIP3   OH229847   6.167   3.623   6.621
 2763TIP3    H129848   6.125   3.693   6.670
 2763TIP3    H229849   6.112   3.546   6.635
 2764TIP3   OH229850   6.119   4.920   8.149
 2764TIP3    H129851   6.026   4.929   8.170
 2764TIP3    H229852   6.128   4.829   8.121
 2765TIP3   OH229853   4.826   3.879   7.096
 2765TIP3    H129854   4.761   3.854   7.030
 2765TIP3    H229855   4.782   3.944   7.150
 2766TIP3   OH229856   3.597   2.470   1.991
 2766TIP3    H129857   3.502   2.474   1.986
 2766TIP3    H229858   3.615   2.442   2.081
 2767TIP3   OH229859   5.898   1.511   7.324
 2767TIP3    H129860   5.834   1.459   7.275
 2767TIP3    H229861   5.890   1.479   7.414
 2768TIP3   OH229862   4.350   1.086   7.982
 2768TIP3    H129863   4.418   1.031   7.943
 2768TIP3    H229864   4.383   1.105   8.070
 2769TIP3   OH229865   1.056   3.085   1.266
 2769TIP3    H129866   1.023   3.050   1.184
 2769TIP3    H229867   1.149   3.064   1.265
 2770TIP3   OH229868   2.875   4.407   1.038
 2770TIP3    H129869   2.788   4.374   1.015
 2770TIP3    H229870   2.859   4.496   1.070
 2771TIP3   OH229871   5.049   1.721   0.566
 2771TIP3    H129872   4.990   1.746   0.495
 2771TIP3    H229873   5.094   1.643   0.534
 2772TIP3   OH229874   2.481   2.700   8.184
 2772TIP3    H129875   2.431   2.622   8.160
 2772TIP3    H229876   2.538   2.672   8.256
 2773TIP3   OH229877   4.015   3.335   1.568
 2773TIP3    H129878   4.068   3.389   1.627
 2773TIP3    H229879   3.958   3.397   1.522
 2774TIP3   OH229880   5.042   2.433   8.716
 2774TIP3    H129881   4.981   2.504   8.698
 2774TIP3    H229882   4.992   2.370   8.768
 2775TIP3   OH229883   4.466   4.246   0.594
 2775TIP3    H129884   4.419   4.310   0.541
 2775TIP3    H229885   4.511   4.299   0.661
 2776TIP3   OH229886   4.488   3.926   0.815
 2776TIP3    H129887   4.448   3.865   0.877
 2776TIP3    H229888   4.560   3.966   0.863
 2777TIP3   OH229889   3.805   6.292   1.671
 2777TIP3    H129890   3.714   6.283   1.698
 2777TIP3    H229891   3.801   6.324   1.581
 2778TIP3   OH229892   4.601   4.079   6.794
 2778TIP3    H129893   4.689   4.092   6.829
 2778TIP3    H229894   4.559   4.165   6.803
 2779TIP3   OH229895   5.410   2.708   2.316
 2779TIP3    H129896   5.391   2.699   2.223
 2779TIP3    H229897   5.387   2.623   2.354
 2780TIP3   OH229898   6.097   3.219   8.267
 2780TIP3    H129899   6.054   3.189   8.347
 2780TIP3    H229900   6.166   3.155   8.252
 2781TIP3   OH229901   2.232   1.388   1.881
 2781TIP3    H129902   2.247   1.481   1.895
 2781TIP3    H229903   2.316   1.347   1.902
 2782TIP3   OH229904   0.905   3.387   7.811
 2782TIP3    H129905   0.946   3.406   7.895
 2782TIP3    H229906   0.884   3.294   7.814
 2783TIP3   OH229907   6.204   5.402   7.755
 2783TIP3    H129908   6.240   5.469   7.813
 2783TIP3    H229909   6.191   5.446   7.671
 2784TIP3   OH229910   6.347   4.587   7.665
 2784TIP3    H129911   6.314   4.673   7.639
 2784TIP3    H229912   6.268   4.534   7.678
 2785TIP3   OH229913   2.198   2.876   7.380
 2785TIP3    H129914   2.139   2.936   7.333
 2785TIP3    H229915   2.228   2.926   7.455
 2786TIP3   OH229916   4.217   2.075   6.965
 2786TIP3    H129917   4.171   2.055   7.046
 2786TIP3    H229918   4.159   2.043   6.895
 2787TIP3   OH229919   2.006   3.665   8.851
 2787TIP3    H129920   2.021   3.570   8.851
 2787TIP3    H229921   2.000   3.689   8.759
 2788TIP3   OH229922   6.398   1.793   8.705
 2788TIP3    H129923   6.326   1.752   8.658
 2788TIP3    H229924   6.426   1.727   8.769
 2789TIP3   OH229925   1.552   0.562   7.975
 2789TIP3    H129926   1.597   0.523   8.050
 2789TIP3    H229927   1.463   0.578   8.006
 2790TIP3   OH229928   3.117   4.668   0.573
 2790TIP3    H129929   3.125   4.633   0.661
 2790TIP3    H229930   3.076   4.754   0.585
 2791TIP3   OH229931   4.508   4.852   6.601
 2791TIP3    H129932   4.587   4.843   6.547
 2791TIP3    H229933   4.464   4.929   6.566
 2792TIP3   OH229934   5.965   5.374   8.834
 2792TIP3    H129935   5.955   5.432   8.759
 2792TIP3    H229936   5.998   5.431   8.904
 2793TIP3   OH229937   2.798   1.894   8.131
 2793TIP3    H129938   2.763   1.918   8.217
 2793TIP3    H229939   2.721   1.891   8.074
 2794TIP3   OH229940   1.565   5.398   2.149
 2794TIP3    H129941   1.549   5.310   2.183
 2794TIP3    H229942   1.500   5.453   2.192
 2795TIP3   OH229943   3.172   3.783   7.714
 2795TIP3    H129944   3.146   3.748   7.799
 2795TIP3    H229945   3.148   3.876   7.719
 2796TIP3   OH229946   4.172   3.484   7.101
 2796TIP3    H129947   4.219   3.529   7.031
 2796TIP3    H229948   4.080   3.502   7.083
 2797TIP3   OH229949   5.523   6.205   7.814
 2797TIP3    H129950   5.479   6.289   7.829
 2797TIP3    H229951   5.528   6.165   7.901
 2798TIP3   OH229952   4.097   3.918   6.983
 2798TIP3    H129953   4.170   3.940   6.925
 2798TIP3    H229954   4.029   3.883   6.925
 2799TIP3   OH229955   5.227   3.791   0.455
 2799TIP3    H129956   5.183   3.815   0.373
 2799TIP3    H229957   5.217   3.696   0.461
 2800TIP3   OH229958   0.827   4.676   0.039
 2800TIP3    H129959   0.887   4.611   0.004
 2800TIP3    H229960   0.865   4.702   0.123
 2801TIP3   OH229961   3.495   0.712   7.203
 2801TIP3    H129962   3.450   0.628   7.206
 2801TIP3    H229963   3.429   0.773   7.171
 2802TIP3   OH229964   1.676   0.056   6.693
 2802TIP3    H129965   1.590   0.069   6.652
 2802TIP3    H229966   1.737   0.102   6.636
 2803TIP3   OH229967   2.972   2.986   1.136
 2803TIP3    H129968   2.877   2.998   1.135
 2803TIP3    H229969   2.992   2.949   1.050
 2804TIP3   OH229970   2.292   1.715   0.446
 2804TIP3    H129971   2.374   1.746   0.484
 2804TIP3    H229972   2.309   1.624   0.423
 2805TIP3   OH229973   1.869   3.452   0.254
 2805TIP3    H129974   1.816   3.442   0.174
 2805TIP3    H229975   1.922   3.373   0.258
 2806TIP3   OH229976   2.767   1.718   0.857
 2806TIP3    H129977   2.678   1.696   0.885
 2806TIP3    H229978   2.815   1.734   0.938
 2807TIP3   OH229979   6.288   1.379   8.708
 2807TIP3    H129980   6.344   1.314   8.752
 2807TIP3    H229981   6.206   1.378   8.757
 2808TIP3   OH229982   0.782   3.224   1.290
 2808TIP3    H129983   0.728   3.168   1.235
 2808TIP3    H229984   0.865   3.177   1.298
 2809TIP3   OH229985   1.866   5.497   6.943
 2809TIP3    H129986   1.779   5.531   6.966
 2809TIP3    H229987   1.894   5.448   7.020
 2810TIP3   OH229988   6.408   1.632   1.645
 2810TIP3    H129989   6.437   1.617   1.735
 2810TIP3    H229990   6.489   1.653   1.597
 2811TIP3   OH229991   5.652   5.053   8.383
 2811TIP3    H129992   5.705   4.988   8.428
 2811TIP3    H229993   5.583   5.076   8.446
 2812TIP3   OH229994   2.233   3.119   8.494
 2812TIP3    H129995   2.246   3.053   8.426
 2812TIP3    H229996   2.319   3.128   8.536
 2813TIP3   OH229997   1.425   6.140   0.472
 2813TIP3    H129998   1.341   6.095   0.467
 2813TIP3    H229999   1.412   6.210   0.536
 2814TIP3   OH230000   6.682   5.770   0.220
 2814TIP3    H130001   6.739   5.693   0.215
 2814TIP3    H230002   6.616   5.747   0.285
 2815TIP3   OH230003   6.258   2.493   0.416
 2815TIP3    H130004   6.311   2.414   0.417
 2815TIP3    H230005   6.202   2.486   0.494
 2816TIP3   OH230006   1.234   4.429   7.332
 2816TIP3    H130007   1.196   4.375   7.263
 2816TIP3    H230008   1.159   4.457   7.384
 2817TIP3   OH230009   4.147   5.881   7.332
 2817TIP3    H130010   4.091   5.941   7.282
 2817TIP3    H230011   4.227   5.931   7.347
 2818TIP3   OH230012   0.327   2.854   7.724
 2818TIP3    H130013   0.325   2.872   7.630
 2818TIP3    H230014   0.409   2.892   7.754
 2819TIP3   OH230015   5.818   4.411   0.286
 2819TIP3    H130016   5.853   4.493   0.322
 2819TIP3    H230017   5.767   4.374   0.357
 2820TIP3   OH230018   1.652   0.357   8.620
 2820TIP3    H130019   1.615   0.409   8.549
 2820TIP3    H230020   1.580   0.303   8.651
 2821TIP3   OH230021   4.696   0.750   0.591
 2821TIP3    H130022   4.696   0.655   0.597
 2821TIP3    H230023   4.698   0.780   0.682
 2822TIP3   OH230024   0.279   5.678   6.754
 2822TIP3    H130025   0.224   5.600   6.765
 2822TIP3    H230026   0.348   5.651   6.695
 2823TIP3   OH230027   5.032   5.595   8.151
 2823TIP3    H130028   5.118   5.627   8.177
 2823TIP3    H230029   5.004   5.539   8.224
 2824TIP3   OH230030   1.547   2.417   0.017
 2824TIP3    H130031   1.499   2.343   0.053
 2824TIP3    H230032   1.619   2.430   0.079
 2825TIP3   OH230033   5.575   4.111   0.447
 2825TIP3    H130034   5.540   4.200   0.452
 2825TIP3    H230035   5.603   4.091   0.537
 2826TIP3   OH230036   4.597   5.933   1.253
 2826TIP3    H130037   4.516   5.983   1.249
 2826TIP3    H230038   4.622   5.936   1.346
 2827TIP3   OH230039   0.041   1.916   1.735
 2827TIP3    H130040   0.102   1.900   1.807
 2827TIP3    H230041   6.750   1.850   1.746
 2828TIP3   OH230042   5.981   2.220   7.673
 2828TIP3    H130043   5.981   2.316   7.665
 2828TIP3    H230044   5.894   2.199   7.706
 2829TIP3   OH230045   3.384   6.259   8.269
 2829TIP3    H130046   3.466   6.291   8.231
 2829TIP3    H230047   3.323   6.333   8.259
 2830TIP3   OH230048   5.890   1.195   7.849
 2830TIP3    H130049   5.814   1.145   7.820
 2830TIP3    H230050   5.956   1.180   7.781
 2831TIP3   OH230051   3.630   0.267   8.537
 2831TIP3    H130052   3.719   0.281   8.567
 2831TIP3    H230053   3.584   0.349   8.556
 2832TIP3   OH230054   2.346   6.741   0.798
 2832TIP3    H130055   2.322   6.766   0.887
 2832TIP3    H230056   2.359   6.647   0.802
 2833TIP3   OH230057   3.688   3.091   2.161
 2833TIP3    H130058   3.688   3.055   2.250
 2833TIP3    H230059   3.696   3.185   2.174
 2834TIP3   OH230060   2.219   3.541   7.135
 2834TIP3    H130061   2.135   3.581   7.157
 2834TIP3    H230062   2.201   3.487   7.058
 2835TIP3   OH230063   1.802   3.860   7.784
 2835TIP3    H130064   1.831   3.952   7.784
 2835TIP3    H230065   1.755   3.850   7.702
 2836TIP3   OH230066   5.516   0.255   1.900
 2836TIP3    H130067   5.469   0.189   1.951
 2836TIP3    H230068   5.595   0.210   1.869
 2837TIP3   OH230069   5.363   0.211   1.463
 2837TIP3    H130070   5.436   0.166   1.505
 2837TIP3    H230071   5.401   0.246   1.382
 2838TIP3   OH230072   2.651   6.056   2.163
 2838TIP3    H130073   2.735   6.057   2.208
 2838TIP3    H230074   2.587   6.039   2.233
 2839TIP3   OH230075   6.600   6.645   8.674
 2839TIP3    H130076   6.572   6.712   8.612
 2839TIP3    H230077   6.682   6.612   8.638
 2840TIP3   OH230078   4.082   2.114   0.061
 2840TIP3    H130079   4.156   2.169   0.086
 2840TIP3    H230080   4.105   2.081   8.888
 2841TIP3   OH230081   5.215   1.802   8.447
 2841TIP3    H130082   5.199   1.870   8.511
 2841TIP3    H230083   5.172   1.834   8.367
 2842TIP3   OH230084   1.056   3.034   7.378
 2842TIP3    H130085   1.006   3.056   7.300
 2842TIP3    H230086   1.002   2.971   7.425
 2843TIP3   OH230087   1.275   3.260   7.080
 2843TIP3    H130088   1.305   3.226   6.995
 2843TIP3    H230089   1.286   3.355   7.073
 2844TIP3   OH230090   6.524   0.839   8.911
 2844TIP3    H130091   6.568   0.903   8.856
 2844TIP3    H230092   6.433   0.841   8.882
 2845TIP3   OH230093   0.404   0.683   1.360
 2845TIP3    H130094   0.496   0.655   1.356
 2845TIP3    H230095   0.405   0.773   1.327
 2846TIP3   OH230096   3.234   2.694   0.987
 2846TIP3    H130097   3.194   2.609   1.006
 2846TIP3    H230098   3.165   2.745   0.945
 2847TIP3   OH230099   2.268   0.712   6.904
 2847TIP3    H130100   2.205   0.779   6.930
 2847TIP3    H230101   2.310   0.747   6.825
 2848TIP3   OH230102   4.001   0.974   7.777
 2848TIP3    H130103   3.914   1.012   7.787
 2848TIP3    H230104   3.985   0.891   7.733
 2849TIP3   OH230105   1.709   3.156   0.912
 2849TIP3    H130106   1.801   3.136   0.925
 2849TIP3    H230107   1.663   3.075   0.934
 2850TIP3   OH230108   4.142   2.917   8.534
 2850TIP3    H130109   4.168   2.866   8.611
 2850TIP3    H230110   4.048   2.900   8.525
 2851TIP3   OH230111   2.819   3.280   0.719
 2851TIP3    H130112   2.829   3.225   0.642
 2851TIP3    H230113   2.872   3.358   0.700
 2852TIP3   OH230114   6.479   0.916   7.587
 2852TIP3    H130115   6.461   1.011   7.589
 2852TIP3    H230116   6.480   0.891   7.680
 2853TIP3   OH230117   5.966   0.223   8.778
 2853TIP3    H130118   5.903   0.152   8.765
 2853TIP3    H230119   6.043   0.179   8.815
 2854TIP3   OH230120   1.118   5.956   7.431
 2854TIP3    H130121   1.085   5.867   7.446
 2854TIP3    H230122   1.045   6.012   7.456
 2855TIP3   OH230123   1.021   3.320   7.273
 2855TIP3    H130124   0.928   3.319   7.250
 2855TIP3    H230125   1.022   3.327   7.369
 2856TIP3   OH230126   2.566   1.906   7.656
 2856TIP3    H130127   2.496   1.894   7.593
 2856TIP3    H230128   2.629   1.962   7.612
 2857TIP3   OH230129   2.515   3.987   1.485
 2857TIP3    H130130   2.480   3.939   1.410
 2857TIP3    H230131   2.470   4.071   1.482
 2858TIP3   OH230132   5.236   3.513   0.376
 2858TIP3    H130133   5.276   3.439   0.422
 2858TIP3    H230134   5.251   3.493   0.283
 2859TIP3   OH230135   5.849   0.537   0.781
 2859TIP3    H130136   5.909   0.502   0.847
 2859TIP3    H230137   5.903   0.598   0.730
 2860TIP3   OH230138   2.562   4.225   0.600
 2860TIP3    H130139   2.485   4.260   0.555
 2860TIP3    H230140   2.577   4.139   0.560
 2861TIP3   OH230141   3.347   3.622   2.332
 2861TIP3    H130142   3.304   3.665   2.406
 2861TIP3    H230143   3.421   3.679   2.310
 2862TIP3   OH230144   6.529   4.852   7.170
 2862TIP3    H130145   6.524   4.926   7.230
 2862TIP3    H230146   6.468   4.787   7.205
 2863TIP3   OH230147   2.986   5.423   8.066
 2863TIP3    H130148   2.961   5.341   8.110
 2863TIP3    H230149   3.001   5.398   7.975
 2864TIP3   OH230150   1.813   1.176   1.088
 2864TIP3    H130151   1.898   1.132   1.087
 2864TIP3    H230152   1.817   1.238   1.015
 2865TIP3   OH230153   5.017   5.180   7.728
 2865TIP3    H130154   4.922   5.180   7.720
 2865TIP3    H230155   5.043   5.268   7.701
 2866TIP3   OH230156   6.731   1.618   7.255
 2866TIP3    H130157   6.757   1.710   7.247
 2866TIP3    H230158   6.735   1.600   7.349
 2867TIP3   OH230159   3.028   0.950   0.144
 2867TIP3    H130160   2.946   0.965   0.191
 2867TIP3    H230161   3.085   0.907   0.208
 2868TIP3   OH230162   1.516   0.251   0.481
 2868TIP3    H130163   1.594   0.301   0.504
 2868TIP3    H230164   1.551   0.174   0.435
 2869TIP3   OH230165   5.990   1.732   1.105
 2869TIP3    H130166   6.045   1.716   1.182
 2869TIP3    H230167   5.979   1.645   1.065
 2870TIP3   OH230168   6.279   5.358   1.412
 2870TIP3    H130169   6.342   5.294   1.445
 2870TIP3    H230170   6.332   5.421   1.363
 2871TIP3   OH230171   2.648   2.446   8.781
 2871TIP3    H130172   2.646   2.409   8.869
 2871TIP3    H230173   2.707   2.522   8.788
 2872TIP3   OH230174   0.923   5.388   0.622
 2872TIP3    H130175   0.922   5.306   0.672
 2872TIP3    H230176   0.984   5.444   0.669
 2873TIP3   OH230177   2.575   5.169   8.791
 2873TIP3    H130178   2.598   5.082   8.758
 2873TIP3    H230179   2.639   5.186   8.860
 2874TIP3   OH230180   2.113   4.818   0.169
 2874TIP3    H130181   2.174   4.753   0.135
 2874TIP3    H230182   2.164   4.870   0.231
 2875TIP3   OH230183   6.245   0.712   7.143
 2875TIP3    H130184   6.296   0.755   7.211
 2875TIP3    H230185   6.184   0.779   7.113
 2876TIP3   OH230186   2.883   6.518   0.434
 2876TIP3    H130187   2.869   6.613   0.435
 2876TIP3    H230188   2.836   6.487   0.511
 2877TIP3   OH230189   0.870   4.971   0.297
 2877TIP3    H130190   0.863   4.979   0.202
 2877TIP3    H230191   0.877   4.877   0.313
 2878TIP3   OH230192   4.810   3.876   6.656
 2878TIP3    H130193   4.804   3.943   6.723
 2878TIP3    H230194   4.737   3.817   6.674
 2879TIP3   OH230195   4.641   4.523   1.930
 2879TIP3    H130196   4.637   4.438   1.974
 2879TIP3    H230197   4.576   4.576   1.975
 2880TIP3   OH230198   1.337   5.678   8.801
 2880TIP3    H130199   1.263   5.664   8.860
 2880TIP3    H230200   1.322   5.765   8.765
 2881TIP3   OH230201   3.467   0.408   8.270
 2881TIP3    H130202   3.452   0.343   8.201
 2881TIP3    H230203   3.554   0.388   8.304
 2882TIP3   OH230204   5.928   0.458   7.527
 2882TIP3    H130205   5.977   0.495   7.454
 2882TIP3    H230206   5.980   0.481   7.604
 2883TIP3   OH230207   5.948   2.319   6.377
 2883TIP3    H130208   5.889   2.379   6.422
 2883TIP3    H230209   5.934   2.235   6.419
 2884TIP3   OH230210   6.386   6.077   1.830
 2884TIP3    H130211   6.329   6.015   1.875
 2884TIP3    H230212   6.352   6.080   1.740
 2885TIP3   OH230213   3.634   2.085   0.986
 2885TIP3    H130214   3.581   2.093   0.907
 2885TIP3    H230215   3.595   2.146   1.048
 2886TIP3   OH230216   4.303   2.921   6.431
 2886TIP3    H130217   4.284   2.828   6.441
 2886TIP3    H230218   4.219   2.962   6.413
 2887TIP3   OH230219   6.190   0.946   6.131
 2887TIP3    H130220   6.143   0.873   6.090
 2887TIP3    H230221   6.121   1.001   6.167
 2888TIP3   OH230222   4.028   2.201   2.169
 2888TIP3    H130223   3.966   2.255   2.218
 2888TIP3    H230224   4.012   2.224   2.077
 2889TIP3   OH230225   3.833   2.668   0.793
 2889TIP3    H130226   3.774   2.594   0.780
 2889TIP3    H230227   3.788   2.724   0.857
 2890TIP3   OH230228   6.560   0.109   8.543
 2890TIP3    H130229   6.503   0.147   8.476
 2890TIP3    H230230   6.649   0.127   8.512
 2891TIP3   OH230231   3.274   4.135   0.247
 2891TIP3    H130232   3.208   4.145   0.315
 2891TIP3    H230233   3.326   4.060   0.274
 2892TIP3   OH230234   5.841   4.163   1.637
 2892TIP3    H130235   5.796   4.107   1.701
 2892TIP3    H230236   5.783   4.239   1.627
 2893TIP3   OH230237   5.558   1.049   6.644
 2893TIP3    H130238   5.608   1.126   6.673
 2893TIP3    H230239   5.622   0.978   6.642
 2894TIP3   OH230240   4.850   5.022   0.730
 2894TIP3    H130241   4.843   5.118   0.728
 2894TIP3    H230242   4.944   5.005   0.737
 2895TIP3   OH230243   1.788   0.861   1.532
 2895TIP3    H130244   1.840   0.794   1.578
 2895TIP3    H230245   1.758   0.919   1.602
 2896TIP3   OH230246   0.176   6.430   0.895
 2896TIP3    H130247   0.180   6.490   0.968
 2896TIP3    H230248   0.095   6.380   0.908
 2897TIP3   OH230249   2.061   5.903   7.362
 2897TIP3    H130250   2.067   5.940   7.450
 2897TIP3    H230251   2.050   5.809   7.376
 2898TIP3   OH230252   5.161   2.400   1.445
 2898TIP3    H130253   5.139   2.465   1.378
 2898TIP3    H230254   5.078   2.357   1.466
 2899TIP3   OH230255   1.781   0.877   0.227
 2899TIP3    H130256   1.872   0.876   0.257
 2899TIP3    H230257   1.787   0.882   0.132
 2900TIP3   OH230258   3.263   2.151   8.562
 2900TIP3    H130259   3.297   2.143   8.473
 2900TIP3    H230260   3.340   2.141   8.618
 2901TIP3   OH230261   3.295   3.529   0.510
 2901TIP3    H130262   3.345   3.493   0.437
 2901TIP3    H230263   3.256   3.610   0.476
 2902TIP3   OH230264   2.809   4.197   1.818
 2902TIP3    H130265   2.839   4.281   1.783
 2902TIP3    H230266   2.879   4.136   1.798
 2903TIP3   OH230267   5.627   1.468   1.124
 2903TIP3    H130268   5.549   1.502   1.081
 2903TIP3    H230269   5.637   1.524   1.202
 2904TIP3   OH230270   0.672   1.225   0.344
 2904TIP3    H130271   0.688   1.163   0.273
 2904TIP3    H230272   0.728   1.194   0.415
 2905TIP3   OH230273   0.655   5.731   7.008
 2905TIP3    H130274   0.569   5.692   7.026
 2905TIP3    H230275   0.683   5.767   7.092
 2906TIP3   OH230276   1.975   3.205   0.982
 2906TIP3    H130277   2.023   3.277   1.023
 2906TIP3    H230278   2.029   3.178   0.908
 2907TIP3   OH230279   4.587   3.866   7.331
 2907TIP3    H130280   4.515   3.844   7.271
 2907TIP3    H230281   4.610   3.956   7.309
 2908TIP3   OH230282   2.315   0.470   8.513
 2908TIP3    H130283   2.240   0.511   8.471
 2908TIP3    H230284   2.391   0.519   8.481
 2909TIP3   OH230285   0.890   0.974   7.896
 2909TIP3    H130286   0.884   0.913   7.970
 2909TIP3    H230287   0.944   0.928   7.831
 2910TIP3   OH230288   4.728   6.518   1.546
 2910TIP3    H130289   4.670   6.504   1.621
 2910TIP3    H230290   4.781   6.594   1.571
 2911TIP3   OH230291   3.439   1.918   8.541
 2911TIP3    H130292   3.450   1.824   8.532
 2911TIP3    H230293   3.390   1.929   8.622
 2912TIP3   OH230294   2.630   4.492   7.335
 2912TIP3    H130295   2.576   4.483   7.414
 2912TIP3    H230296   2.715   4.457   7.360
 2913TIP3   OH230297   0.945   4.949   7.676
 2913TIP3    H130298   0.913   5.031   7.714
 2913TIP3    H230299   0.982   4.975   7.592
 2914TIP3   OH230300   0.203   1.848   0.017
 2914TIP3    H130301   0.132   1.905   0.047
 2914TIP3    H230302   0.281   1.903   0.022
 2915TIP3   OH230303   2.490   5.968   7.461
 2915TIP3    H130304   2.523   5.961   7.551
 2915TIP3    H230305   2.433   5.892   7.450
 2916TIP3   OH230306   5.790   6.464   6.642
 2916TIP3    H130307   5.765   6.436   6.554
 2916TIP3    H230308   5.871   6.513   6.630
 2917TIP3   OH230309   3.382   0.957   0.623
 2917TIP3    H130310   3.430   0.999   0.552
 2917TIP3    H230311   3.374   0.866   0.596
 2918TIP3   OH230312   2.293   0.062   6.627
 2918TIP3    H130313   2.369   0.053   6.684
 2918TIP3    H230314   2.330   0.080   6.541
 2919TIP3   OH230315   4.217   6.298   1.731
 2919TIP3    H130316   4.237   6.219   1.680
 2919TIP3    H230317   4.273   6.292   1.808
 2920TIP3   OH230318   6.304   5.852   8.040
 2920TIP3    H130319   6.350   5.892   7.967
 2920TIP3    H230320   6.356   5.876   8.117
 2921TIP3   OH230321   1.591   5.696   7.808
 2921TIP3    H130322   1.680   5.692   7.773
 2921TIP3    H230323   1.566   5.788   7.801
 2922TIP3   OH230324   2.080   3.629   6.525
 2922TIP3    H130325   2.084   3.718   6.557
 2922TIP3    H230326   2.154   3.585   6.568
 2923TIP3   OH230327   1.444   6.775   1.083
 2923TIP3    H130328   1.379   6.720   1.040
 2923TIP3    H230329   1.449   0.076   1.028
 2924TIP3   OH230330   0.983   4.332   1.540
 2924TIP3    H130331   1.001   4.407   1.597
 2924TIP3    H230332   0.890   4.341   1.518
 2925TIP3   OH230333   2.970   3.998   8.409
 2925TIP3    H130334   3.011   3.940   8.344
 2925TIP3    H230335   3.043   4.033   8.459
 2926TIP3   OH230336   0.198   6.743   7.204
 2926TIP3    H130337   0.236   6.662   7.238
 2926TIP3    H230338   0.268   0.031   7.212
 2927TIP3   OH230339   4.641   4.640   7.691
 2927TIP3    H130340   4.612   4.607   7.776
 2927TIP3    H230341   4.680   4.564   7.647
 2928TIP3   OH230342   4.171   5.865   7.938
 2928TIP3    H130343   4.117   5.935   7.901
 2928TIP3    H230344   4.200   5.899   8.023
 2929TIP3   OH230345   0.579   2.361   6.625
 2929TIP3    H130346   0.653   2.316   6.665
 2929TIP3    H230347   0.590   2.453   6.649
 2930TIP3   OH230348   6.030   2.786   8.674
 2930TIP3    H130349   6.016   2.692   8.670
 2930TIP3    H230350   6.124   2.798   8.663
 2931TIP3   OH230351   5.395   0.401   6.658
 2931TIP3    H130352   5.395   0.460   6.583
 2931TIP3    H230353   5.333   0.440   6.720
 2932TIP3   OH230354   6.555   5.011   0.215
 2932TIP3    H130355   6.627   5.068   0.188
 2932TIP3    H230356   6.484   5.071   0.237
 2933TIP3   OH230357   6.546   3.303   0.832
 2933TIP3    H130358   6.495   3.363   0.887
 2933TIP3    H230359   6.624   3.353   0.809
 2934TIP3   OH230360   5.478   0.071   7.666
 2934TIP3    H130361   5.474   6.762   7.625
 2934TIP3    H230362   5.533   0.058   7.744
 2935TIP3   OH230363   0.040   0.828   1.698
 2935TIP3    H130364   0.078   0.849   1.612
 2935TIP3    H230365   6.725   0.854   1.690
 2936TIP3   OH230366   4.104   1.403   6.615
 2936TIP3    H130367   4.173   1.349   6.652
 2936TIP3    H230368   4.023   1.355   6.634
 2937TIP3   OH230369   2.257   1.100   6.111
 2937TIP3    H130370   2.280   1.015   6.149
 2937TIP3    H230371   2.207   1.144   6.180
 2938TIP3   OH230372   5.836   3.491   2.446
 2938TIP3    H130373   5.926   3.499   2.480
 2938TIP3    H230374   5.812   3.400   2.464
 2939TIP3   OH230375   1.512   4.232   0.431
 2939TIP3    H130376   1.464   4.182   0.497
 2939TIP3    H230377   1.447   4.294   0.397
 2940TIP3   OH230378   0.043   1.203   0.602
 2940TIP3    H130379   0.121   1.153   0.626
 2940TIP3    H230380   0.073   1.294   0.597
 2941TIP3   OH230381   6.161   1.991   8.911
 2941TIP3    H130382   6.224   1.988   8.839
 2941TIP3    H230383   6.203   2.043   0.065
 2942TIP3   OH230384   3.342   4.013   2.372
 2942TIP3    H130385   3.377   4.059   2.295
 2942TIP3    H230386   3.369   4.066   2.446
 2943TIP3   OH230387   1.490   5.702   2.053
 2943TIP3    H130388   1.504   5.636   2.120
 2943TIP3    H230389   1.520   5.784   2.094
 2944TIP3   OH230390   2.078   1.895   2.174
 2944TIP3    H130391   2.114   1.813   2.206
 2944TIP3    H230392   1.988   1.896   2.206
 2945TIP3   OH230393   1.747   4.210   8.554
 2945TIP3    H130394   1.670   4.234   8.605
 2945TIP3    H230395   1.738   4.258   8.472
 2946TIP3   OH230396   3.252   3.595   7.442
 2946TIP3    H130397   3.281   3.637   7.522
 2946TIP3    H230398   3.257   3.664   7.375
 2947TIP3   OH230399   1.417   5.722   0.738
 2947TIP3    H130400   1.363   5.739   0.816
 2947TIP3    H230401   1.507   5.718   0.772
 2948TIP3   OH230402   3.148   5.137   0.814
 2948TIP3    H130403   3.237   5.109   0.838
 2948TIP3    H230404   3.106   5.157   0.897
 2949TIP3   OH230405   3.595   3.441   1.177
 2949TIP3    H130406   3.532   3.439   1.105
 2949TIP3    H230407   3.584   3.528   1.216
 2950TIP3   OH230408   3.623   4.539   7.735
 2950TIP3    H130409   3.608   4.579   7.649
 2950TIP3    H230410   3.579   4.454   7.729
 2951TIP3   OH230411   5.568   0.801   1.905
 2951TIP3    H130412   5.624   0.730   1.936
 2951TIP3    H230413   5.491   0.798   1.963
 2952TIP3   OH230414   0.172   3.791   0.760
 2952TIP3    H130415   0.247   3.732   0.763
 2952TIP3    H230416   0.126   3.767   0.680
 2953TIP3   OH230417   1.435   4.891   0.332
 2953TIP3    H130418   1.488   4.938   0.396
 2953TIP3    H230419   1.427   4.952   0.258
 2954TIP3   OH230420   0.831   0.662   7.368
 2954TIP3    H130421   0.855   0.691   7.280
 2954TIP3    H230422   0.899   0.699   7.425
 2955TIP3   OH230423   6.048   3.545   2.108
 2955TIP3    H130424   6.136   3.546   2.146
 2955TIP3    H230425   6.023   3.637   2.103
 2956TIP3   OH230426   5.663   2.764   7.874
 2956TIP3    H130427   5.591   2.723   7.922
 2956TIP3    H230428   5.738   2.707   7.889
 2957TIP3   OH230429   3.791   6.472   7.270
 2957TIP3    H130430   3.800   6.460   7.365
 2957TIP3    H230431   3.761   6.388   7.237
 2958TIP3   OH230432   1.435   6.383   1.025
 2958TIP3    H130433   1.397   6.311   0.975
 2958TIP3    H230434   1.389   6.381   1.109
 2959TIP3   OH230435   3.799   3.532   0.475
 2959TIP3    H130436   3.835   3.569   0.394
 2959TIP3    H230437   3.706   3.553   0.472
 2960TIP3   OH230438   0.579   0.958   7.616
 2960TIP3    H130439   0.527   0.900   7.561
 2960TIP3    H230440   0.657   0.907   7.639
 2961TIP3   OH230441   0.923   2.023   1.366
 2961TIP3    H130442   0.876   2.104   1.390
 2961TIP3    H230443   0.878   1.992   1.288
 2962TIP3   OH230444   4.293   0.521   1.095
 2962TIP3    H130445   4.206   0.485   1.113
 2962TIP3    H230446   4.301   0.515   0.999
 2963TIP3   OH230447   6.268   4.370   7.078
 2963TIP3    H130448   6.192   4.378   7.135
 2963TIP3    H230449   6.236   4.390   6.990
 2964TIP3   OH230450   0.669   0.474   7.693
 2964TIP3    H130451   0.659   0.431   7.778
 2964TIP3    H230452   0.680   0.566   7.713
 2965TIP3   OH230453   6.155   4.155   1.539
 2965TIP3    H130454   6.062   4.172   1.525
 2965TIP3    H230455   6.185   4.112   1.459
 2966TIP3   OH230456   1.273   3.527   0.928
 2966TIP3    H130457   1.358   3.526   0.885
 2966TIP3    H230458   1.256   3.619   0.946
 2967TIP3   OH230459   4.998   3.646   1.052
 2967TIP3    H130460   4.990   3.610   0.964
 2967TIP3    H230461   5.085   3.620   1.081
 2968TIP3   OH230462   0.746   1.600   1.800
 2968TIP3    H130463   0.740   1.597   1.896
 2968TIP3    H230464   0.784   1.516   1.776
 2969TIP3   OH230465   3.754   0.236   7.685
 2969TIP3    H130466   3.665   0.268   7.701
 2969TIP3    H230467   3.810   0.308   7.712
 2970TIP3   OH230468   4.583   2.902   1.439
 2970TIP3    H130469   4.665   2.902   1.489
 2970TIP3    H230470   4.514   2.902   1.506
 2971TIP3   OH230471   3.945   6.458   8.041
 2971TIP3    H130472   3.988   6.416   8.114
 2971TIP3    H230473   3.976   6.549   8.043
 2972TIP3   OH230474   6.194   0.510   1.140
 2972TIP3    H130475   6.194   0.414   1.142
 2972TIP3    H230476   6.267   0.535   1.197
 2973TIP3   OH230477   1.595   2.969   7.747
 2973TIP3    H130478   1.628   2.885   7.717
 2973TIP3    H230479   1.519   2.987   7.692
 2974TIP3   OH230480   6.553   5.390   8.853
 2974TIP3    H130481   6.508   5.320   8.900
 2974TIP3    H230482   6.483   5.444   8.817
 2975TIP3   OH230483   3.117   3.056   0.268
 2975TIP3    H130484   3.201   3.020   0.296
 2975TIP3    H230485   3.067   2.980   0.237
 2976TIP3   OH230486   1.763   2.266   7.660
 2976TIP3    H130487   1.728   2.276   7.572
 2976TIP3    H230488   1.715   2.331   7.712
 2977TIP3   OH230489   3.835   2.818   1.474
 2977TIP3    H130490   3.768   2.834   1.408
 2977TIP3    H230491   3.799   2.858   1.554
 2978TIP3   OH230492   5.679   2.242   1.117
 2978TIP3    H130493   5.594   2.285   1.123
 2978TIP3    H230494   5.692   2.228   1.023
 2979TIP3   OH230495   0.988   2.830   7.960
 2979TIP3    H130496   0.966   2.841   8.053
 2979TIP3    H230497   0.907   2.801   7.919
 2980TIP3   OH230498   4.038   5.755   0.067
 2980TIP3    H130499   4.007   5.782   8.894
 2980TIP3    H230500   4.029   5.659   0.066
 2981TIP3   OH230501   6.450   5.196   1.555
 2981TIP3    H130502   6.472   5.262   1.620
 2981TIP3    H230503   6.516   5.127   1.568
 2982TIP3   OH230504   0.996   5.619   7.860
 2982TIP3    H130505   1.019   5.553   7.795
 2982TIP3    H230506   1.028   5.583   7.943
 2983TIP3   OH230507   3.189   1.447   0.205
 2983TIP3    H130508   3.168   1.454   0.298
 2983TIP3    H230509   3.141   1.369   0.175
 2984TIP3   OH230510   5.756   3.963   1.267
 2984TIP3    H130511   5.689   3.950   1.334
 2984TIP3    H230512   5.750   4.056   1.245
 2985TIP3   OH230513   3.173   4.524   8.714
 2985TIP3    H130514   3.123   4.588   8.766
 2985TIP3    H230515   3.264   4.549   8.727
 2986TIP3   OH230516   4.114   6.119   7.903
 2986TIP3    H130517   4.164   6.158   7.975
 2986TIP3    H230518   4.145   6.164   7.825
 2987TIP3   OH230519   4.437   1.723   8.381
 2987TIP3    H130520   4.495   1.787   8.340
 2987TIP3    H230521   4.383   1.691   8.309
 2988TIP3   OH230522   1.378   3.887   7.997
 2988TIP3    H130523   1.328   3.913   7.919
 2988TIP3    H230524   1.314   3.841   8.052
 2989TIP3   OH230525   3.760   2.348   1.785
 2989TIP3    H130526   3.701   2.276   1.761
 2989TIP3    H230527   3.703   2.417   1.819
 2990TIP3   OH230528   1.561   4.602   8.479
 2990TIP3    H130529   1.518   4.609   8.394
 2990TIP3    H230530   1.507   4.541   8.529
 2991TIP3   OH230531   4.938   6.750   0.544
 2991TIP3    H130532   4.915   6.721   0.632
 2991TIP3    H230533   4.993   6.679   0.509
 2992TIP3   OH230534   1.440   5.398   8.783
 2992TIP3    H130535   1.401   5.376   8.699
 2992TIP3    H230536   1.413   5.489   8.799
 2993TIP3   OH230537   5.352   5.099   2.085
 2993TIP3    H130538   5.351   5.155   2.162
 2993TIP3    H230539   5.419   5.034   2.104
 2994TIP3   OH230540   6.682   3.203   2.590
 2994TIP3    H130541   6.605   3.230   2.639
 2994TIP3    H230542   6.690   3.109   2.607
 2995TIP3   OH230543   1.590   0.604   1.363
 2995TIP3    H130544   1.533   0.575   1.292
 2995TIP3    H230545   1.537   0.668   1.411
 2996TIP3   OH230546   1.091   1.045   6.638
 2996TIP3    H130547   1.008   1.090   6.650
 2996TIP3    H230548   1.150   1.111   6.601
 2997TIP3   OH230549   5.813   6.193   1.458
 2997TIP3    H130550   5.814   6.099   1.441
 2997TIP3    H230551   5.769   6.202   1.542
 2998TIP3   OH230552   1.526   0.348   7.384
 2998TIP3    H130553   1.548   0.294   7.308
 2998TIP3    H230554   1.600   0.408   7.394
 2999TIP3   OH230555   4.438   0.447   8.518
 2999TIP3    H130556   4.439   0.455   8.613
 2999TIP3    H230557   4.525   0.413   8.496
 3000TIP3   OH230558   2.142   2.935   0.160
 3000TIP3    H130559   2.062   2.894   0.194
 3000TIP3    H230560   2.137   3.026   0.191
 3001TIP3   OH230561   4.340   6.514   7.653
 3001TIP3    H130562   4.320   6.531   7.745
 3001TIP3    H230563   4.391   6.433   7.655
 3002TIP3   OH230564   2.676   4.586   0.173
 3002TIP3    H130565   2.734   4.572   0.248
 3002TIP3    H230566   2.617   4.511   0.174
 3003TIP3   OH230567   2.451   4.163   7.805
 3003TIP3    H130568   2.481   4.080   7.842
 3003TIP3    H230569   2.532   4.209   7.781
 3004TIP3   OH230570   0.879   1.694   8.426
 3004TIP3    H130571   0.851   1.778   8.461
 3004TIP3    H230572   0.883   1.636   8.503
 3005TIP3   OH230573   3.012   1.219   0.270
 3005TIP3    H130574   2.921   1.249   0.267
 3005TIP3    H230575   3.048   1.259   0.349
 3006TIP3   OH230576   1.314   6.122   8.142
 3006TIP3    H130577   1.391   6.108   8.087
 3006TIP3    H230578   1.314   6.216   8.159
 3007TIP3   OH230579   3.840   5.999   7.050
 3007TIP3    H130580   3.929   6.031   7.059
 3007TIP3    H230581   3.832   5.974   6.958
 3008TIP3   OH230582   6.059   3.411   1.286
 3008TIP3    H130583   6.087   3.339   1.342
 3008TIP3    H230584   5.964   3.412   1.293
 3009TIP3   OH230585   3.646   1.604   7.835
 3009TIP3    H130586   3.640   1.610   7.931
 3009TIP3    H230587   3.656   1.694   7.806
 3010TIP3   OH230588   5.039   6.395   0.007
 3010TIP3    H130589   5.112   6.422   0.063
 3010TIP3    H230590   4.963   6.437   0.046
 3011TIP3   OH230591   3.963   5.449   2.592
 3011TIP3    H130592   3.891   5.404   2.548
 3011TIP3    H230593   4.036   5.443   2.530
 3012TIP3   OH230594   2.671   3.656   8.401
 3012TIP3    H130595   2.722   3.737   8.398
 3012TIP3    H230596   2.580   3.684   8.408
 3013TIP3   OH230597   3.796   5.667   8.276
 3013TIP3    H130598   3.863   5.690   8.341
 3013TIP3    H230599   3.742   5.746   8.268
 3014TIP3   OH230600   0.054   0.179   1.124
 3014TIP3    H130601   0.021   0.216   1.205
 3014TIP3    H230602   6.765   0.201   1.059
 3015TIP3   OH230603   0.261   0.758   0.160
 3015TIP3    H130604   0.295   0.749   0.071
 3015TIP3    H230605   0.331   0.725   0.216
 3016TIP3   OH230606   1.797   6.399   8.016
 3016TIP3    H130607   1.771   6.382   8.107
 3016TIP3    H230608   1.871   6.341   8.001
 3017TIP3   OH230609   1.788   3.819   0.035
 3017TIP3    H130610   1.831   3.880   0.095
 3017TIP3    H230611   1.855   3.753   0.015
 3018TIP3   OH230612   1.606   4.894   7.498
 3018TIP3    H130613   1.601   4.837   7.421
 3018TIP3    H230614   1.521   4.938   7.501
 3019TIP3   OH230615   0.021   0.157   0.239
 3019TIP3    H130616   0.046   0.191   0.153
 3019TIP3    H230617   6.702   0.164   0.241
 3020TIP3   OH230618   4.346   4.064   7.769
 3020TIP3    H130619   4.394   4.049   7.688
 3020TIP3    H230620   4.398   4.020   7.837
 3021TIP3   OH230621   6.370   2.651   8.852
 3021TIP3    H130622   6.386   2.721   0.002
 3021TIP3    H230623   6.348   2.575   8.905
 3022TIP3   OH230624   3.647   3.667   1.845
 3022TIP3    H130625   3.695   3.668   1.928
 3022TIP3    H230626   3.621   3.576   1.833
 3023TIP3   OH230627   4.419   6.567   0.293
 3023TIP3    H130628   4.482   6.550   0.364
 3023TIP3    H230629   4.474   6.594   0.219
 3024TIP3   OH230630   6.186   0.516   0.627
 3024TIP3    H130631   6.262   0.463   0.604
 3024TIP3    H230632   6.151   0.474   0.705
 3025TIP3   OH230633   5.119   2.963   1.589
 3025TIP3    H130634   5.149   2.960   1.679
 3025TIP3    H230635   5.098   3.055   1.573
 3026TIP3   OH230636   6.509   5.356   1.769
 3026TIP3    H130637   6.531   5.450   1.770
 3026TIP3    H230638   6.427   5.351   1.819
 3027TIP3   OH230639   5.908   2.233   7.351
 3027TIP3    H130640   5.920   2.326   7.373
 3027TIP3    H230641   5.840   2.203   7.412
 3028TIP3   OH230642   5.468   1.907   0.150
 3028TIP3    H130643   5.417   1.899   0.070
 3028TIP3    H230644   5.534   1.838   0.145
 3029TIP3   OH230645   1.146   0.116   8.845
 3029TIP3    H130646   1.124   0.079   0.017
 3029TIP3    H230647   1.160   0.209   8.862
 3030TIP3   OH230648   1.914   1.946   7.956
 3030TIP3    H130649   1.875   1.974   7.874
 3030TIP3    H230650   1.893   2.015   8.018
 3031TIP3   OH230651   0.989   3.936   7.735
 3031TIP3    H130652   0.902   3.908   7.763
 3031TIP3    H230653   0.981   4.031   7.720
 3032TIP3   OH230654   4.013   5.296   7.145
 3032TIP3    H130655   4.097   5.250   7.143
 3032TIP3    H230656   3.974   5.278   7.059
 3033TIP3   OH230657   5.435   3.232   7.725
 3033TIP3    H130658   5.406   3.195   7.809
 3033TIP3    H230659   5.449   3.155   7.669
 3034TIP3   OH230660   4.064   1.983   7.174
 3034TIP3    H130661   3.970   1.974   7.192
 3034TIP3    H230662   4.102   2.006   7.259
 3035TIP3   OH230663   2.575   3.069   1.772
 3035TIP3    H130664   2.543   3.143   1.720
 3035TIP3    H230665   2.496   3.018   1.791
 3036TIP3   OH230666   5.304   5.915   6.226
 3036TIP3    H130667   5.257   5.994   6.255
 3036TIP3    H230668   5.380   5.949   6.179
 3037TIP3   OH230669   3.364   2.261   0.089
 3037TIP3    H130670   3.396   2.326   0.152
 3037TIP3    H230671   3.280   2.233   0.125
 3038TIP3   OH230672   2.025   3.043   7.242
 3038TIP3    H130673   1.948   3.034   7.299
 3038TIP3    H230674   1.993   3.024   7.154
 3039TIP3   OH230675   3.264   6.318   0.926
 3039TIP3    H130676   3.189   6.369   0.896
 3039TIP3    H230677   3.301   6.281   0.846
 3040TIP3   OH230678   4.390   0.443   8.777
 3040TIP3    H130679   4.418   0.352   8.773
 3040TIP3    H230680   4.312   0.441   8.833
 3041TIP3   OH230681   5.372   1.677   0.333
 3041TIP3    H130682   5.334   1.664   0.246
 3041TIP3    H230683   5.467   1.674   0.318
 3042TIP3   OH230684   6.486   0.425   7.838
 3042TIP3    H130685   6.520   0.455   7.923
 3042TIP3    H230686   6.526   0.339   7.826
 3043TIP3   OH230687   0.879   1.942   7.789
 3043TIP3    H130688   0.949   1.986   7.741
 3043TIP3    H230689   0.862   1.999   7.864
 3044TIP3   OH230690   6.133   4.778   7.544
 3044TIP3    H130691   6.139   4.791   7.449
 3044TIP3    H230692   6.051   4.730   7.556
 3045TIP3   OH230693   2.110   3.375   1.128
 3045TIP3    H130694   2.148   3.341   1.209
 3045TIP3    H230695   2.051   3.445   1.157
 3046TIP3   OH230696   3.840   6.465   1.218
 3046TIP3    H130697   3.908   6.420   1.168
 3046TIP3    H230698   3.871   6.555   1.226
 3047TIP3   OH230699   5.266   6.369   6.987
 3047TIP3    H130700   5.182   6.329   7.012
 3047TIP3    H230701   5.252   6.399   6.897
 3048TIP3   OH230702   5.063   2.948   1.197
 3048TIP3    H130703   4.981   2.989   1.223
 3048TIP3    H230704   5.061   2.861   1.237
 3049TIP3   OH230705   0.113   2.326   7.501
 3049TIP3    H130706   0.135   2.330   7.408
 3049TIP3    H230707   0.068   2.408   7.519
 3050TIP3   OH230708   5.972   2.749   0.886
 3050TIP3    H130709   6.045   2.687   0.892
 3050TIP3    H230710   5.915   2.727   0.960
 3051TIP3   OH230711   2.109   4.375   8.090
 3051TIP3    H130712   2.116   4.285   8.059
 3051TIP3    H230713   2.027   4.376   8.140
 3052TIP3   OH230714   0.590   6.641   7.487
 3052TIP3    H130715   0.625   6.590   7.560
 3052TIP3    H230716   0.667   6.666   7.435
 3053TIP3   OH230717   1.157   4.944   7.903
 3053TIP3    H130718   1.063   4.942   7.922
 3053TIP3    H230719   1.164   4.996   7.823
 3054TIP3   OH230720   4.892   0.413   7.491
 3054TIP3    H130721   4.842   0.348   7.540
 3054TIP3    H230722   4.957   0.362   7.443
 3055TIP3   OH230723   4.296   0.019   2.313
 3055TIP3    H130724   4.239   6.720   2.331
 3055TIP3    H230725   4.270   0.084   2.378
 3056TIP3   OH230726   3.544   2.307   8.418
 3056TIP3    H130727   3.491   2.325   8.340
 3056TIP3    H230728   3.547   2.391   8.465
 3057TIP3   OH230729   0.215   3.816   6.652
 3057TIP3    H130730   0.269   3.849   6.580
 3057TIP3    H230731   0.276   3.765   6.706
 3058TIP3   OH230732   2.354   2.342   1.667
 3058TIP3    H130733   2.408   2.399   1.721
 3058TIP3    H230734   2.332   2.395   1.590
 3059TIP3   OH230735   1.506   3.035   7.243
 3059TIP3    H130736   1.464   3.108   7.290
 3059TIP3    H230737   1.433   2.978   7.218
 3060TIP3   OH230738   1.955   2.768   0.239
 3060TIP3    H130739   1.860   2.764   0.230
 3060TIP3    H230740   1.974   2.710   0.312
 3061TIP3   OH230741   2.900   4.239   1.456
 3061TIP3    H130742   2.902   4.190   1.374
 3061TIP3    H230743   2.959   4.313   1.442
 3062TIP3   OH230744   4.647   3.356   1.230
 3062TIP3    H130745   4.639   3.270   1.270
 3062TIP3    H230746   4.741   3.372   1.225
 3063TIP3   OH230747   1.908   2.813   0.717
 3063TIP3    H130748   1.918   2.865   0.797
 3063TIP3    H230749   1.938   2.871   0.647
 3064TIP3   OH230750   0.286   2.669   1.158
 3064TIP3    H130751   0.298   2.621   1.240
 3064TIP3    H230752   0.371   2.661   1.113
 3065TIP3   OH230753   5.593   0.398   0.763
 3065TIP3    H130754   5.548   0.466   0.813
 3065TIP3    H230755   5.681   0.433   0.748
 3066TIP3   OH230756   2.977   0.444   2.036
 3066TIP3    H130757   3.040   0.484   2.096
 3066TIP3    H230758   2.985   0.350   2.052
 3067TIP3   OH230759   3.196   2.959   7.369
 3067TIP3    H130760   3.157   2.899   7.306
 3067TIP3    H230761   3.282   2.923   7.387
 3068TIP3   OH230762   4.601   0.173   1.834
 3068TIP3    H130763   4.628   0.171   1.925
 3068TIP3    H230764   4.644   0.251   1.798
 3069TIP3   OH230765   2.016   6.438   7.735
 3069TIP3    H130766   2.090   6.456   7.677
 3069TIP3    H230767   1.939   6.443   7.678
 3070TIP3   OH230768   5.296   5.615   8.209
 3070TIP3    H130769   5.324   5.588   8.121
 3070TIP3    H230770   5.333   5.702   8.220
 3071TIP3   OH230771   3.953   3.305   0.468
 3071TIP3    H130772   4.024   3.337   0.412
 3071TIP3    H230773   3.906   3.383   0.495
 3072TIP3   OH230774   5.770   4.791   6.793
 3072TIP3    H130775   5.801   4.715   6.745
 3072TIP3    H230776   5.807   4.866   6.747
 3073TIP3   OH230777   4.604   0.963   7.924
 3073TIP3    H130778   4.683   0.945   7.872
 3073TIP3    H230779   4.579   0.877   7.959
 3074TIP3   OH230780   6.132   1.744   1.713
 3074TIP3    H130781   6.216   1.721   1.672
 3074TIP3    H230782   6.155   1.769   1.803
 3075TIP3   OH230783   4.132   6.443   0.170
 3075TIP3    H130784   4.037   6.453   0.177
 3075TIP3    H230785   4.162   6.434   0.261
 3076TIP3   OH230786   6.253   2.173   8.313
 3076TIP3    H130787   6.336   2.129   8.295
 3076TIP3    H230788   6.225   2.138   8.398
 3077TIP3   OH230789   1.401   5.692   6.456
 3077TIP3    H130790   1.380   5.712   6.365
 3077TIP3    H230791   1.350   5.754   6.508
 3078TIP3   OH230792   6.410   0.151   8.330
 3078TIP3    H130793   6.448   0.238   8.334
 3078TIP3    H230794   6.399   0.134   8.236
 3079TIP3   OH230795   0.984   2.585   1.762
 3079TIP3    H130796   1.008   2.641   1.836
 3079TIP3    H230797   1.059   2.590   1.703
 3080TIP3   OH230798   5.977   1.598   0.078
 3080TIP3    H130799   5.947   1.686   0.058
 3080TIP3    H230800   5.984   1.596   0.174
 3081TIP3   OH230801   1.160   6.563   7.974
 3081TIP3    H130802   1.163   6.659   7.972
 3081TIP3    H230803   1.252   6.537   7.975
 3082TIP3   OH230804   2.218   2.134   1.775
 3082TIP3    H130805   2.263   2.208   1.733
 3082TIP3    H230806   2.127   2.162   1.783
 3083TIP3   OH230807   1.591   6.585   8.347
 3083TIP3    H130808   1.561   6.636   8.272
 3083TIP3    H230809   1.687   6.589   8.342
 3084TIP3   OH230810   2.269   6.505   7.656
 3084TIP3    H130811   2.279   6.451   7.734
 3084TIP3    H230812   2.267   6.595   7.689
 3085TIP3   OH230813   4.273   5.180   0.588
 3085TIP3    H130814   4.194   5.211   0.631
 3085TIP3    H230815   4.304   5.256   0.538
 3086TIP3   OH230816   1.328   1.413   7.026
 3086TIP3    H130817   1.417   1.422   6.994
 3086TIP3    H230818   1.274   1.456   6.960
 3087TIP3   OH230819   3.367   2.580   6.970
 3087TIP3    H130820   3.394   2.489   6.956
 3087TIP3    H230821   3.421   2.631   6.910
 3088TIP3   OH230822   4.498   2.022   0.694
 3088TIP3    H130823   4.582   1.986   0.666
 3088TIP3    H230824   4.482   2.094   0.634
 3089TIP3   OH230825   2.639   2.268   7.416
 3089TIP3    H130826   2.689   2.303   7.342
 3089TIP3    H230827   2.644   2.337   7.483
 3090TIP3   OH230828   4.761   3.193   1.905
 3090TIP3    H130829   4.720   3.261   1.958
 3090TIP3    H230830   4.767   3.117   1.963
 3091TIP3   OH230831   4.801   6.155   0.445
 3091TIP3    H130832   4.865   6.140   0.515
 3091TIP3    H230833   4.830   6.098   0.374
 3092TIP3   OH230834   6.290   1.783   7.755
 3092TIP3    H130835   6.342   1.843   7.808
 3092TIP3    H230836   6.229   1.839   7.707
 3093TIP3   OH230837   4.012   6.387   1.013
 3093TIP3    H130838   4.059   6.437   0.946
 3093TIP3    H230839   4.050   6.299   1.008
 3094TIP3   OH230840   2.088   4.099   0.820
 3094TIP3    H130841   2.088   4.174   0.760
 3094TIP3    H230842   1.997   4.090   0.846
 3095TIP3   OH230843   0.096   5.967   0.123
 3095TIP3    H130844   0.030   5.921   0.175
 3095TIP3    H230845   0.152   5.897   0.089
 3096TIP3   OH230846   0.774   0.557   6.502
 3096TIP3    H130847   0.824   0.476   6.492
 3096TIP3    H230848   0.717   0.541   6.577
 3097TIP3   OH230849   2.982   3.984   8.875
 3097TIP3    H130850   2.917   3.987   0.032
 3097TIP3    H230851   2.952   4.049   8.812
 3098TIP3   OH230852   4.636   0.397   7.806
 3098TIP3    H130853   4.647   0.333   7.877
 3098TIP3    H230854   4.636   0.345   7.726
 3099TIP3   OH230855   2.889   4.681   1.050
 3099TIP3    H130856   2.823   4.718   1.109
 3099TIP3    H230857   2.957   4.748   1.044
 3100TIP3   OH230858   6.451   0.352   0.094
 3100TIP3    H130859   6.426   0.428   0.042
 3100TIP3    H230860   6.487   0.290   0.031
 3101TIP3   OH230861   6.534   2.906   1.960
 3101TIP3    H130862   6.594   2.846   2.005
 3101TIP3    H230863   6.568   2.909   1.870
 3102TIP3   OH230864   2.980   1.286   2.718
 3102TIP3    H130865   2.953   1.372   2.751
 3102TIP3    H230866   2.923   1.269   2.643
 3103TIP3   OH230867   3.052   4.449   7.844
 3103TIP3    H130868   3.029   4.365   7.885
 3103TIP3    H230869   3.071   4.426   7.753
 3104TIP3   OH230870   4.911   3.143   1.609
 3104TIP3    H130871   4.913   3.230   1.570
 3104TIP3    H230872   4.830   3.142   1.661
 3105TIP3   OH230873   2.292   0.254   1.259
 3105TIP3    H130874   2.263   0.315   1.191
 3105TIP3    H230875   2.222   0.189   1.265
 3106TIP3   OH230876   4.665   2.315   1.456
 3106TIP3    H130877   4.636   2.404   1.438
 3106TIP3    H230878   4.585   2.265   1.468
 3107TIP3   OH230879   0.954   5.840   0.549
 3107TIP3    H130880   0.921   5.853   0.638
 3107TIP3    H230881   0.886   5.878   0.493
 3108TIP3   OH230882   3.639   6.750   8.491
 3108TIP3    H130883   3.626   0.065   8.517
 3108TIP3    H230884   3.715   6.752   8.433
 3109TIP3   OH230885   3.670   1.853   0.336
 3109TIP3    H130886   3.594   1.795   0.348
 3109TIP3    H230887   3.730   1.828   0.405
 3110TIP3   OH230888   3.682   4.885   8.022
 3110TIP3    H130889   3.619   4.854   7.957
 3110TIP3    H230890   3.634   4.951   8.073
 3111TIP3   OH230891   5.480   1.635   1.616
 3111TIP3    H130892   5.569   1.605   1.630
 3111TIP3    H230893   5.466   1.701   1.684
 3112TIP3   OH230894   6.436   5.129   1.008
 3112TIP3    H130895   6.500   5.113   1.077
 3112TIP3    H230896   6.464   5.073   0.935
 3113TIP3   OH230897   2.022   1.555   7.090
 3113TIP3    H130898   1.939   1.533   7.047
 3113TIP3    H230899   2.082   1.575   7.018
 3114TIP3   OH230900   6.165   2.820   0.207
 3114TIP3    H130901   6.237   2.820   0.270
 3114TIP3    H230902   6.201   2.863   0.129
 3115TIP3   OH230903   6.222   5.495   6.606
 3115TIP3    H130904   6.197   5.552   6.533
 3115TIP3    H230905   6.317   5.482   6.595
 3116TIP3   OH230906   4.665   0.996   7.496
 3116TIP3    H130907   4.708   0.914   7.471
 3116TIP3    H230908   4.720   1.032   7.565
 3117TIP3   OH230909   4.460   3.121   8.512
 3117TIP3    H130910   4.441   3.163   8.427
 3117TIP3    H230911   4.505   3.040   8.489
 3118TIP3   OH230912   5.607   2.987   2.036
 3118TIP3    H130913   5.630   2.920   2.100
 3118TIP3    H230914   5.663   3.061   2.058
 3119TIP3   OH230915   0.090   2.029   0.491
 3119TIP3    H130916   0.160   1.972   0.522
 3119TIP3    H230917   0.036   1.972   0.435
 3120TIP3   OH230918   3.219   3.789   2.531
 3120TIP3    H130919   3.126   3.772   2.520
 3120TIP3    H230920   3.237   3.866   2.477
 3121TIP3   OH230921   2.186   4.173   7.912
 3121TIP3    H130922   2.190   4.079   7.930
 3121TIP3    H230923   2.255   4.188   7.848
 3122TIP3   OH230924   5.835   1.146   6.475
 3122TIP3    H130925   5.910   1.198   6.503
 3122TIP3    H230926   5.776   1.209   6.433
 3123TIP3   OH230927   5.363   4.893   0.580
 3123TIP3    H130928   5.371   4.919   0.672
 3123TIP3    H230929   5.377   4.974   0.531
 3124TIP3   OH230930   2.831   2.897   6.934
 3124TIP3    H130931   2.850   2.979   6.888
 3124TIP3    H230932   2.825   2.831   6.865
 3125TIP3   OH230933   0.400   6.106   8.829
 3125TIP3    H130934   0.374   6.095   8.737
 3125TIP3    H230935   0.401   6.200   8.843
 3126TIP3   OH230936   6.020   3.812   2.046
 3126TIP3    H130937   6.072   3.878   2.000
 3126TIP3    H230938   5.998   3.854   2.129
 3127TIP3   OH230939   5.669   5.311   7.864
 3127TIP3    H130940   5.726   5.318   7.787
 3127TIP3    H230941   5.658   5.401   7.894
 3128TIP3   OH230942   3.347   0.194   1.709
 3128TIP3    H130943   3.388   0.234   1.786
 3128TIP3    H230944   3.358   0.100   1.724
 3129TIP3   OH230945   0.500   6.330   7.687
 3129TIP3    H130946   0.411   6.356   7.666
 3129TIP3    H230947   0.552   6.410   7.680
 3130TIP3   OH230948   5.877   0.662   0.129
 3130TIP3    H130949   5.860   0.622   0.044
 3130TIP3    H230950   5.805   0.632   0.184
 3131TIP3   OH230951   3.366   3.321   7.449
 3131TIP3    H130952   3.320   3.403   7.433
 3131TIP3    H230953   3.415   3.305   7.368
 3132TIP3   OH230954   1.528   1.985   8.863
 3132TIP3    H130955   1.482   2.018   8.786
 3132TIP3    H230956   1.589   1.920   8.829
 3133TIP3   OH230957   2.382   6.303   6.948
 3133TIP3    H130958   2.371   6.212   6.922
 3133TIP3    H230959   2.293   6.335   6.963
 3134TIP3   OH230960   2.568   5.195   0.949
 3134TIP3    H130961   2.530   5.240   0.873
 3134TIP3    H230962   2.511   5.119   0.963
 3135TIP3   OH230963   3.127   0.334   7.255
 3135TIP3    H130964   3.056   0.394   7.280
 3135TIP3    H230965   3.117   0.324   7.161
 3136TIP3   OH230966   1.900   4.985   8.025
 3136TIP3    H130967   1.853   5.022   7.951
 3136TIP3    H230968   1.963   5.052   8.050
 3137TIP3   OH230969   5.866   6.315   6.875
 3137TIP3    H130970   5.805   6.347   6.809
 3137TIP3    H230971   5.911   6.243   6.833
 3138TIP3   OH230972   2.720   3.835   0.700
 3138TIP3    H130973   2.697   3.743   0.716
 3138TIP3    H230974   2.673   3.884   0.768
 3139TIP3   OH230975   6.333   4.624   0.244
 3139TIP3    H130976   6.277   4.597   0.317
 3139TIP3    H230977   6.318   4.718   0.234
 3140TIP3   OH230978   3.977   4.262   8.808
 3140TIP3    H130979   4.005   4.240   8.897
 3140TIP3    H230980   3.898   4.209   8.794
 3141TIP3   OH230981   6.263   4.203   6.324
 3141TIP3    H130982   6.336   4.184   6.382
 3141TIP3    H230983   6.283   4.290   6.288
 3142TIP3   OH230984   0.584   2.779   0.026
 3142TIP3    H130985   0.669   2.804   0.062
 3142TIP3    H230986   0.524   2.845   0.060
 3143TIP3   OH230987   4.434   0.096   8.266
 3143TIP3    H130988   4.404   0.033   8.332
 3143TIP3    H230989   4.467   0.041   8.195
 3144TIP3   OH230990   1.737   6.741   6.110
 3144TIP3    H130991   1.722   0.014   6.190
 3144TIP3    H230992   1.674   6.669   6.114
 3145TIP3   OH230993   0.220   5.303   0.072
 3145TIP3    H130994   0.163   5.363   0.022
 3145TIP3    H230995   0.194   5.216   0.043
 3146TIP3   OH230996   5.281   3.563   7.965
 3146TIP3    H130997   5.296   3.564   8.060
 3146TIP3    H230998   5.368   3.573   7.927
 3147TIP3   OH230999   3.938   6.078   2.151
 3147TIP3    H131000   3.962   6.023   2.225
 3147TIP3    H231001   4.020   6.088   2.101
 3148TIP3   OH231002   3.580   5.328   7.937
 3148TIP3    H131003   3.570   5.330   7.842
 3148TIP3    H231004   3.603   5.417   7.962
 3149TIP3   OH231005   0.414   1.619   7.957
 3149TIP3    H131006   0.427   1.535   7.913
 3149TIP3    H231007   0.502   1.652   7.973
 3150TIP3   OH231008   4.502   3.032   0.071
 3150TIP3    H131009   4.457   3.115   0.090
 3150TIP3    H231010   4.581   3.058   0.023
 3151TIP3   OH231011   2.760   2.343   8.548
 3151TIP3    H131012   2.831   2.406   8.559
 3151TIP3    H231013   2.708   2.352   8.628
 3152TIP3   OH231014   5.309   2.535   0.841
 3152TIP3    H131015   5.401   2.555   0.824
 3152TIP3    H231016   5.287   2.587   0.918
 3153TIP3   OH231017   5.221   4.654   8.068
 3153TIP3    H131018   5.188   4.642   8.157
 3153TIP3    H231019   5.144   4.677   8.017
 3154TIP3   OH231020   0.100   5.119   0.851
 3154TIP3    H131021   0.124   5.027   0.867
 3154TIP3    H231022   0.043   5.142   0.924
 3155TIP3   OH231023   1.328   4.590   2.327
 3155TIP3    H131024   1.238   4.589   2.296
 3155TIP3    H231025   1.322   4.563   2.419
 3156TIP3   OH231026   3.004   0.572   0.650
 3156TIP3    H131027   2.947   0.637   0.608
 3156TIP3    H231028   2.947   0.525   0.711
 3157TIP3   OH231029   6.248   2.028   8.541
 3157TIP3    H131030   6.325   2.034   8.598
 3157TIP3    H231031   6.175   2.056   8.596
 3158TIP3   OH231032   0.664   5.162   0.347
 3158TIP3    H131033   0.738   5.115   0.308
 3158TIP3    H231034   0.629   5.101   0.412
 3159TIP3   OH231035   6.416   3.504   0.988
 3159TIP3    H131036   6.339   3.462   0.949
 3159TIP3    H231037   6.382   3.547   1.067
 3160TIP3   OH231038   2.006   4.639   1.069
 3160TIP3    H131039   2.047   4.695   1.135
 3160TIP3    H231040   2.035   4.550   1.092
 3161TIP3   OH231041   0.924   1.759   0.721
 3161TIP3    H131042   0.995   1.746   0.659
 3161TIP3    H231043   0.865   1.821   0.678
 3162TIP3   OH231044   4.165   1.285   7.427
 3162TIP3    H131045   4.144   1.295   7.334
 3162TIP3    H231046   4.130   1.364   7.468
 3163TIP3   OH231047   4.709   2.247   7.020
 3163TIP3    H131048   4.707   2.164   7.067
 3163TIP3    H231049   4.799   2.278   7.031
 3164TIP3   OH231050   3.551   6.089   0.970
 3164TIP3    H131051   3.490   6.079   0.897
 3164TIP3    H231052   3.592   6.174   0.957
 3165TIP3   OH231053   2.156   0.529   0.792
 3165TIP3    H131054   2.084   0.592   0.802
 3165TIP3    H231055   2.140   0.487   0.707
 3166TIP3   OH231056   2.931   5.366   1.883
 3166TIP3    H131057   2.984   5.427   1.935
 3166TIP3    H231058   2.919   5.411   1.799
 3167TIP3   OH231059   0.579   4.238   7.513
 3167TIP3    H131060   0.594   4.145   7.529
 3167TIP3    H231061   0.623   4.282   7.586
 3168TIP3   OH231062   0.066   5.899   0.444
 3168TIP3    H131063   6.751   5.876   0.427
 3168TIP3    H231064   0.100   5.825   0.494
 3169TIP3   OH231065   0.476   0.998   6.639
 3169TIP3    H131066   0.550   1.059   6.629
 3169TIP3    H231067   0.501   0.943   6.713
 3170TIP3   OH231068   6.764   4.336   7.762
 3170TIP3    H131069   0.074   4.304   7.787
 3170TIP3    H231070   6.762   4.328   7.667
 3171TIP3   OH231071   0.164   4.781   8.836
 3171TIP3    H131072   0.085   4.729   8.824
 3171TIP3    H231073   0.236   4.717   8.833
 3172TIP3   OH231074   1.009   2.017   7.215
 3172TIP3    H131075   0.947   2.021   7.143
 3172TIP3    H231076   1.026   2.108   7.238
 3173TIP3   OH231077   3.964   5.557   7.753
 3173TIP3    H131078   3.894   5.502   7.720
 3173TIP3    H231079   3.942   5.645   7.723
 3174TIP3   OH231080   6.090   3.761   8.668
 3174TIP3    H131081   6.112   3.736   8.578
 3174TIP3    H231082   6.037   3.839   8.659
 3175TIP3   OH231083   0.080   0.534   8.053
 3175TIP3    H131084   0.056   0.450   8.014
 3175TIP3    H231085   0.053   0.599   7.988
 3176TIP3   OH231086   6.006   3.983   1.126
 3176TIP3    H131087   5.937   3.938   1.175
 3176TIP3    H231088   5.975   3.981   1.035
 3177TIP3   OH231089   5.003   2.398   8.408
 3177TIP3    H131090   5.094   2.400   8.376
 3177TIP3    H231091   5.011   2.378   8.501
 3178TIP3   OH231092   2.848   5.314   0.425
 3178TIP3    H131093   2.840   5.292   0.518
 3178TIP3    H231094   2.822   5.235   0.379
 3179TIP3   OH231095   5.364   6.389   0.725
 3179TIP3    H131096   5.290   6.428   0.771
 3179TIP3    H231097   5.435   6.452   0.736
 3180TIP3   OH231098   1.092   2.554   1.398
 3180TIP3    H131099   1.152   2.568   1.471
 3180TIP3    H231100   1.096   2.459   1.382
 3181TIP3   OH231101   3.605   4.380   8.468
 3181TIP3    H131102   3.679   4.437   8.491
 3181TIP3    H231103   3.545   4.438   8.421
 3182TIP3   OH231104   6.582   2.951   8.074
 3182TIP3    H131105   6.637   2.873   8.071
 3182TIP3    H231106   6.593   2.983   8.164
 3183TIP3   OH231107   4.045   4.686   0.795
 3183TIP3    H131108   3.984   4.636   0.849
 3183TIP3    H231109   4.018   4.670   0.705
 3184TIP3   OH231110   5.167   1.918   0.235
 3184TIP3    H131111   5.236   1.859   0.265
 3184TIP3    H231112   5.200   2.005   0.255
 3185TIP3   OH231113   6.088   0.806   8.827
 3185TIP3    H131114   6.129   0.730   8.785
 3185TIP3    H231115   6.048   0.771   8.906
 3186TIP3   OH231116   2.495   4.778   7.182
 3186TIP3    H131117   2.427   4.842   7.200
 3186TIP3    H231118   2.448   4.697   7.162
 3187TIP3   OH231119   3.588   5.927   7.151
 3187TIP3    H131120   3.683   5.934   7.149
 3187TIP3    H231121   3.569   5.841   7.115
 3188TIP3   OH231122   4.691   4.637   0.453
 3188TIP3    H131123   4.762   4.699   0.436
 3188TIP3    H231124   4.651   4.622   0.368
 3189TIP3   OH231125   2.629   6.076   0.772
 3189TIP3    H131126   2.564   6.136   0.737
 3189TIP3    H231127   2.642   6.011   0.703
 3190TIP3   OH231128   4.669   3.739   8.202
 3190TIP3    H131129   4.763   3.732   8.216
 3190TIP3    H231130   4.657   3.727   8.108
 3191TIP3   OH231131   1.201   3.841   1.732
 3191TIP3    H131132   1.115   3.879   1.749
 3191TIP3    H231133   1.233   3.815   1.818
 3192TIP3   OH231134   2.904   5.908   0.525
 3192TIP3    H131135   2.850   5.941   0.453
 3192TIP3    H231136   2.850   5.840   0.566
 3193TIP3   OH231137   2.735   3.809   6.322
 3193TIP3    H131138   2.741   3.714   6.318
 3193TIP3    H231139   2.809   3.836   6.376
 3194TIP3   OH231140   4.492   0.396   7.267
 3194TIP3    H131141   4.408   0.438   7.287
 3194TIP3    H231142   4.482   0.363   7.178
 3195TIP3   OH231143   5.635   2.864   1.710
 3195TIP3    H131144   5.717   2.913   1.706
 3195TIP3    H231145   5.654   2.790   1.768
 3196TIP3   OH231146   1.527   1.811   7.244
 3196TIP3    H131147   1.493   1.797   7.155
 3196TIP3    H231148   1.468   1.877   7.281
 3197TIP3   OH231149   2.870   1.590   0.370
 3197TIP3    H131150   2.899   1.501   0.348
 3197TIP3    H231151   2.907   1.607   0.456
 3198TIP3   OH231152   0.498   1.566   6.768
 3198TIP3    H131153   0.448   1.522   6.699
 3198TIP3    H231154   0.555   1.498   6.804
 3199TIP3   OH231155   4.957   4.402   0.413
 3199TIP3    H131156   4.964   4.497   0.423
 3199TIP3    H231157   4.966   4.368   0.502
 3200TIP3   OH231158   2.445   4.398   8.347
 3200TIP3    H131159   2.520   4.413   8.290
 3200TIP3    H231160   2.477   4.420   8.434
 3201TIP3   OH231161   4.161   4.942   7.841
 3201TIP3    H131162   4.188   4.874   7.902
 3201TIP3    H231163   4.079   4.910   7.804
 3202TIP3   OH231164   2.264   3.784   8.783
 3202TIP3    H131165   2.232   3.868   8.817
 3202TIP3    H231166   2.187   3.744   8.742
 3203TIP3   OH231167   2.346   5.001   7.238
 3203TIP3    H131168   2.292   5.032   7.165
 3203TIP3    H231169   2.332   5.066   7.307
 3204TIP3   OH231170   0.210   6.166   6.211
 3204TIP3    H131171   0.170   6.080   6.199
 3204TIP3    H231172   0.143   6.228   6.182
 3205TIP3   OH231173   3.246   5.741   7.598
 3205TIP3    H131174   3.256   5.649   7.623
 3205TIP3    H231175   3.334   5.778   7.605
 3206TIP3   OH231176   5.304   2.694   1.083
 3206TIP3    H131177   5.217   2.710   1.046
 3206TIP3    H231178   5.286   2.645   1.164
 3207TIP3   OH231179   5.552   2.906   1.034
 3207TIP3    H131180   5.576   2.846   0.963
 3207TIP3    H231181   5.470   2.945   1.005
 3208TIP3   OH231182   6.039   3.042   1.639
 3208TIP3    H131183   5.958   3.050   1.689
 3208TIP3    H231184   6.079   3.129   1.645
 3209TIP3   OH231185   1.669   0.242   6.056
 3209TIP3    H131186   1.710   0.182   5.994
 3209TIP3    H231187   1.624   0.306   6.001
 3210TIP3   OH231188   0.866   4.075   7.342
 3210TIP3    H131189   0.811   4.046   7.416
 3210TIP3    H231190   0.847   4.168   7.333
 3211TIP3   OH231191   1.591   2.300   7.415
 3211TIP3    H131192   1.678   2.302   7.375
 3211TIP3    H231193   1.531   2.282   7.343
 3212TIP3   OH231194   2.520   2.016   0.660
 3212TIP3    H131195   2.426   2.033   0.670
 3212TIP3    H231196   2.524   1.933   0.613
 3213TIP3   OH231197   5.113   3.438   2.444
 3213TIP3    H131198   5.159   3.355   2.458
 3213TIP3    H231199   5.053   3.419   2.372
 3214TIP3   OH231200   6.537   3.968   6.417
 3214TIP3    H131201   6.530   4.053   6.461
 3214TIP3    H231202   6.523   3.988   6.325
 3215TIP3   OH231203   0.597   2.555   8.498
 3215TIP3    H131204   0.608   2.597   8.583
 3215TIP3    H231205   0.611   2.625   8.435
 3216TIP3   OH231206   2.840   4.353   0.662
 3216TIP3    H131207   2.915   4.312   0.618
 3216TIP3    H231208   2.768   4.290   0.649
 3217TIP3   OH231209   3.964   3.228   8.388
 3217TIP3    H131210   3.886   3.258   8.434
 3217TIP3    H231211   3.982   3.141   8.424
 3218TIP3   OH231212   1.167   0.459   0.503
 3218TIP3    H131213   1.188   0.542   0.547
 3218TIP3    H231214   1.143   0.485   0.414
 3219TIP3   OH231215   2.109   3.406   8.192
 3219TIP3    H131216   2.080   3.319   8.219
 3219TIP3    H231217   2.204   3.399   8.186
 3220TIP3   OH231218   4.055   3.767   6.747
 3220TIP3    H131219   3.973   3.787   6.702
 3220TIP3    H231220   4.089   3.690   6.702
 3221TIP3   OH231221   1.578   3.198   0.377
 3221TIP3    H131222   1.627   3.174   0.455
 3221TIP3    H231223   1.533   3.279   0.400
 3222TIP3   OH231224   4.578   0.926   8.344
 3222TIP3    H131225   4.517   0.932   8.417
 3222TIP3    H231226   4.653   0.979   8.370
 3223TIP3   OH231227   3.568   4.681   1.208
 3223TIP3    H131228   3.535   4.700   1.120
 3223TIP3    H231229   3.540   4.592   1.226
 3224TIP3   OH231230   0.161   4.318   6.905
 3224TIP3    H131231   0.196   4.407   6.906
 3224TIP3    H231232   0.152   4.294   6.997
 3225TIP3   OH231233   1.797   6.207   8.665
 3225TIP3    H131234   1.786   6.218   8.760
 3225TIP3    H231235   1.708   6.199   8.632
 3226TIP3   OH231236   3.687   0.600   8.226
 3226TIP3    H131237   3.673   0.693   8.239
 3226TIP3    H231238   3.696   0.589   8.131
 3227TIP3   OH231239   0.712   1.117   0.837
 3227TIP3    H131240   0.662   1.036   0.826
 3227TIP3    H231241   0.697   1.144   0.927
 3228TIP3   OH231242   1.858   5.008   1.720
 3228TIP3    H131243   1.812   5.085   1.686
 3228TIP3    H231244   1.790   4.940   1.724
 3229TIP3   OH231245   2.964   4.764   1.396
 3229TIP3    H131246   2.989   4.807   1.314
 3229TIP3    H231247   3.048   4.743   1.438
 3230TIP3   OH231248   1.874   2.126   2.426
 3230TIP3    H131249   1.879   2.219   2.407
 3230TIP3    H231250   1.848   2.086   2.343
 3231TIP3   OH231251   2.782   2.710   1.772
 3231TIP3    H131252   2.801   2.645   1.704
 3231TIP3    H231253   2.836   2.786   1.748
 3232TIP3   OH231254   6.423   1.643   6.166
 3232TIP3    H131255   6.454   1.558   6.134
 3232TIP3    H231256   6.341   1.658   6.119
 3233TIP3   OH231257   0.539   2.841   8.030
 3233TIP3    H131258   0.541   2.899   7.954
 3233TIP3    H231259   0.491   2.763   8.000
 3234TIP3   OH231260   1.391   4.415   8.666
 3234TIP3    H131261   1.415   4.326   8.691
 3234TIP3    H231262   1.320   4.405   8.603
 3235TIP3   OH231263   5.342   4.326   2.078
 3235TIP3    H131264   5.418   4.309   2.134
 3235TIP3    H231265   5.266   4.314   2.136
 3236TIP3   OH231266   4.453   2.282   8.398
 3236TIP3    H131267   4.497   2.356   8.358
 3236TIP3    H231268   4.451   2.215   8.329
 3237TIP3   OH231269   6.200   5.263   8.717
 3237TIP3    H131270   6.201   5.241   8.624
 3237TIP3    H231271   6.111   5.292   8.735
 3238TIP3   OH231272   5.158   2.110   1.784
 3238TIP3    H131273   5.245   2.123   1.822
 3238TIP3    H231274   5.176   2.079   1.695
 3239TIP3   OH231275   1.504   0.261   6.273
 3239TIP3    H131276   1.571   0.225   6.214
 3239TIP3    H231277   1.454   0.321   6.218
 3240TIP3   OH231278   0.656   4.284   0.579
 3240TIP3    H131279   0.619   4.369   0.603
 3240TIP3    H231280   0.590   4.220   0.607
 3241TIP3   OH231281   2.445   0.552   7.072
 3241TIP3    H131282   2.534   0.554   7.037
 3241TIP3    H231283   2.391   0.589   7.002
 3242TIP3   OH231284   5.302   3.115   1.177
 3242TIP3    H131285   5.235   3.059   1.217
 3242TIP3    H231286   5.303   3.090   1.085
 3243TIP3   OH231287   6.634   6.222   1.792
 3243TIP3    H131288   6.566   6.156   1.776
 3243TIP3    H231289   6.673   6.196   1.875
 3244TIP3   OH231290   3.344   2.865   2.252
 3244TIP3    H131291   3.262   2.838   2.295
 3244TIP3    H231292   3.391   2.913   2.320
 3245TIP3   OH231293   0.899   4.786   2.186
 3245TIP3    H131294   0.930   4.867   2.144
 3245TIP3    H231295   0.805   4.783   2.164
 3246TIP3   OH231296   0.771   4.838   7.278
 3246TIP3    H131297   0.768   4.788   7.196
 3246TIP3    H231298   0.857   4.880   7.277
 3247TIP3   OH231299   0.615   1.456   1.067
 3247TIP3    H131300   0.618   1.360   1.068
 3247TIP3    H231301   0.691   1.481   1.014
 3248TIP3   OH231302   5.730   1.288   1.569
 3248TIP3    H131303   5.799   1.257   1.511
 3248TIP3    H231304   5.739   1.235   1.648
 3249TIP3   OH231305   1.981   3.096   8.644
 3249TIP3    H131306   1.952   3.004   8.642
 3249TIP3    H231307   2.067   3.095   8.603
 3250TIP3   OH231308   4.661   2.492   8.583
 3250TIP3    H131309   4.584   2.514   8.531
 3250TIP3    H231310   4.722   2.450   8.522
 3251TIP3   OH231311   6.019   6.129   8.771
 3251TIP3    H131312   6.036   6.069   8.699
 3251TIP3    H231313   6.077   6.203   8.754
 3252TIP3   OH231314   2.192   2.747   8.484
 3252TIP3    H131315   2.169   2.774   8.395
 3252TIP3    H231316   2.273   2.794   8.504
 3253TIP3   OH231317   0.826   3.116   0.621
 3253TIP3    H131318   0.915   3.151   0.610
 3253TIP3    H231319   0.790   3.113   0.532
 3254TIP3   OH231320   0.765   2.539   7.002
 3254TIP3    H131321   0.731   2.543   6.912
 3254TIP3    H231322   0.831   2.608   7.006
 3255TIP3   OH231323   2.045   1.536   0.561
 3255TIP3    H131324   2.098   1.517   0.484
 3255TIP3    H231325   2.036   1.631   0.562
 3256TIP3   OH231326   0.848   3.696   0.357
 3256TIP3    H131327   0.810   3.779   0.330
 3256TIP3    H231328   0.902   3.718   0.433
 3257TIP3   OH231329   4.886   4.648   1.900
 3257TIP3    H131330   4.913   4.572   1.952
 3257TIP3    H231331   4.793   4.633   1.884
 3258TIP3   OH231332   6.748   2.711   7.972
 3258TIP3    H131333   0.042   2.708   8.036
 3258TIP3    H231334   0.009   2.756   7.897
 3259TIP3   OH231335   2.701   5.750   2.792
 3259TIP3    H131336   2.632   5.725   2.854
 3259TIP3    H231337   2.779   5.702   2.822
 3260TIP3   OH231338   4.879   4.913   1.846
 3260TIP3    H131339   4.964   4.939   1.880
 3260TIP3    H231340   4.877   4.818   1.858
 3261TIP3   OH231341   5.238   3.763   6.926
 3261TIP3    H131342   5.208   3.727   6.842
 3261TIP3    H231343   5.220   3.693   6.990
 3262TIP3   OH231344   2.679   2.990   8.625
 3262TIP3    H131345   2.683   2.955   8.714
 3262TIP3    H231346   2.765   3.030   8.611
 3263TIP3   OH231347   6.683   1.715   1.572
 3263TIP3    H131348   6.761   1.770   1.563
 3263TIP3    H231349   6.716   1.631   1.604
 3264TIP3   OH231350   2.931   0.027   0.650
 3264TIP3    H131351   2.872   0.036   0.725
 3264TIP3    H231352   2.996   0.096   0.663
 3265TIP3   OH231353   3.873   1.447   0.307
 3265TIP3    H131354   3.874   1.480   0.217
 3265TIP3    H231355   3.958   1.405   0.318
 3266TIP3   OH231356   2.505   0.047   0.571
 3266TIP3    H131357   2.459   0.043   0.655
 3266TIP3    H231358   2.435   0.048   0.505
 3267TIP3   OH231359   5.060   0.388   8.559
 3267TIP3    H131360   5.033   0.477   8.536
 3267TIP3    H231361   4.986   0.353   8.608
 3268TIP3   OH231362   2.666   0.963   7.689
 3268TIP3    H131363   2.633   0.961   7.599
 3268TIP3    H231364   2.727   0.889   7.695
 3269TIP3   OH231365   5.319   6.068   7.692
 3269TIP3    H131366   5.389   6.113   7.739
 3269TIP3    H231367   5.276   6.013   7.758
 3270TIP3   OH231368   3.442   3.174   1.084
 3270TIP3    H131369   3.417   3.225   1.007
 3270TIP3    H231370   3.521   3.218   1.117
 3271TIP3   OH231371   2.486   1.117   1.505
 3271TIP3    H131372   2.546   1.065   1.451
 3271TIP3    H231373   2.461   1.191   1.449
 3272TIP3   OH231374   5.295   5.933   1.749
 3272TIP3    H131375   5.217   5.888   1.780
 3272TIP3    H231376   5.368   5.878   1.777
 3273TIP3   OH231377   5.353   0.750   2.080
 3273TIP3    H131378   5.259   0.755   2.062
 3273TIP3    H231379   5.366   0.664   2.118
 3274TIP3   OH231380   0.196   6.065   6.976
 3274TIP3    H131381   0.152   6.140   7.015
 3274TIP3    H231382   0.232   6.098   6.893
 3275TIP3   OH231383   5.045   3.157   8.297
 3275TIP3    H131384   4.964   3.117   8.327
 3275TIP3    H231385   5.098   3.165   8.377
 3276TIP3   OH231386   5.547   5.809   7.619
 3276TIP3    H131387   5.602   5.869   7.670
 3276TIP3    H231388   5.524   5.740   7.681
 3277TIP3   OH231389   3.329   0.741   7.867
 3277TIP3    H131390   3.384   0.817   7.848
 3277TIP3    H231391   3.371   0.699   7.942
 3278TIP3   OH231392   2.545   1.794   0.077
 3278TIP3    H131393   2.467   1.816   0.026
 3278TIP3    H231394   2.510   1.757   0.158
 3279TIP3   OH231395   6.488   5.643   2.059
 3279TIP3    H131396   6.466   5.667   2.149
 3279TIP3    H231397   6.404   5.645   2.012
 3280TIP3   OH231398   4.107   4.196   7.101
 3280TIP3    H131399   4.165   4.234   7.036
 3280TIP3    H231400   4.070   4.119   7.059
 3281TIP3   OH231401   0.007   2.258   2.217
 3281TIP3    H131402   6.748   2.183   2.265
 3281TIP3    H231403   0.096   2.231   2.193
 3282TIP3   OH231404   1.019   6.565   0.239
 3282TIP3    H131405   1.022   6.472   0.257
 3282TIP3    H231406   0.937   6.578   0.191
 3283TIP3   OH231407   0.791   6.605   0.088
 3283TIP3    H131408   0.842   6.556   0.023
 3283TIP3    H231409   0.737   6.664   0.036
 3284TIP3   OH231410   0.696   4.819   7.894
 3284TIP3    H131411   0.675   4.810   7.801
 3284TIP3    H231412   0.650   4.746   7.936
 3285TIP3   OH231413   5.884   3.980   0.062
 3285TIP3    H131414   5.945   4.047   0.030
 3285TIP3    H231415   5.834   4.024   0.131
 3286TIP3   OH231416   6.452   1.647   1.918
 3286TIP3    H131417   6.396   1.724   1.912
 3286TIP3    H231418   6.419   1.599   1.994
 3287TIP3   OH231419   0.430   0.354   8.391
 3287TIP3    H131420   0.371   0.348   8.315
 3287TIP3    H231421   0.373   0.377   8.464
 3288TIP3   OH231422   4.006   1.448   2.328
 3288TIP3    H131423   3.934   1.511   2.319
 3288TIP3    H231424   3.974   1.383   2.391
 3289TIP3   OH231425   4.098   5.468   1.262
 3289TIP3    H131426   4.182   5.488   1.221
 3289TIP3    H231427   4.120   5.414   1.337
 3290TIP3   OH231428   3.129   0.968   8.662
 3290TIP3    H131429   3.153   1.037   8.724
 3290TIP3    H231430   3.146   1.005   8.576
 3291TIP3   OH231431   5.537   3.904   1.419
 3291TIP3    H131432   5.489   3.826   1.394
 3291TIP3    H231433   5.502   3.928   1.505
 3292TIP3   OH231434   0.829   6.062   7.505
 3292TIP3    H131435   0.785   5.980   7.528
 3292TIP3    H231436   0.866   6.093   7.588
 3293TIP3   OH231437   1.626   2.726   8.447
 3293TIP3    H131438   1.674   2.807   8.466
 3293TIP3    H231439   1.624   2.680   8.531
 3294TIP3   OH231440   5.675   1.934   8.769
 3294TIP3    H131441   5.583   1.937   8.792
 3294TIP3    H231442   5.702   1.844   8.789
 3295TIP3   OH231443   4.474   5.176   0.966
 3295TIP3    H131444   4.493   5.263   1.000
 3295TIP3    H231445   4.556   5.127   0.977
 3296TIP3   OH231446   3.851   0.308   1.976
 3296TIP3    H131447   3.842   0.337   2.067
 3296TIP3    H231448   3.861   0.390   1.926
 3297TIP3   OH231449   2.163   3.936   8.525
 3297TIP3    H131450   2.133   4.017   8.566
 3297TIP3    H231451   2.148   3.949   8.431
 3298TIP3   OH231452   1.208   3.007   8.636
 3298TIP3    H131453   1.128   3.058   8.643
 3298TIP3    H231454   1.217   2.987   8.543
 3299TIP3   OH231455   2.527   1.395   7.991
 3299TIP3    H131456   2.468   1.469   7.974
 3299TIP3    H231457   2.519   1.340   7.913
 3300TIP3   OH231458   4.580   1.453   1.837
 3300TIP3    H131459   4.567   1.545   1.814
 3300TIP3    H231460   4.597   1.455   1.931
 3301TIP3   OH231461   6.424   6.500   1.151
 3301TIP3    H131462   6.454   6.576   1.101
 3301TIP3    H231463   6.495   6.482   1.213
 3302TIP3   OH231464   4.580   2.952   2.046
 3302TIP3    H131465   4.658   2.956   2.102
 3302TIP3    H231466   4.509   2.927   2.106
 3303TIP3   OH231467   3.109   1.771   8.374
 3303TIP3    H131468   3.141   1.693   8.421
 3303TIP3    H231469   3.110   1.840   8.440
 3304TIP3   OH231470   3.484   4.742   0.777
 3304TIP3    H131471   3.534   4.714   0.700
 3304TIP3    H231472   3.475   4.663   0.830
 3305TIP3   OH231473   2.838   0.690   7.734
 3305TIP3    H131474   2.796   0.676   7.819
 3305TIP3    H231475   2.918   0.638   7.738
 3306TIP3   OH231476   4.723   5.644   2.103
 3306TIP3    H131477   4.649   5.588   2.128
 3306TIP3    H231478   4.774   5.654   2.184
 3307TIP3   OH231479   3.350   3.786   6.537
 3307TIP3    H131480   3.444   3.784   6.524
 3307TIP3    H231481   3.335   3.858   6.599
 3308TIP3   OH231482   4.581   5.147   2.231
 3308TIP3    H131483   4.600   5.090   2.157
 3308TIP3    H231484   4.649   5.127   2.295
 3309TIP3   OH231485   5.698   4.836   7.750
 3309TIP3    H131486   5.706   4.921   7.793
 3309TIP3    H231487   5.607   4.832   7.721
 3310TIP3   OH231488   5.794   4.645   7.353
 3310TIP3    H131489   5.851   4.629   7.428
 3310TIP3    H231490   5.831   4.592   7.282
 3311TIP3   OH231491   1.079   0.390   8.135
 3311TIP3    H131492   1.111   0.300   8.144
 3311TIP3    H231493   1.134   0.441   8.194
 3312TIP3   OH231494   6.658   3.680   7.959
 3312TIP3    H131495   6.739   3.694   7.910
 3312TIP3    H231496   6.637   3.588   7.943
 3313TIP3   OH231497   6.719   2.740   0.585
 3313TIP3    H131498   6.767   2.735   0.668
 3313TIP3    H231499   6.632   2.705   0.605
 3314TIP3   OH231500   3.369   2.399   8.181
 3314TIP3    H131501   3.394   2.397   8.089
 3314TIP3    H231502   3.398   2.484   8.213
 3315TIP3   OH231503   4.235   2.485   2.183
 3315TIP3    H131504   4.148   2.467   2.218
 3315TIP3    H231505   4.274   2.545   2.246
 3316TIP3   OH231506   4.336   1.685   2.661
 3316TIP3    H131507   4.278   1.624   2.615
 3316TIP3    H231508   4.279   1.730   2.723
 3317TIP3   OH231509   0.095   0.254   8.909
 3317TIP3    H131510   0.049   0.297   8.837
 3317TIP3    H231511   0.144   0.325   0.038
 3318TIP3   OH231512   3.405   3.416   2.047
 3318TIP3    H131513   3.500   3.422   2.043
 3318TIP3    H231514   3.381   3.360   1.973
 3319TIP3   OH231515   5.054   3.701   1.805
 3319TIP3    H131516   5.024   3.632   1.864
 3319TIP3    H231517   5.106   3.759   1.861
 3320TIP3   OH231518   3.064   4.940   0.657
 3320TIP3    H131519   3.080   5.014   0.715
 3320TIP3    H231520   2.987   4.965   0.607
 3321TIP3   OH231521   1.094   0.814   7.405
 3321TIP3    H131522   1.067   0.818   7.313
 3321TIP3    H231523   1.185   0.785   7.402
 3322TIP3   OH231524   2.815   2.995   1.661
 3322TIP3    H131525   2.797   2.992   1.567
 3322TIP3    H231526   2.730   3.009   1.702
 3323TIP3   OH231527   2.658   1.299   0.099
 3323TIP3    H131528   2.744   1.302   0.056
 3323TIP3    H231529   2.600   1.260   0.034
 3324TIP3   OH231530   5.981   3.894   7.237
 3324TIP3    H131531   5.947   3.870   7.151
 3324TIP3    H231532   5.999   3.987   7.232
 3325TIP3   OH231533   2.472   4.717   1.090
 3325TIP3    H131534   2.530   4.661   1.141
 3325TIP3    H231535   2.482   4.685   1.000
 3326TIP3   OH231536   0.781   0.145   6.242
 3326TIP3    H131537   0.706   0.101   6.281
 3326TIP3    H231538   0.743   0.217   6.191
 3327TIP3   OH231539   5.548   6.769   1.302
 3327TIP3    H131540   5.456   6.775   1.327
 3327TIP3    H231541   5.563   0.069   1.246
 3328TIP3   OH231542   1.825   5.637   7.608
 3328TIP3    H131543   1.754   5.582   7.575
 3328TIP3    H231544   1.879   5.577   7.659
 3329TIP3   OH231545   6.320   5.594   7.927
 3329TIP3    H131546   6.353   5.666   7.981
 3329TIP3    H231547   6.351   5.614   7.839
 3330TIP3   OH231548   1.515   0.202   0.928
 3330TIP3    H131549   1.490   0.188   0.837
 3330TIP3    H231550   1.599   0.247   0.923
 3331TIP3   OH231551   3.241   0.608   0.790
 3331TIP3    H131552   3.159   0.606   0.740
 3331TIP3    H231553   3.220   0.565   0.873
 3332TIP3   OH231554   6.562   6.542   2.097
 3332TIP3    H131555   6.657   6.554   2.106
 3332TIP3    H231556   6.527   6.631   2.096
 3333TIP3   OH231557   0.510   0.277   7.581
 3333TIP3    H131558   0.544   0.363   7.606
 3333TIP3    H231559   0.550   0.260   7.495
 3334TIP3   OH231560   3.085   1.287   0.967
 3334TIP3    H131561   3.180   1.284   0.973
 3334TIP3    H231562   3.054   1.248   1.049
 3335TIP3   OH231563   1.546   1.501   0.483
 3335TIP3    H131564   1.452   1.498   0.464
 3335TIP3    H231565   1.587   1.516   0.397
 3336TIP3   OH231566   6.522   0.405   8.316
 3336TIP3    H131567   6.483   0.451   8.243
 3336TIP3    H231568   6.608   0.446   8.328
 3337TIP3   OH231569   4.503   0.783   8.111
 3337TIP3    H131570   4.522   0.846   8.181
 3337TIP3    H231571   4.466   0.707   8.155
 3338TIP3   OH231572   0.123   3.904   0.438
 3338TIP3    H131573   0.085   3.822   0.467
 3338TIP3    H231574   0.058   3.941   0.378
 3339TIP3   OH231575   5.550   2.606   8.096
 3339TIP3    H131576   5.620   2.548   8.126
 3339TIP3    H231577   5.514   2.644   8.177
 3340TIP3   OH231578   5.603   3.391   1.530
 3340TIP3    H131579   5.580   3.299   1.523
 3340TIP3    H231580   5.624   3.404   1.622
 3341TIP3   OH231581   5.482   0.100   0.464
 3341TIP3    H131582   5.500   0.099   0.558
 3341TIP3    H231583   5.543   0.165   0.429
 3342TIP3   OH231584   6.229   1.564   0.907
 3342TIP3    H131585   6.148   1.514   0.919
 3342TIP3    H231586   6.240   1.568   0.812
 3343TIP3   OH231587   3.645   1.118   2.065
 3343TIP3    H131588   3.725   1.170   2.059
 3343TIP3    H231589   3.674   1.033   2.100
 3344TIP3   OH231590   0.134   2.741   8.397
 3344TIP3    H131591   0.157   2.767   8.308
 3344TIP3    H231592   0.177   2.805   8.453
 3345TIP3   OH231593   3.716   0.580   0.701
 3345TIP3    H131594   3.686   0.536   0.781
 3345TIP3    H231595   3.675   0.667   0.705
 3346TIP3   OH231596   1.636   1.651   7.466
 3346TIP3    H131597   1.712   1.623   7.414
 3346TIP3    H231598   1.587   1.709   7.407
 3347TIP3   OH231599   5.542   0.118   0.756
 3347TIP3    H131600   5.547   0.213   0.742
 3347TIP3    H231601   5.467   0.107   0.815
 3348TIP3   OH231602   6.515   0.354   2.323
 3348TIP3    H131603   6.454   0.282   2.336
 3348TIP3    H231604   6.543   0.346   2.232
 3349TIP3   OH231605   0.647   6.310   7.105
 3349TIP3    H131606   0.587   6.378   7.136
 3349TIP3    H231607   0.685   6.273   7.185
 3350TIP3   OH231608   3.414   2.105   1.290
 3350TIP3    H131609   3.390   2.041   1.223
 3350TIP3    H231610   3.361   2.182   1.268
 3351TIP3   OH231611   4.204   3.636   7.552
 3351TIP3    H131612   4.186   3.542   7.559
 3351TIP3    H231613   4.299   3.643   7.555
 3352TIP3   OH231614   6.055   6.657   8.330
 3352TIP3    H131615   6.051   6.561   8.325
 3352TIP3    H231616   6.127   6.681   8.271
 3353TIP3   OH231617   3.052   0.075   1.591
 3353TIP3    H131618   2.971   0.038   1.626
 3353TIP3    H231619   3.048   0.168   1.612
 3354TIP3   OH231620   6.331   3.079   8.180
 3354TIP3    H131621   6.327   2.985   8.200
 3354TIP3    H231622   6.330   3.084   8.085
 3355TIP3   OH231623   2.609   1.876   7.957
 3355TIP3    H131624   2.598   1.837   7.870
 3355TIP3    H231625   2.571   1.963   7.950
 3356TIP3   OH231626   5.113   5.756   8.743
 3356TIP3    H131627   5.018   5.748   8.748
 3356TIP3    H231628   5.130   5.846   8.771
 3357TIP3   OH231629   2.223   5.741   1.871
 3357TIP3    H131630   2.296   5.742   1.932
 3357TIP3    H231631   2.259   5.773   1.788
 3358TIP3   OH231632   0.238   1.035   8.258
 3358TIP3    H131633   0.209   0.996   8.175
 3358TIP3    H231634   0.194   1.119   8.262
 3359TIP3   OH231635   5.595   3.132   1.525
 3359TIP3    H131636   5.564   3.149   1.614
 3359TIP3    H231637   5.577   3.039   1.510
 3360TIP3   OH231638   4.542   3.178   1.714
 3360TIP3    H131639   4.465   3.168   1.769
 3360TIP3    H231640   4.613   3.137   1.764
 3361TIP3   OH231641   0.977   0.680   0.033
 3361TIP3    H131642   1.008   0.762   8.909
 3361TIP3    H231643   0.891   0.701   0.070
 3362TIP3   OH231644   5.565   5.441   0.730
 3362TIP3    H131645   5.556   5.451   0.635
 3362TIP3    H231646   5.652   5.403   0.742
 3363TIP3   OH231647   6.295   0.404   8.650
 3363TIP3    H131648   6.219   0.345   8.655
 3363TIP3    H231649   6.257   0.492   8.644
 3364TIP3   OH231650   5.912   4.610   2.232
 3364TIP3    H131651   5.958   4.650   2.158
 3364TIP3    H231652   5.819   4.629   2.214
 3365TIP3   OH231653   0.366   3.233   0.692
 3365TIP3    H131654   0.376   3.268   0.604
 3365TIP3    H231655   0.427   3.284   0.745
 3366TIP3   OH231656   6.590   1.331   0.724
 3366TIP3    H131657   6.560   1.376   0.645
 3366TIP3    H231658   6.644   1.259   0.691
 3367TIP3   OH231659   2.025   3.518   1.679
 3367TIP3    H131660   2.036   3.497   1.772
 3367TIP3    H231661   1.954   3.461   1.649
 3368TIP3   OH231662   1.448   1.807   0.949
 3368TIP3    H131663   1.413   1.832   1.035
 3368TIP3    H231664   1.372   1.811   0.891
 3369TIP3   OH231665   0.677   5.544   1.496
 3369TIP3    H131666   0.705   5.456   1.471
 3369TIP3    H231667   0.739   5.602   1.454
 3370TIP3   OH231668   0.042   4.979   8.249
 3370TIP3    H131669   0.036   4.968   8.343
 3370TIP3    H231670   6.742   5.032   8.225
 3371TIP3   OH231671   0.208   0.456   0.167
 3371TIP3    H131672   0.219   0.453   0.262
 3371TIP3    H231673   0.295   0.437   0.132
 3372TIP3   OH231674   3.477   3.941   0.305
 3372TIP3    H131675   3.526   3.969   0.382
 3372TIP3    H231676   3.429   3.863   0.335
 3373TIP3   OH231677   3.596   6.026   8.434
 3373TIP3    H131678   3.504   6.002   8.418
 3373TIP3    H231679   3.590   6.099   8.496
 3374TIP3   OH231680   5.243   5.921   7.463
 3374TIP3    H131681   5.308   5.850   7.458
 3374TIP3    H231682   5.273   5.975   7.536
 3375TIP3   OH231683   1.301   2.859   7.135
 3375TIP3    H131684   1.273   2.785   7.082
 3375TIP3    H231685   1.227   2.920   7.133
 3376TIP3   OH231686   4.499   5.325   2.450
 3376TIP3    H131687   4.546   5.407   2.433
 3376TIP3    H231688   4.502   5.277   2.367
 3377TIP3   OH231689   4.514   1.689   1.009
 3377TIP3    H131690   4.451   1.631   1.050
 3377TIP3    H231691   4.585   1.631   0.980
 3378TIP3   OH231692   3.371   0.074   0.452
 3378TIP3    H131693   3.419   0.066   0.370
 3378TIP3    H231694   3.333   0.162   0.450
 3379TIP3   OH231695   1.117   2.865   1.503
 3379TIP3    H131696   1.154   2.950   1.527
 3379TIP3    H231697   1.184   2.802   1.529
 3380TIP3   OH231698   1.628   4.188   7.774
 3380TIP3    H131699   1.628   4.279   7.745
 3380TIP3    H231700   1.720   4.168   7.789
 3381TIP3   OH231701   1.946   0.701   1.273
 3381TIP3    H131702   1.871   0.745   1.232
 3381TIP3    H231703   1.922   0.695   1.366
 3382TIP3   OH231704   4.409   1.177   7.365
 3382TIP3    H131705   4.481   1.236   7.387
 3382TIP3    H231706   4.330   1.226   7.387
 3383TIP3   OH231707   6.488   1.935   0.544
 3383TIP3    H131708   6.483   1.982   0.460
 3383TIP3    H231709   6.568   1.969   0.585
 3384TIP3   OH231710   3.058   4.778   2.154
 3384TIP3    H131711   3.124   4.713   2.176
 3384TIP3    H231712   2.975   4.734   2.170
 3385TIP3   OH231713   5.299   6.099   0.536
 3385TIP3    H131714   5.315   6.112   0.630
 3385TIP3    H231715   5.379   6.055   0.505
 3386TIP3   OH231716   4.420   0.587   7.807
 3386TIP3    H131717   4.480   0.514   7.788
 3386TIP3    H231718   4.462   0.635   7.878
 3387TIP3   OH231719   0.600   1.568   1.318
 3387TIP3    H131720   0.602   1.534   1.228
 3387TIP3    H231721   0.644   1.501   1.370
 3388TIP3   OH231722   6.362   2.702   7.294
 3388TIP3    H131723   6.405   2.781   7.328
 3388TIP3    H231724   6.426   2.664   7.235
 3389TIP3   OH231725   2.492   4.217   0.857
 3389TIP3    H131726   2.422   4.282   0.864
 3389TIP3    H231727   2.508   4.209   0.763
 3390TIP3   OH231728   2.722   2.021   7.483
 3390TIP3    H131729   2.760   1.989   7.401
 3390TIP3    H231730   2.672   2.099   7.457
 3391TIP3   OH231731   0.445   2.900   2.024
 3391TIP3    H131732   0.351   2.890   2.041
 3391TIP3    H231733   0.452   2.983   1.978
 3392TIP3   OH231734   4.509   6.687   1.866
 3392TIP3    H131735   4.540   6.776   1.847
 3392TIP3    H231736   4.416   6.698   1.889
 3393TIP3   OH231737   1.668   1.113   6.765
 3393TIP3    H131738   1.583   1.076   6.739
 3393TIP3    H231739   1.724   1.036   6.778
 3394TIP3   OH231740   6.301   2.274   1.289
 3394TIP3    H131741   6.337   2.192   1.256
 3394TIP3    H231742   6.344   2.286   1.374
 3395TIP3   OH231743   6.487   0.192   8.788
 3395TIP3    H131744   6.504   0.132   8.716
 3395TIP3    H231745   6.392   0.205   8.786
 3396TIP3   OH231746   0.279   1.055   8.509
 3396TIP3    H131747   0.196   1.087   8.544
 3396TIP3    H231748   0.264   1.049   8.414
 3397TIP3   OH231749   0.011   3.981   7.285
 3397TIP3    H131750   6.736   4.061   7.291
 3397TIP3    H231751   0.079   4.001   7.221
 3398TIP3   OH231752   4.709   4.567   8.673
 3398TIP3    H131753   4.685   4.521   8.754
 3398TIP3    H231754   4.651   4.530   8.607
 3399TIP3   OH231755   2.112   1.007   8.113
 3399TIP3    H131756   2.123   0.912   8.104
 3399TIP3    H231757   2.121   1.024   8.206
 3400TIP3   OH231758   4.814   0.172   7.255
 3400TIP3    H131759   4.773   0.149   7.171
 3400TIP3    H231760   4.742   0.169   7.318
 3401TIP3   OH231761   3.113   0.118   6.581
 3401TIP3    H131762   3.198   0.146   6.547
 3401TIP3    H231763   3.124   0.025   6.601
 3402TIP3   OH231764   1.020   4.144   6.720
 3402TIP3    H131765   1.080   4.085   6.674
 3402TIP3    H231766   1.076   4.212   6.756
 3403TIP3   OH231767   2.176   0.666   2.053
 3403TIP3    H131768   2.083   0.670   2.032
 3403TIP3    H231769   2.195   0.573   2.061
 3404TIP3   OH231770   1.761   4.276   7.185
 3404TIP3    H131771   1.722   4.272   7.098
 3404TIP3    H231772   1.692   4.246   7.244
 3405TIP3   OH231773   1.220   4.317   8.893
 3405TIP3    H131774   1.182   4.382   8.835
 3405TIP3    H231775   1.236   4.241   8.837
 3406TIP3   OH231776   5.301   0.470   7.439
 3406TIP3    H131777   5.322   0.484   7.347
 3406TIP3    H231778   5.254   0.387   7.441
 3407TIP3   OH231779   5.227   2.775   1.415
 3407TIP3    H131780   5.188   2.838   1.476
 3407TIP3    H231781   5.153   2.739   1.367
 3408TIP3   OH231782   0.615   1.859   1.375
 3408TIP3    H131783   0.602   1.767   1.351
 3408TIP3    H231784   0.628   1.858   1.469
 3409TIP3   OH231785   4.934   3.411   2.232
 3409TIP3    H131786   4.903   3.328   2.269
 3409TIP3    H231787   4.857   3.468   2.235
 3410TIP3   OH231788   0.376   5.394   7.218
 3410TIP3    H131789   0.347   5.449   7.291
 3410TIP3    H231790   0.319   5.318   7.221
 3411TIP3   OH231791   4.036   4.536   6.951
 3411TIP3    H131792   4.131   4.528   6.946
 3411TIP3    H231793   4.018   4.625   6.919
 3412TIP3   OH231794   0.137   2.032   8.291
 3412TIP3    H131795   0.163   2.115   8.330
 3412TIP3    H231796   0.186   2.027   8.209
 3413TIP3   OH231797   4.994   4.295   0.677
 3413TIP3    H131798   5.064   4.360   0.678
 3413TIP3    H231799   4.970   4.284   0.769
 3414TIP3   OH231800   3.140   1.531   8.586
 3414TIP3    H131801   3.227   1.495   8.606
 3414TIP3    H231802   3.098   1.539   8.672
 3415TIP3   OH231803   1.326   5.683   0.491
 3415TIP3    H131804   1.360   5.677   0.580
 3415TIP3    H231805   1.403   5.698   0.437
 3416TIP3   OH231806   2.378   4.548   7.084
 3416TIP3    H131807   2.382   4.485   7.156
 3416TIP3    H231808   2.295   4.528   7.041
 3417TIP3   OH231809   5.705   5.012   0.669
 3417TIP3    H131810   5.637   5.075   0.644
 3417TIP3    H231811   5.765   5.063   0.723
 3418TIP3   OH231812   1.892   1.598   7.333
 3418TIP3    H131813   1.957   1.585   7.403
 3418TIP3    H231814   1.939   1.575   7.253
 3419TIP3   OH231815   2.624   4.727   7.742
 3419TIP3    H131816   2.679   4.649   7.752
 3419TIP3    H231817   2.578   4.713   7.660
 3420TIP3   OH231818   6.154   1.611   7.240
 3420TIP3    H131819   6.062   1.589   7.257
 3420TIP3    H231820   6.176   1.675   7.308
 3421TIP3   OH231821   3.768   4.345   6.368
 3421TIP3    H131822   3.844   4.311   6.415
 3421TIP3    H231823   3.714   4.385   6.435
 3422TIP3   OH231824   1.317   4.163   6.715
 3422TIP3    H131825   1.290   4.075   6.744
 3422TIP3    H231826   1.337   4.209   6.796
 3423TIP3   OH231827   4.316   4.406   7.869
 3423TIP3    H131828   4.382   4.346   7.904
 3423TIP3    H231829   4.264   4.353   7.809
 3424TIP3   OH231830   4.183   0.748   8.262
 3424TIP3    H131831   4.192   0.753   8.167
 3424TIP3    H231832   4.235   0.673   8.287
 3425TIP3   OH231833   1.949   0.843   0.914
 3425TIP3    H131834   2.036   0.804   0.925
 3425TIP3    H231835   1.943   0.909   0.983
 3426TIP3   OH231836   3.747   6.762   7.158
 3426TIP3    H131837   3.798   0.031   7.225
 3426TIP3    H231838   3.757   6.669   7.179
 3427TIP3   OH231839   5.792   2.763   0.696
 3427TIP3    H131840   5.863   2.762   0.760
 3427TIP3    H231841   5.833   2.730   0.615
 3428TIP3   OH231842   0.310   1.805   7.522
 3428TIP3    H131843   0.370   1.793   7.448
 3428TIP3    H231844   0.367   1.830   7.595
 3429TIP3   OH231845   6.104   4.999   7.764
 3429TIP3    H131846   6.080   4.981   7.673
 3429TIP3    H231847   6.098   4.913   7.808
 3430TIP3   OH231848   2.938   6.046   0.113
 3430TIP3    H131849   2.948   6.094   0.195
 3430TIP3    H231850   2.908   5.959   0.140
 3431TIP3   OH231851   6.115   3.720   1.644
 3431TIP3    H131852   6.057   3.792   1.617
 3431TIP3    H231853   6.085   3.645   1.592
 3432TIP3   OH231854   4.477   0.975   0.314
 3432TIP3    H131855   4.453   1.024   0.235
 3432TIP3    H231856   4.519   0.896   0.280
 3433TIP3   OH231857   3.891   2.079   0.281
 3433TIP3    H131858   3.947   2.115   0.212
 3433TIP3    H231859   3.803   2.107   0.256
 3434TIP3   OH231860   2.459   4.940   7.627
 3434TIP3    H131861   2.486   4.906   7.713
 3434TIP3    H231862   2.524   4.905   7.566
 3435TIP3   OH231863   2.520   5.674   6.803
 3435TIP3    H131864   2.578   5.604   6.835
 3435TIP3    H231865   2.580   5.740   6.768
 3436TIP3   OH231866   1.064   5.214   8.010
 3436TIP3    H131867   1.032   5.284   8.067
 3436TIP3    H231868   0.987   5.157   7.998
 3437TIP3   OH231869   3.872   1.091   2.437
 3437TIP3    H131870   3.796   1.036   2.419
 3437TIP3    H231871   3.840   1.155   2.501
 3438TIP3   OH231872   2.941   3.298   8.750
 3438TIP3    H131873   2.985   3.370   8.705
 3438TIP3    H231874   2.918   3.334   8.835
 3439TIP3   OH231875   4.366   2.281   2.041
 3439TIP3    H131876   4.419   2.221   2.093
 3439TIP3    H231877   4.321   2.336   2.105
 3440TIP3   OH231878   2.328   3.393   6.719
 3440TIP3    H131879   2.369   3.354   6.796
 3440TIP3    H231880   2.294   3.477   6.750
 3441TIP3   OH231881   1.945   5.052   8.910
 3441TIP3    H131882   1.880   5.036   0.065
 3441TIP3    H231883   1.894   5.087   8.837
 3442TIP3   OH231884   0.763   0.892   8.815
 3442TIP3    H131885   0.845   0.889   8.765
 3442TIP3    H231886   0.695   0.901   8.749
 3443TIP3   OH231887   1.578   5.878   1.326
 3443TIP3    H131888   1.523   5.956   1.328
 3443TIP3    H231889   1.608   5.868   1.417
 3444TIP3   OH231890   6.275   3.564   1.259
 3444TIP3    H131891   6.196   3.512   1.276
 3444TIP3    H231892   6.258   3.649   1.299
 3445TIP3   OH231893   0.268   5.169   1.184
 3445TIP3    H131894   0.231   5.231   1.121
 3445TIP3    H231895   0.255   5.209   1.269
 3446TIP3   OH231896   2.929   4.783   2.534
 3446TIP3    H131897   2.835   4.764   2.539
 3446TIP3    H231898   2.969   4.699   2.512
 3447TIP3   OH231899   0.613   4.404   8.880
 3447TIP3    H131900   0.574   4.423   0.051
 3447TIP3    H231901   0.701   4.442   8.885
 3448TIP3   OH231902   3.832   6.464   2.471
 3448TIP3    H131903   3.771   6.538   2.477
 3448TIP3    H231904   3.814   6.426   2.385
 3449TIP3   OH231905   1.970   2.229   1.217
 3449TIP3    H131906   1.939   2.287   1.147
 3449TIP3    H231907   1.890   2.195   1.257
 3450TIP3   OH231908   6.745   4.118   8.810
 3450TIP3    H131909   6.759   4.106   8.904
 3450TIP3    H231910   6.667   4.065   8.791
 3451TIP3   OH231911   5.316   0.987   6.405
 3451TIP3    H131912   5.372   0.927   6.355
 3451TIP3    H231913   5.328   1.071   6.362
 3452TIP3   OH231914   4.231   4.947   0.442
 3452TIP3    H131915   4.244   5.041   0.436
 3452TIP3    H231916   4.316   4.912   0.469
 3453TIP3   OH231917   3.387   1.479   8.020
 3453TIP3    H131918   3.474   1.484   8.059
 3453TIP3    H231919   3.328   1.513   8.087
 3454TIP3   OH231920   4.273   0.569   6.720
 3454TIP3    H131921   4.195   0.598   6.672
 3454TIP3    H231922   4.246   0.569   6.812
 3455TIP3   OH231923   5.027   0.815   6.751
 3455TIP3    H131924   5.032   0.728   6.791
 3455TIP3    H231925   4.941   0.818   6.710
 3456TIP3   OH231926   6.556   3.702   7.104
 3456TIP3    H131927   6.601   3.635   7.155
 3456TIP3    H231928   6.516   3.759   7.169
 3457TIP3   OH231929   0.303   6.198   8.198
 3457TIP3    H131930   0.318   6.235   8.110
 3457TIP3    H231931   0.374   6.234   8.251
 3458TIP3   OH231932   0.524   4.999   8.112
 3458TIP3    H131933   0.534   5.092   8.131
 3458TIP3    H231934   0.463   4.996   8.038
 3459TIP3   OH231935   0.828   2.568   7.371
 3459TIP3    H131936   0.803   2.502   7.307
 3459TIP3    H231937   0.875   2.634   7.320
 3460TIP3   OH231938   5.890   4.639   7.622
 3460TIP3    H131939   5.836   4.712   7.652
 3460TIP3    H231940   5.876   4.570   7.687
 3461TIP3   OH231941   6.722   6.764   8.907
 3461TIP3    H131942   6.720   0.076   8.870
 3461TIP3    H231943   6.684   6.709   8.839
 3462TIP3   OH231944   0.960   2.731   8.616
 3462TIP3    H131945   0.881   2.694   8.654
 3462TIP3    H231946   1.022   2.737   8.689
 3463TIP3   OH231947   5.993   5.435   7.985
 3463TIP3    H131948   6.087   5.429   7.995
 3463TIP3    H231949   5.969   5.360   7.930
 3464TIP3   OH231950   0.379   3.540   0.627
 3464TIP3    H131951   0.357   3.505   0.714
 3464TIP3    H231952   0.304   3.515   0.572
 3465TIP3   OH231953   5.946   6.520   7.903
 3465TIP3    H131954   5.917   6.457   7.969
 3465TIP3    H231955   6.041   6.527   7.917
 3466TIP3   OH231956   2.568   6.380   0.292
 3466TIP3    H131957   2.620   6.459   0.281
 3466TIP3    H231958   2.480   6.404   0.263
 3467TIP3   OH231959   1.558   3.567   8.393
 3467TIP3    H131960   1.621   3.603   8.330
 3467TIP3    H231961   1.474   3.569   8.348
 3468TIP3   OH231962   6.082   1.750   6.466
 3468TIP3    H131963   6.104   1.661   6.491
 3468TIP3    H231964   6.159   1.802   6.487
 3469TIP3   OH231965   5.948   5.208   0.158
 3469TIP3    H131966   5.891   5.130   0.159
 3469TIP3    H231967   5.921   5.255   0.079
 3470TIP3   OH231968   5.018   1.669   7.484
 3470TIP3    H131969   5.037   1.759   7.458
 3470TIP3    H231970   5.103   1.633   7.507
 3471TIP3   OH231971   2.810   6.382   6.961
 3471TIP3    H131972   2.864   6.398   6.884
 3471TIP3    H231973   2.721   6.406   6.934
 3472TIP3   OH231974   0.625   5.425   6.210
 3472TIP3    H131975   0.640   5.506   6.259
 3472TIP3    H231976   0.533   5.403   6.227
 3473TIP3   OH231977   2.097   5.992   1.962
 3473TIP3    H131978   2.149   5.912   1.969
 3473TIP3    H231979   2.147   6.047   1.902
 3474TIP3   OH231980   4.345   5.972   0.383
 3474TIP3    H131981   4.404   5.903   0.352
 3474TIP3    H231982   4.337   6.032   0.309
 3475TIP3   OH231983   2.520   2.131   7.949
 3475TIP3    H131984   2.573   2.211   7.949
 3475TIP3    H231985   2.437   2.157   7.989
 3476TIP3   OH231986   1.187   0.513   8.747
 3476TIP3    H131987   1.280   0.500   8.729
 3476TIP3    H231988   1.185   0.573   8.821
 3477TIP3   OH231989   4.196   4.687   1.191
 3477TIP3    H131990   4.256   4.612   1.189
 3477TIP3    H231991   4.109   4.647   1.199
 3478TIP3   OH231992   2.172   6.426   0.590
 3478TIP3    H131993   2.152   6.481   0.666
 3478TIP3    H231994   2.105   6.357   0.593
 3479TIP3   OH231995   5.755   0.575   7.703
 3479TIP3    H131996   5.660   0.570   7.714
 3479TIP3    H231997   5.775   0.510   7.636
 3480TIP3   OH231998   3.247   5.416   7.815
 3480TIP3    H131999   3.289   5.434   7.731
 3480TIP3    H232000   3.294   5.472   7.878
 3481TIP3   OH232001   1.008   4.540   7.428
 3481TIP3    H132002   1.027   4.622   7.382
 3481TIP3    H232003   0.988   4.567   7.518
 3482TIP3   OH232004   6.250   1.381   6.947
 3482TIP3    H132005   6.296   1.438   7.010
 3482TIP3    H232006   6.204   1.442   6.890
 3483TIP3   OH232007   0.088   1.383   1.340
 3483TIP3    H132008   0.038   1.461   1.317
 3483TIP3    H232009   0.023   1.321   1.373
 3484TIP3   OH232010   4.498   4.663   8.161
 3484TIP3    H132011   4.569   4.728   8.159
 3484TIP3    H232012   4.445   4.689   8.237
 3485TIP3   OH232013   3.935   1.933   1.959
 3485TIP3    H132014   3.865   1.947   2.022
 3485TIP3    H232015   4.006   1.894   2.011
 3486TIP3   OH232016   5.630   2.219   8.710
 3486TIP3    H132017   5.592   2.147   8.761
 3486TIP3    H232018   5.709   2.182   8.673
 3487TIP3   OH232019   0.866   1.489   8.750
 3487TIP3    H132020   0.796   1.496   8.686
 3487TIP3    H232021   0.946   1.478   8.698
 3488TIP3   OH232022   0.999   4.590   1.344
 3488TIP3    H132023   1.028   4.666   1.394
 3488TIP3    H232024   1.049   4.593   1.263
 3489TIP3   OH232025   4.712   2.617   0.385
 3489TIP3    H132026   4.802   2.641   0.362
 3489TIP3    H232027   4.717   2.589   0.477
 3490TIP3   OH232028   1.138   0.610   0.263
 3490TIP3    H132029   1.062   0.593   0.207
 3490TIP3    H232030   1.200   0.656   0.206
 3491TIP3   OH232031   6.241   2.535   0.144
 3491TIP3    H132032   6.155   2.568   0.118
 3491TIP3    H232033   6.234   2.525   0.239
 3492TIP3   OH232034   1.235   5.935   8.689
 3492TIP3    H132035   1.154   5.986   8.695
 3492TIP3    H232036   1.301   5.999   8.661
 3493TIP3   OH232037   2.959   0.282   8.617
 3493TIP3    H132038   2.925   0.354   8.670
 3493TIP3    H232039   2.930   0.203   8.662
 3494TIP3   OH232040   6.272   1.261   0.440
 3494TIP3    H132041   6.294   1.169   0.427
 3494TIP3    H232042   6.355   1.303   0.463
 3495TIP3   OH232043   3.347   2.254   0.488
 3495TIP3    H132044   3.396   2.172   0.480
 3495TIP3    H232045   3.294   2.258   0.409
 3496TIP3   OH232046   0.073   1.666   8.768
 3496TIP3    H132047   0.077   1.670   8.673
 3496TIP3    H232048   0.119   1.745   8.797
 3497TIP3   OH232049   5.490   1.029   6.933
 3497TIP3    H132050   5.454   1.116   6.951
 3497TIP3    H232051   5.456   1.006   6.847
 3498TIP3   OH232052   5.747   0.564   1.439
 3498TIP3    H132053   5.768   0.590   1.528
 3498TIP3    H232054   5.826   0.519   1.408
 3499TIP3   OH232055   5.137   2.654   7.517
 3499TIP3    H132056   5.051   2.696   7.509
 3499TIP3    H232057   5.193   2.722   7.555
 3500TIP3   OH232058   3.382   5.490   0.471
 3500TIP3    H132059   3.448   5.492   0.541
 3500TIP3    H232060   3.418   5.547   0.403
 3501TIP3   OH232061   0.081   5.647   7.942
 3501TIP3    H132062   0.172   5.629   7.919
 3501TIP3    H232063   0.066   5.597   8.022
 3502TIP3   OH232064   5.134   3.705   2.367
 3502TIP3    H132065   5.080   3.754   2.429
 3502TIP3    H232066   5.133   3.616   2.401
 3503TIP3   OH232067   4.991   3.343   7.384
 3503TIP3    H132068   4.914   3.306   7.427
 3503TIP3    H232069   5.016   3.417   7.439
 3504TIP3   OH232070   3.735   5.296   1.513
 3504TIP3    H132071   3.718   5.208   1.479
 3504TIP3    H232072   3.738   5.285   1.608
 3505TIP3   OH232073   1.947   1.259   7.079
 3505TIP3    H132074   1.936   1.171   7.043
 3505TIP3    H232075   1.877   1.267   7.144
 3506TIP3   OH232076   4.962   4.441   7.957
 3506TIP3    H132077   4.916   4.361   7.932
 3506TIP3    H232078   5.052   4.413   7.973
 3507TIP3   OH232079   5.315   6.576   8.606
 3507TIP3    H132080   5.347   6.646   8.550
 3507TIP3    H232081   5.276   6.513   8.546
 3508TIP3   OH232082   3.279   3.410   7.765
 3508TIP3    H132083   3.197   3.423   7.813
 3508TIP3    H232084   3.298   3.496   7.727
 3509TIP3   OH232085   4.389   1.745   0.246
 3509TIP3    H132086   4.323   1.730   0.314
 3509TIP3    H232087   4.340   1.737   0.164
 3510TIP3   OH232088   6.592   4.226   6.196
 3510TIP3    H132089   6.552   4.149   6.156
 3510TIP3    H232090   6.530   4.297   6.180
 3511TIP3   OH232091   5.759   6.513   1.035
 3511TIP3    H132092   5.821   6.586   1.045
 3511TIP3    H232093   5.701   6.520   1.110
 3512TIP3   OH232094   5.489   0.482   7.640
 3512TIP3    H132095   5.538   0.415   7.593
 3512TIP3    H232096   5.421   0.509   7.578
 3513TIP3   OH232097   0.609   0.375   1.861
 3513TIP3    H132098   0.601   0.335   1.775
 3513TIP3    H232099   0.529   0.427   1.871
 3514TIP3   OH232100   5.272   4.274   0.293
 3514TIP3    H132101   5.222   4.354   0.282
 3514TIP3    H232102   5.306   4.279   0.383
 3515TIP3   OH232103   4.036   1.489   7.539
 3515TIP3    H132104   3.959   1.436   7.518
 3515TIP3    H232105   4.020   1.522   7.627
 3516TIP3   OH232106   2.636   4.533   8.020
 3516TIP3    H132107   2.572   4.604   8.022
 3516TIP3    H232108   2.680   4.543   7.936
 3517TIP3   OH232109   4.097   4.388   0.578
 3517TIP3    H132110   4.180   4.411   0.535
 3517TIP3    H232111   4.037   4.458   0.554
 3518TIP3   OH232112   3.654   6.010   1.606
 3518TIP3    H132113   3.649   6.102   1.634
 3518TIP3    H232114   3.657   6.014   1.510
 3519TIP3   OH232115   1.916   0.829   7.150
 3519TIP3    H132116   1.893   0.830   7.243
 3519TIP3    H232117   1.916   0.736   7.128
 3520TIP3   OH232118   4.342   2.364   1.423
 3520TIP3    H132119   4.310   2.452   1.439
 3520TIP3    H232120   4.280   2.307   1.469
 3521TIP3   OH232121   3.027   4.262   0.097
 3521TIP3    H132122   2.968   4.198   0.138
 3521TIP3    H232123   3.106   4.260   0.151
 3522TIP3   OH232124   3.521   5.514   1.788
 3522TIP3    H132125   3.438   5.473   1.812
 3522TIP3    H232126   3.520   5.515   1.692
 3523TIP3   OH232127   2.520   5.314   2.107
 3523TIP3    H132128   2.553   5.339   2.021
 3523TIP3    H232129   2.425   5.317   2.098
 3524TIP3   OH232130   5.628   2.336   7.514
 3524TIP3    H132131   5.634   2.243   7.492
 3524TIP3    H232132   5.625   2.381   7.429
 3525TIP3   OH232133   4.330   1.641   6.971
 3525TIP3    H132134   4.277   1.561   6.972
 3525TIP3    H232135   4.327   1.671   6.881
 3526TIP3   OH232136   0.264   3.754   1.835
 3526TIP3    H132137   0.230   3.776   1.749
 3526TIP3    H232138   0.255   3.835   1.886
 3527TIP3   OH232139   4.255   1.856   1.675
 3527TIP3    H132140   4.216   1.778   1.714
 3527TIP3    H232141   4.296   1.902   1.748
 3528TIP3   OH232142   6.376   6.327   7.784
 3528TIP3    H132143   6.379   6.422   7.776
 3528TIP3    H232144   6.420   6.309   7.868
 3529TIP3   OH232145   5.522   1.991   7.309
 3529TIP3    H132146   5.483   1.946   7.384
 3529TIP3    H232147   5.615   1.965   7.312
 3530TIP3   OH232148   6.422   1.958   1.652
 3530TIP3    H132149   6.507   1.924   1.680
 3530TIP3    H232150   6.375   1.976   1.734
 3531TIP3   OH232151   6.651   4.498   7.959
 3531TIP3    H132152   6.676   4.458   7.875
 3531TIP3    H232153   6.614   4.425   8.010
 3532TIP3   OH232154   1.284   2.854   0.968
 3532TIP3    H132155   1.373   2.874   0.939
 3532TIP3    H232156   1.296   2.802   1.047
 3533TIP3   OH232157   2.248   4.017   1.560
 3533TIP3    H132158   2.230   4.092   1.617
 3533TIP3    H232159   2.205   3.944   1.603
 3534TIP3   OH232160   2.949   3.776   6.529
 3534TIP3    H132161   2.989   3.815   6.607
 3534TIP3    H232162   3.024   3.745   6.477
 3535TIP3   OH232163   0.978   4.097   1.117
 3535TIP3    H132164   0.953   4.014   1.156
 3535TIP3    H232165   0.914   4.111   1.048
 3536TIP3   OH232166   0.234   1.372   8.553
 3536TIP3    H132167   0.203   1.356   8.642
 3536TIP3    H232168   0.156   1.396   8.504
 3537TIP3   OH232169   5.660   5.086   7.239
 3537TIP3    H132170   5.714   5.073   7.318
 3537TIP3    H232171   5.723   5.101   7.169
 3538TIP3   OH232172   1.693   2.520   8.232
 3538TIP3    H132173   1.739   2.571   8.166
 3538TIP3    H232174   1.665   2.584   8.297
 3539TIP3   OH232175   2.037   0.139   7.542
 3539TIP3    H132176   2.107   0.190   7.584
 3539TIP3    H232177   1.978   0.115   7.614
 3540TIP3   OH232178   5.166   1.923   6.509
 3540TIP3    H132179   5.182   1.982   6.435
 3540TIP3    H232180   5.252   1.887   6.530
 3541TIP3   OH232181   6.099   0.690   0.956
 3541TIP3    H132182   6.116   0.622   1.022
 3541TIP3    H232183   6.039   0.750   0.999
 3542TIP3   OH232184   5.188   3.641   8.370
 3542TIP3    H132185   5.216   3.565   8.319
 3542TIP3    H232186   5.269   3.675   8.408
 3543TIP3   OH232187   3.120   6.435   7.984
 3543TIP3    H132188   3.162   6.424   8.069
 3543TIP3    H232189   3.058   6.363   7.978
 3544TIP3   OH232190   1.778   1.495   1.149
 3544TIP3    H132191   1.684   1.485   1.135
 3544TIP3    H232192   1.818   1.434   1.087
 3545TIP3   OH232193   1.330   5.528   2.256
 3545TIP3    H132194   1.297   5.553   2.342
 3545TIP3    H232195   1.269   5.569   2.194
 3546TIP3   OH232196   4.605   1.152   6.604
 3546TIP3    H132197   4.637   1.124   6.518
 3546TIP3    H232198   4.645   1.238   6.617
 3547TIP3   OH232199   5.650   1.016   1.366
 3547TIP3    H132200   5.639   1.111   1.369
 3547TIP3    H232201   5.629   0.987   1.455
 3548TIP3   OH232202   2.641   2.769   7.402
 3548TIP3    H132203   2.708   2.730   7.458
 3548TIP3    H232204   2.605   2.696   7.353
 3549TIP3   OH232205   3.101   2.174   1.847
 3549TIP3    H132206   3.193   2.180   1.823
 3549TIP3    H232207   3.096   2.212   1.935
 3550TIP3   OH232208   0.464   5.329   8.804
 3550TIP3    H132209   0.421   5.252   8.766
 3550TIP3    H232210   0.402   5.360   8.870
 3551TIP3   OH232211   4.163   0.976   2.465
 3551TIP3    H132212   4.153   1.065   2.498
 3551TIP3    H232213   4.078   0.935   2.481
 3552TIP3   OH232214   2.828   4.963   2.313
 3552TIP3    H132215   2.884   4.988   2.239
 3552TIP3    H232216   2.826   4.868   2.309
 3553TIP3   OH232217   0.860   4.648   0.627
 3553TIP3    H132218   0.881   4.594   0.551
 3553TIP3    H232219   0.793   4.597   0.674
 3554TIP3   OH232220   6.320   5.955   1.253
 3554TIP3    H132221   6.332   5.921   1.165
 3554TIP3    H232222   6.290   5.879   1.304
 3555TIP3   OH232223   5.120   2.974   0.459
 3555TIP3    H132224   5.157   3.013   0.379
 3555TIP3    H232225   5.105   2.883   0.436
 3556TIP3   OH232226   0.162   6.426   8.570
 3556TIP3    H132227   0.108   6.484   8.516
 3556TIP3    H232228   0.154   6.462   8.658
 3557TIP3   OH232229   2.323   4.173   8.845
 3557TIP3    H132230   2.254   4.107   8.845
 3557TIP3    H232231   2.367   4.162   8.761
 3558TIP3   OH232232   5.905   4.064   7.886
 3558TIP3    H132233   5.813   4.052   7.908
 3558TIP3    H232234   5.944   4.102   7.965
 3559TIP3   OH232235   1.840   6.379   1.443
 3559TIP3    H132236   1.843   6.327   1.363
 3559TIP3    H232237   1.824   6.469   1.413
 3560TIP3   OH232238   1.586   0.793   6.928
 3560TIP3    H132239   1.677   0.772   6.947
 3560TIP3    H232240   1.536   0.722   6.967
 3561TIP3   OH232241   3.719   3.281   0.168
 3561TIP3    H132242   3.734   3.194   0.133
 3561TIP3    H232243   3.667   3.267   0.247
 3562TIP3   OH232244   4.532   1.521   7.769
 3562TIP3    H132245   4.554   1.453   7.706
 3562TIP3    H232246   4.516   1.474   7.851
 3563TIP3   OH232247   0.400   6.512   8.233
 3563TIP3    H132248   0.458   6.572   8.185
 3563TIP3    H232249   0.407   6.540   8.324
 3564TIP3   OH232250   1.176   0.130   8.253
 3564TIP3    H132251   1.153   0.038   8.264
 3564TIP3    H232252   1.217   0.154   8.336
 3565TIP3   OH232253   2.602   2.312   0.854
 3565TIP3    H132254   2.628   2.294   0.763
 3565TIP3    H232255   2.507   2.302   0.854
 3566TIP3   OH232256   5.404   5.504   7.603
 3566TIP3    H132257   5.425   5.515   7.510
 3566TIP3    H232258   5.401   5.409   7.616
 3567TIP3   OH232259   4.144   5.326   7.462
 3567TIP3    H132260   4.125   5.250   7.516
 3567TIP3    H232261   4.183   5.290   7.382
 3568TIP3   OH232262   0.954   0.794   6.598
 3568TIP3    H132263   0.890   0.779   6.529
 3568TIP3    H232264   1.001   0.873   6.570
 3569TIP3   OH232265   1.946   3.675   1.450
 3569TIP3    H132266   1.998   3.650   1.527
 3569TIP3    H232267   1.860   3.635   1.466
 3570TIP3   OH232268   2.892   0.043   6.836
 3570TIP3    H132269   2.868   0.018   6.926
 3570TIP3    H232270   2.923   6.738   6.796
 3571TIP3   OH232271   6.088   5.098   7.497
 3571TIP3    H132272   6.085   5.185   7.458
 3571TIP3    H232273   6.163   5.055   7.456
 3572TIP3   OH232274   5.812   5.688   0.157
 3572TIP3    H132275   5.853   5.752   0.215
 3572TIP3    H232276   5.811   5.730   0.071
 3573TIP3   OH232277   2.352   2.979   7.719
 3573TIP3    H132278   2.297   3.028   7.659
 3573TIP3    H232279   2.311   2.991   7.805
 3574TIP3   OH232280   3.137   0.366   1.638
 3574TIP3    H132281   3.132   0.432   1.569
 3574TIP3    H232282   3.226   0.331   1.633
 3575TIP3   OH232283   4.840   5.762   8.769
 3575TIP3    H132284   4.846   5.856   8.782
 3575TIP3    H232285   4.749   5.746   8.747
 3576TIP3   OH232286   0.204   3.183   7.549
 3576TIP3    H132287   0.241   3.100   7.520
 3576TIP3    H232288   0.207   3.239   7.472
 3577TIP3   OH232289   0.748   5.930   0.377
 3577TIP3    H132290   0.699   5.848   0.375
 3577TIP3    H232291   0.695   5.991   0.327
 3578TIP3   OH232292   3.013   3.017   2.227
 3578TIP3    H132293   2.985   3.107   2.211
 3578TIP3    H232294   3.097   3.025   2.271
 3579TIP3   OH232295   5.698   1.486   0.744
 3579TIP3    H132296   5.676   1.524   0.658
 3579TIP3    H232297   5.705   1.562   0.802
 3580TIP3   OH232298   1.687   5.752   8.110
 3580TIP3    H132299   1.676   5.750   8.205
 3580TIP3    H232300   1.606   5.714   8.076
 3581TIP3   OH232301   5.999   1.858   8.408
 3581TIP3    H132302   5.953   1.820   8.483
 3581TIP3    H232303   6.088   1.872   8.439
 3582TIP3   OH232304   6.164   4.639   2.113
 3582TIP3    H132305   6.158   4.642   2.208
 3582TIP3    H232306   6.136   4.726   2.084
 3583TIP3   OH232307   4.229   4.205   8.171
 3583TIP3    H132308   4.181   4.217   8.253
 3583TIP3    H232309   4.170   4.239   8.103
 3584TIP3   OH232310   1.271   1.310   2.645
 3584TIP3    H132311   1.242   1.394   2.609
 3584TIP3    H232312   1.308   1.264   2.570
 3585TIP3   OH232313   4.677   0.184   1.433
 3585TIP3    H132314   4.585   0.204   1.420
 3585TIP3    H232315   4.721   0.219   1.356
 3586TIP3   OH232316   5.022   2.663   1.296
 3586TIP3    H132317   5.007   2.608   1.219
 3586TIP3    H232318   4.963   2.628   1.363
 3587TIP3   OH232319   6.067   5.886   1.603
 3587TIP3    H132320   6.066   5.846   1.689
 3587TIP3    H232321   6.018   5.968   1.613
 3588TIP3   OH232322   0.841   6.373   8.531
 3588TIP3    H132323   0.874   6.360   8.443
 3588TIP3    H232324   0.825   6.468   8.538
 3589TIP3   OH232325   1.412   4.226   1.240
 3589TIP3    H132326   1.437   4.135   1.229
 3589TIP3    H232327   1.317   4.223   1.255
 3590TIP3   OH232328   0.577   1.543   7.303
 3590TIP3    H132329   0.511   1.545   7.233
 3590TIP3    H232330   0.535   1.494   7.374
 3591TIP3   OH232331   2.825   5.951   7.351
 3591TIP3    H132332   2.905   5.945   7.403
 3591TIP3    H232333   2.837   6.031   7.298
 3592TIP3   OH232334   3.043   3.581   6.884
 3592TIP3    H132335   3.112   3.589   6.818
 3592TIP3    H232336   3.025   3.487   6.888
 3593TIP3   OH232337   4.526   2.076   7.954
 3593TIP3    H132338   4.518   2.057   7.860
 3593TIP3    H232339   4.537   2.171   7.958
 3594TIP3   OH232340   1.251   0.065   0.454
 3594TIP3    H132341   1.327   0.107   0.493
 3594TIP3    H232342   1.232   6.768   0.512
 3595TIP3   OH232343   4.641   6.595   8.432
 3595TIP3    H132344   4.710   6.548   8.385
 3595TIP3    H232345   4.563   6.540   8.422
 3596TIP3   OH232346   6.639   5.137   8.506
 3596TIP3    H132347   6.593   5.115   8.587
 3596TIP3    H232348   6.714   5.077   8.503
 3597TIP3   OH232349   2.118   4.756   8.370
 3597TIP3    H132350   2.137   4.663   8.369
 3597TIP3    H232351   2.196   4.797   8.407
 3598TIP3   OH232352   4.416   5.635   8.011
 3598TIP3    H132353   4.428   5.622   7.917
 3598TIP3    H232354   4.466   5.714   8.031
 3599TIP3   OH232355   5.936   0.808   1.655
 3599TIP3    H132356   5.844   0.830   1.667
 3599TIP3    H232357   5.948   0.727   1.704
 3600TIP3   OH232358   0.407   0.147   0.281
 3600TIP3    H132359   0.494   0.111   0.299
 3600TIP3    H232360   0.347   0.074   0.297
 3601TIP3   OH232361   1.668   6.006   0.328
 3601TIP3    H132362   1.581   6.040   0.348
 3601TIP3    H232363   1.690   5.950   0.403
 3602TIP3   OH232364   5.440   3.573   8.728
 3602TIP3    H132365   5.421   3.596   8.819
 3602TIP3    H232366   5.362   3.599   8.680
 3603TIP3   OH232367   2.224   1.838   8.533
 3603TIP3    H132368   2.274   1.770   8.487
 3603TIP3    H232369   2.236   1.917   8.480
 3604TIP3   OH232370   1.243   4.441   1.434
 3604TIP3    H132371   1.229   4.346   1.428
 3604TIP3    H232372   1.156   4.478   1.422
 3605TIP3   OH232373   1.377   4.120   8.443
 3605TIP3    H132374   1.371   4.026   8.426
 3605TIP3    H232375   1.444   4.151   8.382
 3606TIP3   OH232376   3.593   0.748   6.871
 3606TIP3    H132377   3.594   0.678   6.805
 3606TIP3    H232378   3.684   0.756   6.900
 3607TIP3   OH232379   1.392   6.438   0.550
 3607TIP3    H132380   1.446   6.480   0.617
 3607TIP3    H232381   1.373   6.508   0.487
 3608TIP3   OH232382   6.215   2.444   7.407
 3608TIP3    H132383   6.234   2.512   7.471
 3608TIP3    H232384   6.121   2.427   7.416
 3609TIP3   OH232385   0.121   5.689   1.103
 3609TIP3    H132386   0.182   5.617   1.084
 3609TIP3    H232387   0.126   5.744   1.025
 3610TIP3   OH232388   0.242   2.598   6.762
 3610TIP3    H132389   0.261   2.687   6.792
 3610TIP3    H232390   0.298   2.586   6.686
 3611TIP3   OH232391   5.783   2.556   2.006
 3611TIP3    H132392   5.759   2.633   2.058
 3611TIP3    H232393   5.730   2.563   1.927
 3612TIP3   OH232394   6.624   0.996   8.695
 3612TIP3    H132395   6.659   1.012   8.607
 3612TIP3    H232396   6.554   0.931   8.682
 3613TIP3   OH232397   0.994   6.508   2.187
 3613TIP3    H132398   1.005   6.467   2.273
 3613TIP3    H232399   0.925   6.573   2.199
 3614TIP3   OH232400   2.534   0.317   1.761
 3614TIP3    H132401   2.483   0.313   1.842
 3614TIP3    H232402   2.485   0.378   1.706
 3615TIP3   OH232403   2.484   0.012   1.680
 3615TIP3    H132404   2.462   6.715   1.623
 3615TIP3    H232405   2.412   0.075   1.667
 3616TIP3   OH232406   2.432   5.355   1.671
 3616TIP3    H132407   2.345   5.321   1.690
 3616TIP3    H232408   2.476   5.360   1.756
 3617TIP3   OH232409   1.107   2.004   8.352
 3617TIP3    H132410   1.061   1.968   8.276
 3617TIP3    H232411   1.166   2.070   8.316
 3618TIP3   OH232412   4.494   5.869   0.819
 3618TIP3    H132413   4.555   5.895   0.888
 3618TIP3    H232414   4.434   5.944   0.811
 3619TIP3   OH232415   4.935   0.785   1.748
 3619TIP3    H132416   4.946   0.880   1.752
 3619TIP3    H232417   4.915   0.768   1.656
 3620TIP3   OH232418   5.758   3.247   8.908
 3620TIP3    H132419   5.807   3.165   8.896
 3620TIP3    H232420   5.691   3.226   0.060
 3621TIP3   OH232421   0.579   3.021   2.250
 3621TIP3    H132422   0.562   2.966   2.174
 3621TIP3    H232423   0.670   3.004   2.273
 3622TIP3   OH232424   0.438   4.256   1.600
 3622TIP3    H132425   0.441   4.163   1.624
 3622TIP3    H232426   0.385   4.296   1.670
 3623TIP3   OH232427   3.028   1.057   7.361
 3623TIP3    H132428   3.074   0.981   7.396
 3623TIP3    H232429   3.096   1.122   7.347
 3624TIP3   OH232430   0.291   2.696   7.936
 3624TIP3    H132431   0.267   2.604   7.923
 3624TIP3    H232432   0.298   2.731   7.847
 3625TIP3   OH232433   1.302   3.728   2.567
 3625TIP3    H132434   1.328   3.717   2.475
 3625TIP3    H232435   1.238   3.660   2.582
 3626TIP3   OH232436   5.163   3.709   1.291
 3626TIP3    H132437   5.236   3.663   1.332
 3626TIP3    H232438   5.097   3.716   1.360
 3627TIP3   OH232439   4.486   2.059   0.175
 3627TIP3    H132440   4.545   2.110   0.231
 3627TIP3    H232441   4.469   1.979   0.225
 3628TIP3   OH232442   5.749   0.989   6.249
 3628TIP3    H132443   5.792   1.074   6.257
 3628TIP3    H232444   5.796   0.932   6.310
 3629TIP3   OH232445   6.747   2.884   0.292
 3629TIP3    H132446   6.677   2.937   0.253
 3629TIP3    H232447   6.703   2.832   0.359
 3630TIP3   OH232448   2.544   2.770   0.616
 3630TIP3    H132449   2.616   2.741   0.671
 3630TIP3    H232450   2.586   2.803   0.537
 3631TIP3   OH232451   5.711   3.091   7.358
 3631TIP3    H132452   5.687   3.181   7.379
 3631TIP3    H232453   5.784   3.098   7.296
 3632TIP3   OH232454   0.579   1.626   7.597
 3632TIP3    H132455   0.670   1.650   7.613
 3632TIP3    H232456   0.529   1.688   7.651
 3633TIP3   OH232457   2.680   5.435   1.035
 3633TIP3    H132458   2.644   5.347   1.026
 3633TIP3    H232459   2.755   5.424   1.093
 3634TIP3   OH232460   5.469   0.933   0.206
 3634TIP3    H132461   5.428   0.914   0.121
 3634TIP3    H232462   5.454   0.854   0.258
 3635TIP3   OH232463   3.865   2.130   1.164
 3635TIP3    H132464   3.798   2.078   1.121
 3635TIP3    H232465   3.922   2.160   1.093
 3636TIP3   OH232466   2.834   0.566   0.371
 3636TIP3    H132467   2.845   0.486   0.422
 3636TIP3    H232468   2.748   0.557   0.330
 3637TIP3   OH232469   5.529   3.102   1.799
 3637TIP3    H132470   5.555   3.033   1.860
 3637TIP3    H232471   5.458   3.149   1.845
 3638TIP3   OH232472   4.929   6.484   7.302
 3638TIP3    H132473   4.866   6.423   7.265
 3638TIP3    H232474   4.920   6.563   7.248
 3639TIP3   OH232475   3.955   1.993   1.410
 3639TIP3    H132476   4.045   1.967   1.389
 3639TIP3    H232477   3.927   2.045   1.335
 3640TIP3   OH232478   3.142   4.506   0.346
 3640TIP3    H132479   3.149   4.551   0.431
 3640TIP3    H232480   3.124   4.415   0.368
 3641TIP3   OH232481   3.075   4.938   8.517
 3641TIP3    H132482   3.024   4.870   8.473
 3641TIP3    H232483   3.164   4.927   8.481
 3642TIP3   OH232484   1.285   0.643   0.695
 3642TIP3    H132485   1.229   0.599   0.759
 3642TIP3    H232486   1.374   0.611   0.714
 3643TIP3   OH232487   2.417   5.219   0.435
 3643TIP3    H132488   2.458   5.154   0.379
 3643TIP3    H232489   2.325   5.221   0.408
 3644TIP3   OH232490   1.847   0.294   6.282
 3644TIP3    H132491   1.794   0.272   6.206
 3644TIP3    H232492   1.810   0.375   6.315
 3645TIP3   OH232493   6.467   1.201   7.521
 3645TIP3    H132494   6.488   1.175   7.432
 3645TIP3    H232495   6.431   1.290   7.512
 3646TIP3   OH232496   3.389   2.700   1.749
 3646TIP3    H132497   3.439   2.706   1.830
 3646TIP3    H232498   3.338   2.781   1.746
 3647TIP3   OH232499   3.492   1.943   7.466
 3647TIP3    H132500   3.455   1.969   7.550
 3647TIP3    H232501   3.541   2.020   7.437
 3648TIP3   OH232502   6.213   2.630   8.084
 3648TIP3    H132503   6.301   2.646   8.051
 3648TIP3    H232504   6.181   2.556   8.032
 3649TIP3   OH232505   3.037   1.248   0.667
 3649TIP3    H132506   3.070   1.164   0.635
 3649TIP3    H232507   3.031   1.237   0.761
 3650TIP3   OH232508   6.272   1.827   6.753
 3650TIP3    H132509   6.244   1.909   6.794
 3650TIP3    H232510   6.289   1.849   6.662
 3651TIP3   OH232511   2.571   1.186   7.781
 3651TIP3    H132512   2.600   1.099   7.752
 3651TIP3    H232513   2.620   1.247   7.726
 3652TIP3   OH232514   5.654   1.528   0.475
 3652TIP3    H132515   5.597   1.605   0.479
 3652TIP3    H232516   5.603   1.464   0.425
 3653TIP3   OH232517   1.202   2.165   8.083
 3653TIP3    H132518   1.219   2.205   8.168
 3653TIP3    H232519   1.212   2.071   8.098
 3654TIP3   OH232520   4.349   4.594   7.543
 3654TIP3    H132521   4.394   4.554   7.618
 3654TIP3    H232522   4.413   4.654   7.506
 3655TIP3   OH232523   2.390   4.153   8.584
 3655TIP3    H132524   2.476   4.183   8.555
 3655TIP3    H232525   2.337   4.153   8.505
 3656TIP3   OH232526   5.916   6.628   1.984
 3656TIP3    H132527   5.927   6.701   1.923
 3656TIP3    H232528   5.998   6.627   2.035
 3657TIP3   OH232529   2.528   6.699   8.745
 3657TIP3    H132530   2.451   6.650   8.772
 3657TIP3    H232531   2.505   0.014   8.759
 3658TIP3   OH232532   5.572   0.726   0.748
 3658TIP3    H132533   5.607   0.736   0.659
 3658TIP3    H232534   5.642   0.682   0.797
 3659TIP3   OH232535   1.747   3.565   8.608
 3659TIP3    H132536   1.674   3.574   8.548
 3659TIP3    H232537   1.807   3.636   8.584
 3660TIP3   OH232538   3.529   2.423   0.289
 3660TIP3    H132539   3.548   2.465   0.373
 3660TIP3    H232540   3.584   2.470   0.226
 3661TIP3   OH232541   1.664   0.095   8.865
 3661TIP3    H132542   1.677   0.154   0.026
 3661TIP3    H232543   1.587   0.043   8.887
 3662TIP3   OH232544   5.187   6.653   7.509
 3662TIP3    H132545   5.208   6.560   7.513
 3662TIP3    H232546   5.255   6.695   7.561
 3663TIP3   OH232547   4.507   1.260   1.625
 3663TIP3    H132548   4.556   1.287   1.547
 3663TIP3    H232549   4.417   1.249   1.595
 3664TIP3   OH232550   6.404   4.584   1.987
 3664TIP3    H132551   6.484   4.628   2.017
 3664TIP3    H232552   6.337   4.610   2.050
 3665TIP3   OH232553   2.796   6.221   7.237
 3665TIP3    H132554   2.716   6.272   7.226
 3665TIP3    H232555   2.844   6.234   7.156
 3666TIP3   OH232556   4.313   6.680   8.465
 3666TIP3    H132557   4.298   6.587   8.449
 3666TIP3    H232558   4.277   6.696   8.553
 3667TIP3   OH232559   5.851   3.282   2.094
 3667TIP3    H132560   5.891   3.368   2.102
 3667TIP3    H232561   5.911   3.223   2.139
 3668TIP3   OH232562   2.760   2.945   8.340
 3668TIP3    H132563   2.717   2.942   8.425
 3668TIP3    H232564   2.854   2.952   8.361
 3669TIP3   OH232565   6.697   2.111   1.342
 3669TIP3    H132566   6.647   2.030   1.350
 3669TIP3    H232567   6.729   2.128   1.431
 3670TIP3   OH232568   1.072   4.763   8.644
 3670TIP3    H132569   1.155   4.719   8.663
 3670TIP3    H232570   1.076   4.784   8.551
 3671TIP3   OH232571   4.310   1.416   7.971
 3671TIP3    H132572   4.224   1.393   7.934
 3671TIP3    H232573   4.348   1.332   7.996
 3672TIP3   OH232574   0.164   6.163   2.100
 3672TIP3    H132575   0.081   6.207   2.082
 3672TIP3    H232576   0.205   6.216   2.168
 3673TIP3   OH232577   0.530   2.803   1.337
 3673TIP3    H132578   0.475   2.769   1.267
 3673TIP3    H232579   0.512   2.745   1.412
 3674TIP3   OH232580   6.656   4.179   7.552
 3674TIP3    H132581   6.611   4.095   7.553
 3674TIP3    H232582   6.748   4.157   7.568
 3675TIP3   OH232583   6.440   3.560   6.508
 3675TIP3    H132584   6.402   3.480   6.471
 3675TIP3    H232585   6.365   3.605   6.546
 3676TIP3   OH232586   4.477   5.393   8.509
 3676TIP3    H132587   4.460   5.379   8.416
 3676TIP3    H232588   4.533   5.321   8.535
 3677TIP3   OH232589   4.707   6.341   8.607
 3677TIP3    H132590   4.774   6.360   8.542
 3677TIP3    H232591   4.625   6.344   8.558
 3678TIP3   OH232592   6.284   2.009   7.110
 3678TIP3    H132593   6.214   1.989   7.048
 3678TIP3    H232594   6.238   2.037   7.189
 3679TIP3   OH232595   4.485   2.558   7.104
 3679TIP3    H132596   4.460   2.508   7.026
 3679TIP3    H232597   4.429   2.635   7.103
 3680TIP3   OH232598   0.118   5.528   1.556
 3680TIP3    H132599   0.106   5.623   1.553
 3680TIP3    H232600   0.058   5.498   1.624
 3681TIP3   OH232601   3.749   5.865   7.910
 3681TIP3    H132602   3.800   5.817   7.845
 3681TIP3    H232603   3.815   5.899   7.971
 3682TIP3   OH232604   6.146   1.618   8.113
 3682TIP3    H132605   6.056   1.602   8.084
 3682TIP3    H232606   6.138   1.686   8.180
 3683TIP3   OH232607   6.041   0.568   7.278
 3683TIP3    H132608   5.964   0.563   7.221
 3683TIP3    H232609   6.113   0.590   7.219
 3684TIP3   OH232610   6.536   5.032   1.277
 3684TIP3    H132611   6.473   4.995   1.339
 3684TIP3    H232612   6.581   5.100   1.327
 3685TIP3   OH232613   2.621   2.919   0.011
 3685TIP3    H132614   2.638   2.825   0.019
 3685TIP3    H232615   2.543   2.934   0.064
 3686TIP3   OH232616   5.469   1.452   7.702
 3686TIP3    H132617   5.473   1.546   7.685
 3686TIP3    H232618   5.535   1.414   7.645
 3687TIP3   OH232619   3.078   3.480   7.224
 3687TIP3    H132620   3.110   3.415   7.287
 3687TIP3    H232621   3.130   3.558   7.241
 3688TIP3   OH232622   1.845   4.347   1.255
 3688TIP3    H132623   1.789   4.424   1.257
 3688TIP3    H232624   1.843   4.318   1.163
 3689TIP3   OH232625   5.147   0.237   0.204
 3689TIP3    H132626   5.074   0.177   0.217
 3689TIP3    H232627   5.154   0.246   0.109
 3690TIP3   OH232628   5.011   0.905   0.727
 3690TIP3    H132629   4.992   0.812   0.719
 3690TIP3    H232630   5.060   0.913   0.808
 3691TIP3   OH232631   0.738   0.987   7.299
 3691TIP3    H132632   0.738   0.937   7.217
 3691TIP3    H232633   0.661   0.956   7.346
 3692TIP3   OH232634   4.231   6.763   7.071
 3692TIP3    H132635   4.324   0.009   7.068
 3692TIP3    H232636   4.193   0.031   6.996
 3693TIP3   OH232637   6.744   3.169   7.964
 3693TIP3    H132638   0.043   3.126   7.924
 3693TIP3    H232639   6.726   3.119   8.043
 3694TIP3   OH232640   1.635   6.006   7.393
 3694TIP3    H132641   1.694   6.067   7.349
 3694TIP3    H232642   1.555   6.056   7.407
 3695TIP3   OH232643   2.358   2.004   2.098
 3695TIP3    H132644   2.310   1.955   2.031
 3695TIP3    H232645   2.291   2.027   2.163
 3696TIP3   OH232646   4.620   4.510   7.940
 3696TIP3    H132647   4.600   4.562   8.018
 3696TIP3    H232648   4.575   4.427   7.955
 3697TIP3   OH232649   1.966   0.434   1.187
 3697TIP3    H132650   1.947   0.390   1.270
 3697TIP3    H232651   1.940   0.525   1.202
 3698TIP3   OH232652   1.776   4.051   0.791
 3698TIP3    H132653   1.697   4.099   0.767
 3698TIP3    H232654   1.777   4.054   0.887
 3699TIP3   OH232655   2.687   5.758   0.722
 3699TIP3    H132656   2.617   5.727   0.664
 3699TIP3    H232657   2.751   5.687   0.723
 3700TIP3   OH232658   3.239   6.174   8.529
 3700TIP3    H132659   3.164   6.232   8.519
 3700TIP3    H232660   3.288   6.183   8.447
 3701TIP3   OH232661   5.966   1.531   1.795
 3701TIP3    H132662   6.012   1.453   1.765
 3701TIP3    H232663   6.026   1.603   1.776
 3702TIP3   OH232664   6.236   0.359   7.002
 3702TIP3    H132665   6.207   0.299   7.071
 3702TIP3    H232666   6.297   0.307   6.950
 3703TIP3   OH232667   1.178   0.596   6.894
 3703TIP3    H132668   1.212   0.593   6.805
 3703TIP3    H232669   1.206   0.514   6.934
 3704TIP3   OH232670   1.964   4.414   7.448
 3704TIP3    H132671   2.038   4.473   7.455
 3704TIP3    H232672   1.907   4.454   7.382
 3705TIP3   OH232673   2.391   6.004   2.300
 3705TIP3    H132674   2.311   6.034   2.257
 3705TIP3    H232675   2.367   5.920   2.340
 3706TIP3   OH232676   4.118   5.171   7.964
 3706TIP3    H132677   4.158   5.244   7.917
 3706TIP3    H232678   4.141   5.094   7.911
 3707TIP3   OH232679   5.818   4.808   7.061
 3707TIP3    H132680   5.816   4.797   6.966
 3707TIP3    H232681   5.742   4.760   7.093
 3708TIP3   OH232682   4.304   3.967   1.493
 3708TIP3    H132683   4.234   3.914   1.532
 3708TIP3    H232684   4.371   3.971   1.561
 3709TIP3   OH232685   1.079   5.726   0.025
 3709TIP3    H132686   1.119   5.813   0.024
 3709TIP3    H232687   0.998   5.737   0.075
 3710TIP3   OH232688   2.735   4.987   0.705
 3710TIP3    H132689   2.776   4.963   0.788
 3710TIP3    H232690   2.754   5.081   0.696
 3711TIP3   OH232691   1.143   1.637   8.346
 3711TIP3    H132692   1.052   1.667   8.350
 3711TIP3    H232693   1.145   1.577   8.271
 3712TIP3   OH232694   5.581   2.216   0.848
 3712TIP3    H132695   5.510   2.199   0.910
 3712TIP3    H232696   5.538   2.260   0.774
 3713TIP3   OH232697   1.122   4.075   7.328
 3713TIP3    H132698   1.032   4.055   7.353
 3713TIP3    H232699   1.120   4.080   7.233
 3714TIP3   OH232700   4.212   6.232   8.572
 3714TIP3    H132701   4.247   6.193   8.652
 3714TIP3    H232702   4.129   6.187   8.558
 3715TIP3   OH232703   3.414   6.429   7.406
 3715TIP3    H132704   3.481   6.374   7.447
 3715TIP3    H232705   3.384   6.487   7.475
 3716TIP3   OH232706   0.745   4.804   8.165
 3716TIP3    H132707   0.668   4.853   8.136
 3716TIP3    H232708   0.746   4.814   8.260
 3717TIP3   OH232709   2.025   2.279   7.991
 3717TIP3    H132710   2.090   2.263   7.922
 3717TIP3    H232711   2.009   2.374   7.987
 3718TIP3   OH232712   5.740   2.048   7.553
 3718TIP3    H132713   5.822   1.999   7.559
 3718TIP3    H232714   5.678   1.996   7.604
 3719TIP3   OH232715   0.629   3.393   0.786
 3719TIP3    H132716   0.705   3.342   0.759
 3719TIP3    H232717   0.609   3.448   0.710
 3720TIP3   OH232718   2.349   3.996   7.338
 3720TIP3    H132719   2.287   3.950   7.281
 3720TIP3    H232720   2.434   3.981   7.298
 3721TIP3   OH232721   1.210   3.216   7.494
 3721TIP3    H132722   1.269   3.156   7.540
 3721TIP3    H232723   1.173   3.163   7.423
 3722TIP3   OH232724   1.222   4.112   8.684
 3722TIP3    H132725   1.317   4.130   8.686
 3722TIP3    H232726   1.210   4.056   8.608
 3723TIP3   OH232727   2.783   0.651   1.562
 3723TIP3    H132728   2.830   0.599   1.628
 3723TIP3    H232729   2.788   0.741   1.595
 3724TIP3   OH232730   4.542   6.616   2.273
 3724TIP3    H132731   4.463   6.667   2.258
 3724TIP3    H232732   4.590   6.665   2.339
 3725TIP3   OH232733   6.107   1.045   8.419
 3725TIP3    H132734   6.060   1.031   8.337
 3725TIP3    H232735   6.134   1.137   8.415
 3726TIP3   OH232736   4.955   0.438   1.595
 3726TIP3    H132737   5.001   0.355   1.581
 3726TIP3    H232738   5.023   0.499   1.622
 3727TIP3   OH232739   3.953   0.723   7.650
 3727TIP3    H132740   3.921   0.706   7.739
 3727TIP3    H232741   4.038   0.677   7.647
 3728TIP3   OH232742   2.298   1.059   1.052
 3728TIP3    H132743   2.304   1.039   0.959
 3728TIP3    H232744   2.376   1.112   1.071
 3729TIP3   OH232745   3.064   0.165   2.048
 3729TIP3    H132746   3.110   0.147   2.130
 3729TIP3    H232747   3.113   0.116   1.981
 3730TIP3   OH232748   2.094   0.879   7.558
 3730TIP3    H132749   2.120   0.960   7.602
 3730TIP3    H232750   2.139   0.810   7.607
 3731TIP3   OH232751   1.506   6.689   7.654
 3731TIP3    H132752   1.411   6.696   7.644
 3731TIP3    H232753   1.542   6.732   7.577
 3732TIP3   OH232754   3.711   1.704   7.434
 3732TIP3    H132755   3.747   1.778   7.483
 3732TIP3    H232756   3.770   1.695   7.359
 3733TIP3   OH232757   3.255   2.743   8.262
 3733TIP3    H132758   3.240   2.818   8.320
 3733TIP3    H232759   3.173   2.693   8.264
 3734TIP3   OH232760   6.140   3.610   8.410
 3734TIP3    H132761   6.195   3.565   8.474
 3734TIP3    H232762   6.155   3.563   8.328
 3735TIP3   OH232763   6.184   6.162   8.516
 3735TIP3    H132764   6.130   6.100   8.466
 3735TIP3    H232765   6.270   6.155   8.476
 3736TIP3   OH232766   1.157   4.591   0.419
 3736TIP3    H132767   1.136   4.520   0.481
 3736TIP3    H232768   1.218   4.551   0.358
 3737TIP3   OH232769   4.514   3.952   7.953
 3737TIP3    H132770   4.608   3.944   7.936
 3737TIP3    H232771   4.481   3.862   7.950
 3738TIP3   OH232772   4.867   1.534   0.713
 3738TIP3    H132773   4.806   1.605   0.694
 3738TIP3    H232774   4.816   1.472   0.765
 3739TIP3   OH232775   5.919   2.572   0.534
 3739TIP3    H132776   6.015   2.577   0.543
 3739TIP3    H232777   5.889   2.542   0.619
 3740TIP3   OH232778   3.955   1.801   6.957
 3740TIP3    H132779   3.986   1.829   7.043
 3740TIP3    H232780   3.887   1.737   6.976
 3741TIP3   OH232781   1.667   1.334   6.415
 3741TIP3    H132782   1.643   1.371   6.330
 3741TIP3    H232783   1.713   1.252   6.394
 3742TIP3   OH232784   3.649   2.901   8.132
 3742TIP3    H132785   3.556   2.890   8.111
 3742TIP3    H232786   3.678   2.972   8.075
 3743TIP3   OH232787   0.275   4.685   0.254
 3743TIP3    H132788   0.358   4.682   0.206
 3743TIP3    H232789   0.262   4.596   0.285
 3744TIP3   OH232790   6.038   4.659   1.853
 3744TIP3    H132791   5.991   4.591   1.804
 3744TIP3    H232792   6.074   4.612   1.929
 3745TIP3   OH232793   6.518   5.728   7.018
 3745TIP3    H132794   6.445   5.736   7.079
 3745TIP3    H232795   6.483   5.756   6.933
 3746TIP3   OH232796   4.156   3.695   1.517
 3746TIP3    H132797   4.243   3.665   1.544
 3746TIP3    H232798   4.104   3.695   1.598
 3747TIP3   OH232799   4.377   0.890   1.312
 3747TIP3    H132800   4.455   0.874   1.366
 3747TIP3    H232801   4.398   0.849   1.228
 3748TIP3   OH232802   1.476   4.540   7.009
 3748TIP3    H132803   1.498   4.515   6.919
 3748TIP3    H232804   1.557   4.526   7.058
 3749TIP3   OH232805   5.558   3.361   8.563
 3749TIP3    H132806   5.522   3.278   8.594
 3749TIP3    H232807   5.546   3.421   8.637
 3750TIP3   OH232808   1.581   1.330   7.796
 3750TIP3    H132809   1.545   1.419   7.796
 3750TIP3    H232810   1.673   1.342   7.820
 3751TIP3   OH232811   4.590   1.643   1.423
 3751TIP3    H132812   4.671   1.630   1.473
 3751TIP3    H232813   4.612   1.709   1.358
 3752TIP3   OH232814   1.732   0.430   0.388
 3752TIP3    H132815   1.760   0.342   0.413
 3752TIP3    H232816   1.743   0.482   0.468
 3753TIP3   OH232817   0.896   1.341   0.844
 3753TIP3    H132818   0.868   1.252   0.822
 3753TIP3    H232819   0.990   1.334   0.858
 3754TIP3   OH232820   4.425   0.766   1.080
 3754TIP3    H132821   4.452   0.791   0.991
 3754TIP3    H232822   4.396   0.676   1.071
 3755TIP3   OH232823   2.378   0.168   5.860
 3755TIP3    H132824   2.397   0.139   5.771
 3755TIP3    H232825   2.424   0.105   5.916
 3756TIP3   OH232826   4.353   4.438   1.240
 3756TIP3    H132827   4.329   4.359   1.288
 3756TIP3    H232828   4.448   4.432   1.230
 3757TIP3   OH232829   6.766   5.558   7.040
 3757TIP3    H132830   0.027   5.528   6.958
 3757TIP3    H232831   6.690   5.610   7.014
 3758TIP3   OH232832   2.449   3.515   7.306
 3758TIP3    H132833   2.378   3.528   7.243
 3758TIP3    H232834   2.465   3.602   7.343
 3759TIP3   OH232835   1.988   3.622   8.309
 3759TIP3    H132836   2.024   3.544   8.266
 3759TIP3    H232837   2.041   3.694   8.275
 3760TIP3   OH232838   1.266   4.244   7.759
 3760TIP3    H132839   1.341   4.194   7.724
 3760TIP3    H232840   1.204   4.248   7.686
 3761TIP3   OH232841   1.862   4.925   2.411
 3761TIP3    H132842   1.876   4.839   2.450
 3761TIP3    H232843   1.949   4.964   2.408
 3762TIP3   OH232844   5.835   1.843   1.617
 3762TIP3    H132845   5.898   1.848   1.545
 3762TIP3    H232846   5.829   1.750   1.637
 3763TIP3   OH232847   3.754   1.277   0.626
 3763TIP3    H132848   3.839   1.310   0.656
 3763TIP3    H232849   3.776   1.217   0.555
 3764TIP3   OH232850   1.056   1.928   6.240
 3764TIP3    H132851   1.019   1.845   6.209
 3764TIP3    H232852   1.149   1.922   6.218
 3765TIP3   OH232853   2.154   2.307   8.609
 3765TIP3    H132854   2.152   2.298   8.513
 3765TIP3    H232855   2.145   2.401   8.625
 3766TIP3   OH232856   0.427   1.586   0.932
 3766TIP3    H132857   0.478   1.517   0.975
 3766TIP3    H232858   0.430   1.563   0.839
 3767TIP3   OH232859   6.495   4.418   6.806
 3767TIP3    H132860   6.476   4.442   6.897
 3767TIP3    H232861   6.437   4.474   6.755
 3768TIP3   OH232862   0.573   5.747   6.658
 3768TIP3    H132863   0.526   5.787   6.585
 3768TIP3    H232864   0.554   5.653   6.650
 3769TIP3   OH232865   4.367   3.521   0.859
 3769TIP3    H132866   4.357   3.530   0.954
 3769TIP3    H232867   4.448   3.568   0.838
 3770TIP3   OH232868   2.065   1.722   7.936
 3770TIP3    H132869   2.015   1.673   7.871
 3770TIP3    H232870   2.021   1.807   7.940
 3771TIP3   OH232871   0.239   6.026   1.155
 3771TIP3    H132872   0.253   5.985   1.241
 3771TIP3    H232873   0.145   6.023   1.142
 3772TIP3   OH232874   5.307   3.959   2.565
 3772TIP3    H132875   5.282   4.026   2.629
 3772TIP3    H232876   5.263   3.985   2.484
 3773TIP3   OH232877   5.814   1.150   0.979
 3773TIP3    H132878   5.858   1.088   0.922
 3773TIP3    H232879   5.877   1.169   1.048
 3774TIP3   OH232880   5.926   3.449   8.447
 3774TIP3    H132881   6.000   3.503   8.421
 3774TIP3    H232882   5.935   3.440   8.542
 3775TIP3   OH232883   0.766   6.358   1.720
 3775TIP3    H132884   0.796   6.378   1.632
 3775TIP3    H232885   0.845   6.349   1.772
 3776TIP3   OH232886   0.046   0.156   8.469
 3776TIP3    H132887   0.116   0.192   8.523
 3776TIP3    H232888   0.053   0.201   8.385
 3777TIP3   OH232889   2.212   0.661   7.685
 3777TIP3    H132890   2.221   0.650   7.779
 3777TIP3    H232891   2.204   0.572   7.651
 3778TIP3   OH232892   1.662   5.180   7.631
 3778TIP3    H132893   1.633   5.252   7.687
 3778TIP3    H232894   1.599   5.177   7.560
 3779TIP3   OH232895   1.419   4.979   1.132
 3779TIP3    H132896   1.464   4.949   1.212
 3779TIP3    H232897   1.450   5.069   1.121
 3780TIP3   OH232898   1.825   1.310   8.656
 3780TIP3    H132899   1.825   1.397   8.615
 3780TIP3    H232900   1.860   1.252   8.590
 3781TIP3   OH232901   0.032   3.909   8.226
 3781TIP3    H132902   6.730   3.964   8.220
 3781TIP3    H232903   0.079   3.927   8.144
 3782TIP3   OH232904   0.900   0.221   6.490
 3782TIP3    H132905   0.825   0.266   6.530
 3782TIP3    H232906   0.866   0.189   6.407
 3783TIP3   OH232907   1.997   0.159   0.218
 3783TIP3    H132908   2.073   0.216   0.214
 3783TIP3    H232909   1.966   0.166   0.308
 3784TIP3   OH232910   0.626   4.541   8.465
 3784TIP3    H132911   0.705   4.584   8.497
 3784TIP3    H232912   0.641   4.448   8.481
 3785TIP3   OH232913   4.349   4.650   0.887
 3785TIP3    H132914   4.360   4.744   0.897
 3785TIP3    H232915   4.255   4.639   0.868
 3786TIP3   OH232916   0.545   0.445   0.405
 3786TIP3    H132917   0.467   0.401   0.440
 3786TIP3    H232918   0.617   0.411   0.458
 3787TIP3   OH232919   6.590   6.693   2.383
 3787TIP3    H132920   6.541   6.723   2.307
 3787TIP3    H232921   6.665   6.752   2.388
 3788TIP3   OH232922   2.771   6.108   8.644
 3788TIP3    H132923   2.862   6.114   8.675
 3788TIP3    H232924   2.719   6.151   8.712
 3789TIP3   OH232925   2.192   1.218   6.390
 3789TIP3    H132926   2.251   1.192   6.460
 3789TIP3    H232927   2.188   1.314   6.395
 3790TIP3   OH232928   0.236   6.732   1.360
 3790TIP3    H132929   0.267   0.015   1.428
 3790TIP3    H232930   0.252   6.645   1.395
 3791TIP3   OH232931   1.083   1.093   1.315
 3791TIP3    H132932   1.134   1.105   1.235
 3791TIP3    H232933   1.130   1.144   1.381
 3792TIP3   OH232934   3.345   1.361   0.993
 3792TIP3    H132935   3.417   1.422   1.011
 3792TIP3    H232936   3.371   1.317   0.912
 3793TIP3   OH232937   4.563   2.499   8.286
 3793TIP3    H132938   4.485   2.551   8.268
 3793TIP3    H232939   4.636   2.557   8.265
 3794TIP3   OH232940   1.515   6.332   8.441
 3794TIP3    H132941   1.544   6.419   8.416
 3794TIP3    H232942   1.426   6.345   8.473
 3795TIP3   OH232943   3.759   6.614   1.966
 3795TIP3    H132944   3.724   6.594   2.053
 3795TIP3    H232945   3.838   6.561   1.960
 3796TIP3   OH232946   1.534   2.440   8.493
 3796TIP3    H132947   1.467   2.506   8.511
 3796TIP3    H232948   1.487   2.369   8.450
 3797TIP3   OH232949   3.672   6.026   1.350
 3797TIP3    H132950   3.748   6.020   1.292
 3797TIP3    H232951   3.604   6.066   1.296
 3798TIP3   OH232952   3.950   2.643   7.348
 3798TIP3    H132953   3.900   2.720   7.320
 3798TIP3    H232954   3.890   2.570   7.334
 3799TIP3   OH232955   1.152   2.002   1.785
 3799TIP3    H132956   1.129   1.960   1.702
 3799TIP3    H232957   1.194   1.932   1.835
 3800TIP3   OH232958   6.371   0.369   1.901
 3800TIP3    H132959   6.420   0.315   1.839
 3800TIP3    H232960   6.406   0.344   1.987
 3801TIP3   OH232961   0.669   0.811   0.818
 3801TIP3    H132962   0.761   0.813   0.844
 3801TIP3    H232963   0.645   0.719   0.821
 3802TIP3   OH232964   1.259   3.829   1.439
 3802TIP3    H132965   1.251   3.872   1.524
 3802TIP3    H232966   1.266   3.736   1.460
 3803TIP3   OH232967   0.227   5.870   7.164
 3803TIP3    H132968   0.139   5.864   7.128
 3803TIP3    H232969   0.245   5.964   7.168
 3804TIP3   OH232970   3.511   3.587   8.844
 3804TIP3    H132971   3.551   3.630   8.769
 3804TIP3    H232972   3.528   3.646   0.004
 3805TIP3   OH232973   5.616   2.637   7.034
 3805TIP3    H132974   5.606   2.717   6.982
 3805TIP3    H232975   5.577   2.568   6.981
 3806TIP3   OH232976   5.670   3.360   7.746
 3806TIP3    H132977   5.581   3.327   7.735
 3806TIP3    H232978   5.722   3.282   7.762
 3807TIP3   OH232979   4.743   2.899   8.713
 3807TIP3    H132980   4.654   2.872   8.738
 3807TIP3    H232981   4.768   2.962   8.781
 3808TIP3   OH232982   4.201   0.613   7.668
 3808TIP3    H132983   4.259   0.584   7.738
 3808TIP3    H232984   4.260   0.650   7.602
 3809TIP3   OH232985   4.708   0.238   7.609
 3809TIP3    H132986   4.647   0.188   7.556
 3809TIP3    H232987   4.741   0.174   7.673
 3810TIP3   OH232988   3.587   1.483   0.702
 3810TIP3    H132989   3.636   1.565   0.699
 3810TIP3    H232990   3.652   1.415   0.686
 3811TIP3   OH232991   6.665   3.267   0.379
 3811TIP3    H132992   6.626   3.180   0.372
 3811TIP3    H232993   6.606   3.316   0.436
 3812TIP3   OH232994   4.844   0.882   1.481
 3812TIP3    H132995   4.828   0.976   1.467
 3812TIP3    H232996   4.932   0.867   1.447
 3813TIP3   OH232997   1.920   0.235   6.930
 3813TIP3    H132998   1.994   0.261   6.985
 3813TIP3    H232999   1.959   0.219   6.844
 3814TIP3   OH233000   4.903   3.943   1.057
 3814TIP3    H133001   4.967   4.004   1.094
 3814TIP3    H233002   4.954   3.864   1.038
 3815TIP3   OH233003   6.429   1.727   7.522
 3815TIP3    H133004   6.511   1.678   7.528
 3815TIP3    H233005   6.400   1.738   7.612
 3816TIP3   OH233006   5.206   1.483   7.568
 3816TIP3    H133007   5.165   1.403   7.599
 3816TIP3    H233008   5.284   1.492   7.623
 3817TIP3   OH233009   0.419   5.091   6.358
 3817TIP3    H133010   0.513   5.107   6.363
 3817TIP3    H233011   0.386   5.116   6.445
 3818TIP3   OH233012   0.550   6.437   1.360
 3818TIP3    H133013   0.525   6.464   1.449
 3818TIP3    H233014   0.581   6.347   1.370
 3819TIP3   OH233015   0.789   5.833   1.902
 3819TIP3    H133016   0.829   5.899   1.846
 3819TIP3    H233017   0.833   5.844   1.987
 3820TIP3   OH233018   5.464   6.239   8.788
 3820TIP3    H133019   5.469   6.327   8.824
 3820TIP3    H233020   5.539   6.232   8.729
 3821TIP3   OH233021   1.157   4.613   8.159
 3821TIP3    H133022   1.067   4.613   8.126
 3821TIP3    H233023   1.211   4.599   8.081
 3822TIP3   OH233024   5.067   6.017   8.324
 3822TIP3    H133025   4.999   5.970   8.373
 3822TIP3    H233026   5.123   6.056   8.391
 3823TIP3   OH233027   5.264   1.279   1.884
 3823TIP3    H133028   5.232   1.367   1.865
 3823TIP3    H233029   5.355   1.292   1.913
 3824TIP3   OH233030   0.674   0.229   7.290
 3824TIP3    H133031   0.711   0.272   7.213
 3824TIP3    H233032   0.739   0.244   7.359
 3825TIP3   OH233033   0.057   5.335   2.086
 3825TIP3    H133034   0.146   5.367   2.100
 3825TIP3    H233035   0.058   5.299   1.997
 3826TIP3   OH233036   5.452   4.861   7.953
 3826TIP3    H133037   5.370   4.814   7.939
 3826TIP3    H233038   5.508   4.799   7.999
 3827TIP3   OH233039   0.819   3.606   0.909
 3827TIP3    H133040   0.794   3.516   0.929
 3827TIP3    H233041   0.744   3.659   0.935
 3828TIP3   OH233042   2.218   4.847   6.930
 3828TIP3    H133043   2.141   4.834   6.875
 3828TIP3    H233044   2.209   4.936   6.964
 3829TIP3   OH233045   2.087   3.335   6.929
 3829TIP3    H133046   2.118   3.277   6.998
 3829TIP3    H233047   2.075   3.278   6.853
 3830TIP3   OH233048   4.824   1.240   0.750
 3830TIP3    H133049   4.812   1.145   0.754
 3830TIP3    H233050   4.864   1.262   0.834
 3831TIP3   OH233051   4.313   0.319   0.578
 3831TIP3    H133052   4.353   0.406   0.582
 3831TIP3    H233053   4.249   0.324   0.508
 3832TIP3   OH233054   1.494   6.733   7.119
 3832TIP3    H133055   1.448   0.023   7.067
 3832TIP3    H233056   1.541   6.680   7.054
 3833TIP3   OH233057   4.289   0.652   2.572
 3833TIP3    H133058   4.260   0.577   2.625
 3833TIP3    H233059   4.375   0.626   2.540
 3834TIP3   OH233060   3.978   4.558   0.058
 3834TIP3    H133061   3.959   4.639   0.105
 3834TIP3    H233062   3.892   4.519   0.041
 3835TIP3   OH233063   4.000   5.729   8.701
 3835TIP3    H133064   3.910   5.737   8.733
 3835TIP3    H233065   4.007   5.638   8.671
 3836TIP3   OH233066   4.491   3.412   7.397
 3836TIP3    H133067   4.416   3.400   7.456
 3836TIP3    H233068   4.462   3.378   7.313
 3837TIP3   OH233069   6.549   4.837   0.504
 3837TIP3    H133070   6.608   4.797   0.440
 3837TIP3    H233071   6.551   4.931   0.482
 3838TIP3   OH233072   0.617   2.275   7.881
 3838TIP3    H133073   0.560   2.340   7.921
 3838TIP3    H233074   0.701   2.319   7.870
 3839TIP3   OH233075   1.543   5.712   0.336
 3839TIP3    H133076   1.530   5.655   0.260
 3839TIP3    H233077   1.631   5.690   0.368
 3840TIP3   OH233078   3.975   2.411   1.957
 3840TIP3    H133079   3.958   2.449   2.043
 3840TIP3    H233080   3.888   2.402   1.918
 3841TIP3   OH233081   0.314   4.419   0.294
 3841TIP3    H133082   0.395   4.377   0.263
 3841TIP3    H233083   0.250   4.348   0.295
 3842TIP3   OH233084   5.657   6.064   0.165
 3842TIP3    H133085   5.745   6.088   0.136
 3842TIP3    H233086   5.636   5.985   0.115
 3843TIP3   OH233087   0.846   2.588   0.876
 3843TIP3    H133088   0.843   2.683   0.868
 3843TIP3    H233089   0.904   2.572   0.950
 3844TIP3   OH233090   4.719   5.959   0.153
 3844TIP3    H133091   4.696   6.042   0.111
 3844TIP3    H233092   4.671   5.892   0.103
 3845TIP3   OH233093   4.979   5.345   1.078
 3845TIP3    H133094   5.024   5.272   1.035
 3845TIP3    H233095   5.002   5.421   1.025
 3846TIP3   OH233096   2.420   5.969   0.474
 3846TIP3    H133097   2.501   5.922   0.456
 3846TIP3    H233098   2.385   5.927   0.553
 3847TIP3   OH233099   6.186   5.100   2.059
 3847TIP3    H133100   6.123   5.120   2.129
 3847TIP3    H233101   6.237   5.180   2.049
 3848TIP3   OH233102   3.114   3.255   1.994
 3848TIP3    H133103   3.149   3.280   1.908
 3848TIP3    H233104   3.019   3.265   1.985
 3849TIP3   OH233105   6.534   1.101   0.150
 3849TIP3    H133106   6.448   1.062   0.165
 3849TIP3    H233107   6.525   1.192   0.179
 3850TIP3   OH233108   4.909   2.450   7.907
 3850TIP3    H133109   4.827   2.434   7.953
 3850TIP3    H233110   4.903   2.541   7.878
 3851TIP3   OH233111   0.598   0.130   8.404
 3851TIP3    H133112   0.534   0.200   8.421
 3851TIP3    H233113   0.682   0.175   8.405
 3852TIP3   OH233114   3.044   1.965   0.480
 3852TIP3    H133115   2.985   1.921   0.541
 3852TIP3    H233116   2.996   1.969   0.398
 3853TIP3   OH233117   2.019   2.541   7.919
 3853TIP3    H133118   2.108   2.575   7.920
 3853TIP3    H233119   2.006   2.510   7.830
 3854TIP3   OH233120   2.869   1.958   1.726
 3854TIP3    H133121   2.912   1.926   1.805
 3854TIP3    H233122   2.888   1.892   1.660
 3855TIP3   OH233123   5.990   6.647   0.731
 3855TIP3    H133124   5.903   6.670   0.700
 3855TIP3    H233125   6.017   6.722   0.783
 3856TIP3   OH233126   4.341   4.927   0.901
 3856TIP3    H133127   4.285   5.004   0.902
 3856TIP3    H233128   4.405   4.942   0.971
 3857TIP3   OH233129   6.329   4.249   7.619
 3857TIP3    H133130   6.372   4.263   7.704
 3857TIP3    H233131   6.248   4.203   7.641
 3858TIP3   OH233132   2.602   4.876   8.287
 3858TIP3    H133133   2.537   4.842   8.226
 3858TIP3    H233134   2.650   4.942   8.238
 3859TIP3   OH233135   0.273   2.852   6.912
 3859TIP3    H133136   0.364   2.844   6.883
 3859TIP3    H233137   0.230   2.902   6.843
 3860TIP3   OH233138   2.869   4.468   2.343
 3860TIP3    H133139   2.949   4.493   2.390
 3860TIP3    H233140   2.899   4.409   2.274
 3861TIP3   OH233141   0.449   5.507   6.553
 3861TIP3    H133142   0.373   5.452   6.568
 3861TIP3    H233143   0.443   5.531   6.461
 3862TIP3   OH233144   0.637   5.072   8.745
 3862TIP3    H133145   0.622   5.030   8.661
 3862TIP3    H233146   0.696   5.145   8.725
 3863TIP3   OH233147   5.756   3.435   1.137
 3863TIP3    H133148   5.666   3.407   1.154
 3863TIP3    H233149   5.775   3.401   1.049
 3864TIP3   OH233150   5.427   2.162   1.835
 3864TIP3    H133151   5.488   2.136   1.905
 3864TIP3    H233152   5.478   2.219   1.778
 3865TIP3   OH233153   3.833   0.125   0.997
 3865TIP3    H133154   3.782   0.130   0.916
 3865TIP3    H233155   3.890   0.049   0.985
 3866TIP3   OH233156   5.086   5.040   6.985
 3866TIP3    H133157   5.072   5.134   6.975
 3866TIP3    H233158   5.025   5.000   6.924
 3867TIP3   OH233159   6.513   5.544   6.749
 3867TIP3    H133160   6.595   5.537   6.799
 3867TIP3    H233161   6.492   5.638   6.752
 3868TIP3   OH233162   2.947   3.659   0.419
 3868TIP3    H133163   2.922   3.653   0.327
 3868TIP3    H233164   2.942   3.753   0.439
 3869TIP3   OH233165   3.381   1.084   2.456
 3869TIP3    H133166   3.295   1.050   2.434
 3869TIP3    H233167   3.378   1.099   2.550
 3870TIP3   OH233168   0.618   5.288   7.532
 3870TIP3    H133169   0.659   5.225   7.473
 3870TIP3    H233170   0.601   5.237   7.612
 3871TIP3   OH233171   5.384   1.997   8.060
 3871TIP3    H133172   5.425   1.945   8.129
 3871TIP3    H233173   5.375   1.936   7.986
 3872TIP3   OH233174   2.003   2.369   1.891
 3872TIP3    H133175   2.021   2.361   1.985
 3872TIP3    H233176   2.015   2.462   1.872
 3873TIP3   OH233177   1.799   1.883   2.200
 3873TIP3    H133178   1.762   1.880   2.112
 3873TIP3    H233179   1.726   1.860   2.258
 3874TIP3   OH233180   1.673   1.056   1.685
 3874TIP3    H133181   1.626   1.063   1.769
 3874TIP3    H233182   1.690   1.147   1.660
 3875TIP3   OH233183   2.638   4.016   7.396
 3875TIP3    H133184   2.732   4.025   7.414
 3875TIP3    H233185   2.611   4.104   7.368
 3876TIP3   OH233186   0.007   6.347   0.269
 3876TIP3    H133187   6.756   6.438   0.253
 3876TIP3    H233188   0.037   6.315   0.184
 3877TIP3   OH233189   6.528   4.409   1.121
 3877TIP3    H133190   6.596   4.447   1.065
 3877TIP3    H233191   6.505   4.326   1.078
 3878TIP3   OH233192   0.313   2.286   6.565
 3878TIP3    H133193   0.274   2.333   6.491
 3878TIP3    H233194   0.404   2.313   6.566
 3879TIP3   OH233195   2.940   4.196   8.689
 3879TIP3    H133196   2.911   4.264   8.628
 3879TIP3    H233197   3.015   4.235   8.734
 3880TIP3   OH233198   3.837   3.208   8.126
 3880TIP3    H133199   3.881   3.195   8.042
 3880TIP3    H233200   3.907   3.221   8.189
 3881TIP3   OH233201   4.718   5.745   0.648
 3881TIP3    H133202   4.659   5.786   0.711
 3881TIP3    H233203   4.670   5.668   0.616
 3882TIP3   OH233204   5.144   4.403   8.792
 3882TIP3    H133205   5.162   4.443   8.877
 3882TIP3    H233206   5.083   4.332   8.811
 3883TIP3   OH233207   4.024   5.008   0.262
 3883TIP3    H133208   4.079   4.960   0.324
 3883TIP3    H233209   4.042   4.967   0.177
 3884TIP3   OH233210   3.733   3.789   7.754
 3884TIP3    H133211   3.672   3.717   7.767
 3884TIP3    H233212   3.763   3.780   7.664
 3885TIP3   OH233213   1.701   1.338   1.609
 3885TIP3    H133214   1.632   1.401   1.586
 3885TIP3    H233215   1.723   1.296   1.525
 3886TIP3   OH233216   2.897   0.817   1.168
 3886TIP3    H133217   2.854   0.733   1.152
 3886TIP3    H233218   2.951   0.802   1.245
 3887TIP3   OH233219   0.287   1.087   7.639
 3887TIP3    H133220   0.330   1.163   7.600
 3887TIP3    H233221   0.314   1.013   7.585
 3888TIP3   OH233222   0.365   0.020   8.812
 3888TIP3    H133223   0.311   6.753   8.877
 3888TIP3    H233224   0.349   0.113   8.826
 3889TIP3   OH233225   0.845   5.673   1.062
 3889TIP3    H133226   0.786   5.598   1.053
 3889TIP3    H233227   0.787   5.749   1.057
 3890TIP3   OH233228   5.655   3.440   1.799
 3890TIP3    H133229   5.693   3.430   1.886
 3890TIP3    H233230   5.606   3.522   1.803
 3891TIP3   OH233231   1.871   1.435   8.010
 3891TIP3    H133232   1.921   1.494   8.065
 3891TIP3    H233233   1.889   1.463   7.920
 3892TIP3   OH233234   5.136   1.451   1.248
 3892TIP3    H133235   5.085   1.397   1.188
 3892TIP3    H233236   5.079   1.464   1.324
 3893TIP3   OH233237   4.983   3.627   0.496
 3893TIP3    H133238   5.065   3.608   0.451
 3893TIP3    H233239   4.940   3.693   0.442
 3894TIP3   OH233240   4.430   2.582   0.532
 3894TIP3    H133241   4.507   2.535   0.564
 3894TIP3    H233242   4.385   2.518   0.476
 3895TIP3   OH233243   5.868   6.414   1.835
 3895TIP3    H133244   5.940   6.367   1.878
 3895TIP3    H233245   5.866   6.499   1.879
 3896TIP3   OH233246   0.755   2.197   2.424
 3896TIP3    H133247   0.760   2.221   2.332
 3896TIP3    H233248   0.696   2.262   2.463
 3897TIP3   OH233249   6.325   1.227   1.163
 3897TIP3    H133250   6.385   1.289   1.122
 3897TIP3    H233251   6.381   1.163   1.207
 3898TIP3   OH233252   4.650   4.408   7.538
 3898TIP3    H133253   4.603   4.324   7.543
 3898TIP3    H233254   4.720   4.393   7.474
 3899TIP3   OH233255   6.757   4.828   8.533
 3899TIP3    H133256   0.025   4.748   8.558
 3899TIP3    H233257   6.693   4.800   8.467
 3900TIP3   OH233258   2.404   3.313   6.952
 3900TIP3    H133259   2.335   3.280   7.009
 3900TIP3    H233260   2.485   3.293   6.999
 3901TIP3   OH233261   5.048   1.087   0.190
 3901TIP3    H133262   4.988   1.051   0.255
 3901TIP3    H233263   5.113   1.018   0.176
 3902TIP3   OH233264   2.828   6.160   0.943
 3902TIP3    H133265   2.753   6.120   0.900
 3902TIP3    H233266   2.904   6.129   0.894
 3903TIP3   OH233267   1.340   1.257   2.057
 3903TIP3    H133268   1.379   1.316   2.122
 3903TIP3    H233269   1.412   1.200   2.032
 3904TIP3   OH233270   3.231   1.708   0.061
 3904TIP3    H133271   3.214   1.644   0.131
 3904TIP3    H233272   3.241   1.791   0.106
 3905TIP3   OH233273   3.691   5.166   0.746
 3905TIP3    H133274   3.637   5.087   0.748
 3905TIP3    H233275   3.781   5.134   0.748
 3906TIP3   OH233276   5.642   0.502   1.008
 3906TIP3    H133277   5.700   0.567   1.049
 3906TIP3    H233278   5.702   0.439   0.967
 3907TIP3   OH233279   2.536   3.489   0.209
 3907TIP3    H133280   2.478   3.562   0.190
 3907TIP3    H233281   2.594   3.521   0.278
 3908TIP3   OH233282   4.598   4.589   1.466
 3908TIP3    H133283   4.619   4.574   1.374
 3908TIP3    H233284   4.681   4.614   1.506
 3909TIP3   OH233285   2.627   6.426   0.602
 3909TIP3    H133286   2.553   6.477   0.634
 3909TIP3    H233287   2.589   6.340   0.581
 3910TIP3   OH233288   1.613   0.644   2.130
 3910TIP3    H133289   1.579   0.728   2.098
 3910TIP3    H233290   1.536   0.588   2.136
 3911TIP3   OH233291   0.512   2.459   7.399
 3911TIP3    H133292   0.598   2.446   7.439
 3911TIP3    H233293   0.515   2.407   7.318
 3912TIP3   OH233294   5.382   2.109   0.998
 3912TIP3    H133295   5.294   2.104   0.960
 3912TIP3    H233296   5.368   2.125   1.091
 3913TIP3   OH233297   2.912   2.864   0.207
 3913TIP3    H133298   2.894   2.882   0.115
 3913TIP3    H233299   2.916   2.769   0.213
 3914TIP3   OH233300   3.612   2.155   8.030
 3914TIP3    H133301   3.643   2.243   8.011
 3914TIP3    H233302   3.617   2.147   8.125
 3915TIP3   OH233303   4.024   5.689   1.987
 3915TIP3    H133304   4.093   5.717   2.046
 3915TIP3    H233305   4.069   5.635   1.921
 3916TIP3   OH233306   3.963   2.120   8.026
 3916TIP3    H133307   3.897   2.138   8.093
 3916TIP3    H233308   3.920   2.143   7.943
 3917TIP3   OH233309   1.682   4.011   0.384
 3917TIP3    H133310   1.678   3.956   0.462
 3917TIP3    H233311   1.644   4.095   0.412
 3918TIP3   OH233312   2.991   1.480   7.907
 3918TIP3    H133313   2.984   1.519   7.994
 3918TIP3    H233314   2.961   1.390   7.918
 3919TIP3   OH233315   2.150   6.480   8.595
 3919TIP3    H133316   2.167   6.475   8.501
 3919TIP3    H233317   2.060   6.450   8.605
 3920TIP3   OH233318   2.292   1.024   1.698
 3920TIP3    H133319   2.261   0.935   1.714
 3920TIP3    H233320   2.362   1.014   1.634
 3921TIP3   OH233321   5.600   0.717   8.716
 3921TIP3    H133322   5.525   0.662   8.693
 3921TIP3    H233323   5.613   0.774   8.640
 3922TIP3   OH233324   1.181   5.342   0.181
 3922TIP3    H133325   1.147   5.303   0.262
 3922TIP3    H233326   1.181   5.436   0.198
 3923TIP3   OH233327   0.602   3.401   8.467
 3923TIP3    H133328   0.519   3.375   8.508
 3923TIP3    H233329   0.577   3.430   8.379
 3924TIP3   OH233330   3.762   6.180   7.275
 3924TIP3    H133331   3.780   6.110   7.212
 3924TIP3    H233332   3.847   6.201   7.313
 3925TIP3   OH233333   6.024   1.066   6.740
 3925TIP3    H133334   6.090   1.080   6.808
 3925TIP3    H233335   6.049   1.127   6.671
 3926TIP3   OH233336   0.386   0.767   8.811
 3926TIP3    H133337   0.322   0.786   8.742
 3926TIP3    H233338   0.450   0.709   8.769
 3927TIP3   OH233339   0.675   5.113   2.281
 3927TIP3    H133340   0.692   5.140   2.191
 3927TIP3    H233341   0.763   5.098   2.317
 3928TIP3   OH233342   4.704   2.388   1.950
 3928TIP3    H133343   4.673   2.470   1.988
 3928TIP3    H233344   4.625   2.349   1.912
 3929TIP3   OH233345   5.608   6.519   1.291
 3929TIP3    H133346   5.578   6.610   1.295
 3929TIP3    H233347   5.544   6.470   1.342
 3930TIP3   OH233348   6.229   4.739   6.714
 3930TIP3    H133349   6.191   4.742   6.802
 3930TIP3    H233350   6.251   4.647   6.700
 3931TIP3   OH233351   6.690   6.353   0.944
 3931TIP3    H133352   6.632   6.424   0.918
 3931TIP3    H233353   6.634   6.275   0.946
 3932TIP3   OH233354   6.055   5.720   0.877
 3932TIP3    H133355   6.012   5.641   0.910
 3932TIP3    H233356   6.148   5.697   0.875
 3933TIP3   OH233357   1.686   1.563   2.224
 3933TIP3    H133358   1.769   1.591   2.186
 3933TIP3    H233359   1.710   1.502   2.293
 3934TIP3   OH233360   6.764   0.693   6.424
 3934TIP3    H133361   0.046   0.627   6.388
 3934TIP3    H233362   6.677   0.652   6.420
 3935TIP3   OH233363   0.573   2.130   7.097
 3935TIP3    H133364   0.546   2.141   7.006
 3935TIP3    H233365   0.491   2.137   7.147
 3936TIP3   OH233366   1.841   4.657   1.436
 3936TIP3    H133367   1.882   4.744   1.436
 3936TIP3    H233368   1.759   4.669   1.484
 3937TIP3   OH233369   1.946   0.297   1.445
 3937TIP3    H133370   1.955   0.214   1.397
 3937TIP3    H233371   1.991   0.282   1.528
 3938TIP3   OH233372   4.100   2.875   8.095
 3938TIP3    H133373   4.054   2.882   8.011
 3938TIP3    H233374   4.040   2.825   8.150
 3939TIP3   OH233375   0.724   5.174   7.975
 3939TIP3    H133376   0.760   5.244   8.030
 3939TIP3    H233377   0.778   5.097   7.995
 3940TIP3   OH233378   4.385   2.211   7.152
 3940TIP3    H133379   4.440   2.150   7.200
 3940TIP3    H233380   4.365   2.167   7.069
 3941TIP3   OH233381   3.676   2.070   8.490
 3941TIP3    H133382   3.617   2.145   8.479
 3941TIP3    H233383   3.618   1.998   8.517
 3942TIP3   OH233384   4.045   4.118   0.547
 3942TIP3    H133385   4.026   4.210   0.568
 3942TIP3    H233386   4.118   4.095   0.606
 3943TIP3   OH233387   5.222   6.723   6.570
 3943TIP3    H133388   5.175   6.738   6.488
 3943TIP3    H233389   5.291   0.013   6.570
 3944TIP3   OH233390   5.095   5.905   0.102
 3944TIP3    H133391   5.181   5.923   0.063
 3944TIP3    H233392   5.045   5.985   0.088
 3945TIP3   OH233393   3.061   5.242   8.502
 3945TIP3    H133394   3.035   5.158   8.540
 3945TIP3    H233395   3.012   5.308   8.553
 3946TIP3   OH233396   3.029   4.886   1.641
 3946TIP3    H133397   3.008   4.876   1.734
 3946TIP3    H233398   2.947   4.916   1.601
 3947TIP3   OH233399   3.035   2.107   0.788
 3947TIP3    H133400   2.951   2.078   0.754
 3947TIP3    H233401   3.094   2.033   0.774
 3948TIP3   OH233402   0.341   3.124   8.338
 3948TIP3    H133403   0.414   3.142   8.279
 3948TIP3    H233404   0.268   3.102   8.280
 3949TIP3   OH233405   2.340   1.464   7.213
 3949TIP3    H133406   2.376   1.447   7.300
 3949TIP3    H233407   2.406   1.518   7.170
 3950TIP3   OH233408   3.635   4.061   0.952
 3950TIP3    H133409   3.607   3.974   0.924
 3950TIP3    H233410   3.729   4.063   0.935
 3951TIP3   OH233411   1.615   5.927   6.334
 3951TIP3    H133412   1.661   5.845   6.353
 3951TIP3    H233413   1.630   5.982   6.411
 3952TIP3   OH233414   0.741   3.046   7.246
 3952TIP3    H133415   0.670   2.984   7.228
 3952TIP3    H233416   0.759   3.087   7.162
 3953TIP3   OH233417   3.054   0.277   0.720
 3953TIP3    H133418   3.127   0.244   0.773
 3953TIP3    H233419   3.065   0.372   0.720
 3954TIP3   OH233420   4.359   5.793   7.142
 3954TIP3    H133421   4.377   5.877   7.099
 3954TIP3    H233422   4.270   5.771   7.116
 3955TIP3   OH233423   6.667   3.334   6.273
 3955TIP3    H133424   6.590   3.358   6.221
 3955TIP3    H233425   6.703   3.257   6.228
 3956TIP3   OH233426   3.226   5.138   1.147
 3956TIP3    H133427   3.217   5.214   1.089
 3956TIP3    H233428   3.309   5.151   1.192
 3957TIP3   OH233429   1.035   2.316   8.584
 3957TIP3    H133430   0.973   2.269   8.528
 3957TIP3    H233431   1.112   2.330   8.529
 3958TIP3   OH233432   3.722   0.301   1.166
 3958TIP3    H133433   3.745   0.236   1.099
 3958TIP3    H233434   3.757   0.264   1.248
 3959TIP3   OH233435   3.930   2.551   0.298
 3959TIP3    H133436   4.019   2.522   0.281
 3959TIP3    H233437   3.916   2.532   0.391
 3960TIP3   OH233438   3.696   3.424   8.321
 3960TIP3    H133439   3.738   3.489   8.265
 3960TIP3    H233440   3.736   3.340   8.295
 3961TIP3   OH233441   3.380   1.311   2.288
 3961TIP3    H133442   3.414   1.247   2.351
 3961TIP3    H233443   3.287   1.289   2.280
 3962TIP3   OH233444   3.440   0.019   2.340
 3962TIP3    H133445   3.416   6.704   2.334
 3962TIP3    H233446   3.357   0.064   2.359
 3963TIP3   OH233447   1.396   6.016   7.142
 3963TIP3    H133448   1.451   6.014   7.219
 3963TIP3    H233449   1.324   6.075   7.164
 3964TIP3   OH233450   4.033   3.847   7.280
 3964TIP3    H133451   3.961   3.908   7.295
 3964TIP3    H233452   4.061   3.865   7.191
 3965TIP3   OH233453   1.634   5.056   0.762
 3965TIP3    H133454   1.684   5.062   0.844
 3965TIP3    H233455   1.544   5.074   0.788
 3966TIP3   OH233456   3.678   6.381   0.969
 3966TIP3    H133457   3.773   6.392   0.969
 3966TIP3    H233458   3.646   6.453   1.023
 3967TIP3   OH233459   0.637   3.377   6.552
 3967TIP3    H133460   0.724   3.355   6.584
 3967TIP3    H233461   0.621   3.466   6.582
 3968TIP3   OH233462   4.231   3.026   8.302
 3968TIP3    H133463   4.172   2.973   8.248
 3968TIP3    H233464   4.204   3.007   8.392
 3969TIP3   OH233465   3.097   4.428   1.436
 3969TIP3    H133466   3.172   4.372   1.456
 3969TIP3    H233467   3.109   4.505   1.492
 3970TIP3   OH233468   3.403   3.785   8.013
 3970TIP3    H133469   3.437   3.697   8.030
 3970TIP3    H233470   3.477   3.833   7.977
 3971TIP3   OH233471   0.142   2.242   6.779
 3971TIP3    H133472   0.200   2.263   6.706
 3971TIP3    H233473   0.071   2.192   6.740
 3972TIP3   OH233474   0.001   4.899   7.923
 3972TIP3    H133475   6.725   4.973   7.894
 3972TIP3    H233476   6.725   4.822   7.902
 3973TIP3   OH233477   3.968   0.959   1.955
 3973TIP3    H133478   3.978   0.952   2.050
 3973TIP3    H233479   3.879   0.929   1.938
 3974TIP3   OH233480   3.060   4.293   0.867
 3974TIP3    H133481   3.010   4.358   0.916
 3974TIP3    H233482   2.996   4.224   0.846
 3975TIP3   OH233483   4.960   1.167   8.853
 3975TIP3    H133484   4.873   1.200   8.875
 3975TIP3    H233485   4.993   1.132   0.022
 3976TIP3   OH233486   2.435   2.576   0.991
 3976TIP3    H133487   2.523   2.561   0.955
 3976TIP3    H233488   2.409   2.492   1.027
 3977TIP3   OH233489   1.844   1.477   8.895
 3977TIP3    H133490   1.886   1.409   8.842
 3977TIP3    H233491   1.751   1.457   8.890
 3978TIP3   OH233492   1.479   3.590   1.194
 3978TIP3    H133493   1.516   3.515   1.148
 3978TIP3    H233494   1.430   3.551   1.267
 3979TIP3   OH233495   5.510   5.656   6.465
 3979TIP3    H133496   5.523   5.650   6.560
 3979TIP3    H233497   5.552   5.738   6.440
 3980TIP3   OH233498   3.853   4.484   0.882
 3980TIP3    H133499   3.775   4.444   0.921
 3980TIP3    H233500   3.906   4.410   0.855
 3981TIP3   OH233501   3.991   6.672   8.389
 3981TIP3    H133502   4.042   6.745   8.422
 3981TIP3    H233503   3.989   6.609   8.462
 3982TIP3   OH233504   4.227   2.440   1.688
 3982TIP3    H133505   4.245   2.504   1.757
 3982TIP3    H233506   4.237   2.489   1.606
 3983TIP3   OH233507   2.258   4.574   0.130
 3983TIP3    H133508   2.223   4.505   0.073
 3983TIP3    H233509   2.333   4.534   0.174
 3984TIP3   OH233510   2.811   5.713   6.733
 3984TIP3    H133511   2.872   5.645   6.762
 3984TIP3    H233512   2.798   5.695   6.640
 3985TIP3   OH233513   6.163   3.726   0.838
 3985TIP3    H133514   6.087   3.691   0.884
 3985TIP3    H233515   6.126   3.778   0.766
 3986TIP3   OH233516   6.332   5.316   1.975
 3986TIP3    H133517   6.261   5.371   2.006
 3986TIP3    H233518   6.405   5.334   2.034
 3987TIP3   OH233519   4.484   6.340   8.453
 3987TIP3    H133520   4.416   6.309   8.513
 3987TIP3    H233521   4.484   6.277   8.382
 3988TIP3   OH233522   3.860   0.001   1.514
 3988TIP3    H133523   3.809   0.066   1.467
 3988TIP3    H233524   3.801   6.703   1.524
 3989TIP3   OH233525   6.077   0.666   8.384
 3989TIP3    H133526   6.151   0.726   8.395
 3989TIP3    H233527   6.117   0.583   8.357
 3990TIP3   OH233528   3.831   4.486   8.575
 3990TIP3    H133529   3.792   4.563   8.617
 3990TIP3    H233530   3.909   4.467   8.626
 3991TIP3   OH233531   1.068   3.831   7.977
 3991TIP3    H133532   1.024   3.909   8.010
 3991TIP3    H233533   1.061   3.838   7.881
 3992TIP3   OH233534   0.964   3.431   7.536
 3992TIP3    H133535   0.887   3.411   7.590
 3992TIP3    H233536   1.037   3.390   7.582
 3993TIP3   OH233537   6.148   6.643   2.123
 3993TIP3    H133538   6.241   6.655   2.104
 3993TIP3    H233539   6.133   6.697   2.200
 3994TIP3   OH233540   3.087   5.493   0.440
 3994TIP3    H133541   3.029   5.467   0.511
 3994TIP3    H233542   3.175   5.473   0.472
 3995TIP3   OH233543   0.735   6.128   2.438
 3995TIP3    H133544   0.788   6.182   2.495
 3995TIP3    H233545   0.746   6.039   2.471
 3996TIP3   OH233546   3.006   2.472   8.530
 3996TIP3    H133547   3.055   2.482   8.612
 3996TIP3    H233548   3.045   2.396   8.488
 3997TIP3   OH233549   3.485   3.043   1.636
 3997TIP3    H133550   3.409   3.019   1.688
 3997TIP3    H233551   3.560   3.017   1.689
 3998TIP3   OH233552   5.453   1.983   1.455
 3998TIP3    H133553   5.423   2.068   1.488
 3998TIP3    H233554   5.543   1.999   1.426
 3999TIP3   OH233555   4.762   4.116   7.968
 3999TIP3    H133556   4.737   4.183   7.904
 3999TIP3    H233557   4.857   4.122   7.973
 4000TIP3   OH233558   5.154   6.463   6.751
 4000TIP3    H133559   5.185   6.527   6.688
 4000TIP3    H233560   5.065   6.490   6.772
 4001TIP3   OH233561   4.149   0.487   8.486
 4001TIP3    H133562   4.242   0.500   8.500
 4001TIP3    H233563   4.109   0.510   8.570
 4002TIP3   OH233564   6.092   3.269   0.132
 4002TIP3    H133565   6.007   3.262   0.177
 4002TIP3    H233566   6.073   3.244   0.042
 4003TIP3   OH233567   1.836   4.809   0.176
 4003TIP3    H133568   1.932   4.809   0.172
 4003TIP3    H233569   1.817   4.821   0.269
 4004TIP3   OH233570   3.036   0.049   7.257
 4004TIP3    H133571   3.038   0.135   7.300
 4004TIP3    H233572   3.105   6.776   7.300
 4005TIP3   OH233573   4.876   1.455   7.539
 4005TIP3    H133574   4.925   1.393   7.486
 4005TIP3    H233575   4.921   1.539   7.527
 4006TIP3   OH233576   0.214   6.317   7.124
 4006TIP3    H133577   0.223   6.381   7.053
 4006TIP3    H233578   0.200   6.371   7.202
 4007TIP3   OH233579   3.910   1.750   2.707
 4007TIP3    H133580   3.998   1.788   2.713
 4007TIP3    H233581   3.851   1.825   2.704
 4008TIP3   OH233582   1.885   2.377   7.388
 4008TIP3    H133583   1.974   2.413   7.386
 4008TIP3    H233584   1.860   2.369   7.296
 4009TIP3   OH233585   2.488   4.914   0.609
 4009TIP3    H133586   2.577   4.937   0.634
 4009TIP3    H233587   2.435   4.935   0.686
 4010TIP3   OH233588   2.087   0.229   1.672
 4010TIP3    H133589   2.100   0.228   1.767
 4010TIP3    H233590   2.115   0.143   1.643
 4011TIP3   OH233591   1.383   5.552   1.496
 4011TIP3    H133592   1.422   5.546   1.583
 4011TIP3    H233593   1.456   5.541   1.436
 4012TIP3   OH233594   0.661   0.525   8.434
 4012TIP3    H133595   0.608   0.460   8.387
 4012TIP3    H233596   0.738   0.537   8.379
 4013TIP3   OH233597   5.161   4.966   1.302
 4013TIP3    H133598   5.160   4.967   1.398
 4013TIP3    H233599   5.145   4.875   1.279
 4014TIP3   OH233600   3.483   4.351   6.876
 4014TIP3    H133601   3.406   4.303   6.905
 4014TIP3    H233602   3.556   4.289   6.886
 4015TIP3   OH233603   6.440   5.666   7.670
 4015TIP3    H133604   6.404   5.628   7.589
 4015TIP3    H233605   6.526   5.626   7.679
 4016TIP3   OH233606   2.128   0.640   8.374
 4016TIP3    H133607   2.157   0.731   8.383
 4016TIP3    H233608   2.048   0.646   8.322
 4017TIP3   OH233609   5.295   1.097   6.706
 4017TIP3    H133610   5.378   1.083   6.660
 4017TIP3    H233611   5.289   1.193   6.715
 4018TIP3   OH233612   6.692   5.577   7.721
 4018TIP3    H133613   6.723   5.490   7.696
 4018TIP3    H233614   6.731   5.593   7.807
 4019TIP3   OH233615   2.379   0.832   2.237
 4019TIP3    H133616   2.358   0.788   2.319
 4019TIP3    H233617   2.456   0.885   2.257
 4020TIP3   OH233618   4.220   0.470   7.301
 4020TIP3    H133619   4.278   0.508   7.367
 4020TIP3    H233620   4.206   0.380   7.331
 4021TIP3   OH233621   3.617   2.975   0.077
 4021TIP3    H133622   3.663   2.936   0.152
 4021TIP3    H233623   3.553   2.909   0.051
 4022TIP3   OH233624   0.055   1.323   7.229
 4022TIP3    H133625   0.111   1.308   7.305
 4022TIP3    H233626   6.748   1.281   7.252
 4023TIP3   OH233627   6.746   0.410   1.289
 4023TIP3    H133628   0.048   0.422   1.236
 4023TIP3    H233629   6.776   0.422   1.379
 4024TIP3   OH233630   0.369   5.613   7.654
 4024TIP3    H133631   0.332   5.701   7.660
 4024TIP3    H233632   0.437   5.620   7.586
 4025TIP3   OH233633   5.025   6.408   2.329
 4025TIP3    H133634   5.107   6.425   2.376
 4025TIP3    H233635   4.956   6.432   2.392
 4026TIP3   OH233636   6.630   2.461   8.535
 4026TIP3    H133637   6.591   2.378   8.563
 4026TIP3    H233638   6.651   2.506   8.616
 4027TIP3   OH233639   0.537   6.033   1.565
 4027TIP3    H133640   0.534   6.003   1.656
 4027TIP3    H233641   0.453   6.006   1.529
 4028TIP3   OH233642   0.774   3.042   1.711
 4028TIP3    H133643   0.719   3.088   1.775
 4028TIP3    H233644   0.737   3.066   1.626
 4029TIP3   OH233645   0.412   3.507   8.282
 4029TIP3    H133646   0.440   3.519   8.191
 4029TIP3    H233647   0.374   3.592   8.306
 4030TIP3   OH233648   0.873   1.704   7.649
 4030TIP3    H133649   0.891   1.762   7.575
 4030TIP3    H233650   0.842   1.762   7.718
 4031TIP3   OH233651   0.460   2.017   0.008
 4031TIP3    H133652   0.454   2.079   8.849
 4031TIP3    H233653   0.479   2.071   0.084
 4032TIP3   OH233654   0.727   4.176   0.069
 4032TIP3    H133655   0.752   4.244   0.006
 4032TIP3    H233656   0.804   4.119   0.074
 4033TIP3   OH233657   1.290   1.527   0.354
 4033TIP3    H133658   1.213   1.472   0.340
 4033TIP3    H233659   1.311   1.562   0.268
 4034TIP3   OH233660   4.766   3.441   8.291
 4034TIP3    H133661   4.824   3.424   8.217
 4034TIP3    H233662   4.806   3.516   8.336
 4035TIP3   OH233663   1.538   4.691   7.269
 4035TIP3    H133664   1.603   4.676   7.200
 4035TIP3    H233665   1.540   4.611   7.321
 4036TIP3   OH233666   6.600   2.194   8.771
 4036TIP3    H133667   6.518   2.214   8.726
 4036TIP3    H233668   6.650   2.144   8.706
 4037TIP3   OH233669   4.056   6.707   0.097
 4037TIP3    H133670   3.971   6.692   0.056
 4037TIP3    H233671   4.109   6.632   0.071
 4038TIP3   OH233672   6.317   4.521   7.967
 4038TIP3    H133673   6.269   4.547   8.046
 4038TIP3    H233674   6.371   4.447   7.996
 4039TIP3   OH233675   5.134   1.251   7.154
 4039TIP3    H133676   5.053   1.204   7.136
 4039TIP3    H233677   5.105   1.338   7.182
 4040TIP3   OH233678   4.290   4.718   0.147
 4040TIP3    H133679   4.272   4.624   0.143
 4040TIP3    H233680   4.283   4.739   0.240
 4041TIP3   OH233681   6.497   3.925   0.769
 4041TIP3    H133682   6.539   3.839   0.779
 4041TIP3    H233683   6.448   3.937   0.849
 4042TIP3   OH233684   3.074   2.696   1.931
 4042TIP3    H133685   3.073   2.768   1.868
 4042TIP3    H233686   3.157   2.652   1.915
 4043TIP3   OH233687   0.405   0.203   1.135
 4043TIP3    H133688   0.399   0.292   1.168
 4043TIP3    H233689   0.334   0.156   1.179
 4044TIP3   OH233690   0.417   6.109   7.262
 4044TIP3    H133691   0.380   6.169   7.198
 4044TIP3    H233692   0.469   6.165   7.320
 4045TIP3   OH233693   2.066   1.035   1.422
 4045TIP3    H133694   2.145   1.027   1.475
 4045TIP3    H233695   2.029   0.947   1.420
 4046TIP3   OH233696   0.431   5.359   7.956
 4046TIP3    H133697   0.430   5.454   7.959
 4046TIP3    H233698   0.342   5.334   7.932
 4047TIP3   OH233699   1.868   6.462   8.586
 4047TIP3    H133700   1.795   6.515   8.617
 4047TIP3    H233701   1.858   6.377   8.630
 4048TIP3   OH233702   4.589   5.020   8.396
 4048TIP3    H133703   4.603   4.957   8.326
 4048TIP3    H233704   4.498   5.006   8.423
 4049TIP3   OH233705   0.409   4.981   6.951
 4049TIP3    H133706   0.486   5.036   6.963
 4049TIP3    H233707   0.441   4.905   6.902
 4050TIP3   OH233708   1.527   4.114   6.531
 4050TIP3    H133709   1.467   4.168   6.583
 4050TIP3    H233710   1.469   4.066   6.471
 4051TIP3   OH233711   5.388   0.897   1.559
 4051TIP3    H133712   5.435   0.979   1.574
 4051TIP3    H233713   5.453   0.838   1.520
 4052TIP3   OH233714   6.357   6.317   1.992
 4052TIP3    H133715   6.435   6.339   1.940
 4052TIP3    H233716   6.363   6.222   2.004
 4053TIP3   OH233717   5.903   0.902   7.419
 4053TIP3    H133718   5.993   0.890   7.448
 4053TIP3    H233719   5.854   0.832   7.462
 4054TIP3   OH233720   4.423   2.154   6.569
 4054TIP3    H133721   4.334   2.127   6.545
 4054TIP3    H233722   4.423   2.249   6.559
 4055TIP3   OH233723   5.795   1.878   1.227
 4055TIP3    H133724   5.740   1.801   1.242
 4055TIP3    H233725   5.860   1.849   1.163
 4056TIP3   OH233726   4.536   3.574   8.691
 4056TIP3    H133727   4.537   3.568   8.595
 4056TIP3    H233728   4.583   3.496   8.720
 4057TIP3   OH233729   4.260   3.049   1.616
 4057TIP3    H133730   4.315   3.086   1.546
 4057TIP3    H233731   4.293   3.089   1.696
 4058TIP3   OH233732   3.226   1.419   7.781
 4058TIP3    H133733   3.284   1.449   7.851
 4058TIP3    H233734   3.139   1.445   7.809
 4059TIP3   OH233735   1.062   0.581   1.465
 4059TIP3    H133736   1.155   0.559   1.468
 4059TIP3    H233737   1.056   0.654   1.404
 4060TIP3   OH233738   6.746   4.527   6.945
 4060TIP3    H133739   6.775   4.600   7.000
 4060TIP3    H233740   6.670   4.491   6.991
 4061TIP3   OH233741   1.364   2.110   7.854
 4061TIP3    H133742   1.412   2.098   7.936
 4061TIP3    H233743   1.285   2.057   7.865
 4062TIP3   OH233744   1.354   1.623   7.945
 4062TIP3    H133745   1.306   1.554   7.899
 4062TIP3    H233746   1.289   1.692   7.959
 4063TIP3   OH233747   2.182   0.441   8.210
 4063TIP3    H133748   2.116   0.375   8.232
 4063TIP3    H233749   2.178   0.504   8.281
 4064TIP3   OH233750   2.534   1.639   7.543
 4064TIP3    H133751   2.603   1.686   7.589
 4064TIP3    H233752   2.541   1.668   7.452
 4065TIP3   OH233753   6.066   0.451   8.880
 4065TIP3    H133754   6.065   0.421   0.057
 4065TIP3    H233755   6.009   0.390   8.833
 4066TIP3   OH233756   2.576   1.100   2.094
 4066TIP3    H133757   2.563   1.193   2.115
 4066TIP3    H233758   2.572   1.056   2.179
 4067TIP3   OH233759   2.863   2.643   1.507
 4067TIP3    H133760   2.772   2.672   1.502
 4067TIP3    H233761   2.898   2.659   1.419
 4068TIP3   OH233762   1.721   6.758   0.359
 4068TIP3    H133763   1.632   6.730   0.337
 4068TIP3    H233764   1.775   6.681   0.343
 4069TIP3   OH233765   0.565   1.260   0.615
 4069TIP3    H133766   0.626   1.281   0.544
 4069TIP3    H233767   0.619   1.214   0.679
 4070TIP3   OH233768   6.638   1.869   7.699
 4070TIP3    H133769   6.579   1.794   7.691
 4070TIP3    H233770   6.694   1.864   7.621
 4071TIP3   OH233771   3.376   1.991   8.252
 4071TIP3    H133772   3.374   1.961   8.343
 4071TIP3    H233773   3.419   1.920   8.204
 4072TIP3   OH233774   2.178   0.471   6.642
 4072TIP3    H133775   2.247   0.537   6.631
 4072TIP3    H233776   2.098   0.516   6.618
 4073TIP3   OH233777   3.128   2.135   7.680
 4073TIP3    H133778   3.090   2.191   7.612
 4073TIP3    H233779   3.055   2.080   7.709
 4074TIP3   OH233780   3.675   0.554   1.557
 4074TIP3    H133781   3.720   0.638   1.562
 4074TIP3    H233782   3.629   0.547   1.641
 4075TIP3   OH233783   5.970   2.336   0.947
 4075TIP3    H133784   6.064   2.324   0.933
 4075TIP3    H233785   5.939   2.251   0.977
 4076TIP3   OH233786   5.497   2.431   1.128
 4076TIP3    H133787   5.507   2.490   1.054
 4076TIP3    H233788   5.403   2.427   1.143
 4077TIP3   OH233789   2.945   6.030   2.203
 4077TIP3    H133790   3.040   6.025   2.208
 4077TIP3    H233791   2.925   6.121   2.224
 4078TIP3   OH233792   2.874   5.156   7.029
 4078TIP3    H133793   2.821   5.077   7.038
 4078TIP3    H233794   2.889   5.164   6.934
 4079TIP3   OH233795   1.141   3.761   8.577
 4079TIP3    H133796   1.092   3.827   8.529
 4079TIP3    H233797   1.107   3.678   8.545
 4080TIP3   OH233798   5.008   2.065   1.326
 4080TIP3    H133799   4.925   2.051   1.280
 4080TIP3    H233800   4.989   2.136   1.388
 4081TIP3   OH233801   4.166   2.120   2.847
 4081TIP3    H133802   4.117   2.139   2.927
 4081TIP3    H233803   4.214   2.201   2.828
 4082TIP3   OH233804   4.090   0.145   7.813
 4082TIP3    H133805   4.064   0.236   7.819
 4082TIP3    H233806   4.185   0.146   7.822
 4083TIP3   OH233807   6.599   2.992   7.015
 4083TIP3    H133808   6.504   2.999   7.004
 4083TIP3    H233809   6.620   3.055   7.084
 4084TIP3   OH233810   3.959   2.549   7.981
 4084TIP3    H133811   4.021   2.500   8.034
 4084TIP3    H233812   3.906   2.597   8.045
 4085TIP3   OH233813   6.313   4.211   1.008
 4085TIP3    H133814   6.240   4.227   1.069
 4085TIP3    H233815   6.306   4.119   0.985
 4086TIP3   OH233816   0.852   0.230   8.437
 4086TIP3    H133817   0.890   0.316   8.457
 4086TIP3    H233818   0.909   0.168   8.482
 4087TIP3   OH233819   0.688   3.856   0.901
 4087TIP3    H133820   0.628   3.805   0.955
 4087TIP3    H233821   0.668   3.947   0.920
 4088TIP3   OH233822   2.562   1.540   0.542
 4088TIP3    H133823   2.494   1.474   0.553
 4088TIP3    H233824   2.635   1.508   0.594
 4089TIP3   OH233825   3.520   5.847   7.648
 4089TIP3    H133826   3.557   5.902   7.579
 4089TIP3    H233827   3.498   5.909   7.718
 4090TIP3   OH233828   3.239   1.880   1.490
 4090TIP3    H133829   3.279   1.822   1.555
 4090TIP3    H233830   3.287   1.862   1.409
 4091TIP3   OH233831   6.667   0.217   6.612
 4091TIP3    H133832   6.755   0.249   6.592
 4091TIP3    H233833   6.609   0.271   6.559
 4092TIP3   OH233834   5.716   3.670   8.417
 4092TIP3    H133835   5.725   3.579   8.389
 4092TIP3    H233836   5.722   3.666   8.512
 4093TIP3   OH233837   4.258   4.542   7.222
 4093TIP3    H133838   4.174   4.496   7.221
 4093TIP3    H233839   4.235   4.635   7.212
 4094TIP3   OH233840   1.786   5.389   8.768
 4094TIP3    H133841   1.816   5.467   8.722
 4094TIP3    H233842   1.779   5.416   8.860
 4095TIP3   OH233843   0.813   2.531   1.513
 4095TIP3    H133844   0.898   2.546   1.471
 4095TIP3    H233845   0.827   2.555   1.604
 4096TIP3   OH233846   4.246   1.767   0.006
 4096TIP3    H133847   4.163   1.765   0.054
 4096TIP3    H233848   4.225   1.813   8.838
 4097TIP3   OH233849   0.282   4.385   6.544
 4097TIP3    H133850   0.265   4.306   6.594
 4097TIP3    H233851   0.344   4.434   6.597
 4098TIP3   OH233852   0.042   5.261   7.990
 4098TIP3    H133853   6.727   5.285   7.979
 4098TIP3    H233854   0.068   5.226   7.905
 4099TIP3   OH233855   2.505   2.294   0.352
 4099TIP3    H133856   2.458   2.213   0.374
 4099TIP3    H233857   2.436   2.359   0.340
 4100TIP3   OH233858   3.947   5.836   7.690
 4100TIP3    H133859   4.041   5.824   7.676
 4100TIP3    H233860   3.931   5.928   7.667
 4101TIP3   OH233861   4.302   3.304   0.659
 4101TIP3    H133862   4.350   3.349   0.729
 4101TIP3    H233863   4.362   3.236   0.629
 4102TIP3   OH233864   1.288   4.544   7.890
 4102TIP3    H133865   1.295   4.455   7.855
 4102TIP3    H233866   1.332   4.599   7.825
 4103TIP3   OH233867   2.466   1.468   6.714
 4103TIP3    H133868   2.374   1.444   6.727
 4103TIP3    H233869   2.482   1.453   6.621
 4104TIP3   OH233870   6.144   2.835   7.115
 4104TIP3    H133871   6.121   2.782   7.191
 4104TIP3    H233872   6.234   2.808   7.093
 4105TIP3   OH233873   3.003   2.438   8.101
 4105TIP3    H133874   2.990   2.467   8.011
 4105TIP3    H233875   2.950   2.359   8.109
 4106TIP3   OH233876   1.384   4.709   0.984
 4106TIP3    H133877   1.400   4.777   1.050
 4106TIP3    H233878   1.360   4.757   0.905
 4107TIP3   OH233879   2.505   1.726   8.202
 4107TIP3    H133880   2.533   1.785   8.132
 4107TIP3    H233881   2.585   1.686   8.234
 4108TIP3   OH233882   3.095   1.107   1.749
 4108TIP3    H133883   3.104   1.138   1.659
 4108TIP3    H233884   3.125   1.179   1.804
 4109TIP3   OH233885   3.634   6.111   0.065
 4109TIP3    H133886   3.687   6.190   0.052
 4109TIP3    H233887   3.590   6.125   0.149
 4110TIP3   OH233888   4.082   6.607   2.090
 4110TIP3    H133889   4.076   6.532   2.031
 4110TIP3    H233890   4.083   6.569   2.178
 4111TIP3   OH233891   0.194   2.655   0.494
 4111TIP3    H133892   0.209   2.734   0.441
 4111TIP3    H233893   0.102   2.661   0.519
 4112TIP3   OH233894   1.151   0.568   0.926
 4112TIP3    H133895   1.182   0.478   0.937
 4112TIP3    H233896   1.058   0.565   0.949
 4113TIP3   OH233897   0.299   6.104   8.545
 4113TIP3    H133898   0.256   6.024   8.574
 4113TIP3    H233899   0.234   6.173   8.558
 4114TIP3   OH233900   0.176   5.872   8.046
 4114TIP3    H133901   0.153   5.802   7.986
 4114TIP3    H233902   0.109   5.939   8.034
 4115TIP3   OH233903   0.368   1.622   8.583
 4115TIP3    H133904   0.380   1.638   8.490
 4115TIP3    H233905   0.332   1.533   8.588
 4116TIP3   OH233906   4.389   0.626   7.442
 4116TIP3    H133907   4.437   0.646   7.362
 4116TIP3    H233908   4.408   0.699   7.501
 4117TIP3   OH233909   6.248   0.221   0.244
 4117TIP3    H133910   6.162   0.257   0.266
 4117TIP3    H233911   6.271   0.263   0.161
 4118TIP3   OH233912   6.697   4.788   0.268
 4118TIP3    H133913   0.014   4.806   0.279
 4118TIP3    H233914   6.661   4.869   0.232
 4119TIP3   OH233915   5.847   4.576   8.209
 4119TIP3    H133916   5.867   4.595   8.300
 4119TIP3    H233917   5.930   4.589   8.163
 4120TIP3   OH233918   0.856   2.857   0.733
 4120TIP3    H133919   0.881   2.811   0.653
 4120TIP3    H233920   0.819   2.940   0.703
 4121TIP3   OH233921   6.322   2.679   8.559
 4121TIP3    H133922   6.360   2.701   8.644
 4121TIP3    H233923   6.279   2.595   8.573
 4122TIP3   OH233924   6.632   0.529   0.233
 4122TIP3    H133925   6.564   0.482   0.184
 4122TIP3    H233926   6.590   0.612   0.258
 4123TIP3   OH233927   6.420   4.391   8.738
 4123TIP3    H133928   6.358   4.394   8.811
 4123TIP3    H233929   6.507   4.390   8.780
 4124TIP3   OH233930   2.791   4.378   8.559
 4124TIP3    H133931   2.738   4.357   8.637
 4124TIP3    H233932   2.751   4.458   8.524
 4125TIP3   OH233933   3.408   3.121   8.730
 4125TIP3    H133934   3.467   3.193   8.709
 4125TIP3    H233935   3.435   3.049   8.673
 4126TIP3   OH233936   2.874   5.657   7.058
 4126TIP3    H133937   2.962   5.623   7.073
 4126TIP3    H233938   2.888   5.742   7.015
 4127TIP3   OH233939   4.619   1.646   6.952
 4127TIP3    H133940   4.530   1.625   6.981
 4127TIP3    H233941   4.666   1.669   7.033
 4128TIP3   OH233942   1.665   2.785   1.438
 4128TIP3    H133943   1.727   2.764   1.507
 4128TIP3    H233944   1.581   2.753   1.470
 4129TIP3   OH233945   2.264   6.631   8.786
 4129TIP3    H133946   2.227   6.561   8.733
 4129TIP3    H233947   2.188   6.673   8.827
 4130TIP3   OH233948   1.836   0.847   6.757
 4130TIP3    H133949   1.805   0.827   6.669
 4130TIP3    H233950   1.874   0.766   6.789
 4131TIP3   OH233951   4.706   3.781   0.213
 4131TIP3    H133952   4.764   3.810   0.284
 4131TIP3    H233953   4.643   3.852   0.204
 4132TIP3   OH233954   1.850   1.273   6.102
 4132TIP3    H133955   1.937   1.299   6.071
 4132TIP3    H233956   1.862   1.184   6.136
 4133TIP3   OH233957   5.153   3.592   7.132
 4133TIP3    H133958   5.108   3.672   7.160
 4133TIP3    H233959   5.244   3.606   7.157
 4134TIP3   OH233960   4.047   0.543   0.510
 4134TIP3    H133961   4.002   0.476   0.562
 4134TIP3    H233962   4.038   0.512   0.419
 4135TIP3   OH233963   2.051   1.800   8.266
 4135TIP3    H133964   2.062   1.720   8.216
 4135TIP3    H233965   1.965   1.792   8.306
 4136TIP3   OH233966   4.820   1.549   2.146
 4136TIP3    H133967   4.753   1.481   2.145
 4136TIP3    H233968   4.857   1.544   2.235
 4137TIP3   OH233969   1.615   3.689   2.257
 4137TIP3    H133970   1.569   3.738   2.325
 4137TIP3    H233971   1.620   3.749   2.183
 4138TIP3   OH233972   4.023   1.578   1.464
 4138TIP3    H133973   4.003   1.621   1.547
 4138TIP3    H233974   4.118   1.582   1.456
 4139TIP3   OH233975   5.066   4.170   1.937
 4139TIP3    H133976   5.149   4.128   1.959
 4139TIP3    H233977   5.072   4.189   1.843
 4140TIP3   OH233978   4.654   4.864   0.054
 4140TIP3    H133979   4.601   4.816   8.903
 4140TIP3    H233980   4.710   4.920   0.001
 4141TIP3   OH233981   4.221   0.246   8.299
 4141TIP3    H133982   4.298   0.194   8.275
 4141TIP3    H233983   4.256   0.335   8.312
 4142TIP3   OH233984   3.159   1.285   7.518
 4142TIP3    H133985   3.174   1.328   7.601
 4142TIP3    H233986   3.076   1.238   7.530
 4143TIP3   OH233987   1.407   6.319   0.177
 4143TIP3    H133988   1.336   6.261   0.204
 4143TIP3    H233989   1.460   6.330   0.255
 4144TIP3   OH233990   1.370   3.391   8.152
 4144TIP3    H133991   1.304   3.401   8.084
 4144TIP3    H233992   1.428   3.322   8.120
 4145TIP3   OH233993   6.526   5.465   0.768
 4145TIP3    H133994   6.473   5.449   0.846
 4145TIP3    H233995   6.514   5.387   0.714
 4146TIP3   OH233996   5.041   3.796   7.259
 4146TIP3    H133997   4.975   3.828   7.198
 4146TIP3    H233998   5.061   3.872   7.315
 4147TIP3   OH233999   3.513   4.815   0.230
 4147TIP3    H134000   3.422   4.838   0.249
 4147TIP3    H234001   3.542   4.881   0.166
 4148TIP3   OH234002   1.403   3.284   7.330
 4148TIP3    H134003   1.342   3.278   7.404
 4148TIP3    H234004   1.348   3.308   7.256
 4149TIP3   OH234005   1.719   6.264   8.270
 4149TIP3    H134006   1.641   6.285   8.321
 4149TIP3    H234007   1.700   6.179   8.232
 4150TIP3   OH234008   5.186   1.882   2.783
 4150TIP3    H134009   5.228   1.805   2.743
 4150TIP3    H234010   5.257   1.928   2.827
 4151TIP3   OH234011   4.535   5.573   8.755
 4151TIP3    H134012   4.532   5.666   8.779
 4151TIP3    H234013   4.450   5.539   8.782
 4152TIP3   OH234014   6.663   6.273   6.919
 4152TIP3    H134015   6.604   6.322   6.975
 4152TIP3    H234016   6.628   6.183   6.921
 4153TIP3   OH234017   0.471   0.977   0.718
 4153TIP3    H134018   0.531   0.906   0.743
 4153TIP3    H234019   0.478   0.981   0.623
 4154TIP3   OH234020   3.372   6.101   0.755
 4154TIP3    H134021   3.406   6.150   0.680
 4154TIP3    H234022   3.391   6.010   0.735
 4155TIP3   OH234023   4.759   1.387   1.611
 4155TIP3    H134024   4.668   1.389   1.642
 4155TIP3    H234025   4.812   1.391   1.690
 4156TIP3   OH234026   6.637   3.745   0.283
 4156TIP3    H134027   6.633   3.654   0.252
 4156TIP3    H234028   6.546   3.773   0.285
 4157TIP3   OH234029   4.668   1.471   1.204
 4157TIP3    H134030   4.755   1.506   1.185
 4157TIP3    H234031   4.644   1.511   1.288
 4158TIP3   OH234032   0.964   3.706   0.001
 4158TIP3    H134033   1.023   3.765   0.048
 4158TIP3    H234034   0.994   3.710   8.824
 4159TIP3   OH234035   3.903   1.899   7.578
 4159TIP3    H134036   3.988   1.908   7.535
 4159TIP3    H234037   3.849   1.968   7.539
 4160TIP3   OH234038   6.044   4.117   8.151
 4160TIP3    H134039   6.077   4.163   8.074
 4160TIP3    H234040   6.062   4.177   8.224
 4161TIP3   OH234041   5.484   4.730   6.853
 4161TIP3    H134042   5.538   4.680   6.793
 4161TIP3    H234043   5.401   4.741   6.806
 4162TIP3   OH234044   0.960   2.121   8.801
 4162TIP3    H134045   0.980   2.182   8.730
 4162TIP3    H234046   1.025   2.140   8.869
 4163TIP3   OH234047   6.312   3.101   8.654
 4163TIP3    H134048   6.396   3.128   8.689
 4163TIP3    H234049   6.320   3.113   8.559
 4164TIP3   OH234050   5.149   5.634   7.445
 4164TIP3    H134051   5.186   5.549   7.468
 4164TIP3    H234052   5.116   5.670   7.527
 4165TIP3   OH234053   3.470   3.507   6.568
 4165TIP3    H134054   3.547   3.459   6.597
 4165TIP3    H234055   3.506   3.591   6.537
 4166TIP3   OH234056   3.532   1.959   0.118
 4166TIP3    H134057   3.590   1.922   0.185
 4166TIP3    H234058   3.585   2.024   0.073
 4167TIP3   OH234059   0.292   5.963   1.430
 4167TIP3    H134060   0.248   6.047   1.443
 4167TIP3    H234061   0.248   5.904   1.491
 4168TIP3   OH234062   4.335   1.448   1.163
 4168TIP3    H134063   4.315   1.464   1.071
 4168TIP3    H234064   4.306   1.358   1.179
 4169TIP3   OH234065   1.541   6.187   6.871
 4169TIP3    H134066   1.600   6.127   6.916
 4169TIP3    H234067   1.597   6.237   6.812
 4170TIP3   OH234068   5.979   6.586   7.283
 4170TIP3    H134069   5.975   6.519   7.351
 4170TIP3    H234070   5.934   6.547   7.208
 4171TIP3   OH234071   1.848   5.539   8.032
 4171TIP3    H134072   1.943   5.544   8.027
 4171TIP3    H234073   1.821   5.629   8.052
 4172TIP3   OH234074   4.864   5.955   0.744
 4172TIP3    H134075   4.805   5.940   0.817
 4172TIP3    H234076   4.844   5.884   0.683
 4173TIP3   OH234077   0.986   1.148   8.521
 4173TIP3    H134078   1.080   1.166   8.509
 4173TIP3    H234079   0.942   1.216   8.469
 4174TIP3   OH234080   4.330   1.841   7.759
 4174TIP3    H134081   4.269   1.855   7.687
 4174TIP3    H234082   4.413   1.822   7.716
 4175TIP3   OH234083   3.770   5.325   7.228
 4175TIP3    H134084   3.786   5.388   7.298
 4175TIP3    H234085   3.849   5.327   7.175
 4176TIP3   OH234086   6.320   1.701   2.442
 4176TIP3    H134087   6.293   1.761   2.512
 4176TIP3    H234088   6.253   1.711   2.374
 4177TIP3   OH234089   4.920   3.698   8.308
 4177TIP3    H134090   4.930   3.729   8.398
 4177TIP3    H234091   5.009   3.686   8.277
 4178TIP3   OH234092   4.772   1.931   0.705
 4178TIP3    H134093   4.848   1.917   0.761
 4178TIP3    H234094   4.796   1.892   0.621
 4179TIP3   OH234095   2.015   6.143   7.205
 4179TIP3    H134096   1.998   6.186   7.289
 4179TIP3    H234097   2.042   6.054   7.228
 4180TIP3   OH234098   6.370   2.307   1.885
 4180TIP3    H134099   6.322   2.228   1.860
 4180TIP3    H234100   6.457   2.275   1.909
 4181TIP3   OH234101   4.626   4.472   1.213
 4181TIP3    H134102   4.709   4.429   1.232
 4181TIP3    H234103   4.614   4.458   1.119
 4182TIP3   OH234104   1.238   6.254   0.903
 4182TIP3    H134105   1.212   6.226   0.815
 4182TIP3    H234106   1.156   6.255   0.952
 4183TIP3   OH234107   2.892   5.550   1.695
 4183TIP3    H134108   2.810   5.534   1.649
 4183TIP3    H234109   2.924   5.634   1.660
 4184TIP3   OH234110   2.161   2.911   1.234
 4184TIP3    H134111   2.134   2.979   1.296
 4184TIP3    H234112   2.241   2.945   1.194
 4185TIP3   OH234113   3.627   1.986   6.992
 4185TIP3    H134114   3.657   2.061   6.941
 4185TIP3    H234115   3.578   1.932   6.929
 4186TIP3   OH234116   0.883   2.816   7.224
 4186TIP3    H134117   0.874   2.911   7.225
 4186TIP3    H234118   0.902   2.795   7.132
 4187TIP3   OH234119   4.030   2.314   1.495
 4187TIP3    H134120   4.033   2.406   1.521
 4187TIP3    H234121   3.980   2.314   1.413
 4188TIP3   OH234122   5.303   1.004   7.220
 4188TIP3    H134123   5.249   0.971   7.148
 4188TIP3    H234124   5.290   1.098   7.219
 4189TIP3   OH234125   1.716   1.904   0.700
 4189TIP3    H134126   1.799   1.923   0.655
 4189TIP3    H234127   1.717   1.810   0.713
 4190TIP3   OH234128   1.813   2.545   0.979
 4190TIP3    H134129   1.825   2.545   1.074
 4190TIP3    H234130   1.890   2.591   0.945
 4191TIP3   OH234131   3.818   0.996   1.349
 4191TIP3    H134132   3.913   1.002   1.345
 4191TIP3    H234133   3.789   1.006   1.258
 4192TIP3   OH234134   6.750   2.885   2.520
 4192TIP3    H134135   0.035   2.883   2.446
 4192TIP3    H234136   0.030   2.883   2.597
 4193TIP3   OH234137   5.145   2.815   8.813
 4193TIP3    H134138   5.062   2.790   8.854
 4193TIP3    H234139   5.174   2.735   8.768
 4194TIP3   OH234140   2.035   1.040   8.720
 4194TIP3    H134141   2.069   0.961   8.678
 4194TIP3    H234142   2.099   1.107   8.700
 4195TIP3   OH234143   6.339   4.930   8.307
 4195TIP3    H134144   6.297   4.926   8.221
 4195TIP3    H234145   6.426   4.966   8.291
 4196TIP3   OH234146   4.019   0.618   8.729
 4196TIP3    H134147   4.073   0.695   8.744
 4196TIP3    H234148   3.961   0.613   8.805
 4197TIP3   OH234149   2.358   1.648   8.408
 4197TIP3    H134150   2.407   1.566   8.418
 4197TIP3    H234151   2.397   1.691   8.332
 4198TIP3   OH234152   5.018   0.757   7.146
 4198TIP3    H134153   5.099   0.794   7.112
 4198TIP3    H234154   5.041   0.667   7.171
 4199TIP3   OH234155   3.151   0.024   1.324
 4199TIP3    H134156   3.115   0.048   1.410
 4199TIP3    H234157   3.090   6.737   1.289
 4200TIP3   OH234158   2.122   3.066   1.456
 4200TIP3    H134159   2.082   3.143   1.496
 4200TIP3    H234160   2.104   2.995   1.517
 4201TIP3   OH234161   3.601   6.644   1.051
 4201TIP3    H134162   3.551   6.697   0.988
 4201TIP3    H234163   3.606   6.700   1.129
 4202TIP3   OH234164   6.015   6.536   8.597
 4202TIP3    H134165   5.963   6.609   8.564
 4202TIP3    H234166   5.973   6.512   8.679
 4203TIP3   OH234167   3.818   4.371   2.778
 4203TIP3    H134168   3.811   4.395   2.685
 4203TIP3    H234169   3.858   4.448   2.819
 4204TIP3   OH234170   2.228   2.578   1.592
 4204TIP3    H134171   2.187   2.581   1.678
 4204TIP3    H234172   2.298   2.642   1.596
 4205TIP3   OH234173   1.878   2.715   8.867
 4205TIP3    H134174   1.953   2.768   8.839
 4205TIP3    H234175   1.893   2.700   0.046
 4206TIP3   OH234176   1.954   5.763   1.742
 4206TIP3    H134177   1.960   5.668   1.751
 4206TIP3    H234178   2.022   5.797   1.800
 4207TIP3   OH234179   1.549   4.494   1.279
 4207TIP3    H134180   1.496   4.414   1.279
 4207TIP3    H234181   1.583   4.499   1.190
 4208TIP3   OH234182   3.397   6.563   8.019
 4208TIP3    H134183   3.325   6.598   8.071
 4208TIP3    H234184   3.445   6.640   7.989
 4209TIP3   OH234185   5.533   0.026   1.610
 4209TIP3    H134186   5.597   6.765   1.670
 4209TIP3    H234187   5.558   6.768   1.524
 4210TIP3   OH234188   4.043   6.301   0.660
 4210TIP3    H134189   4.006   6.228   0.709
 4210TIP3    H234190   4.016   6.379   0.709
 4211TIP3   OH234191   4.233   0.682   0.109
 4211TIP3    H134192   4.190   0.704   0.192
 4211TIP3    H234193   4.320   0.653   0.134
 4212TIP3   OH234194   6.118   0.760   7.480
 4212TIP3    H134195   6.119   0.703   7.402
 4212TIP3    H234196   6.190   0.727   7.534
 4213TIP3   OH234197   6.301   2.958   1.038
 4213TIP3    H134198   6.251   2.979   0.959
 4213TIP3    H234199   6.235   2.926   1.100
 4214TIP3   OH234200   1.080   5.969   6.968
 4214TIP3    H134201   1.087   6.035   7.037
 4214TIP3    H234202   1.107   6.014   6.888
 4215TIP3   OH234203   2.340   6.169   7.709
 4215TIP3    H134204   2.385   6.193   7.629
 4215TIP3    H234205   2.262   6.122   7.680
 4216TIP3   OH234206   2.003   6.213   7.490
 4216TIP3    H134207   1.916   6.234   7.523
 4216TIP3    H234208   2.036   6.146   7.550
 4217TIP3   OH234209   3.603   2.436   8.031
 4217TIP3    H134210   3.672   2.483   8.077
 4217TIP3    H234211   3.633   2.433   7.940
 4218TIP3   OH234212   0.226   5.044   2.077
 4218TIP3    H134213   0.228   5.132   2.115
 4218TIP3    H234214   0.299   4.998   2.118
 4219TIP3   OH234215   1.413   6.479   7.837
 4219TIP3    H134216   1.463   6.543   7.787
 4219TIP3    H234217   1.365   6.429   7.771
 4220TIP3   OH234218   1.654   5.429   0.536
 4220TIP3    H134219   1.594   5.387   0.474
 4220TIP3    H234220   1.716   5.361   0.560
 4221TIP3   OH234221   4.020   1.754   7.934
 4221TIP3    H134222   4.028   1.661   7.914
 4221TIP3    H234223   4.109   1.789   7.923
 4222TIP3   OH234224   5.493   3.255   0.150
 4222TIP3    H134225   5.465   3.257   0.242
 4222TIP3    H234226   5.460   3.172   0.117
 4223TIP3   OH234227   1.943   3.632   7.882
 4223TIP3    H134228   2.005   3.702   7.904
 4223TIP3    H234229   1.866   3.678   7.847
 4224TIP3   OH234230   5.195   1.831   0.780
 4224TIP3    H134231   5.210   1.779   0.702
 4224TIP3    H234232   5.100   1.828   0.794
 4225TIP3   OH234233   0.252   0.305   0.863
 4225TIP3    H134234   0.216   0.218   0.881
 4225TIP3    H234235   0.319   0.318   0.930
 4226TIP3   OH234236   3.309   3.316   1.344
 4226TIP3    H134237   3.332   3.238   1.293
 4226TIP3    H234238   3.247   3.285   1.410
 4227TIP3   OH234239   2.293   6.416   1.138
 4227TIP3    H134240   2.226   6.367   1.090
 4227TIP3    H234241   2.363   6.352   1.154
 4228TIP3   OH234242   5.083   4.832   0.758
 4228TIP3    H134243   5.061   4.755   0.810
 4228TIP3    H234244   5.094   4.799   0.669
 4229TIP3   OH234245   5.904   6.471   8.854
 4229TIP3    H134246   5.866   6.392   8.814
 4229TIP3    H234247   5.868   6.474   0.029
 4230TIP3   OH234248   5.463   6.129   2.123
 4230TIP3    H134249   5.550   6.095   2.100
 4230TIP3    H234250   5.478   6.184   2.199
 4231TIP3   OH234251   1.411   5.121   6.908
 4231TIP3    H134252   1.340   5.066   6.873
 4231TIP3    H234253   1.446   5.071   6.981
 4232TIP3   OH234254   5.876   0.154   0.943
 4232TIP3    H134255   5.879   0.134   0.850
 4232TIP3    H234256   5.949   0.103   0.980
 4233TIP3   OH234257   4.500   2.847   8.412
 4233TIP3    H134258   4.439   2.774   8.427
 4233TIP3    H234259   4.447   2.912   8.366
 4234TIP3   OH234260   3.671   5.746   1.882
 4234TIP3    H134261   3.702   5.671   1.830
 4234TIP3    H234262   3.724   5.820   1.852
 4235TIP3   OH234263   5.811   1.298   8.548
 4235TIP3    H134264   5.831   1.285   8.641
 4235TIP3    H234265   5.716   1.289   8.543
 4236TIP3   OH234266   1.928   2.022   0.431
 4236TIP3    H134267   1.836   2.035   0.408
 4236TIP3    H234268   1.967   2.109   0.423
 4237TIP3   OH234269   2.937   5.153   1.101
 4237TIP3    H134270   2.928   5.199   1.185
 4237TIP3    H234271   3.002   5.085   1.118
 4238TIP3   OH234272   4.862   6.600   1.826
 4238TIP3    H134273   4.808   6.611   1.904
 4238TIP3    H234274   4.854   6.683   1.779
 4239TIP3   OH234275   3.082   0.778   1.739
 4239TIP3    H134276   3.030   0.841   1.789
 4239TIP3    H234277   3.126   0.831   1.673
 4240TIP3   OH234278   6.190   3.812   1.291
 4240TIP3    H134279   6.162   3.872   1.223
 4240TIP3    H234280   6.113   3.802   1.347
 4241TIP3   OH234281   2.847   1.244   1.537
 4241TIP3    H134282   2.897   1.324   1.551
 4241TIP3    H234283   2.775   1.249   1.600
 4242TIP3   OH234284   5.218   0.489   0.778
 4242TIP3    H134285   5.217   0.398   0.749
 4242TIP3    H234286   5.248   0.485   0.869
 4243TIP3   OH234287   3.796   6.518   0.608
 4243TIP3    H134288   3.829   6.509   0.519
 4243TIP3    H234289   3.707   6.553   0.597
 4244TIP3   OH234290   0.878   5.456   2.230
 4244TIP3    H134291   0.825   5.504   2.293
 4244TIP3    H234292   0.817   5.396   2.188
 4245TIP3   OH234293   0.535   2.577   1.084
 4245TIP3    H134294   0.624   2.557   1.057
 4245TIP3    H234295   0.492   2.492   1.088
 4246TIP3   OH234296   1.118   2.212   0.183
 4246TIP3    H134297   1.121   2.195   0.277
 4246TIP3    H234298   1.206   2.190   0.152
 4247TIP3   OH234299   6.394   3.853   8.375
 4247TIP3    H134300   6.429   3.788   8.314
 4247TIP3    H234301   6.388   3.806   8.458
 4248TIP3   OH234302   1.788   1.058   6.386
 4248TIP3    H134303   1.826   1.003   6.317
 4248TIP3    H234304   1.861   1.078   6.444
 4249TIP3   OH234305   2.502   3.274   0.052
 4249TIP3    H134306   2.478   3.343   0.114
 4249TIP3    H234307   2.586   3.302   0.016
 4250TIP3   OH234308   1.397   6.385   8.764
 4250TIP3    H134309   1.324   6.349   8.714
 4250TIP3    H234310   1.400   6.333   8.845
 4251TIP3   OH234311   3.157   5.608   0.114
 4251TIP3    H134312   3.225   5.657   0.067
 4251TIP3    H234313   3.118   5.672   0.173
 4252TIP3   OH234314   6.306   6.055   1.572
 4252TIP3    H134315   6.246   5.983   1.553
 4252TIP3    H234316   6.258   6.134   1.547
 4253TIP3   OH234317   0.529   6.476   1.638
 4253TIP3    H134318   0.593   6.425   1.688
 4253TIP3    H234319   0.500   6.545   1.698
 4254TIP3   OH234320   5.034   2.584   2.736
 4254TIP3    H134321   5.074   2.548   2.815
 4254TIP3    H234322   5.078   2.539   2.664
 4255TIP3   OH234323   3.256   2.378   1.442
 4255TIP3    H134324   3.255   2.392   1.537
 4255TIP3    H234325   3.302   2.454   1.407
 4256TIP3   OH234326   5.946   5.851   0.347
 4256TIP3    H134327   5.986   5.938   0.351
 4256TIP3    H234328   6.007   5.794   0.394
 4257TIP3   OH234329   4.823   6.046   2.039
 4257TIP3    H134330   4.868   5.975   2.084
 4257TIP3    H234331   4.732   6.040   2.068
 4258TIP3   OH234332   5.303   0.224   1.128
 4258TIP3    H134333   5.322   0.313   1.099
 4258TIP3    H234334   5.215   0.230   1.166
 4259TIP3   OH234335   6.155   1.566   6.771
 4259TIP3    H134336   6.195   1.652   6.757
 4259TIP3    H234337   6.145   1.530   6.683
 4260TIP3   OH234338   6.273   0.588   0.044
 4260TIP3    H134339   6.223   0.635   0.110
 4260TIP3    H234340   6.207   0.551   8.898
 4261TIP3   OH234341   0.417   2.854   8.395
 4261TIP3    H134342   0.496   2.875   8.445
 4261TIP3    H234343   0.401   2.932   8.342
 4262TIP3   OH234344   6.383   5.201   7.840
 4262TIP3    H134345   6.343   5.272   7.790
 4262TIP3    H234346   6.312   5.167   7.894
 4263TIP3   OH234347   2.781   2.080   8.541
 4263TIP3    H134348   2.790   2.176   8.541
 4263TIP3    H234349   2.871   2.048   8.552
 4264TIP3   OH234350   4.205   5.440   7.863
 4264TIP3    H134351   4.229   5.517   7.915
 4264TIP3    H234352   4.121   5.464   7.823
 4265TIP3   OH234353   1.045   3.178   8.016
 4265TIP3    H134354   1.026   3.101   7.963
 4265TIP3    H234355   1.122   3.217   7.974
 4266TIP3   OH234356   6.175   5.230   6.710
 4266TIP3    H134357   6.186   5.321   6.679
 4266TIP3    H234358   6.113   5.192   6.648
 4267TIP3   OH234359   0.160   0.622   6.880
 4267TIP3    H134360   0.222   0.609   6.808
 4267TIP3    H234361   0.084   0.665   6.839
 4268TIP3   OH234362   5.943   1.574   0.371
 4268TIP3    H134363   5.908   1.626   0.444
 4268TIP3    H234364   5.996   1.507   0.414
 4269TIP3   OH234365   6.545   6.675   0.955
 4269TIP3    H134366   6.631   6.685   0.997
 4269TIP3    H234367   6.554   6.721   0.872
 4270TIP3   OH234368   3.066   3.594   8.854
 4270TIP3    H134369   3.021   3.584   8.770
 4270TIP3    H234370   3.137   3.530   8.851
 4271TIP3   OH234371   2.317   0.723   2.500
 4271TIP3    H134372   2.408   0.697   2.489
 4271TIP3    H234373   2.272   0.641   2.523
 4272TIP3   OH234374   5.722   6.613   6.024
 4272TIP3    H134375   5.654   6.585   6.085
 4272TIP3    H234376   5.695   6.701   5.996
 4273TIP3   OH234377   4.856   3.377   0.349
 4273TIP3    H134378   4.938   3.353   0.392
 4273TIP3    H234379   4.814   3.438   0.410
 4274TIP3   OH234380   1.824   1.918   1.350
 4274TIP3    H134381   1.870   1.850   1.301
 4274TIP3    H234382   1.756   1.950   1.291
 4275TIP3   OH234383   4.934   6.193   1.631
 4275TIP3    H134384   4.869   6.240   1.682
 4275TIP3    H234385   4.903   6.102   1.631
 4276TIP3   OH234386   4.160   3.471   7.849
 4276TIP3    H134387   4.224   3.540   7.869
 4276TIP3    H234388   4.075   3.513   7.860
 4277TIP3   OH234389   6.248   6.733   7.013
 4277TIP3    H134390   6.261   6.650   7.059
 4277TIP3    H234391   6.323   0.010   7.040
 4278TIP3   OH234392   4.368   0.540   8.270
 4278TIP3    H134393   4.389   0.492   8.350
 4278TIP3    H234394   4.430   0.507   8.205
 4279TIP3   OH234395   0.536   3.578   2.276
 4279TIP3    H134396   0.545   3.601   2.368
 4279TIP3    H234397   0.441   3.580   2.260
 4280TIP3   OH234398   3.078   4.798   7.161
 4280TIP3    H134399   2.998   4.824   7.205
 4280TIP3    H234400   3.112   4.725   7.213
 4281TIP3   OH234401   0.929   3.526   0.680
 4281TIP3    H134402   0.908   3.571   0.762
 4281TIP3    H234403   1.009   3.477   0.699
 4282TIP3   OH234404   1.353   0.919   7.078
 4282TIP3    H134405   1.349   1.011   7.105
 4282TIP3    H234406   1.445   0.895   7.090
 4283TIP3   OH234407   1.740   6.202   0.051
 4283TIP3    H134408   1.706   6.281   0.093
 4283TIP3    H234409   1.816   6.177   0.104
 4284TIP3   OH234410   0.137   3.499   8.051
 4284TIP3    H134411   0.076   3.569   8.077
 4284TIP3    H234412   0.082   3.431   8.014
 4285TIP3   OH234413   3.166   1.078   8.266
 4285TIP3    H134414   3.220   1.135   8.212
 4285TIP3    H234415   3.215   1.067   8.347
 4286TIP3   OH234416   0.305   1.749   0.604
 4286TIP3    H134417   0.225   1.705   0.579
 4286TIP3    H234418   0.359   1.681   0.645
 4287TIP3   OH234419   2.981   3.136   7.797
 4287TIP3    H134420   2.900   3.160   7.751
 4287TIP3    H234421   3.038   3.102   7.728
 4288TIP3   OH234422   1.428   2.504   7.529
 4288TIP3    H134423   1.477   2.424   7.511
 4288TIP3    H234424   1.493   2.574   7.522
 4289TIP3   OH234425   1.250   1.874   8.538
 4289TIP3    H134426   1.182   1.918   8.486
 4289TIP3    H234427   1.258   1.788   8.497
 4290TIP3   OH234428   5.429   4.016   8.153
 4290TIP3    H134429   5.460   4.036   8.242
 4290TIP3    H234430   5.475   4.079   8.098
 4291TIP3   OH234431   3.020   5.518   6.819
 4291TIP3    H134432   2.980   5.437   6.788
 4291TIP3    H234433   2.998   5.521   6.912
 4292TIP3   OH234434   6.509   3.861   1.217
 4292TIP3    H134435   6.489   3.770   1.241
 4292TIP3    H234436   6.478   3.912   1.292
 4293TIP3   OH234437   5.373   1.124   8.037
 4293TIP3    H134438   5.337   1.040   8.008
 4293TIP3    H234439   5.413   1.161   7.958
 4294TIP3   OH234440   5.314   1.071   0.639
 4294TIP3    H134441   5.325   1.002   0.705
 4294TIP3    H234442   5.302   1.151   0.690
 4295TIP3   OH234443   2.797   3.137   0.156
 4295TIP3    H134444   2.874   3.183   0.122
 4295TIP3    H234445   2.766   3.086   0.081
 4296TIP3   OH234446   6.220   0.042   8.504
 4296TIP3    H134447   6.280   0.045   8.429
 4296TIP3    H234448   6.153   6.756   8.479
 4297TIP3   OH234449   2.746   6.754   0.462
 4297TIP3    H134450   2.815   6.768   0.526
 4297TIP3    H234451   2.667   0.013   0.503
 4298TIP3   OH234452   5.449   5.814   0.821
 4298TIP3    H134453   5.441   5.812   0.725
 4298TIP3    H234454   5.443   5.723   0.848
 4299TIP3   OH234455   0.351   1.577   1.462
 4299TIP3    H134456   0.278   1.542   1.412
 4299TIP3    H234457   0.427   1.568   1.404
 4300TIP3   OH234458   3.068   1.225   6.758
 4300TIP3    H134459   3.150   1.188   6.727
 4300TIP3    H234460   3.006   1.208   6.687
 4301TIP3   OH234461   4.271   1.487   0.891
 4301TIP3    H134462   4.224   1.564   0.859
 4301TIP3    H234463   4.277   1.429   0.816
 4302TIP3   OH234464   5.764   4.402   6.851
 4302TIP3    H134465   5.685   4.350   6.864
 4302TIP3    H234466   5.824   4.343   6.805
 4303TIP3   OH234467   0.654   6.756   8.820
 4303TIP3    H134468   0.688   0.062   8.787
 4303TIP3    H234469   0.561   6.773   8.836
 4304TIP3   OH234470   1.138   2.316   1.231
 4304TIP3    H134471   1.098   2.279   1.152
 4304TIP3    H234472   1.199   2.382   1.198
 4305TIP3   OH234473   3.718   2.250   0.510
 4305TIP3    H134474   3.647   2.310   0.488
 4305TIP3    H234475   3.792   2.307   0.533
 4306TIP3   OH234476   1.725   2.985   8.478
 4306TIP3    H134477   1.729   3.023   8.390
 4306TIP3    H234478   1.806   2.934   8.486
 4307TIP3   OH234479   5.847   6.445   2.290
 4307TIP3    H134480   5.782   6.500   2.247
 4307TIP3    H234481   5.907   6.419   2.220
 4308TIP3   OH234482   1.918   4.831   2.141
 4308TIP3    H134483   1.894   4.888   2.215
 4308TIP3    H234484   1.897   4.743   2.173
 4309TIP3   OH234485   1.082   5.688   7.588
 4309TIP3    H134486   1.167   5.700   7.631
 4309TIP3    H234487   1.018   5.708   7.656
 4310TIP3   OH234488   5.624   3.019   7.777
 4310TIP3    H134489   5.625   2.927   7.802
 4310TIP3    H234490   5.716   3.043   7.767
 4311TIP3   OH234491   6.334   2.970   1.424
 4311TIP3    H134492   6.263   2.937   1.369
 4311TIP3    H234493   6.319   3.064   1.429
 4312TIP3   OH234494   6.608   1.116   8.161
 4312TIP3    H134495   6.555   1.171   8.103
 4312TIP3    H234496   6.691   1.106   8.115
 4313TIP3   OH234497   6.709   2.860   1.298
 4313TIP3    H134498   6.685   2.941   1.253
 4313TIP3    H234499   6.626   2.829   1.336
 4314TIP3   OH234500   2.723   5.570   8.078
 4314TIP3    H134501   2.803   5.518   8.082
 4314TIP3    H234502   2.735   5.639   8.143
 4315TIP3   OH234503   6.275   1.584   0.142
 4315TIP3    H134504   6.292   1.491   0.151
 4315TIP3    H234505   6.186   1.589   0.109
 4316TIP3   OH234506   5.993   4.851   0.631
 4316TIP3    H134507   6.076   4.831   0.589
 4316TIP3    H234508   6.007   4.830   0.723
 4317TIP3   OH234509   4.054   5.649   8.367
 4317TIP3    H134510   4.140   5.635   8.406
 4317TIP3    H234511   4.063   5.617   8.277
 4318TIP3   OH234512   2.898   5.196   8.777
 4318TIP3    H134513   2.881   5.181   8.870
 4318TIP3    H234514   2.939   5.283   8.774
 4319TIP3   OH234515   3.978   1.713   8.227
 4319TIP3    H134516   4.019   1.732   8.143
 4319TIP3    H234517   3.924   1.790   8.245
 4320TIP3   OH234518   6.777   4.584   8.694
 4320TIP3    H134519   6.767   4.508   8.637
 4320TIP3    H234520   0.016   4.548   8.781
 4321TIP3   OH234521   6.387   3.127   7.576
 4321TIP3    H134522   6.437   3.145   7.656
 4321TIP3    H234523   6.413   3.196   7.515
 4322TIP3   OH234524   4.428   6.230   0.558
 4322TIP3    H134525   4.513   6.267   0.579
 4322TIP3    H234526   4.445   6.136   0.546
 4323TIP3   OH234527   1.805   0.604   2.309
 4323TIP3    H134528   1.733   0.617   2.247
 4323TIP3    H234529   1.839   0.692   2.325
 4324TIP3   OH234530   3.511   0.046   0.228
 4324TIP3    H134531   3.569   6.746   0.221
 4324TIP3    H234532   3.457   0.043   0.149
 4325TIP3   OH234533   6.726   3.477   1.893
 4325TIP3    H134534   6.711   3.536   1.820
 4325TIP3    H234535   6.672   3.513   1.964
 4326TIP3   OH234536   5.234   5.354   8.361
 4326TIP3    H134537   5.143   5.383   8.358
 4326TIP3    H234538   5.283   5.421   8.313
 4327TIP3   OH234539   0.747   0.631   2.277
 4327TIP3    H134540   0.671   0.619   2.220
 4327TIP3    H234541   0.716   0.689   2.346
 4328TIP3   OH234542   1.574   1.497   8.859
 4328TIP3    H134543   1.603   1.542   8.780
 4328TIP3    H234544   1.517   1.427   8.828
 4329TIP3   OH234545   4.142   4.891   8.627
 4329TIP3    H134546   4.192   4.817   8.594
 4329TIP3    H234547   4.170   4.965   8.573
 4330TIP3   OH234548   5.018   0.285   7.742
 4330TIP3    H134549   5.008   0.364   7.689
 4330TIP3    H234550   5.113   0.272   7.748
 4331TIP3   OH234551   2.003   3.729   8.592
 4331TIP3    H134552   2.014   3.676   8.512
 4331TIP3    H234553   2.052   3.809   8.575
 4332TIP3   OH234554   6.707   3.105   1.529
 4332TIP3    H134555   6.699   3.096   1.435
 4332TIP3    H234556   0.025   3.106   1.546
 4333TIP3   OH234557   3.136   4.603   7.563
 4333TIP3    H134558   3.056   4.655   7.567
 4333TIP3    H234559   3.206   4.664   7.589
 4334TIP3   OH234560   5.921   0.406   1.010
 4334TIP3    H134561   5.935   0.424   1.103
 4334TIP3    H234562   5.912   0.311   1.005
 4335TIP3   OH234563   2.509   3.943   0.845
 4335TIP3    H134564   2.423   3.927   0.885
 4335TIP3    H234565   2.520   4.038   0.850
 4336TIP3   OH234566   3.968   0.330   0.707
 4336TIP3    H134567   3.891   0.274   0.716
 4336TIP3    H234568   3.954   0.401   0.769
 4337TIP3   OH234569   5.010   0.745   7.917
 4337TIP3    H134570   4.946   0.740   7.846
 4337TIP3    H234571   4.960   0.779   7.992
 4338TIP3   OH234572   2.950   4.048   0.883
 4338TIP3    H134573   2.975   3.982   0.948
 4338TIP3    H234574   2.983   4.014   0.800
 4339TIP3   OH234575   1.502   6.558   2.274
 4339TIP3    H134576   1.508   6.643   2.231
 4339TIP3    H234577   1.591   6.538   2.301
 4340TIP3   OH234578   6.121   4.093   7.677
 4340TIP3    H134579   6.089   4.101   7.767
 4340TIP3    H234580   6.045   4.060   7.628
 4341TIP3   OH234581   4.743   5.250   7.152
 4341TIP3    H134582   4.685   5.252   7.229
 4341TIP3    H234583   4.768   5.158   7.144
 4342TIP3   OH234584   1.178   0.104   0.791
 4342TIP3    H134585   1.190   0.072   0.881
 4342TIP3    H234586   1.137   0.031   0.745
 4343TIP3   OH234587   1.879   2.756   6.770
 4343TIP3    H134588   1.939   2.694   6.812
 4343TIP3    H234589   1.882   2.733   6.677
 4344TIP3   OH234590   3.575   5.407   0.661
 4344TIP3    H134591   3.620   5.407   0.576
 4344TIP3    H234592   3.596   5.322   0.699
 4345TIP3   OH234593   0.213   6.341   0.446
 4345TIP3    H134594   0.195   6.271   0.509
 4345TIP3    H234595   0.127   6.366   0.412
 4346TIP3   OH234596   5.174   2.934   2.058
 4346TIP3    H134597   5.124   2.962   2.135
 4346TIP3    H234598   5.209   3.015   2.022
 4347TIP3   OH234599   0.386   5.217   8.298
 4347TIP3    H134600   0.306   5.220   8.350
 4347TIP3    H234601   0.426   5.303   8.308
 4348TIP3   OH234602   5.561   5.703   8.669
 4348TIP3    H134603   5.649   5.696   8.632
 4348TIP3    H234604   5.503   5.694   8.593
 4349TIP3   OH234605   0.945   0.885   8.147
 4349TIP3    H134606   0.905   0.971   8.151
 4349TIP3    H234607   1.039   0.903   8.146
 4350TIP3   OH234608   6.511   0.324   1.033
 4350TIP3    H134609   6.584   0.328   0.972
 4350TIP3    H234610   6.513   0.409   1.078
 4351TIP3   OH234611   6.105   3.281   7.005
 4351TIP3    H134612   6.151   3.363   6.985
 4351TIP3    H234613   6.122   3.225   6.930
 4352TIP3   OH234614   2.800   1.009   6.665
 4352TIP3    H134615   2.760   1.033   6.749
 4352TIP3    H234616   2.812   1.092   6.619
 4353TIP3   OH234617   1.171   5.024   0.986
 4353TIP3    H134618   1.113   4.948   0.985
 4353TIP3    H234619   1.259   4.987   0.989
 4354TIP3   OH234620   1.761   4.433   0.402
 4354TIP3    H134621   1.722   4.509   0.358
 4354TIP3    H234622   1.692   4.367   0.401
 4355TIP3   OH234623   0.974   1.241   0.045
 4355TIP3    H134624   1.043   1.274   0.102
 4355TIP3    H234625   0.970   1.147   0.064
 4356TIP3   OH234626   6.425   3.398   7.368
 4356TIP3    H134627   6.413   3.458   7.294
 4356TIP3    H234628   6.482   3.447   7.429
 4357TIP3   OH234629   2.186   0.745   1.081
 4357TIP3    H134630   2.140   0.725   1.162
 4357TIP3    H234631   2.258   0.802   1.108
 4358TIP3   OH234632   6.756   2.623   7.480
 4358TIP3    H134633   6.660   2.629   7.473
 4358TIP3    H234634   0.011   2.650   7.394
 4359TIP3   OH234635   3.955   4.788   1.048
 4359TIP3    H134636   4.040   4.790   1.093
 4359TIP3    H234637   3.978   4.780   0.956
 4360TIP3   OH234638   6.185   5.142   8.015
 4360TIP3    H134639   6.120   5.122   7.948
 4360TIP3    H234640   6.174   5.074   8.081
 4361TIP3   OH234641   6.335   1.087   7.817
 4361TIP3    H134642   6.379   1.157   7.865
 4361TIP3    H234643   6.365   1.006   7.858
 4362TIP3   OH234644   5.388   0.546   8.653
 4362TIP3    H134645   5.330   0.531   8.728
 4362TIP3    H234646   5.440   0.466   8.646
 4363TIP3   OH234647   5.458   1.876   0.848
 4363TIP3    H134648   5.368   1.849   0.831
 4363TIP3    H234649   5.449   1.961   0.892
 4364TIP3   OH234650   1.362   4.234   6.970
 4364TIP3    H134651   1.285   4.291   6.964
 4364TIP3    H234652   1.367   4.211   7.063
 4365TIP3   OH234653   3.501   4.015   7.815
 4365TIP3    H134654   3.579   3.990   7.766
 4365TIP3    H234655   3.443   4.054   7.749
 4366TIP3   OH234656   5.324   0.841   7.442
 4366TIP3    H134657   5.238   0.801   7.456
 4366TIP3    H234658   5.311   0.902   7.369
 4367TIP3   OH234659   4.611   3.821   8.791
 4367TIP3    H134660   4.598   3.733   8.755
 4367TIP3    H234661   4.524   3.850   8.818
 4368TIP3   OH234662   4.206   2.979   8.808
 4368TIP3    H134663   4.296   2.987   8.838
 4368TIP3    H234664   4.206   3.022   8.722
 4369TIP3   OH234665   2.828   4.316   2.112
 4369TIP3    H134666   2.888   4.317   2.038
 4369TIP3    H234667   2.742   4.334   2.073
 4370TIP3   OH234668   3.970   2.280   0.760
 4370TIP3    H134669   4.005   2.286   0.849
 4370TIP3    H234670   3.910   2.205   0.762
 4371TIP3   OH234671   6.583   4.533   0.298
 4371TIP3    H134672   6.645   4.606   0.305
 4371TIP3    H234673   6.508   4.570   0.253
 4372TIP3   OH234674   0.503   2.307   0.557
 4372TIP3    H134675   0.418   2.306   0.602
 4372TIP3    H234676   0.562   2.349   0.620
 4373TIP3   OH234677   0.098   4.328   0.684
 4373TIP3    H134678   0.064   4.336   0.773
 4373TIP3    H234679   0.144   4.244   0.683
 4374TIP3   OH234680   0.792   1.801   6.556
 4374TIP3    H134681   0.783   1.744   6.480
 4374TIP3    H234682   0.819   1.885   6.519
 4375TIP3   OH234683   5.901   2.636   7.934
 4375TIP3    H134684   5.928   2.725   7.911
 4375TIP3    H234685   5.948   2.580   7.871
 4376TIP3   OH234686   6.418   6.594   7.789
 4376TIP3    H134687   6.376   6.598   7.703
 4376TIP3    H234688   6.509   6.616   7.772
 4377TIP3   OH234689   4.974   5.022   7.287
 4377TIP3    H134690   5.014   4.937   7.270
 4377TIP3    H234691   4.993   5.074   7.209
 4378TIP3   OH234692   2.387   0.937   1.961
 4378TIP3    H134693   2.444   0.999   2.007
 4378TIP3    H234694   2.390   0.963   1.870
 4379TIP3   OH234695   6.685   3.969   7.009
 4379TIP3    H134696   6.661   3.904   7.075
 4379TIP3    H234697   6.720   3.918   6.936
 4380TIP3   OH234698   3.595   6.616   1.756
 4380TIP3    H134699   3.670   6.622   1.815
 4380TIP3    H234700   3.527   6.573   1.809
 4381TIP3   OH234701   2.963   6.540   0.174
 4381TIP3    H134702   2.900   6.596   0.128
 4381TIP3    H234703   2.925   6.528   0.261
 4382TIP3   OH234704   6.024   6.616   6.565
 4382TIP3    H134705   6.004   6.657   6.481
 4382TIP3    H234706   6.056   6.688   6.620
 4383TIP3   OH234707   0.119   4.943   1.854
 4383TIP3    H134708   0.169   4.989   1.922
 4383TIP3    H234709   0.085   4.865   1.898
 4384TIP3   OH234710   5.064   1.823   7.159
 4384TIP3    H134711   5.073   1.915   7.135
 4384TIP3    H234712   5.034   1.780   7.079
 4385TIP3   OH234713   1.165   4.597   1.103
 4385TIP3    H134714   1.132   4.518   1.062
 4385TIP3    H234715   1.251   4.611   1.063
 4386TIP3   OH234716   0.407   4.899   7.409
 4386TIP3    H134717   0.352   4.879   7.333
 4386TIP3    H234718   0.436   4.989   7.395
 4387TIP3   OH234719   4.192   4.434   0.167
 4387TIP3    H134720   4.121   4.467   0.113
 4387TIP3    H234721   4.171   4.341   0.181
 4388TIP3   OH234722   5.836   4.682   8.732
 4388TIP3    H134723   5.781   4.633   8.671
 4388TIP3    H234724   5.823   4.640   8.817
 4389TIP3   OH234725   2.428   3.276   1.675
 4389TIP3    H134726   2.454   3.298   1.586
 4389TIP3    H234727   2.407   3.360   1.716
 4390TIP3   OH234728   1.135   1.207   2.857
 4390TIP3    H134729   1.146   1.113   2.841
 4390TIP3    H234730   1.201   1.249   2.801
 4391TIP3   OH234731   0.036   5.479   8.911
 4391TIP3    H134732   0.014   5.506   0.087
 4391TIP3    H234733   6.731   5.443   8.877
 4392TIP3   OH234734   6.430   0.722   1.502
 4392TIP3    H134735   6.384   0.649   1.461
 4392TIP3    H234736   6.384   0.735   1.585
 4393TIP3   OH234737   3.865   0.945   7.437
 4393TIP3    H134738   3.875   0.998   7.517
 4393TIP3    H234739   3.902   1.000   7.368
 4394TIP3   OH234740   4.154   1.922   2.579
 4394TIP3    H134741   4.191   1.981   2.513
 4394TIP3    H234742   4.216   1.925   2.652
 4395TIP3   OH234743   4.204   5.153   6.974
 4395TIP3    H134744   4.273   5.207   6.936
 4395TIP3    H234745   4.180   5.093   6.904
 4396TIP3   OH234746   5.886   3.713   1.288
 4396TIP3    H134747   5.817   3.654   1.320
 4396TIP3    H234748   5.858   3.800   1.319
 4397TIP3   OH234749   3.209   6.328   8.881
 4397TIP3    H134750   3.159   6.401   0.005
 4397TIP3    H234751   3.281   6.370   8.834
 4398TIP3   OH234752   0.681   6.297   0.161
 4398TIP3    H134753   0.635   6.217   0.188
 4398TIP3    H234754   0.619   6.367   0.180
 4399TIP3   OH234755   4.932   1.863   0.917
 4399TIP3    H134756   4.943   1.782   0.967
 4399TIP3    H234757   4.884   1.921   0.976
 4400TIP3   OH234758   6.535   2.512   7.173
 4400TIP3    H134759   6.552   2.472   7.259
 4400TIP3    H234760   6.486   2.445   7.126
 4401TIP3   OH234761   2.022   0.140   0.648
 4401TIP3    H134762   2.061   0.200   0.585
 4401TIP3    H234763   2.055   0.168   0.733
 4402TIP3   OH234764   0.365   3.290   8.557
 4402TIP3    H134765   0.336   3.234   8.486
 4402TIP3    H234766   0.287   3.299   8.613
 4403TIP3   OH234767   5.502   4.476   0.744
 4403TIP3    H134768   5.490   4.570   0.733
 4403TIP3    H234769   5.559   4.469   0.821
 4404TIP3   OH234770   0.684   0.424   2.492
 4404TIP3    H134771   0.593   0.449   2.507
 4404TIP3    H234772   0.707   0.465   2.409
 4405TIP3   OH234773   2.876   6.441   1.041
 4405TIP3    H134774   2.854   6.482   0.958
 4405TIP3    H234775   2.875   6.347   1.022
 4406TIP3   OH234776   6.097   4.514   7.333
 4406TIP3    H134777   6.053   4.450   7.390
 4406TIP3    H234778   6.068   4.491   7.245
 4407TIP3   OH234779   5.188   1.169   8.365
 4407TIP3    H134780   5.256   1.114   8.403
 4407TIP3    H234781   5.131   1.190   8.439
 4408TIP3   OH234782   2.853   4.241   7.497
 4408TIP3    H134783   2.845   4.274   7.408
 4408TIP3    H234784   2.947   4.238   7.514
 4409TIP3   OH234785   1.968   3.298   8.461
 4409TIP3    H134786   1.980   3.250   8.379
 4409TIP3    H234787   1.902   3.248   8.509
 4410TIP3   OH234788   1.001   5.898   7.842
 4410TIP3    H134789   0.918   5.905   7.794
 4410TIP3    H234790   1.008   5.805   7.865
 4411TIP3   OH234791   1.910   4.103   7.782
 4411TIP3    H134792   1.945   4.121   7.694
 4411TIP3    H234793   1.980   4.131   7.841
 4412TIP3   OH234794   2.725   1.260   8.371
 4412TIP3    H134795   2.711   1.167   8.388
 4412TIP3    H234796   2.721   1.268   8.276
 4413TIP3   OH234797   5.314   0.791   0.819
 4413TIP3    H134798   5.272   0.705   0.813
 4413TIP3    H234799   5.403   0.776   0.788
 4414TIP3   OH234800   2.786   5.818   7.882
 4414TIP3    H134801   2.779   5.722   7.883
 4414TIP3    H234802   2.880   5.834   7.874
 4415TIP3   OH234803   2.427   1.520   1.702
 4415TIP3    H134804   2.414   1.563   1.618
 4415TIP3    H234805   2.347   1.541   1.752
 4416TIP3   OH234806   5.761   5.811   7.835
 4416TIP3    H134807   5.856   5.825   7.834
 4416TIP3    H234808   5.729   5.869   7.903
 4417TIP3   OH234809   2.112   3.320   6.544
 4417TIP3    H134810   2.161   3.354   6.620
 4417TIP3    H234811   2.058   3.249   6.580
 4418TIP3   OH234812   4.359   4.384   0.848
 4418TIP3    H134813   4.372   4.473   0.882
 4418TIP3    H234814   4.441   4.339   0.868
 4419TIP3   OH234815   0.958   5.120   7.149
 4419TIP3    H134816   1.005   5.039   7.166
 4419TIP3    H234817   0.968   5.136   7.055
 4420TIP3   OH234818   1.294   0.703   0.030
 4420TIP3    H134819   1.385   0.714   0.001
 4420TIP3    H234820   1.271   0.788   0.069
 4421TIP3   OH234821   4.427   5.316   7.797
 4421TIP3    H134822   4.412   5.284   7.708
 4421TIP3    H234823   4.348   5.367   7.817
 4422TIP3   OH234824   2.656   4.025   7.112
 4422TIP3    H134825   2.571   4.046   7.074
 4422TIP3    H234826   2.641   4.021   7.206
 4423TIP3   OH234827   6.646   2.525   2.153
 4423TIP3    H134828   6.702   2.600   2.136
 4423TIP3    H234829   6.703   2.460   2.195
 4424TIP3   OH234830   4.185   5.031   7.598
 4424TIP3    H134831   4.179   4.986   7.682
 4424TIP3    H234832   4.173   4.961   7.533
 4425TIP3   OH234833   0.580   2.261   7.602
 4425TIP3    H134834   0.602   2.239   7.693
 4425TIP3    H234835   0.511   2.326   7.609
 4426TIP3   OH234836   6.644   2.110   1.621
 4426TIP3    H134837   6.704   2.045   1.659
 4426TIP3    H234838   6.557   2.076   1.642
 4427TIP3   OH234839   4.683   1.094   7.226
 4427TIP3    H134840   4.655   1.080   7.317
 4427TIP3    H234841   4.601   1.097   7.176
 4428TIP3   OH234842   0.204   5.791   6.365
 4428TIP3    H134843   0.134   5.761   6.424
 4428TIP3    H234844   0.158   5.828   6.290
 4429TIP3   OH234845   3.370   5.623   8.583
 4429TIP3    H134846   3.276   5.637   8.571
 4429TIP3    H234847   3.401   5.590   8.499
 4430TIP3   OH234848   3.372   0.679   8.509
 4430TIP3    H134849   3.351   0.637   8.592
 4430TIP3    H234850   3.467   0.687   8.510
 4431TIP3   OH234851   2.149   5.028   1.997
 4431TIP3    H134852   2.064   5.022   2.040
 4431TIP3    H234853   2.208   4.976   2.052
 4432TIP3   OH234854   2.683   0.140   6.666
 4432TIP3    H134855   2.750   0.132   6.734
 4432TIP3    H234856   2.625   0.065   6.681
 4433TIP3   OH234857   5.703   1.634   8.764
 4433TIP3    H134858   5.663   1.593   8.841
 4433TIP3    H234859   5.645   1.610   8.692
 4434TIP3   OH234860   4.863   3.129   0.961
 4434TIP3    H134861   4.921   3.127   0.885
 4434TIP3    H234862   4.790   3.072   0.937
 4435TIP3   OH234863   1.527   3.933   1.829
 4435TIP3    H134864   1.512   3.871   1.900
 4435TIP3    H234865   1.589   3.997   1.865
 4436TIP3   OH234866   2.934   6.239   8.106
 4436TIP3    H134867   2.895   6.229   8.193
 4436TIP3    H234868   2.995   6.165   8.099
 4437TIP3   OH234869   5.131   3.354   7.867
 4437TIP3    H134870   5.132   3.444   7.836
 4437TIP3    H234871   5.191   3.353   7.942
 4438TIP3   OH234872   1.325   2.668   8.612
 4438TIP3    H134873   1.258   2.672   8.680
 4438TIP3    H234874   1.290   2.719   8.539
 4439TIP3   OH234875   4.364   0.192   0.070
 4439TIP3    H134876   4.295   0.253   0.044
 4439TIP3    H234877   4.319   0.123   0.118
 4440TIP3   OH234878   3.970   2.617   1.302
 4440TIP3    H134879   3.939   2.527   1.293
 4440TIP3    H234880   3.908   2.657   1.363
 4441TIP3   OH234881   6.440   5.521   1.229
 4441TIP3    H134882   6.524   5.476   1.221
 4441TIP3    H234883   6.457   5.594   1.289
 4442TIP3   OH234884   1.279   2.204   7.508
 4442TIP3    H134885   1.367   2.173   7.528
 4442TIP3    H234886   1.289   2.257   7.430
 4443TIP3   OH234887   3.143   5.266   1.664
 4443TIP3    H134888   3.064   5.227   1.702
 4443TIP3    H234889   3.195   5.293   1.739
 4444TIP3   OH234890   4.662   2.140   0.379
 4444TIP3    H134891   4.757   2.152   0.381
 4444TIP3    H234892   4.632   2.169   0.465
 4445TIP3   OH234893   1.358   1.816   7.596
 4445TIP3    H134894   1.335   1.794   7.506
 4445TIP3    H234895   1.402   1.901   7.590
 4446TIP3   OH234896   3.722   6.324   1.416
 4446TIP3    H134897   3.664   6.261   1.372
 4446TIP3    H234898   3.782   6.353   1.348
 4447TIP3   OH234899   5.689   2.099   1.345
 4447TIP3    H134900   5.720   2.026   1.292
 4447TIP3    H234901   5.664   2.166   1.281
 4448TIP3   OH234902   5.932   2.941   7.443
 4448TIP3    H134903   5.964   3.030   7.459
 4448TIP3    H234904   5.837   2.948   7.454
 4449TIP3   OH234905   0.288   5.832   8.355
 4449TIP3    H134906   0.358   5.836   8.420
 4449TIP3    H234907   0.257   5.741   8.359
 4450TIP3   OH234908   1.853   1.559   8.482
 4450TIP3    H134909   1.934   1.518   8.450
 4450TIP3    H234910   1.856   1.648   8.448
 4451TIP3   OH234911   1.646   6.498   0.071
 4451TIP3    H134912   1.562   6.517   0.113
 4451TIP3    H234913   1.627   6.501   8.891
 4452TIP3   OH234914   3.206   0.309   6.335
 4452TIP3    H134915   3.287   0.275   6.374
 4452TIP3    H234916   3.178   0.378   6.395
 4453TIP3   OH234917   2.022   2.311   0.347
 4453TIP3    H134918   1.930   2.333   0.331
 4453TIP3    H234919   2.055   2.382   0.401
 4454TIP3   OH234920   2.417   6.762   0.147
 4454TIP3    H134921   2.410   0.078   0.122
 4454TIP3    H234922   2.368   6.715   0.080
 4455TIP3   OH234923   1.707   2.552   1.810
 4455TIP3    H134924   1.684   2.460   1.815
 4455TIP3    H234925   1.717   2.580   1.901
 4456TIP3   OH234926   4.207   3.053   1.230
 4456TIP3    H134927   4.162   3.001   1.163
 4456TIP3    H234928   4.136   3.090   1.283
 4457TIP3   OH234929   6.364   5.870   8.404
 4457TIP3    H134930   6.356   5.963   8.380
 4457TIP3    H234931   6.407   5.872   8.489
 4458TIP3   OH234932   4.038   3.965   8.233
 4458TIP3    H134933   4.001   3.996   8.316
 4458TIP3    H234934   4.122   3.927   8.257
 4459TIP3   OH234935   2.932   1.581   8.169
 4459TIP3    H134936   2.971   1.523   8.235
 4459TIP3    H234937   2.837   1.570   8.181
 4460TIP3   OH234938   0.289   3.983   0.067
 4460TIP3    H134939   0.298   3.986   8.885
 4460TIP3    H234940   0.372   3.946   0.098
 4461TIP3   OH234941   2.372   1.044   8.619
 4461TIP3    H134942   2.431   1.065   8.547
 4461TIP3    H234943   2.294   1.008   8.577
 4462TIP3   OH234944   5.533   2.512   0.453
 4462TIP3    H134945   5.538   2.417   0.465
 4462TIP3    H234946   5.612   2.545   0.495
 4463TIP3   OH234947   2.121   0.715   7.317
 4463TIP3    H134948   2.101   0.777   7.388
 4463TIP3    H234949   2.127   0.770   7.239
 4464TIP3   OH234950   3.803   0.773   1.711
 4464TIP3    H134951   3.884   0.780   1.661
 4464TIP3    H234952   3.750   0.848   1.682
 4465TIP3   OH234953   1.850   0.832   7.435
 4465TIP3    H134954   1.839   0.748   7.479
 4465TIP3    H234955   1.922   0.874   7.481
 4466TIP3   OH234956   4.689   4.106   0.433
 4466TIP3    H134957   4.682   4.126   0.339
 4466TIP3    H234958   4.623   4.162   0.474
 4467TIP3   OH234959   0.360   5.612   7.918
 4467TIP3    H134960   0.391   5.703   7.918
 4467TIP3    H234961   0.393   5.577   7.835
 4468TIP3   OH234962   6.475   2.774   2.230
 4468TIP3    H134963   6.567   2.780   2.204
 4468TIP3    H234964   6.451   2.684   2.212
 4469TIP3   OH234965   5.956   2.479   7.436
 4469TIP3    H134966   5.900   2.514   7.506
 4469TIP3    H234967   5.974   2.555   7.380
 4470TIP3   OH234968   4.501   3.151   7.553
 4470TIP3    H134969   4.522   3.092   7.625
 4470TIP3    H234970   4.427   3.109   7.509
 4471TIP3   OH234971   1.521   1.679   6.998
 4471TIP3    H134972   1.569   1.598   6.976
 4471TIP3    H234973   1.523   1.730   6.918
 4472TIP3   OH234974   3.279   2.562   8.568
 4472TIP3    H134975   3.375   2.568   8.572
 4472TIP3    H234976   3.261   2.519   8.485
 4473TIP3   OH234977   1.401   1.236   1.713
 4473TIP3    H134978   1.424   1.328   1.698
 4473TIP3    H234979   1.425   1.221   1.805
 4474TIP3   OH234980   5.790   3.666   8.114
 4474TIP3    H134981   5.805   3.739   8.174
 4474TIP3    H234982   5.777   3.590   8.170
 4475TIP3   OH234983   6.128   1.337   1.732
 4475TIP3    H134984   6.223   1.337   1.745
 4475TIP3    H234985   6.099   1.256   1.775
 4476TIP3   OH234986   0.269   0.912   1.159
 4476TIP3    H134987   0.193   0.857   1.140
 4476TIP3    H234988   0.255   0.992   1.108
 4477TIP3   OH234989   1.026   5.187   0.783
 4477TIP3    H134990   1.056   5.146   0.864
 4477TIP3    H234991   1.039   5.121   0.715
 4478TIP3   OH234992   0.734   1.067   8.217
 4478TIP3    H134993   0.719   0.977   8.244
 4478TIP3    H234994   0.757   1.113   8.298
 4479TIP3   OH234995   1.427   0.987   6.783
 4479TIP3    H134996   1.345   0.999   6.831
 4479TIP3    H234997   1.482   0.937   6.842
 4480TIP3   OH234998   6.690   2.211   7.138
 4480TIP3    H134999   6.764   2.261   7.172
 4480TIP3    H235000   6.665   2.256   7.057
 4481TIP3   OH235001   2.808   4.957   7.587
 4481TIP3    H135002   2.792   4.973   7.680
 4481TIP3    H235003   2.722   4.965   7.546
 4482TIP3   OH235004   0.459   5.466   8.384
 4482TIP3    H135005   0.381   5.518   8.366
 4482TIP3    H235006   0.479   5.482   8.476
 4483TIP3   OH235007   3.333   6.664   7.234
 4483TIP3    H135008   3.365   6.577   7.257
 4483TIP3    H235009   3.365   6.721   7.304
 4484TIP3   OH235010   2.837   2.225   8.107
 4484TIP3    H135011   2.814   2.133   8.092
 4484TIP3    H235012   2.768   2.257   8.165
 4485TIP3   OH235013   1.467   2.877   7.993
 4485TIP3    H135014   1.443   2.785   7.985
 4485TIP3    H235015   1.526   2.892   7.919
 4486TIP3   OH235016   3.760   4.270   7.838
 4486TIP3    H135017   3.768   4.198   7.775
 4486TIP3    H235018   3.695   4.328   7.800
 4487TIP3   OH235019   1.784   5.157   1.230
 4487TIP3    H135020   1.841   5.229   1.258
 4487TIP3    H235021   1.722   5.146   1.302
 4488TIP3   OH235022   5.458   2.887   8.484
 4488TIP3    H135023   5.378   2.843   8.455
 4488TIP3    H235024   5.515   2.816   8.515
 4489TIP3   OH235025   3.808   4.409   2.514
 4489TIP3    H135026   3.893   4.373   2.490
 4489TIP3    H235027   3.748   4.375   2.447
 4490TIP3   OH235028   2.471   6.631   7.527
 4490TIP3    H135029   2.495   6.713   7.571
 4490TIP3    H235030   2.440   6.575   7.597
 4491TIP3   OH235031   1.419   3.329   1.315
 4491TIP3    H135032   1.506   3.294   1.293
 4491TIP3    H235033   1.361   3.291   1.249
 4492TIP3   OH235034   3.033   3.319   1.392
 4492TIP3    H135035   2.993   3.280   1.315
 4492TIP3    H235036   2.967   3.379   1.426
 4493TIP3   OH235037   2.995   0.292   1.332
 4493TIP3    H135038   3.046   0.373   1.323
 4493TIP3    H235039   3.011   0.244   1.251
 4494TIP3   OH235040   0.906   0.477   1.104
 4494TIP3    H135041   0.917   0.463   1.198
 4494TIP3    H235042   0.934   0.394   1.064
 4495TIP3   OH235043   5.201   4.931   1.569
 4495TIP3    H135044   5.233   4.974   1.649
 4495TIP3    H235045   5.181   4.842   1.595
 4496TIP3   OH235046   1.905   1.021   6.971
 4496TIP3    H135047   1.885   0.964   6.897
 4496TIP3    H235048   1.911   0.962   7.046
 4497TIP3   OH235049   0.469   6.083   1.022
 4497TIP3    H135050   0.385   6.072   1.066
 4497TIP3    H235051   0.447   6.122   0.937
 4498TIP3   OH235052   6.605   0.018   0.727
 4498TIP3    H135053   6.685   6.769   0.679
 4498TIP3    H235054   6.577   0.099   0.685
 4499TIP3   OH235055   0.416   3.234   1.777
 4499TIP3    H135056   0.353   3.237   1.850
 4499TIP3    H235057   0.377   3.173   1.715
 4500TIP3   OH235058   4.457   6.075   8.318
 4500TIP3    H135059   4.419   6.069   8.406
 4500TIP3    H235060   4.500   5.990   8.305
 4501TIP3   OH235061   1.914   2.407   6.789
 4501TIP3    H135062   1.985   2.471   6.794
 4501TIP3    H235063   1.874   2.408   6.877
 4502TIP3   OH235064   0.460   5.864   7.351
 4502TIP3    H135065   0.376   5.828   7.321
 4502TIP3    H235066   0.471   5.944   7.301
 4503TIP3   OH235067   6.496   2.024   8.242
 4503TIP3    H135068   6.562   1.965   8.279
 4503TIP3    H235069   6.441   1.967   8.189
 4504TIP3   OH235070   5.280   3.958   7.919
 4504TIP3    H135071   5.331   3.987   7.843
 4504TIP3    H235072   5.343   3.960   7.992
 4505TIP3   OH235073   0.119   0.652   0.426
 4505TIP3    H135074   0.097   0.602   0.505
 4505TIP3    H235075   0.140   0.740   0.459
 4506TIP3   OH235076   0.887   1.103   1.592
 4506TIP3    H135077   0.890   1.132   1.683
 4506TIP3    H235078   0.962   1.144   1.551
 4507TIP3   OH235079   4.020   3.039   6.666
 4507TIP3    H135080   4.020   2.945   6.684
 4507TIP3    H235081   3.943   3.073   6.713
 4508TIP3   OH235082   4.096   2.891   0.698
 4508TIP3    H135083   4.142   2.939   0.767
 4508TIP3    H235084   4.026   2.951   0.671
 4509TIP3   OH235085   0.775   3.381   1.526
 4509TIP3    H135086   0.761   3.469   1.490
 4509TIP3    H235087   0.796   3.327   1.449
 4510TIP3   OH235088   1.025   6.296   6.526
 4510TIP3    H135089   1.092   6.228   6.522
 4510TIP3    H235090   0.990   6.301   6.437
 4511TIP3   OH235091   4.470   2.255   0.565
 4511TIP3    H135092   4.441   2.288   0.650
 4511TIP3    H235093   4.400   2.278   0.504
 4512TIP3   OH235094   1.239   1.087   0.376
 4512TIP3    H135095   1.318   1.118   0.422
 4512TIP3    H235096   1.224   0.999   0.412
 4513TIP3   OH235097   0.005   0.962   7.070
 4513TIP3    H135098   0.019   1.013   6.990
 4513TIP3    H235099   0.089   0.965   7.115
 4514TIP3   OH235100   5.002   5.044   0.023
 4514TIP3    H135101   4.938   4.987   8.892
 4514TIP3    H235102   4.950   5.120   0.050
 4515TIP3   OH235103   0.332   0.019   8.293
 4515TIP3    H135104   0.416   6.758   8.266
 4515TIP3    H235105   0.324   6.772   8.385
 4516TIP3   OH235106   2.210   3.133   7.554
 4516TIP3    H135107   2.129   3.174   7.584
 4516TIP3    H235108   2.265   3.206   7.525
 4517TIP3   OH235109   1.069   2.964   0.179
 4517TIP3    H135110   1.121   3.005   0.110
 4517TIP3    H235111   1.102   3.001   0.260
 4518TIP3   OH235112   6.724   5.696   1.343
 4518TIP3    H135113   6.739   5.606   1.370
 4518TIP3    H235114   0.007   5.711   1.270
 4519TIP3   OH235115   4.545   0.723   0.244
 4519TIP3    H135116   4.499   0.647   0.280
 4519TIP3    H235117   4.637   0.708   0.266
 4520TIP3   OH235118   2.589   5.317   8.151
 4520TIP3    H135119   2.659   5.262   8.186
 4520TIP3    H235120   2.617   5.406   8.170
 4521TIP3   OH235121   0.753   3.833   2.162
 4521TIP3    H135122   0.833   3.781   2.153
 4521TIP3    H235123   0.682   3.771   2.147
 4522TIP3   OH235124   1.987   5.996   8.426
 4522TIP3    H135125   1.983   5.985   8.331
 4522TIP3    H235126   1.896   5.997   8.454
 4523TIP3   OH235127   5.458   0.990   2.142
 4523TIP3    H135128   5.369   1.026   2.148
 4523TIP3    H235129   5.446   0.897   2.126
 4524TIP3   OH235130   0.962   0.208   0.992
 4524TIP3    H135131   1.047   0.235   1.028
 4524TIP3    H235132   0.909   0.189   1.069
 4525TIP3   OH235133   0.766   2.019   0.662
 4525TIP3    H135134   0.776   2.051   0.573
 4525TIP3    H235135   0.703   1.947   0.654
 4526TIP3   OH235136   3.273   5.112   8.120
 4526TIP3    H135137   3.307   5.157   8.197
 4526TIP3    H235138   3.348   5.065   8.083
 4527TIP3   OH235139   3.743   1.448   1.879
 4527TIP3    H135140   3.762   1.355   1.868
 4527TIP3    H235141   3.806   1.478   1.945
 4528TIP3   OH235142   5.252   2.288   8.304
 4528TIP3    H135143   5.217   2.246   8.225
 4528TIP3    H235144   5.256   2.218   8.369
 4529TIP3   OH235145   0.254   5.872   7.689
 4529TIP3    H135146   0.160   5.872   7.704
 4529TIP3    H235147   0.270   5.950   7.636
 4530TIP3   OH235148   1.621   4.485   6.773
 4530TIP3    H135149   1.698   4.543   6.773
 4530TIP3    H235150   1.608   4.462   6.681
 4531TIP3   OH235151   2.928   2.882   0.628
 4531TIP3    H135152   2.879   2.950   0.582
 4531TIP3    H235153   3.014   2.882   0.586
 4532TIP3   OH235154   0.983   1.905   8.113
 4532TIP3    H135155   0.939   1.975   8.064
 4532TIP3    H235156   1.001   1.838   8.047
 4533TIP3   OH235157   1.323   3.342   0.047
 4533TIP3    H135158   1.324   3.348   0.143
 4533TIP3    H235159   1.303   3.431   0.018
 4534TIP3   OH235160   4.074   0.109   6.579
 4534TIP3    H135161   4.020   0.148   6.510
 4534TIP3    H235162   4.104   0.026   6.542
 4535TIP3   OH235163   6.057   5.012   6.053
 4535TIP3    H135164   5.988   5.060   6.099
 4535TIP3    H235165   6.130   5.074   6.048
 4536TIP3   OH235166   5.142   3.528   8.771
 4536TIP3    H135167   5.083   3.587   8.817
 4536TIP3    H235168   5.166   3.462   8.837
 4537TIP3   OH235169   3.279   3.567   6.762
 4537TIP3    H135170   3.346   3.620   6.806
 4537TIP3    H235171   3.324   3.532   6.685
 4538TIP3   OH235172   5.832   6.409   0.207
 4538TIP3    H135173   5.743   6.375   0.196
 4538TIP3    H235174   5.841   6.420   0.302
 4539TIP3   OH235175   2.723   3.426   7.794
 4539TIP3    H135176   2.629   3.406   7.788
 4539TIP3    H235177   2.761   3.387   7.715
 4540TIP3   OH235178   3.319   4.003   6.702
 4540TIP3    H135179   3.351   4.065   6.635
 4540TIP3    H235180   3.307   4.057   6.780
 4541TIP3   OH235181   6.593   0.815   8.267
 4541TIP3    H135182   6.646   0.854   8.198
 4541TIP3    H235183   6.656   0.785   8.332
 4542TIP3   OH235184   5.587   1.640   7.271
 4542TIP3    H135185   5.501   1.672   7.244
 4542TIP3    H235186   5.589   1.549   7.243
 4543TIP3   OH235187   6.186   3.549   6.913
 4543TIP3    H135188   6.172   3.498   6.834
 4543TIP3    H235189   6.124   3.622   6.907
 4544TIP3   OH235190   5.296   3.343   0.702
 4544TIP3    H135191   5.237   3.352   0.777
 4544TIP3    H235192   5.344   3.426   0.698
 4545TIP3   OH235193   5.106   4.362   1.005
 4545TIP3    H135194   5.179   4.401   1.054
 4545TIP3    H235195   5.118   4.268   1.015
 4546TIP3   OH235196   3.553   1.007   8.687
 4546TIP3    H135197   3.575   1.000   8.594
 4546TIP3    H235198   3.625   0.965   8.732
 4547TIP3   OH235199   1.205   2.955   7.825
 4547TIP3    H135200   1.282   2.958   7.882
 4547TIP3    H235201   1.134   2.926   7.881
 4548TIP3   OH235202   1.608   5.917   0.600
 4548TIP3    H135203   1.530   5.862   0.595
 4548TIP3    H235204   1.600   5.963   0.684
 4549TIP3   OH235205   2.709   2.281   7.010
 4549TIP3    H135206   2.775   2.243   6.951
 4549TIP3    H235207   2.628   2.278   6.960
 4550TIP3   OH235208   3.820   3.554   1.538
 4550TIP3    H135209   3.775   3.637   1.524
 4550TIP3    H235210   3.867   3.566   1.621
 4551TIP3   OH235211   2.837   6.738   1.735
 4551TIP3    H135212   2.844   6.678   1.661
 4551TIP3    H235213   2.888   6.696   1.804
 4552TIP3   OH235214   6.371   2.098   6.866
 4552TIP3    H135215   6.317   2.092   6.944
 4552TIP3    H235216   6.450   2.143   6.895
 4553TIP3   OH235217   1.178   3.542   7.749
 4553TIP3    H135218   1.083   3.549   7.751
 4553TIP3    H235219   1.208   3.628   7.719
 4554TIP3   OH235220   5.384   3.161   2.044
 4554TIP3    H135221   5.447   3.091   2.025
 4554TIP3    H235222   5.410   3.194   2.130
 4555TIP3   OH235223   6.480   6.384   7.071
 4555TIP3    H135224   6.389   6.410   7.086
 4555TIP3    H235225   6.531   6.461   7.093
 4556TIP3   OH235226   2.731   5.226   0.097
 4556TIP3    H135227   2.767   5.159   0.156
 4556TIP3    H235228   2.792   5.299   0.105
 4557TIP3   OH235229   5.907   4.899   1.809
 4557TIP3    H135230   5.962   4.824   1.831
 4557TIP3    H235231   5.864   4.922   1.891
 4558TIP3   OH235232   2.396   0.835   1.229
 4558TIP3    H135233   2.456   0.839   1.303
 4558TIP3    H235234   2.435   0.892   1.162
 4559TIP3   OH235235   6.602   1.020   1.787
 4559TIP3    H135236   6.507   1.027   1.787
 4559TIP3    H235237   6.626   1.003   1.878
 4560TIP3   OH235238   2.044   6.315   1.005
 4560TIP3    H135239   1.979   6.276   1.063
 4560TIP3    H235240   2.024   6.408   1.005
 4561TIP3   OH235241   6.499   3.909   7.897
 4561TIP3    H135242   6.562   3.839   7.915
 4561TIP3    H235243   6.466   3.889   7.809
 4562TIP3   OH235244   6.337   2.857   8.355
 4562TIP3    H135245   6.395   2.925   8.388
 4562TIP3    H235246   6.333   2.792   8.425
 4563TIP3   OH235247   6.491   4.170   7.822
 4563TIP3    H135248   6.502   4.083   7.862
 4563TIP3    H235249   6.550   4.170   7.747
 4564TIP3   OH235250   5.621   0.171   1.101
 4564TIP3    H135251   5.536   0.202   1.070
 4564TIP3    H235252   5.677   0.175   1.023
 4565TIP3   OH235253   6.172   2.431   6.259
 4565TIP3    H135254   6.167   2.396   6.170
 4565TIP3    H235255   6.104   2.384   6.307
 4566TIP3   OH235256   3.049   6.363   0.700
 4566TIP3    H135257   2.962   6.390   0.729
 4566TIP3    H235258   3.098   6.445   0.692
 4567TIP3   OH235259   6.219   4.578   8.655
 4567TIP3    H135260   6.159   4.581   8.729
 4567TIP3    H235261   6.299   4.539   8.690
 4568TIP3   OH235262   3.965   5.438   8.663
 4568TIP3    H135263   3.907   5.487   8.606
 4568TIP3    H235264   3.949   5.346   8.642
 4569TIP3   OH235265   4.089   1.029   1.158
 4569TIP3    H135266   4.156   1.095   1.177
 4569TIP3    H235267   4.109   1.000   1.069
 4570TIP3   OH235268   3.484   1.473   0.184
 4570TIP3    H135269   3.526   1.485   0.099
 4570TIP3    H235270   3.391   1.467   0.165
 4571TIP3   OH235271   4.634   0.122   7.942
 4571TIP3    H135272   4.577   0.048   7.922
 4571TIP3    H235273   4.713   0.106   7.890
 4572TIP3   OH235274   0.317   4.127   7.880
 4572TIP3    H135275   0.388   4.183   7.850
 4572TIP3    H235276   0.344   4.039   7.855
 4573TIP3   OH235277   2.170   2.327   7.299
 4573TIP3    H135278   2.251   2.356   7.341
 4573TIP3    H235279   2.154   2.392   7.231
 4574TIP3   OH235280   0.563   4.542   7.204
 4574TIP3    H135281   0.588   4.580   7.288
 4574TIP3    H235282   0.610   4.594   7.139
 4575TIP3   OH235283   3.883   3.640   0.708
 4575TIP3    H135284   3.871   3.594   0.625
 4575TIP3    H235285   3.946   3.709   0.689
 4576TIP3   OH235286   0.802   5.327   8.173
 4576TIP3    H135287   0.758   5.398   8.220
 4576TIP3    H235288   0.813   5.258   8.238
 4577TIP3   OH235289   1.574   6.065   8.794
 4577TIP3    H135290   1.608   6.132   8.853
 4577TIP3    H235291   1.552   5.992   8.851
 4578TIP3   OH235292   0.295   6.341   7.403
 4578TIP3    H135293   0.340   6.393   7.337
 4578TIP3    H235294   0.211   6.385   7.415
 4579TIP3   OH235295   5.837   4.982   0.422
 4579TIP3    H135296   5.879   5.067   0.438
 4579TIP3    H235297   5.799   4.957   0.506
 4580TIP3   OH235298   2.444   1.556   2.479
 4580TIP3    H135299   2.411   1.468   2.461
 4580TIP3    H235300   2.538   1.550   2.460
 4581TIP3   OH235301   6.085   4.623   8.886
 4581TIP3    H135302   5.997   4.618   8.848
 4581TIP3    H235303   6.087   4.708   0.017
 4582TIP3   OH235304   2.506   3.886   7.893
 4582TIP3    H135305   2.533   3.807   7.940
 4582TIP3    H235306   2.470   3.853   7.811
 4583TIP3   OH235307   0.259   2.274   1.318
 4583TIP3    H135308   0.311   2.194   1.307
 4583TIP3    H235309   0.195   2.251   1.385
 4584TIP3   OH235310   3.954   3.534   7.609
 4584TIP3    H135311   3.926   3.443   7.592
 4584TIP3    H235312   3.924   3.551   7.698
 4585TIP3   OH235313   5.738   0.527   0.336
 4585TIP3    H135314   5.823   0.557   0.367
 4585TIP3    H235315   5.678   0.545   0.409
 4586TIP3   OH235316   6.323   6.529   0.869
 4586TIP3    H135317   6.384   6.602   0.877
 4586TIP3    H235318   6.361   6.459   0.922
 4587TIP3   OH235319   0.112   3.565   1.531
 4587TIP3    H135320   0.043   3.500   1.515
 4587TIP3    H235321   0.193   3.514   1.530
 4588TIP3   OH235322   4.189   1.838   2.846
 4588TIP3    H135323   4.126   1.807   2.911
 4588TIP3    H235324   4.194   1.932   2.861
 4589TIP3   OH235325   3.386   2.922   8.065
 4589TIP3    H135326   3.334   2.986   8.017
 4589TIP3    H235327   3.321   2.864   8.106
 4590TIP3   OH235328   1.061   1.347   2.294
 4590TIP3    H135329   0.974   1.369   2.260
 4590TIP3    H235330   1.098   1.431   2.321
 4591TIP3   OH235331   4.935   2.158   8.780
 4591TIP3    H135332   4.905   2.073   8.810
 4591TIP3    H235333   4.855   2.209   8.769
 4592TIP3   OH235334   4.734   3.816   1.845
 4592TIP3    H135335   4.750   3.805   1.751
 4592TIP3    H235336   4.682   3.739   1.869
 4593TIP3   OH235337   5.087   4.105   7.592
 4593TIP3    H135338   5.068   4.196   7.616
 4593TIP3    H235339   5.001   4.066   7.574
 4594TIP3   OH235340   4.051   5.815   6.626
 4594TIP3    H135341   4.131   5.782   6.669
 4594TIP3    H235342   3.994   5.738   6.620
 4595TIP3   OH235343   4.759   2.214   0.713
 4595TIP3    H135344   4.769   2.120   0.693
 4595TIP3    H235345   4.702   2.216   0.790
 4596TIP3   OH235346   6.719   0.622   0.750
 4596TIP3    H135347   6.757   0.704   0.720
 4596TIP3    H235348   6.643   0.608   0.694
 4597TIP3   OH235349   3.370   4.931   0.590
 4597TIP3    H135350   3.437   4.897   0.650
 4597TIP3    H235351   3.314   4.986   0.645
 4598TIP3   OH235352   3.118   1.358   6.980
 4598TIP3    H135353   3.069   1.441   6.978
 4598TIP3    H235354   3.088   1.311   6.903
 4599TIP3   OH235355   0.721   5.404   7.810
 4599TIP3    H135356   0.685   5.334   7.865
 4599TIP3    H235357   0.688   5.485   7.850
 4600TIP3   OH235358   3.497   6.248   8.664
 4600TIP3    H135359   3.415   6.207   8.691
 4600TIP3    H235360   3.470   6.320   8.606
 4601TIP3   OH235361   4.743   6.219   8.240
 4601TIP3    H135362   4.780   6.161   8.174
 4601TIP3    H235363   4.707   6.293   8.190
 4602TIP3   OH235364   6.595   3.395   7.918
 4602TIP3    H135365   6.654   3.322   7.938
 4602TIP3    H235366   6.515   3.375   7.967
 4603TIP3   OH235367   3.380   4.273   1.104
 4603TIP3    H135368   3.310   4.331   1.132
 4603TIP3    H235369   3.395   4.215   1.178
 4604TIP3   OH235370   5.212   4.460   0.649
 4604TIP3    H135371   5.224   4.517   0.573
 4604TIP3    H235372   5.273   4.495   0.714
 4605TIP3   OH235373   0.195   3.705   8.266
 4605TIP3    H135374   0.144   3.784   8.247
 4605TIP3    H235375   0.204   3.706   8.362
 4606TIP3   OH235376   5.873   2.984   8.157
 4606TIP3    H135377   5.942   2.942   8.105
 4606TIP3    H235378   5.918   3.015   8.235
 4607TIP3   OH235379   1.496   4.563   0.309
 4607TIP3    H135380   1.421   4.504   0.305
 4607TIP3    H235381   1.457   4.650   0.312
 4608TIP3   OH235382   4.186   0.757   2.824
 4608TIP3    H135383   4.112   0.811   2.796
 4608TIP3    H235384   4.235   0.739   2.744
 4609TIP3   OH235385   5.667   1.901   8.467
 4609TIP3    H135386   5.638   1.814   8.440
 4609TIP3    H235387   5.640   1.908   8.558
 4610TIP3   OH235388   1.576   2.076   8.051
 4610TIP3    H135389   1.555   2.165   8.080
 4610TIP3    H235390   1.667   2.063   8.078
 4611TIP3   OH235391   5.188   1.940   1.480
 4611TIP3    H135392   5.137   1.992   1.418
 4611TIP3    H235393   5.278   1.967   1.465
 4612TIP3   OH235394   2.100   5.317   7.988
 4612TIP3    H135395   2.136   5.292   7.903
 4612TIP3    H235396   2.178   5.331   8.043
 4613TIP3   OH235397   3.089   3.285   7.449
 4613TIP3    H135398   3.169   3.270   7.499
 4613TIP3    H235399   3.067   3.200   7.412
 4614TIP3   OH235400   2.503   5.988   1.576
 4614TIP3    H135401   2.427   5.950   1.532
 4614TIP3    H235402   2.465   6.041   1.647
 4615TIP3   OH235403   1.268   6.392   8.283
 4615TIP3    H135404   1.322   6.470   8.295
 4615TIP3    H235405   1.179   6.426   8.273
 4616TIP3   OH235406   0.707   0.234   8.745
 4616TIP3    H135407   0.747   0.237   8.659
 4616TIP3    H235408   0.765   0.286   8.801
 4617TIP3   OH235409   5.026   1.876   8.900
 4617TIP3    H135410   5.021   1.884   0.082
 4617TIP3    H235411   5.109   1.918   8.877
 4618TIP3   OH235412   0.003   2.644   6.604
 4618TIP3    H135413   0.047   2.688   6.531
 4618TIP3    H235414   0.075   2.612   6.659
 4619TIP3   OH235415   5.589   0.767   7.533
 4619TIP3    H135416   5.502   0.770   7.493
 4619TIP3    H235417   5.600   0.675   7.560
 4620TIP3   OH235418   3.081   2.557   1.177
 4620TIP3    H135419   2.996   2.589   1.207
 4620TIP3    H235420   3.062   2.471   1.140
 4621TIP3   OH235421   5.633   5.401   0.209
 4621TIP3    H135422   5.600   5.349   0.136
 4621TIP3    H235423   5.705   5.452   0.172
 4622TIP3   OH235424   4.486   1.957   0.961
 4622TIP3    H135425   4.479   1.968   0.867
 4622TIP3    H235426   4.507   1.865   0.974
 4623TIP3   OH235427   2.304   1.413   0.459
 4623TIP3    H135428   2.314   1.387   0.367
 4623TIP3    H235429   2.291   1.331   0.506
 4624TIP3   OH235430   2.806   0.498   8.766
 4624TIP3    H135431   2.833   0.564   8.702
 4624TIP3    H235432   2.856   0.518   8.845
 4625TIP3   OH235433   1.904   0.640   7.642
 4625TIP3    H135434   1.841   0.589   7.692
 4625TIP3    H235435   1.963   0.677   7.708
 4626TIP3   OH235436   1.775   2.977   7.930
 4626TIP3    H135437   1.706   2.986   7.864
 4626TIP3    H235438   1.855   3.002   7.884
 4627TIP3   OH235439   2.456   1.888   6.298
 4627TIP3    H135440   2.364   1.873   6.321
 4627TIP3    H235441   2.501   1.890   6.383
 4628TIP3   OH235442   6.019   2.361   1.595
 4628TIP3    H135443   5.964   2.366   1.517
 4628TIP3    H235444   6.040   2.268   1.603
 4629TIP3   OH235445   1.680   6.627   1.107
 4629TIP3    H135446   1.594   6.669   1.102
 4629TIP3    H235447   1.680   6.565   1.035
 4630TIP3   OH235448   2.466   0.139   8.038
 4630TIP3    H135449   2.461   0.125   8.133
 4630TIP3    H235450   2.462   0.051   8.001
 4631TIP3   OH235451   2.133   1.043   7.761
 4631TIP3    H135452   2.145   1.134   7.737
 4631TIP3    H235453   2.181   1.033   7.843
 4632TIP3   OH235454   0.160   6.680   7.509
 4632TIP3    H135455   0.233   6.659   7.568
 4632TIP3    H235456   0.126   6.763   7.540
 4633TIP3   OH235457   5.651   1.032   7.570
 4633TIP3    H135458   5.663   0.937   7.563
 4633TIP3    H235459   5.613   1.058   7.486
 4634TIP3   OH235460   2.786   2.499   0.990
 4634TIP3    H135461   2.744   2.500   1.076
 4634TIP3    H235462   2.733   2.440   0.937
 4635TIP3   OH235463   0.179   5.879   8.695
 4635TIP3    H135464   0.195   5.785   8.681
 4635TIP3    H235465   0.153   5.885   8.787
 4636TIP3   OH235466   1.380   1.896   1.611
 4636TIP3    H135467   1.381   1.829   1.680
 4636TIP3    H235468   1.347   1.850   1.534
 4637TIP3   OH235469   2.368   4.187   1.358
 4637TIP3    H135470   2.365   4.119   1.291
 4637TIP3    H235471   2.280   4.186   1.397
 4638TIP3   OH235472   4.621   6.130   1.682
 4638TIP3    H135473   4.622   6.223   1.707
 4638TIP3    H235474   4.597   6.084   1.762
 4639TIP3   OH235475   0.984   0.998   1.019
 4639TIP3    H135476   0.969   0.999   0.925
 4639TIP3    H235477   1.063   1.051   1.031
 4640TIP3   OH235478   0.771   5.193   2.038
 4640TIP3    H135479   0.782   5.218   1.946
 4640TIP3    H235480   0.833   5.121   2.050
 4641TIP3   OH235481   3.751   1.757   8.501
 4641TIP3    H135482   3.802   1.679   8.480
 4641TIP3    H235483   3.796   1.828   8.455
 4642TIP3   OH235484   4.198   1.415   1.799
 4642TIP3    H135485   4.102   1.417   1.796
 4642TIP3    H235486   4.223   1.504   1.822
 4643TIP3   OH235487   6.039   2.534   8.280
 4643TIP3    H135488   5.971   2.599   8.263
 4643TIP3    H235489   6.101   2.545   8.207
 4644TIP3   OH235490   6.737   4.527   0.918
 4644TIP3    H135491   0.010   4.553   0.995
 4644TIP3    H235492   6.734   4.431   0.922
 4645TIP3   OH235493   1.044   5.476   1.528
 4645TIP3    H135494   0.997   5.394   1.543
 4645TIP3    H235495   1.106   5.482   1.601
 4646TIP3   OH235496   0.471   2.946   6.496
 4646TIP3    H135497   0.428   2.968   6.578
 4646TIP3    H235498   0.514   2.861   6.513
 4647TIP3   OH235499   2.601   1.269   2.735
 4647TIP3    H135500   2.589   1.195   2.676
 4647TIP3    H235501   2.676   1.318   2.699
 4648TIP3   OH235502   4.257   5.159   7.257
 4648TIP3    H135503   4.246   5.187   7.167
 4648TIP3    H235504   4.284   5.067   7.250
 4649TIP3   OH235505   6.599   3.617   7.428
 4649TIP3    H135506   6.667   3.642   7.365
 4649TIP3    H235507   6.637   3.543   7.475
 4650TIP3   OH235508   3.386   3.164   0.089
 4650TIP3    H135509   3.450   3.100   0.120
 4650TIP3    H235510   3.364   3.136   0.000
 4651TIP3   OH235511   6.090   0.909   7.752
 4651TIP3    H135512   6.106   0.854   7.675
 4651TIP3    H235513   6.157   0.977   7.747
 4652TIP3   OH235514   3.688   0.523   0.981
 4652TIP3    H135515   3.772   0.560   0.953
 4652TIP3    H235516   3.711   0.449   1.037
 4653TIP3   OH235517   2.791   1.380   0.671
 4653TIP3    H135518   2.865   1.437   0.649
 4653TIP3    H235519   2.827   1.319   0.736
 4654TIP3   OH235520   4.263   3.551   2.469
 4654TIP3    H135521   4.236   3.461   2.448
 4654TIP3    H235522   4.212   3.573   2.548
 4655TIP3   OH235523   3.656   1.375   2.226
 4655TIP3    H135524   3.570   1.364   2.264
 4655TIP3    H235525   3.667   1.300   2.168
 4656TIP3   OH235526   1.049   3.990   0.590
 4656TIP3    H135527   1.053   3.895   0.578
 4656TIP3    H235528   0.960   4.013   0.562
 4657TIP3   OH235529   4.284   4.771   8.353
 4657TIP3    H135530   4.191   4.754   8.341
 4657TIP3    H235531   4.305   4.730   8.437
 4658TIP3   OH235532   0.860   1.883   8.759
 4658TIP3    H135533   0.810   1.857   8.836
 4658TIP3    H235534   0.900   1.967   8.783
 4659TIP3   OH235535   4.875   4.300   7.139
 4659TIP3    H135536   4.849   4.221   7.186
 4659TIP3    H235537   4.925   4.267   7.064
 4660TIP3   OH235538   3.172   3.535   8.279
 4660TIP3    H135539   3.085   3.495   8.273
 4660TIP3    H235540   3.229   3.466   8.312
 4661TIP3   OH235541   0.211   2.839   1.781
 4661TIP3    H135542   0.204   2.872   1.871
 4661TIP3    H235543   0.253   2.911   1.733
 4662TIP3   OH235544   1.877   4.072   1.786
 4662TIP3    H135545   1.834   4.029   1.712
 4662TIP3    H235546   1.805   4.096   1.845
 4663TIP3   OH235547   2.539   1.239   6.506
 4663TIP3    H135548   2.497   1.214   6.589
 4663TIP3    H235549   2.550   1.157   6.459
 4664TIP3   OH235550   6.489   2.437   7.445
 4664TIP3    H135551   6.498   2.344   7.425
 4664TIP3    H235552   6.395   2.454   7.437
 4665TIP3   OH235553   3.168   3.396   2.270
 4665TIP3    H135554   3.226   3.472   2.260
 4665TIP3    H235555   3.167   3.356   2.183
 4666TIP3   OH235556   0.243   5.633   8.821
 4666TIP3    H135557   0.179   5.576   8.864
 4666TIP3    H235558   0.318   5.633   8.880
 4667TIP3   OH235559   4.729   5.226   1.117
 4667TIP3    H135560   4.796   5.293   1.112
 4667TIP3    H235561   4.776   5.146   1.142
 4668TIP3   OH235562   1.543   6.079   0.835
 4668TIP3    H135563   1.579   6.039   0.913
 4668TIP3    H235564   1.469   6.023   0.811
 4669TIP3   OH235565   6.131   4.018   8.436
 4669TIP3    H135566   6.208   3.982   8.392
 4669TIP3    H235567   6.164   4.096   8.481
 4670TIP3   OH235568   4.088   0.860   8.011
 4670TIP3    H135569   4.105   0.910   8.091
 4670TIP3    H235570   4.075   0.927   7.943
 4671TIP3   OH235571   3.853   5.225   2.133
 4671TIP3    H135572   3.842   5.132   2.154
 4671TIP3    H235573   3.780   5.244   2.074
 4672TIP3   OH235574   0.239   6.283   1.219
 4672TIP3    H135575   0.236   6.192   1.190
 4672TIP3    H235576   0.263   6.279   1.311
 4673TIP3   OH235577   4.392   3.624   0.584
 4673TIP3    H135578   4.317   3.611   0.643
 4673TIP3    H235579   4.400   3.541   0.537
 4674TIP3   OH235580   5.325   0.070   0.904
 4674TIP3    H135581   5.299   0.120   0.981
 4674TIP3    H235582   5.286   6.760   0.916
 4675TIP3   OH235583   2.674   4.607   7.010
 4675TIP3    H135584   2.605   4.627   6.947
 4675TIP3    H235585   2.636   4.629   7.095
 4676TIP3   OH235586   3.948   5.861   0.315
 4676TIP3    H135587   3.856   5.854   0.290
 4676TIP3    H235588   3.994   5.804   0.253
 4677TIP3   OH235589   3.677   6.119   2.485
 4677TIP3    H135590   3.638   6.185   2.427
 4677TIP3    H235591   3.616   6.046   2.483
 4678TIP3   OH235592   4.641   5.241   1.517
 4678TIP3    H135593   4.584   5.169   1.491
 4678TIP3    H235594   4.622   5.254   1.610
 4679TIP3   OH235595   0.346   4.420   2.529
 4679TIP3    H135596   0.278   4.358   2.503
 4679TIP3    H235597   0.300   4.503   2.541
 4680TIP3   OH235598   0.044   1.683   0.649
 4680TIP3    H135599   0.020   1.597   0.613
 4680TIP3    H235600   0.026   1.744   0.577
 4681TIP3   OH235601   5.806   4.400   7.768
 4681TIP3    H135602   5.788   4.386   7.861
 4681TIP3    H235603   5.745   4.342   7.722
 4682TIP3   OH235604   6.271   3.199   1.554
 4682TIP3    H135605   6.306   3.217   1.641
 4682TIP3    H235606   6.188   3.246   1.552
 4683TIP3   OH235607   2.591   3.642   7.973
 4683TIP3    H135608   2.574   3.565   7.918
 4683TIP3    H235609   2.687   3.651   7.973
 4684TIP3   OH235610   1.193   0.881   8.331
 4684TIP3    H135611   1.233   0.931   8.260
 4684TIP3    H235612   1.241   0.908   8.410
 4685TIP3   OH235613   4.964   5.952   7.513
 4685TIP3    H135614   5.054   5.917   7.513
 4685TIP3    H235615   4.971   6.034   7.464
 4686TIP3   OH235616   3.398   6.709   7.694
 4686TIP3    H135617   3.412   6.617   7.715
 4686TIP3    H235618   3.310   6.712   7.657
 4687TIP3   OH235619   1.654   0.315   7.045
 4687TIP3    H135620   1.736   0.288   7.003
 4687TIP3    H235621   1.590   0.251   7.015
 4688TIP3   OH235622   2.895   6.124   1.602
 4688TIP3    H135623   2.954   6.198   1.610
 4688TIP3    H235624   2.811   6.163   1.577
 4689TIP3   OH235625   2.201   6.559   1.352
 4689TIP3    H135626   2.225   6.499   1.282
 4689TIP3    H235627   2.174   6.639   1.307
 4690TIP3   OH235628   2.641   4.451   1.757
 4690TIP3    H135629   2.622   4.399   1.834
 4690TIP3    H235630   2.712   4.509   1.783
 4691TIP3   OH235631   5.122   6.711   1.597
 4691TIP3    H135632   5.182   6.773   1.639
 4691TIP3    H235633   5.050   6.701   1.660
 4692TIP3   OH235634   4.854   0.038   1.592
 4692TIP3    H135635   4.779   0.075   1.547
 4692TIP3    H235636   4.909   0.001   1.522
 4693TIP3   OH235637   5.933   3.996   0.866
 4693TIP3    H135638   5.981   3.949   0.798
 4693TIP3    H235639   5.843   3.963   0.859
 4694TIP3   OH235640   5.502   1.320   0.202
 4694TIP3    H135641   5.585   1.275   0.216
 4694TIP3    H235642   5.441   1.276   0.262
 4695TIP3   OH235643   1.220   0.292   7.833
 4695TIP3    H135644   1.242   0.376   7.873
 4695TIP3    H235645   1.248   0.301   7.741
 4696TIP3   OH235646   5.543   1.122   8.290
 4696TIP3    H135647   5.549   1.029   8.265
 4696TIP3    H235648   5.499   1.164   8.216
 4697TIP3   OH235649   0.790   5.924   8.075
 4697TIP3    H135650   0.869   5.949   8.124
 4697TIP3    H235651   0.818   5.920   7.984
 4698TIP3   OH235652   1.311   3.784   1.982
 4698TIP3    H135653   1.278   3.701   2.016
 4698TIP3    H235654   1.332   3.835   2.060
 4699TIP3   OH235655   3.455   1.688   1.633
 4699TIP3    H135656   3.546   1.715   1.621
 4699TIP3    H235657   3.451   1.658   1.723
 4700TIP3   OH235658   2.074   2.467   7.058
 4700TIP3    H135659   2.003   2.515   7.102
 4700TIP3    H235660   2.091   2.516   6.978
 4701TIP3   OH235661   5.015   1.356   8.219
 4701TIP3    H135662   4.924   1.328   8.207
 4701TIP3    H235663   5.026   1.364   8.313
 4702TIP3   OH235664   0.353   2.430   7.618
 4702TIP3    H135665   0.413   2.479   7.562
 4702TIP3    H235666   0.304   2.374   7.559
 4703TIP3   OH235667   6.692   6.204   1.517
 4703TIP3    H135668   6.668   6.237   1.603
 4703TIP3    H235669   6.638   6.126   1.505
 4704TIP3   OH235670   2.783   3.868   6.885
 4704TIP3    H135671   2.803   3.793   6.941
 4704TIP3    H235672   2.736   3.929   6.943
 4705TIP3   OH235673   4.524   4.120   1.959
 4705TIP3    H135674   4.587   4.183   1.995
 4705TIP3    H235675   4.530   4.045   2.018
 4706TIP3   OH235676   1.893   5.819   0.537
 4706TIP3    H135677   1.844   5.747   0.497
 4706TIP3    H235678   1.828   5.869   0.585
 4707TIP3   OH235679   4.896   5.411   7.524
 4707TIP3    H135680   4.847   5.332   7.500
 4707TIP3    H235681   4.982   5.398   7.485
 4708TIP3   OH235682   0.540   6.224   8.470
 4708TIP3    H135683   0.462   6.170   8.458
 4708TIP3    H235684   0.613   6.163   8.461
 4709TIP3   OH235685   2.047   5.796   6.652
 4709TIP3    H135686   2.063   5.803   6.557
 4709TIP3    H235687   2.079   5.879   6.687
 4710TIP3   OH235688   4.126   0.298   1.511
 4710TIP3    H135689   4.148   0.205   1.515
 4710TIP3    H235690   4.111   0.315   1.418
 4711TIP3   OH235691   1.918   6.251   1.867
 4711TIP3    H135692   1.844   6.260   1.926
 4711TIP3    H235693   1.990   6.222   1.923
 4712TIP3   OH235694   0.469   2.364   8.186
 4712TIP3    H135695   0.553   2.358   8.231
 4712TIP3    H235696   0.476   2.444   8.133
 4713TIP3   OH235697   5.215   5.781   0.384
 4713TIP3    H135698   5.178   5.693   0.378
 4713TIP3    H235699   5.145   5.839   0.354
 4714TIP3   OH235700   4.829   0.546   8.843
 4714TIP3    H135701   4.793   0.628   8.810
 4714TIP3    H235702   4.827   0.486   8.768
 4715TIP3   OH235703   6.198   1.674   1.282
 4715TIP3    H135704   6.264   1.721   1.231
 4715TIP3    H235705   6.246   1.601   1.321
 4716TIP3   OH235706   1.659   3.597   0.370
 4716TIP3    H135707   1.739   3.555   0.337
 4716TIP3    H235708   1.691   3.671   0.422
 4717TIP3   OH235709   0.487   1.915   2.195
 4717TIP3    H135710   0.395   1.922   2.171
 4717TIP3    H235711   0.488   1.923   2.290
 4718TIP3   OH235712   0.530   0.343   6.920
 4718TIP3    H135713   0.450   0.390   6.940
 4718TIP3    H235714   0.592   0.370   6.988
 4719TIP3   OH235715   2.172   2.052   8.366
 4719TIP3    H135716   2.116   1.982   8.331
 4719TIP3    H235717   2.124   2.133   8.345
 4720TIP3   OH235718   0.148   3.266   0.885
 4720TIP3    H135719   0.129   3.177   0.914
 4720TIP3    H235720   0.225   3.257   0.829
 4721TIP3   OH235721   4.175   0.383   0.049
 4721TIP3    H135722   4.210   0.426   0.127
 4721TIP3    H235723   4.093   0.344   0.078
 4722TIP3   OH235724   5.769   2.861   7.154
 4722TIP3    H135725   5.820   2.931   7.194
 4722TIP3    H235726   5.730   2.900   7.076
 4723TIP3   OH235727   6.548   0.583   0.558
 4723TIP3    H135728   6.569   0.499   0.516
 4723TIP3    H235729   6.508   0.635   0.488
 4724TIP3   OH235730   6.604   5.085   1.905
 4724TIP3    H135731   6.586   5.174   1.875
 4724TIP3    H235732   6.698   5.084   1.923
 4725TIP3   OH235733   4.645   6.542   0.805
 4725TIP3    H135734   4.577   6.597   0.844
 4725TIP3    H235735   4.721   6.556   0.861
 4726TIP3   OH235736   4.138   5.811   1.109
 4726TIP3    H135737   4.212   5.749   1.106
 4726TIP3    H235738   4.177   5.893   1.139
 4727TIP3   OH235739   2.878   1.216   2.127
 4727TIP3    H135740   2.846   1.148   2.187
 4727TIP3    H235741   2.835   1.296   2.157
 4728TIP3   OH235742   5.145   5.996   7.144
 4728TIP3    H135743   5.062   6.040   7.163
 4728TIP3    H235744   5.142   5.978   7.050
 4729TIP3   OH235745   1.729   0.277   0.150
 4729TIP3    H135746   1.720   0.339   0.222
 4729TIP3    H235747   1.816   0.291   0.115
 4730TIP3   OH235748   0.849   5.664   8.789
 4730TIP3    H135749   0.831   5.580   8.745
 4730TIP3    H235750   0.944   5.672   8.787
 4731TIP3   OH235751   3.502   2.241   1.564
 4731TIP3    H135752   3.534   2.177   1.628
 4731TIP3    H235753   3.459   2.188   1.497
 4732TIP3   OH235754   3.500   3.598   0.718
 4732TIP3    H135755   3.480   3.558   0.634
 4732TIP3    H235756   3.431   3.663   0.731
 4733TIP3   OH235757   1.669   4.596   0.714
 4733TIP3    H135758   1.740   4.541   0.681
 4733TIP3    H235759   1.589   4.554   0.681
 4734TIP3   OH235760   2.873   0.999   8.813
 4734TIP3    H135761   2.958   1.024   8.849
 4734TIP3    H235762   2.827   1.082   8.800
 4735TIP3   OH235763   3.821   1.438   1.331
 4735TIP3    H135764   3.775   1.419   1.413
 4735TIP3    H235765   3.908   1.466   1.360
 4736TIP3   OH235766   2.404   2.867   0.209
 4736TIP3    H135767   2.427   2.809   0.281
 4736TIP3    H235768   2.311   2.850   0.193
 4737TIP3   OH235769   2.001   1.810   0.609
 4737TIP3    H135770   1.987   1.868   0.534
 4737TIP3    H235771   2.023   1.869   0.681
 4738TIP3   OH235772   1.588   0.147   8.387
 4738TIP3    H135773   1.572   0.236   8.355
 4738TIP3    H235774   1.561   0.090   8.314
 4739TIP3   OH235775   5.685   4.045   0.678
 4739TIP3    H135776   5.652   4.089   0.756
 4739TIP3    H235777   5.701   3.955   0.707
 4740TIP3   OH235778   3.959   6.743   8.700
 4740TIP3    H135779   3.930   6.656   8.673
 4740TIP3    H235780   4.003   0.002   8.622
 4741TIP3   OH235781   1.455   5.546   1.806
 4741TIP3    H135782   1.488   5.590   1.884
 4741TIP3    H235783   1.389   5.485   1.839
 4742TIP3   OH235784   0.707   2.398   0.729
 4742TIP3    H135785   0.755   2.477   0.754
 4742TIP3    H235786   0.735   2.333   0.794
 4743TIP3   OH235787   6.114   3.453   0.703
 4743TIP3    H135788   6.115   3.471   0.797
 4743TIP3    H235789   6.165   3.373   0.693
 4744TIP3   OH235790   0.963   2.406   0.071
 4744TIP3    H135791   1.017   2.334   0.104
 4744TIP3    H235792   1.011   2.485   0.096
 4745TIP3   OH235793   6.607   5.008   1.631
 4745TIP3    H135794   6.626   4.957   1.710
 4745TIP3    H235795   6.659   4.966   1.562
 4746TIP3   OH235796   0.046   3.003   8.905
 4746TIP3    H135797   0.126   3.040   0.030
 4746TIP3    H235798   0.048   2.910   0.017
 4747TIP3   OH235799   3.236   6.713   1.977
 4747TIP3    H135800   3.286   6.661   2.040
 4747TIP3    H235801   3.269   6.686   1.892
 4748TIP3   OH235802   5.581   6.177   8.526
 4748TIP3    H135803   5.651   6.118   8.553
 4748TIP3    H235804   5.524   6.124   8.471
 4749TIP3   OH235805   5.738   1.407   6.409
 4749TIP3    H135806   5.775   1.495   6.401
 4749TIP3    H235807   5.668   1.405   6.344
 4750TIP3   OH235808   4.948   4.901   7.877
 4750TIP3    H135809   4.855   4.926   7.870
 4750TIP3    H235810   4.991   4.980   7.908
 4751TIP3   OH235811   5.381   1.255   7.011
 4751TIP3    H135812   5.302   1.243   7.064
 4751TIP3    H235813   5.350   1.288   6.927
 4752TIP3   OH235814   1.979   5.394   0.947
 4752TIP3    H135815   1.983   5.419   0.854
 4752TIP3    H235816   1.901   5.438   0.980
 4753TIP3   OH235817   4.266   0.059   1.389
 4753TIP3    H135818   4.338   6.773   1.379
 4753TIP3    H235819   4.255   0.095   1.301
 4754TIP3   OH235820   2.934   0.573   0.113
 4754TIP3    H135821   2.898   0.573   0.202
 4754TIP3    H235822   3.013   0.626   0.118
 4755TIP3   OH235823   6.441   3.917   7.225
 4755TIP3    H135824   6.393   3.912   7.308
 4755TIP3    H235825   6.456   4.010   7.211
 4756TIP3   OH235826   4.566   5.613   7.275
 4756TIP3    H135827   4.615   5.650   7.348
 4756TIP3    H235828   4.585   5.519   7.279
 4757TIP3   OH235829   2.378   3.029   1.112
 4757TIP3    H135830   2.372   3.015   1.017
 4757TIP3    H235831   2.463   3.071   1.125
 4758TIP3   OH235832   0.052   5.842   6.766
 4758TIP3    H135833   0.013   5.822   6.851
 4758TIP3    H235834   0.136   5.796   6.766
 4759TIP3   OH235835   5.570   2.729   7.319
 4759TIP3    H135836   5.556   2.636   7.304
 4759TIP3    H235837   5.646   2.751   7.266
 4760TIP3   OH235838   3.086   4.449   2.041
 4760TIP3    H135839   3.034   4.518   1.999
 4760TIP3    H235840   3.153   4.496   2.089
 4761TIP3   OH235841   4.269   3.389   8.133
 4761TIP3    H135842   4.346   3.405   8.078
 4761TIP3    H235843   4.198   3.433   8.087
 4762TIP3   OH235844   0.337   0.798   7.982
 4762TIP3    H135845   0.360   0.733   7.915
 4762TIP3    H235846   0.417   0.808   8.034
 4763TIP3   OH235847   5.156   5.995   1.382
 4763TIP3    H135848   5.198   5.909   1.382
 4763TIP3    H235849   5.205   6.045   1.448
 4764TIP3   OH235850   6.320   1.040   1.485
 4764TIP3    H135851   6.230   1.008   1.485
 4764TIP3    H235852   6.374   0.961   1.489
 4765TIP3   OH235853   1.281   5.460   7.738
 4765TIP3    H135854   1.308   5.443   7.648
 4765TIP3    H235855   1.253   5.375   7.771
 4766TIP3   OH235856   5.358   2.215   1.520
 4766TIP3    H135857   5.429   2.263   1.563
 4766TIP3    H235858   5.302   2.282   1.483
 4767TIP3   OH235859   4.192   6.504   8.264
 4767TIP3    H135860   4.275   6.545   8.238
 4767TIP3    H235861   4.142   6.575   8.305
 4768TIP3   OH235862   5.029   6.212   7.024
 4768TIP3    H135863   4.947   6.262   7.016
 4768TIP3    H235864   5.023   6.146   6.954
 4769TIP3   OH235865   3.042   6.490   7.094
 4769TIP3    H135866   3.104   6.525   7.030
 4769TIP3    H235867   2.967   6.462   7.043
 4770TIP3   OH235868   1.199   5.942   0.452
 4770TIP3    H135869   1.121   5.961   0.505
 4770TIP3    H235870   1.228   5.856   0.481
 4771TIP3   OH235871   6.589   1.956   1.925
 4771TIP3    H135872   6.613   2.048   1.937
 4771TIP3    H235873   6.647   1.909   1.986
 4772TIP3   OH235874   4.111   3.415   8.775
 4772TIP3    H135875   4.182   3.353   8.766
 4772TIP3    H235876   4.086   3.410   8.867
 4773TIP3   OH235877   4.673   1.709   0.243
 4773TIP3    H135878   4.586   1.747   0.254
 4773TIP3    H235879   4.677   1.684   0.151
 4774TIP3   OH235880   2.025   3.119   8.231
 4774TIP3    H135881   2.076   3.042   8.258
 4774TIP3    H235882   1.935   3.087   8.226
 4775TIP3   OH235883   4.467   6.252   0.186
 4775TIP3    H135884   4.529   6.294   0.126
 4775TIP3    H235885   4.514   6.247   0.269
 4776TIP3   OH235886   4.118   4.292   2.761
 4776TIP3    H135887   4.088   4.259   2.677
 4776TIP3    H235888   4.047   4.272   2.822
 4777TIP3   OH235889   4.800   0.783   7.332
 4777TIP3    H135890   4.795   0.689   7.315
 4777TIP3    H235891   4.871   0.813   7.275
 4778TIP3   OH235892   1.112   1.716   6.997
 4778TIP3    H135893   1.175   1.788   6.998
 4778TIP3    H235894   1.150   1.652   6.936
 4779TIP3   OH235895   0.906   6.409   1.222
 4779TIP3    H135896   0.856   6.333   1.191
 4779TIP3    H235897   0.990   6.402   1.177
 4780TIP3   OH235898   2.434   5.970   8.388
 4780TIP3    H135899   2.457   5.905   8.322
 4780TIP3    H235900   2.422   5.919   8.468
 4781TIP3   OH235901   6.212   0.113   8.782
 4781TIP3    H135902   6.251   0.036   8.824
 4781TIP3    H235903   6.220   0.096   8.688
 4782TIP3   OH235904   6.496   2.711   0.733
 4782TIP3    H135905   6.439   2.647   0.776
 4782TIP3    H235906   6.551   2.746   0.803
 4783TIP3   OH235907   1.000   0.837   0.756
 4783TIP3    H135908   1.093   0.822   0.741
 4783TIP3    H235909   0.964   0.750   0.774
 4784TIP3   OH235910   0.466   3.033   0.905
 4784TIP3    H135911   0.442   3.073   0.822
 4784TIP3    H235912   0.498   2.946   0.881
 4785TIP3   OH235913   1.492   3.248   7.750
 4785TIP3    H135914   1.539   3.172   7.716
 4785TIP3    H235915   1.508   3.317   7.686
 4786TIP3   OH235916   1.426   3.544   1.800
 4786TIP3    H135917   1.486   3.471   1.784
 4786TIP3    H235918   1.412   3.542   1.895
 4787TIP3   OH235919   0.881   4.581   8.131
 4787TIP3    H135920   0.852   4.670   8.150
 4787TIP3    H235921   0.806   4.526   8.153
 4788TIP3   OH235922   2.533   1.047   8.413
 4788TIP3    H135923   2.597   0.992   8.458
 4788TIP3    H235924   2.535   1.017   8.322
 4789TIP3   OH235925   2.410   1.230   0.225
 4789TIP3    H135926   2.488   1.274   0.193
 4789TIP3    H235927   2.347   1.239   0.154
 4790TIP3   OH235928   4.521   2.838   0.430
 4790TIP3    H135929   4.485   2.754   0.459
 4790TIP3    H235930   4.612   2.837   0.457
 4791TIP3   OH235931   5.545   6.354   2.308
 4791TIP3    H135932   5.592   6.360   2.391
 4791TIP3    H235933   5.571   6.433   2.260
 4792TIP3   OH235934   3.670   5.842   0.188
 4792TIP3    H135935   3.602   5.786   0.224
 4792TIP3    H235936   3.622   5.914   0.146
 4793TIP3   OH235937   6.586   0.163   7.809
 4793TIP3    H135938   6.519   0.141   7.744
 4793TIP3    H235939   6.661   0.109   7.787
 4794TIP3   OH235940   5.181   4.225   1.695
 4794TIP3    H135941   5.137   4.273   1.624
 4794TIP3    H235942   5.169   4.133   1.671
 4795TIP3   OH235943   3.220   4.843   7.718
 4795TIP3    H135944   3.181   4.901   7.653
 4795TIP3    H235945   3.176   4.864   7.800
 4796TIP3   OH235946   1.173   5.386   7.487
 4796TIP3    H135947   1.095   5.421   7.530
 4796TIP3    H235948   1.208   5.461   7.437
 4797TIP3   OH235949   2.281   3.128   8.820
 4797TIP3    H135950   2.335   3.127   8.741
 4797TIP3    H235951   2.333   3.178   8.883
 4798TIP3   OH235952   1.792   5.206   0.622
 4798TIP3    H135953   1.718   5.172   0.672
 4798TIP3    H235954   1.869   5.170   0.665
 4799TIP3   OH235955   5.213   4.180   2.689
 4799TIP3    H135956   5.178   4.162   2.777
 4799TIP3    H235957   5.154   4.245   2.653
 4800TIP3   OH235958   1.295   3.621   0.626
 4800TIP3    H135959   1.332   3.653   0.708
 4800TIP3    H235960   1.334   3.535   0.614
 4801TIP3   OH235961   0.729   5.821   7.738
 4801TIP3    H135962   0.711   5.760   7.667
 4801TIP3    H235963   0.665   5.891   7.726
 4802TIP3   OH235964   1.002   0.256   0.590
 4802TIP3    H135965   1.063   0.185   0.610
 4802TIP3    H235966   1.057   0.333   0.577
 4803TIP3   OH235967   3.386   4.510   8.272
 4803TIP3    H135968   3.377   4.596   8.230
 4803TIP3    H235969   3.369   4.447   8.203
 4804TIP3   OH235970   1.261   2.892   6.488
 4804TIP3    H135971   1.233   2.825   6.550
 4804TIP3    H235972   1.285   2.967   6.543
 4805TIP3   OH235973   5.025   1.235   8.582
 4805TIP3    H135974   5.013   1.212   8.675
 4805TIP3    H235975   4.948   1.287   8.560
 4806TIP3   OH235976   4.973   5.597   2.304
 4806TIP3    H135977   5.053   5.579   2.353
 4806TIP3    H235978   4.918   5.519   2.317
 4807TIP3   OH235979   0.703   6.047   6.985
 4807TIP3    H135980   0.789   6.016   7.016
 4807TIP3    H235981   0.671   6.104   7.054
 4808TIP3   OH235982   2.273   1.319   6.934
 4808TIP3    H135983   2.276   1.371   6.854
 4808TIP3    H235984   2.338   1.249   6.920
 4809TIP3   OH235985   2.343   0.271   1.957
 4809TIP3    H135986   2.250   0.284   1.975
 4809TIP3    H235987   2.372   0.208   2.022
 4810TIP3   OH235988   2.024   6.733   8.902
 4810TIP3    H135989   1.981   0.014   8.839
 4810TIP3    H235990   1.984   6.756   0.072
 4811TIP3   OH235991   6.558   6.629   6.763
 4811TIP3    H135992   6.525   6.607   6.676
 4811TIP3    H235993   6.539   6.722   6.772
 4812TIP3   OH235994   3.624   3.143   0.368
 4812TIP3    H135995   3.561   3.132   0.439
 4812TIP3    H235996   3.649   3.053   0.345
 4813TIP3   OH235997   6.228   4.427   1.725
 4813TIP3    H135998   6.243   4.424   1.630
 4813TIP3    H235999   6.213   4.519   1.744
 4814TIP3   OH236000   1.669   2.711   7.317
 4814TIP3    H136001   1.677   2.645   7.248
 4814TIP3    H236002   1.576   2.713   7.339
 4815TIP3   OH236003   1.163   6.194   7.130
 4815TIP3    H136004   1.082   6.245   7.129
 4815TIP3    H236005   1.219   6.236   7.065
 4816TIP3   OH236006   5.127   2.731   8.160
 4816TIP3    H136007   5.147   2.822   8.135
 4816TIP3    H236008   5.121   2.733   8.256
 4817TIP3   OH236009   1.635   1.008   0.963
 4817TIP3    H136010   1.649   0.924   1.008
 4817TIP3    H236011   1.704   1.065   0.997
 4818TIP3   OH236012   1.978   2.988   0.521
 4818TIP3    H136013   2.008   3.064   0.571
 4818TIP3    H236014   1.940   3.026   0.442
 4819TIP3   OH236015   5.285   0.558   8.894
 4819TIP3    H136016   5.358   0.562   0.041
 4819TIP3    H236017   5.209   0.536   0.035
 4820TIP3   OH236018   6.442   4.415   7.397
 4820TIP3    H136019   6.481   4.336   7.434
 4820TIP3    H236020   6.395   4.455   7.470
 4821TIP3   OH236021   4.439   4.281   1.632
 4821TIP3    H136022   4.533   4.295   1.625
 4821TIP3    H236023   4.424   4.266   1.725
 4822TIP3   OH236024   3.406   4.512   0.899
 4822TIP3    H136025   3.348   4.470   0.835
 4822TIP3    H236026   3.455   4.439   0.937
 4823TIP3   OH236027   6.111   5.680   8.771
 4823TIP3    H136028   6.181   5.729   8.815
 4823TIP3    H236029   6.118   5.706   8.679
 4824TIP3   OH236030   5.486   3.674   6.602
 4824TIP3    H136031   5.491   3.582   6.577
 4824TIP3    H236032   5.540   3.719   6.537
 4825TIP3   OH236033   6.315   3.625   0.579
 4825TIP3    H136034   6.350   3.675   0.653
 4825TIP3    H236035   6.252   3.564   0.619
 4826TIP3   OH236036   5.509   4.953   1.608
 4826TIP3    H136037   5.602   4.976   1.618
 4826TIP3    H236038   5.486   4.986   1.521
 4827TIP3   OH236039   0.408   2.230   2.384
 4827TIP3    H136040   0.467   2.232   2.309
 4827TIP3    H236041   0.432   2.307   2.436
 4828TIP3   OH236042   4.081   1.724   8.489
 4828TIP3    H136043   4.098   1.702   8.397
 4828TIP3    H236044   4.038   1.809   8.486
 4829TIP3   OH236045   0.571   0.796   6.870
 4829TIP3    H136046   0.540   0.873   6.917
 4829TIP3    H236047   0.666   0.805   6.869
 4830TIP3   OH236048   5.441   5.260   8.586
 4830TIP3    H136049   5.490   5.308   8.519
 4830TIP3    H236050   5.349   5.278   8.566
 4831TIP3   OH236051   6.772   5.165   1.403
 4831TIP3    H136052   0.075   5.188   1.451
 4831TIP3    H236053   0.003   5.071   1.387
 4832TIP3   OH236054   5.093   3.894   0.045
 4832TIP3    H136055   5.074   3.951   0.121
 4832TIP3    H236056   5.132   3.953   8.894
 4833TIP3   OH236057   2.718   5.917   1.417
 4833TIP3    H136058   2.671   5.913   1.333
 4833TIP3    H236059   2.654   5.953   1.478
 4834TIP3   OH236060   0.865   0.617   0.885
 4834TIP3    H136061   0.870   0.599   0.979
 4834TIP3    H236062   0.843   0.533   0.845
 4835TIP3   OH236063   3.004   3.499   8.568
 4835TIP3    H136064   2.926   3.462   8.527
 4835TIP3    H236065   2.996   3.594   8.555
 4836TIP3   OH236066   5.191   3.203   8.522
 4836TIP3    H136067   5.281   3.206   8.556
 4836TIP3    H236068   5.163   3.294   8.521
 4837TIP3   OH236069   4.065   2.226   7.732
 4837TIP3    H136070   4.086   2.192   7.819
 4837TIP3    H236071   3.970   2.228   7.729
 4838TIP3   OH236072   1.563   2.907   0.947
 4838TIP3    H136073   1.579   2.838   0.882
 4838TIP3    H236074   1.597   2.871   1.028
 4839TIP3   OH236075   5.128   6.557   1.260
 4839TIP3    H136076   5.121   6.464   1.282
 4839TIP3    H236077   5.183   6.594   1.329
 4840TIP3   OH236078   6.151   5.405   0.755
 4840TIP3    H136079   6.179   5.314   0.746
 4840TIP3    H236080   6.116   5.411   0.844
 4841TIP3   OH236081   4.817   1.424   7.029
 4841TIP3    H136082   4.882   1.464   7.087
 4841TIP3    H236083   4.832   1.464   6.944
 4842TIP3   OH236084   3.929   1.563   2.053
 4842TIP3    H136085   3.915   1.632   2.118
 4842TIP3    H236086   4.023   1.545   2.057
 4843TIP3   OH236087   6.118   3.640   7.752
 4843TIP3    H136088   6.099   3.704   7.820
 4843TIP3    H236089   6.183   3.683   7.696
 4844TIP3   OH236090   4.271   0.029   0.266
 4844TIP3    H136091   4.316   6.725   0.292
 4844TIP3    H236092   4.184   0.001   0.239
 4845TIP3   OH236093   2.916   3.737   7.089
 4845TIP3    H136094   2.874   3.689   7.160
 4845TIP3    H236095   2.936   3.670   7.024
 4846TIP3   OH236096   4.830   6.340   2.062
 4846TIP3    H136097   4.842   6.247   2.079
 4846TIP3    H236098   4.745   6.361   2.101
 4847TIP3   OH236099   0.817   3.236   2.255
 4847TIP3    H136100   0.729   3.272   2.241
 4847TIP3    H236101   0.874   3.313   2.251
 4848TIP3   OH236102   4.265   5.569   8.574
 4848TIP3    H136103   4.214   5.495   8.541
 4848TIP3    H236104   4.356   5.540   8.569
 4849TIP3   OH236105   1.539   4.065   8.214
 4849TIP3    H136106   1.615   4.007   8.217
 4849TIP3    H236107   1.464   4.006   8.207
 4850TIP3   OH236108   6.116   0.318   1.315
 4850TIP3    H136109   6.178   0.264   1.267
 4850TIP3    H236110   6.037   0.265   1.322
 4851TIP3   OH236111   6.365   3.275   1.821
 4851TIP3    H136112   6.446   3.298   1.866
 4851TIP3    H236113   6.297   3.285   1.887
 4852TIP3   OH236114   5.838   4.798   1.073
 4852TIP3    H136115   5.854   4.892   1.069
 4852TIP3    H236116   5.874   4.771   1.158
 4853TIP3   OH236117   3.090   1.856   1.907
 4853TIP3    H136118   3.093   1.768   1.869
 4853TIP3    H236119   3.179   1.889   1.900
 4854TIP3   OH236120   2.117   2.165   1.449
 4854TIP3    H136121   2.051   2.201   1.390
 4854TIP3    H236122   2.192   2.223   1.439
 4855TIP3   OH236123   6.545   0.777   0.975
 4855TIP3    H136124   6.614   0.722   0.938
 4855TIP3    H236125   6.477   0.779   0.908
 4856TIP3   OH236126   3.995   4.244   1.217
 4856TIP3    H136127   3.957   4.330   1.198
 4856TIP3    H236128   4.068   4.236   1.156
 4857TIP3   OH236129   4.937   2.122   0.350
 4857TIP3    H136130   5.019   2.116   0.398
 4857TIP3    H236131   4.922   2.216   0.338
 4858TIP3   OH236132   1.951   0.443   8.665
 4858TIP3    H136133   1.996   0.369   8.706
 4858TIP3    H236134   1.860   0.414   8.658
 4859TIP3   OH236135   0.422   1.892   1.834
 4859TIP3    H136136   0.457   1.981   1.832
 4859TIP3    H236137   0.335   1.900   1.873
 4860TIP3   OH236138   5.559   6.148   0.912
 4860TIP3    H136139   5.637   6.099   0.885
 4860TIP3    H236140   5.579   6.239   0.893
 4861TIP3   OH236141   1.303   1.077   7.737
 4861TIP3    H136142   1.366   1.090   7.666
 4861TIP3    H236143   1.355   1.041   7.809
 4862TIP3   OH236144   3.668   2.193   0.169
 4862TIP3    H136145   3.579   2.205   0.202
 4862TIP3    H236146   3.686   2.273   0.119
 4863TIP3   OH236147   2.011   1.651   1.179
 4863TIP3    H136148   1.936   1.596   1.154
 4863TIP3    H236149   2.044   1.685   1.096
 4864TIP3   OH236150   2.891   1.249   1.851
 4864TIP3    H136151   2.949   1.178   1.823
 4864TIP3    H236152   2.880   1.235   1.945
 4865TIP3   OH236153   4.355   4.213   8.790
 4865TIP3    H136154   4.378   4.152   8.720
 4865TIP3    H236155   4.340   4.296   8.746
 4866TIP3   OH236156   5.789   0.518   1.725
 4866TIP3    H136157   5.748   0.541   1.808
 4866TIP3    H236158   5.865   0.464   1.749
 4867TIP3   OH236159   1.122   4.173   0.299
 4867TIP3    H136160   1.184   4.104   0.323
 4867TIP3    H236161   1.087   4.146   0.214
 4868TIP3   OH236162   6.544   4.580   0.609
 4868TIP3    H136163   6.505   4.665   0.625
 4868TIP3    H236164   6.509   4.553   0.524
 4869TIP3   OH236165   1.756   5.991   6.861
 4869TIP3    H136166   1.743   5.991   6.956
 4869TIP3    H236167   1.838   6.038   6.849
 4870TIP3   OH236168   3.596   5.663   8.053
 4870TIP3    H136169   3.629   5.753   8.043
 4870TIP3    H236170   3.668   5.608   8.020
 4871TIP3   OH236171   0.737   6.032   8.754
 4871TIP3    H136172   0.738   5.943   8.788
 4871TIP3    H236173   0.687   6.082   8.818
 4872TIP3   OH236174   2.810   1.813   6.812
 4872TIP3    H136175   2.899   1.777   6.807
 4872TIP3    H236176   2.807   1.860   6.895
 4873TIP3   OH236177   2.944   2.508   7.852
 4873TIP3    H136178   3.005   2.462   7.793
 4873TIP3    H236179   2.928   2.592   7.809
 4874TIP3   OH236180   1.568   3.414   7.551
 4874TIP3    H136181   1.536   3.371   7.471
 4874TIP3    H236182   1.663   3.414   7.541
 4875TIP3   OH236183   2.380   4.146   8.280
 4875TIP3    H136184   2.413   4.234   8.299
 4875TIP3    H236185   2.448   4.106   8.226
 4876TIP3   OH236186   1.810   4.539   7.276
 4876TIP3    H136187   1.788   4.587   7.196
 4876TIP3    H236188   1.792   4.447   7.255
 4877TIP3   OH236189   4.930   2.395   0.353
 4877TIP3    H136190   4.933   2.382   0.448
 4877TIP3    H236191   4.970   2.481   0.339
 4878TIP3   OH236192   3.135   0.896   7.699
 4878TIP3    H136193   3.220   0.870   7.736
 4878TIP3    H236194   3.146   0.888   7.605
 4879TIP3   OH236195   2.287   5.034   8.233
 4879TIP3    H136196   2.298   4.970   8.163
 4879TIP3    H236197   2.276   4.982   8.312
 4880TIP3   OH236198   1.958   5.835   1.337
 4880TIP3    H136199   2.014   5.886   1.395
 4880TIP3    H236200   1.977   5.744   1.358
 4881TIP3   OH236201   6.383   3.846   0.342
 4881TIP3    H136202   6.333   3.784   0.394
 4881TIP3    H236203   6.399   3.920   0.402
 4882TIP3   OH236204   1.836   2.707   1.635
 4882TIP3    H136205   1.786   2.658   1.701
 4882TIP3    H236206   1.907   2.648   1.611
 4883TIP3   OH236207   1.445   0.435   1.729
 4883TIP3    H136208   1.501   0.359   1.710
 4883TIP3    H236209   1.412   0.419   1.818
 4884TIP3   OH236210   2.640   2.343   0.598
 4884TIP3    H136211   2.637   2.263   0.545
 4884TIP3    H236212   2.575   2.400   0.557
 4885TIP3   OH236213   0.521   3.576   0.222
 4885TIP3    H136214   0.594   3.538   0.174
 4885TIP3    H236215   0.505   3.660   0.179
 4886TIP3   OH236216   6.438   0.630   8.104
 4886TIP3    H136217   6.468   0.694   8.169
 4886TIP3    H236218   6.343   0.640   8.102
 4887TIP3   OH236219   1.177   5.623   1.316
 4887TIP3    H136220   1.121   5.559   1.360
 4887TIP3    H236221   1.254   5.629   1.372
 4888TIP3   OH236222   1.535   0.554   7.020
 4888TIP3    H136223   1.561   0.600   7.101
 4888TIP3    H236224   1.602   0.486   7.010
 4889TIP3   OH236225   6.680   4.048   0.391
 4889TIP3    H136226   6.679   4.141   0.414
 4889TIP3    H236227   6.599   4.013   0.427
 4890TIP3   OH236228   5.012   6.679   8.241
 4890TIP3    H136229   5.096   6.651   8.279
 4890TIP3    H236230   4.949   6.613   8.272
 4891TIP3   OH236231   0.522   0.071   0.741
 4891TIP3    H136232   0.488   0.044   0.826
 4891TIP3    H236233   0.539   6.765   0.695
 4892TIP3   OH236234   0.631   3.922   0.300
 4892TIP3    H136235   0.636   4.005   0.253
 4892TIP3    H236236   0.542   3.891   0.286
 4893TIP3   OH236237   5.401   6.078   8.349
 4893TIP3    H136238   5.361   6.041   8.428
 4893TIP3    H236239   5.398   6.007   8.285
 4894TIP3   OH236240   6.324   1.791   1.026
 4894TIP3    H136241   6.377   1.799   0.947
 4894TIP3    H236242   6.275   1.710   1.014
 4895TIP3   OH236243   2.944   1.773   1.551
 4895TIP3    H136244   2.900   1.690   1.534
 4895TIP3    H236245   3.037   1.750   1.555
 4896TIP3   OH236246   5.115   2.122   0.912
 4896TIP3    H136247   5.042   2.151   0.967
 4896TIP3    H236248   5.086   2.038   0.876
 4897TIP3   OH236249   3.120   1.059   2.356
 4897TIP3    H136250   3.137   1.084   2.265
 4897TIP3    H236251   3.026   1.040   2.358
 4898TIP3   OH236252   2.195   4.497   8.383
 4898TIP3    H136253   2.139   4.463   8.314
 4898TIP3    H236254   2.277   4.448   8.375
 4899TIP3   OH236255   1.280   1.962   7.305
 4899TIP3    H136256   1.190   1.930   7.311
 4899TIP3    H236257   1.276   2.052   7.337
 4900TIP3   OH236258   0.758   1.586   0.821
 4900TIP3    H136259   0.817   1.654   0.789
 4900TIP3    H236260   0.815   1.510   0.834
 4901TIP3   OH236261   5.665   2.679   1.497
 4901TIP3    H136262   5.622   2.745   1.443
 4901TIP3    H236263   5.740   2.725   1.535
 4902TIP3   OH236264   1.221   1.866   7.846
 4902TIP3    H136265   1.170   1.907   7.777
 4902TIP3    H236266   1.299   1.832   7.802
 4903TIP3   OH236267   4.538   5.887   7.576
 4903TIP3    H136268   4.451   5.928   7.577
 4903TIP3    H236269   4.529   5.812   7.634
 4904TIP3   OH236270   5.371   4.274   1.378
 4904TIP3    H136271   5.326   4.194   1.406
 4904TIP3    H236272   5.304   4.342   1.385
 4905TIP3   OH236273   6.062   3.973   1.817
 4905TIP3    H136274   5.989   3.948   1.761
 4905TIP3    H236275   6.059   4.068   1.821
 4906TIP3   OH236276   0.392   6.423   8.886
 4906TIP3    H136277   0.478   6.420   8.844
 4906TIP3    H236278   0.406   6.380   0.057
 4907TIP3   OH236279   4.605   2.200   0.952
 4907TIP3    H136280   4.533   2.255   0.922
 4907TIP3    H236281   4.567   2.112   0.959
 4908TIP3   OH236282   6.348   1.898   1.403
 4908TIP3    H136283   6.367   1.919   1.494
 4908TIP3    H236284   6.253   1.890   1.399
 4909TIP3   OH236285   0.542   2.004   2.444
 4909TIP3    H136286   0.620   2.037   2.400
 4909TIP3    H236287   0.480   2.077   2.439
 4910TIP3   OH236288   2.780   3.148   2.770
 4910TIP3    H136289   2.685   3.156   2.783
 4910TIP3    H236290   2.817   3.156   2.858
 4911TIP3   OH236291   5.888   1.284   7.005
 4911TIP3    H136292   5.872   1.210   7.064
 4911TIP3    H236293   5.980   1.275   6.980
 4912TIP3   OH236294   2.750   5.566   7.797
 4912TIP3    H136295   2.778   5.503   7.731
 4912TIP3    H236296   2.781   5.531   7.880
 4913TIP3   OH236297   4.686   2.843   0.670
 4913TIP3    H136298   4.725   2.793   0.742
 4913TIP3    H236299   4.760   2.871   0.617
 4914TIP3   OH236300   2.704   1.587   8.331
 4914TIP3    H136301   2.668   1.507   8.371
 4914TIP3    H236302   2.742   1.635   8.405
 4915TIP3   OH236303   4.338   3.552   8.885
 4915TIP3    H136304   4.400   3.585   8.820
 4915TIP3    H236305   4.256   3.545   8.837
 4916TIP3   OH236306   6.456   0.734   6.644
 4916TIP3    H136307   6.483   0.696   6.560
 4916TIP3    H236308   6.433   0.658   6.698
 4917TIP3   OH236309   1.257   0.551   7.919
 4917TIP3    H136310   1.194   0.602   7.869
 4917TIP3    H236311   1.216   0.539   8.005
 4918TIP3   OH236312   6.552   4.784   1.820
 4918TIP3    H136313   6.639   4.749   1.841
 4918TIP3    H236314   6.542   4.860   1.877
 4919TIP3   OH236315   4.486   4.234   7.995
 4919TIP3    H136316   4.516   4.152   7.957
 4919TIP3    H236317   4.417   4.209   8.055
 4920TIP3   OH236318   0.297   4.279   8.296
 4920TIP3    H136319   0.277   4.197   8.342
 4920TIP3    H236320   0.273   4.347   8.358
 4921TIP3   OH236321   1.941   4.264   0.131
 4921TIP3    H136322   1.860   4.314   0.125
 4921TIP3    H236323   2.005   4.314   0.080
 4922TIP3   OH236324   4.342   6.076   7.360
 4922TIP3    H136325   4.320   6.166   7.337
 4922TIP3    H236326   4.376   6.039   7.278
 4923TIP3   OH236327   2.131   2.098   2.486
 4923TIP3    H136328   2.158   2.178   2.441
 4923TIP3    H236329   2.040   2.086   2.462
 4924TIP3   OH236330   5.041   2.583   1.666
 4924TIP3    H136331   4.989   2.602   1.588
 4924TIP3    H236332   5.132   2.597   1.638
 4925TIP3   OH236333   5.976   2.054   8.669
 4925TIP3    H136334   5.974   1.960   8.685
 4925TIP3    H236335   5.907   2.069   8.604
 4926TIP3   OH236336   1.274   0.298   0.079
 4926TIP3    H136337   1.224   0.268   0.154
 4926TIP3    H236338   1.339   0.357   0.116
 4927TIP3   OH236339   3.293   5.144   7.776
 4927TIP3    H136340   3.207   5.104   7.789
 4927TIP3    H236341   3.284   5.232   7.813
 4928TIP3   OH236342   2.811   0.024   2.115
 4928TIP3    H136343   2.833   0.022   2.208
 4928TIP3    H236344   2.895   0.034   2.071
 4929TIP3   OH236345   4.546   1.965   8.220
 4929TIP3    H136346   4.631   1.999   8.249
 4929TIP3    H236347   4.530   2.009   8.137
 4930TIP3   OH236348   0.989   4.442   7.934
 4930TIP3    H136349   0.933   4.485   7.998
 4930TIP3    H236350   1.077   4.474   7.953
 4931TIP3   OH236351   5.366   3.473   8.230
 4931TIP3    H136352   5.412   3.556   8.241
 4931TIP3    H236353   5.421   3.409   8.274
 4932TIP3   OH236354   0.172   3.372   1.126
 4932TIP3    H136355   0.140   3.356   1.037
 4932TIP3    H236356   0.266   3.356   1.121
 4933TIP3   OH236357   2.488   0.759   7.764
 4933TIP3    H136358   2.444   0.742   7.681
 4933TIP3    H236359   2.553   0.827   7.744
 4934TIP3   OH236360   2.396   3.826   0.373
 4934TIP3    H136361   2.312   3.870   0.364
 4934TIP3    H236362   2.390   3.781   0.457
 4935TIP3   OH236363   0.897   4.394   8.891
 4935TIP3    H136364   0.938   4.400   8.805
 4935TIP3    H236365   0.969   4.371   0.037
 4936TIP3   OH236366   2.915   0.805   0.497
 4936TIP3    H136367   2.971   0.881   0.486
 4936TIP3    H236368   2.923   0.756   0.415
 4937TIP3   OH236369   5.021   4.050   8.584
 4937TIP3    H136370   5.112   4.030   8.608
 4937TIP3    H236371   5.009   4.005   8.500
 4938TIP3   OH236372   1.837   6.497   7.537
 4938TIP3    H136373   1.788   6.511   7.456
 4938TIP3    H236374   1.921   6.540   7.522
 4939TIP3   OH236375   2.923   6.142   1.210
 4939TIP3    H136376   2.877   6.101   1.282
 4939TIP3    H236377   2.874   6.117   1.132
 4940TIP3   OH236378   0.509   2.889   0.445
 4940TIP3    H136379   0.421   2.862   0.419
 4940TIP3    H236380   0.499   2.919   0.536
 4941TIP3   OH236381   6.394   6.137   8.356
 4941TIP3    H136382   6.476   6.181   8.381
 4941TIP3    H236383   6.359   6.191   8.285
 4942TIP3   OH236384   1.579   6.260   1.659
 4942TIP3    H136385   1.666   6.232   1.628
 4942TIP3    H236386   1.571   6.350   1.630
 4943TIP3   OH236387   0.682   1.521   8.538
 4943TIP3    H136388   0.630   1.601   8.539
 4943TIP3    H236389   0.627   1.457   8.495
 4944TIP3   OH236390   4.334   2.335   7.722
 4944TIP3    H136391   4.368   2.273   7.658
 4944TIP3    H236392   4.240   2.319   7.725
 4945TIP3   OH236393   0.107   3.070   8.614
 4945TIP3    H136394   0.108   3.098   8.705
 4945TIP3    H236395   0.043   2.998   8.611
 4946TIP3   OH236396   3.579   4.146   0.571
 4946TIP3    H136397   3.486   4.127   0.574
 4946TIP3    H236398   3.618   4.087   0.635
 4947TIP3   OH236399   4.240   2.110   8.141
 4947TIP3    H136400   4.153   2.103   8.101
 4947TIP3    H236401   4.275   2.021   8.138
 4948TIP3   OH236402   1.998   6.092   8.154
 4948TIP3    H136403   1.970   6.176   8.117
 4948TIP3    H236404   2.063   6.059   8.091
 4949TIP3   OH236405   0.486   6.740   1.741
 4949TIP3    H136406   0.452   6.713   1.826
 4949TIP3    H236407   0.581   6.731   1.750
 4950TIP3   OH236408   5.383   2.684   6.815
 4950TIP3    H136409   5.301   2.729   6.794
 4950TIP3    H236410   5.447   2.754   6.827
 4951TIP3   OH236411   4.814   3.049   1.238
 4951TIP3    H136412   4.819   3.107   1.163
 4951TIP3    H236413   4.774   2.969   1.205
 4952TIP3   OH236414   2.930   3.960   7.329
 4952TIP3    H136415   2.968   3.969   7.242
 4952TIP3    H236416   2.878   3.880   7.325
 4953TIP3   OH236417   4.459   3.757   7.617
 4953TIP3    H136418   4.537   3.759   7.672
 4953TIP3    H236419   4.478   3.817   7.545
 4954TIP3   OH236420   5.670   1.927   8.036
 4954TIP3    H136421   5.738   1.929   8.103
 4954TIP3    H236422   5.647   2.019   8.022
 4955TIP3   OH236423   5.420   3.737   8.468
 4955TIP3    H136424   5.498   3.706   8.515
 4955TIP3    H236425   5.451   3.755   8.379
 4956TIP3   OH236426   5.765   4.111   8.186
 4956TIP3    H136427   5.731   4.072   8.267
 4956TIP3    H236428   5.860   4.103   8.194
 4957TIP3   OH236429   1.667   3.858   0.623
 4957TIP3    H136430   1.681   3.768   0.653
 4957TIP3    H236431   1.704   3.913   0.691
 4958TIP3   OH236432   5.545   1.284   1.916
 4958TIP3    H136433   5.622   1.308   1.866
 4958TIP3    H236434   5.571   1.295   2.008
 4959TIP3   OH236435   2.809   4.199   8.173
 4959TIP3    H136436   2.816   4.141   8.249
 4959TIP3    H236437   2.769   4.279   8.207
 4960TIP3   OH236438   5.461   3.106   8.648
 4960TIP3    H136439   5.476   3.025   8.600
 4960TIP3    H236440   5.432   3.078   8.735
 4961TIP3   OH236441   4.118   1.682   7.352
 4961TIP3    H136442   4.034   1.682   7.306
 4961TIP3    H236443   4.111   1.611   7.415
 4962TIP3   OH236444   2.547   5.664   0.931
 4962TIP3    H136445   2.589   5.586   0.967
 4962TIP3    H236446   2.604   5.689   0.858
 4963TIP3   OH236447   5.846   5.721   8.528
 4963TIP3    H136448   5.849   5.631   8.496
 4963TIP3    H236449   5.935   5.739   8.558
 4964TIP3   OH236450   2.830   1.193   7.074
 4964TIP3    H136451   2.897   1.230   7.016
 4964TIP3    H236452   2.782   1.269   7.106
 4965TIP3   OH236453   0.027   0.782   1.198
 4965TIP3    H136454   6.762   0.737   1.271
 4965TIP3    H236455   6.757   0.865   1.192
 4966TIP3   OH236456   4.692   5.974   0.990
 4966TIP3    H136457   4.661   5.947   1.077
 4966TIP3    H236458   4.746   6.051   1.007
 4967TIP3   OH236459   3.392   2.779   7.417
 4967TIP3    H136460   3.438   2.701   7.386
 4967TIP3    H236461   3.430   2.796   7.504
 4968TIP3   OH236462   3.735   5.312   2.493
 4968TIP3    H136463   3.796   5.242   2.470
 4968TIP3    H236464   3.681   5.324   2.415
 4969TIP3   OH236465   1.068   0.296   6.049
 4969TIP3    H136466   1.066   0.202   6.069
 4969TIP3    H236467   1.153   0.309   6.006
 4970TIP3   OH236468   4.482   4.897   1.363
 4970TIP3    H136469   4.533   4.899   1.282
 4970TIP3    H236470   4.547   4.879   1.432
 4971TIP3   OH236471   6.126   5.420   7.118
 4971TIP3    H136472   6.116   5.513   7.095
 4971TIP3    H236473   6.199   5.390   7.063
 4972TIP3   OH236474   5.599   3.331   0.643
 4972TIP3    H136475   5.550   3.328   0.725
 4972TIP3    H236476   5.682   3.286   0.663
 4973TIP3   OH236477   2.182   0.426   7.224
 4973TIP3    H136478   2.160   0.454   7.313
 4973TIP3    H236479   2.259   0.371   7.233
 4974TIP3   OH236480   5.471   4.747   1.131
 4974TIP3    H136481   5.537   4.747   1.061
 4974TIP3    H236482   5.421   4.666   1.116
 4975TIP3   OH236483   5.767   0.979   0.231
 4975TIP3    H136484   5.674   0.983   0.251
 4975TIP3    H236485   5.776   0.901   0.175
 4976TIP3   OH236486   4.738   4.413   0.010
 4976TIP3    H136487   4.671   4.358   0.049
 4976TIP3    H236488   4.790   4.354   8.869
 4977TIP3   OH236489   6.756   5.863   7.058
 4977TIP3    H136490   6.759   5.944   7.008
 4977TIP3    H236491   6.662   5.842   7.064
 4978TIP3   OH236492   2.678   3.557   1.631
 4978TIP3    H136493   2.599   3.608   1.648
 4978TIP3    H236494   2.721   3.550   1.716
 4979TIP3   OH236495   4.311   1.602   1.390
 4979TIP3    H136496   4.304   1.550   1.310
 4979TIP3    H236497   4.405   1.611   1.404
 4980TIP3   OH236498   0.930   3.337   0.310
 4980TIP3    H136499   0.887   3.251   0.313
 4980TIP3    H236500   0.863   3.396   0.276
 4981TIP3   OH236501   3.857   3.644   8.820
 4981TIP3    H136502   3.847   3.604   8.907
 4981TIP3    H236503   3.854   3.738   8.837
 4982TIP3   OH236504   2.800   4.042   0.285
 4982TIP3    H136505   2.770   4.016   0.198
 4982TIP3    H236506   2.727   4.020   0.343
 4983TIP3   OH236507   3.395   0.135   1.400
 4983TIP3    H136508   3.414   0.166   1.489
 4983TIP3    H236509   3.305   0.102   1.405
 4984TIP3   OH236510   6.242   4.505   0.603
 4984TIP3    H136511   6.262   4.597   0.586
 4984TIP3    H236512   6.286   4.487   0.686
 4985TIP3   OH236513   1.264   3.096   1.522
 4985TIP3    H136514   1.338   3.071   1.466
 4985TIP3    H236515   1.246   3.186   1.498
 4986TIP3   OH236516   0.777   5.237   0.942
 4986TIP3    H136517   0.752   5.154   0.902
 4986TIP3    H236518   0.867   5.250   0.914
 4987TIP3   OH236519   4.676   2.621   7.619
 4987TIP3    H136520   4.624   2.639   7.541
 4987TIP3    H236521   4.611   2.609   7.689
 4988TIP3   OH236522   1.924   6.485   0.049
 4988TIP3    H136523   1.828   6.491   0.054
 4988TIP3    H236524   1.952   6.576   0.036
 4989TIP3   OH236525   4.079   4.313   0.836
 4989TIP3    H136526   4.171   4.315   0.862
 4989TIP3    H236527   4.081   4.323   0.741
 4990TIP3   OH236528   5.314   4.208   0.596
 4990TIP3    H136529   5.277   4.297   0.599
 4990TIP3    H236530   5.241   4.151   0.621
 4991TIP3   OH236531   4.791   2.808   0.936
 4991TIP3    H136532   4.720   2.870   0.953
 4991TIP3    H236533   4.843   2.808   1.016
 4992TIP3   OH236534   6.523   1.408   0.443
 4992TIP3    H136535   6.582   1.382   0.373
 4992TIP3    H236536   6.513   1.502   0.432
 4993TIP3   OH236537   6.364   4.911   7.667
 4993TIP3    H136538   6.300   4.873   7.607
 4993TIP3    H236539   6.312   4.948   7.738
 4994TIP3   OH236540   5.894   4.798   7.939
 4994TIP3    H136541   5.840   4.780   7.862
 4994TIP3    H236542   5.881   4.891   7.956
 4995TIP3   OH236543   4.768   2.251   8.413
 4995TIP3    H136544   4.762   2.200   8.333
 4995TIP3    H236545   4.855   2.292   8.408
 4996TIP3   OH236546   0.376   4.800   1.002
 4996TIP3    H136547   0.376   4.736   0.931
 4996TIP3    H236548   0.460   4.845   0.995
 4997TIP3   OH236549   6.099   5.758   0.579
 4997TIP3    H136550   6.125   5.841   0.618
 4997TIP3    H236551   6.050   5.714   0.648
 4998TIP3   OH236552   2.395   0.293   8.695
 4998TIP3    H136553   2.361   0.364   8.640
 4998TIP3    H236554   2.317   0.242   8.718
 4999TIP3   OH236555   4.039   1.523   7.006
 4999TIP3    H136556   4.066   1.600   6.956
 4999TIP3    H236557   3.944   1.520   6.997
 5000TIP3   OH236558   1.541   6.396   1.304
 5000TIP3    H136559   1.589   6.437   1.232
 5000TIP3    H236560   1.582   6.430   1.383
 5001TIP3   OH236561   4.096   2.045   8.697
 5001TIP3    H136562   4.162   1.984   8.665
 5001TIP3    H236563   4.136   2.132   8.686
 5002TIP3   OH236564   6.509   2.574   8.286
 5002TIP3    H136565   6.504   2.669   8.273
 5002TIP3    H236566   6.517   2.563   8.381
 5003TIP3   OH236567   0.891   5.338   1.793
 5003TIP3    H136568   0.968   5.281   1.802
 5003TIP3    H236569   0.828   5.286   1.745
 5004TIP3   OH236570   4.311   4.002   7.411
 5004TIP3    H136571   4.382   4.065   7.399
 5004TIP3    H236572   4.313   3.948   7.332
 5005TIP3   OH236573   3.585   6.266   7.613
 5005TIP3    H136574   3.616   6.227   7.695
 5005TIP3    H236575   3.601   6.360   7.624
 5006TIP3   OH236576   5.302   6.368   8.406
 5006TIP3    H136577   5.367   6.323   8.461
 5006TIP3    H236578   5.248   6.297   8.371
 5007TIP3   OH236579   1.847   3.034   2.084
 5007TIP3    H136580   1.775   3.096   2.090
 5007TIP3    H236581   1.921   3.085   2.051
 5008TIP3   OH236582   3.046   0.978   6.982
 5008TIP3    H136583   2.958   0.967   6.946
 5008TIP3    H236584   3.043   0.932   7.066
 5009TIP3   OH236585   2.925   1.573   7.464
 5009TIP3    H136586   2.950   1.583   7.556
 5009TIP3    H236587   2.954   1.653   7.421
 5010TIP3   OH236588   1.442   2.954   0.314
 5010TIP3    H136589   1.353   2.978   0.338
 5010TIP3    H236590   1.496   3.026   0.345
 5011TIP3   OH236591   0.561   5.337   0.565
 5011TIP3    H136592   0.653   5.327   0.589
 5011TIP3    H236593   0.551   5.284   0.486
 5012TIP3   OH236594   3.534   3.369   2.354
 5012TIP3    H136595   3.459   3.427   2.368
 5012TIP3    H236596   3.555   3.378   2.261
 5013TIP3   OH236597   0.929   6.380   7.017
 5013TIP3    H136598   0.837   6.359   7.027
 5013TIP3    H236599   0.954   6.344   6.932
 5014TIP3   OH236600   3.226   4.130   8.807
 5014TIP3    H136601   3.302   4.135   8.866
 5014TIP3    H236602   3.152   4.111   8.865
 5015TIP3   OH236603   5.530   2.870   1.353
 5015TIP3    H136604   5.434   2.872   1.360
 5015TIP3    H236605   5.547   2.878   1.259
 5016TIP3   OH236606   2.854   3.686   0.147
 5016TIP3    H136607   2.898   3.646   0.072
 5016TIP3    H236608   2.781   3.735   0.108
 5017TIP3   OH236609   2.246   5.204   7.404
 5017TIP3    H136610   2.169   5.150   7.421
 5017TIP3    H236611   2.218   5.293   7.422
 5018TIP3   OH236612   2.861   0.778   8.377
 5018TIP3    H136613   2.873   0.836   8.302
 5018TIP3    H236614   2.950   0.765   8.412
 5019TIP3   OH236615   0.897   2.411   7.865
 5019TIP3    H136616   0.983   2.430   7.904
 5019TIP3    H236617   0.914   2.406   7.771
 5020TIP3   OH236618   4.671   5.298   1.985
 5020TIP3    H136619   4.686   5.218   2.035
 5020TIP3    H236620   4.615   5.352   2.042
 5021TIP3   OH236621   2.503   5.315   8.500
 5021TIP3    H136622   2.552   5.234   8.513
 5021TIP3    H236623   2.419   5.287   8.464
 5022TIP3   OH236624   4.535   4.116   1.189
 5022TIP3    H136625   4.589   4.134   1.266
 5022TIP3    H236626   4.541   4.021   1.177
 5023TIP3   OH236627   4.206   1.887   1.375
 5023TIP3    H136628   4.191   1.795   1.356
 5023TIP3    H236629   4.212   1.892   1.470
 5024TIP3   OH236630   2.364   5.465   0.877
 5024TIP3    H136631   2.420   5.541   0.889
 5024TIP3    H236632   2.420   5.400   0.833
 5025TIP3   OH236633   4.633   5.550   2.396
 5025TIP3    H136634   4.543   5.560   2.365
 5025TIP3    H236635   4.634   5.594   2.481
 5026TIP3   OH236636   1.090   1.812   1.269
 5026TIP3    H136637   1.116   1.849   1.185
 5026TIP3    H236638   1.046   1.885   1.314
 5027TIP3   OH236639   3.200   1.277   1.520
 5027TIP3    H136640   3.142   1.344   1.484
 5027TIP3    H236641   3.241   1.319   1.596
 5028TIP3   OH236642   4.975   3.815   1.456
 5028TIP3    H136643   4.900   3.782   1.506
 5028TIP3    H236644   4.938   3.879   1.396
 5029TIP3   OH236645   5.735   2.487   8.672
 5029TIP3    H136646   5.688   2.403   8.671
 5029TIP3    H236647   5.817   2.467   8.717
 5030TIP3   OH236648   2.810   0.178   8.044
 5030TIP3    H136649   2.748   0.167   8.116
 5030TIP3    H236650   2.759   0.217   7.973
 5031TIP3   OH236651   1.942   3.240   1.583
 5031TIP3    H136652   1.847   3.231   1.577
 5031TIP3    H236653   1.965   3.198   1.666
 5032TIP3   OH236654   3.922   2.890   7.851
 5032TIP3    H136655   3.894   2.957   7.788
 5032TIP3    H236656   3.936   2.812   7.798
 5033TIP3   OH236657   2.005   1.636   1.475
 5033TIP3    H136658   1.994   1.542   1.459
 5033TIP3    H236659   2.030   1.672   1.390
 5034TIP3   OH236660   4.529   6.601   7.033
 5034TIP3    H136661   4.605   6.643   6.992
 5034TIP3    H236662   4.476   6.571   6.960
 5035TIP3   OH236663   0.102   5.334   7.441
 5035TIP3    H136664   0.028   5.320   7.500
 5035TIP3    H236665   0.178   5.339   7.499
 5036TIP3   OH236666   4.094   2.644   0.901
 5036TIP3    H136667   4.003   2.655   0.874
 5036TIP3    H236668   4.145   2.669   0.824
 5037TIP3   OH236669   3.189   0.232   7.674
 5037TIP3    H136670   3.162   0.144   7.649
 5037TIP3    H236671   3.109   0.285   7.665
 5038TIP3   OH236672   0.362   3.156   6.888
 5038TIP3    H136673   0.444   3.119   6.921
 5038TIP3    H236674   0.356   3.123   6.799
 5039TIP3   OH236675   1.244   0.014   7.694
 5039TIP3    H136676   1.280   0.018   7.783
 5039TIP3    H236677   1.258   0.102   7.659
 5040TIP3   OH236678   1.578   5.939   2.199
 5040TIP3    H136679   1.653   5.962   2.145
 5040TIP3    H236680   1.616   5.905   2.280
 5041TIP3   OH236681   2.097   2.592   0.438
 5041TIP3    H136682   2.141   2.663   0.485
 5041TIP3    H236683   2.034   2.557   0.501
 5042TIP3   OH236684   2.611   2.419   1.537
 5042TIP3    H136685   2.545   2.360   1.502
 5042TIP3    H236686   2.574   2.452   1.619
 5043TIP3   OH236687   1.537   0.026   8.613
 5043TIP3    H136688   1.557   0.065   8.528
 5043TIP3    H236689   1.617   0.038   8.664
 5044TIP3   OH236690   0.209   6.538   7.856
 5044TIP3    H136691   0.261   6.573   7.784
 5044TIP3    H236692   0.263   6.468   7.893
 5045TIP3   OH236693   5.053   6.336   8.648
 5045TIP3    H136694   5.038   6.320   8.741
 5045TIP3    H236695   5.059   6.431   8.641
 5046TIP3   OH236696   1.536   6.680   0.825
 5046TIP3    H136697   1.586   6.602   0.803
 5046TIP3    H236698   1.595   6.753   0.804
 5047TIP3   OH236699   5.093   3.584   7.452
 5047TIP3    H136700   5.124   3.624   7.534
 5047TIP3    H236701   5.112   3.649   7.385
 5048TIP3   OH236702   4.091   3.725   8.086
 5048TIP3    H136703   4.092   3.819   8.099
 5048TIP3    H236704   4.161   3.709   8.022
 5049TIP3   OH236705   2.487   2.890   7.985
 5049TIP3    H136706   2.444   2.841   8.055
 5049TIP3    H236707   2.529   2.823   7.931
 5050TIP3   OH236708   6.043   2.070   1.674
 5050TIP3    H136709   5.949   2.070   1.695
 5050TIP3    H236710   6.059   1.982   1.640
 5051TIP3   OH236711   3.509   6.184   0.290
 5051TIP3    H136712   3.578   6.142   0.341
 5051TIP3    H236713   3.428   6.155   0.331
 5052TIP3   OH236714   2.228   6.161   8.372
 5052TIP3    H136715   2.164   6.093   8.392
 5052TIP3    H236716   2.313   6.119   8.386
 5053TIP3   OH236717   2.717   0.752   8.864
 5053TIP3    H136718   2.776   0.808   8.813
 5053TIP3    H236719   2.764   0.669   8.872
 5054TIP3   OH236720   3.155   3.327   1.735
 5054TIP3    H136721   3.148   3.258   1.669
 5054TIP3    H236722   3.182   3.404   1.686
 5055TIP3   OH236723   3.158   4.427   8.457
 5055TIP3    H136724   3.243   4.471   8.446
 5055TIP3    H236725   3.131   4.449   8.546
 5056TIP3   OH236726   1.646   5.179   7.289
 5056TIP3    H136727   1.714   5.126   7.331
 5056TIP3    H236728   1.683   5.201   7.204
 5057TIP3   OH236729   4.114   4.456   8.680
 5057TIP3    H136730   4.072   4.377   8.714
 5057TIP3    H236731   4.093   4.524   8.744
 5058TIP3   OH236732   5.850   2.362   0.280
 5058TIP3    H136733   5.890   2.441   0.245
 5058TIP3    H236734   5.820   2.314   0.202
 5059TIP3   OH236735   3.185   6.738   8.630
 5059TIP3    H136736   3.267   6.692   8.644
 5059TIP3    H236737   3.118   6.670   8.630
 5060TIP3   OH236738   0.613   4.739   0.445
 5060TIP3    H136739   0.699   4.707   0.419
 5060TIP3    H236740   0.567   4.753   0.362
 5061TIP3   OH236741   6.495   5.288   8.069
 5061TIP3    H136742   6.468   5.266   7.979
 5061TIP3    H236743   6.415   5.320   8.111
 5062TIP3   OH236744   1.681   4.935   7.827
 5062TIP3    H136745   1.614   4.977   7.882
 5062TIP3    H236746   1.670   4.842   7.844
 5063TIP3   OH236747   2.711   5.588   0.361
 5063TIP3    H136748   2.702   5.569   0.267
 5063TIP3    H236749   2.757   5.512   0.396
 5064TIP3   OH236750   1.247   3.138   6.618
 5064TIP3    H136751   1.280   3.161   6.531
 5064TIP3    H236752   1.153   3.150   6.612
 5065TIP3   OH236753   0.634   6.311   8.144
 5065TIP3    H136754   0.558   6.363   8.171
 5065TIP3    H236755   0.599   6.224   8.128
 5066TIP3   OH236756   4.507   3.033   1.200
 5066TIP3    H136757   4.558   3.005   1.275
 5066TIP3    H236758   4.416   3.033   1.231
 5067TIP3   OH236759   2.145   0.754   8.722
 5067TIP3    H136760   2.220   0.771   8.665
 5067TIP3    H236761   2.082   0.707   8.666
 5068TIP3   OH236762   2.097   4.173   1.304
 5068TIP3    H136763   2.076   4.080   1.316
 5068TIP3    H236764   2.024   4.219   1.347
 5069TIP3   OH236765   4.102   0.445   2.655
 5069TIP3    H136766   4.018   0.408   2.627
 5069TIP3    H236767   4.100   0.437   2.751
 5070TIP3   OH236768   4.026   3.903   1.332
 5070TIP3    H136769   4.100   3.866   1.284
 5070TIP3    H236770   4.022   3.851   1.413
 5071TIP3   OH236771   0.345   0.274   6.733
 5071TIP3    H136772   0.410   0.289   6.802
 5071TIP3    H236773   0.274   0.226   6.776
 5072TIP3   OH236774   5.206   4.685   1.987
 5072TIP3    H136775   5.170   4.609   1.942
 5072TIP3    H236776   5.172   4.760   1.939
 5073TIP3   OH236777   1.853   2.435   8.425
 5073TIP3    H136778   1.785   2.462   8.364
 5073TIP3    H236779   1.820   2.460   8.511
 5074TIP3   OH236780   2.200   5.568   8.246
 5074TIP3    H136781   2.235   5.479   8.237
 5074TIP3    H236782   2.139   5.562   8.319
 5075TIP3   OH236783   4.087   3.938   7.568
 5075TIP3    H136784   4.147   3.947   7.494
 5075TIP3    H236785   4.043   4.022   7.574
 5076TIP3   OH236786   4.048   3.011   6.393
 5076TIP3    H136787   3.964   2.996   6.349
 5076TIP3    H236788   4.028   3.005   6.486
 5077TIP3   OH236789   3.696   1.777   0.702
 5077TIP3    H136790   3.756   1.773   0.777
 5077TIP3    H236791   3.734   1.843   0.645
 5078TIP3   OH236792   6.119   4.286   7.943
 5078TIP3    H136793   6.163   4.338   7.875
 5078TIP3    H236794   6.048   4.341   7.974
 5079TIP3   OH236795   1.363   6.089   7.431
 5079TIP3    H136796   1.356   6.150   7.358
 5079TIP3    H236797   1.275   6.053   7.442
 5080TIP3   OH236798   5.959   4.499   7.064
 5080TIP3    H136799   5.901   4.437   7.108
 5080TIP3    H236800   5.984   4.454   6.983
 5081TIP3   OH236801   4.691   5.347   8.108
 5081TIP3    H136802   4.762   5.316   8.164
 5081TIP3    H236803   4.637   5.269   8.092
 5082TIP3   OH236804   0.832   2.587   8.097
 5082TIP3    H136805   0.830   2.536   8.178
 5082TIP3    H236806   0.903   2.548   8.046
 5083TIP3   OH236807   4.162   4.160   0.090
 5083TIP3    H136808   4.184   4.110   0.169
 5083TIP3    H236809   4.225   4.130   0.025
 5084TIP3   OH236810   2.004   5.874   8.677
 5084TIP3    H136811   2.029   5.927   8.753
 5084TIP3    H236812   2.005   5.936   8.603
 5085TIP3   OH236813   5.225   5.001   0.243
 5085TIP3    H136814   5.197   5.050   0.166
 5085TIP3    H236815   5.226   5.066   0.313
 5086TIP3   OH236816   4.805   6.487   6.604
 5086TIP3    H136817   4.830   6.398   6.630
 5086TIP3    H236818   4.710   6.481   6.591
 5087TIP3   OH236819   3.880   3.273   7.490
 5087TIP3    H136820   3.922   3.189   7.511
 5087TIP3    H236821   3.793   3.249   7.459
 5088TIP3   OH236822   4.497   0.821   7.624
 5088TIP3    H136823   4.553   0.892   7.591
 5088TIP3    H236824   4.433   0.866   7.680
 5089TIP3   OH236825   2.939   3.061   8.564
 5089TIP3    H136826   2.961   3.137   8.617
 5089TIP3    H236827   3.009   3.055   8.499
 5090TIP3   OH236828   1.513   2.292   1.117
 5090TIP3    H136829   1.481   2.361   1.176
 5090TIP3    H236830   1.581   2.247   1.167
 5091TIP3   OH236831   4.885   5.839   8.450
 5091TIP3    H136832   4.825   5.914   8.453
 5091TIP3    H236833   4.830   5.764   8.472
 5092TIP3   OH236834   3.444   2.764   0.067
 5092TIP3    H136835   3.455   2.693   0.131
 5092TIP3    H236836   3.402   2.721   8.906
 5093TIP3   OH236837   4.512   3.834   6.622
 5093TIP3    H136838   4.445   3.846   6.555
 5093TIP3    H236839   4.474   3.769   6.682
 5094TIP3   OH236840   4.345   6.412   2.155
 5094TIP3    H136841   4.357   6.318   2.172
 5094TIP3    H236842   4.401   6.430   2.080
 5095TIP3   OH236843   5.039   4.157   1.367
 5095TIP3    H136844   5.063   4.249   1.362
 5095TIP3    H236845   4.972   4.153   1.435
 5096TIP3   OH236846   1.364   3.905   1.202
 5096TIP3    H136847   1.343   3.885   1.294
 5096TIP3    H236848   1.321   3.836   1.152
 5097TIP3   OH236849   5.539   3.016   0.380
 5097TIP3    H136850   5.517   3.024   0.287
 5097TIP3    H236851   5.517   2.925   0.402
 5098TIP3   OH236852   0.174   4.451   8.470
 5098TIP3    H136853   0.161   4.385   8.538
 5098TIP3    H236854   0.088   4.491   8.458
 5099TIP3   OH236855   6.461   1.784   0.804
 5099TIP3    H136856   6.423   1.774   0.717
 5099TIP3    H236857   6.522   1.710   0.813
 5100TIP3   OH236858   2.693   0.590   1.116
 5100TIP3    H136859   2.611   0.616   1.074
 5100TIP3    H236860   2.667   0.561   1.204
 5101TIP3   OH236861   2.643   4.222   1.598
 5101TIP3    H136862   2.651   4.302   1.651
 5101TIP3    H236863   2.717   4.226   1.537
 5102TIP3   OH236864   2.046   3.849   1.042
 5102TIP3    H136865   1.990   3.925   1.061
 5102TIP3    H236866   2.026   3.786   1.111
 5103TIP3   OH236867   5.899   5.838   8.848
 5103TIP3    H136868   5.949   5.920   8.850
 5103TIP3    H236869   5.959   5.775   8.807
 5104TIP3   OH236870   6.066   4.765   2.502
 5104TIP3    H136871   6.020   4.711   2.437
 5104TIP3    H236872   6.158   4.744   2.491
 5105TIP3   OH236873   6.729   2.816   1.657
 5105TIP3    H136874   0.027   2.817   1.717
 5105TIP3    H236875   6.709   2.909   1.643
 5106TIP3   OH236876   3.725   3.137   0.784
 5106TIP3    H136877   3.666   3.188   0.729
 5106TIP3    H236878   3.760   3.201   0.846
 5107TIP3   OH236879   4.944   3.274   8.075
 5107TIP3    H136880   5.006   3.300   8.007
 5107TIP3    H236881   4.998   3.232   8.142
 5108TIP3   OH236882   1.301   0.763   1.062
 5108TIP3    H136883   1.250   0.752   1.142
 5108TIP3    H236884   1.262   0.702   1.000
 5109TIP3   OH236885   0.445   1.535   0.664
 5109TIP3    H136886   0.453   1.440   0.667
 5109TIP3    H236887   0.495   1.560   0.586
 5110TIP3   OH236888   2.539   1.776   1.288
 5110TIP3    H136889   2.585   1.828   1.353
 5110TIP3    H236890   2.520   1.693   1.332
 5111TIP3   OH236891   5.836   0.361   8.010
 5111TIP3    H136892   5.834   0.455   7.992
 5111TIP3    H236893   5.880   0.323   7.934
 5112TIP3   OH236894   0.538   5.134   7.773
 5112TIP3    H136895   0.482   5.190   7.828
 5112TIP3    H236896   0.614   5.117   7.828
 5113TIP3   OH236897   6.691   0.671   1.411
 5113TIP3    H136898   6.727   0.642   1.495
 5113TIP3    H236899   6.602   0.701   1.432
 5114TIP3   OH236900   6.451   2.580   1.959
 5114TIP3    H136901   6.436   2.518   1.889
 5114TIP3    H236902   6.511   2.536   2.019
 5115TIP3   OH236903   5.407   0.886   7.735
 5115TIP3    H136904   5.468   0.945   7.691
 5115TIP3    H236905   5.334   0.877   7.674
 5116TIP3   OH236906   6.170   4.116   7.330
 5116TIP3    H136907   6.250   4.168   7.321
 5116TIP3    H236908   6.127   4.151   7.408
 5117TIP3   OH236909   3.213   0.639   0.149
 5117TIP3    H136910   3.305   0.614   0.153
 5117TIP3    H236911   3.209   0.723   0.195
 5118TIP3   OH236912   6.020   3.324   1.581
 5118TIP3    H136913   6.018   3.365   1.668
 5118TIP3    H236914   5.942   3.358   1.537
 5119TIP3   OH236915   2.259   1.910   1.470
 5119TIP3    H136916   2.249   1.903   1.375
 5119TIP3    H236917   2.241   2.002   1.489
 5120TIP3   OH236918   3.754   2.867   0.286
 5120TIP3    H136919   3.842   2.851   0.252
 5120TIP3    H236920   3.758   2.837   0.377
 5121TIP3   OH236921   1.297   1.288   8.613
 5121TIP3    H136922   1.372   1.341   8.586
 5121TIP3    H236923   1.330   1.236   8.686
 5122TIP3   OH236924   0.699   5.645   7.949
 5122TIP3    H136925   0.791   5.626   7.968
 5122TIP3    H236926   0.702   5.722   7.892
 5123TIP3   OH236927   1.251   5.915   7.728
 5123TIP3    H136928   1.294   5.845   7.778
 5123TIP3    H236929   1.168   5.930   7.774
 5124TIP3   OH236930   1.065   5.608   1.805
 5124TIP3    H136931   0.973   5.624   1.785
 5124TIP3    H236932   1.064   5.539   1.871
 5125TIP3   OH236933   1.425   2.082   8.624
 5125TIP3    H136934   1.394   2.164   8.586
 5125TIP3    H236935   1.382   2.014   8.572
 5126TIP3   OH236936   4.062   2.925   0.288
 5126TIP3    H136937   4.156   2.920   0.302
 5126TIP3    H236938   4.029   2.971   0.365
 5127TIP3   OH236939   5.490   4.521   8.084
 5127TIP3    H136940   5.416   4.574   8.111
 5127TIP3    H236941   5.565   4.580   8.086
 5128TIP3   OH236942   4.490   5.493   1.832
 5128TIP3    H136943   4.514   5.459   1.919
 5128TIP3    H236944   4.432   5.426   1.795
 5129TIP3   OH236945   5.499   0.485   0.486
 5129TIP3    H136946   5.509   0.443   0.572
 5129TIP3    H236947   5.420   0.445   0.449
 5130TIP3   OH236948   4.431   5.327   7.058
 5130TIP3    H136949   4.460   5.256   7.000
 5130TIP3    H236950   4.384   5.387   7.001
 5131TIP3   OH236951   2.303   4.848   0.807
 5131TIP3    H136952   2.342   4.762   0.823
 5131TIP3    H236953   2.213   4.829   0.780
 5132TIP3   OH236954   3.910   2.464   0.578
 5132TIP3    H136955   3.981   2.528   0.581
 5132TIP3    H236956   3.928   2.404   0.650
 5133TIP3   OH236957   6.552   6.576   8.287
 5133TIP3    H136958   6.608   6.606   8.215
 5133TIP3    H236959   6.606   6.588   8.366
 5134TIP3   OH236960   2.742   3.892   8.690
 5134TIP3    H136961   2.759   3.950   8.764
 5134TIP3    H236962   2.707   3.949   8.622
 5135TIP3   OH236963   0.682   1.840   0.040
 5135TIP3    H136964   0.625   1.915   0.026
 5135TIP3    H236965   0.636   1.767   8.913
 5136TIP3   OH236966   6.734   2.590   0.163
 5136TIP3    H136967   0.041   2.631   0.143
 5136TIP3    H236968   6.670   2.661   0.157
 5137TIP3   OH236969   2.826   5.426   8.330
 5137TIP3    H136970   2.877   5.357   8.371
 5137TIP3    H236971   2.892   5.489   8.299
 5138TIP3   OH236972   6.709   5.571   1.924
 5138TIP3    H136973   6.775   5.582   1.992
 5138TIP3    H236974   6.642   5.636   1.946
 5139TIP3   OH236975   6.721   3.991   1.057
 5139TIP3    H136976   0.004   3.924   1.025
 5139TIP3    H236977   6.649   3.942   1.097
 5140TIP3   OH236978   2.007   6.684   6.337
 5140TIP3    H136979   2.028   6.711   6.248
 5140TIP3    H236980   1.943   6.614   6.327
 5141TIP3   OH236981   2.179   4.736   1.545
 5141TIP3    H136982   2.254   4.792   1.564
 5141TIP3    H236983   2.132   4.781   1.475
 5142TIP3   OH236984   5.267   6.068   0.813
 5142TIP3    H136985   5.312   5.984   0.806
 5142TIP3    H236986   5.336   6.130   0.838
 5143TIP3   OH236987   4.293   3.734   1.260
 5143TIP3    H136988   4.254   3.694   1.338
 5143TIP3    H236989   4.375   3.773   1.291
 5144TIP3   OH236990   6.547   1.238   8.796
 5144TIP3    H136991   6.576   1.165   8.741
 5144TIP3    H236992   6.523   1.197   8.880
 5145TIP3   OH236993   0.776   1.943   8.464
 5145TIP3    H136994   0.738   1.958   8.551
 5145TIP3    H236995   0.701   1.927   8.407
 5146TIP3   OH236996   0.821   3.832   8.271
 5146TIP3    H136997   0.861   3.746   8.256
 5146TIP3    H236998   0.755   3.815   8.339
 5147TIP3   OH236999   4.873   2.642   8.659
 5147TIP3    H137000   4.791   2.612   8.619
 5147TIP3    H237001   4.847   2.677   8.744
 5148TIP3   OH237002   4.794   6.652   6.930
 5148TIP3    H137003   4.744   6.733   6.924
 5148TIP3    H237004   4.854   6.655   6.856
 5149TIP3   OH237005   2.666   3.098   1.113
 5149TIP3    H137006   2.713   3.179   1.091
 5149TIP3    H237007   2.669   3.046   1.034
 5150TIP3   OH237008   4.143   5.606   8.113
 5150TIP3    H137009   4.122   5.675   8.049
 5150TIP3    H237010   4.238   5.608   8.120
 5151TIP3   OH237011   4.232   1.262   1.561
 5151TIP3    H137012   4.181   1.209   1.622
 5151TIP3    H237013   4.218   1.352   1.589
 5152TIP3   OH237014   6.036   2.491   8.594
 5152TIP3    H137015   6.099   2.429   8.632
 5152TIP3    H237016   6.038   2.472   8.500
 5153TIP3   OH237017   3.765   0.143   7.941
 5153TIP3    H137018   3.816   0.169   8.018
 5153TIP3    H237019   3.830   0.132   7.872
 5154TIP3   OH237020   2.267   2.141   8.791
 5154TIP3    H137021   2.357   2.141   8.759
 5154TIP3    H237022   2.220   2.197   8.729
 5155TIP3   OH237023   4.581   3.194   2.365
 5155TIP3    H137024   4.675   3.178   2.363
 5155TIP3    H237025   4.568   3.255   2.437
 5156TIP3   OH237026   2.782   1.313   0.398
 5156TIP3    H137027   2.692   1.293   0.374
 5156TIP3    H237028   2.781   1.322   0.493
 5157TIP3   OH237029   6.152   2.560   1.223
 5157TIP3    H137030   6.211   2.486   1.240
 5157TIP3    H237031   6.124   2.589   1.310
 5158TIP3   OH237032   0.551   2.312   1.357
 5158TIP3    H137033   0.589   2.388   1.314
 5158TIP3    H237034   0.580   2.237   1.305
 5159TIP3   OH237035   4.531   5.777   1.622
 5159TIP3    H137036   4.482   5.755   1.543
 5159TIP3    H237037   4.616   5.808   1.589
 5160TIP3   OH237038   0.177   4.037   8.424
 5160TIP3    H137039   0.184   4.007   8.333
 5160TIP3    H237040   0.100   4.094   8.424
 5161TIP3   OH237041   2.849   6.559   1.529
 5161TIP3    H137042   2.888   6.497   1.467
 5161TIP3    H237043   2.810   6.626   1.473
 5162TIP3   OH237044   3.592   4.675   7.499
 5162TIP3    H137045   3.539   4.740   7.454
 5162TIP3    H237046   3.604   4.605   7.435
 5163TIP3   OH237047   0.942   3.171   0.940
 5163TIP3    H137048   0.898   3.094   0.977
 5163TIP3    H237049   1.022   3.136   0.900
 5164TIP3   OH237050   0.976   6.142   8.615
 5164TIP3    H137051   0.926   6.220   8.588
 5164TIP3    H237052   0.931   6.112   8.694
 5165TIP3   OH237053   6.079   6.055   7.067
 5165TIP3    H137054   6.075   5.989   6.997
 5165TIP3    H237055   6.155   6.029   7.120
 5166TIP3   OH237056   1.847   6.523   7.201
 5166TIP3    H137057   1.937   6.496   7.183
 5166TIP3    H237058   1.829   6.591   7.137
 5167TIP3   OH237059   3.092   1.424   0.459
 5167TIP3    H137060   3.159   1.479   0.499
 5167TIP3    H237061   3.049   1.382   0.534
 5168TIP3   OH237062   1.058   4.483   8.689
 5168TIP3    H137063   1.058   4.579   8.684
 5168TIP3    H237064   1.026   4.454   8.604
 5169TIP3   OH237065   4.526   6.127   8.008
 5169TIP3    H137066   4.554   6.040   7.980
 5169TIP3    H237067   4.523   6.121   8.104
 5170TIP3   OH237068   2.685   2.418   1.247
 5170TIP3    H137069   2.757   2.360   1.223
 5170TIP3    H237070   2.619   2.361   1.285
 5171TIP3   OH237071   5.456   4.918   0.143
 5171TIP3    H137072   5.383   4.923   0.204
 5171TIP3    H237073   5.430   4.973   0.069
 5172TIP3   OH237074   6.025   0.630   1.367
 5172TIP3    H137075   6.075   0.597   1.292
 5172TIP3    H237076   6.081   0.615   1.443
 5173TIP3   OH237077   6.090   4.006   6.314
 5173TIP3    H137078   6.028   4.077   6.296
 5173TIP3    H237079   6.175   4.049   6.320
 5174TIP3   OH237080   4.611   6.213   7.480
 5174TIP3    H137081   4.641   6.242   7.393
 5174TIP3    H237082   4.554   6.138   7.462
 5175TIP3   OH237083   1.188   3.866   0.121
 5175TIP3    H137084   1.273   3.854   0.079
 5175TIP3    H237085   1.205   3.850   0.214
 5176TIP3   OH237086   5.166   0.963   0.952
 5176TIP3    H137087   5.205   1.038   0.998
 5176TIP3    H237088   5.239   0.921   0.907
 5177TIP3   OH237089   4.285   2.858   1.919
 5177TIP3    H137090   4.342   2.846   1.995
 5177TIP3    H237091   4.231   2.933   1.941
 5178TIP3   OH237092   2.641   1.665   6.657
 5178TIP3    H137093   2.675   1.692   6.742
 5178TIP3    H237094   2.562   1.614   6.677
 5179TIP3   OH237095   5.454   2.641   8.736
 5179TIP3    H137096   5.412   2.683   8.662
 5179TIP3    H237097   5.496   2.563   8.699
 5180TIP3   OH237098   2.600   1.256   7.356
 5180TIP3    H137099   2.680   1.305   7.338
 5180TIP3    H237100   2.618   1.168   7.326
 5181TIP3   OH237101   2.684   1.002   1.863
 5181TIP3    H137102   2.665   1.069   1.797
 5181TIP3    H237103   2.640   1.033   1.942
 5182TIP3   OH237104   1.075   6.596   8.224
 5182TIP3    H137105   0.989   6.554   8.231
 5182TIP3    H237106   1.101   6.583   8.133
 5183TIP3   OH237107   5.269   2.851   7.652
 5183TIP3    H137108   5.222   2.924   7.691
 5183TIP3    H237109   5.352   2.889   7.623
 5184TIP3   OH237110   6.206   5.115   0.772
 5184TIP3    H137111   6.180   5.050   0.837
 5184TIP3    H237112   6.287   5.081   0.735
 5185TIP3   OH237113   1.466   3.474   2.091
 5185TIP3    H137114   1.519   3.550   2.117
 5185TIP3    H237115   1.377   3.498   2.116
 5186TIP3   OH237116   2.523   0.338   6.765
 5186TIP3    H137117   2.553   0.283   6.692
 5186TIP3    H237118   2.437   0.303   6.787
 5187TIP3   OH237119   2.423   6.276   2.268
 5187TIP3    H137120   2.440   6.185   2.295
 5187TIP3    H237121   2.508   6.307   2.235
 5188TIP3   OH237122   0.172   4.892   0.702
 5188TIP3    H137123   0.131   4.807   0.722
 5188TIP3    H237124   0.101   4.944   0.665
 5189TIP3   OH237125   2.310   3.048   6.401
 5189TIP3    H137126   2.243   3.030   6.467
 5189TIP3    H237127   2.343   2.962   6.375
 5190TIP3   OH237128   1.831   4.189   1.464
 5190TIP3    H137129   1.740   4.160   1.466
 5190TIP3    H237130   1.833   4.258   1.398
 5191TIP3   OH237131   4.123   3.778   0.394
 5191TIP3    H137132   4.187   3.733   0.340
 5191TIP3    H237133   4.073   3.832   0.333
 5192TIP3   OH237134   6.082   3.438   0.429
 5192TIP3    H137135   6.093   3.508   0.365
 5192TIP3    H237136   6.100   3.479   0.514
 5193TIP3   OH237137   3.283   4.420   8.027
 5193TIP3    H137138   3.288   4.456   7.939
 5193TIP3    H237139   3.189   4.420   8.047
 5194TIP3   OH237140   1.564   3.930   1.022
 5194TIP3    H137141   1.528   4.018   1.013
 5194TIP3    H237142   1.507   3.887   1.086
 5195TIP3   OH237143   3.630   5.594   7.384
 5195TIP3    H137144   3.564   5.637   7.330
 5195TIP3    H237145   3.703   5.655   7.387
 5196TIP3   OH237146   2.320   4.903   7.889
 5196TIP3    H137147   2.342   4.987   7.929
 5196TIP3    H237148   2.256   4.925   7.822
 5197TIP3   OH237149   5.989   1.936   1.417
 5197TIP3    H137150   6.027   2.020   1.393
 5197TIP3    H237151   5.927   1.916   1.348
 5198TIP3   OH237152   5.353   2.105   8.491
 5198TIP3    H137153   5.420   2.135   8.431
 5198TIP3    H237154   5.317   2.185   8.530
 5199TIP3   OH237155   2.034   0.435   7.490
 5199TIP3    H137156   2.015   0.390   7.573
 5199TIP3    H237157   2.002   0.524   7.504
 5200TIP3   OH237158   6.498   4.994   7.420
 5200TIP3    H137159   6.441   4.993   7.497
 5200TIP3    H237160   6.584   4.968   7.453
 5201TIP3   OH237161   5.776   0.677   1.175
 5201TIP3    H137162   5.718   0.682   1.251
 5201TIP3    H237163   5.863   0.668   1.212
 5202TIP3   OH237164   2.818   2.674   8.786
 5202TIP3    H137165   2.893   2.726   8.815
 5202TIP3    H237166   2.811   2.694   8.692
 5203TIP3   OH237167   3.555   1.234   8.373
 5203TIP3    H137168   3.557   1.262   8.281
 5203TIP3    H237169   3.529   1.312   8.421
 5204TIP3   OH237170   3.517   2.346   1.097
 5204TIP3    H137171   3.426   2.328   1.119
 5204TIP3    H237172   3.528   2.440   1.111
 5205TIP3   OH237173   0.565   2.637   7.678
 5205TIP3    H137174   0.482   2.667   7.642
 5205TIP3    H237175   0.632   2.686   7.630
 5206TIP3   OH237176   2.982   0.731   8.672
 5206TIP3    H137177   3.008   0.822   8.658
 5206TIP3    H237178   3.062   0.688   8.704
 5207TIP3   OH237179   4.301   1.899   8.600
 5207TIP3    H137180   4.258   1.827   8.554
 5207TIP3    H237181   4.361   1.936   8.535
 5208TIP3   OH237182   0.285   3.178   0.304
 5208TIP3    H137183   0.206   3.226   0.276
 5208TIP3    H237184   0.349   3.247   0.323
 5209TIP3   OH237185   4.845   0.067   7.760
 5209TIP3    H137186   4.876   6.773   7.817
 5209TIP3    H237187   4.913   0.134   7.766
 5210TIP3   OH237188   0.970   4.955   6.877
 5210TIP3    H137189   0.877   4.936   6.867
 5210TIP3    H237190   0.977   5.049   6.865
 5211TIP3   OH237191   0.268   6.685   0.372
 5211TIP3    H137192   0.228   6.623   0.434
 5211TIP3    H237193   0.225   6.667   0.289
 5212TIP3   OH237194   3.533   1.789   8.792
 5212TIP3    H137195   3.508   1.792   8.884
 5212TIP3    H237196   3.613   1.842   8.788
 5213TIP3   OH237197   0.972   4.213   8.199
 5213TIP3    H137198   0.909   4.162   8.148
 5213TIP3    H237199   1.031   4.251   8.134
 5214TIP3   OH237200   5.133   1.956   7.729
 5214TIP3    H137201   5.151   1.882   7.788
 5214TIP3    H237202   5.155   2.033   7.780
 5215TIP3   OH237203   2.886   5.979   1.828
 5215TIP3    H137204   2.918   6.029   1.753
 5215TIP3    H237205   2.795   6.006   1.838
 5216TIP3   OH237206   1.521   1.484   1.107
 5216TIP3    H137207   1.505   1.578   1.103
 5216TIP3    H237208   1.445   1.450   1.156
 5217TIP3   OH237209   2.326   2.284   0.690
 5217TIP3    H137210   2.237   2.314   0.708
 5217TIP3    H237211   2.359   2.345   0.624
 5218TIP3   OH237212   3.234   5.427   0.960
 5218TIP3    H137213   3.183   5.459   1.035
 5218TIP3    H237214   3.303   5.493   0.949
 5219TIP3   OH237215   4.946   4.383   8.544
 5219TIP3    H137216   4.882   4.314   8.560
 5219TIP3    H237217   5.031   4.338   8.550
 5220TIP3   OH237218   5.412   5.873   8.155
 5220TIP3    H137219   5.485   5.818   8.124
 5220TIP3    H237220   5.359   5.888   8.077
 5221TIP3   OH237221   1.205   4.287   8.047
 5221TIP3    H137222   1.288   4.306   8.091
 5221TIP3    H237223   1.230   4.243   7.966
 5222TIP3   OH237224   5.684   5.977   8.047
 5222TIP3    H137225   5.697   5.918   8.121
 5222TIP3    H237226   5.630   6.048   8.081
 5223TIP3   OH237227   2.898   5.796   1.591
 5223TIP3    H137228   2.841   5.846   1.533
 5223TIP3    H237229   2.925   5.858   1.659
 5224TIP3   OH237230   1.722   2.225   0.622
 5224TIP3    H137231   1.710   2.234   0.716
 5224TIP3    H237232   1.657   2.159   0.596
 5225TIP3   OH237233   5.760   4.683   0.601
 5225TIP3    H137234   5.819   4.618   0.639
 5225TIP3    H237235   5.804   4.767   0.617
 5226TIP3   OH237236   6.184   0.337   7.400
 5226TIP3    H137237   6.175   0.352   7.306
 5226TIP3    H237238   6.138   0.255   7.416
 5227TIP3   OH237239   6.098   3.703   0.319
 5227TIP3    H137240   6.077   3.681   0.229
 5227TIP3    H237241   6.078   3.796   0.326
 5228TIP3   OH237242   5.634   3.573   0.839
 5228TIP3    H137243   5.662   3.650   0.890
 5228TIP3    H237244   5.714   3.522   0.828
 5229TIP3   OH237245   5.256   0.684   8.456
 5229TIP3    H137246   5.254   0.623   8.383
 5229TIP3    H237247   5.290   0.633   8.530
 5230TIP3   OH237248   0.230   0.338   8.601
 5230TIP3    H137249   0.155   0.375   8.648
 5230TIP3    H237250   0.291   0.312   8.670
 5231TIP3   OH237251   1.510   4.993   7.134
 5231TIP3    H137252   1.518   5.050   7.210
 5231TIP3    H237253   1.599   4.964   7.115
 5232TIP3   OH237254   5.797   2.415   1.462
 5232TIP3    H137255   5.758   2.497   1.492
 5232TIP3    H237256   5.809   2.427   1.368
 5233TIP3   OH237257   3.757   4.195   8.629
 5233TIP3    H137258   3.730   4.287   8.632
 5233TIP3    H237259   3.686   4.148   8.673
 5234TIP3   OH237260   2.462   3.758   6.964
 5234TIP3    H137261   2.544   3.786   6.923
 5234TIP3    H237262   2.489   3.706   7.040
 5235TIP3   OH237263   1.334   6.665   8.456
 5235TIP3    H137264   1.348   6.735   8.520
 5235TIP3    H237265   1.416   6.615   8.457
 5236TIP3   OH237266   4.524   1.716   1.770
 5236TIP3    H137267   4.498   1.755   1.686
 5236TIP3    H237268   4.510   1.786   1.834
 5237TIP3   OH237269   4.106   3.920   7.842
 5237TIP3    H137270   4.189   3.967   7.847
 5237TIP3    H237271   4.083   3.921   7.749
 5238TIP3   OH237272   1.456   3.078   8.415
 5238TIP3    H137273   1.481   2.989   8.391
 5238TIP3    H237274   1.383   3.099   8.358
 5239TIP3   OH237275   4.606   3.031   0.949
 5239TIP3    H137276   4.566   3.025   1.036
 5239TIP3    H237277   4.533   3.019   0.888
 5240TIP3   OH237278   3.811   0.590   0.008
 5240TIP3    H137279   3.752   0.515   0.007
 5240TIP3    H237280   3.814   0.617   0.100
 5241TIP3   OH237281   1.191   1.331   0.906
 5241TIP3    H137282   1.228   1.313   0.819
 5241TIP3    H237283   1.234   1.268   0.963
 5242TIP3   OH237284   3.029   0.340   6.716
 5242TIP3    H137285   3.043   0.255   6.675
 5242TIP3    H237286   3.065   0.403   6.653
 5243TIP3   OH237287   1.627   3.934   7.181
 5243TIP3    H137288   1.623   3.947   7.275
 5243TIP3    H237289   1.565   3.997   7.145
 5244TIP3   OH237290   6.072   6.167   1.931
 5244TIP3    H137291   6.124   6.086   1.930
 5244TIP3    H237292   6.101   6.213   2.010
 5245TIP3   OH237293   0.274   0.394   6.997
 5245TIP3    H137294   0.250   0.479   6.959
 5245TIP3    H237295   0.198   0.368   7.048
 5246TIP3   OH237296   2.851   2.953   7.567
 5246TIP3    H137297   2.848   2.867   7.524
 5246TIP3    H237298   2.941   2.961   7.597
 5247TIP3   OH237299   3.744   3.424   0.830
 5247TIP3    H137300   3.790   3.490   0.778
 5247TIP3    H237301   3.742   3.461   0.918
 5248TIP3   OH237302   5.752   5.860   8.309
 5248TIP3    H137303   5.773   5.780   8.260
 5248TIP3    H237304   5.733   5.829   8.397
 5249TIP3   OH237305   0.354   2.012   0.613
 5249TIP3    H137306   0.350   1.916   0.607
 5249TIP3    H237307   0.353   2.030   0.707
 5250TIP3   OH237308   3.021   6.410   8.444
 5250TIP3    H137309   3.000   6.445   8.531
 5250TIP3    H237310   2.947   6.435   8.389
 5251TIP3   OH237311   1.280   1.390   7.800
 5251TIP3    H137312   1.343   1.335   7.847
 5251TIP3    H237313   1.329   1.424   7.725
 5252TIP3   OH237314   2.271   0.750   0.064
 5252TIP3    H137315   2.362   0.778   0.067
 5252TIP3    H237316   2.251   0.744   8.885
 5253TIP3   OH237317   2.669   4.971   1.933
 5253TIP3    H137318   2.690   5.057   1.968
 5253TIP3    H237319   2.607   4.934   1.996
 5254TIP3   OH237320   3.645   4.546   0.102
 5254TIP3    H137321   3.606   4.460   0.111
 5254TIP3    H237322   3.595   4.602   0.162
 5255TIP3   OH237323   4.595   2.734   0.142
 5255TIP3    H137324   4.628   2.697   0.223
 5255TIP3    H237325   4.533   2.801   0.170
 5256TIP3   OH237326   0.238   0.479   1.211
 5256TIP3    H137327   0.302   0.531   1.162
 5256TIP3    H237328   0.187   0.543   1.260
 5257TIP3   OH237329   5.453   0.305   0.117
 5257TIP3    H137330   5.475   0.388   0.159
 5257TIP3    H237331   5.380   0.270   0.168
 5258TIP3   OH237332   1.138   2.476   7.096
 5258TIP3    H137333   1.162   2.562   7.060
 5258TIP3    H237334   1.136   2.490   7.191
 5259TIP3   OH237335   2.917   2.358   2.578
 5259TIP3    H137336   2.895   2.401   2.496
 5259TIP3    H237337   2.973   2.284   2.553
 5260TIP3   OH237338   6.629   1.436   1.882
 5260TIP3    H137339   6.557   1.378   1.857
 5260TIP3    H237340   6.587   1.508   1.928
 5261TIP3   OH237341   0.460   0.484   6.571
 5261TIP3    H137342   0.429   0.394   6.581
 5261TIP3    H237343   0.444   0.505   6.479
 5262TIP3   OH237344   3.757   1.317   8.678
 5262TIP3    H137345   3.762   1.232   8.721
 5262TIP3    H237346   3.703   1.370   8.736
 5263TIP3   OH237347   0.367   3.008   1.616
 5263TIP3    H137348   0.305   2.988   1.545
 5263TIP3    H237349   0.444   3.042   1.572
 5264TIP3   OH237350   3.517   1.938   7.842
 5264TIP3    H137351   3.517   1.985   7.926
 5264TIP3    H237352   3.609   1.918   7.825
 5265TIP3   OH237353   1.051   0.259   1.608
 5265TIP3    H137354   1.014   0.315   1.676
 5265TIP3    H237355   0.975   0.218   1.566
 5266TIP3   OH237356   2.195   4.552   0.598
 5266TIP3    H137357   2.258   4.593   0.539
 5266TIP3    H237358   2.191   4.610   0.674
 5267TIP3   OH237359   6.520   1.437   1.105
 5267TIP3    H137360   6.512   1.501   1.035
 5267TIP3    H237361   6.540   1.489   1.183
 5268TIP3   OH237362   4.838   2.357   2.909
 5268TIP3    H137363   4.860   2.265   2.923
 5268TIP3    H237364   4.915   2.405   2.940
 5269TIP3   OH237365   4.560   5.827   8.370
 5269TIP3    H137366   4.577   5.761   8.436
 5269TIP3    H237367   4.587   5.786   8.288
 5270TIP3   OH237368   3.022   5.499   1.208
 5270TIP3    H137369   3.051   5.508   1.299
 5270TIP3    H237370   2.941   5.551   1.203
 5271TIP3   OH237371   6.429   3.418   0.457
 5271TIP3    H137372   6.399   3.501   0.493
 5271TIP3    H237373   6.454   3.438   0.367
 5272TIP3   OH237374   5.571   2.090   2.056
 5272TIP3    H137375   5.542   2.019   2.113
 5272TIP3    H237376   5.559   2.170   2.107
 5273TIP3   OH237377   3.047   0.175   1.077
 5273TIP3    H137378   2.980   0.155   1.013
 5273TIP3    H237379   3.063   0.092   1.123
 5274TIP3   OH237380   4.700   0.998   0.826
 5274TIP3    H137381   4.754   0.970   0.900
 5274TIP3    H237382   4.639   1.062   0.864
 5275TIP3   OH237383   1.282   6.059   1.114
 5275TIP3    H137384   1.208   5.999   1.119
 5275TIP3    H237385   1.261   6.116   1.040
 5276TIP3   OH237386   1.878   4.876   8.388
 5276TIP3    H137387   1.840   4.851   8.473
 5276TIP3    H237388   1.961   4.829   8.384
 5277TIP3   OH237389   2.539   4.682   1.553
 5277TIP3    H137390   2.478   4.608   1.555
 5277TIP3    H237391   2.621   4.644   1.521
 5278TIP3   OH237392   4.785   6.472   2.474
 5278TIP3    H137393   4.704   6.438   2.436
 5278TIP3    H237394   4.790   6.563   2.444
 5279TIP3   OH237395   4.248   4.051   0.732
 5279TIP3    H137396   4.280   4.140   0.715
 5279TIP3    H237397   4.327   4.002   0.756
 5280TIP3   OH237398   1.404   2.002   1.169
 5280TIP3    H137399   1.412   2.059   1.092
 5280TIP3    H237400   1.396   2.062   1.243
 5281TIP3   OH237401   6.727   1.847   0.346
 5281TIP3    H137402   6.737   1.782   0.277
 5281TIP3    H237403   6.636   1.877   0.337
 5282TIP3   OH237404   1.757   3.476   1.551
 5282TIP3    H137405   1.711   3.421   1.614
 5282TIP3    H237406   1.756   3.425   1.470
 5283TIP3   OH237407   1.857   5.642   8.693
 5283TIP3    H137408   1.781   5.697   8.709
 5283TIP3    H237409   1.931   5.704   8.690
 5284TIP3   OH237410   5.069   5.329   8.835
 5284TIP3    H137411   4.982   5.299   8.861
 5284TIP3    H237412   5.124   5.252   8.844
 5285TIP3   OH237413   0.444   3.712   1.568
 5285TIP3    H137414   0.445   3.641   1.632
 5285TIP3    H237415   0.482   3.787   1.614
 5286TIP3   OH237416   3.927   1.439   8.265
 5286TIP3    H137417   3.953   1.531   8.262
 5286TIP3    H237418   3.990   1.394   8.208
 5287TIP3   OH237419   1.281   0.876   8.609
 5287TIP3    H137420   1.333   0.954   8.630
 5287TIP3    H237421   1.342   0.803   8.624
 5288TIP3   OH237422   4.889   4.113   1.585
 5288TIP3    H137423   4.963   4.060   1.617
 5288TIP3    H237424   4.844   4.141   1.665
 5289TIP3   OH237425   1.566   5.376   7.782
 5289TIP3    H137426   1.478   5.355   7.814
 5289TIP3    H237427   1.576   5.470   7.797
 5290TIP3   OH237428   5.024   0.829   7.515
 5290TIP3    H137429   4.940   0.810   7.472
 5290TIP3    H237430   5.002   0.893   7.583
 5291TIP3   OH237431   3.507   6.276   7.991
 5291TIP3    H137432   3.426   6.269   8.042
 5291TIP3    H237433   3.483   6.332   7.917
 5292TIP3   OH237434   3.589   3.911   1.348
 5292TIP3    H137435   3.585   3.879   1.438
 5292TIP3    H237436   3.665   3.970   1.347
 5293TIP3   OH237437   4.977   0.869   8.700
 5293TIP3    H137438   4.996   0.963   8.691
 5293TIP3    H237439   5.016   0.845   8.784
 5294TIP3   OH237440   2.905   1.979   7.671
 5294TIP3    H137441   2.904   1.908   7.607
 5294TIP3    H237442   2.827   2.030   7.651
 5295TIP3   OH237443   0.605   4.458   8.214
 5295TIP3    H137444   0.573   4.381   8.167
 5295TIP3    H237445   0.568   4.450   8.302
 5296TIP3   OH237446   3.935   2.553   1.633
 5296TIP3    H137447   3.988   2.632   1.634
 5296TIP3    H237448   3.845   2.586   1.629
 5297TIP3   OH237449   2.941   1.620   0.655
 5297TIP3    H137450   2.863   1.639   0.708
 5297TIP3    H237451   3.014   1.648   0.711
 5298TIP3   OH237452   0.172   3.382   8.729
 5298TIP3    H137453   0.199   3.474   8.727
 5298TIP3    H237454   0.079   3.383   8.708
 5299TIP3   OH237455   0.498   1.243   1.424
 5299TIP3    H137456   0.578   1.292   1.446
 5299TIP3    H237457   0.476   1.196   1.504
 5300TIP3   OH237458   1.595   0.703   7.257
 5300TIP3    H137459   1.515   0.684   7.305
 5300TIP3    H237460   1.664   0.696   7.323
 5301TIP3   OH237461   2.885   2.034   0.249
 5301TIP3    H137462   2.879   1.954   0.197
 5301TIP3    H237463   2.799   2.075   0.241
 5302TIP3   OH237464   3.678   1.006   1.595
 5302TIP3    H137465   3.722   1.008   1.509
 5302TIP3    H237466   3.608   1.071   1.587
 5303TIP3   OH237467   0.678   0.638   6.004
 5303TIP3    H137468   0.737   0.617   5.932
 5303TIP3    H237469   0.717   0.595   6.080
 5304TIP3   OH237470   5.564   2.343   2.182
 5304TIP3    H137471   5.537   2.400   2.254
 5304TIP3    H237472   5.639   2.387   2.143
 5305TIP3   OH237473   1.813   3.121   1.233
 5305TIP3    H137474   1.891   3.144   1.181
 5305TIP3    H237475   1.796   3.029   1.211
 5306TIP3   OH237476   5.847   6.166   2.191
 5306TIP3    H137477   5.916   6.203   2.136
 5306TIP3    H237478   5.856   6.212   2.274
 5307TIP3   OH237479   0.407   0.697   7.730
 5307TIP3    H137480   0.453   0.640   7.668
 5307TIP3    H237481   0.340   0.740   7.677
 5308TIP3   OH237482   6.590   6.129   7.817
 5308TIP3    H137483   6.524   6.060   7.817
 5308TIP3    H237484   6.548   6.202   7.770
 5309TIP3   OH237485   5.284   2.246   0.139
 5309TIP3    H137486   5.237   2.292   0.208
 5309TIP3    H237487   5.376   2.266   0.155
 5310TIP3   OH237488   5.104   5.634   1.245
 5310TIP3    H137489   5.116   5.572   1.318
 5310TIP3    H237490   5.188   5.679   1.238
 5311TIP3   OH237491   3.239   5.332   2.162
 5311TIP3    H137492   3.269   5.414   2.201
 5311TIP3    H237493   3.150   5.320   2.196
 5312TIP3   OH237494   2.441   4.455   7.528
 5312TIP3    H137495   2.386   4.382   7.500
 5312TIP3    H237496   2.415   4.472   7.618
 5313TIP3   OH237497   0.780   1.931   7.050
 5313TIP3    H137498   0.726   1.852   7.047
 5313TIP3    H237499   0.717   2.002   7.063
 5314TIP3   OH237500   4.885   0.992   0.418
 5314TIP3    H137501   4.874   0.957   0.506
 5314TIP3    H237502   4.956   1.056   0.427
 5315TIP3   OH237503   6.726   4.230   0.900
 5315TIP3    H137504   6.722   4.140   0.931
 5315TIP3    H237505   6.662   4.234   0.829
 5316TIP3   OH237506   1.449   5.530   0.147
 5316TIP3    H137507   1.422   5.500   0.233
 5316TIP3    H237508   1.372   5.575   0.112
 5317TIP3   OH237509   4.556   2.332   2.986
 5317TIP3    H137510   4.487   2.335   2.920
 5317TIP3    H237511   4.637   2.344   2.937
 5318TIP3   OH237512   1.892   1.371   0.934
 5318TIP3    H137513   1.852   1.417   0.860
 5318TIP3    H237514   1.983   1.356   0.906
 5319TIP3   OH237515   4.091   1.311   7.154
 5319TIP3    H137516   4.035   1.364   7.097
 5319TIP3    H237517   4.176   1.312   7.112
 5320TIP3   OH237518   5.615   4.372   1.021
 5320TIP3    H137519   5.657   4.385   1.107
 5320TIP3    H237520   5.681   4.325   0.970
 5321TIP3   OH237521   5.332   0.358   1.709
 5321TIP3    H137522   5.404   0.336   1.768
 5321TIP3    H237523   5.357   0.319   1.625
 5322TIP3   OH237524   5.909   5.144   0.792
 5322TIP3    H137525   5.915   5.229   0.748
 5322TIP3    H237526   5.984   5.095   0.759
 5323TIP3   OH237527   3.454   4.959   7.647
 5323TIP3    H137528   3.423   5.031   7.701
 5323TIP3    H237529   3.377   4.906   7.631
 5324TIP3   OH237530   5.048   6.271   1.378
 5324TIP3    H137531   5.083   6.186   1.350
 5324TIP3    H237532   5.035   6.261   1.472
 5325TIP3   OH237533   4.827   1.151   2.584
 5325TIP3    H137534   4.840   1.120   2.673
 5325TIP3    H237535   4.886   1.097   2.531
 5326TIP3   OH237536   6.424   5.514   0.398
 5326TIP3    H137537   6.477   5.470   0.464
 5326TIP3    H237538   6.334   5.492   0.421
 5327TIP3   OH237539   3.393   2.869   0.790
 5327TIP3    H137540   3.343   2.789   0.773
 5327TIP3    H237541   3.465   2.840   0.846
 5328TIP3   OH237542   0.669   0.750   7.800
 5328TIP3    H137543   0.575   0.759   7.812
 5328TIP3    H237544   0.707   0.790   7.879
 5329TIP3   OH237545   4.724   2.318   8.789
 5329TIP3    H137546   4.687   2.348   8.872
 5329TIP3    H237547   4.685   2.375   8.723
 5330TIP3   OH237548   4.140   6.153   0.984
 5330TIP3    H137549   4.194   6.130   1.059
 5330TIP3    H237550   4.189   6.121   0.908
 5331TIP3   OH237551   1.606   4.164   7.399
 5331TIP3    H137552   1.516   4.138   7.415
 5331TIP3    H237553   1.607   4.259   7.416
 5332TIP3   OH237554   6.373   5.946   0.603
 5332TIP3    H137555   6.309   6.012   0.630
 5332TIP3    H237556   6.335   5.863   0.633
 5333TIP3   OH237557   5.100   5.007   1.945
 5333TIP3    H137558   5.113   5.043   2.033
 5333TIP3    H237559   5.186   5.010   1.905
 5334TIP3   OH237560   6.546   2.734   6.402
 5334TIP3    H137561   6.455   2.706   6.401
 5334TIP3    H237562   6.593   2.663   6.446
 5335TIP3   OH237563   1.985   0.888   2.023
 5335TIP3    H137564   1.944   0.820   1.970
 5335TIP3    H237565   1.913   0.945   2.050
 5336TIP3   OH237566   4.722   4.580   0.939
 5336TIP3    H137567   4.691   4.661   0.899
 5336TIP3    H237568   4.682   4.511   0.886
 5337TIP3   OH237569   3.707   2.889   0.930
 5337TIP3    H137570   3.690   2.914   1.020
 5337TIP3    H237571   3.724   2.972   0.885
 5338TIP3   OH237572   6.267   6.211   1.305
 5338TIP3    H137573   6.183   6.201   1.350
 5338TIP3    H237574   6.295   6.121   1.287
 5339TIP3   OH237575   2.953   5.394   0.148
 5339TIP3    H137576   3.029   5.448   0.128
 5339TIP3    H237577   2.954   5.384   0.243
 5340TIP3   OH237578   4.149   3.904   8.708
 5340TIP3    H137579   4.060   3.936   8.694
 5340TIP3    H237580   4.174   3.863   8.625
 5341TIP3   OH237581   4.101   4.872   0.028
 5341TIP3    H137582   4.158   4.812   0.077
 5341TIP3    H237583   4.129   4.862   8.850
 5342TIP3   OH237584   3.956   0.070   2.139
 5342TIP3    H137585   3.924   0.122   2.213
 5342TIP3    H237586   3.978   6.762   2.177
 5343TIP3   OH237587   5.533   3.278   8.305
 5343TIP3    H137588   5.554   3.290   8.398
 5343TIP3    H237589   5.536   3.183   8.292
 5344TIP3   OH237590   2.166   5.213   1.055
 5344TIP3    H137591   2.186   5.162   0.976
 5344TIP3    H237592   2.107   5.282   1.025
 5345TIP3   OH237593   3.937   5.129   8.157
 5345TIP3    H137594   3.928   5.214   8.199
 5345TIP3    H237595   4.013   5.139   8.099
 5346TIP3   OH237596   2.113   3.480   0.537
 5346TIP3    H137597   2.188   3.440   0.581
 5346TIP3    H237598   2.136   3.480   0.444
 5347TIP3   OH237599   3.118   0.579   7.771
 5347TIP3    H137600   3.108   0.523   7.847
 5347TIP3    H237601   3.173   0.651   7.802
 5348TIP3   OH237602   0.033   1.377   8.097
 5348TIP3    H137603   6.750   1.305   8.112
 5348TIP3    H237604   0.062   1.367   8.006
 5349TIP3   OH237605   1.301   3.708   2.311
 5349TIP3    H137606   1.259   3.648   2.249
 5349TIP3    H237607   1.329   3.782   2.258
 5350TIP3   OH237608   2.385   6.646   7.262
 5350TIP3    H137609   2.326   6.573   7.282
 5350TIP3    H237610   2.438   6.656   7.341
 5351TIP3   OH237611   0.956   5.688   8.289
 5351TIP3    H137612   0.977   5.773   8.328
 5351TIP3    H237613   0.867   5.670   8.318
 5352TIP3   OH237614   4.523   2.610   7.389
 5352TIP3    H137615   4.465   2.533   7.398
 5352TIP3    H237616   4.568   2.596   7.306
 5353TIP3   OH237617   3.805   0.684   8.472
 5353TIP3    H137618   3.782   0.632   8.395
 5353TIP3    H237619   3.751   0.648   8.542
 5354TIP3   OH237620   2.458   5.935   0.976
 5354TIP3    H137621   2.489   5.847   0.959
 5354TIP3    H237622   2.491   5.988   0.904
 5355TIP3   OH237623   0.014   6.670   2.125
 5355TIP3    H137624   0.001   6.681   2.220
 5355TIP3    H237625   0.027   6.759   2.092
 5356TIP3   OH237626   0.055   1.046   8.018
 5356TIP3    H137627   0.067   0.956   8.048
 5356TIP3    H237628   0.069   1.041   7.923
 5357TIP3   OH237629   4.915   0.955   1.080
 5357TIP3    H137630   4.945   1.007   1.155
 5357TIP3    H237631   4.994   0.941   1.028
 5358TIP3   OH237632   4.786   5.916   7.741
 5358TIP3    H137633   4.860   5.936   7.683
 5358TIP3    H237634   4.709   5.922   7.685
 5359TIP3   OH237635   0.992   4.364   2.316
 5359TIP3    H137636   0.905   4.325   2.321
 5359TIP3    H237637   1.003   4.410   2.399
 5360TIP3   OH237638   6.748   0.420   0.909
 5360TIP3    H137639   6.752   0.492   0.846
 5360TIP3    H237640   0.058   0.420   0.951
 5361TIP3   OH237641   2.108   5.930   1.572
 5361TIP3    H137642   2.049   5.865   1.610
 5361TIP3    H237643   2.104   6.004   1.633
 5362TIP3   OH237644   3.901   6.347   2.245
 5362TIP3    H137645   3.908   6.264   2.199
 5362TIP3    H237646   3.978   6.349   2.303
 5363TIP3   OH237647   5.730   5.973   2.036
 5363TIP3    H137648   5.737   5.896   2.093
 5363TIP3    H237649   5.759   6.045   2.091
 5364TIP3   OH237650   1.449   0.165   6.922
 5364TIP3    H137651   1.364   0.178   6.879
 5364TIP3    H237652   1.501   0.114   6.859
 5365TIP3   OH237653   5.489   0.564   7.907
 5365TIP3    H137654   5.413   0.510   7.930
 5365TIP3    H237655   5.498   0.553   7.812
 5366TIP3   OH237656   1.537   4.680   2.181
 5366TIP3    H137657   1.566   4.758   2.228
 5366TIP3    H237658   1.458   4.652   2.227
 5367TIP3   OH237659   0.125   0.365   6.570
 5367TIP3    H137660   0.206   0.321   6.594
 5367TIP3    H237661   0.154   0.446   6.526
 5368TIP3   OH237662   4.847   5.260   0.053
 5368TIP3    H137663   4.759   5.283   0.022
 5368TIP3    H237664   4.869   5.328   0.116
 5369TIP3   OH237665   3.936   4.511   1.181
 5369TIP3    H137666   3.922   4.573   1.109
 5369TIP3    H237667   3.904   4.558   1.258
 5370TIP3   OH237668   1.748   5.531   0.099
 5370TIP3    H137669   1.768   5.623   0.083
 5370TIP3    H237670   1.659   5.520   0.065
 5371TIP3   OH237671   2.489   5.652   0.556
 5371TIP3    H137672   2.426   5.582   0.543
 5371TIP3    H237673   2.561   5.632   0.496
 5372TIP3   OH237674   3.290   5.150   1.969
 5372TIP3    H137675   3.248   5.178   2.050
 5372TIP3    H237676   3.384   5.153   1.987
 5373TIP3   OH237677   3.483   0.915   7.670
 5373TIP3    H137678   3.481   0.825   7.638
 5373TIP3    H237679   3.567   0.949   7.639
 5374TIP3   OH237680   3.099   1.009   1.417
 5374TIP3    H137681   3.142   0.947   1.358
 5374TIP3    H237682   3.164   1.076   1.434
 5375TIP3   OH237683   5.815   2.693   8.206
 5375TIP3    H137684   5.851   2.674   8.120
 5375TIP3    H237685   5.791   2.785   8.202
 5376TIP3   OH237686   1.882   0.678   0.483
 5376TIP3    H137687   1.834   0.730   0.548
 5376TIP3    H237688   1.936   0.742   0.437
 5377TIP3   OH237689   5.711   0.741   0.487
 5377TIP3    H137690   5.793   0.708   0.452
 5377TIP3    H237691   5.705   0.831   0.455
 5378TIP3   OH237692   1.987   1.141   0.323
 5378TIP3    H137693   2.053   1.076   0.300
 5378TIP3    H237694   1.950   1.109   0.405
 5379TIP3   OH237695   1.111   1.481   8.094
 5379TIP3    H137696   1.100   1.404   8.038
 5379TIP3    H237697   1.084   1.555   8.039
 5380TIP3   OH237698   6.534   4.687   7.479
 5380TIP3    H137699   6.456   4.710   7.529
 5380TIP3    H237700   6.534   4.591   7.478
 5381TIP3   OH237701   0.404   1.120   1.676
 5381TIP3    H137702   0.312   1.104   1.698
 5381TIP3    H237703   0.447   1.131   1.761
 5382TIP3   OH237704   0.995   5.922   8.450
 5382TIP3    H137705   1.004   5.991   8.515
 5382TIP3    H237706   1.077   5.925   8.401
 5383TIP3   OH237707   3.907   5.461   7.419
 5383TIP3    H137708   3.995   5.424   7.422
 5383TIP3    H237709   3.862   5.423   7.494
 5384TIP3   OH237710   5.401   0.017   8.465
 5384TIP3    H137711   5.388   0.110   8.446
 5384TIP3    H237712   5.482   0.015   8.517
 5385TIP3   OH237713   0.277   1.035   1.933
 5385TIP3    H137714   0.346   0.977   1.966
 5385TIP3    H237715   0.264   1.099   2.003
 5386TIP3   OH237716   1.475   4.100   0.133
 5386TIP3    H137717   1.522   4.017   0.137
 5386TIP3    H237718   1.486   4.139   0.220
 5387TIP3   OH237719   0.093   6.217   0.043
 5387TIP3    H137720   0.113   6.125   0.059
 5387TIP3    H237721   0.011   6.214   8.907
 5388TIP3   OH237722   0.180   3.637   8.558
 5388TIP3    H137723   0.099   3.686   8.544
 5388TIP3    H237724   0.161   3.549   8.526
 5389TIP3   OH237725   4.811   2.874   1.600
 5389TIP3    H137726   4.894   2.911   1.628
 5389TIP3    H237727   4.766   2.851   1.682
 5390TIP3   OH237728   0.360   4.644   8.545
 5390TIP3    H137729   0.431   4.589   8.512
 5390TIP3    H237730   0.283   4.587   8.545
 5391TIP3   OH237731   6.482   5.647   8.237
 5391TIP3    H137732   6.439   5.691   8.310
 5391TIP3    H237733   6.418   5.585   8.204
 5392TIP3   OH237734   4.479   0.978   6.790
 5392TIP3    H137735   4.529   1.051   6.753
 5392TIP3    H237736   4.497   0.982   6.884
 5393TIP3   OH237737   0.735   3.093   0.348
 5393TIP3    H137738   0.767   3.006   0.326
 5393TIP3    H237739   0.645   3.094   0.316
 5394TIP3   OH237740   3.518   1.153   1.206
 5394TIP3    H137741   3.458   1.122   1.139
 5394TIP3    H237742   3.530   1.246   1.187
 5395TIP3   OH237743   3.935   4.142   8.441
 5395TIP3    H137744   3.869   4.148   8.372
 5395TIP3    H237745   3.886   4.156   8.522
 5396TIP3   OH237746   4.115   5.497   0.361
 5396TIP3    H137747   4.072   5.468   0.442
 5396TIP3    H237748   4.086   5.434   0.295
 5397TIP3   OH237749   1.641   4.508   8.043
 5397TIP3    H137750   1.609   4.568   8.110
 5397TIP3    H237751   1.573   4.440   8.037
 5398TIP3   OH237752   6.228   5.166   8.396
 5398TIP3    H137753   6.272   5.089   8.360
 5398TIP3    H237754   6.135   5.143   8.394
 5399TIP3   OH237755   4.309   0.856   7.819
 5399TIP3    H137756   4.247   0.880   7.888
 5399TIP3    H237757   4.264   0.787   7.770
 5400TIP3   OH237758   1.944   5.111   7.735
 5400TIP3    H137759   1.937   5.203   7.710
 5400TIP3    H237760   2.036   5.089   7.724
 5401TIP3   OH237761   4.125   5.952   0.532
 5401TIP3    H137762   4.049   5.918   0.485
 5401TIP3    H237763   4.196   5.948   0.468
 5402TIP3   OH237764   4.243   6.706   1.892
 5402TIP3    H137765   4.197   6.682   1.811
 5402TIP3    H237766   4.178   6.695   1.961
 5403TIP3   OH237767   3.783   1.859   7.817
 5403TIP3    H137768   3.823   1.887   7.735
 5403TIP3    H237769   3.855   1.819   7.866
 5404TIP3   OH237770   3.455   5.121   1.346
 5404TIP3    H137771   3.452   5.043   1.401
 5404TIP3    H237772   3.544   5.120   1.309
 5405TIP3   OH237773   3.274   2.353   2.715
 5405TIP3    H137774   3.287   2.420   2.647
 5405TIP3    H237775   3.179   2.351   2.728
 5406TIP3   OH237776   2.720   6.108   6.977
 5406TIP3    H137777   2.772   6.186   6.956
 5406TIP3    H237778   2.783   6.046   7.014
 5407TIP3   OH237779   1.479   1.206   0.465
 5407TIP3    H137780   1.523   1.178   0.545
 5407TIP3    H237781   1.549   1.232   0.406
 5408TIP3   OH237782   3.947   0.710   2.550
 5408TIP3    H137783   3.879   0.664   2.601
 5408TIP3    H237784   4.028   0.664   2.571
 5409TIP3   OH237785   5.480   4.197   7.093
 5409TIP3    H137786   5.434   4.114   7.110
 5409TIP3    H237787   5.438   4.259   7.153
 5410TIP3   OH237788   5.180   4.725   0.456
 5410TIP3    H137789   5.233   4.682   0.389
 5410TIP3    H237790   5.236   4.794   0.491
 5411TIP3   OH237791   3.935   3.600   7.894
 5411TIP3    H137792   3.857   3.652   7.873
 5411TIP3    H237793   4.001   3.665   7.920
 5412TIP3   OH237794   3.792   1.977   1.623
 5412TIP3    H137795   3.777   1.882   1.614
 5412TIP3    H237796   3.860   1.996   1.558
 5413TIP3   OH237797   0.686   4.099   2.120
 5413TIP3    H137798   0.709   4.015   2.159
 5413TIP3    H237799   0.724   4.164   2.178
 5414TIP3   OH237800   1.270   0.321   1.016
 5414TIP3    H137801   1.336   0.298   0.951
 5414TIP3    H237802   1.320   0.346   1.094
 5415TIP3   OH237803   0.789   4.679   8.623
 5415TIP3    H137804   0.880   4.708   8.628
 5415TIP3    H237805   0.754   4.695   8.710
 5416TIP3   OH237806   0.602   1.844   6.733
 5416TIP3    H137807   0.661   1.810   6.665
 5416TIP3    H237808   0.518   1.804   6.713
 5417TIP3   OH237809   0.212   4.276   0.973
 5417TIP3    H137810   0.236   4.209   1.037
 5417TIP3    H237811   0.123   4.252   0.945
 5418TIP3   OH237812   4.123   1.925   0.628
 5418TIP3    H137813   4.068   2.003   0.623
 5418TIP3    H237814   4.209   1.958   0.654
 5419TIP3   OH237815   6.096   2.851   8.228
 5419TIP3    H137816   6.140   2.866   8.311
 5419TIP3    H237817   6.152   2.788   8.182
 5420TIP3   OH237818   2.606   1.519   0.249
 5420TIP3    H137819   2.630   1.518   0.342
 5420TIP3    H237820   2.682   1.482   0.204
 5421TIP3   OH237821   6.303   0.702   1.774
 5421TIP3    H137822   6.240   0.633   1.794
 5421TIP3    H237823   6.312   0.751   1.856
 5422TIP3   OH237824   2.230   3.417   8.462
 5422TIP3    H137825   2.219   3.322   8.468
 5422TIP3    H237826   2.141   3.451   8.451
 5423TIP3   OH237827   1.370   4.487   8.277
 5423TIP3    H137828   1.326   4.556   8.228
 5423TIP3    H237829   1.304   4.454   8.337
 5424TIP3   OH237830   2.993   3.523   7.548
 5424TIP3    H137831   3.079   3.564   7.535
 5424TIP3    H237832   3.003   3.434   7.514
 5425TIP3   OH237833   5.825   5.231   8.627
 5425TIP3    H137834   5.817   5.137   8.638
 5425TIP3    H237835   5.872   5.261   8.705
 5426TIP3   OH237836   2.439   3.801   8.543
 5426TIP3    H137837   2.429   3.864   8.472
 5426TIP3    H237838   2.381   3.834   8.612
 5427TIP3   OH237839   4.423   6.567   1.384
 5427TIP3    H137840   4.392   6.495   1.329
 5427TIP3    H237841   4.447   6.525   1.467
 5428TIP3   OH237842   1.281   6.595   0.871
 5428TIP3    H137843   1.372   6.624   0.858
 5428TIP3    H237844   1.288   6.522   0.932
 5429TIP3   OH237845   0.429   0.997   0.065
 5429TIP3    H137846   0.355   0.990   0.125
 5429TIP3    H237847   0.437   0.909   0.027
 5430TIP3   OH237848   3.845   6.334   6.930
 5430TIP3    H137849   3.907   6.274   6.889
 5430TIP3    H237850   3.895   6.373   7.002
 5431TIP3   OH237851   4.094   0.347   1.124
 5431TIP3    H137852   4.112   0.307   1.039
 5431TIP3    H237853   4.043   0.282   1.172
 5432TIP3   OH237854   6.216   3.337   7.668
 5432TIP3    H137855   6.200   3.403   7.736
 5432TIP3    H237856   6.284   3.281   7.705
 5433TIP3   OH237857   0.196   4.071   0.685
 5433TIP3    H137858   0.151   4.058   0.602
 5433TIP3    H237859   0.215   3.983   0.716
 5434TIP3   OH237860   1.990   4.149   7.526
 5434TIP3    H137861   2.084   4.134   7.519
 5434TIP3    H237862   1.976   4.232   7.481
 5435TIP3   OH237863   0.243   6.533   6.947
 5435TIP3    H137864   0.303   6.588   6.896
 5435TIP3    H237865   0.174   6.508   6.885
 5436TIP3   OH237866   4.146   2.334   2.553
 5436TIP3    H137867   4.194   2.406   2.511
 5436TIP3    H237868   4.178   2.256   2.508
 5437TIP3   OH237869   0.802   4.977   1.493
 5437TIP3    H137870   0.833   4.888   1.509
 5437TIP3    H237871   0.752   4.971   1.411
 5438TIP3   OH237872   6.135   2.448   1.867
 5438TIP3    H137873   6.223   2.410   1.877
 5438TIP3    H237874   6.108   2.424   1.778
 5439TIP3   OH237875   3.726   2.607   0.124
 5439TIP3    H137876   3.795   2.585   0.186
 5439TIP3    H237877   3.755   2.688   0.082
 5440TIP3   OH237878   0.320   6.202   0.803
 5440TIP3    H137879   0.258   6.198   0.730
 5440TIP3    H237880   0.298   6.283   0.849
 5441TIP3   OH237881   0.475   3.806   0.589
 5441TIP3    H137882   0.447   3.715   0.598
 5441TIP3    H237883   0.461   3.827   0.496
 5442TIP3   OH237884   4.065   0.855   3.079
 5442TIP3    H137885   3.974   0.869   3.055
 5442TIP3    H237886   4.107   0.820   3.000
 5443TIP3   OH237887   1.184   5.603   0.270
 5443TIP3    H137888   1.220   5.625   0.356
 5443TIP3    H237889   1.171   5.687   0.227
 5444TIP3   OH237890   2.403   5.191   1.453
 5444TIP3    H137891   2.471   5.154   1.396
 5444TIP3    H237892   2.452   5.232   1.524
 5445TIP3   OH237893   6.249   5.030   1.746
 5445TIP3    H137894   6.345   5.025   1.744
 5445TIP3    H237895   6.228   5.064   1.833
 5446TIP3   OH237896   0.709   4.110   1.383
 5446TIP3    H137897   0.767   4.186   1.384
 5446TIP3    H237898   0.678   4.102   1.474
 5447TIP3   OH237899   3.474   4.782   6.696
 5447TIP3    H137900   3.554   4.757   6.651
 5447TIP3    H237901   3.502   4.805   6.785
 5448TIP3   OH237902   2.744   5.124   8.545
 5448TIP3    H137903   2.702   5.043   8.573
 5448TIP3    H237904   2.797   5.151   8.620
 5449TIP3   OH237905   1.470   3.182   0.788
 5449TIP3    H137906   1.436   3.097   0.759
 5449TIP3    H237907   1.550   3.161   0.836
 5450TIP3   OH237908   5.066   4.374   7.669
 5450TIP3    H137909   5.125   4.447   7.688
 5450TIP3    H237910   4.978   4.410   7.683
 5451TIP3   OH237911   0.591   2.084   0.414
 5451TIP3    H137912   0.532   2.080   0.490
 5451TIP3    H237913   0.574   2.169   0.375
 5452TIP3   OH237914   5.455   4.223   7.987
 5452TIP3    H137915   5.360   4.216   7.995
 5452TIP3    H237916   5.474   4.316   8.002
 5453TIP3   OH237917   6.768   4.222   1.208
 5453TIP3    H137918   0.046   4.159   1.253
 5453TIP3    H237919   6.735   4.176   1.130
 5454TIP3   OH237920   0.810   2.163   0.906
 5454TIP3    H137921   0.895   2.191   0.937
 5454TIP3    H237922   0.829   2.099   0.837
 5455TIP3   OH237923   2.512   5.859   8.013
 5455TIP3    H137924   2.499   5.799   8.087
 5455TIP3    H237925   2.600   5.839   7.981
 5456TIP3   OH237926   2.870   4.618   1.950
 5456TIP3    H137927   2.908   4.706   1.951
 5456TIP3    H237928   2.792   4.626   2.005
 5457TIP3   OH237929   4.832   5.046   2.332
 5457TIP3    H137930   4.881   5.053   2.250
 5457TIP3    H237931   4.836   4.954   2.355
 5458TIP3   OH237932   4.291   2.060   1.148
 5458TIP3    H137933   4.359   2.020   1.093
 5458TIP3    H237934   4.254   1.987   1.197
 5459TIP3   OH237935   5.116   6.157   7.345
 5459TIP3    H137936   5.144   6.067   7.361
 5459TIP3    H237937   5.055   6.151   7.272
 5460TIP3   OH237938   2.716   3.087   1.386
 5460TIP3    H137939   2.695   3.088   1.293
 5460TIP3    H237940   2.639   3.046   1.427
 5461TIP3   OH237941   1.905   2.769   7.737
 5461TIP3    H137942   1.947   2.853   7.755
 5461TIP3    H237943   1.936   2.745   7.650
 5462TIP3   OH237944   2.273   0.978   2.587
 5462TIP3    H137945   2.300   0.888   2.602
 5462TIP3    H237946   2.182   0.972   2.558
 5463TIP3   OH237947   2.889   1.277   8.865
 5463TIP3    H137948   2.972   1.228   8.862
 5463TIP3    H237949   2.914   1.368   8.850
 5464TIP3   OH237950   4.262   3.365   1.362
 5464TIP3    H137951   4.206   3.338   1.434
 5464TIP3    H237952   4.343   3.316   1.376
 5465TIP3   OH237953   0.071   6.181   7.891
 5465TIP3    H137954   0.074   6.105   7.833
 5465TIP3    H237955   6.757   6.183   7.922
 5466TIP3   OH237956   3.203   3.453   0.209
 5466TIP3    H137957   3.172   3.531   0.164
 5466TIP3    H237958   3.156   3.381   0.167
 5467TIP3   OH237959   3.885   1.668   1.160
 5467TIP3    H137960   3.920   1.712   1.237
 5467TIP3    H237961   3.849   1.586   1.193
 5468TIP3   OH237962   6.200   2.049   7.639
 5468TIP3    H137963   6.106   2.057   7.656
 5468TIP3    H237964   6.215   2.100   7.560
 5469TIP3   OH237965   3.969   5.513   0.003
 5469TIP3    H137966   3.940   5.431   0.043
 5469TIP3    H237967   3.975   5.492   8.823
 5470TIP3   OH237968   4.952   4.666   8.740
 5470TIP3    H137969   4.950   4.665   8.836
 5470TIP3    H237970   4.871   4.623   8.714
 5471TIP3   OH237971   3.666   2.120   2.921
 5471TIP3    H137972   3.593   2.183   2.921
 5471TIP3    H237973   3.677   2.097   2.829
 5472TIP3   OH237974   2.851   5.033   2.655
 5472TIP3    H137975   2.877   4.952   2.612
 5472TIP3    H237976   2.866   5.101   2.590
 5473TIP3   OH237977   4.697   2.073   1.873
 5473TIP3    H137978   4.636   2.013   1.915
 5473TIP3    H237979   4.643   2.128   1.816
 5474TIP3   OH237980   5.857   5.014   8.794
 5474TIP3    H137981   5.896   5.003   8.881
 5474TIP3    H237982   5.812   4.931   8.777
 5475TIP3   OH237983   0.817   2.881   1.404
 5475TIP3    H137984   0.813   2.785   1.401
 5475TIP3    H237985   0.911   2.900   1.411
 5476TIP3   OH237986   6.485   5.448   6.508
 5476TIP3    H137987   6.512   5.472   6.596
 5476TIP3    H237988   6.561   5.466   6.453
 5477TIP3   OH237989   6.438   3.213   8.427
 5477TIP3    H137990   6.468   3.153   8.358
 5477TIP3    H237991   6.471   3.299   8.399
 5478TIP3   OH237992   3.074   2.956   6.608
 5478TIP3    H137993   3.037   3.037   6.644
 5478TIP3    H237994   3.152   2.985   6.560
 5479TIP3   OH237995   3.069   0.385   6.980
 5479TIP3    H137996   3.084   0.480   6.975
 5479TIP3    H237997   3.063   0.358   6.888
 5480TIP3   OH237998   3.044   3.005   1.919
 5480TIP3    H137999   3.081   3.087   1.953
 5480TIP3    H238000   2.965   3.031   1.873
 5481TIP3   OH238001   5.261   2.161   1.236
 5481TIP3    H138002   5.177   2.140   1.276
 5481TIP3    H238003   5.324   2.156   1.308
 5482TIP3   OH238004   1.723   5.282   1.969
 5482TIP3    H138005   1.729   5.216   2.038
 5482TIP3    H238006   1.667   5.351   2.006
 5483TIP3   OH238007   4.498   1.902   1.568
 5483TIP3    H138008   4.411   1.864   1.579
 5483TIP3    H238009   4.487   1.971   1.503
 5484TIP3   OH238010   1.667   5.357   8.046
 5484TIP3    H138011   1.661   5.341   7.952
 5484TIP3    H238012   1.725   5.433   8.053
 5485TIP3   OH238013   3.127   5.522   1.527
 5485TIP3    H138014   3.172   5.452   1.480
 5485TIP3    H238015   3.115   5.487   1.616
 5486TIP3   OH238016   6.324   6.287   8.095
 5486TIP3    H138017   6.288   6.366   8.053
 5486TIP3    H238018   6.418   6.303   8.097
 5487TIP3   OH238019   4.904   5.045   1.215
 5487TIP3    H138020   4.965   5.054   1.289
 5487TIP3    H238021   4.920   4.957   1.182
 5488TIP3   OH238022   5.552   6.074   0.415
 5488TIP3    H138023   5.590   6.070   0.327
 5488TIP3    H238024   5.620   6.112   0.470
 5489TIP3   OH238025   0.255   3.851   1.085
 5489TIP3    H138026   0.204   3.772   1.070
 5489TIP3    H238027   0.259   3.860   1.180
 5490TIP3   OH238028   3.014   0.042   2.589
 5490TIP3    H138029   3.001   0.126   2.632
 5490TIP3    H238030   3.046   6.761   2.658
 5491TIP3   OH238031   6.373   4.604   1.214
 5491TIP3    H138032   6.412   4.524   1.180
 5491TIP3    H238033   6.445   4.668   1.214
 5492TIP3   OH238034   1.424   6.733   8.897
 5492TIP3    H138035   1.373   6.764   8.822
 5492TIP3    H238036   1.377   6.656   0.015
 5493TIP3   OH238037   2.684   1.230   8.107
 5493TIP3    H138038   2.765   1.249   8.060
 5493TIP3    H238039   2.621   1.293   8.072
 5494TIP3   OH238040   5.583   4.752   8.893
 5494TIP3    H138041   5.528   4.806   0.036
 5494TIP3    H238042   5.601   4.806   8.816
 5495TIP3   OH238043   4.101   5.728   0.691
 5495TIP3    H138044   4.129   5.793   0.626
 5495TIP3    H238045   4.180   5.678   0.711
 5496TIP3   OH238046   5.660   5.399   8.507
 5496TIP3    H138047   5.709   5.336   8.560
 5496TIP3    H238048   5.712   5.410   8.428
 5497TIP3   OH238049   3.401   0.523   0.579
 5497TIP3    H138050   3.351   0.564   0.650
 5497TIP3    H238051   3.476   0.482   0.622
 5498TIP3   OH238052   3.881   2.934   7.045
 5498TIP3    H138053   3.970   2.907   7.023
 5498TIP3    H238054   3.825   2.880   6.989
 5499TIP3   OH238055   5.030   4.071   8.036
 5499TIP3    H138056   5.046   4.027   8.119
 5499TIP3    H238057   5.080   4.021   7.972
 5500TIP3   OH238058   5.110   5.704   7.779
 5500TIP3    H138059   5.052   5.632   7.803
 5500TIP3    H238060   5.071   5.781   7.820
 5501TIP3   OH238061   0.006   3.214   8.391
 5501TIP3    H138062   0.067   3.282   8.361
 5501TIP3    H238063   0.053   3.169   8.461
 5502TIP3   OH238064   4.362   2.273   0.058
 5502TIP3    H138065   4.399   2.197   0.103
 5502TIP3    H238066   4.435   2.334   0.050
 5503TIP3   OH238067   5.093   3.130   1.863
 5503TIP3    H138068   5.057   3.078   1.935
 5503TIP3    H238069   5.017   3.152   1.809
 5504TIP3   OH238070   4.557   0.190   8.796
 5504TIP3    H138071   4.491   0.173   8.863
 5504TIP3    H238072   4.582   0.104   8.763
 5505TIP3   OH238073   0.653   0.723   0.070
 5505TIP3    H138074   0.616   0.675   8.910
 5505TIP3    H238075   0.675   0.809   0.034
 5506TIP3   OH238076   4.315   5.525   7.541
 5506TIP3    H138077   4.345   5.549   7.453
 5506TIP3    H238078   4.270   5.442   7.530
 5507TIP3   OH238079   4.533   6.651   0.054
 5507TIP3    H138080   4.614   6.698   0.073
 5507TIP3    H238081   4.544   6.620   8.877
 5508TIP3   OH238082   6.427   0.930   6.955
 5508TIP3    H138083   6.468   0.857   7.002
 5508TIP3    H238084   6.499   0.989   6.935
 5509TIP3   OH238085   3.755   6.299   8.742
 5509TIP3    H138086   3.684   6.243   8.710
 5509TIP3    H238087   3.813   6.240   8.790
 5510TIP3   OH238088   5.906   6.168   0.114
 5510TIP3    H138089   5.961   6.171   0.036
 5510TIP3    H238090   5.878   6.258   0.127
 5511TIP3   OH238091   4.524   6.302   7.052
 5511TIP3    H138092   4.462   6.233   7.029
 5511TIP3    H238093   4.469   6.379   7.065
 5512TIP3   OH238094   0.741   3.576   7.693
 5512TIP3    H138095   0.786   3.519   7.756
 5512TIP3    H238096   0.734   3.660   7.737
 5513TIP3   OH238097   6.593   5.920   8.192
 5513TIP3    H138098   6.557   5.832   8.200
 5513TIP3    H238099   6.676   5.916   8.240
 5514TIP3   OH238100   4.343   3.252   8.722
 5514TIP3    H138101   4.419   3.308   8.742
 5514TIP3    H238102   4.369   3.203   8.644
 5515TIP3   OH238103   2.242   3.825   1.355
 5515TIP3    H138104   2.202   3.742   1.382
 5515TIP3    H238105   2.226   3.885   1.427
 5516TIP3   OH238106   4.128   6.641   1.650
 5516TIP3    H138107   4.165   6.703   1.588
 5516TIP3    H238108   4.126   6.558   1.603
 5517TIP3   OH238109   4.073   4.706   1.510
 5517TIP3    H138110   3.983   4.713   1.480
 5517TIP3    H238111   4.067   4.709   1.606
 5518TIP3   OH238112   6.375   5.372   7.520
 5518TIP3    H138113   6.296   5.422   7.500
 5518TIP3    H238114   6.387   5.315   7.444
 5519TIP3   OH238115   0.626   3.131   6.358
 5519TIP3    H138116   0.622   3.190   6.434
 5519TIP3    H238117   0.560   3.064   6.376
 5520TIP3   OH238118   1.467   5.173   1.396
 5520TIP3    H138119   1.452   5.211   1.483
 5520TIP3    H238120   1.480   5.249   1.339
 5521TIP3   OH238121   1.414   1.083   8.787
 5521TIP3    H138122   1.508   1.079   8.806
 5521TIP3    H238123   1.376   1.125   8.864
 5522TIP3   OH238124   2.572   4.494   1.277
 5522TIP3    H138125   2.646   4.531   1.326
 5522TIP3    H238126   2.581   4.400   1.286
 5523TIP3   OH238127   3.274   0.859   1.249
 5523TIP3    H138128   3.304   0.808   1.174
 5523TIP3    H238129   3.354   0.895   1.288
 5524TIP3   OH238130   4.970   4.775   1.093
 5524TIP3    H138131   4.960   4.728   1.010
 5524TIP3    H238132   5.038   4.726   1.140
 5525TIP3   OH238133   4.558   1.739   7.399
 5525TIP3    H138134   4.497   1.666   7.400
 5525TIP3    H238135   4.504   1.816   7.380
 5526TIP3   OH238136   6.002   1.249   0.464
 5526TIP3    H138137   5.986   1.274   0.555
 5526TIP3    H238138   6.095   1.271   0.450
 5527TIP3   OH238139   1.911   5.246   8.185
 5527TIP3    H138140   1.835   5.271   8.132
 5527TIP3    H238141   1.986   5.283   8.138
 5528TIP3   OH238142   2.656   2.813   0.367
 5528TIP3    H138143   2.713   2.775   0.300
 5528TIP3    H238144   2.629   2.897   0.331
 5529TIP3   OH238145   3.424   3.426   7.144
 5529TIP3    H138146   3.500   3.446   7.089
 5529TIP3    H238147   3.382   3.511   7.158
 5530TIP3   OH238148   0.654   5.678   7.498
 5530TIP3    H138149   0.586   5.740   7.469
 5530TIP3    H238150   0.677   5.629   7.419
 5531TIP3   OH238151   4.628   1.622   2.408
 5531TIP3    H138152   4.548   1.649   2.363
 5531TIP3    H238153   4.678   1.703   2.419
 5532TIP3   OH238154   6.284   4.226   0.246
 5532TIP3    H138155   6.353   4.168   0.213
 5532TIP3    H238156   6.275   4.293   0.178
 5533TIP3   OH238157   3.506   3.697   1.203
 5533TIP3    H138158   3.487   3.740   1.120
 5533TIP3    H238159   3.549   3.765   1.256
 5534TIP3   OH238160   3.060   3.094   1.588
 5534TIP3    H138161   3.044   3.160   1.521
 5534TIP3    H238162   2.974   3.053   1.602
 5535TIP3   OH238163   3.140   2.474   7.649
 5535TIP3    H138164   3.156   2.527   7.570
 5535TIP3    H238165   3.176   2.388   7.628
 5536TIP3   OH238166   5.682   6.467   8.192
 5536TIP3    H138167   5.682   6.556   8.159
 5536TIP3    H238168   5.658   6.475   8.284
 5537TIP3   OH238169   3.170   6.173   7.197
 5537TIP3    H138170   3.123   6.190   7.115
 5537TIP3    H238171   3.153   6.250   7.250
 5538TIP3   OH238172   4.735   4.033   0.004
 5538TIP3    H138173   4.674   4.017   0.077
 5538TIP3    H238174   4.726   3.956   8.862
 5539TIP3   OH238175   3.098   4.874   1.190
 5539TIP3    H138176   3.158   4.948   1.174
 5539TIP3    H238177   3.134   4.803   1.136
 5540TIP3   OH238178   0.679   6.612   8.585
 5540TIP3    H138179   0.657   6.675   8.654
 5540TIP3    H238180   0.597   6.597   8.539
 5541TIP3   OH238181   0.558   6.699   8.122
 5541TIP3    H138182   0.628   6.757   8.150
 5541TIP3    H238183   0.506   6.751   8.062
 5542TIP3   OH238184   3.486   6.439   6.487
 5542TIP3    H138185   3.576   6.406   6.478
 5542TIP3    H238186   3.432   6.361   6.486
 5543TIP3   OH238187   0.856   4.006   8.041
 5543TIP3    H138188   0.825   3.946   8.109
 5543TIP3    H238189   0.823   3.969   7.960
 5544TIP3   OH238190   5.473   4.048   8.404
 5544TIP3    H138191   5.547   4.016   8.456
 5544TIP3    H238192   5.438   4.121   8.455
 5545TIP3   OH238193   2.655   5.147   2.819
 5545TIP3    H138194   2.707   5.090   2.762
 5545TIP3    H238195   2.704   5.229   2.823
 5546TIP3   OH238196   2.466   2.657   8.750
 5546TIP3    H138197   2.537   2.593   8.748
 5546TIP3    H238198   2.388   2.608   8.725
 5547TIP3   OH238199   0.632   5.843   1.058
 5547TIP3    H138200   0.581   5.766   1.083
 5547TIP3    H238201   0.570   5.916   1.066
 5548TIP3   OH238202   2.405   2.176   2.400
 5548TIP3    H138203   2.331   2.220   2.357
 5548TIP3    H238204   2.476   2.240   2.398
 5549TIP3   OH238205   1.753   2.952   0.137
 5549TIP3    H138206   1.756   2.869   0.090
 5549TIP3    H238207   1.661   2.961   0.164
 5550TIP3   OH238208   5.810   3.269   6.583
 5550TIP3    H138209   5.810   3.351   6.532
 5550TIP3    H238210   5.721   3.234   6.572
 5551TIP3   OH238211   5.630   2.097   6.549
 5551TIP3    H138212   5.617   2.027   6.485
 5551TIP3    H238213   5.724   2.114   6.548
 5552TIP3   OH238214   5.572   5.828   6.904
 5552TIP3    H138215   5.526   5.867   6.979
 5552TIP3    H238216   5.659   5.867   6.907
 5553TIP3   OH238217   3.724   5.567   8.558
 5553TIP3    H138218   3.638   5.534   8.530
 5553TIP3    H238219   3.704   5.649   8.605
 5554TIP3   OH238220   2.499   3.187   8.552
 5554TIP3    H138221   2.523   3.276   8.578
 5554TIP3    H238222   2.570   3.132   8.585
 5555TIP3   OH238223   5.856   3.529   6.479
 5555TIP3    H138224   5.783   3.589   6.468
 5555TIP3    H238225   5.934   3.582   6.462
 5556TIP3   OH238226   1.793   1.412   0.623
 5556TIP3    H138227   1.876   1.452   0.599
 5556TIP3    H238228   1.727   1.465   0.578
 5557TIP3   OH238229   0.911   6.475   0.675
 5557TIP3    H138230   0.849   6.413   0.636
 5557TIP3    H238231   0.864   6.511   0.750
 5558TIP3   OH238232   2.052   6.001   0.005
 5558TIP3    H138233   2.132   5.966   0.046
 5558TIP3    H238234   2.053   6.094   0.026
 5559TIP3   OH238235   2.648   5.933   6.766
 5559TIP3    H138236   2.718   5.881   6.726
 5559TIP3    H238237   2.691   5.983   6.835
 5560TIP3   OH238238   2.930   0.506   1.748
 5560TIP3    H138239   2.999   0.447   1.718
 5560TIP3    H238240   2.976   0.574   1.797
 5561TIP3   OH238241   5.379   5.597   1.552
 5561TIP3    H138242   5.413   5.666   1.495
 5561TIP3    H238243   5.414   5.618   1.639
 5562TIP3   OH238244   5.667   1.383   7.525
 5562TIP3    H138245   5.692   1.291   7.520
 5562TIP3    H238246   5.742   1.427   7.566
 5563TIP3   OH238247   0.843   5.470   7.493
 5563TIP3    H138248   0.814   5.512   7.574
 5563TIP3    H238249   0.768   5.417   7.466
 5564TIP3   OH238250   6.373   1.304   1.848
 5564TIP3    H138251   6.378   1.219   1.892
 5564TIP3    H238252   6.344   1.365   1.916
 5565TIP3   OH238253   0.686   3.226   7.454
 5565TIP3    H138254   0.703   3.145   7.406
 5565TIP3    H238255   0.629   3.276   7.396
 5566TIP3   OH238256   2.869   0.066   7.531
 5566TIP3    H138257   2.804   0.109   7.475
 5566TIP3    H238258   2.848   6.749   7.524
 5567TIP3   OH238259   5.275   5.306   0.959
 5567TIP3    H138260   5.239   5.218   0.950
 5567TIP3    H238261   5.356   5.293   1.009
 5568TIP3   OH238262   6.208   1.111   6.932
 5568TIP3    H138263   6.276   1.052   6.966
 5568TIP3    H238264   6.248   1.198   6.936
 5569TIP3   OH238265   0.393   6.174   6.434
 5569TIP3    H138266   0.327   6.194   6.368
 5569TIP3    H238267   0.390   6.249   6.494
 5570TIP3   OH238268   0.106   2.254   1.546
 5570TIP3    H138269   0.088   2.227   1.636
 5570TIP3    H238270   0.092   2.349   1.547
 5571TIP3   OH238271   0.252   2.436   6.362
 5571TIP3    H138272   0.285   2.520   6.395
 5571TIP3    H238273   0.299   2.424   6.279
 5572TIP3   OH238274   3.720   6.272   1.966
 5572TIP3    H138275   3.799   6.294   1.917
 5572TIP3    H238276   3.714   6.177   1.959
 5573TIP3   OH238277   2.630   1.974   8.330
 5573TIP3    H138278   2.566   2.026   8.281
 5573TIP3    H238279   2.666   2.034   8.395
 5574TIP3   OH238280   6.442   4.027   0.536
 5574TIP3    H138281   6.465   3.991   0.622
 5574TIP3    H238282   6.379   4.097   0.556
 5575TIP3   OH238283   3.445   4.581   8.767
 5575TIP3    H138284   3.431   4.610   8.857
 5575TIP3    H238285   3.541   4.576   8.759
 5576TIP3   OH238286   3.838   5.589   6.649
 5576TIP3    H138287   3.784   5.640   6.709
 5576TIP3    H238288   3.908   5.553   6.704
 5577TIP3   OH238289   2.803   1.422   7.252
 5577TIP3    H138290   2.748   1.500   7.237
 5577TIP3    H238291   2.859   1.446   7.326
 5578TIP3   OH238292   2.634   1.477   1.366
 5578TIP3    H138293   2.544   1.444   1.366
 5578TIP3    H238294   2.687   1.401   1.390
 5579TIP3   OH238295   2.293   5.881   0.138
 5579TIP3    H138296   2.271   5.904   0.229
 5579TIP3    H238297   2.280   5.787   0.133
 5580TIP3   OH238298   4.248   3.340   7.605
 5580TIP3    H138299   4.214   3.383   7.683
 5580TIP3    H238300   4.200   3.257   7.601
 5581TIP3   OH238301   6.281   4.490   1.459
 5581TIP3    H138302   6.297   4.548   1.384
 5581TIP3    H238303   6.299   4.402   1.426
 5582TIP3   OH238304   0.265   0.772   8.557
 5582TIP3    H138305   0.260   0.862   8.524
 5582TIP3    H238306   0.174   0.745   8.566
 5583TIP3   OH238307   0.361   2.355   1.049
 5583TIP3    H138308   0.338   2.316   1.133
 5583TIP3    H238309   0.430   2.298   1.014
 5584TIP3   OH238310   4.074   3.826   0.653
 5584TIP3    H138311   4.093   3.816   0.560
 5584TIP3    H238312   4.129   3.898   0.682
 5585TIP3   OH238313   4.836   2.127   7.461
 5585TIP3    H138314   4.828   2.222   7.463
 5585TIP3    H238315   4.810   2.098   7.548
 5586TIP3   OH238316   0.239   1.223   2.127
 5586TIP3    H138317   0.156   1.251   2.088
 5586TIP3    H238318   0.231   1.247   2.219
 5587TIP3   OH238319   2.910   5.759   0.982
 5587TIP3    H138320   2.916   5.783   1.074
 5587TIP3    H238321   2.986   5.801   0.941
 5588TIP3   OH238322   6.184   2.241   0.142
 5588TIP3    H138323   6.225   2.327   0.135
 5588TIP3    H238324   6.139   2.243   0.226
 5589TIP3   OH238325   6.460   4.188   6.544
 5589TIP3    H138326   6.488   4.278   6.526
 5589TIP3    H238327   6.385   4.198   6.603
 5590TIP3   OH238328   6.728   4.061   2.075
 5590TIP3    H138329   6.646   4.110   2.084
 5590TIP3    H238330   6.741   4.018   2.160
 5591TIP3   OH238331   0.170   0.272   8.244
 5591TIP3    H138332   0.211   0.190   8.272
 5591TIP3    H238333   0.150   0.258   8.152
 5592TIP3   OH238334   5.326   4.920   8.560
 5592TIP3    H138335   5.246   4.971   8.560
 5592TIP3    H238336   5.299   4.831   8.581
 5593TIP3   OH238337   3.597   6.757   0.602
 5593TIP3    H138338   3.645   6.776   0.521
 5593TIP3    H238339   3.506   0.001   0.582
 5594TIP3   OH238340   4.657   6.405   8.048
 5594TIP3    H138341   4.612   6.326   8.018
 5594TIP3    H238342   4.729   6.416   7.986
 5595TIP3   OH238343   3.803   6.275   2.686
 5595TIP3    H138344   3.790   6.364   2.656
 5595TIP3    H238345   3.762   6.221   2.619
 5596TIP3   OH238346   4.882   5.127   1.564
 5596TIP3    H138347   4.795   5.157   1.538
 5596TIP3    H238348   4.873   5.032   1.573
 5597TIP3   OH238349   2.896   1.208   7.908
 5597TIP3    H138350   2.843   1.225   7.830
 5597TIP3    H238351   2.904   1.113   7.912
 5598TIP3   OH238352   0.436   4.063   1.127
 5598TIP3    H138353   0.373   3.993   1.114
 5598TIP3    H238354   0.520   4.018   1.136
 5599TIP3   OH238355   3.869   4.056   8.020
 5599TIP3    H138356   3.915   4.024   8.097
 5599TIP3    H238357   3.930   4.042   7.948
 5600TIP3   OH238358   1.438   5.746   8.388
 5600TIP3    H138359   1.359   5.729   8.439
 5600TIP3    H238360   1.430   5.837   8.360
 5601TIP3   OH238361   2.621   6.755   1.096
 5601TIP3    H138362   2.527   6.740   1.089
 5601TIP3    H238363   2.629   0.069   1.125
 5602TIP3   OH238364   0.452   0.097   7.918
 5602TIP3    H138365   0.377   0.114   7.861
 5602TIP3    H238366   0.528   0.115   7.863
 5603TIP3   OH238367   2.146   0.763   6.501
 5603TIP3    H138368   2.081   0.694   6.511
 5603TIP3    H238369   2.230   0.719   6.514
 5604TIP3   OH238370   0.745   2.320   7.250
 5604TIP3    H138371   0.692   2.249   7.286
 5604TIP3    H238372   0.724   2.320   7.156
 5605TIP3   OH238373   4.504   4.901   1.738
 5605TIP3    H138374   4.598   4.895   1.719
 5605TIP3    H238375   4.493   4.987   1.779
 5606TIP3   OH238376   2.126   4.865   8.718
 5606TIP3    H138377   2.087   4.784   8.686
 5606TIP3    H238378   2.106   4.866   8.812
 5607TIP3   OH238379   5.067   3.966   1.726
 5607TIP3    H138380   5.038   3.875   1.728
 5607TIP3    H238381   5.145   3.967   1.783
 5608TIP3   OH238382   5.402   3.694   7.159
 5608TIP3    H138383   5.419   3.694   7.253
 5608TIP3    H238384   5.412   3.785   7.133
 5609TIP3   OH238385   5.873   0.845   8.276
 5609TIP3    H138386   5.790   0.799   8.289
 5609TIP3    H238387   5.939   0.783   8.307
 5610TIP3   OH238388   0.083   0.860   0.612
 5610TIP3    H138389   0.048   0.920   0.546
 5610TIP3    H238390   0.112   0.918   0.683
 5611TIP3   OH238391   2.359   0.857   8.091
 5611TIP3    H138392   2.319   0.883   8.174
 5611TIP3    H238393   2.445   0.898   8.092
 5612TIP3   OH238394   5.284   1.317   0.834
 5612TIP3    H138395   5.322   1.404   0.844
 5612TIP3    H238396   5.315   1.269   0.911
 5613TIP3   OH238397   0.119   2.466   8.483
 5613TIP3    H138398   0.023   2.457   8.481
 5613TIP3    H238399   0.134   2.557   8.456
 5614TIP3   OH238400   5.595   6.529   8.717
 5614TIP3    H138401   5.601   6.556   8.808
 5614TIP3    H238402   5.503   6.506   8.705
 5615TIP3   OH238403   1.861   5.905   7.991
 5615TIP3    H138404   1.826   5.826   8.032
 5615TIP3    H238405   1.894   5.957   8.064
 5616TIP3   OH238406   6.287   4.699   1.744
 5616TIP3    H138407   6.382   4.710   1.750
 5616TIP3    H238408   6.255   4.727   1.830
 5617TIP3   OH238409   3.993   0.920   2.717
 5617TIP3    H138410   3.931   0.991   2.733
 5617TIP3    H238411   3.954   0.869   2.646
 5618TIP3   OH238412   6.491   0.207   1.715
 5618TIP3    H138413   6.533   0.121   1.712
 5618TIP3    H238414   6.485   0.233   1.623
 5619TIP3   OH238415   5.803   3.153   2.370
 5619TIP3    H138416   5.757   3.071   2.387
 5619TIP3    H238417   5.891   3.127   2.342
 5620TIP3   OH238418   1.734   5.755   7.218
 5620TIP3    H138419   1.702   5.800   7.296
 5620TIP3    H238420   1.750   5.665   7.246
 5621TIP3   OH238421   6.696   4.881   7.591
 5621TIP3    H138422   6.646   4.811   7.549
 5621TIP3    H238423   6.747   4.836   7.659
 5622TIP3   OH238424   5.877   6.014   1.804
 5622TIP3    H138425   5.952   6.038   1.858
 5622TIP3    H238426   5.811   5.984   1.866
 5623TIP3   OH238427   5.073   3.467   6.827
 5623TIP3    H138428   5.055   3.548   6.779
 5623TIP3    H238429   5.038   3.398   6.771
 5624TIP3   OH238430   1.534   3.757   8.872
 5624TIP3    H138431   1.629   3.763   8.878
 5624TIP3    H238432   1.503   3.765   0.048
 5625TIP3   OH238433   1.784   5.046   8.644
 5625TIP3    H138434   1.806   5.073   8.555
 5625TIP3    H238435   1.778   4.950   8.639
 5626TIP3   OH238436   5.864   0.070   7.521
 5626TIP3    H138437   5.920   0.011   7.573
 5626TIP3    H238438   5.917   0.091   7.444
 5627TIP3   OH238439   0.016   5.359   1.790
 5627TIP3    H138440   6.702   5.333   1.774
 5627TIP3    H238441   0.009   5.442   1.837
 5628TIP3   OH238442   0.736   1.769   1.594
 5628TIP3    H138443   0.709   1.720   1.671
 5628TIP3    H238444   0.812   1.722   1.559
 5629TIP3   OH238445   6.241   2.487   7.134
 5629TIP3    H138446   6.272   2.577   7.133
 5629TIP3    H238447   6.209   2.473   7.223
 5630TIP3   OH238448   6.038   1.357   8.828
 5630TIP3    H138449   5.975   1.292   8.859
 5630TIP3    H238450   6.026   1.432   8.887
 5631TIP3   OH238451   3.915   5.439   0.956
 5631TIP3    H138452   4.004   5.442   0.920
 5631TIP3    H238453   3.880   5.527   0.938
 5632TIP3   OH238454   5.127   4.841   7.196
 5632TIP3    H138455   5.149   4.914   7.137
 5632TIP3    H238456   5.189   4.850   7.269
 5633TIP3   OH238457   1.036   4.841   2.411
 5633TIP3    H138458   0.986   4.892   2.475
 5633TIP3    H238459   0.976   4.827   2.339
 5634TIP3   OH238460   0.270   4.906   7.175
 5634TIP3    H138461   0.312   4.923   7.090
 5634TIP3    H238462   0.248   4.992   7.209
 5635TIP3   OH238463   5.729   5.304   7.427
 5635TIP3    H138464   5.739   5.396   7.403
 5635TIP3    H238465   5.642   5.279   7.396
 5636TIP3   OH238466   2.757   5.858   8.491
 5636TIP3    H138467   2.758   5.936   8.547
 5636TIP3    H238468   2.689   5.803   8.529
 5637TIP3   OH238469   1.982   3.148   0.249
 5637TIP3    H138470   1.918   3.080   0.228
 5637TIP3    H238471   1.989   3.200   0.169
 5638TIP3   OH238472   2.321   3.239   8.142
 5638TIP3    H138473   2.413   3.225   8.165
 5638TIP3    H238474   2.273   3.178   8.199
 5639TIP3   OH238475   3.774   1.575   2.547
 5639TIP3    H138476   3.746   1.492   2.586
 5639TIP3    H238477   3.826   1.618   2.615
 5640TIP3   OH238478   0.222   5.570   8.361
 5640TIP3    H138479   0.155   5.581   8.428
 5640TIP3    H238480   0.189   5.498   8.307
 5641TIP3   OH238481   3.136   3.064   8.376
 5641TIP3    H138482   3.101   3.108   8.299
 5641TIP3    H238483   3.178   3.134   8.426
 5642TIP3   OH238484   4.410   1.513   7.473
 5642TIP3    H138485   4.386   1.568   7.548
 5642TIP3    H238486   4.327   1.480   7.440
 5643TIP3   OH238487   4.867   0.877   8.113
 5643TIP3    H138488   4.924   0.861   8.188
 5643TIP3    H238489   4.780   0.889   8.152
 5644TIP3   OH238490   3.245   6.629   0.551
 5644TIP3    H138491   3.275   6.681   0.476
 5644TIP3    H238492   3.250   6.539   0.521
 5645TIP3   OH238493   3.970   4.754   7.721
 5645TIP3    H138494   3.875   4.768   7.722
 5645TIP3    H238495   3.990   4.729   7.631
 5646TIP3   OH238496   4.832   2.619   1.496
 5646TIP3    H138497   4.754   2.589   1.450
 5646TIP3    H238498   4.828   2.715   1.491
 5647TIP3   OH238499   3.818   3.258   1.746
 5647TIP3    H138500   3.858   3.262   1.832
 5647TIP3    H238501   3.887   3.284   1.685
 5648TIP3   OH238502   5.507   2.464   6.882
 5648TIP3    H138503   5.446   2.535   6.865
 5648TIP3    H238504   5.490   2.401   6.812
 5649TIP3   OH238505   5.696   4.310   7.453
 5649TIP3    H138506   5.653   4.225   7.445
 5649TIP3    H238507   5.629   4.367   7.491
 5650TIP3   OH238508   0.876   4.682   0.317
 5650TIP3    H138509   0.854   4.591   0.299
 5650TIP3    H238510   0.972   4.685   0.312
 5651TIP3   OH238511   1.585   5.473   1.313
 5651TIP3    H138512   1.671   5.437   1.331
 5651TIP3    H238513   1.600   5.539   1.245
 5652TIP3   OH238514   1.439   0.468   0.217
 5652TIP3    H138515   1.444   0.511   0.302
 5652TIP3    H238516   1.530   0.460   0.188
 5653TIP3   OH238517   4.440   2.333   7.992
 5653TIP3    H138518   4.362   2.331   8.047
 5653TIP3    H238519   4.407   2.351   7.904
 5654TIP3   OH238520   0.808   0.163   2.411
 5654TIP3    H138521   0.774   0.153   2.500
 5654TIP3    H238522   0.759   0.237   2.375
 5655TIP3   OH238523   3.813   4.226   7.367
 5655TIP3    H138524   3.904   4.248   7.387
 5655TIP3    H238525   3.809   4.131   7.374
 5656TIP3   OH238526   5.968   3.815   8.259
 5656TIP3    H138527   6.016   3.897   8.272
 5656TIP3    H238528   6.016   3.750   8.310
 5657TIP3   OH238529   6.154   5.522   7.493
 5657TIP3    H138530   6.110   5.467   7.428
 5657TIP3    H238531   6.121   5.610   7.476
 5658TIP3   OH238532   4.449   0.261   1.275
 5658TIP3    H138533   4.403   0.238   1.194
 5658TIP3    H238534   4.414   0.347   1.299
 5659TIP3   OH238535   4.314   4.231   1.389
 5659TIP3    H138536   4.366   4.152   1.373
 5659TIP3    H238537   4.350   4.267   1.470
 5660TIP3   OH238538   4.042   1.389   8.768
 5660TIP3    H138539   3.964   1.334   8.776
 5660TIP3    H238540   4.114   1.336   8.802
 5661TIP3   OH238541   3.284   6.020   1.099
 5661TIP3    H138542   3.323   5.945   1.054
 5661TIP3    H238543   3.301   6.094   1.041
 5662TIP3   OH238544   0.206   2.591   1.638
 5662TIP3    H138545   0.198   2.658   1.706
 5662TIP3    H238546   0.122   2.594   1.591
 5663TIP3   OH238547   2.415   5.724   1.672
 5663TIP3    H138548   2.458   5.809   1.681
 5663TIP3    H238549   2.484   5.661   1.694
 5664TIP3   OH238550   1.965   4.618   8.659
 5664TIP3    H138551   1.906   4.547   8.684
 5664TIP3    H238552   2.036   4.575   8.611
 5665TIP3   OH238553   5.885   2.161   0.054
 5665TIP3    H138554   5.962   2.159   0.110
 5665TIP3    H238555   5.897   2.088   8.907
 5666TIP3   OH238556   3.363   2.564   7.803
 5666TIP3    H138557   3.280   2.529   7.771
 5666TIP3    H238558   3.340   2.614   7.882
 5667TIP3   OH238559   6.375   5.532   8.698
 5667TIP3    H138560   6.282   5.515   8.713
 5667TIP3    H238561   6.390   5.619   8.737
 5668TIP3   OH238562   3.992   6.462   1.855
 5668TIP3    H138563   4.027   6.526   1.793
 5668TIP3    H238564   3.991   6.380   1.806
 5669TIP3   OH238565   6.776   0.553   7.268
 5669TIP3    H138566   6.696   0.502   7.280
 5669TIP3    H238567   0.062   0.490   7.234
 5670TIP3   OH238568   3.977   1.730   3.000
 5670TIP3    H138569   3.957   1.646   3.041
 5670TIP3    H238570   3.893   1.765   2.972
 5671TIP3   OH238571   5.401   1.999   2.437
 5671TIP3    H138572   5.369   2.089   2.426
 5671TIP3    H238573   5.412   1.966   2.348
 5672TIP3   OH238574   2.496   4.858   0.037
 5672TIP3    H138575   2.459   4.946   0.031
 5672TIP3    H238576   2.573   4.868   0.093
 5673TIP3   OH238577   1.982   0.560   0.072
 5673TIP3    H138578   1.959   0.533   8.897
 5673TIP3    H238579   2.068   0.601   0.063
 5674TIP3   OH238580   6.707   1.790   8.003
 5674TIP3    H138581   6.731   1.703   8.035
 5674TIP3    H238582   0.013   1.834   7.987
 5675TIP3   OH238583   1.181   6.248   0.615
 5675TIP3    H138584   1.250   6.314   0.604
 5675TIP3    H238585   1.100   6.298   0.609
 5676TIP3   OH238586   3.561   2.660   2.432
 5676TIP3    H138587   3.575   2.742   2.479
 5676TIP3    H238588   3.640   2.608   2.448
 5677TIP3   OH238589   2.524   1.091   2.529
 5677TIP3    H138590   2.546   1.041   2.450
 5677TIP3    H238591   2.461   1.036   2.575
 5678TIP3   OH238592   2.240   3.523   1.498
 5678TIP3    H138593   2.162   3.514   1.553
 5678TIP3    H238594   2.239   3.446   1.442
 5679TIP3   OH238595   5.558   5.856   8.900
 5679TIP3    H138596   5.494   5.806   0.038
 5679TIP3    H238597   5.570   5.803   8.821
 5680TIP3   OH238598   5.607   1.245   0.657
 5680TIP3    H138599   5.567   1.190   0.725
 5680TIP3    H238600   5.645   1.318   0.705
 5681TIP3   OH238601   4.813   6.203   1.229
 5681TIP3    H138602   4.732   6.204   1.279
 5681TIP3    H238603   4.881   6.227   1.292
 5682TIP3   OH238604   0.193   5.157   7.237
 5682TIP3    H138605   0.151   5.225   7.289
 5682TIP3    H238606   0.177   5.184   7.146
 5683TIP3   OH238607   3.893   5.974   1.879
 5683TIP3    H138608   3.973   5.923   1.864
 5683TIP3    H238609   3.888   5.984   1.974
 5684TIP3   OH238610   3.782   1.892   2.212
 5684TIP3    H138611   3.778   1.798   2.229
 5684TIP3    H238612   3.764   1.933   2.297
 5685TIP3   OH238613   0.139   2.624   7.005
 5685TIP3    H138614   0.145   2.604   6.912
 5685TIP3    H238615   0.159   2.718   7.010
 5686TIP3   OH238616   6.532   2.970   7.790
 5686TIP3    H138617   6.530   2.964   7.886
 5686TIP3    H238618   6.599   3.035   7.772
 5687TIP3   OH238619   5.445   4.245   1.673
 5687TIP3    H138620   5.479   4.156   1.664
 5687TIP3    H238621   5.355   4.233   1.703
 5688TIP3   OH238622   4.862   2.739   2.049
 5688TIP3    H138623   4.870   2.815   2.107
 5688TIP3    H238624   4.804   2.679   2.095
 5689TIP3   OH238625   3.485   2.630   1.071
 5689TIP3    H138626   3.392   2.647   1.055
 5689TIP3    H238627   3.509   2.692   1.140
 5690TIP3   OH238628   1.212   1.674   0.617
 5690TIP3    H138629   1.239   1.648   0.529
 5690TIP3    H238630   1.270   1.626   0.675
 5691TIP3   OH238631   1.276   3.900   6.755
 5691TIP3    H138632   1.317   3.879   6.671
 5691TIP3    H238633   1.327   3.850   6.819
 5692TIP3   OH238634   2.146   6.096   2.222
 5692TIP3    H138635   2.077   6.063   2.279
 5692TIP3    H238636   2.118   6.071   2.134
 5693TIP3   OH238637   0.648   1.188   1.099
 5693TIP3    H138638   0.710   1.174   1.171
 5693TIP3    H238639   0.573   1.132   1.121
 5694TIP3   OH238640   6.303   4.120   1.771
 5694TIP3    H138641   6.254   4.062   1.829
 5694TIP3    H238642   6.238   4.154   1.709
 5695TIP3   OH238643   2.837   0.469   0.850
 5695TIP3    H138644   2.818   0.518   0.930
 5695TIP3    H238645   2.771   0.400   0.847
 5696TIP3   OH238646   1.132   2.283   1.506
 5696TIP3    H138647   1.072   2.208   1.509
 5696TIP3    H238648   1.167   2.283   1.417
 5697TIP3   OH238649   2.522   6.664   7.982
 5697TIP3    H138650   2.527   6.620   8.067
 5697TIP3    H238651   2.599   6.633   7.934
 5698TIP3   OH238652   3.032   3.950   0.429
 5698TIP3    H138653   3.056   4.039   0.454
 5698TIP3    H238654   2.963   3.961   0.365
 5699TIP3   OH238655   3.436   3.179   8.325
 5699TIP3    H138656   3.387   3.260   8.310
 5699TIP3    H238657   3.423   3.127   8.246
 5700TIP3   OH238658   0.993   1.626   1.480
 5700TIP3    H138659   0.998   1.545   1.532
 5700TIP3    H238660   1.025   1.601   1.393
 5701TIP3   OH238661   4.754   6.021   8.761
 5701TIP3    H138662   4.786   6.034   8.672
 5701TIP3    H238663   4.662   6.001   8.751
 5702TIP3   OH238664   2.341   1.588   7.894
 5702TIP3    H138665   2.340   1.588   7.798
 5702TIP3    H238666   2.277   1.655   7.919
 5703TIP3   OH238667   3.685   4.052   2.390
 5703TIP3    H138668   3.664   4.145   2.398
 5703TIP3    H238669   3.776   4.051   2.360
 5704TIP3   OH238670   1.911   5.274   7.450
 5704TIP3    H138671   1.859   5.295   7.527
 5704TIP3    H238672   1.886   5.185   7.427
 5705TIP3   OH238673   6.276   4.792   0.506
 5705TIP3    H138674   6.368   4.817   0.494
 5705TIP3    H238675   6.228   4.846   0.443
 5706TIP3   OH238676   2.334   3.491   1.837
 5706TIP3    H138677   2.278   3.559   1.876
 5706TIP3    H238678   2.299   3.409   1.872
 5707TIP3   OH238679   3.422   1.883   0.693
 5707TIP3    H138680   3.503   1.833   0.691
 5707TIP3    H238681   3.440   1.959   0.636
 5708TIP3   OH238682   1.907   4.432   8.305
 5708TIP3    H138683   1.819   4.396   8.315
 5708TIP3    H238684   1.894   4.526   8.293
 5709TIP3   OH238685   1.812   1.801   0.106
 5709TIP3    H138686   1.771   1.869   0.161
 5709TIP3    H238687   1.763   1.805   0.024
 5710TIP3   OH238688   3.599   4.933   8.571
 5710TIP3    H138689   3.577   5.003   8.633
 5710TIP3    H238690   3.681   4.962   8.531
 5711TIP3   OH238691   5.673   0.875   8.517
 5711TIP3    H138692   5.765   0.888   8.541
 5711TIP3    H238693   5.659   0.933   8.443
 5712TIP3   OH238694   0.251   1.468   8.858
 5712TIP3    H138695   0.201   1.420   0.011
 5712TIP3    H238696   0.198   1.545   8.838
 5713TIP3   OH238697   4.498   0.693   8.806
 5713TIP3    H138698   4.452   0.609   8.808
 5713TIP3    H238699   4.531   0.705   8.895
 5714TIP3   OH238700   0.931   4.354   8.433
 5714TIP3    H138701   0.839   4.329   8.441
 5714TIP3    H238702   0.956   4.328   8.344
 5715TIP3   OH238703   6.760   2.375   6.328
 5715TIP3    H138704   0.076   2.383   6.353
 5715TIP3    H238705   6.747   2.443   6.262
 5716TIP3   OH238706   5.545   6.203   8.131
 5716TIP3    H138707   5.560   6.296   8.145
 5716TIP3    H238708   5.480   6.178   8.197
 5717TIP3   OH238709   1.042   2.290   7.335
 5717TIP3    H138710   1.050   2.283   7.430
 5717TIP3    H238711   0.954   2.324   7.320
 5718TIP3   OH238712   2.903   0.967   8.197
 5718TIP3    H138713   2.972   1.022   8.235
 5718TIP3    H238714   2.907   0.985   8.103
 5719TIP3   OH238715   0.336   4.564   8.839
 5719TIP3    H138716   0.421   4.584   8.878
 5719TIP3    H238717   0.356   4.540   8.748
 5720TIP3   OH238718   5.778   2.165   8.477
 5720TIP3    H138719   5.837   2.217   8.422
 5720TIP3    H238720   5.764   2.085   8.428
 5721TIP3   OH238721   6.232   6.591   0.616
 5721TIP3    H138722   6.147   6.614   0.653
 5721TIP3    H238723   6.281   6.554   0.689
 5722TIP3   OH238724   4.106   3.900   1.782
 5722TIP3    H138725   4.133   3.826   1.836
 5722TIP3    H238726   4.149   3.976   1.822
 5723TIP3   OH238727   3.834   3.635   8.486
 5723TIP3    H138728   3.871   3.718   8.455
 5723TIP3    H238729   3.739   3.648   8.482
 5724TIP3   OH238730   5.437   5.145   7.917
 5724TIP3    H138731   5.471   5.058   7.936
 5724TIP3    H238732   5.515   5.201   7.910
 5725TIP3   OH238733   0.103   0.822   8.154
 5725TIP3    H138734   0.109   0.831   8.250
 5725TIP3    H238735   0.174   0.762   8.132
 5726TIP3   OH238736   6.452   4.980   6.927
 5726TIP3    H138737   6.364   4.996   6.892
 5726TIP3    H238738   6.437   4.947   7.015
 5727TIP3   OH238739   4.482   3.876   8.551
 5727TIP3    H138740   4.535   3.932   8.608
 5727TIP3    H238741   4.540   3.802   8.530
 5728TIP3   OH238742   6.100   0.027   7.345
 5728TIP3    H138743   6.162   6.765   7.407
 5728TIP3    H238744   6.048   6.729   7.315
 5729TIP3   OH238745   2.352   0.148   7.550
 5729TIP3    H138746   2.409   0.131   7.625
 5729TIP3    H238747   2.362   0.242   7.533
 5730TIP3   OH238748   2.262   6.448   7.390
 5730TIP3    H138749   2.275   6.476   7.481
 5730TIP3    H238750   2.212   6.367   7.397
 5731TIP3   OH238751   4.289   3.705   7.862
 5731TIP3    H138752   4.275   3.768   7.791
 5731TIP3    H238753   4.383   3.685   7.858
 5732TIP3   OH238754   3.467   5.632   0.778
 5732TIP3    H138755   3.499   5.551   0.740
 5732TIP3    H238756   3.455   5.691   0.703
 5733TIP3   OH238757   5.794   2.282   2.415
 5733TIP3    H138758   5.851   2.290   2.491
 5733TIP3    H238759   5.747   2.366   2.411
 5734TIP3   OH238760   4.061   0.910   2.228
 5734TIP3    H138761   4.149   0.881   2.204
 5734TIP3    H238762   4.069   0.938   2.319
 5735TIP3   OH238763   2.461   3.386   7.821
 5735TIP3    H138764   2.474   3.304   7.869
 5735TIP3    H238765   2.371   3.413   7.843
 5736TIP3   OH238766   1.398   6.317   7.273
 5736TIP3    H138767   1.492   6.332   7.266
 5736TIP3    H238768   1.360   6.405   7.275
 5737TIP3   OH238769   3.324   3.745   8.447
 5737TIP3    H138770   3.269   3.796   8.507
 5737TIP3    H238771   3.261   3.690   8.399
 5738TIP3   OH238772   2.629   0.545   8.493
 5738TIP3    H138773   2.583   0.611   8.543
 5738TIP3    H238774   2.709   0.588   8.463
 5739TIP3   OH238775   4.887   6.455   8.388
 5739TIP3    H138776   4.941   6.496   8.455
 5739TIP3    H238777   4.924   6.368   8.377
 5740TIP3   OH238778   3.839   2.380   1.302
 5740TIP3    H138779   3.755   2.421   1.320
 5740TIP3    H238780   3.819   2.304   1.247
 5741TIP3   OH238781   2.106   3.997   8.863
 5741TIP3    H138782   2.034   3.990   8.800
 5741TIP3    H238783   2.063   4.012   0.034
 5742TIP3   OH238784   6.243   6.487   1.406
 5742TIP3    H138785   6.148   6.485   1.399
 5742TIP3    H238786   6.271   6.402   1.373
 5743TIP3   OH238787   4.928   5.494   7.773
 5743TIP3    H138788   4.837   5.473   7.794
 5743TIP3    H238789   4.930   5.496   7.677
 5744TIP3   OH238790   5.585   2.620   0.797
 5744TIP3    H138791   5.636   2.688   0.752
 5744TIP3    H238792   5.650   2.560   0.832
 5745TIP3   OH238793   3.426   0.262   1.969
 5745TIP3    H138794   3.389   0.308   2.044
 5745TIP3    H238795   3.511   0.229   2.001
 5746TIP3   OH238796   4.594   5.845   7.997
 5746TIP3    H138797   4.632   5.788   8.063
 5746TIP3    H238798   4.644   5.828   7.918
 5747TIP3   OH238799   3.131   2.335   8.335
 5747TIP3    H138800   3.215   2.326   8.290
 5747TIP3    H238801   3.073   2.373   8.269
 5748TIP3   OH238802   5.528   1.338   8.513
 5748TIP3    H138803   5.518   1.279   8.438
 5748TIP3    H238804   5.445   1.330   8.560
 5749TIP3   OH238805   4.896   1.755   1.400
 5749TIP3    H138806   4.868   1.818   1.466
 5749TIP3    H238807   4.960   1.801   1.347
 5750TIP3   OH238808   2.910   3.297   2.275
 5750TIP3    H138809   2.914   3.255   2.361
 5750TIP3    H238810   2.998   3.333   2.262
 5751TIP3   OH238811   3.358   6.070   8.882
 5751TIP3    H138812   3.440   6.093   0.013
 5751TIP3    H238813   3.309   6.152   8.878
 5752TIP3   OH238814   4.899   1.994   6.891
 5752TIP3    H138815   4.943   2.075   6.919
 5752TIP3    H238816   4.970   1.940   6.857
 5753TIP3   OH238817   3.488   3.040   0.585
 5753TIP3    H138818   3.458   2.993   0.662
 5753TIP3    H238819   3.495   3.131   0.614
 5754TIP3   OH238820   2.072   4.284   0.588
 5754TIP3    H138821   2.135   4.353   0.567
 5754TIP3    H238822   2.006   4.289   0.519
 5755TIP3   OH238823   5.083   1.170   7.425
 5755TIP3    H138824   5.037   1.118   7.359
 5755TIP3    H238825   5.169   1.187   7.386
 5756TIP3   OH238826   5.951   4.682   0.319
 5756TIP3    H138827   5.973   4.625   0.392
 5756TIP3    H238828   5.908   4.757   0.359
 5757TIP3   OH238829   2.162   0.365   0.232
 5757TIP3    H138830   2.132   0.455   0.216
 5757TIP3    H238831   2.230   0.351   0.166
 5758TIP3   OH238832   0.333   0.850   7.500
 5758TIP3    H138833   0.403   0.852   7.434
 5758TIP3    H238834   0.257   0.814   7.454
 5759TIP3   OH238835   5.583   6.602   0.784
 5759TIP3    H138836   5.636   6.600   0.864
 5759TIP3    H238837   5.566   6.694   0.768
 5760TIP3   OH238838   5.517   3.534   0.076
 5760TIP3    H138839   5.542   3.443   0.059
 5760TIP3    H238840   5.564   3.556   0.157
 5761TIP3   OH238841   2.606   2.674   8.437
 5761TIP3    H138842   2.691   2.709   8.464
 5761TIP3    H238843   2.543   2.718   8.494
 5762TIP3   OH238844   6.624   1.581   0.894
 5762TIP3    H138845   6.613   1.496   0.850
 5762TIP3    H238846   6.717   1.585   0.916
 5763TIP3   OH238847   2.587   4.047   8.136
 5763TIP3    H138848   2.658   4.108   8.114
 5763TIP3    H238849   2.586   3.984   8.064
 5764TIP3   OH238850   2.351   2.729   7.632
 5764TIP3    H138851   2.313   2.743   7.545
 5764TIP3    H238852   2.346   2.814   7.675
 5765TIP3   OH238853   5.741   1.063   0.520
 5765TIP3    H138854   5.703   1.129   0.578
 5765TIP3    H238855   5.731   1.100   0.432
 5766TIP3   OH238856   6.020   5.920   7.890
 5766TIP3    H138857   5.968   5.973   7.950
 5766TIP3    H238858   6.091   5.978   7.863
 5767TIP3   OH238859   0.255   4.905   8.549
 5767TIP3    H138860   0.164   4.887   8.528
 5767TIP3    H238861   0.299   4.820   8.542
 5768TIP3   OH238862   3.437   3.965   0.045
 5768TIP3    H138863   3.445   3.982   0.139
 5768TIP3    H238864   3.355   3.916   0.036
 5769TIP3   OH238865   0.361   4.807   8.212
 5769TIP3    H138866   0.434   4.869   8.201
 5769TIP3    H238867   0.397   4.737   8.266
 5770TIP3   OH238868   4.119   3.590   8.469
 5770TIP3    H138869   4.162   3.506   8.453
 5770TIP3    H238870   4.182   3.656   8.437
 5771TIP3   OH238871   2.596   5.555   1.300
 5771TIP3    H138872   2.586   5.502   1.220
 5771TIP3    H238873   2.506   5.567   1.331
 5772TIP3   OH238874   4.240   1.976   1.940
 5772TIP3    H138875   4.227   2.058   1.988
 5772TIP3    H238876   4.215   1.907   2.002
 5773TIP3   OH238877   3.418   5.810   0.006
 5773TIP3    H138878   3.412   5.903   8.900
 5773TIP3    H238879   3.407   5.767   8.834
 5774TIP3   OH238880   1.062   0.908   8.823
 5774TIP3    H138881   1.113   0.931   8.900
 5774TIP3    H238882   1.128   0.891   8.755
 5775TIP3   OH238883   4.876   0.360   2.629
 5775TIP3    H138884   4.910   0.305   2.558
 5775TIP3    H238885   4.896   0.449   2.602
 5776TIP3   OH238886   0.732   5.311   1.388
 5776TIP3    H138887   0.716   5.227   1.344
 5776TIP3    H238888   0.817   5.299   1.431
 5777TIP3   OH238889   6.634   5.410   7.255
 5777TIP3    H138890   6.684   5.350   7.311
 5777TIP3    H238891   6.697   5.439   7.188
 5778TIP3   OH238892   0.344   3.890   1.366
 5778TIP3    H138893   0.347   3.828   1.439
 5778TIP3    H238894   0.432   3.888   1.329
 5779TIP3   OH238895   6.433   4.949   0.778
 5779TIP3    H138896   6.411   4.856   0.785
 5779TIP3    H238897   6.503   4.953   0.712
 5780TIP3   OH238898   1.398   0.096   1.357
 5780TIP3    H138899   1.377   0.164   1.292
 5780TIP3    H238900   1.369   0.014   1.315
 5781TIP3   OH238901   6.067   0.274   8.517
 5781TIP3    H138902   5.995   0.252   8.576
 5781TIP3    H238903   6.123   0.197   8.516
 5782TIP3   OH238904   5.677   4.383   1.567
 5782TIP3    H138905   5.672   4.402   1.474
 5782TIP3    H238906   5.589   4.357   1.592
 5783TIP3   OH238907   0.415   2.117   6.372
 5783TIP3    H138908   0.349   2.148   6.434
 5783TIP3    H238909   0.414   2.022   6.380
 5784TIP3   OH238910   4.991   3.006   0.747
 5784TIP3    H138911   5.021   2.955   0.672
 5784TIP3    H238912   4.979   2.941   0.817
 5785TIP3   OH238913   2.954   6.472   8.710
 5785TIP3    H138914   2.936   6.560   8.745
 5785TIP3    H238915   2.899   6.414   8.762
 5786TIP3   OH238916   5.157   5.119   0.727
 5786TIP3    H138917   5.160   5.025   0.746
 5786TIP3    H238918   5.174   5.125   0.633
 5787TIP3   OH238919   4.031   2.615   0.045
 5787TIP3    H138920   4.039   2.624   0.140
 5787TIP3    H238921   3.962   2.676   0.020
 5788TIP3   OH238922   1.984   1.117   6.564
 5788TIP3    H138923   2.058   1.142   6.509
 5788TIP3    H238924   1.956   1.198   6.605
 5789TIP3   OH238925   5.177   2.158   0.480
 5789TIP3    H138926   5.186   2.190   0.570
 5789TIP3    H238927   5.180   2.237   0.426
 5790TIP3   OH238928   5.754   0.322   6.349
 5790TIP3    H138929   5.760   0.299   6.256
 5790TIP3    H238930   5.730   0.414   6.350
 5791TIP3   OH238931   3.130   5.540   7.098
 5791TIP3    H138932   3.146   5.458   7.143
 5791TIP3    H238933   3.205   5.595   7.120
 5792TIP3   OH238934   2.695   6.382   8.563
 5792TIP3    H138935   2.683   6.287   8.566
 5792TIP3    H238936   2.742   6.403   8.644
 5793TIP3   OH238937   3.144   1.482   2.028
 5793TIP3    H138938   3.114   1.421   2.095
 5793TIP3    H238939   3.222   1.522   2.065
 5794TIP3   OH238940   4.814   0.042   8.429
 5794TIP3    H138941   4.895   6.770   8.413
 5794TIP3    H238942   4.745   6.752   8.430
 5795TIP3   OH238943   4.971   1.029   6.926
 5795TIP3    H138944   5.002   1.104   6.875
 5795TIP3    H238945   5.012   0.953   6.885
 5796TIP3   OH238946   1.486   2.168   1.736
 5796TIP3    H138947   1.576   2.199   1.730
 5796TIP3    H238948   1.490   2.077   1.708
 5797TIP3   OH238949   3.891   6.439   0.338
 5797TIP3    H138950   3.860   6.452   0.248
 5797TIP3    H238951   3.919   6.348   0.341
 5798TIP3   OH238952   5.637   5.381   6.457
 5798TIP3    H138953   5.581   5.456   6.438
 5798TIP3    H238954   5.619   5.319   6.386
 5799TIP3   OH238955   2.843   1.246   6.552
 5799TIP3    H138956   2.860   1.339   6.542
 5799TIP3    H238957   2.753   1.234   6.523
 5800TIP3   OH238958   4.535   5.807   8.907
 5800TIP3    H138959   4.448   5.847   8.899
 5800TIP3    H238960   4.522   5.735   0.055
 5801TIP3   OH238961   0.701   4.346   1.538
 5801TIP3    H138962   0.606   4.337   1.544
 5801TIP3    H238963   0.728   4.367   1.627
 5802TIP3   OH238964   2.552   3.328   1.412
 5802TIP3    H138965   2.591   3.416   1.413
 5802TIP3    H238966   2.625   3.270   1.392
 5803TIP3   OH238967   2.456   6.199   0.612
 5803TIP3    H138968   2.374   6.206   0.660
 5803TIP3    H238969   2.443   6.127   0.550
 5804TIP3   OH238970   3.718   1.863   2.968
 5804TIP3    H138971   3.679   1.944   3.002
 5804TIP3    H238972   3.716   1.873   2.873
 5805TIP3   OH238973   1.878   6.593   8.335
 5805TIP3    H138974   1.886   6.522   8.400
 5805TIP3    H238975   1.944   6.573   8.269
 5806TIP3   OH238976   6.761   6.011   1.950
 5806TIP3    H138977   0.068   6.003   1.905
 5806TIP3    H238978   0.003   5.987   2.041
 5807TIP3   OH238979   5.188   5.585   0.010
 5807TIP3    H138980   5.137   5.507   8.903
 5807TIP3    H238981   5.177   5.642   8.848
 5808TIP3   OH238982   1.447   4.025   1.595
 5808TIP3    H138983   1.500   3.981   1.662
 5808TIP3    H238984   1.357   4.011   1.623
 5809TIP3   OH238985   1.926   3.015   1.735
 5809TIP3    H138986   1.964   3.057   1.813
 5809TIP3    H238987   1.929   2.922   1.755
 5810TIP3   OH238988   2.846   2.652   7.519
 5810TIP3    H138989   2.902   2.611   7.454
 5810TIP3    H238990   2.821   2.581   7.578
 5811TIP3   OH238991   6.756   3.864   6.785
 5811TIP3    H138992   6.696   3.846   6.712
 5811TIP3    H238993   0.067   3.853   6.747
 5812TIP3   OH238994   2.801   5.381   2.780
 5812TIP3    H138995   2.849   5.456   2.815
 5812TIP3    H238996   2.858   5.344   2.713
 5813TIP3   OH238997   4.508   2.865   7.435
 5813TIP3    H138998   4.449   2.874   7.510
 5813TIP3    H238999   4.510   2.771   7.417
 5814TIP3   OH239000   4.619   1.370   7.266
 5814TIP3    H139001   4.679   1.296   7.277
 5814TIP3    H239002   4.676   1.442   7.237
 5815TIP3   OH239003   3.647   2.612   1.638
 5815TIP3    H139004   3.640   2.558   1.559
 5815TIP3    H239005   3.560   2.649   1.649
 5816TIP3   OH239006   6.723   0.423   6.821
 5816TIP3    H139007   6.768   0.385   6.746
 5816TIP3    H239008   6.760   0.512   6.829
 5817TIP3   OH239009   6.620   4.709   8.348
 5817TIP3    H139010   6.578   4.631   8.383
 5817TIP3    H239011   6.575   4.726   8.266
 5818TIP3   OH239012   4.192   3.421   0.345
 5818TIP3    H139013   4.274   3.383   0.376
 5818TIP3    H239014   4.211   3.515   0.337
 5819TIP3   OH239015   6.501   3.057   0.432
 5819TIP3    H139016   6.438   3.105   0.378
 5819TIP3    H239017   6.451   3.026   0.507
 5820TIP3   OH239018   5.080   5.863   8.104
 5820TIP3    H139019   5.056   5.927   8.171
 5820TIP3    H239020   5.022   5.788   8.121
 5821TIP3   OH239021   0.483   1.876   0.900
 5821TIP3    H139022   0.529   1.868   0.817
 5821TIP3    H239023   0.494   1.790   0.942
 5822TIP3   OH239024   4.200   6.381   0.448
 5822TIP3    H139025   4.171   6.335   0.527
 5822TIP3    H239026   4.285   6.343   0.428
 5823TIP3   OH239027   4.746   5.654   8.151
 5823TIP3    H139028   4.742   5.558   8.153
 5823TIP3    H239029   4.838   5.674   8.167
 5824TIP3   OH239030   4.715   4.295   2.042
 5824TIP3    H139031   4.702   4.256   2.128
 5824TIP3    H239032   4.799   4.340   2.049
 5825TIP3   OH239033   6.728   1.777   6.928
 5825TIP3    H139034   6.654   1.826   6.961
 5825TIP3    H239035   6.731   1.698   6.981
 5826TIP3   OH239036   0.293   1.224   6.738
 5826TIP3    H139037   0.384   1.199   6.719
 5826TIP3    H239038   0.259   1.256   6.655
 5827TIP3   OH239039   4.092   6.482   8.585
 5827TIP3    H139040   4.043   6.467   8.666
 5827TIP3    H239041   4.137   6.400   8.568
 5828TIP3   OH239042   2.877   3.965   7.878
 5828TIP3    H139043   2.788   3.998   7.871
 5828TIP3    H239044   2.931   4.044   7.880
 5829TIP3   OH239045   6.425   6.497   1.609
 5829TIP3    H139046   6.373   6.490   1.529
 5829TIP3    H239047   6.512   6.466   1.584
 5830TIP3   OH239048   0.921   6.019   7.196
 5830TIP3    H139049   0.955   5.942   7.242
 5830TIP3    H239050   0.891   6.077   7.266
 5831TIP3   OH239051   1.090   5.114   7.441
 5831TIP3    H139052   1.102   5.074   7.355
 5831TIP3    H239053   1.112   5.206   7.429
 5832TIP3   OH239054   5.001   1.497   7.243
 5832TIP3    H139055   5.041   1.530   7.162
 5832TIP3    H239056   4.992   1.575   7.299
 5833TIP3   OH239057   0.875   3.756   1.210
 5833TIP3    H139058   0.970   3.770   1.212
 5833TIP3    H239059   0.865   3.673   1.164
 5834TIP3   OH239060   3.020   0.663   7.026
 5834TIP3    H139061   3.114   0.683   7.018
 5834TIP3    H239062   3.012   0.620   7.111
 5835TIP3   OH239063   2.033   4.301   7.183
 5835TIP3    H139064   1.943   4.274   7.204
 5835TIP3    H239065   2.059   4.246   7.109
 5836TIP3   OH239066   0.298   0.775   7.112
 5836TIP3    H139067   0.373   0.721   7.136
 5836TIP3    H239068   0.259   0.730   7.037
 5837TIP3   OH239069   2.074   1.223   2.360
 5837TIP3    H139070   2.084   1.262   2.447
 5837TIP3    H239071   2.093   1.295   2.299
 5838TIP3   OH239072   4.265   0.183   6.781
 5838TIP3    H139073   4.222   0.172   6.697
 5838TIP3    H239074   4.352   0.217   6.760
 5839TIP3   OH239075   5.968   1.492   8.468
 5839TIP3    H139076   5.933   1.418   8.518
 5839TIP3    H239077   5.896   1.517   8.410
 5840TIP3   OH239078   1.115   6.602   7.451
 5840TIP3    H139079   1.185   6.585   7.388
 5840TIP3    H239080   1.146   6.678   7.501
 5841TIP3   OH239081   0.825   0.427   0.479
 5841TIP3    H139082   0.831   0.380   0.395
 5841TIP3    H239083   0.873   0.371   0.540
 5842TIP3   OH239084   3.015   2.291   1.031
 5842TIP3    H139085   2.926   2.265   1.057
 5842TIP3    H239086   3.029   2.247   0.947
 5843TIP3   OH239087   0.337   1.187   8.797
 5843TIP3    H139088   0.412   1.193   8.737
 5843TIP3    H239089   0.369   1.135   8.870
 5844TIP3   OH239090   0.023   0.494   8.329
 5844TIP3    H139091   0.061   0.480   8.242
 5844TIP3    H239092   0.069   0.431   8.385
 5845TIP3   OH239093   4.608   1.271   6.899
 5845TIP3    H139094   4.667   1.321   6.955
 5845TIP3    H239095   4.633   1.295   6.810
 5846TIP3   OH239096   3.502   4.667   7.922
 5846TIP3    H139097   3.453   4.730   7.868
 5846TIP3    H239098   3.573   4.638   7.866
 5847TIP3   OH239099   2.818   4.317   7.236
 5847TIP3    H139100   2.814   4.383   7.166
 5847TIP3    H239101   2.775   4.240   7.198
 5848TIP3   OH239102   5.712   0.870   6.893
 5848TIP3    H139103   5.651   0.942   6.911
 5848TIP3    H239104   5.751   0.892   6.808
 5849TIP3   OH239105   3.140   5.040   8.791
 5849TIP3    H139106   3.050   5.060   8.765
 5849TIP3    H239107   3.178   4.999   8.714
 5850TIP3   OH239108   1.823   2.139   8.160
 5850TIP3    H139109   1.893   2.196   8.128
 5850TIP3    H239110   1.808   2.167   8.251
 5851TIP3   OH239111   3.170   4.616   1.630
 5851TIP3    H139112   3.264   4.624   1.614
 5851TIP3    H239113   3.142   4.704   1.654
 5852TIP3   OH239114   2.794   3.074   0.491
 5852TIP3    H139115   2.749   3.035   0.416
 5852TIP3    H239116   2.850   3.142   0.451
 5853TIP3   OH239117   5.710   3.933   8.440
 5853TIP3    H139118   5.784   3.951   8.499
 5853TIP3    H239119   5.715   3.839   8.423
 5854TIP3   OH239120   3.792   2.520   8.237
 5854TIP3    H139121   3.702   2.513   8.268
 5854TIP3    H239122   3.844   2.480   8.307
 5855TIP3   OH239123   3.958   0.548   1.464
 5855TIP3    H139124   3.923   0.512   1.383
 5855TIP3    H239125   3.993   0.634   1.440
 5856TIP3   OH239126   1.590   4.483   6.504
 5856TIP3    H139127   1.519   4.466   6.441
 5856TIP3    H239128   1.641   4.552   6.464
 5857TIP3   OH239129   2.017   6.256   7.936
 5857TIP3    H139130   2.070   6.186   7.899
 5857TIP3    H239131   2.004   6.317   7.864
 5858TIP3   OH239132   1.977   3.612   7.207
 5858TIP3    H139133   1.943   3.683   7.262
 5858TIP3    H239134   2.028   3.558   7.267
 5859TIP3   OH239135   0.146   4.196   0.249
 5859TIP3    H139136   0.078   4.134   0.275
 5859TIP3    H239137   0.216   4.142   0.213
 5860TIP3   OH239138   1.271   1.563   0.076
 5860TIP3    H139139   1.280   1.622   0.001
 5860TIP3    H239140   1.177   1.554   0.088
 5861TIP3   OH239141   0.823   3.040   2.463
 5861TIP3    H139142   0.846   3.098   2.390
 5861TIP3    H239143   0.822   3.097   2.540
 5862TIP3   OH239144   5.209   2.180   7.872
 5862TIP3    H139145   5.172   2.188   7.960
 5862TIP3    H239146   5.304   2.182   7.885
 5863TIP3   OH239147   1.183   5.457   6.991
 5863TIP3    H139148   1.279   5.449   6.996
 5863TIP3    H239149   1.166   5.547   7.019
 5864TIP3   OH239150   1.776   3.966   7.520
 5864TIP3    H139151   1.706   4.014   7.474
 5864TIP3    H239152   1.851   4.024   7.516
 5865TIP3   OH239153   4.283   6.529   7.192
 5865TIP3    H139154   4.375   6.529   7.218
 5865TIP3    H239155   4.270   6.613   7.147
 5866TIP3   OH239156   0.557   0.070   6.914
 5866TIP3    H139157   0.596   0.045   6.999
 5866TIP3    H239158   0.522   0.157   6.929
 5867TIP3   OH239159   3.249   6.660   1.703
 5867TIP3    H139160   3.178   6.720   1.682
 5867TIP3    H239161   3.238   6.587   1.642
 5868TIP3   OH239162   6.233   4.185   8.619
 5868TIP3    H139163   6.307   4.237   8.649
 5868TIP3    H239164   6.161   4.210   8.678
 5869TIP3   OH239165   4.429   1.166   8.249
 5869TIP3    H139166   4.487   1.090   8.246
 5869TIP3    H239167   4.486   1.239   8.273
 5870TIP3   OH239168   6.104   1.932   8.055
 5870TIP3    H139169   6.067   1.932   8.143
 5870TIP3    H239170   6.041   1.882   8.002
 5871TIP3   OH239171   5.792   1.305   0.289
 5871TIP3    H139172   5.801   1.400   0.277
 5871TIP3    H239173   5.863   1.282   0.349
 5872TIP3   OH239174   4.202   5.494   0.952
 5872TIP3    H139175   4.257   5.497   0.874
 5872TIP3    H239176   4.262   5.514   1.024
 5873TIP3   OH239177   6.154   6.463   1.109
 5873TIP3    H139178   6.150   6.405   1.032
 5873TIP3    H239179   6.247   6.465   1.132
 5874TIP3   OH239180   4.050   2.792   7.540
 5874TIP3    H139181   4.056   2.761   7.450
 5874TIP3    H239182   4.024   2.716   7.591
 5875TIP3   OH239183   3.324   4.048   0.601
 5875TIP3    H139184   3.242   4.079   0.562
 5875TIP3    H239185   3.324   4.086   0.689
 5876TIP3   OH239186   4.609   6.284   1.421
 5876TIP3    H139187   4.528   6.265   1.470
 5876TIP3    H239188   4.665   6.329   1.484
 5877TIP3   OH239189   2.119   5.644   7.975
 5877TIP3    H139190   2.189   5.619   7.915
 5877TIP3    H239191   2.159   5.640   8.062
 5878TIP3   OH239192   5.001   5.830   2.123
 5878TIP3    H139193   5.034   5.766   2.186
 5878TIP3    H239194   5.073   5.891   2.110
 5879TIP3   OH239195   3.451   0.647   7.624
 5879TIP3    H139196   3.397   0.603   7.558
 5879TIP3    H239197   3.411   0.625   7.708
 5880TIP3   OH239198   2.192   5.026   7.659
 5880TIP3    H139199   2.275   4.981   7.648
 5880TIP3    H239200   2.138   4.996   7.586
 5881TIP3   OH239201   2.586   1.797   0.470
 5881TIP3    H139202   2.577   1.711   0.510
 5881TIP3    H239203   2.680   1.805   0.453
 5882TIP3   OH239204   4.928   4.805   0.442
 5882TIP3    H139205   5.016   4.768   0.437
 5882TIP3    H239206   4.938   4.894   0.406
 5883TIP3   OH239207   6.225   6.394   8.634
 5883TIP3    H139208   6.217   6.313   8.585
 5883TIP3    H239209   6.147   6.445   8.610
 5884TIP3   OH239210   6.273   2.441   8.409
 5884TIP3    H139211   6.342   2.429   8.344
 5884TIP3    H239212   6.199   2.477   8.360
 5885TIP3   OH239213   5.023   6.154   0.836
 5885TIP3    H139214   4.957   6.091   0.809
 5885TIP3    H239215   5.106   6.113   0.813
 5886TIP3   OH239216   2.364   2.908   0.855
 5886TIP3    H139217   2.381   2.813   0.853
 5886TIP3    H239218   2.439   2.946   0.808
 5887TIP3   OH239219   3.609   1.207   7.585
 5887TIP3    H139220   3.541   1.196   7.519
 5887TIP3    H239221   3.610   1.301   7.603
 5888TIP3   OH239222   0.804   6.603   8.294
 5888TIP3    H139223   0.767   6.587   8.381
 5888TIP3    H239224   0.798   6.698   8.282
 5889TIP3   OH239225   6.477   2.408   7.751
 5889TIP3    H139226   6.456   2.489   7.798
 5889TIP3    H239227   6.465   2.430   7.659
 5890TIP3   OH239228   5.720   1.549   1.633
 5890TIP3    H139229   5.706   1.458   1.607
 5890TIP3    H239230   5.791   1.545   1.697
 5891TIP3   OH239231   2.555   6.378   7.210
 5891TIP3    H139232   2.503   6.347   7.135
 5891TIP3    H239233   2.532   6.471   7.216
 5892TIP3   OH239234   2.268   3.987   0.985
 5892TIP3    H139235   2.223   4.061   0.945
 5892TIP3    H239236   2.201   3.920   0.996
 5893TIP3   OH239237   5.154   3.061   0.169
 5893TIP3    H139238   5.166   3.102   0.083
 5893TIP3    H239239   5.208   2.982   0.165
 5894TIP3   OH239240   3.336   6.191   6.537
 5894TIP3    H139241   3.277   6.186   6.612
 5894TIP3    H239242   3.326   6.106   6.493
 5895TIP3   OH239243   6.699   2.456   8.795
 5895TIP3    H139244   6.674   2.364   8.788
 5895TIP3    H239245   6.692   2.475   8.889
 5896TIP3   OH239246   1.992   1.430   0.274
 5896TIP3    H139247   2.023   1.342   0.254
 5896TIP3    H239248   1.952   1.424   0.360
 5897TIP3   OH239249   5.689   5.441   2.111
 5897TIP3    H139250   5.604   5.449   2.067
 5897TIP3    H239251   5.742   5.389   2.051
 5898TIP3   OH239252   6.083   6.230   1.483
 5898TIP3    H139253   6.077   6.317   1.521
 5898TIP3    H239254   5.992   6.202   1.473
 5899TIP3   OH239255   5.737   3.699   2.302
 5899TIP3    H139256   5.658   3.741   2.336
 5899TIP3    H239257   5.755   3.628   2.365
 5900TIP3   OH239258   4.210   1.522   2.163
 5900TIP3    H139259   4.155   1.474   2.224
 5900TIP3    H239260   4.284   1.465   2.147
 5901TIP3   OH239261   5.894   3.160   7.124
 5901TIP3    H139262   5.974   3.192   7.083
 5901TIP3    H239263   5.837   3.139   7.051
 5902TIP3   OH239264   1.554   0.761   0.002
 5902TIP3    H139265   1.585   0.677   0.034
 5902TIP3    H239266   1.627   0.822   0.018
 5903TIP3   OH239267   6.115   2.207   2.051
 5903TIP3    H139268   6.179   2.182   1.984
 5903TIP3    H239269   6.083   2.123   2.085
 5904TIP3   OH239270   5.755   1.855   7.285
 5904TIP3    H139271   5.803   1.850   7.368
 5904TIP3    H239272   5.720   1.767   7.273
 5905TIP3   OH239273   3.674   3.835   8.046
 5905TIP3    H139274   3.723   3.832   7.963
 5905TIP3    H239275   3.669   3.928   8.067
 5906TIP3   OH239276   1.534   6.559   1.627
 5906TIP3    H139277   1.562   6.633   1.573
 5906TIP3    H239278   1.473   6.597   1.690
 5907TIP3   OH239279   1.523   1.323   0.741
 5907TIP3    H139280   1.439   1.327   0.695
 5907TIP3    H239281   1.582   1.377   0.689
 5908TIP3   OH239282   5.759   4.346   8.034
 5908TIP3    H139283   5.751   4.261   8.077
 5908TIP3    H239284   5.749   4.410   8.104
 5909TIP3   OH239285   5.461   4.176   8.697
 5909TIP3    H139286   5.409   4.171   8.778
 5909TIP3    H239287   5.549   4.199   8.727
 5910TIP3   OH239288   4.933   4.827   8.524
 5910TIP3    H139289   4.860   4.777   8.486
 5910TIP3    H239290   4.970   4.769   8.590
 5911TIP3   OH239291   1.714   0.833   1.237
 5911TIP3    H139292   1.619   0.838   1.226
 5911TIP3    H239293   1.727   0.808   1.328
 5912TIP3   OH239294   3.748   1.718   1.532
 5912TIP3    H139295   3.790   1.635   1.508
 5912TIP3    H239296   3.719   1.755   1.449
 5913TIP3   OH239297   2.775   3.341   0.996
 5913TIP3    H139298   2.817   3.322   0.912
 5913TIP3    H239299   2.775   3.437   1.002
 5914TIP3   OH239300   2.075   5.110   8.609
 5914TIP3    H139301   2.120   5.032   8.640
 5914TIP3    H239302   1.999   5.118   8.667
 5915TIP3   OH239303   2.275   1.249   8.401
 5915TIP3    H139304   2.285   1.253   8.306
 5915TIP3    H239305   2.249   1.159   8.419
 5916TIP3   OH239306   5.299   1.267   8.629
 5916TIP3    H139307   5.217   1.274   8.580
 5916TIP3    H239308   5.274   1.225   8.711
 5917TIP3   OH239309   1.498   5.242   1.097
 5917TIP3    H139310   1.590   5.260   1.118
 5917TIP3    H239311   1.463   5.325   1.065
 5918TIP3   OH239312   4.749   3.109   8.900
 5918TIP3    H139313   4.791   3.076   0.066
 5918TIP3    H239314   4.778   3.200   8.893
 5919TIP3   OH239315   0.031   1.452   8.378
 5919TIP3    H139316   0.033   1.428   8.285
 5919TIP3    H239317   6.723   1.419   8.409
 5920TIP3   OH239318   4.689   2.379   0.159
 5920TIP3    H139319   4.653   2.463   0.186
 5920TIP3    H239320   4.709   2.334   0.241
 5921TIP3   OH239321   0.073   1.512   0.402
 5921TIP3    H139322   0.115   1.591   0.368
 5921TIP3    H239323   0.028   1.473   0.327
 5922TIP3   OH239324   1.103   2.025   7.632
 5922TIP3    H139325   1.042   1.999   7.562
 5922TIP3    H239326   1.160   2.090   7.592
 5923TIP3   OH239327   2.776   5.512   7.516
 5923TIP3    H139328   2.779   5.445   7.448
 5923TIP3    H239329   2.771   5.595   7.468
 5924TIP3   OH239330   3.061   4.171   1.685
 5924TIP3    H139331   3.035   4.204   1.600
 5924TIP3    H239332   3.006   4.094   1.700
 5925TIP3   OH239333   1.105   4.811   8.390
 5925TIP3    H139334   1.135   4.749   8.324
 5925TIP3    H239335   1.128   4.897   8.355
 5926TIP3   OH239336   1.138   3.363   0.750
 5926TIP3    H139337   1.172   3.424   0.814
 5926TIP3    H239338   1.139   3.278   0.794
 5927TIP3   OH239339   2.662   5.855   0.377
 5927TIP3    H139340   2.677   5.762   0.361
 5927TIP3    H239341   2.678   5.897   0.292
 5928TIP3   OH239342   6.181   5.582   8.417
 5928TIP3    H139343   6.140   5.617   8.338
 5928TIP3    H239344   6.247   5.521   8.384
 5929TIP3   OH239345   5.176   5.028   1.025
 5929TIP3    H139346   5.082   5.045   1.020
 5929TIP3    H239347   5.190   5.001   1.116
 5930TIP3   OH239348   4.665   6.595   8.709
 5930TIP3    H139349   4.713   6.512   8.707
 5930TIP3    H239350   4.656   6.619   8.617
 5931TIP3   OH239351   3.755   0.283   1.528
 5931TIP3    H139352   3.848   0.279   1.550
 5931TIP3    H239353   3.735   0.377   1.526
 5932TIP3   OH239354   3.887   5.567   0.616
 5932TIP3    H139355   3.961   5.619   0.649
 5932TIP3    H239356   3.817   5.631   0.602
 5933TIP3   OH239357   2.835   6.501   0.778
 5933TIP3    H139358   2.865   6.589   0.757
 5933TIP3    H239359   2.753   6.491   0.730
 5934TIP3   OH239360   4.089   1.306   0.341
 5934TIP3    H139361   4.174   1.287   0.300
 5934TIP3    H239362   4.108   1.304   0.435
 5935TIP3   OH239363   0.983   0.875   8.525
 5935TIP3    H139364   0.998   0.968   8.542
 5935TIP3    H239365   1.044   0.854   8.455
 5936TIP3   OH239366   1.001   5.717   7.015
 5936TIP3    H139367   0.963   5.710   7.103
 5936TIP3    H239368   1.028   5.809   7.008
 5937TIP3   OH239369   0.210   2.285   8.261
 5937TIP3    H139370   0.171   2.353   8.316
 5937TIP3    H239371   0.294   2.321   8.233
 5938TIP3   OH239372   4.139   1.030   0.377
 5938TIP3    H139373   4.228   1.033   0.341
 5938TIP3    H239374   4.152   1.044   0.471
 5939TIP3   OH239375   4.597   6.324   8.866
 5939TIP3    H139376   4.644   6.284   8.794
 5939TIP3    H239377   4.522   6.367   8.825
 5940TIP3   OH239378   2.006   5.635   7.412
 5940TIP3    H139379   1.928   5.624   7.466
 5940TIP3    H239380   2.006   5.558   7.355
 5941TIP3   OH239381   5.013   1.603   6.959
 5941TIP3    H139382   5.104   1.600   6.931
 5941TIP3    H239383   4.963   1.572   6.883
 5942TIP3   OH239384   6.546   4.038   8.543
 5942TIP3    H139385   6.499   3.970   8.495
 5942TIP3    H239386   6.500   4.045   8.627
 5943TIP3   OH239387   5.666   1.265   8.026
 5943TIP3    H139388   5.623   1.244   7.943
 5943TIP3    H239389   5.733   1.197   8.036
 5944TIP3   OH239390   0.724   4.674   7.024
 5944TIP3    H139391   0.790   4.634   6.968
 5944TIP3    H239392   0.708   4.760   6.984
 5945TIP3   OH239393   3.980   3.305   6.809
 5945TIP3    H139394   3.921   3.230   6.802
 5945TIP3    H239395   3.952   3.350   6.889
 5946TIP3   OH239396   0.365   5.176   6.614
 5946TIP3    H139397   0.454   5.200   6.639
 5946TIP3    H239398   0.312   5.254   6.633
 5947TIP3   OH239399   5.363   3.203   8.021
 5947TIP3    H139400   5.375   3.295   8.043
 5947TIP3    H239401   5.445   3.161   8.046
 5948TIP3   OH239402   0.271   5.998   1.716
 5948TIP3    H139403   0.314   6.081   1.700
 5948TIP3    H239404   0.296   5.975   1.806
 5949TIP3   OH239405   2.471   1.142   6.997
 5949TIP3    H139406   2.535   1.211   7.011
 5949TIP3    H239407   2.520   1.061   7.007
 5950TIP3   OH239408   1.698   4.556   0.095
 5950TIP3    H139409   1.631   4.553   0.162
 5950TIP3    H239410   1.746   4.638   0.112
 5951TIP3   OH239411   3.982   6.168   0.365
 5951TIP3    H139412   3.973   6.177   0.459
 5951TIP3    H239413   3.965   6.075   0.347
 5952TIP3   OH239414   5.669   1.766   7.608
 5952TIP3    H139415   5.642   1.747   7.698
 5952TIP3    H239416   5.589   1.760   7.556
 5953TIP3   OH239417   0.635   3.646   2.015
 5953TIP3    H139418   0.579   3.623   2.089
 5953TIP3    H239419   0.595   3.602   1.940
 5954TIP3   OH239420   2.174   0.991   0.169
 5954TIP3    H139421   2.190   0.910   0.119
 5954TIP3    H239422   2.206   1.061   0.113
 5955TIP3   OH239423   6.587   4.463   8.506
 5955TIP3    H139424   6.514   4.460   8.568
 5955TIP3    H239425   6.645   4.392   8.533
 5956TIP3   OH239426   5.776   4.046   1.864
 5956TIP3    H139427   5.772   3.961   1.908
 5956TIP3    H239428   5.732   4.107   1.923
 5957TIP3   OH239429   1.183   1.839   0.180
 5957TIP3    H139430   1.170   1.855   0.086
 5957TIP3    H239431   1.095   1.828   0.215
 5958TIP3   OH239432   4.407   0.594   1.657
 5958TIP3    H139433   4.430   0.686   1.661
 5958TIP3    H239434   4.488   0.548   1.682
 5959TIP3   OH239435   5.567   0.186   7.146
 5959TIP3    H139436   5.582   0.263   7.201
 5959TIP3    H239437   5.636   0.190   7.079
 5960TIP3   OH239438   1.824   0.224   6.536
 5960TIP3    H139439   1.841   0.221   6.442
 5960TIP3    H239440   1.911   0.236   6.576
 5961TIP3   OH239441   2.675   0.523   7.570
 5961TIP3    H139442   2.746   0.526   7.506
 5961TIP3    H239443   2.696   0.593   7.632
 5962TIP3   OH239444   5.092   3.790   7.816
 5962TIP3    H139445   5.129   3.767   7.731
 5962TIP3    H239446   5.163   3.835   7.862
 5963TIP3   OH239447   6.417   0.955   1.123
 5963TIP3    H139448   6.389   1.020   1.058
 5963TIP3    H239449   6.480   0.900   1.077
 5964TIP3   OH239450   2.599   3.338   8.175
 5964TIP3    H139451   2.671   3.300   8.125
 5964TIP3    H239452   2.623   3.431   8.184
 5965TIP3   OH239453   4.169   0.228   7.423
 5965TIP3    H139454   4.105   0.158   7.437
 5965TIP3    H239455   4.244   0.202   7.476
 5966TIP3   OH239456   2.851   3.272   1.915
 5966TIP3    H139457   2.834   3.366   1.922
 5966TIP3    H239458   2.824   3.249   1.826
 5967TIP3   OH239459   6.551   3.673   8.197
 5967TIP3    H139460   6.461   3.676   8.164
 5967TIP3    H239461   6.605   3.686   8.119
 5968TIP3   OH239462   6.717   5.071   1.057
 5968TIP3    H139463   6.680   5.097   1.142
 5968TIP3    H239464   6.774   4.997   1.077
 5969TIP3   OH239465   2.237   2.781   0.545
 5969TIP3    H139466   2.316   2.796   0.597
 5969TIP3    H239467   2.210   2.868   0.515
 5970TIP3   OH239468   6.555   1.111   7.218
 5970TIP3    H139469   6.517   1.163   7.147
 5970TIP3    H239470   6.624   1.060   7.176
 5971TIP3   OH239471   2.245   1.642   6.913
 5971TIP3    H139472   2.329   1.687   6.910
 5971TIP3    H239473   2.216   1.641   6.822
 5972TIP3   OH239474   1.788   4.685   7.890
 5972TIP3    H139475   1.743   4.607   7.922
 5972TIP3    H239476   1.858   4.700   7.954
 5973TIP3   OH239477   4.100   1.658   0.751
 5973TIP3    H139478   4.116   1.745   0.714
 5973TIP3    H239479   4.063   1.607   0.679
 5974TIP3   OH239480   0.256   5.662   0.273
 5974TIP3    H139481   0.270   5.702   0.358
 5974TIP3    H239482   0.323   5.700   0.217
 5975TIP3   OH239483   0.081   3.344   0.193
 5975TIP3    H139484   0.012   3.325   0.257
 5975TIP3    H239485   0.041   3.325   0.109
 5976TIP3   OH239486   5.108   1.854   6.780
 5976TIP3    H139487   5.167   1.778   6.783
 5976TIP3    H239488   5.137   1.903   6.703
 5977TIP3   OH239489   5.252   3.780   7.565
 5977TIP3    H139490   5.270   3.874   7.559
 5977TIP3    H239491   5.337   3.738   7.551
 5978TIP3   OH239492   4.051   4.477   1.733
 5978TIP3    H139493   4.082   4.568   1.735
 5978TIP3    H239494   4.112   4.430   1.791
 5979TIP3   OH239495   6.770   1.841   0.870
 5979TIP3    H139496   6.683   1.820   0.905
 5979TIP3    H239497   0.006   1.781   0.797
 5980TIP3   OH239498   2.527   5.981   2.728
 5980TIP3    H139499   2.592   5.931   2.776
 5980TIP3    H239500   2.570   6.065   2.710
 5981TIP3   OH239501   3.473   5.929   7.923
 5981TIP3    H139502   3.557   5.897   7.890
 5981TIP3    H239503   3.494   6.012   7.965
 5982TIP3   OH239504   5.743   4.533   0.040
 5982TIP3    H139505   5.756   4.488   0.123
 5982TIP3    H239506   5.674   4.597   0.057
 5983TIP3   OH239507   0.425   1.075   7.916
 5983TIP3    H139508   0.490   1.064   7.846
 5983TIP3    H239509   0.373   0.995   7.914
 5984TIP3   OH239510   1.477   3.757   0.225
 5984TIP3    H139511   1.416   3.788   0.292
 5984TIP3    H239512   1.546   3.713   0.274
 5985TIP3   OH239513   2.184   6.300   2.028
 5985TIP3    H139514   2.224   6.275   2.111
 5985TIP3    H239515   2.249   6.274   1.962
 5986TIP3   OH239516   6.139   4.731   0.860
 5986TIP3    H139517   6.225   4.691   0.872
 5986TIP3    H239518   6.142   4.811   0.913
 5987TIP3   OH239519   5.708   6.662   7.825
 5987TIP3    H139520   5.737   6.753   7.824
 5987TIP3    H239521   5.789   6.611   7.814
 5988TIP3   OH239522   2.107   2.867   8.817
 5988TIP3    H139523   2.152   2.893   8.897
 5988TIP3    H239524   2.115   2.943   8.759
 5989TIP3   OH239525   6.341   5.829   8.820
 5989TIP3    H139526   6.325   5.890   8.892
 5989TIP3    H239527   6.435   5.835   8.803
 5990TIP3   OH239528   3.347   2.667   1.361
 5990TIP3    H139529   3.255   2.658   1.337
 5990TIP3    H239530   3.350   2.745   1.416
 5991TIP3   OH239531   6.061   0.703   2.020
 5991TIP3    H139532   6.133   0.764   2.006
 5991TIP3    H239533   6.093   0.619   1.987
 5992TIP3   OH239534   6.061   1.989   6.948
 5992TIP3    H139535   6.005   1.988   7.025
 5992TIP3    H239536   6.000   1.979   6.874
 5993TIP3   OH239537   3.143   6.431   7.322
 5993TIP3    H139538   3.098   6.466   7.245
 5993TIP3    H239539   3.229   6.473   7.321
 5994TIP3   OH239540   0.322   3.390   1.525
 5994TIP3    H139541   0.304   3.328   1.454
 5994TIP3    H239542   0.379   3.342   1.585
 5995TIP3   OH239543   4.753   5.514   0.242
 5995TIP3    H139544   4.673   5.535   0.193
 5995TIP3    H239545   4.808   5.592   0.232
 5996TIP3   OH239546   3.868   5.379   8.287
 5996TIP3    H139547   3.851   5.470   8.265
 5996TIP3    H239548   3.793   5.352   8.340
 5997TIP3   OH239549   4.138   1.165   2.136
 5997TIP3    H139550   4.190   1.208   2.204
 5997TIP3    H239551   4.141   1.072   2.158
 5998TIP3   OH239552   4.788   1.905   1.598
 5998TIP3    H139553   4.767   1.933   1.687
 5998TIP3    H239554   4.712   1.933   1.545
 5999TIP3   OH239555   5.582   5.592   8.209
 5999TIP3    H139556   5.539   5.508   8.192
 5999TIP3    H239557   5.640   5.604   8.134
 6000TIP3   OH239558   5.725   5.842   0.692
 6000TIP3    H139559   5.734   5.764   0.637
 6000TIP3    H239560   5.633   5.845   0.715
 6001TIP3   OH239561   3.595   0.927   2.379
 6001TIP3    H139562   3.529   0.860   2.394
 6001TIP3    H239563   3.557   1.007   2.415
 6002TIP3   OH239564   0.828   6.718   0.522
 6002TIP3    H139565   0.840   6.759   0.608
 6002TIP3    H239566   0.880   6.638   0.526
 6003TIP3   OH239567   0.797   0.399   7.453
 6003TIP3    H139568   0.759   0.410   7.540
 6003TIP3    H239569   0.808   0.488   7.419
 6004TIP3   OH239570   6.557   1.337   8.437
 6004TIP3    H139571   6.504   1.301   8.366
 6004TIP3    H239572   6.493   1.367   8.502
 6005TIP3   OH239573   6.242   2.067   1.847
 6005TIP3    H139574   6.249   1.981   1.890
 6005TIP3    H239575   6.167   2.059   1.789
 6006TIP3   OH239576   0.230   3.210   1.986
 6006TIP3    H139577   0.188   3.157   2.053
 6006TIP3    H239578   0.243   3.296   2.027
 6007TIP3   OH239579   1.709   1.808   8.766
 6007TIP3    H139580   1.689   1.734   8.708
 6007TIP3    H239581   1.798   1.833   8.742
 6008TIP3   OH239582   2.504   2.523   1.776
 6008TIP3    H139583   2.510   2.614   1.747
 6008TIP3    H239584   2.583   2.509   1.828
 6009TIP3   OH239585   1.743   4.766   8.598
 6009TIP3    H139586   1.800   4.712   8.653
 6009TIP3    H239587   1.690   4.703   8.549
 6010TIP3   OH239588   3.176   0.393   0.988
 6010TIP3    H139589   3.180   0.430   1.076
 6010TIP3    H239590   3.150   0.302   1.002
 6011TIP3   OH239591   1.831   2.546   1.288
 6011TIP3    H139592   1.922   2.576   1.296
 6011TIP3    H239593   1.798   2.546   1.378
 6012TIP3   OH239594   4.988   0.624   0.758
 6012TIP3    H139595   4.959   0.609   0.847
 6012TIP3    H239596   5.073   0.580   0.752
 6013TIP3   OH239597   3.300   2.531   2.516
 6013TIP3    H139598   3.366   2.575   2.462
 6013TIP3    H239599   3.242   2.602   2.545
 6014TIP3   OH239600   2.578   6.205   8.260
 6014TIP3    H139601   2.649   6.229   8.320
 6014TIP3    H239602   2.547   6.120   8.293
 6015TIP3   OH239603   4.101   2.202   0.992
 6015TIP3    H139604   4.087   2.133   0.927
 6015TIP3    H239605   4.154   2.161   1.060
 6016TIP3   OH239606   3.655   0.728   7.456
 6016TIP3    H139607   3.609   0.720   7.373
 6016TIP3    H239608   3.596   0.687   7.520
 6017TIP3   OH239609   1.813   2.693   8.046
 6017TIP3    H139610   1.808   2.782   8.010
 6017TIP3    H239611   1.860   2.643   7.979
 6018TIP3   OH239612   5.938   6.180   7.670
 6018TIP3    H139613   5.953   6.189   7.576
 6018TIP3    H239614   6.025   6.165   7.707
 6019TIP3   OH239615   2.088   0.220   0.935
 6019TIP3    H139616   2.156   0.287   0.941
 6019TIP3    H239617   2.078   0.188   1.025
 6020TIP3   OH239618   6.266   0.499   1.451
 6020TIP3    H139619   6.207   0.431   1.419
 6020TIP3    H239620   6.348   0.453   1.468
 6021TIP3   OH239621   4.907   2.433   1.089
 6021TIP3    H139622   4.830   2.479   1.056
 6021TIP3    H239623   4.875   2.346   1.111
 6022TIP3   OH239624   1.052   0.915   7.664
 6022TIP3    H139625   1.062   0.881   7.575
 6022TIP3    H239626   1.124   0.977   7.675
 6023TIP3   OH239627   6.320   0.055   0.506
 6023TIP3    H139628   6.286   6.751   0.543
 6023TIP3    H239629   6.342   0.033   0.415
 6024TIP3   OH239630   3.723   4.496   8.064
 6024TIP3    H139631   3.788   4.566   8.058
 6024TIP3    H239632   3.647   4.529   8.017
 6025TIP3   OH239633   6.591   1.357   7.048
 6025TIP3    H139634   6.523   1.424   7.054
 6025TIP3    H239635   6.673   1.405   7.067
 6026TIP3   OH239636   3.428   2.869   2.003
 6026TIP3    H139637   3.432   2.958   1.967
 6026TIP3    H239638   3.418   2.881   2.097
 6027TIP3   OH239639   4.014   4.353   1.490
 6027TIP3    H139640   4.004   4.410   1.566
 6027TIP3    H239641   4.032   4.412   1.417
 6028TIP3   OH239642   0.863   0.670   8.647
 6028TIP3    H139643   0.914   0.661   8.728
 6028TIP3    H239644   0.907   0.741   8.599
 6029TIP3   OH239645   3.470   3.135   2.478
 6029TIP3    H139646   3.497   3.221   2.445
 6029TIP3    H239647   3.378   3.128   2.453
 6030TIP3   OH239648   5.636   3.022   0.754
 6030TIP3    H139649   5.630   3.059   0.666
 6030TIP3    H239650   5.684   2.940   0.743
 6031TIP3   OH239651   2.123   0.012   8.497
 6031TIP3    H139652   2.093   6.698   8.509
 6031TIP3    H239653   2.052   0.055   8.451
 6032TIP3   OH239654   5.372   1.119   0.377
 6032TIP3    H139655   5.400   1.047   0.320
 6032TIP3    H239656   5.377   1.082   0.466
 6033TIP3   OH239657   1.917   2.090   1.619
 6033TIP3    H139658   1.992   2.088   1.559
 6033TIP3    H239659   1.851   2.035   1.578
 6034TIP3   OH239660   0.494   5.022   8.469
 6034TIP3    H139661   0.487   5.087   8.399
 6034TIP3    H239662   0.403   5.005   8.495
 6035TIP3   OH239663   1.139   3.025   0.818
 6035TIP3    H139664   1.076   2.960   0.786
 6035TIP3    H239665   1.207   2.973   0.861
 6036TIP3   OH239666   2.539   3.033   7.524
 6036TIP3    H139667   2.566   2.947   7.492
 6036TIP3    H239668   2.494   3.014   7.607
 6037TIP3   OH239669   1.325   3.541   1.463
 6037TIP3    H139670   1.370   3.457   1.453
 6037TIP3    H239671   1.249   3.520   1.517
 6038TIP3   OH239672   0.173   6.550   1.892
 6038TIP3    H139673   0.258   6.592   1.905
 6038TIP3    H239674   0.124   6.570   1.973
 6039TIP3   OH239675   4.027   5.136   1.458
 6039TIP3    H139676   3.940   5.110   1.490
 6039TIP3    H239677   4.073   5.166   1.535
 6040TIP3   OH239678   1.207   4.351   8.450
 6040TIP3    H139679   1.254   4.268   8.454
 6040TIP3    H239680   1.115   4.327   8.459
 6041TIP3   OH239681   5.076   0.788   2.000
 6041TIP3    H139682   5.028   0.859   2.042
 6041TIP3    H239683   5.053   0.795   1.908
 6042TIP3   OH239684   0.174   5.379   1.000
 6042TIP3    H139685   0.261   5.390   0.961
 6042TIP3    H239686   0.143   5.295   0.966
 6043TIP3   OH239687   6.142   6.512   0.324
 6043TIP3    H139688   6.079   6.487   0.392
 6043TIP3    H239689   6.197   6.434   0.312
 6044TIP3   OH239690   1.377   4.863   8.036
 6044TIP3    H139691   1.438   4.932   8.008
 6044TIP3    H239692   1.299   4.877   7.981
 6045TIP3   OH239693   5.134   3.060   7.776
 6045TIP3    H139694   5.127   3.155   7.782
 6045TIP3    H239695   5.054   3.027   7.816
 6046TIP3   OH239696   1.669   3.324   8.459
 6046TIP3    H139697   1.747   3.372   8.434
 6046TIP3    H239698   1.598   3.387   8.452
 6047TIP3   OH239699   3.404   1.642   0.897
 6047TIP3    H139700   3.474   1.595   0.851
 6047TIP3    H239701   3.450   1.706   0.951
 6048TIP3   OH239702   6.237   6.281   7.505
 6048TIP3    H139703   6.281   6.363   7.527
 6048TIP3    H239704   6.146   6.305   7.492
 6049TIP3   OH239705   2.050   6.024   0.619
 6049TIP3    H139706   2.145   6.012   0.614
 6049TIP3    H239707   2.014   5.955   0.563
 6050TIP3   OH239708   1.615   1.999   1.539
 6050TIP3    H139709   1.533   1.948   1.543
 6050TIP3    H239710   1.673   1.946   1.485
 6051TIP3   OH239711   0.156   4.164   7.627
 6051TIP3    H139712   0.226   4.123   7.679
 6051TIP3    H239713   0.202   4.226   7.570
 6052TIP3   OH239714   1.809   2.005   7.674
 6052TIP3    H139715   1.897   1.985   7.641
 6052TIP3    H239716   1.796   2.097   7.652
 6053TIP3   OH239717   2.402   4.111   7.064
 6053TIP3    H139718   2.386   4.138   6.974
 6053TIP3    H239719   2.332   4.048   7.083
 6054TIP3   OH239720   6.041   6.096   0.358
 6054TIP3    H139721   5.991   6.121   0.280
 6054TIP3    H239722   6.119   6.152   0.355
 6055TIP3   OH239723   4.609   5.708   6.986
 6055TIP3    H139724   4.557   5.674   7.058
 6055TIP3    H239725   4.600   5.803   6.992
 6056TIP3   OH239726   2.564   2.060   1.221
 6056TIP3    H139727   2.572   2.027   1.310
 6056TIP3    H239728   2.578   1.984   1.165
 6057TIP3   OH239729   4.718   5.040   7.824
 6057TIP3    H139730   4.701   5.028   7.731
 6057TIP3    H239731   4.639   5.083   7.858
 6058TIP3   OH239732   6.705   0.716   6.807
 6058TIP3    H139733   6.645   0.768   6.753
 6058TIP3    H239734   6.652   0.689   6.882
 6059TIP3   OH239735   1.057   0.740   7.925
 6059TIP3    H139736   1.127   0.805   7.916
 6059TIP3    H239737   1.018   0.758   8.011
 6060TIP3   OH239738   5.418   1.558   0.872
 6060TIP3    H139739   5.376   1.643   0.887
 6060TIP3    H239740   5.511   1.574   0.888
 6061TIP3   OH239741   1.752   3.055   8.206
 6061TIP3    H139742   1.760   3.021   8.117
 6061TIP3    H239743   1.675   3.112   8.203
 6062TIP3   OH239744   6.482   0.957   0.589
 6062TIP3    H139745   6.508   0.888   0.650
 6062TIP3    H239746   6.387   0.958   0.593
 6063TIP3   OH239747   0.443   3.692   8.592
 6063TIP3    H139748   0.349   3.701   8.583
 6063TIP3    H239749   0.455   3.638   8.671
 6064TIP3   OH239750   2.557   4.242   7.265
 6064TIP3    H139751   2.487   4.229   7.201
 6064TIP3    H239752   2.546   4.333   7.295
 6065TIP3   OH239753   4.564   1.770   7.667
 6065TIP3    H139754   4.575   1.737   7.577
 6065TIP3    H239755   4.580   1.693   7.722
 6066TIP3   OH239756   4.169   0.248   0.881
 6066TIP3    H139757   4.244   0.294   0.844
 6066TIP3    H239758   4.112   0.230   0.806
 6067TIP3   OH239759   6.655   5.071   0.645
 6067TIP3    H139760   6.683   5.104   0.731
 6067TIP3    H239761   6.725   5.094   0.585
 6068TIP3   OH239762   6.502   0.136   7.059
 6068TIP3    H139763   6.496   0.168   6.968
 6068TIP3    H239764   6.586   0.089   7.062
 6069TIP3   OH239765   3.280   0.708   7.013
 6069TIP3    H139766   3.348   0.643   6.997
 6069TIP3    H239767   3.300   0.779   6.953
 6070TIP3   OH239768   0.770   2.082   1.603
 6070TIP3    H139769   0.805   1.994   1.592
 6070TIP3    H239770   0.681   2.078   1.568
 6071TIP3   OH239771   0.826   6.439   7.517
 6071TIP3    H139772   0.843   6.423   7.610
 6071TIP3    H239773   0.911   6.461   7.480
 6072TIP3   OH239774   2.276   1.089   0.778
 6072TIP3    H139775   2.269   1.182   0.757
 6072TIP3    H239776   2.223   1.045   0.712
 6073TIP3   OH239777   5.276   6.430   2.398
 6073TIP3    H139778   5.362   6.399   2.372
 6073TIP3    H239779   5.293   6.509   2.450
 6074TIP3   OH239780   2.637   5.083   7.324
 6074TIP3    H139781   2.552   5.115   7.353
 6074TIP3    H239782   2.621   5.051   7.235
 6075TIP3   OH239783   2.701   4.431   8.268
 6075TIP3    H139784   2.696   4.481   8.186
 6075TIP3    H239785   2.721   4.497   8.335
 6076TIP3   OH239786   0.238   2.185   2.078
 6076TIP3    H139787   0.242   2.093   2.054
 6076TIP3    H239788   0.329   2.212   2.087
 6077TIP3   OH239789   6.349   5.400   8.299
 6077TIP3    H139790   6.303   5.320   8.325
 6077TIP3    H239791   6.424   5.405   8.358
 6078TIP3   OH239792   5.792   3.981   0.345
 6078TIP3    H139793   5.748   4.052   0.391
 6078TIP3    H239794   5.722   3.919   0.323
 6079TIP3   OH239795   0.173   2.901   1.439
 6079TIP3    H139796   0.106   2.924   1.375
 6079TIP3    H239797   0.159   2.808   1.457
 6080TIP3   OH239798   2.129   3.776   0.191
 6080TIP3    H139799   2.085   3.850   0.233
 6080TIP3    H239800   2.073   3.754   0.117
 6081TIP3   OH239801   2.121   4.250   2.076
 6081TIP3    H139802   2.216   4.243   2.065
 6081TIP3    H239803   2.111   4.304   2.154
 6082TIP3   OH239804   4.697   4.287   1.766
 6082TIP3    H139805   4.669   4.257   1.853
 6082TIP3    H239806   4.713   4.380   1.777
 6083TIP3   OH239807   5.202   6.101   8.555
 6083TIP3    H139808   5.254   6.068   8.628
 6083TIP3    H239809   5.169   6.186   8.585
 6084TIP3   OH239810   4.307   6.360   1.217
 6084TIP3    H139811   4.366   6.348   1.143
 6084TIP3    H239812   4.289   6.271   1.249
 6085TIP3   OH239813   0.360   5.748   0.810
 6085TIP3    H139814   0.417   5.722   0.882
 6085TIP3    H239815   0.277   5.771   0.852
 6086TIP3   OH239816   5.332   5.038   1.803
 6086TIP3    H139817   5.402   5.007   1.746
 6086TIP3    H239818   5.377   5.080   1.876
 6087TIP3   OH239819   1.082   0.075   0.214
 6087TIP3    H139820   1.125   0.098   0.297
 6087TIP3    H239821   1.056   6.761   0.224
 6088TIP3   OH239822   0.169   3.438   8.377
 6088TIP3    H139823   0.158   3.481   8.292
 6088TIP3    H239824   0.260   3.411   8.379
 6089TIP3   OH239825   5.990   1.632   1.469
 6089TIP3    H139826   6.044   1.667   1.539
 6089TIP3    H239827   6.038   1.653   1.389
 6090TIP3   OH239828   3.655   0.447   0.439
 6090TIP3    H139829   3.647   0.511   0.369
 6090TIP3    H239830   3.687   0.497   0.514
 6091TIP3   OH239831   6.101   0.183   0.675
 6091TIP3    H139832   6.022   0.173   0.621
 6091TIP3    H239833   6.166   0.126   0.632
 6092TIP3   OH239834   6.515   3.506   0.138
 6092TIP3    H139835   6.423   3.500   0.163
 6092TIP3    H239836   6.517   3.566   0.064
 6093TIP3   OH239837   0.189   4.692   1.337
 6093TIP3    H139838   0.271   4.657   1.301
 6093TIP3    H239839   0.122   4.628   1.312
 6094TIP3   OH239840   2.671   4.964   7.066
 6094TIP3    H139841   2.638   4.889   7.115
 6094TIP3    H239842   2.620   4.963   6.985
 6095TIP3   OH239843   0.407   3.745   7.515
 6095TIP3    H139844   0.501   3.767   7.514
 6095TIP3    H239845   0.392   3.703   7.430
 6096TIP3   OH239846   2.931   1.140   1.183
 6096TIP3    H139847   2.851   1.125   1.234
 6096TIP3    H239848   2.990   1.069   1.208
 6097TIP3   OH239849   3.161   2.310   0.286
 6097TIP3    H139850   3.131   2.357   0.209
 6097TIP3    H239851   3.083   2.302   0.341
 6098TIP3   OH239852   3.430   3.398   0.311
 6098TIP3    H139853   3.352   3.414   0.258
 6098TIP3    H239854   3.438   3.302   0.312
 6099TIP3   OH239855   5.234   5.402   7.982
 6099TIP3    H139856   5.172   5.456   8.031
 6099TIP3    H239857   5.220   5.425   7.891
 6100TIP3   OH239858   6.403   0.812   7.817
 6100TIP3    H139859   6.401   0.743   7.751
 6100TIP3    H239860   6.379   0.769   7.899
 6101TIP3   OH239861   4.547   1.480   8.319
 6101TIP3    H139862   4.463   1.519   8.345
 6101TIP3    H239863   4.613   1.542   8.348
 6102TIP3   OH239864   1.741   1.930   6.283
 6102TIP3    H139865   1.830   1.900   6.262
 6102TIP3    H239866   1.686   1.853   6.272
 6103TIP3   OH239867   0.669   1.817   0.336
 6103TIP3    H139868   0.694   1.817   0.244
 6103TIP3    H239869   0.640   1.907   0.353
 6104TIP3   OH239870   0.149   1.959   7.909
 6104TIP3    H139871   0.145   2.038   7.963
 6104TIP3    H239872   0.215   1.904   7.952
 6105TIP3   OH239873   1.694   3.753   6.909
 6105TIP3    H139874   1.604   3.731   6.885
 6105TIP3    H239875   1.686   3.810   6.986
 6106TIP3   OH239876   3.585   3.753   0.121
 6106TIP3    H139877   3.545   3.833   0.155
 6106TIP3    H239878   3.650   3.784   0.057
 6107TIP3   OH239879   2.373   6.161   1.281
 6107TIP3    H139880   2.354   6.208   1.361
 6107TIP3    H239881   2.377   6.069   1.307
 6108TIP3   OH239882   5.824   6.553   7.041
 6108TIP3    H139883   5.807   6.476   6.986
 6108TIP3    H239884   5.858   6.619   6.981
 6109TIP3   OH239885   6.169   4.764   7.878
 6109TIP3    H139886   6.216   4.686   7.908
 6109TIP3    H239887   6.081   4.755   7.915
 6110TIP3   OH239888   0.141   2.216   1.829
 6110TIP3    H139889   0.137   2.204   1.924
 6110TIP3    H239890   0.234   2.203   1.808
 6111TIP3   OH239891   5.258   6.159   1.607
 6111TIP3    H139892   5.326   6.164   1.540
 6111TIP3    H239893   5.278   6.079   1.655
 6112TIP3   OH239894   3.151   0.515   1.262
 6112TIP3    H139895   3.229   0.500   1.315
 6112TIP3    H239896   3.120   0.601   1.289
 6113TIP3   OH239897   2.274   3.291   1.338
 6113TIP3    H139898   2.242   3.207   1.372
 6113TIP3    H239899   2.364   3.296   1.370
 6114TIP3   OH239900   2.405   4.717   8.708
 6114TIP3    H139901   2.309   4.721   8.707
 6114TIP3    H239902   2.429   4.741   8.798
 6115TIP3   OH239903   4.231   6.611   1.123
 6115TIP3    H139904   4.250   6.524   1.157
 6115TIP3    H239905   4.233   6.601   1.028
 6116TIP3   OH239906   0.824   4.707   1.575
 6116TIP3    H139907   0.808   4.692   1.668
 6116TIP3    H239908   0.886   4.638   1.550
 6117TIP3   OH239909   4.084   2.235   6.688
 6117TIP3    H139910   4.004   2.277   6.720
 6117TIP3    H239911   4.078   2.145   6.718
 6118TIP3   OH239912   5.352   5.740   0.141
 6118TIP3    H139913   5.291   5.764   0.211
 6118TIP3    H239914   5.302   5.682   0.084
 6119TIP3   OH239915   6.651   2.730   8.818
 6119TIP3    H139916   6.584   2.773   8.870
 6119TIP3    H239917   6.623   2.638   8.813
 6120TIP3   OH239918   3.579   5.113   8.122
 6120TIP3    H139919   3.619   5.138   8.206
 6120TIP3    H239920   3.585   5.193   8.069
 6121TIP3   OH239921   5.253   3.856   1.083
 6121TIP3    H139922   5.202   3.786   1.124
 6121TIP3    H239923   5.254   3.833   0.990
 6122TIP3   OH239924   0.473   0.411   5.993
 6122TIP3    H139925   0.388   0.448   6.017
 6122TIP3    H239926   0.534   0.484   5.999
 6123TIP3   OH239927   6.670   1.335   0.214
 6123TIP3    H139928   6.689   1.395   0.141
 6123TIP3    H239929   6.731   1.262   0.201
 6124TIP3   OH239930   1.514   4.443   7.434
 6124TIP3    H139931   1.420   4.453   7.414
 6124TIP3    H239932   1.525   4.482   7.520
 6125TIP3   OH239933   3.908   2.780   6.683
 6125TIP3    H139934   3.870   2.754   6.600
 6125TIP3    H239935   3.838   2.826   6.729
 6126TIP3   OH239936   0.585   0.569   8.727
 6126TIP3    H139937   0.561   0.477   8.729
 6126TIP3    H239938   0.650   0.576   8.657
 6127TIP3   OH239939   6.292   0.206   6.568
 6127TIP3    H139940   6.287   0.140   6.499
 6127TIP3    H239941   6.357   0.269   6.536
 6128TIP3   OH239942   2.071   1.792   0.244
 6128TIP3    H139943   2.105   1.871   0.201
 6128TIP3    H239944   2.029   1.825   0.323
 6129TIP3   OH239945   2.741   6.535   8.869
 6129TIP3    H139946   2.692   6.511   0.034
 6129TIP3    H239947   2.684   6.598   8.824
 6130TIP3   OH239948   4.956   6.670   6.704
 6130TIP3    H139949   5.034   6.710   6.664
 6130TIP3    H239950   4.922   6.611   6.636
 6131TIP3   OH239951   0.891   0.286   7.943
 6131TIP3    H139952   0.956   0.338   7.991
 6131TIP3    H239953   0.907   0.307   7.851
 6132TIP3   OH239954   3.377   3.843   0.984
 6132TIP3    H139955   3.358   3.936   0.995
 6132TIP3    H239956   3.354   3.825   0.893
 6133TIP3   OH239957   0.077   3.639   0.547
 6133TIP3    H139958   0.065   3.560   0.599
 6133TIP3    H239959   0.105   3.608   0.461
 6134TIP3   OH239960   6.722   6.490   1.727
 6134TIP3    H139961   6.688   6.413   1.772
 6134TIP3    H239962   0.023   6.514   1.777
 6135TIP3   OH239963   6.179   3.388   0.968
 6135TIP3    H139964   6.161   3.297   0.991
 6135TIP3    H239965   6.118   3.439   1.021
 6136TIP3   OH239966   3.887   1.066   0.237
 6136TIP3    H139967   3.819   1.122   0.274
 6136TIP3    H239968   3.964   1.081   0.291
 6137TIP3   OH239969   6.425   6.617   0.346
 6137TIP3    H139970   6.427   6.549   0.413
 6137TIP3    H239971   6.347   6.598   0.294
 6138TIP3   OH239972   4.287   5.767   1.440
 6138TIP3    H139973   4.193   5.762   1.459
 6138TIP3    H239974   4.296   5.846   1.387
 6139TIP3   OH239975   3.789   0.046   0.029
 6139TIP3    H139976   3.719   0.103   8.910
 6139TIP3    H239977   3.854   0.045   8.873
 6140TIP3   OH239978   2.068   2.131   7.474
 6140TIP3    H139979   2.125   2.183   7.418
 6140TIP3    H239980   1.982   2.173   7.466
 6141TIP3   OH239981   3.534   3.317   0.650
 6141TIP3    H139982   3.582   3.386   0.696
 6141TIP3    H239983   3.442   3.342   0.658
 6142TIP3   OH239984   2.348   3.864   7.668
 6142TIP3    H139985   2.405   3.852   7.592
 6142TIP3    H239986   2.260   3.843   7.635
 6143TIP3   OH239987   2.123   4.458   2.343
 6143TIP3    H139988   2.147   4.533   2.398
 6143TIP3    H239989   2.164   4.383   2.386
 6144TIP3   OH239990   3.491   2.546   7.391
 6144TIP3    H139991   3.472   2.477   7.455
 6144TIP3    H239992   3.523   2.500   7.314
 6145TIP3   OH239993   3.387   5.236   0.311
 6145TIP3    H139994   3.479   5.220   0.330
 6145TIP3    H239995   3.360   5.303   0.374
 6146TIP3   OH239996   2.266   1.142   7.185
 6146TIP3    H139997   2.327   1.116   7.116
 6146TIP3    H239998   2.310   1.117   7.267
 6147TIP3   OH239999   2.260   5.536   0.176
 6147TIP3    H140000   2.302   5.482   0.109
 6147TIP3    H240001   2.175   5.558   0.139
 6148TIP3   OH240002   4.661   5.443   7.856
 6148TIP3    H140003   4.578   5.396   7.846
 6148TIP3    H240004   4.684   5.430   7.948
 6149TIP3   OH240005   4.938   0.004   1.275
 6149TIP3    H140006   4.887   6.735   1.208
 6149TIP3    H240007   5.010   6.722   1.296
 6150TIP3   OH240008   1.518   1.169   7.585
 6150TIP3    H140009   1.548   1.220   7.660
 6150TIP3    H240010   1.459   1.228   7.538
 6151TIP3   OH240011   1.958   6.256   0.525
 6151TIP3    H140012   1.893   6.252   0.596
 6151TIP3    H240013   2.018   6.184   0.544
 6152TIP3   OH240014   1.633   1.555   1.406
 6152TIP3    H140015   1.631   1.630   1.346
 6152TIP3    H240016   1.673   1.485   1.356
 6153TIP3   OH240017   0.773   2.451   8.310
 6153TIP3    H140018   0.803   2.365   8.340
 6153TIP3    H240019   0.718   2.483   8.381
 6154TIP3   OH240020   2.669   2.351   8.266
 6154TIP3    H140021   2.705   2.408   8.334
 6154TIP3    H240022   2.603   2.299   8.311
 6155TIP3   OH240023   1.066   3.729   0.531
 6155TIP3    H140024   1.006   3.716   0.604
 6155TIP3    H240025   1.149   3.692   0.561
 6156TIP3   OH240026   1.736   6.217   0.681
 6156TIP3    H140027   1.726   6.169   0.600
 6156TIP3    H240028   1.672   6.179   0.741
 6157TIP3   OH240029   1.930   3.659   0.474
 6157TIP3    H140030   2.007   3.617   0.512
 6157TIP3    H240031   1.930   3.630   0.383
 6158TIP3   OH240032   3.476   1.590   1.895
 6158TIP3    H140033   3.556   1.537   1.900
 6158TIP3    H240034   3.434   1.577   1.980
 6159TIP3   OH240035   0.290   1.964   0.277
 6159TIP3    H140036   0.353   1.993   0.343
 6159TIP3    H240037   0.227   2.035   0.271
 6160TIP3   OH240038   3.167   5.732   8.418
 6160TIP3    H140039   3.073   5.749   8.412
 6160TIP3    H240040   3.190   5.699   8.331
 6161TIP3   OH240041   4.321   6.064   7.637
 6161TIP3    H140042   4.334   6.088   7.545
 6161TIP3    H240043   4.265   5.987   7.634
 6162TIP3   OH240044   5.365   1.926   0.511
 6162TIP3    H140045   5.319   2.009   0.528
 6162TIP3    H240046   5.296   1.860   0.516
 6163TIP3   OH240047   3.335   1.812   1.227
 6163TIP3    H140048   3.297   1.727   1.205
 6163TIP3    H240049   3.336   1.861   1.145
 6164TIP3   OH240050   3.186   3.504   0.839
 6164TIP3    H140051   3.186   3.600   0.850
 6164TIP3    H240052   3.105   3.485   0.793
 6165TIP3   OH240053   1.485   5.256   6.609
 6165TIP3    H140054   1.458   5.212   6.689
 6165TIP3    H240055   1.486   5.186   6.543
 6166TIP3   OH240056   2.487   1.394   8.465
 6166TIP3    H140057   2.563   1.340   8.443
 6166TIP3    H240058   2.412   1.336   8.453
 6167TIP3   OH240059   5.522   4.681   0.478
 6167TIP3    H140060   5.487   4.755   0.526
 6167TIP3    H240061   5.610   4.669   0.514
 6168TIP3   OH240062   4.426   3.903   0.471
 6168TIP3    H140063   4.398   3.813   0.489
 6168TIP3    H240064   4.461   3.934   0.554
 6169TIP3   OH240065   4.608   5.543   0.495
 6169TIP3    H140066   4.555   5.464   0.486
 6169TIP3    H240067   4.667   5.541   0.420
 6170TIP3   OH240068   0.487   2.158   1.576
 6170TIP3    H140069   0.414   2.105   1.546
 6170TIP3    H240070   0.517   2.204   1.497
 6171TIP3   OH240071   1.615   1.608   8.615
 6171TIP3    H140072   1.547   1.619   8.549
 6171TIP3    H240073   1.696   1.601   8.564
 6172TIP3   OH240074   6.145   4.912   6.479
 6172TIP3    H140075   6.076   4.937   6.540
 6172TIP3    H240076   6.192   4.842   6.523
 6173TIP3   OH240077   0.939   0.131   7.165
 6173TIP3    H140078   0.936   0.092   7.253
 6173TIP3    H240079   0.969   0.059   7.108
 6174TIP3   OH240080   3.320   4.135   0.873
 6174TIP3    H140081   3.247   4.196   0.882
 6174TIP3    H240082   3.384   4.165   0.937
 6175TIP3   OH240083   2.002   4.663   0.448
 6175TIP3    H140084   2.056   4.613   0.509
 6175TIP3    H240085   2.061   4.684   0.375
 6176TIP3   OH240086   5.793   3.137   0.352
 6176TIP3    H140087   5.811   3.045   0.335
 6176TIP3    H240088   5.704   3.151   0.318
 6177TIP3   OH240089   3.076   6.393   1.818
 6177TIP3    H140090   3.036   6.473   1.852
 6177TIP3    H240091   3.088   6.338   1.895
 6178TIP3   OH240092   0.029   4.494   6.615
 6178TIP3    H140093   0.107   4.471   6.565
 6178TIP3    H240094   6.748   4.537   6.551
 6179TIP3   OH240095   5.308   0.040   1.783
 6179TIP3    H140096   5.380   0.050   1.722
 6179TIP3    H240097   5.350   0.022   1.867
 6180TIP3   OH240098   5.089   5.383   1.355
 6180TIP3    H140099   5.020   5.389   1.421
 6180TIP3    H240100   5.045   5.352   1.276
 6181TIP3   OH240101   0.442   1.534   0.133
 6181TIP3    H140102   0.372   1.474   0.109
 6181TIP3    H240103   0.423   1.614   0.084
 6182TIP3   OH240104   1.911   2.382   1.594
 6182TIP3    H140105   2.004   2.390   1.613
 6182TIP3    H240106   1.886   2.298   1.634
 6183TIP3   OH240107   3.456   4.329   7.192
 6183TIP3    H140108   3.445   4.420   7.218
 6183TIP3    H240109   3.375   4.306   7.146
 6184TIP3   OH240110   2.378   5.377   1.220
 6184TIP3    H140111   2.305   5.340   1.170
 6184TIP3    H240112   2.406   5.307   1.279
 6185TIP3   OH240113   3.951   6.066   1.599
 6185TIP3    H140114   3.904   6.148   1.614
 6185TIP3    H240115   3.892   5.998   1.634
 6186TIP3   OH240116   4.903   1.621   1.114
 6186TIP3    H140117   4.971   1.615   1.180
 6186TIP3    H240118   4.932   1.564   1.043
 6187TIP3   OH240119   5.800   3.059   1.099
 6187TIP3    H140120   5.758   2.979   1.070
 6187TIP3    H240121   5.736   3.099   1.159
 6188TIP3   OH240122   5.464   4.172   0.843
 6188TIP3    H140123   5.439   4.263   0.859
 6188TIP3    H240124   5.455   4.161   0.748
 6189TIP3   OH240125   5.795   0.760   2.145
 6189TIP3    H140126   5.887   0.736   2.131
 6189TIP3    H240127   5.791   0.787   2.237
 6190TIP3   OH240128   3.794   4.637   1.388
 6190TIP3    H140129   3.735   4.675   1.324
 6190TIP3    H240130   3.737   4.603   1.457
 6191TIP3   OH240131   2.927   5.921   6.979
 6191TIP3    H140132   2.945   5.933   6.886
 6191TIP3    H240133   2.952   6.005   7.019
 6192TIP3   OH240134   5.095   6.305   7.696
 6192TIP3    H140135   5.111   6.258   7.614
 6192TIP3    H240136   5.151   6.382   7.692
 6193TIP3   OH240137   2.483   4.043   6.614
 6193TIP3    H140138   2.457   4.060   6.523
 6193TIP3    H240139   2.553   3.977   6.607
 6194TIP3   OH240140   2.258   1.917   6.619
 6194TIP3    H140141   2.341   1.868   6.619
 6194TIP3    H240142   2.279   1.998   6.665
 6195TIP3   OH240143   3.015   3.886   2.218
 6195TIP3    H140144   2.999   3.832   2.296
 6195TIP3    H240145   2.981   3.833   2.145
 6196TIP3   OH240146   6.672   1.904   8.766
 6196TIP3    H140147   6.744   1.849   8.736
 6196TIP3    H240148   6.593   1.851   8.751
 6197TIP3   OH240149   2.463   0.433   5.895
 6197TIP3    H140150   2.418   0.348   5.894
 6197TIP3    H240151   2.393   0.497   5.885
 6198TIP3   OH240152   5.423   5.935   7.115
 6198TIP3    H140153   5.459   5.874   7.179
 6198TIP3    H240154   5.335   5.955   7.148
 6199TIP3   OH240155   4.072   6.145   1.353
 6199TIP3    H140156   4.139   6.093   1.308
 6199TIP3    H240157   4.060   6.101   1.437
 6200TIP3   OH240158   4.245   3.868   8.416
 6200TIP3    H140159   4.323   3.899   8.463
 6200TIP3    H240160   4.274   3.855   8.326
 6201TIP3   OH240161   6.080   2.608   1.467
 6201TIP3    H140162   6.055   2.527   1.510
 6201TIP3    H240163   6.165   2.631   1.506
 6202TIP3   OH240164   3.533   0.853   1.355
 6202TIP3    H140165   3.584   0.915   1.408
 6202TIP3    H240166   3.585   0.841   1.276
 6203TIP3   OH240167   5.826   2.330   6.707
 6203TIP3    H140168   5.774   2.352   6.629
 6203TIP3    H240169   5.761   2.301   6.771
 6204TIP3   OH240170   0.274   3.320   7.209
 6204TIP3    H140171   0.222   3.378   7.153
 6204TIP3    H240172   0.248   3.232   7.182
 6205TIP3   OH240173   0.195   5.181   7.778
 6205TIP3    H140174   0.257   5.232   7.725
 6205TIP3    H240175   0.153   5.122   7.716
 6206TIP3   OH240176   6.040   6.743   0.252
 6206TIP3    H140177   6.063   6.651   0.264
 6206TIP3    H240178   6.124   0.013   0.262
 6207TIP3   OH240179   5.352   1.396   1.451
 6207TIP3    H140180   5.423   1.442   1.497
 6207TIP3    H240181   5.340   1.447   1.370
 6208TIP3   OH240182   5.532   1.095   7.328
 6208TIP3    H140183   5.451   1.054   7.297
 6208TIP3    H240184   5.512   1.188   7.331
 6209TIP3   OH240185   4.906   2.774   7.511
 6209TIP3    H140186   4.826   2.734   7.545
 6209TIP3    H240187   4.879   2.861   7.482
 6210TIP3   OH240188   0.955   6.240   6.794
 6210TIP3    H140189   1.003   6.158   6.798
 6210TIP3    H240190   0.985   6.282   6.713
 6211TIP3   OH240191   2.186   4.396   8.632
 6211TIP3    H140192   2.149   4.312   8.606
 6211TIP3    H240193   2.196   4.444   8.550
 6212TIP3   OH240194   5.782   6.706   8.380
 6212TIP3    H140195   5.776   6.616   8.412
 6212TIP3    H240196   5.875   6.717   8.358
 6213TIP3   OH240197   3.351   4.294   1.538
 6213TIP3    H140198   3.437   4.311   1.577
 6213TIP3    H240199   3.367   4.229   1.470
 6214TIP3   OH240200   1.017   3.914   1.932
 6214TIP3    H140201   1.020   3.844   1.997
 6214TIP3    H240202   0.924   3.927   1.915
 6215TIP3   OH240203   1.651   1.279   8.125
 6215TIP3    H140204   1.597   1.300   8.201
 6215TIP3    H240205   1.692   1.361   8.100
 6216TIP3   OH240206   4.387   0.354   7.572
 6216TIP3    H140207   4.432   0.438   7.565
 6216TIP3    H240208   4.423   0.302   7.500
 6217TIP3   OH240209   0.765   5.161   7.344
 6217TIP3    H140210   0.842   5.169   7.288
 6217TIP3    H240211   0.741   5.069   7.339
 6218TIP3   OH240212   6.765   5.979   7.431
 6218TIP3    H140213   6.756   5.890   7.396
 6218TIP3    H240214   6.734   5.973   7.521
 6219TIP3   OH240215   4.924   5.936   1.222
 6219TIP3    H140216   4.860   6.007   1.219
 6219TIP3    H240217   4.997   5.971   1.272
 6220TIP3   OH240218   2.619   4.609   2.061
 6220TIP3    H140219   2.581   4.523   2.047
 6220TIP3    H240220   2.544   4.667   2.074
 6221TIP3   OH240221   3.807   1.867   8.857
 6221TIP3    H140222   3.854   1.855   8.774
 6221TIP3    H240223   3.861   1.928   8.906
 6222TIP3   OH240224   4.177   1.721   0.432
 6222TIP3    H140225   4.168   1.800   0.484
 6222TIP3    H240226   4.110   1.662   0.467
 6223TIP3   OH240227   5.574   1.221   1.075
 6223TIP3    H140228   5.659   1.198   1.037
 6223TIP3    H240229   5.585   1.309   1.109
 6224TIP3   OH240230   3.782   2.809   0.552
 6224TIP3    H140231   3.787   2.771   0.639
 6224TIP3    H240232   3.831   2.891   0.559
 6225TIP3   OH240233   6.644   0.295   0.693
 6225TIP3    H140234   6.681   0.346   0.764
 6225TIP3    H240235   6.674   0.339   0.613
 6226TIP3   OH240236   3.562   5.381   2.272
 6226TIP3    H140237   3.523   5.443   2.335
 6226TIP3    H240238   3.585   5.436   2.197
 6227TIP3   OH240239   5.030   1.042   1.761
 6227TIP3    H140240   5.009   1.086   1.843
 6227TIP3    H240241   5.099   1.096   1.721
 6228TIP3   OH240242   6.272   2.909   1.735
 6228TIP3    H140243   6.358   2.949   1.720
 6228TIP3    H240244   6.216   2.946   1.668
 6229TIP3   OH240245   2.078   1.250   7.336
 6229TIP3    H140246   2.001   1.218   7.384
 6229TIP3    H240247   2.119   1.171   7.301
 6230TIP3   OH240248   6.383   6.281   0.646
 6230TIP3    H140249   6.444   6.241   0.708
 6230TIP3    H240250   6.439   6.320   0.579
 6231TIP3   OH240251   1.969   3.253   7.684
 6231TIP3    H140252   1.956   3.296   7.769
 6231TIP3    H240253   1.900   3.290   7.629
 6232TIP3   OH240254   0.345   0.693   8.326
 6232TIP3    H140255   0.427   0.651   8.352
 6232TIP3    H240256   0.309   0.728   8.408
 6233TIP3   OH240257   2.739   4.651   8.405
 6233TIP3    H140258   2.717   4.739   8.375
 6233TIP3    H240259   2.802   4.664   8.476
 6234TIP3   OH240260   4.968   4.172   8.832
 6234TIP3    H140261   4.881   4.147   8.861
 6234TIP3    H240262   4.975   4.138   8.743
 6235TIP3   OH240263   3.460   0.227   7.634
 6235TIP3    H140264   3.479   0.134   7.639
 6235TIP3    H240265   3.371   0.236   7.668
 6236TIP3   OH240266   5.481   3.830   0.535
 6236TIP3    H140267   5.386   3.838   0.534
 6236TIP3    H240268   5.513   3.912   0.497
 6237TIP3   OH240269   3.257   3.306   0.669
 6237TIP3    H140270   3.213   3.332   0.588
 6237TIP3    H240271   3.240   3.378   0.730
 6238TIP3   OH240272   6.466   4.182   7.191
 6238TIP3    H140273   6.400   4.248   7.169
 6238TIP3    H240274   6.540   4.233   7.225
 6239TIP3   OH240275   6.454   1.832   6.995
 6239TIP3    H140276   6.418   1.846   6.907
 6239TIP3    H240277   6.415   1.902   7.048
 6240TIP3   OH240278   3.105   4.356   7.572
 6240TIP3    H140279   3.116   4.311   7.488
 6240TIP3    H240280   3.122   4.448   7.552
 6241TIP3   OH240281   3.195   3.828   0.060
 6241TIP3    H140282   3.133   3.901   0.048
 6241TIP3    H240283   3.148   3.751   0.029
 6242TIP3   OH240284   5.829   2.236   2.141
 6242TIP3    H140285   5.760   2.216   2.077
 6242TIP3    H240286   5.783   2.243   2.225
 6243TIP3   OH240287   3.682   4.183   6.931
 6243TIP3    H140288   3.760   4.226   6.897
 6243TIP3    H240289   3.679   4.207   7.023
 6244TIP3   OH240290   4.298   2.839   7.627
 6244TIP3    H140291   4.210   2.820   7.594
 6244TIP3    H240292   4.284   2.898   7.701
 6245TIP3   OH240293   4.529   1.226   0.602
 6245TIP3    H140294   4.621   1.252   0.614
 6245TIP3    H240295   4.534   1.143   0.555
 6246TIP3   OH240296   0.675   5.569   7.252
 6246TIP3    H140297   0.696   5.476   7.252
 6246TIP3    H240298   0.588   5.575   7.214
 6247TIP3   OH240299   3.811   1.305   7.398
 6247TIP3    H140300   3.825   1.242   7.469
 6247TIP3    H240301   3.730   1.350   7.422
 6248TIP3   OH240302   0.819   4.428   0.405
 6248TIP3    H140303   0.891   4.367   0.418
 6248TIP3    H240304   0.744   4.386   0.449
 6249TIP3   OH240305   4.008   6.665   1.271
 6249TIP3    H140306   4.080   6.642   1.212
 6249TIP3    H240307   4.034   6.629   1.356
 6250TIP3   OH240308   4.042   4.294   7.744
 6250TIP3    H140309   3.950   4.303   7.768
 6250TIP3    H240310   4.049   4.337   7.659
 6251TIP3   OH240311   5.820   5.821   7.466
 6251TIP3    H140312   5.782   5.888   7.409
 6251TIP3    H240313   5.779   5.836   7.551
 6252TIP3   OH240314   0.163   3.747   7.045
 6252TIP3    H140315   0.251   3.709   7.040
 6252TIP3    H240316   0.175   3.839   7.023
 6253TIP3   OH240317   2.134   5.208   0.387
 6253TIP3    H140318   2.053   5.231   0.342
 6253TIP3    H240319   2.149   5.116   0.364
 6254TIP3   OH240320   6.112   2.956   0.816
 6254TIP3    H140321   6.050   3.028   0.819
 6254TIP3    H240322   6.060   2.878   0.837
 6255TIP3   OH240323   3.375   3.283   8.014
 6255TIP3    H140324   3.311   3.213   7.999
 6255TIP3    H240325   3.343   3.356   7.960
 6256TIP3   OH240326   5.506   0.569   0.163
 6256TIP3    H140327   5.589   0.557   0.207
 6256TIP3    H240328   5.450   0.612   0.227
 6257TIP3   OH240329   3.160   0.836   7.417
 6257TIP3    H140330   3.166   0.741   7.427
 6257TIP3    H240331   3.236   0.860   7.364
 6258TIP3   OH240332   0.453   3.373   0.399
 6258TIP3    H140333   0.467   3.432   0.325
 6258TIP3    H240334   0.508   3.408   0.469
 6259TIP3   OH240335   5.723   5.905   1.284
 6259TIP3    H140336   5.699   5.990   1.246
 6259TIP3    H240337   5.691   5.910   1.374
 6260TIP3   OH240338   5.852   1.500   8.027
 6260TIP3    H140339   5.863   1.453   7.944
 6260TIP3    H240340   5.880   1.438   8.094
 6261TIP3   OH240341   0.569   0.098   1.415
 6261TIP3    H140342   0.557   0.035   1.344
 6261TIP3    H240343   0.484   0.102   1.459
 6262TIP3   OH240344   3.699   2.381   8.882
 6262TIP3    H140345   3.704   2.458   0.026
 6262TIP3    H240346   3.636   2.406   8.814
 6263TIP3   OH240347   5.969   6.770   6.925
 6263TIP3    H140348   5.994   0.035   6.843
 6263TIP3    H240349   6.052   6.756   6.971
 6264TIP3   OH240350   1.484   4.265   8.031
 6264TIP3    H140351   1.515   4.238   7.945
 6264TIP3    H240352   1.515   4.195   8.090
 6265TIP3   OH240353   5.248   5.703   6.414
 6265TIP3    H140354   5.276   5.764   6.346
 6265TIP3    H240355   5.330   5.667   6.449
 6266TIP3   OH240356   0.022   6.558   0.523
 6266TIP3    H140357   0.090   6.547   0.589
 6266TIP3    H240358   0.014   6.653   0.512
 6267TIP3   OH240359   2.887   4.900   7.320
 6267TIP3    H140360   2.852   4.908   7.409
 6267TIP3    H240361   2.818   4.936   7.264
 6268TIP3   OH240362   1.329   0.775   1.425
 6268TIP3    H140363   1.241   0.797   1.393
 6268TIP3    H240364   1.363   0.858   1.460
 6269TIP3   OH240365   1.841   5.960   0.828
 6269TIP3    H140366   1.884   5.964   0.913
 6269TIP3    H240367   1.910   5.978   0.764
 6270TIP3   OH240368   2.804   1.248   2.506
 6270TIP3    H140369   2.738   1.287   2.448
 6270TIP3    H240370   2.794   1.153   2.494
 6271TIP3   OH240371   1.771   2.841   1.159
 6271TIP3    H140372   1.849   2.809   1.114
 6271TIP3    H240373   1.760   2.782   1.234
 6272TIP3   OH240374   2.525   0.960   0.809
 6272TIP3    H140375   2.480   0.885   0.770
 6272TIP3    H240376   2.465   1.033   0.796
 6273TIP3   OH240377   5.633   6.161   1.171
 6273TIP3    H140378   5.724   6.174   1.144
 6273TIP3    H240379   5.583   6.170   1.090
 6274TIP3   OH240380   5.355   1.395   8.242
 6274TIP3    H140381   5.339   1.414   8.334
 6274TIP3    H240382   5.424   1.455   8.216
 6275TIP3   OH240383   3.106   1.534   2.621
 6275TIP3    H140384   3.044   1.465   2.596
 6275TIP3    H240385   3.090   1.549   2.714
 6276TIP3   OH240386   1.072   5.896   1.007
 6276TIP3    H140387   0.998   5.921   0.952
 6276TIP3    H240388   1.063   5.801   1.018
 6277TIP3   OH240389   1.240   2.307   8.832
 6277TIP3    H140390   1.219   2.322   8.740
 6277TIP3    H240391   1.228   2.392   8.874
 6278TIP3   OH240392   3.057   3.753   1.236
 6278TIP3    H140393   3.132   3.694   1.239
 6278TIP3    H240394   2.989   3.709   1.286
 6279TIP3   OH240395   4.462   2.581   8.877
 6279TIP3    H140396   4.506   2.640   0.025
 6279TIP3    H240397   4.518   2.582   8.799
 6280TIP3   OH240398   1.962   3.612   1.182
 6280TIP3    H140399   1.965   3.643   1.272
 6280TIP3    H240400   1.875   3.637   1.151
 6281TIP3   OH240401   0.204   2.273   0.094
 6281TIP3    H140402   0.141   2.205   0.071
 6281TIP3    H240403   0.254   2.288   0.014
 6282TIP3   OH240404   5.389   6.709   0.204
 6282TIP3    H140405   5.400   0.001   0.270
 6282TIP3    H240406   5.326   6.745   0.142
 6283TIP3   OH240407   5.170   4.421   8.280
 6283TIP3    H140408   5.212   4.378   8.355
 6283TIP3    H240409   5.091   4.461   8.317
 6284TIP3   OH240410   4.665   6.384   7.679
 6284TIP3    H140411   4.598   6.336   7.727
 6284TIP3    H240412   4.671   6.340   7.594
 6285TIP3   OH240413   4.962   1.032   7.222
 6285TIP3    H140414   4.978   1.006   7.132
 6285TIP3    H240415   4.870   1.059   7.224
 6286TIP3   OH240416   4.536   3.599   1.368
 6286TIP3    H140417   4.582   3.530   1.319
 6286TIP3    H240418   4.588   3.678   1.352
 6287TIP3   OH240419   0.812   3.881   1.649
 6287TIP3    H140420   0.901   3.913   1.667
 6287TIP3    H240421   0.756   3.935   1.704
 6288TIP3   OH240422   1.547   2.633   8.761
 6288TIP3    H140423   1.470   2.620   8.706
 6288TIP3    H240424   1.548   2.558   8.820
 6289TIP3   OH240425   3.637   0.379   0.045
 6289TIP3    H140426   3.604   0.315   8.895
 6289TIP3    H240427   3.678   0.326   0.113
 6290TIP3   OH240428   0.641   5.433   1.042
 6290TIP3    H140429   0.708   5.370   1.015
 6290TIP3    H240430   0.589   5.387   1.107
 6291TIP3   OH240431   2.435   3.182   7.294
 6291TIP3    H140432   2.454   3.137   7.376
 6291TIP3    H240433   2.494   3.257   7.294
 6292TIP3   OH240434   3.697   5.762   0.538
 6292TIP3    H140435   3.611   5.745   0.499
 6292TIP3    H240436   3.698   5.857   0.553
 6293TIP3   OH240437   4.887   6.409   7.867
 6293TIP3    H140438   4.958   6.356   7.832
 6293TIP3    H240439   4.816   6.400   7.803
 6294TIP3   OH240440   2.747   0.928   8.550
 6294TIP3    H140441   2.806   0.883   8.491
 6294TIP3    H240442   2.782   0.911   8.638
 6295TIP3   OH240443   2.646   5.999   1.173
 6295TIP3    H140444   2.710   5.963   1.111
 6295TIP3    H240445   2.562   5.986   1.130
 6296TIP3   OH240446   6.611   4.778   1.156
 6296TIP3    H140447   6.590   4.866   1.188
 6296TIP3    H240448   6.703   4.784   1.129
 6297TIP3   OH240449   3.512   2.611   8.289
 6297TIP3    H140450   3.547   2.613   8.378
 6297TIP3    H240451   3.442   2.677   8.290
 6298TIP3   OH240452   6.005   4.236   0.166
 6298TIP3    H140453   5.940   4.296   0.201
 6298TIP3    H240454   6.084   4.251   0.218
 6299TIP3   OH240455   5.390   5.127   8.844
 6299TIP3    H140456   5.365   5.116   8.752
 6299TIP3    H240457   5.402   5.221   8.855
 6300TIP3   OH240458   5.612   1.503   8.139
 6300TIP3    H140459   5.611   1.409   8.119
 6300TIP3    H240460   5.682   1.538   8.083
 6301TIP3   OH240461   6.609   3.529   6.889
 6301TIP3    H140462   6.690   3.536   6.838
 6301TIP3    H240463   6.608   3.607   6.944
 6302TIP3   OH240464   4.307   3.028   0.833
 6302TIP3    H140465   4.338   3.058   0.748
 6302TIP3    H240466   4.315   3.105   0.890
 6303TIP3   OH240467   2.778   1.017   0.290
 6303TIP3    H140468   2.795   1.061   0.374
 6303TIP3    H240469   2.732   1.082   0.238
 6304TIP3   OH240470   6.229   5.561   6.915
 6304TIP3    H140471   6.298   5.556   6.849
 6304TIP3    H240472   6.225   5.654   6.938
 6305TIP3   OH240473   3.342   5.363   1.368
 6305TIP3    H140474   3.380   5.275   1.378
 6305TIP3    H240475   3.382   5.396   1.287
 6306TIP3   OH240476   1.044   0.515   6.627
 6306TIP3    H140477   1.019   0.607   6.616
 6306TIP3    H240478   1.139   0.517   6.642
 6307TIP3   OH240479   4.619   2.609   7.926
 6307TIP3    H140480   4.559   2.642   7.992
 6307TIP3    H240481   4.566   2.596   7.848
 6308TIP3   OH240482   0.907   0.040   0.770
 6308TIP3    H140483   0.944   0.075   0.851
 6308TIP3    H240484   0.893   0.116   0.714
 6309TIP3   OH240485   4.037   1.124   6.794
 6309TIP3    H140486   3.962   1.181   6.775
 6309TIP3    H240487   4.010   1.038   6.764
 6310TIP3   OH240488   3.229   0.468   8.402
 6310TIP3    H140489   3.310   0.453   8.353
 6310TIP3    H240490   3.236   0.558   8.433
 6311TIP3   OH240491   3.494   5.377   1.117
 6311TIP3    H140492   3.521   5.467   1.096
 6311TIP3    H240493   3.574   5.325   1.109
 6312TIP3   OH240494   6.688   1.864   8.325
 6312TIP3    H140495   6.716   1.799   8.389
 6312TIP3    H240496   6.769   1.910   8.302
 6313TIP3   OH240497   1.729   5.103   0.371
 6313TIP3    H140498   1.764   5.015   0.374
 6313TIP3    H240499   1.726   5.132   0.462
 6314TIP3   OH240500   2.116   0.354   7.783
 6314TIP3    H140501   2.084   0.292   7.849
 6314TIP3    H240502   2.201   0.384   7.817
 6315TIP3   OH240503   0.584   3.747   8.365
 6315TIP3    H140504   0.569   3.687   8.291
 6315TIP3    H240505   0.547   3.702   8.441
 6316TIP3   OH240506   3.755   5.401   1.818
 6316TIP3    H140507   3.740   5.308   1.802
 6316TIP3    H240508   3.667   5.440   1.819
 6317TIP3   OH240509   2.032   5.469   0.658
 6317TIP3    H140510   2.052   5.556   0.692
 6317TIP3    H240511   2.084   5.462   0.577
 6318TIP3   OH240512   5.049   3.178   6.426
 6318TIP3    H140513   5.090   3.150   6.344
 6318TIP3    H240514   5.065   3.106   6.486
 6319TIP3   OH240515   5.251   4.655   8.632
 6319TIP3    H140516   5.327   4.614   8.674
 6319TIP3    H240517   5.176   4.624   8.684
 6320TIP3   OH240518   4.476   3.407   0.423
 6320TIP3    H140519   4.507   3.422   0.334
 6320TIP3    H240520   4.554   3.419   0.478
 6321TIP3   OH240521   3.259   4.176   8.329
 6321TIP3    H140522   3.234   4.170   8.236
 6321TIP3    H240523   3.203   4.245   8.364
 6322TIP3   OH240524   1.880   6.521   0.414
 6322TIP3    H140525   1.903   6.558   0.499
 6322TIP3    H240526   1.947   6.455   0.397
 6323TIP3   OH240527   3.495   0.612   0.124
 6323TIP3    H140528   3.556   0.657   0.182
 6323TIP3    H240529   3.537   0.529   0.104
 6324TIP3   OH240530   6.719   4.202   8.389
 6324TIP3    H140531   6.658   4.129   8.404
 6324TIP3    H240532   6.710   4.221   8.296
 6325TIP3   OH240533   4.325   3.673   0.218
 6325TIP3    H140534   4.420   3.680   0.232
 6325TIP3    H240535   4.316   3.607   0.149
 6326TIP3   OH240536   0.621   3.337   8.084
 6326TIP3    H140537   0.563   3.382   8.022
 6326TIP3    H240538   0.581   3.250   8.095
 6327TIP3   OH240539   4.674   1.474   0.406
 6327TIP3    H140540   4.763   1.444   0.424
 6327TIP3    H240541   4.684   1.543   0.341
 6328TIP3   OH240542   2.339   5.844   0.688
 6328TIP3    H140543   2.273   5.806   0.746
 6328TIP3    H240544   2.393   5.770   0.662
 6329TIP3   OH240545   1.666   1.779   1.858
 6329TIP3    H140546   1.706   1.729   1.787
 6329TIP3    H240547   1.573   1.759   1.853
 6330TIP3   OH240548   3.347   5.643   7.951
 6330TIP3    H140549   3.368   5.732   7.923
 6330TIP3    H240550   3.428   5.611   7.992
 6331TIP3   OH240551   5.118   5.763   1.856
 6331TIP3    H140552   5.176   5.709   1.910
 6331TIP3    H240553   5.032   5.756   1.898
 6332TIP3   OH240554   3.753   2.977   1.743
 6332TIP3    H140555   3.787   3.065   1.760
 6332TIP3    H240556   3.750   2.935   1.829
 6333TIP3   OH240557   1.922   2.132   8.723
 6333TIP3    H140558   1.860   2.122   8.651
 6333TIP3    H240559   1.984   2.198   8.693
 6334TIP3   OH240560   4.576   4.297   0.980
 6334TIP3    H140561   4.534   4.257   1.056
 6334TIP3    H240562   4.627   4.227   0.941
 6335TIP3   OH240563   0.489   6.082   0.599
 6335TIP3    H140564   0.439   6.074   0.518
 6335TIP3    H240565   0.427   6.119   0.662
 6336TIP3   OH240566   6.426   1.523   8.118
 6336TIP3    H140567   6.339   1.562   8.126
 6336TIP3    H240568   6.475   1.559   8.192
 6337TIP3   OH240569   2.275   2.985   1.711
 6337TIP3    H140570   2.205   2.942   1.761
 6337TIP3    H240571   2.268   3.077   1.735
 6338TIP3   OH240572   1.183   2.313   7.731
 6338TIP3    H140573   1.216   2.279   7.647
 6338TIP3    H240574   1.239   2.272   7.797
 6339TIP3   OH240575   0.426   1.821   7.758
 6339TIP3    H140576   0.375   1.901   7.770
 6339TIP3    H240577   0.479   1.814   7.837
 6340TIP3   OH240578   2.301   2.039   7.742
 6340TIP3    H140579   2.321   2.037   7.835
 6340TIP3    H240580   2.366   1.983   7.701
 6341TIP3   OH240581   4.513   1.989   7.264
 6341TIP3    H140582   4.475   1.933   7.196
 6341TIP3    H240583   4.607   1.984   7.250
 6342TIP3   OH240584   4.988   1.182   1.238
 6342TIP3    H140585   4.938   1.184   1.320
 6342TIP3    H240586   5.070   1.139   1.262
 6343TIP3   OH240587   4.362   0.155   2.035
 6343TIP3    H140588   4.349   0.125   2.125
 6343TIP3    H240589   4.332   0.081   1.981
 6344TIP3   OH240590   1.301   6.257   2.071
 6344TIP3    H140591   1.262   6.172   2.050
 6344TIP3    H240592   1.364   6.238   2.140
 6345TIP3   OH240593   5.038   0.250   1.241
 6345TIP3    H140594   5.047   0.295   1.325
 6345TIP3    H240595   4.991   0.169   1.262
 6346TIP3   OH240596   2.206   5.240   8.405
 6346TIP3    H140597   2.144   5.217   8.474
 6346TIP3    H240598   2.206   5.164   8.347
 6347TIP3   OH240599   2.890   0.845   7.498
 6347TIP3    H140600   2.975   0.837   7.454
 6347TIP3    H240601   2.880   0.764   7.547
 6348TIP3   OH240602   0.974   2.914   8.413
 6348TIP3    H140603   0.882   2.910   8.385
 6348TIP3    H240604   0.986   2.837   8.468
 6349TIP3   OH240605   5.441   0.500   2.185
 6349TIP3    H140606   5.532   0.478   2.204
 6349TIP3    H240607   5.390   0.426   2.220
 6350TIP3   OH240608   5.219   6.028   2.119
 6350TIP3    H140609   5.197   6.059   2.206
 6350TIP3    H240610   5.309   6.059   2.105
 6351TIP3   OH240611   4.797   4.969   8.748
 6351TIP3    H140612   4.820   4.933   8.662
 6351TIP3    H240613   4.810   5.063   8.739
 6352TIP3   OH240614   4.278   3.009   7.855
 6352TIP3    H140615   4.240   2.940   7.909
 6352TIP3    H240616   4.275   3.087   7.910
 6353TIP3   OH240617   1.362   0.913   7.399
 6353TIP3    H140618   1.322   0.986   7.447
 6353TIP3    H240619   1.429   0.954   7.344
 6354TIP3   OH240620   0.864   3.383   8.829
 6354TIP3    H140621   0.833   3.429   8.751
 6354TIP3    H240622   0.858   3.448   8.899
 6355TIP3   OH240623   6.758   2.863   6.280
 6355TIP3    H140624   0.049   2.873   6.347
 6355TIP3    H240625   6.683   2.825   6.327
 6356TIP3   OH240626   0.166   5.016   7.585
 6356TIP3    H140627   0.197   4.986   7.499
 6356TIP3    H240628   0.072   4.997   7.584
 6357TIP3   OH240629   2.103   4.550   7.067
 6357TIP3    H140630   2.071   4.476   7.119
 6357TIP3    H240631   2.038   4.560   6.998
 6358TIP3   OH240632   3.577   3.750   8.587
 6358TIP3    H140633   3.507   3.744   8.522
 6358TIP3    H240634   3.576   3.842   8.615
 6359TIP3   OH240635   1.245   3.324   7.875
 6359TIP3    H140636   1.320   3.274   7.843
 6359TIP3    H240637   1.236   3.396   7.813
 6360TIP3   OH240638   6.160   0.889   1.173
 6360TIP3    H140639   6.125   0.945   1.243
 6360TIP3    H240640   6.255   0.899   1.180
 6361TIP3   OH240641   3.229   2.935   8.834
 6361TIP3    H140642   3.292   2.908   8.901
 6361TIP3    H240643   3.274   3.004   8.786
 6362TIP3   OH240644   0.812   4.176   1.875
 6362TIP3    H140645   0.768   4.134   1.949
 6362TIP3    H240646   0.754   4.248   1.850
 6363TIP3   OH240647   3.810   4.977   1.211
 6363TIP3    H140648   3.855   5.056   1.180
 6363TIP3    H240649   3.830   4.910   1.146
 6364TIP3   OH240650   2.713   0.538   5.975
 6364TIP3    H140651   2.674   0.611   6.023
 6364TIP3    H240652   2.637   0.493   5.936
 6365TIP3   OH240653   5.832   1.547   7.643
 6365TIP3    H140654   5.905   1.578   7.697
 6365TIP3    H240655   5.791   1.627   7.609
 6366TIP3   OH240656   2.158   1.557   8.888
 6366TIP3    H140657   2.142   1.485   8.828
 6366TIP3    H240658   2.233   1.528   0.027
 6367TIP3   OH240659   3.495   0.058   8.046
 6367TIP3    H140660   3.472   0.119   7.975
 6367TIP3    H240661   3.589   0.046   8.037
 6368TIP3   OH240662   2.882   6.330   7.823
 6368TIP3    H140663   2.788   6.325   7.802
 6368TIP3    H240664   2.890   6.285   7.907
 6369TIP3   OH240665   1.722   6.377   0.946
 6369TIP3    H140666   1.760   6.328   0.874
 6369TIP3    H240667   1.631   6.346   0.950
 6370TIP3   OH240668   1.839   0.049   8.494
 6370TIP3    H140669   1.841   6.742   8.447
 6370TIP3    H240670   1.770   0.099   8.452
 6371TIP3   OH240671   6.281   6.723   1.243
 6371TIP3    H140672   6.257   6.633   1.221
 6371TIP3    H240673   6.368   6.716   1.282
 6372TIP3   OH240674   6.629   5.306   7.621
 6372TIP3    H140675   6.547   5.336   7.581
 6372TIP3    H240676   6.602   5.262   7.701
 6373TIP3   OH240677   5.058   1.085   8.020
 6373TIP3    H140678   5.130   1.023   8.004
 6373TIP3    H240679   4.980   1.031   8.022
 6374TIP3   OH240680   4.804   1.024   8.446
 6374TIP3    H140681   4.888   0.997   8.411
 6374TIP3    H240682   4.813   1.118   8.461
 6375TIP3   OH240683   3.140   6.754   7.540
 6375TIP3    H140684   3.052   0.016   7.538
 6375TIP3    H240685   3.135   6.684   7.605
 6376TIP3   OH240686   3.798   6.259   7.927
 6376TIP3    H140687   3.843   6.338   7.960
 6376TIP3    H240688   3.707   6.270   7.955
 6377TIP3   OH240689   0.390   2.231   8.767
 6377TIP3    H140690   0.411   2.310   8.815
 6377TIP3    H240691   0.363   2.261   8.680
 6378TIP3   OH240692   3.207   4.713   6.621
 6378TIP3    H140693   3.211   4.665   6.538
 6378TIP3    H240694   3.292   4.756   6.627
 6379TIP3   OH240695   0.554   3.337   7.243
 6379TIP3    H140696   0.467   3.300   7.231
 6379TIP3    H240697   0.576   3.374   7.157
 6380TIP3   OH240698   2.741   6.755   1.375
 6380TIP3    H140699   2.771   0.069   1.381
 6380TIP3    H240700   2.657   6.761   1.328
 6381TIP3   OH240701   4.217   1.501   2.503
 6381TIP3    H140702   4.173   1.524   2.421
 6381TIP3    H240703   4.231   1.406   2.497
 6382TIP3   OH240704   5.381   1.365   0.525
 6382TIP3    H140705   5.368   1.291   0.467
 6382TIP3    H240706   5.463   1.346   0.571
 6383TIP3   OH240707   4.870   2.152   1.016
 6383TIP3    H140708   4.830   2.104   1.089
 6383TIP3    H240709   4.799   2.201   0.976
 6384TIP3   OH240710   4.307   5.078   8.156
 6384TIP3    H140711   4.290   4.991   8.192
 6384TIP3    H240712   4.220   5.110   8.130
 6385TIP3   OH240713   4.752   3.302   7.551
 6385TIP3    H140714   4.768   3.261   7.635
 6385TIP3    H240715   4.657   3.316   7.548
 6386TIP3   OH240716   3.525   3.127   1.942
 6386TIP3    H140717   3.581   3.108   2.017
 6386TIP3    H240718   3.581   3.178   1.883
 6387TIP3   OH240719   4.783   6.281   0.955
 6387TIP3    H140720   4.864   6.265   0.906
 6387TIP3    H240721   4.806   6.260   1.045
 6388TIP3   OH240722   4.500   3.986   1.692
 6388TIP3    H140723   4.486   3.898   1.727
 6388TIP3    H240724   4.521   4.040   1.768
 6389TIP3   OH240725   3.294   1.351   1.778
 6389TIP3    H140726   3.305   1.282   1.843
 6389TIP3    H240727   3.345   1.425   1.813
 6390TIP3   OH240728   1.892   3.576   6.718
 6390TIP3    H140729   1.857   3.489   6.698
 6390TIP3    H240730   1.941   3.600   6.640
 6391TIP3   OH240731   1.794   1.194   1.362
 6391TIP3    H140732   1.848   1.118   1.384
 6391TIP3    H240733   1.802   1.202   1.266
 6392TIP3   OH240734   5.334   1.661   7.153
 6392TIP3    H140735   5.355   1.631   7.065
 6392TIP3    H240736   5.253   1.711   7.143
 6393TIP3   OH240737   2.404   4.415   1.574
 6393TIP3    H140738   2.471   4.419   1.642
 6393TIP3    H240739   2.412   4.326   1.538
 6394TIP3   OH240740   0.811   0.846   1.176
 6394TIP3    H140741   0.726   0.888   1.161
 6394TIP3    H240742   0.870   0.890   1.114
 6395TIP3   OH240743   1.898   6.640   7.876
 6395TIP3    H140744   1.972   6.596   7.834
 6395TIP3    H240745   1.856   6.572   7.928
 6396TIP3   OH240746   2.152   1.993   0.782
 6396TIP3    H140747   2.118   2.082   0.780
 6396TIP3    H240748   2.203   1.985   0.701
 6397TIP3   OH240749   5.801   2.434   0.759
 6397TIP3    H140750   5.858   2.417   0.833
 6397TIP3    H240751   5.782   2.347   0.723
 6398TIP3   OH240752   6.155   2.279   8.770
 6398TIP3    H140753   6.090   2.213   8.745
 6398TIP3    H240754   6.144   2.289   8.864
 6399TIP3   OH240755   6.407   6.117   0.395
 6399TIP3    H140756   6.472   6.180   0.427
 6399TIP3    H240757   6.388   6.061   0.471
 6400TIP3   OH240758   3.028   2.880   0.888
 6400TIP3    H140759   2.981   2.887   0.804
 6400TIP3    H240760   3.094   2.949   0.885
 6401TIP3   OH240761   0.947   2.919   1.072
 6401TIP3    H140762   0.998   2.846   1.040
 6401TIP3    H240763   0.867   2.880   1.107
 6402TIP3   OH240764   5.249   3.559   1.665
 6402TIP3    H140765   5.262   3.469   1.695
 6402TIP3    H240766   5.170   3.589   1.709
 6403TIP3   OH240767   5.153   0.288   8.844
 6403TIP3    H140768   5.110   0.364   8.805
 6403TIP3    H240769   5.244   0.315   8.854
 6404TIP3   OH240770   4.397   6.508   6.761
 6404TIP3    H140771   4.315   6.480   6.722
 6404TIP3    H240772   4.463   6.491   6.694
 6405TIP3   OH240773   3.232   1.901   8.758
 6405TIP3    H140774   3.209   1.981   8.805
 6405TIP3    H240775   3.257   1.839   8.828
 6406TIP3   OH240776   5.714   5.935   1.557
 6406TIP3    H140777   5.682   5.852   1.592
 6406TIP3    H240778   5.732   5.988   1.635
 6407TIP3   OH240779   4.721   5.666   7.498
 6407TIP3    H140780   4.788   5.598   7.507
 6407TIP3    H240781   4.746   5.733   7.560
 6408TIP3   OH240782   3.564   0.435   1.764
 6408TIP3    H140783   3.471   0.454   1.766
 6408TIP3    H240784   3.583   0.397   1.850
 6409TIP3   OH240785   2.608   4.171   1.086
 6409TIP3    H140786   2.575   4.163   0.996
 6409TIP3    H240787   2.530   4.186   1.139
 6410TIP3   OH240788   3.941   0.901   8.391
 6410TIP3    H140789   3.895   0.831   8.437
 6410TIP3    H240790   4.021   0.860   8.359
 6411TIP3   OH240791   2.696   2.445   7.655
 6411TIP3    H140792   2.729   2.382   7.718
 6411TIP3    H240793   2.602   2.449   7.672
 6412TIP3   OH240794   2.548   5.872   0.031
 6412TIP3    H140795   2.565   5.949   0.086
 6412TIP3    H240796   2.455   5.853   0.045
 6413TIP3   OH240797   0.727   2.768   1.147
 6413TIP3    H140798   0.684   2.809   1.222
 6413TIP3    H240799   0.662   2.707   1.112
 6414TIP3   OH240800   5.849   5.660   8.133
 6414TIP3    H140801   5.935   5.701   8.147
 6414TIP3    H240802   5.862   5.604   8.057
 6415TIP3   OH240803   3.543   3.841   2.305
 6415TIP3    H140804   3.615   3.898   2.332
 6415TIP3    H240805   3.466   3.879   2.346
 6416TIP3   OH240806   4.790   0.903   6.678
 6416TIP3    H140807   4.709   0.923   6.727
 6416TIP3    H240808   4.763   0.840   6.612
 6417TIP3   OH240809   5.194   0.850   0.500
 6417TIP3    H140810   5.110   0.830   0.542
 6417TIP3    H240811   5.235   0.915   0.557
 6418TIP3   OH240812   3.978   0.222   8.091
 6418TIP3    H140813   4.006   0.309   8.064
 6418TIP3    H240814   4.025   0.206   8.173
 6419TIP3   OH240815   1.787   5.655   6.684
 6419TIP3    H140816   1.816   5.732   6.635
 6419TIP3    H240817   1.726   5.610   6.625
 6420TIP3   OH240818   2.772   4.875   0.061
 6420TIP3    H140819   2.849   4.860   0.006
 6420TIP3    H240820   2.774   4.803   0.124
 6421TIP3   OH240821   2.289   2.474   0.266
 6421TIP3    H140822   2.212   2.506   0.313
 6421TIP3    H240823   2.262   2.473   0.174
 6422TIP3   OH240824   5.153   2.525   7.989
 6422TIP3    H140825   5.066   2.497   7.961
 6422TIP3    H240826   5.137   2.604   8.041
 6423TIP3   OH240827   2.075   0.114   7.924
 6423TIP3    H140828   2.007   0.046   7.912
 6423TIP3    H240829   2.080   0.126   8.018
 6424TIP3   OH240830   5.991   4.855   7.277
 6424TIP3    H140831   5.940   4.872   7.197
 6424TIP3    H240832   5.928   4.813   7.336
 6425TIP3   OH240833   2.788   5.802   0.126
 6425TIP3    H140834   2.853   5.748   0.081
 6425TIP3    H240835   2.715   5.809   0.064
 6426TIP3   OH240836   3.943   5.151   8.863
 6426TIP3    H140837   3.930   5.057   8.853
 6426TIP3    H240838   3.898   5.190   8.788
 6427TIP3   OH240839   3.636   4.276   1.525
 6427TIP3    H140840   3.645   4.371   1.535
 6427TIP3    H240841   3.678   4.257   1.441
 6428TIP3   OH240842   0.574   2.536   7.953
 6428TIP3    H140843   0.555   2.567   7.865
 6428TIP3    H240844   0.643   2.595   7.985
 6429TIP3   OH240845   4.797   0.494   0.611
 6429TIP3    H140846   4.768   0.427   0.673
 6429TIP3    H240847   4.879   0.526   0.648
 6430TIP3   OH240848   3.492   5.536   8.347
 6430TIP3    H140849   3.419   5.524   8.286
 6430TIP3    H240850   3.552   5.596   8.301
 6431TIP3   OH240851   4.513   3.867   2.133
 6431TIP3    H140852   4.535   3.780   2.099
 6431TIP3    H240853   4.419   3.875   2.119
 6432TIP3   OH240854   1.328   2.588   0.059
 6432TIP3    H140855   1.352   2.678   0.037
 6432TIP3    H240856   1.407   2.537   0.043
 6433TIP3   OH240857   6.439   0.711   0.310
 6433TIP3    H140858   6.353   0.670   0.299
 6433TIP3    H240859   6.420   0.804   0.325
 6434TIP3   OH240860   2.081   5.694   1.091
 6434TIP3    H140861   2.026   5.744   1.151
 6434TIP3    H240862   2.168   5.697   1.131
 6435TIP3   OH240863   2.480   0.742   8.645
 6435TIP3    H140864   2.529   0.730   8.727
 6435TIP3    H240865   2.454   0.835   8.646
 6436TIP3   OH240866   0.417   5.895   6.492
 6436TIP3    H140867   0.340   5.851   6.456
 6436TIP3    H240868   0.411   5.985   6.461
 6437TIP3   OH240869   6.506   2.314   0.680
 6437TIP3    H140870   6.565   2.246   0.712
 6437TIP3    H240871   6.520   2.388   0.739
 6438TIP3   OH240872   0.737   2.477   0.249
 6438TIP3    H140873   0.715   2.555   0.300
 6438TIP3    H240874   0.832   2.482   0.237
 6439TIP3   OH240875   3.831   5.344   7.661
 6439TIP3    H140876   3.736   5.352   7.652
 6439TIP3    H240877   3.843   5.274   7.725
 6440TIP3   OH240878   1.415   4.685   7.622
 6440TIP3    H140879   1.327   4.723   7.618
 6440TIP3    H240880   1.472   4.758   7.646
 6441TIP3   OH240881   2.281   3.999   6.812
 6441TIP3    H140882   2.221   3.985   6.738
 6441TIP3    H240883   2.367   4.009   6.771
 6442TIP3   OH240884   5.859   2.976   8.800
 6442TIP3    H140885   5.807   2.939   8.871
 6442TIP3    H240886   5.898   2.900   8.757
 6443TIP3   OH240887   5.623   2.111   0.242
 6443TIP3    H140888   5.562   2.038   0.234
 6443TIP3    H240889   5.690   2.094   0.176
 6444TIP3   OH240890   5.451   4.517   8.754
 6444TIP3    H140891   5.533   4.554   8.788
 6444TIP3    H240892   5.416   4.465   8.827
 6445TIP3   OH240893   0.539   0.914   1.077
 6445TIP3    H140894   0.455   0.869   1.082
 6445TIP3    H240895   0.566   0.907   0.985
 6446TIP3   OH240896   5.505   3.919   0.085
 6446TIP3    H140897   5.478   3.828   0.097
 6446TIP3    H240898   5.432   3.960   0.039
 6447TIP3   OH240899   3.585   3.580   7.795
 6447TIP3    H140900   3.572   3.552   7.886
 6447TIP3    H240901   3.630   3.507   7.753
 6448TIP3   OH240902   1.913   2.797   8.562
 6448TIP3    H140903   1.969   2.737   8.514
 6448TIP3    H240904   1.913   2.764   8.652
 6449TIP3   OH240905   5.313   0.279   7.772
 6449TIP3    H140906   5.355   0.201   7.736
 6449TIP3    H240907   5.374   0.350   7.752
 6450TIP3   OH240908   6.062   6.739   1.011
 6450TIP3    H140909   6.084   6.646   1.016
 6450TIP3    H240910   6.145   0.008   1.024
 6451TIP3   OH240911   5.725   6.163   0.596
 6451TIP3    H140912   5.804   6.111   0.588
 6451TIP3    H240913   5.732   6.205   0.682
 6452TIP3   OH240914   4.905   4.419   1.213
 6452TIP3    H140915   4.959   4.393   1.138
 6452TIP3    H240916   4.967   4.452   1.278
 6453TIP3   OH240917   3.645   1.496   7.593
 6453TIP3    H140918   3.669   1.562   7.528
 6453TIP3    H240919   3.665   1.536   7.677
 6454TIP3   OH240920   1.076   0.261   6.776
 6454TIP3    H140921   1.028   0.304   6.705
 6454TIP3    H240922   1.151   0.319   6.792
 6455TIP3   OH240923   1.838   6.227   1.184
 6455TIP3    H140924   1.825   6.133   1.170
 6455TIP3    H240925   1.780   6.269   1.120
 6456TIP3   OH240926   6.429   5.906   7.780
 6456TIP3    H140927   6.422   5.812   7.766
 6456TIP3    H240928   6.430   5.944   7.692
 6457TIP3   OH240929   3.948   4.636   0.531
 6457TIP3    H140930   3.853   4.626   0.530
 6457TIP3    H240931   3.970   4.665   0.442
 6458TIP3   OH240932   6.102   4.695   1.546
 6458TIP3    H140933   6.153   4.621   1.512
 6458TIP3    H240934   6.144   4.717   1.629
 6459TIP3   OH240935   6.434   5.647   1.664
 6459TIP3    H140936   6.504   5.695   1.708
 6459TIP3    H240937   6.362   5.645   1.727
 6460TIP3   OH240938   3.783   2.189   7.765
 6460TIP3    H140939   3.762   2.200   7.672
 6460TIP3    H240940   3.699   2.199   7.810
 6461TIP3   OH240941   3.300   5.935   7.330
 6461TIP3    H140942   3.316   5.983   7.411
 6461TIP3    H240943   3.226   5.981   7.290
 6462TIP3   OH240944   3.376   0.046   8.335
 6462TIP3    H140945   3.433   0.058   8.259
 6462TIP3    H240946   3.291   0.021   8.297
 6463TIP3   OH240947   0.686   4.468   7.664
 6463TIP3    H140948   0.757   4.467   7.727
 6463TIP3    H240949   0.702   4.546   7.611
 6464TIP3   OH240950   3.824   5.239   8.565
 6464TIP3    H140951   3.735   5.272   8.553
 6464TIP3    H240952   3.825   5.154   8.521
 6465TIP3   OH240953   4.374   1.278   6.664
 6465TIP3    H140954   4.339   1.221   6.733
 6465TIP3    H240955   4.458   1.239   6.640
 6466TIP3   OH240956   3.501   4.994   1.776
 6466TIP3    H140957   3.440   5.000   1.703
 6466TIP3    H240958   3.465   5.051   1.844
 6467TIP3   OH240959   6.749   0.397   0.455
 6467TIP3    H140960   6.713   0.419   0.370
 6467TIP3    H240961   0.058   0.360   0.436
 6468TIP3   OH240962   2.536   6.680   6.653
 6468TIP3    H140963   2.578   6.595   6.669
 6468TIP3    H240964   2.530   6.686   6.558
 6469TIP3   OH240965   1.641   1.020   8.386
 6469TIP3    H140966   1.632   1.111   8.414
 6469TIP3    H240967   1.723   1.019   8.337
 6470TIP3   OH240968   4.011   5.320   0.660
 6470TIP3    H140969   3.975   5.408   0.654
 6470TIP3    H240970   3.976   5.285   0.742
 6471TIP3   OH240971   2.727   0.320   7.813
 6471TIP3    H140972   2.670   0.396   7.802
 6471TIP3    H240973   2.803   0.339   7.758
 6472TIP3   OH240974   6.396   5.726   0.739
 6472TIP3    H140975   6.426   5.636   0.748
 6472TIP3    H240976   6.381   5.756   0.829
 6473TIP3   OH240977   0.035   0.710   7.781
 6473TIP3    H140978   0.060   0.800   7.804
 6473TIP3    H240979   6.728   0.719   7.735
 6474TIP3   OH240980   5.080   0.214   1.537
 6474TIP3    H140981   5.170   0.229   1.506
 6474TIP3    H240982   5.070   0.119   1.535
 6475TIP3   OH240983   5.196   0.215   0.666
 6475TIP3    H140984   5.121   0.180   0.617
 6475TIP3    H240985   5.216   0.146   0.729
 6476TIP3   OH240986   0.829   2.250   6.721
 6476TIP3    H140987   0.832   2.283   6.811
 6476TIP3    H240988   0.808   2.157   6.730
 6477TIP3   OH240989   0.065   3.098   1.768
 6477TIP3    H140990   6.756   3.140   1.779
 6477TIP3    H240991   0.125   3.151   1.820
 6478TIP3   OH240992   2.974   2.883   8.862
 6478TIP3    H140993   2.957   2.938   8.786
 6478TIP3    H240994   3.066   2.899   8.883
 6479TIP3   OH240995   1.472   4.186   8.780
 6479TIP3    H140996   1.515   4.114   8.733
 6479TIP3    H240997   1.484   4.164   8.872
 6480TIP3   OH240998   3.335   1.378   7.161
 6480TIP3    H140999   3.255   1.383   7.108
 6480TIP3    H241000   3.399   1.431   7.113
 6481TIP3   OH241001   4.446   2.132   7.503
 6481TIP3    H141002   4.500   2.110   7.579
 6481TIP3    H241003   4.469   2.066   7.437
 6482TIP3   OH241004   5.354   4.845   7.408
 6482TIP3    H141005   5.409   4.901   7.463
 6482TIP3    H241006   5.410   4.770   7.386
 6483TIP3   OH241007   4.405   4.629   2.038
 6483TIP3    H141008   4.393   4.665   1.950
 6483TIP3    H241009   4.344   4.680   2.092
 6484TIP3   OH241010   0.961   4.610   7.691
 6484TIP3    H141011   0.981   4.549   7.763
 6484TIP3    H241012   0.952   4.695   7.734
 6485TIP3   OH241013   2.658   3.554   0.758
 6485TIP3    H141014   2.592   3.488   0.780
 6485TIP3    H241015   2.706   3.569   0.839
 6486TIP3   OH241016   3.816   1.325   6.705
 6486TIP3    H141017   3.807   1.373   6.622
 6486TIP3    H241018   3.757   1.370   6.765
 6487TIP3   OH241019   6.164   5.845   6.846
 6487TIP3    H141020   6.073   5.838   6.817
 6487TIP3    H241021   6.207   5.895   6.776
 6488TIP3   OH241022   4.219   2.118   2.400
 6488TIP3    H141023   4.310   2.099   2.378
 6488TIP3    H241024   4.178   2.138   2.315
 6489TIP3   OH241025   2.681   0.087   8.270
 6489TIP3    H141026   2.669   6.775   8.305
 6489TIP3    H241027   2.599   0.132   8.287
 6490TIP3   OH241028   0.846   6.730   7.407
 6490TIP3    H141029   0.921   6.672   7.399
 6490TIP3    H241030   0.849   6.762   7.497
 6491TIP3   OH241031   6.304   1.307   0.151
 6491TIP3    H141032   6.302   1.238   0.085
 6491TIP3    H241033   6.271   1.265   0.230
 6492TIP3   OH241034   6.760   4.502   1.236
 6492TIP3    H141035   6.770   4.407   1.226
 6492TIP3    H241036   6.666   4.517   1.227
 6493TIP3   OH241037   2.818   6.342   7.495
 6493TIP3    H141038   2.824   6.307   7.406
 6493TIP3    H241039   2.792   6.267   7.548
 6494TIP3   OH241040   3.705   4.706   8.688
 6494TIP3    H141041   3.768   4.778   8.699
 6494TIP3    H241042   3.626   4.749   8.657
 6495TIP3   OH241043   4.206   1.574   8.671
 6495TIP3    H141044   4.141   1.510   8.701
 6495TIP3    H241045   4.164   1.617   8.597
 6496TIP3   OH241046   0.112   3.891   7.539
 6496TIP3    H141047   0.161   3.969   7.564
 6496TIP3    H241048   0.070   3.914   7.456
 6497TIP3   OH241049   4.464   4.668   8.847
 6497TIP3    H141050   4.438   4.708   0.017
 6497TIP3    H241051   4.471   4.574   8.867
 6498TIP3   OH241052   5.859   0.612   8.732
 6498TIP3    H141053   5.849   0.545   8.665
 6498TIP3    H241054   5.782   0.668   8.722
 6499TIP3   OH241055   0.512   4.082   0.672
 6499TIP3    H141056   0.424   4.087   0.710
 6499TIP3    H241057   0.513   3.998   0.627
 6500TIP3   OH241058   0.130   4.626   8.061
 6500TIP3    H141059   0.174   4.543   8.043
 6500TIP3    H241060   0.037   4.603   8.068
 6501TIP3   OH241061   5.732   6.458   8.485
 6501TIP3    H141062   5.722   6.364   8.478
 6501TIP3    H241063   5.695   6.480   8.571
 6502TIP3   OH241064   0.291   6.401   6.568
 6502TIP3    H141065   0.348   6.478   6.568
 6502TIP3    H241066   0.221   6.422   6.506
 6503TIP3   OH241067   6.515   6.454   0.055
 6503TIP3    H141068   6.453   6.522   0.028
 6503TIP3    H241069   6.587   6.502   0.095
 6504TIP3   OH241070   3.830   5.015   8.398
 6504TIP3    H141071   3.896   4.945   8.402
 6504TIP3    H241072   3.838   5.051   8.310
 6505TIP3   OH241073   2.147   1.510   7.421
 6505TIP3    H141074   2.199   1.529   7.499
 6505TIP3    H241075   2.167   1.419   7.401
 6506TIP3   OH241076   3.909   5.656   1.157
 6506TIP3    H141077   3.942   5.570   1.183
 6506TIP3    H241078   3.988   5.707   1.136
 6507TIP3   OH241079   3.722   4.209   8.288
 6507TIP3    H141080   3.702   4.261   8.366
 6507TIP3    H241081   3.660   4.136   8.291
 6508TIP3   OH241082   5.533   6.480   1.649
 6508TIP3    H141083   5.545   6.551   1.712
 6508TIP3    H241084   5.614   6.430   1.653
 6509TIP3   OH241085   1.495   2.080   7.614
 6509TIP3    H141086   1.587   2.064   7.635
 6509TIP3    H241087   1.453   2.096   7.699
 6510TIP3   OH241088   3.401   1.171   7.823
 6510TIP3    H141089   3.342   1.240   7.792
 6510TIP3    H241090   3.378   1.094   7.771
 6511TIP3   OH241091   3.328   4.027   1.701
 6511TIP3    H141092   3.348   3.985   1.617
 6511TIP3    H241093   3.245   4.072   1.685
 6512TIP3   OH241094   2.358   4.342   0.454
 6512TIP3    H141095   2.276   4.348   0.406
 6512TIP3    H241096   2.380   4.432   0.478
 6513TIP3   OH241097   4.138   6.558   0.843
 6513TIP3    H141098   4.054   6.597   0.822
 6513TIP3    H241099   4.192   6.574   0.766
 6514TIP3   OH241100   3.051   4.531   7.298
 6514TIP3    H141101   3.002   4.450   7.310
 6514TIP3    H241102   3.087   4.551   7.384
 6515TIP3   OH241103   6.346   5.143   0.376
 6515TIP3    H141104   6.292   5.065   0.366
 6515TIP3    H241105   6.302   5.209   0.323
 6516TIP3   OH241106   0.823   5.516   6.874
 6516TIP3    H141107   0.751   5.570   6.841
 6516TIP3    H241108   0.890   5.578   6.902
 6517TIP3   OH241109   6.187   2.583   0.956
 6517TIP3    H141110   6.276   2.616   0.969
 6517TIP3    H241111   6.156   2.563   1.044
 6518TIP3   OH241112   4.025   0.916   8.872
 6518TIP3    H141113   3.975   0.898   0.038
 6518TIP3    H241114   4.099   0.970   8.902
 6519TIP3   OH241115   4.614   2.395   2.681
 6519TIP3    H141116   4.609   2.387   2.586
 6519TIP3    H241117   4.706   2.416   2.698
 6520TIP3   OH241118   5.446   0.888   1.230
 6520TIP3    H141119   5.469   0.800   1.261
 6520TIP3    H241120   5.517   0.944   1.260
 6521TIP3   OH241121   3.930   3.195   7.117
 6521TIP3    H141122   3.913   3.102   7.106
 6521TIP3    H241123   3.851   3.238   7.083
 6522TIP3   OH241124   3.978   1.457   7.846
 6522TIP3    H141125   3.940   1.390   7.902
 6522TIP3    H241126   4.061   1.420   7.817
 6523TIP3   OH241127   3.716   3.801   1.591
 6523TIP3    H141128   3.684   3.759   1.670
 6523TIP3    H241129   3.749   3.886   1.620
 6524TIP3   OH241130   1.462   0.614   8.674
 6524TIP3    H141131   1.472   0.628   8.768
 6524TIP3    H241132   1.532   0.666   8.634
 6525TIP3   OH241133   0.633   2.897   8.542
 6525TIP3    H141134   0.681   2.828   8.588
 6525TIP3    H241135   0.700   2.944   8.492
 6526TIP3   OH241136   6.504   4.068   0.162
 6526TIP3    H141137   6.585   4.071   0.214
 6526TIP3    H241138   6.484   3.975   0.154
 6527TIP3   OH241139   4.812   4.728   1.307
 6527TIP3    H141140   4.889   4.735   1.251
 6527TIP3    H241141   4.746   4.686   1.252
 6528TIP3   OH241142   5.318   5.989   8.893
 6528TIP3    H141143   5.405   5.951   8.900
 6528TIP3    H241144   5.333   6.082   8.879
 6529TIP3   OH241145   5.915   1.873   0.063
 6529TIP3    H141146   5.998   1.905   0.029
 6529TIP3    H241147   5.912   1.904   0.154
 6530TIP3   OH241148   5.423   3.635   1.419
 6530TIP3    H141149   5.465   3.550   1.423
 6530TIP3    H241150   5.371   3.640   1.500
 6531TIP3   OH241151   6.254   1.467   1.465
 6531TIP3    H141152   6.313   1.392   1.454
 6531TIP3    H241153   6.288   1.513   1.542
 6532TIP3   OH241154   2.057   3.591   0.903
 6532TIP3    H141155   2.048   3.671   0.852
 6532TIP3    H241156   2.047   3.620   0.994
 6533TIP3   OH241157   1.617   4.012   1.353
 6533TIP3    H141158   1.554   4.018   1.425
 6533TIP3    H241159   1.601   3.927   1.314
 6534TIP3   OH241160   0.864   5.353   8.686
 6534TIP3    H141161   0.886   5.336   8.595
 6534TIP3    H241162   0.942   5.326   8.735
 6535TIP3   OH241163   6.028   3.196   7.981
 6535TIP3    H141164   6.011   3.290   7.987
 6535TIP3    H241165   6.025   3.166   8.071
 6536TIP3   OH241166   5.691   0.421   6.768
 6536TIP3    H141167   5.606   0.446   6.732
 6536TIP3    H241168   5.698   0.471   6.849
 6537TIP3   OH241169   6.512   3.042   1.225
 6537TIP3    H141170   6.464   3.028   1.306
 6537TIP3    H241171   6.451   3.015   1.156
 6538TIP3   OH241172   3.559   5.114   8.762
 6538TIP3    H141173   3.629   5.130   8.825
 6538TIP3    H241174   3.529   5.202   8.737
 6539TIP3   OH241175   6.707   3.739   8.433
 6539TIP3    H141176   6.726   3.726   8.340
 6539TIP3    H241177   6.673   3.828   8.439
 6540TIP3   OH241178   1.457   5.814   7.493
 6540TIP3    H141179   1.547   5.832   7.467
 6540TIP3    H241180   1.421   5.900   7.514
 6541TIP3   OH241181   4.983   5.199   2.169
 6541TIP3    H141182   5.072   5.214   2.201
 6541TIP3    H241183   4.931   5.265   2.215
 6542TIP3   OH241184   6.511   2.785   0.148
 6542TIP3    H141185   6.458   2.763   0.225
 6542TIP3    H241186   6.492   2.878   0.132
 6543TIP3   OH241187   2.126   2.975   6.594
 6543TIP3    H141188   2.178   2.928   6.659
 6543TIP3    H241189   2.071   3.034   6.645
 6544TIP3   OH241190   0.258   6.101   7.526
 6544TIP3    H141191   0.179   6.097   7.473
 6544TIP3    H241192   0.307   6.176   7.492
 6545TIP3   OH241193   4.143   3.267   7.289
 6545TIP3    H141194   4.071   3.229   7.238
 6545TIP3    H241195   4.160   3.352   7.248
 6546TIP3   OH241196   3.496   4.001   8.256
 6546TIP3    H141197   3.419   4.058   8.261
 6546TIP3    H241198   3.462   3.919   8.220
 6547TIP3   OH241199   5.773   1.056   8.779
 6547TIP3    H141200   5.680   1.039   8.765
 6547TIP3    H241201   5.816   1.024   8.699
 6548TIP3   OH241202   1.190   6.346   8.588
 6548TIP3    H141203   1.127   6.277   8.605
 6548TIP3    H241204   1.140   6.427   8.596
 6549TIP3   OH241205   2.058   6.476   1.563
 6549TIP3    H141206   2.119   6.481   1.490
 6549TIP3    H241207   1.981   6.432   1.527
 6550TIP3   OH241208   2.764   0.718   7.996
 6550TIP3    H141209   2.671   0.738   8.008
 6550TIP3    H241210   2.776   0.633   8.038
 6551TIP3   OH241211   2.558   3.759   7.448
 6551TIP3    H141212   2.630   3.752   7.511
 6551TIP3    H241213   2.570   3.845   7.408
 6552TIP3   OH241214   2.918   6.204   0.337
 6552TIP3    H141215   2.828   6.225   0.312
 6552TIP3    H241216   2.935   6.259   0.413
 6553TIP3   OH241217   3.174   0.097   6.880
 6553TIP3    H141218   3.089   0.129   6.849
 6553TIP3    H241219   3.235   0.118   6.810
 6554TIP3   OH241220   5.385   4.949   0.864
 6554TIP3    H141221   5.315   4.954   0.930
 6554TIP3    H241222   5.446   5.018   0.891
 6555TIP3   OH241223   3.652   3.016   8.377
 6555TIP3    H141224   3.646   2.945   8.312
 6555TIP3    H241225   3.580   3.075   8.355
 6556TIP3   OH241226   3.514   3.528   8.056
 6556TIP3    H141227   3.593   3.561   8.098
 6556TIP3    H241228   3.519   3.433   8.067
 6557TIP3   OH241229   2.939   1.003   5.992
 6557TIP3    H141230   2.919   1.040   5.906
 6557TIP3    H241231   3.011   1.057   6.026
 6558TIP3   OH241232   1.946   4.365   1.922
 6558TIP3    H141233   2.004   4.334   1.991
 6558TIP3    H241234   1.887   4.427   1.966
 6559TIP3   OH241235   1.107   1.185   7.959
 6559TIP3    H141236   1.011   1.185   7.953
 6559TIP3    H241237   1.136   1.218   7.874
 6560TIP3   OH241238   5.013   4.973   6.685
 6560TIP3    H141239   4.957   4.983   6.608
 6560TIP3    H241240   4.956   4.936   6.752
 6561TIP3   OH241241   6.543   5.761   0.468
 6561TIP3    H141242   6.490   5.835   0.500
 6561TIP3    H241243   6.482   5.688   0.461
 6562TIP3   OH241244   4.894   5.752   0.208
 6562TIP3    H141245   4.827   5.819   0.199
 6562TIP3    H241246   4.967   5.782   0.155
 6563TIP3   OH241247   2.217   1.755   7.293
 6563TIP3    H141248   2.227   1.679   7.235
 6563TIP3    H241249   2.176   1.720   7.372
 6564TIP3   OH241250   6.674   0.592   2.330
 6564TIP3    H141251   6.734   0.566   2.400
 6564TIP3    H241252   6.600   0.531   2.338
 6565TIP3   OH241253   6.011   6.463   1.608
 6565TIP3    H141254   6.053   6.453   1.693
 6565TIP3    H241255   5.922   6.493   1.629
 6566TIP3   OH241256   3.541   2.538   0.788
 6566TIP3    H141257   3.545   2.565   0.880
 6566TIP3    H241258   3.454   2.499   0.779
 6567TIP3   OH241259   6.511   2.453   1.192
 6567TIP3    H141260   6.574   2.382   1.181
 6567TIP3    H241261   6.464   2.433   1.272
 6568TIP3   OH241262   0.613   6.663   1.210
 6568TIP3    H141263   0.637   6.659   1.117
 6568TIP3    H241264   0.615   6.571   1.239
 6569TIP3   OH241265   6.680   2.423   0.853
 6569TIP3    H141266   6.714   2.369   0.924
 6569TIP3    H241267   6.733   2.502   0.855
 6570TIP3   OH241268   4.640   2.079   7.690
 6570TIP3    H141269   4.685   1.994   7.685
 6570TIP3    H241270   4.704   2.138   7.730
 6571TIP3   OH241271   0.117   6.154   0.601
 6571TIP3    H141272   0.107   6.086   0.535
 6571TIP3    H241273   0.029   6.166   0.637
 6572TIP3   OH241274   3.054   5.995   8.223
 6572TIP3    H141275   3.105   5.962   8.148
 6572TIP3    H241276   3.117   6.001   8.294
 6573TIP3   OH241277   5.644   2.614   1.797
 6573TIP3    H141278   5.645   2.591   1.704
 6573TIP3    H241279   5.552   2.625   1.818
 6574TIP3   OH241280   6.171   4.626   8.173
 6574TIP3    H141281   6.151   4.539   8.207
 6574TIP3    H241282   6.248   4.654   8.221
 6575TIP3   OH241283   0.760   3.160   8.396
 6575TIP3    H141284   0.706   3.225   8.440
 6575TIP3    H241285   0.849   3.195   8.403
 6576TIP3   OH241286   6.412   0.830   8.628
 6576TIP3    H141287   6.342   0.850   8.566
 6576TIP3    H241288   6.403   0.736   8.645
 6577TIP3   OH241289   2.794   4.520   7.774
 6577TIP3    H141290   2.879   4.508   7.815
 6577TIP3    H241291   2.751   4.435   7.779
 6578TIP3   OH241292   2.715   3.864   1.156
 6578TIP3    H141293   2.759   3.873   1.072
 6578TIP3    H241294   2.655   3.939   1.159
 6579TIP3   OH241295   1.085   4.558   2.153
 6579TIP3    H141296   1.010   4.612   2.131
 6579TIP3    H241297   1.052   4.495   2.216
 6580TIP3   OH241298   6.510   2.110   0.911
 6580TIP3    H141299   6.580   2.158   0.954
 6580TIP3    H241300   6.550   2.075   0.831
 6581TIP3   OH241301   0.707   5.023   0.789
 6581TIP3    H141302   0.752   5.021   0.704
 6581TIP3    H241303   0.631   5.079   0.774
 6582TIP3   OH241304   6.343   3.235   0.638
 6582TIP3    H141305   6.372   3.276   0.556
 6582TIP3    H241306   6.410   3.258   0.702
 6583TIP3   OH241307   6.451   0.014   2.126
 6583TIP3    H141308   6.516   0.075   2.091
 6583TIP3    H241309   6.397   0.066   2.185
 6584TIP3   OH241310   4.078   1.254   8.510
 6584TIP3    H141311   4.027   1.180   8.543
 6584TIP3    H241312   4.028   1.331   8.536
 6585TIP3   OH241313   1.993   6.340   8.302
 6585TIP3    H141314   1.905   6.312   8.326
 6585TIP3    H241315   2.051   6.282   8.352
 6586TIP3   OH241316   3.134   1.091   2.068
 6586TIP3    H141317   3.047   1.129   2.069
 6586TIP3    H241318   3.134   1.031   1.994
 6587TIP3   OH241319   3.944   1.066   8.182
 6587TIP3    H141320   3.868   1.035   8.133
 6587TIP3    H241321   3.947   1.008   8.258
 6588TIP3   OH241322   5.898   0.661   7.905
 6588TIP3    H141323   5.860   0.635   7.821
 6588TIP3    H241324   5.831   0.718   7.944
 6589TIP3   OH241325   4.230   4.764   8.045
 6589TIP3    H141326   4.163   4.695   8.038
 6589TIP3    H241327   4.307   4.719   8.079
 6590TIP3   OH241328   0.433   5.463   1.314
 6590TIP3    H141329   0.368   5.399   1.343
 6590TIP3    H241330   0.506   5.453   1.376
 6591TIP3   OH241331   3.754   1.103   7.791
 6591TIP3    H141332   3.730   1.126   7.702
 6591TIP3    H241333   3.715   1.172   7.845
 6592TIP3   OH241334   3.423   0.577   1.356
 6592TIP3    H141335   3.506   0.584   1.404
 6592TIP3    H241336   3.450   0.570   1.264
 6593TIP3   OH241337   6.359   3.332   8.076
 6593TIP3    H141338   6.291   3.386   8.116
 6593TIP3    H241339   6.350   3.247   8.118
 6594TIP3   OH241340   5.732   5.186   6.986
 6594TIP3    H141341   5.820   5.176   7.023
 6594TIP3    H241342   5.744   5.176   6.892
 6595TIP3   OH241343   5.689   1.640   1.337
 6595TIP3    H141344   5.752   1.568   1.344
 6595TIP3    H241345   5.643   1.640   1.421
 6596TIP3   OH241346   6.388   2.097   7.827
 6596TIP3    H141347   6.343   2.140   7.901
 6596TIP3    H241348   6.321   2.090   7.760
 6597TIP3   OH241349   4.449   6.165   2.222
 6597TIP3    H141350   4.447   6.111   2.301
 6597TIP3    H241351   4.477   6.104   2.153
 6598TIP3   OH241352   5.175   3.097   8.807
 6598TIP3    H141353   5.123   3.132   8.735
 6598TIP3    H241354   5.155   3.004   8.809
 6599TIP3   OH241355   0.346   1.962   7.103
 6599TIP3    H141356   0.418   1.918   7.059
 6599TIP3    H241357   0.271   1.903   7.092
 6600TIP3   OH241358   5.249   1.684   0.081
 6600TIP3    H141359   5.171   1.732   0.112
 6600TIP3    H241360   5.215   1.622   0.017
 6601TIP3   OH241361   3.006   4.226   7.989
 6601TIP3    H141362   2.924   4.219   8.039
 6601TIP3    H241363   3.066   4.165   8.033
 6602TIP3   OH241364   4.281   5.876   0.102
 6602TIP3    H141365   4.237   5.950   0.144
 6602TIP3    H241366   4.216   5.806   0.102
 6603TIP3   OH241367   6.016   2.354   2.577
 6603TIP3    H141368   6.101   2.352   2.533
 6603TIP3    H241369   6.002   2.447   2.597
 6604TIP3   OH241370   3.591   2.472   1.395
 6604TIP3    H141371   3.539   2.393   1.410
 6604TIP3    H241372   3.528   2.537   1.364
 6605TIP3   OH241373   4.553   1.464   0.850
 6605TIP3    H141374   4.558   1.527   0.778
 6605TIP3    H241375   4.542   1.379   0.807
 6606TIP3   OH241376   5.027   5.963   6.843
 6606TIP3    H141377   4.953   5.909   6.816
 6606TIP3    H241378   5.102   5.926   6.796
 6607TIP3   OH241379   6.462   2.624   7.948
 6607TIP3    H141380   6.547   2.614   7.991
 6607TIP3    H241381   6.479   2.679   7.872
 6608TIP3   OH241382   3.518   5.288   7.679
 6608TIP3    H141383   3.504   5.288   7.585
 6608TIP3    H241384   3.446   5.237   7.715
 6609TIP3   OH241385   3.473   5.470   0.138
 6609TIP3    H141386   3.426   5.550   0.160
 6609TIP3    H241387   3.431   5.402   0.190
 6610TIP3   OH241388   5.406   3.441   7.539
 6610TIP3    H141389   5.392   3.368   7.600
 6610TIP3    H241390   5.354   3.418   7.462
 6611TIP3   OH241391   0.873   6.263   8.237
 6611TIP3    H141392   0.934   6.238   8.167
 6611TIP3    H241393   0.792   6.286   8.191
 6612TIP3   OH241394   1.551   5.749   2.585
 6612TIP3    H141395   1.611   5.788   2.522
 6612TIP3    H241396   1.573   5.790   2.668
 6613TIP3   OH241397   5.439   6.690   7.913
 6613TIP3    H141398   5.531   6.670   7.895
 6613TIP3    H241399   5.440   6.732   7.998
 6614TIP3   OH241400   4.925   2.683   7.207
 6614TIP3    H141401   4.933   2.718   7.296
 6614TIP3    H241402   4.872   2.605   7.217
 6615TIP3   OH241403   4.682   5.642   8.518
 6615TIP3    H141404   4.644   5.587   8.587
 6615TIP3    H241405   4.723   5.579   8.458
 6616TIP3   OH241406   3.895   1.767   0.918
 6616TIP3    H141407   3.894   1.719   1.001
 6616TIP3    H241408   3.971   1.733   0.871
 6617TIP3   OH241409   3.801   1.952   7.181
 6617TIP3    H141410   3.726   1.980   7.130
 6617TIP3    H241411   3.781   1.980   7.271
 6618TIP3   OH241412   3.726   5.414   0.450
 6618TIP3    H141413   3.732   5.437   0.358
 6618TIP3    H241414   3.801   5.457   0.491
 6619TIP3   OH241415   4.980   4.747   0.129
 6619TIP3    H141416   4.984   4.841   0.149
 6619TIP3    H241417   4.907   4.714   0.182
 6620TIP3   OH241418   1.242   1.279   0.624
 6620TIP3    H141419   1.174   1.339   0.595
 6620TIP3    H241420   1.291   1.259   0.544
 6621TIP3   OH241421   6.593   4.700   1.578
 6621TIP3    H141422   6.647   4.624   1.600
 6621TIP3    H241423   6.586   4.749   1.659
 6622TIP3   OH241424   6.224   4.204   0.550
 6622TIP3    H141425   6.244   4.247   0.467
 6622TIP3    H241426   6.207   4.276   0.610
 6623TIP3   OH241427   3.599   5.997   7.437
 6623TIP3    H141428   3.654   6.073   7.416
 6623TIP3    H241429   3.563   5.970   7.353
 6624TIP3   OH241430   2.318   5.342   8.151
 6624TIP3    H141431   2.406   5.368   8.124
 6624TIP3    H241432   2.333   5.280   8.223
 6625TIP3   OH241433   1.073   5.475   8.416
 6625TIP3    H141434   1.021   5.543   8.373
 6625TIP3    H241435   1.127   5.522   8.479
 6626TIP3   OH241436   5.212   4.548   2.268
 6626TIP3    H141437   5.215   4.568   2.175
 6626TIP3    H241438   5.211   4.453   2.273
 6627TIP3   OH241439   5.876   1.787   7.955
 6627TIP3    H141440   5.822   1.866   7.949
 6627TIP3    H241441   5.822   1.725   8.004
 6628TIP3   OH241442   1.625   3.683   1.663
 6628TIP3    H141443   1.539   3.657   1.695
 6628TIP3    H241444   1.661   3.603   1.623
 6629TIP3   OH241445   4.634   3.725   0.602
 6629TIP3    H141446   4.542   3.697   0.598
 6629TIP3    H241447   4.683   3.649   0.572
 6630TIP3   OH241448   3.409   2.160   2.499
 6630TIP3    H141449   3.391   2.243   2.542
 6630TIP3    H241450   3.341   2.101   2.531
 6631TIP3   OH241451   3.047   5.483   8.643
 6631TIP3    H141452   2.960   5.478   8.684
 6631TIP3    H241453   3.108   5.476   8.716
 6632TIP3   OH241454   2.575   5.011   6.808
 6632TIP3    H141455   2.655   5.034   6.760
 6632TIP3    H241456   2.508   5.068   6.773
 6633TIP3   OH241457   3.836   5.526   7.993
 6633TIP3    H141458   3.878   5.513   7.909
 6633TIP3    H241459   3.903   5.569   8.047
 6634TIP3   OH241460   2.554   2.128   8.704
 6634TIP3    H141461   2.628   2.121   8.644
 6634TIP3    H241462   2.575   2.068   8.776
 6635TIP3   OH241463   0.435   3.943   8.249
 6635TIP3    H141464   0.457   3.896   8.329
 6635TIP3    H241465   0.423   3.874   8.184
 6636TIP3   OH241466   3.478   2.226   2.213
 6636TIP3    H141467   3.546   2.285   2.243
 6636TIP3    H241468   3.455   2.173   2.290
 6637TIP3   OH241469   2.901   5.815   2.065
 6637TIP3    H141470   2.928   5.885   2.124
 6637TIP3    H241471   2.892   5.858   1.979
 6638TIP3   OH241472   5.278   3.989   8.631
 6638TIP3    H141473   5.355   4.046   8.633
 6638TIP3    H241474   5.308   3.910   8.585
 6639TIP3   OH241475   3.279   1.566   1.475
 6639TIP3    H141476   3.348   1.618   1.516
 6639TIP3    H241477   3.320   1.529   1.397
 6640TIP3   OH241478   5.844   5.306   1.201
 6640TIP3    H141479   5.903   5.260   1.261
 6640TIP3    H241480   5.757   5.272   1.222
 6641TIP3   OH241481   6.585   6.385   7.996
 6641TIP3    H141482   6.650   6.407   7.928
 6641TIP3    H241483   6.628   6.319   8.049
 6642TIP3   OH241484   5.939   4.870   8.530
 6642TIP3    H141485   6.029   4.837   8.523
 6642TIP3    H241486   5.893   4.804   8.581
 6643TIP3   OH241487   6.124   1.193   8.178
 6643TIP3    H141488   6.035   1.217   8.203
 6643TIP3    H241489   6.113   1.118   8.119
 6644TIP3   OH241490   2.379   3.761   0.660
 6644TIP3    H141491   2.286   3.781   0.668
 6644TIP3    H241492   2.417   3.789   0.744
 6645TIP3   OH241493   0.253   2.021   1.583
 6645TIP3    H141494   0.200   1.960   1.635
 6645TIP3    H241495   0.189   2.071   1.532
 6646TIP3   OH241496   3.569   5.559   2.060
 6646TIP3    H141497   3.558   5.597   1.972
 6646TIP3    H241498   3.658   5.585   2.085
 6647TIP3   OH241499   1.805   4.847   0.717
 6647TIP3    H141500   1.743   4.917   0.735
 6647TIP3    H241501   1.753   4.767   0.721
 6648TIP3   OH241502   2.328   4.190   7.553
 6648TIP3    H141503   2.368   4.134   7.487
 6648TIP3    H241504   2.357   4.154   7.637
 6649TIP3   OH241505   4.002   4.369   8.144
 6649TIP3    H141506   4.018   4.435   8.076
 6649TIP3    H241507   4.023   4.414   8.226
 6650TIP3   OH241508   0.649   0.339   1.579
 6650TIP3    H141509   0.701   0.300   1.509
 6650TIP3    H241510   0.559   0.331   1.550
 6651TIP3   OH241511   5.634   5.209   1.352
 6651TIP3    H141512   5.630   5.264   1.430
 6651TIP3    H241513   5.572   5.138   1.368
 6652TIP3   OH241514   5.726   3.730   7.556
 6652TIP3    H141515   5.793   3.662   7.546
 6652TIP3    H241516   5.730   3.753   7.649
 6653TIP3   OH241517   6.585   0.093   7.333
 6653TIP3    H141518   6.624   0.037   7.266
 6653TIP3    H241519   6.495   0.106   7.303
 6654TIP3   OH241520   0.953   2.763   6.958
 6654TIP3    H141521   0.920   2.811   6.882
 6654TIP3    H241522   1.041   2.736   6.933
 6655TIP3   OH241523   3.425   0.318   7.074
 6655TIP3    H141524   3.515   0.329   7.105
 6655TIP3    H241525   3.414   0.387   7.009
 6656TIP3   OH241526   2.670   6.165   8.907
 6656TIP3    H141527   2.611   6.128   0.059
 6656TIP3    H241528   2.755   6.126   0.012
 6657TIP3   OH241529   5.286   3.298   7.355
 6657TIP3    H141530   5.302   3.326   7.265
 6657TIP3    H241531   5.191   3.293   7.363
 6658TIP3   OH241532   1.162   3.396   6.715
 6658TIP3    H141533   1.195   3.314   6.679
 6658TIP3    H241534   1.235   3.432   6.765
 6659TIP3   OH241535   1.443   3.288   8.714
 6659TIP3    H141536   1.429   3.279   8.809
 6659TIP3    H241537   1.377   3.351   8.686
 6660TIP3   OH241538   1.524   1.549   8.156
 6660TIP3    H141539   1.567   1.625   8.194
 6660TIP3    H241540   1.463   1.585   8.092
 6661TIP3   OH241541   3.579   4.999   1.060
 6661TIP3    H141542   3.628   4.943   1.120
 6661TIP3    H241543   3.632   5.079   1.053
 6662TIP3   OH241544   0.989   1.670   7.921
 6662TIP3    H141545   1.043   1.690   7.845
 6662TIP3    H241546   0.934   1.596   7.892
 6663TIP3   OH241547   5.947   1.933   0.332
 6663TIP3    H141548   5.971   2.019   0.366
 6663TIP3    H241549   5.937   1.878   0.409
 6664TIP3   OH241550   5.158   5.047   8.233
 6664TIP3    H141551   5.128   5.058   8.143
 6664TIP3    H241552   5.252   5.029   8.225
 6665TIP3   OH241553   0.828   0.105   8.190
 6665TIP3    H141554   0.831   0.173   8.257
 6665TIP3    H241555   0.833   0.152   8.107
 6666TIP3   OH241556   2.058   3.834   1.680
 6666TIP3    H141557   1.976   3.844   1.633
 6666TIP3    H241558   2.052   3.748   1.721
 6667TIP3   OH241559   0.636   2.864   2.586
 6667TIP3    H141560   0.689   2.939   2.558
 6667TIP3    H241561   0.570   2.902   2.644
 6668TIP3   OH241562   5.703   3.640   8.692
 6668TIP3    H141563   5.720   3.661   8.784
 6668TIP3    H241564   5.609   3.628   8.687
 6669TIP3   OH241565   6.454   2.300   0.400
 6669TIP3    H141566   6.539   2.308   0.357
 6669TIP3    H241567   6.474   2.300   0.493
 6670TIP3   OH241568   4.689   2.805   1.826
 6670TIP3    H141569   4.746   2.737   1.862
 6670TIP3    H241570   4.654   2.849   1.903
 6671TIP3   OH241571   6.069   2.146   0.648
 6671TIP3    H141572   6.133   2.177   0.712
 6671TIP3    H241573   6.080   2.051   0.647
 6672TIP3   OH241574   2.342   2.439   7.475
 6672TIP3    H141575   2.380   2.510   7.423
 6672TIP3    H241576   2.357   2.465   7.566
 6673TIP3   OH241577   0.598   4.578   0.656
 6673TIP3    H141578   0.504   4.567   0.666
 6673TIP3    H241579   0.608   4.636   0.580
 6674TIP3   OH241580   2.416   0.529   1.647
 6674TIP3    H141581   2.321   0.540   1.654
 6674TIP3    H241582   2.434   0.531   1.553
 6675TIP3   OH241583   5.805   5.045   7.931
 6675TIP3    H141584   5.762   5.119   7.973
 6675TIP3    H241585   5.836   5.079   7.847
 6676TIP3   OH241586   2.543   3.090   0.291
 6676TIP3    H141587   2.603   3.134   0.230
 6676TIP3    H241588   2.478   3.048   0.234
 6677TIP3   OH241589   1.653   4.847   8.875
 6677TIP3    H141590   1.726   4.833   0.021
 6677TIP3    H241591   1.649   4.768   8.822
 6678TIP3   OH241592   1.016   1.424   0.577
 6678TIP3    H141593   0.988   1.441   0.667
 6678TIP3    H241594   0.962   1.482   0.523
 6679TIP3   OH241595   5.450   5.577   8.470
 6679TIP3    H141596   5.473   5.601   8.380
 6679TIP3    H241597   5.509   5.506   8.492
 6680TIP3   OH241598   0.418   5.669   7.115
 6680TIP3    H141599   0.362   5.736   7.075
 6680TIP3    H241600   0.373   5.645   7.196
 6681TIP3   OH241601   3.875   1.141   8.880
 6681TIP3    H141602   3.922   1.064   8.849
 6681TIP3    H241603   3.895   1.147   0.059
 6682TIP3   OH241604   6.644   2.226   1.984
 6682TIP3    H141605   6.663   2.256   2.073
 6682TIP3    H241606   6.708   2.272   1.930
 6683TIP3   OH241607   1.164   0.022   1.176
 6683TIP3    H141608   1.195   6.721   1.224
 6683TIP3    H241609   1.093   6.766   1.122
 6684TIP3   OH241610   4.414   1.206   7.664
 6684TIP3    H141611   4.503   1.241   7.661
 6684TIP3    H241612   4.416   1.132   7.603
 6685TIP3   OH241613   2.223   0.829   0.583
 6685TIP3    H141614   2.242   0.761   0.648
 6685TIP3    H241615   2.300   0.828   0.525
 6686TIP3   OH241616   5.534   2.628   7.592
 6686TIP3    H141617   5.483   2.657   7.667
 6686TIP3    H241618   5.522   2.697   7.526
 6687TIP3   OH241619   0.527   2.877   7.164
 6687TIP3    H141620   0.556   2.788   7.147
 6687TIP3    H241621   0.443   2.884   7.118
 6688TIP3   OH241622   1.625   1.017   7.277
 6688TIP3    H141623   1.645   0.946   7.217
 6688TIP3    H241624   1.593   1.088   7.221
 6689TIP3   OH241625   1.870   0.286   7.284
 6689TIP3    H141626   1.830   0.200   7.298
 6689TIP3    H241627   1.948   0.284   7.339
 6690TIP3   OH241628   1.772   6.021   7.133
 6690TIP3    H141629   1.863   6.045   7.152
 6690TIP3    H241630   1.769   5.926   7.146
 6691TIP3   OH241631   6.122   0.720   0.245
 6691TIP3    H141632   6.107   0.802   0.292
 6691TIP3    H241633   6.034   0.683   0.232
 6692TIP3   OH241634   4.447   5.160   7.558
 6692TIP3    H141635   4.367   5.108   7.549
 6692TIP3    H241636   4.511   5.099   7.595
 6693TIP3   OH241637   3.165   0.001   8.170
 6693TIP3    H141638   3.113   6.740   8.099
 6693TIP3    H241639   3.166   0.095   8.152
 6694TIP3   OH241640   2.662   6.241   1.528
 6694TIP3    H141641   2.633   6.322   1.486
 6694TIP3    H241642   2.585   6.184   1.527
 6695TIP3   OH241643   2.959   2.235   0.432
 6695TIP3    H141644   3.013   2.171   0.479
 6695TIP3    H241645   2.916   2.184   0.363
 6696TIP3   OH241646   3.393   2.091   7.659
 6696TIP3    H141647   3.426   2.030   7.725
 6696TIP3    H241648   3.303   2.110   7.687
 6697TIP3   OH241649   2.820   1.775   0.153
 6697TIP3    H141650   2.851   1.704   0.210
 6697TIP3    H241651   2.724   1.769   0.157
 6698TIP3   OH241652   2.052   3.744   6.904
 6698TIP3    H141653   1.974   3.787   6.937
 6698TIP3    H241654   2.020   3.687   6.834
 6699TIP3   OH241655   4.746   2.371   2.242
 6699TIP3    H141656   4.766   2.295   2.186
 6699TIP3    H241657   4.824   2.384   2.294
 6700TIP3   OH241658   3.483   1.379   2.559
 6700TIP3    H141659   3.568   1.346   2.532
 6700TIP3    H241660   3.433   1.301   2.582
 6701TIP3   OH241661   3.236   2.455   1.714
 6701TIP3    H141662   3.245   2.417   1.801
 6701TIP3    H241663   3.280   2.540   1.720
 6702TIP3   OH241664   6.203   6.574   7.950
 6702TIP3    H141665   6.238   6.605   8.034
 6702TIP3    H241666   6.280   6.566   7.894
 6703TIP3   OH241667   5.533   3.857   2.424
 6703TIP3    H141668   5.592   3.933   2.427
 6703TIP3    H241669   5.466   3.876   2.490
 6704TIP3   OH241670   5.197   4.298   8.035
 6704TIP3    H141671   5.146   4.219   8.047
 6704TIP3    H241672   5.205   4.336   8.123
 6705TIP3   OH241673   4.462   3.061   6.605
 6705TIP3    H141674   4.522   3.112   6.551
 6705TIP3    H241675   4.432   2.990   6.548
 6706TIP3   OH241676   3.018   5.217   1.373
 6706TIP3    H141677   3.036   5.127   1.402
 6706TIP3    H241678   3.104   5.254   1.356
 6707TIP3   OH241679   3.581   2.018   2.062
 6707TIP3    H141680   3.537   2.083   2.118
 6707TIP3    H241681   3.628   1.961   2.123
 6708TIP3   OH241682   3.268   4.872   1.947
 6708TIP3    H141683   3.266   4.967   1.957
 6708TIP3    H241684   3.185   4.842   1.985
 6709TIP3   OH241685   0.121   4.698   7.081
 6709TIP3    H141686   0.178   4.678   7.007
 6709TIP3    H241687   0.166   4.767   7.130
 6710TIP3   OH241688   0.617   1.780   0.671
 6710TIP3    H141689   0.627   1.700   0.721
 6710TIP3    H241690   0.601   1.751   0.581
 6711TIP3   OH241691   3.347   4.507   1.943
 6711TIP3    H141692   3.379   4.466   2.023
 6711TIP3    H241693   3.301   4.437   1.897
 6712TIP3   OH241694   3.531   1.808   8.125
 6712TIP3    H141695   3.616   1.852   8.121
 6712TIP3    H241696   3.544   1.736   8.187
 6713TIP3   OH241697   2.333   3.382   7.540
 6713TIP3    H141698   2.388   3.406   7.466
 6713TIP3    H241699   2.394   3.377   7.614
 6714TIP3   OH241700   0.099   2.623   0.831
 6714TIP3    H141701   0.066   2.684   0.897
 6714TIP3    H241702   0.193   2.640   0.827
 6715TIP3   OH241703   6.054   6.394   8.315
 6715TIP3    H141704   6.065   6.309   8.271
 6715TIP3    H241705   6.112   6.389   8.391
 6716TIP3   OH241706   1.277   5.388   1.914
 6716TIP3    H141707   1.257   5.398   2.007
 6716TIP3    H241708   1.222   5.315   1.885
 6717TIP3   OH241709   5.496   3.726   1.141
 6717TIP3    H141710   5.497   3.691   1.230
 6717TIP3    H241711   5.415   3.776   1.136
 6718TIP3   OH241712   2.262   2.127   1.178
 6718TIP3    H141713   2.282   2.033   1.180
 6718TIP3    H241714   2.174   2.133   1.214
 6719TIP3   OH241715   2.886   2.504   0.528
 6719TIP3    H141716   2.794   2.497   0.555
 6719TIP3    H241717   2.919   2.415   0.533
 6720TIP3   OH241718   3.374   6.455   1.867
 6720TIP3    H141719   3.311   6.507   1.816
 6720TIP3    H241720   3.326   6.429   1.945
 6721TIP3   OH241721   2.000   1.373   1.447
 6721TIP3    H141722   1.921   1.323   1.426
 6721TIP3    H241723   2.038   1.328   1.523
 6722TIP3   OH241724   3.164   3.773   6.342
 6722TIP3    H141725   3.127   3.861   6.327
 6722TIP3    H241726   3.240   3.788   6.398
 6723TIP3   OH241727   4.193   2.273   8.479
 6723TIP3    H141728   4.183   2.295   8.572
 6723TIP3    H241729   4.288   2.267   8.467
 6724TIP3   OH241730   3.825   2.777   8.847
 6724TIP3    H141731   3.796   2.868   8.852
 6724TIP3    H241732   3.778   2.741   8.772
 6725TIP3   OH241733   4.777   2.103   8.177
 6725TIP3    H141734   4.782   2.188   8.134
 6725TIP3    H241735   4.833   2.046   8.124
 6726TIP3   OH241736   0.401   5.054   0.764
 6726TIP3    H141737   0.351   5.135   0.755
 6726TIP3    H241738   0.336   4.984   0.753
 6727TIP3   OH241739   1.060   1.666   7.265
 6727TIP3    H141740   1.152   1.653   7.284
 6727TIP3    H241741   1.059   1.724   7.189
 6728TIP3   OH241742   5.357   0.474   1.029
 6728TIP3    H141743   5.450   0.481   1.008
 6728TIP3    H241744   5.344   0.532   1.104
 6729TIP3   OH241745   4.906   0.221   0.979
 6729TIP3    H141746   4.930   0.306   1.017
 6729TIP3    H241747   4.951   0.157   1.034
 6730TIP3   OH241748   4.020   6.653   2.351
 6730TIP3    H141749   3.946   6.662   2.411
 6730TIP3    H241750   4.039   6.559   2.352
 6731TIP3   OH241751   4.852   5.791   1.890
 6731TIP3    H141752   4.846   5.885   1.905
 6731TIP3    H241753   4.802   5.752   1.962
 6732TIP3   OH241754   1.034   3.777   0.935
 6732TIP3    H141755   1.066   3.721   1.006
 6732TIP3    H241756   0.944   3.746   0.920
 6733TIP3   OH241757   3.814   5.621   2.153
 6733TIP3    H141758   3.876   5.628   2.081
 6733TIP3    H241759   3.865   5.585   2.225
 6734TIP3   OH241760   5.116   0.783   1.434
 6734TIP3    H141761   5.192   0.839   1.447
 6734TIP3    H241762   5.129   0.709   1.492
 6735TIP3   OH241763   1.471   0.471   1.151
 6735TIP3    H141764   1.460   0.523   1.072
 6735TIP3    H241765   1.550   0.418   1.135
 6736TIP3   OH241766   2.705   4.076   8.904
 6736TIP3    H141767   2.629   4.019   0.006
 6736TIP3    H241768   2.668   4.157   8.872
 6737TIP3   OH241769   6.652   4.123   1.487
 6737TIP3    H141770   6.735   4.131   1.441
 6737TIP3    H241771   6.588   4.164   1.429
 6738TIP3   OH241772   2.185   1.140   2.049
 6738TIP3    H141773   2.175   1.225   2.091
 6738TIP3    H241774   2.275   1.141   2.015
 6739TIP3   OH241775   6.678   3.373   8.864
 6739TIP3    H141776   6.614   3.391   0.020
 6739TIP3    H241777   6.667   3.445   8.803
 6740TIP3   OH241778   4.260   3.073   7.431
 6740TIP3    H141779   4.221   3.149   7.388
 6740TIP3    H241780   4.226   2.998   7.382
 6741TIP3   OH241781   2.439   2.742   1.224
 6741TIP3    H141782   2.413   2.707   1.139
 6741TIP3    H241783   2.426   2.837   1.216
 6742TIP3   OH241784   6.618   6.069   2.237
 6742TIP3    H141785   6.669   5.989   2.226
 6742TIP3    H241786   6.583   6.063   2.326
 6743TIP3   OH241787   3.511   1.650   8.564
 6743TIP3    H141788   3.603   1.661   8.540
 6743TIP3    H241789   3.502   1.696   8.648
 6744TIP3   OH241790   0.772   0.166   1.159
 6744TIP3    H141791   0.798   0.074   1.166
 6744TIP3    H241792   0.695   0.173   1.216
 6745TIP3   OH241793   6.636   2.157   8.068
 6745TIP3    H141794   6.581   2.234   8.053
 6745TIP3    H241795   6.592   2.110   8.139
 6746TIP3   OH241796   6.678   4.312   0.448
 6746TIP3    H141797   6.771   4.330   0.441
 6746TIP3    H241798   6.637   4.369   0.383
 6747TIP3   OH241799   5.355   0.834   8.891
 6747TIP3    H141800   5.344   0.739   8.881
 6747TIP3    H241801   5.437   0.853   8.846
 6748TIP3   OH241802   5.391   4.584   8.407
 6748TIP3    H141803   5.370   4.551   8.494
 6748TIP3    H241804   5.306   4.603   8.368
 6749TIP3   OH241805   0.011   1.339   2.084
 6749TIP3    H141806   6.744   1.367   2.004
 6749TIP3    H241807   6.769   1.408   2.148
 6750TIP3   OH241808   4.711   0.755   1.054
 6750TIP3    H141809   4.639   0.739   1.116
 6750TIP3    H241810   4.740   0.844   1.074
 6751TIP3   OH241811   5.281   2.334   8.604
 6751TIP3    H141812   5.213   2.393   8.636
 6751TIP3    H241813   5.339   2.321   8.680
 6752TIP3   OH241814   3.044   3.934   6.791
 6752TIP3    H141815   3.055   4.028   6.803
 6752TIP3    H241816   2.968   3.912   6.844
 6753TIP3   OH241817   0.016   4.126   6.357
 6753TIP3    H141818   0.097   4.128   6.307
 6753TIP3    H241819   6.725   4.155   6.296
 6754TIP3   OH241820   6.758   6.182   1.155
 6754TIP3    H141821   6.683   6.132   1.186
 6754TIP3    H241822   6.726   6.272   1.146
 6755TIP3   OH241823   3.476   6.526   8.489
 6755TIP3    H141824   3.520   6.611   8.493
 6755TIP3    H241825   3.487   6.497   8.399
 6756TIP3   OH241826   3.568   3.407   1.774
 6756TIP3    H141827   3.633   3.349   1.735
 6756TIP3    H241828   3.519   3.442   1.699
 6757TIP3   OH241829   1.253   6.536   0.107
 6757TIP3    H141830   1.183   6.547   0.172
 6757TIP3    H241831   1.300   6.458   0.136
 6758TIP3   OH241832   2.371   1.927   7.451
 6758TIP3    H141833   2.332   2.010   7.424
 6758TIP3    H241834   2.348   1.866   7.380
 6759TIP3   OH241835   4.028   6.280   7.395
 6759TIP3    H141836   4.123   6.294   7.403
 6759TIP3    H241837   3.994   6.304   7.481
 6760TIP3   OH241838   4.053   3.107   1.455
 6760TIP3    H141839   4.020   3.172   1.517
 6760TIP3    H241840   4.132   3.072   1.497
 6761TIP3   OH241841   2.705   3.877   6.623
 6761TIP3    H141842   2.722   3.886   6.717
 6761TIP3    H241843   2.785   3.838   6.588
 6762TIP3   OH241844   4.112   1.792   2.112
 6762TIP3    H141845   4.090   1.799   2.205
 6762TIP3    H241846   4.169   1.716   2.107
 6763TIP3   OH241847   0.598   3.050   1.456
 6763TIP3    H141848   0.645   3.116   1.407
 6763TIP3    H241849   0.649   2.970   1.444
 6764TIP3   OH241850   0.480   3.796   0.020
 6764TIP3    H141851   0.545   3.832   8.875
 6764TIP3    H241852   0.445   3.720   8.887
 6765TIP3   OH241853   1.080   4.076   7.052
 6765TIP3    H141854   0.991   4.046   7.033
 6765TIP3    H241855   1.075   4.171   7.040
 6766TIP3   OH241856   3.189   0.898   0.352
 6766TIP3    H141857   3.265   0.855   0.392
 6766TIP3    H241858   3.221   0.987   0.331
 6767TIP3   OH241859   0.397   0.531   1.938
 6767TIP3    H141860   0.428   0.539   2.028
 6767TIP3    H241861   0.315   0.580   1.936
 6768TIP3   OH241862   5.791   6.296   0.883
 6768TIP3    H141863   5.786   6.368   0.946
 6768TIP3    H241864   5.884   6.273   0.881
 6769TIP3   OH241865   6.745   5.577   8.553
 6769TIP3    H141866   6.713   5.659   8.592
 6769TIP3    H241867   6.666   5.531   8.525
 6770TIP3   OH241868   2.843   4.569   0.438
 6770TIP3    H141869   2.845   4.505   0.509
 6770TIP3    H241870   2.929   4.560   0.396
 6771TIP3   OH241871   4.437   1.457   0.248
 6771TIP3    H141872   4.447   1.545   0.212
 6771TIP3    H241873   4.515   1.444   0.303
 6772TIP3   OH241874   3.520   1.593   8.311
 6772TIP3    H141875   3.586   1.529   8.286
 6772TIP3    H241876   3.541   1.616   8.401
 6773TIP3   OH241877   1.234   1.058   1.070
 6773TIP3    H141878   1.311   1.111   1.049
 6773TIP3    H241879   1.267   0.969   1.074
 6774TIP3   OH241880   1.033   2.296   2.126
 6774TIP3    H141881   0.938   2.288   2.120
 6774TIP3    H241882   1.059   2.229   2.190
 6775TIP3   OH241883   2.268   5.047   0.084
 6775TIP3    H141884   2.254   5.110   0.014
 6775TIP3    H241885   2.183   5.003   0.094
 6776TIP3   OH241886   5.883   3.281   0.568
 6776TIP3    H141887   5.848   3.224   0.500
 6776TIP3    H241888   5.953   3.330   0.525
 6777TIP3   OH241889   1.586   0.924   6.537
 6777TIP3    H141890   1.667   0.872   6.536
 6777TIP3    H241891   1.609   1.004   6.491
 6778TIP3   OH241892   5.248   0.647   1.208
 6778TIP3    H141893   5.292   0.730   1.188
 6778TIP3    H241894   5.162   0.674   1.241
 6779TIP3   OH241895   0.943   6.243   0.463
 6779TIP3    H141896   0.893   6.168   0.431
 6779TIP3    H241897   0.877   6.309   0.483
 6780TIP3   OH241898   6.496   2.306   1.462
 6780TIP3    H141899   6.575   2.278   1.417
 6780TIP3    H241900   6.510   2.280   1.553
 6781TIP3   OH241901   2.210   3.830   2.253
 6781TIP3    H141902   2.165   3.746   2.262
 6781TIP3    H241903   2.298   3.807   2.222
 6782TIP3   OH241904   4.654   1.979   8.887
 6782TIP3    H141905   4.593   1.905   8.896
 6782TIP3    H241906   4.624   2.043   0.037
 6783TIP3   OH241907   1.069   1.554   1.166
 6783TIP3    H141908   1.046   1.641   1.200
 6783TIP3    H241909   1.000   1.535   1.103
 6784TIP3   OH241910   1.747   2.287   0.880
 6784TIP3    H141911   1.671   2.252   0.926
 6784TIP3    H241912   1.760   2.374   0.918
 6785TIP3   OH241913   3.172   0.085   2.353
 6785TIP3    H141914   3.137   0.040   2.429
 6785TIP3    H241915   3.114   0.161   2.341
 6786TIP3   OH241916   6.100   3.923   0.592
 6786TIP3    H141917   6.175   3.981   0.606
 6786TIP3    H241918   6.095   3.913   0.497
 6787TIP3   OH241919   2.622   0.974   8.138
 6787TIP3    H141920   2.711   0.952   8.165
 6787TIP3    H241921   2.628   1.063   8.104
 6788TIP3   OH241922   4.895   0.550   1.016
 6788TIP3    H141923   4.830   0.621   1.014
 6788TIP3    H241924   4.946   0.567   1.096
 6789TIP3   OH241925   2.321   5.368   8.880
 6789TIP3    H141926   2.393   5.309   8.857
 6789TIP3    H241927   2.292   5.405   8.796
 6790TIP3   OH241928   0.239   2.127   0.874
 6790TIP3    H141929   0.262   2.197   0.935
 6790TIP3    H241930   0.218   2.171   0.792
 6791TIP3   OH241931   4.793   1.262   1.040
 6791TIP3    H141932   4.854   1.223   1.102
 6791TIP3    H241933   4.740   1.322   1.093
 6792TIP3   OH241934   5.532   4.979   7.560
 6792TIP3    H141935   5.490   5.059   7.589
 6792TIP3    H241936   5.625   5.000   7.555
 6793TIP3   OH241937   3.108   4.183   2.113
 6793TIP3    H141938   3.191   4.187   2.161
 6793TIP3    H241939   3.097   4.271   2.077
 6794TIP3   OH241940   5.221   4.446   1.868
 6794TIP3    H141941   5.209   4.368   1.813
 6794TIP3    H241942   5.283   4.419   1.935
 6795TIP3   OH241943   5.696   0.596   6.960
 6795TIP3    H141944   5.746   0.612   7.040
 6795TIP3    H241945   5.689   0.682   6.919
 6796TIP3   OH241946   5.953   0.906   8.605
 6796TIP3    H141947   6.020   0.943   8.549
 6796TIP3    H241948   6.000   0.876   8.683
 6797TIP3   OH241949   2.303   4.498   1.306
 6797TIP3    H141950   2.390   4.509   1.266
 6797TIP3    H241951   2.321   4.484   1.399
 6798TIP3   OH241952   0.381   0.286   0.619
 6798TIP3    H141953   0.350   0.301   0.709
 6798TIP3    H241954   0.439   0.211   0.625
 6799TIP3   OH241955   1.814   2.019   1.901
 6799TIP3    H141956   1.771   1.933   1.894
 6799TIP3    H241957   1.827   2.047   1.811
 6800TIP3   OH241958   6.705   2.344   0.319
 6800TIP3    H141959   6.699   2.429   0.276
 6800TIP3    H241960   0.022   2.327   0.327
 6801TIP3   OH241961   6.267   6.199   1.009
 6801TIP3    H141962   6.252   6.202   1.103
 6801TIP3    H241963   6.180   6.187   0.971
 6802TIP3   OH241964   2.800   0.349   7.108
 6802TIP3    H141965   2.867   0.371   7.043
 6802TIP3    H241966   2.793   0.427   7.162
 6803TIP3   OH241967   2.423   3.006   1.457
 6803TIP3    H141968   2.345   2.968   1.417
 6803TIP3    H241969   2.405   3.003   1.551
 6804TIP3   OH241970   6.445   5.743   1.401
 6804TIP3    H141971   6.349   5.745   1.405
 6804TIP3    H241972   6.471   5.699   1.482
 6805TIP3   OH241973   3.696   6.555   6.799
 6805TIP3    H141974   3.746   6.635   6.786
 6805TIP3    H241975   3.762   6.485   6.797
 6806TIP3   OH241976   0.066   1.192   8.703
 6806TIP3    H141977   0.025   1.161   8.784
 6806TIP3    H241978   0.160   1.192   8.721
 6807TIP3   OH241979   2.940   6.369   1.360
 6807TIP3    H141980   2.929   6.283   1.319
 6807TIP3    H241981   3.018   6.406   1.318
 6808TIP3   OH241982   4.891   2.766   0.069
 6808TIP3    H141983   4.939   2.778   0.151
 6808TIP3    H241984   4.806   2.731   0.097
 6809TIP3   OH241985   6.347   6.592   8.800
 6809TIP3    H141986   6.426   6.624   8.757
 6809TIP3    H241987   6.315   6.522   8.743
 6810TIP3   OH241988   3.740   1.625   2.283
 6810TIP3    H141989   3.702   1.545   2.247
 6810TIP3    H241990   3.735   1.614   2.378
 6811TIP3   OH241991   2.737   4.593   0.767
 6811TIP3    H141992   2.772   4.530   0.704
 6811TIP3    H241993   2.803   4.599   0.836
 6812TIP3   OH241994   4.090   0.733   7.326
 6812TIP3    H141995   4.131   0.814   7.296
 6812TIP3    H241996   4.147   0.664   7.293
 6813TIP3   OH241997   6.286   1.616   0.619
 6813TIP3    H141998   6.326   1.631   0.533
 6813TIP3    H241999   6.194   1.598   0.600
 6814TIP3   OH242000   3.585   5.817   8.607
 6814TIP3    H142001   3.505   5.791   8.562
 6814TIP3    H242002   3.611   5.898   8.563
 6815TIP3   OH242003   5.854   5.428   8.307
 6815TIP3    H142004   5.849   5.349   8.253
 6815TIP3    H242005   5.824   5.499   8.249
 6816TIP3   OH242006   5.483   1.962   7.790
 6816TIP3    H142007   5.484   2.051   7.757
 6816TIP3    H242008   5.532   1.967   7.872
 6817TIP3   OH242009   4.984   4.613   0.887
 6817TIP3    H142010   4.889   4.614   0.898
 6817TIP3    H242011   5.008   4.520   0.889
 6818TIP3   OH242012   0.551   6.544   0.201
 6818TIP3    H142013   0.488   6.610   0.171
 6818TIP3    H242014   0.636   6.577   0.171
 6819TIP3   OH242015   5.497   0.873   6.236
 6819TIP3    H142016   5.506   0.844   6.145
 6819TIP3    H242017   5.579   0.917   6.256
 6820TIP3   OH242018   1.660   2.071   6.517
 6820TIP3    H142019   1.688   2.033   6.434
 6820TIP3    H242020   1.581   2.121   6.495
 6821TIP3   OH242021   3.388   1.221   7.378
 6821TIP3    H142022   3.309   1.247   7.425
 6821TIP3    H242023   3.376   1.256   7.290
 6822TIP3   OH242024   2.178   4.016   0.404
 6822TIP3    H142025   2.213   4.094   0.447
 6822TIP3    H242026   2.092   4.002   0.444
 6823TIP3   OH242027   3.258   0.186   8.520
 6823TIP3    H142028   3.323   0.144   8.464
 6823TIP3    H242029   3.226   0.115   8.576
 6824TIP3   OH242030   5.740   1.011   2.025
 6824TIP3    H142031   5.649   1.037   2.039
 6824TIP3    H242032   5.744   0.921   2.057
 6825TIP3   OH242033   4.491   2.044   2.223
 6825TIP3    H142034   4.515   2.076   2.310
 6825TIP3    H242035   4.547   1.968   2.209
 6826TIP3   OH242036   6.708   0.292   7.540
 6826TIP3    H142037   6.684   0.255   7.455
 6826TIP3    H242038   6.661   0.374   7.545
 6827TIP3   OH242039   2.201   3.369   7.932
 6827TIP3    H142040   2.106   3.370   7.943
 6827TIP3    H242041   2.234   3.322   8.008
 6828TIP3   OH242042   4.545   2.057   8.555
 6828TIP3    H142043   4.561   2.111   8.478
 6828TIP3    H242044   4.548   2.118   8.629
 6829TIP3   OH242045   4.287   1.634   8.178
 6829TIP3    H142046   4.209   1.585   8.205
 6829TIP3    H242047   4.337   1.572   8.125
 6830TIP3   OH242048   4.319   0.505   1.385
 6830TIP3    H142049   4.337   0.538   1.297
 6830TIP3    H242050   4.288   0.582   1.433
 6831TIP3   OH242051   1.484   2.640   0.408
 6831TIP3    H142052   1.458   2.731   0.419
 6831TIP3    H242053   1.403   2.590   0.416
 6832TIP3   OH242054   2.968   3.760   8.576
 6832TIP3    H142055   3.002   3.834   8.526
 6832TIP3    H242056   2.884   3.790   8.610
 6833TIP3   OH242057   3.349   0.848   8.783
 6833TIP3    H142058   3.308   0.892   8.709
 6833TIP3    H242059   3.425   0.901   8.804
 6834TIP3   OH242060   2.174   3.673   1.997
 6834TIP3    H142061   2.114   3.599   1.986
 6834TIP3    H242062   2.193   3.673   2.091
 6835TIP3   OH242063   4.871   5.350   0.431
 6835TIP3    H142064   4.808   5.392   0.371
 6835TIP3    H242065   4.817   5.319   0.504
 6836TIP3   OH242066   1.045   6.202   8.050
 6836TIP3    H142067   1.097   6.263   7.997
 6836TIP3    H242068   1.109   6.138   8.081
 6837TIP3   OH242069   5.350   2.012   6.892
 6837TIP3    H142070   5.256   2.012   6.910
 6837TIP3    H242071   5.361   1.943   6.826
 6838TIP3   OH242072   2.977   2.223   2.841
 6838TIP3    H142073   2.944   2.269   2.763
 6838TIP3    H242074   2.988   2.132   2.813
 6839TIP3   OH242075   3.412   0.757   0.439
 6839TIP3    H142076   3.390   0.665   0.454
 6839TIP3    H242077   3.507   0.757   0.422
 6840TIP3   OH242078   5.222   1.112   2.109
 6840TIP3    H142079   5.176   1.178   2.160
 6840TIP3    H242080   5.230   1.150   2.021
 6841TIP3   OH242081   3.409   5.697   0.276
 6841TIP3    H142082   3.375   5.745   0.351
 6841TIP3    H242083   3.414   5.763   0.206
 6842TIP3   OH242084   5.578   4.779   8.567
 6842TIP3    H142085   5.559   4.726   8.490
 6842TIP3    H242086   5.498   4.829   8.582
 6843TIP3   OH242087   2.392   3.690   0.088
 6843TIP3    H142088   2.333   3.735   0.149
 6843TIP3    H242089   2.355   3.709   0.002
 6844TIP3   OH242090   1.733   3.149   8.793
 6844TIP3    H142091   1.737   3.087   8.866
 6844TIP3    H242092   1.825   3.159   8.766
 6845TIP3   OH242093   5.825   4.245   0.873
 6845TIP3    H142094   5.877   4.166   0.857
 6845TIP3    H242095   5.876   4.315   0.834
 6846TIP3   OH242096   1.679   6.277   7.214
 6846TIP3    H142097   1.758   6.331   7.216
 6846TIP3    H242098   1.698   6.208   7.150
 6847TIP3   OH242099   2.802   3.339   7.324
 6847TIP3    H142100   2.889   3.300   7.315
 6847TIP3    H242101   2.814   3.431   7.299
 6848TIP3   OH242102   5.089   6.283   8.265
 6848TIP3    H142103   5.084   6.189   8.251
 6848TIP3    H242104   5.068   6.321   8.180
 6849TIP3   OH242105   3.918   0.041   1.784
 6849TIP3    H142106   3.982   6.746   1.783
 6849TIP3    H242107   3.880   0.041   1.696
 6850TIP3   OH242108   2.760   4.857   1.220
 6850TIP3    H142109   2.721   4.942   1.239
 6850TIP3    H242110   2.824   4.843   1.289
 6851TIP3   OH242111   1.143   2.709   0.701
 6851TIP3    H142112   1.158   2.615   0.707
 6851TIP3    H242113   1.087   2.720   0.624
 6852TIP3   OH242114   4.403   2.339   0.836
 6852TIP3    H142115   4.439   2.418   0.796
 6852TIP3    H242116   4.337   2.372   0.897
 6853TIP3   OH242117   0.248   2.235   7.048
 6853TIP3    H142118   0.300   2.155   7.061
 6853TIP3    H242119   0.199   2.219   6.968
 6854TIP3   OH242120   3.571   3.020   7.360
 6854TIP3    H142121   3.510   3.006   7.432
 6854TIP3    H242122   3.624   2.940   7.357
 6855TIP3   OH242123   0.543   3.426   6.268
 6855TIP3    H142124   0.595   3.494   6.224
 6855TIP3    H242125   0.588   3.412   6.351
 6856TIP3   OH242126   1.966   3.947   0.563
 6856TIP3    H142127   1.919   3.866   0.544
 6856TIP3    H242128   1.907   3.997   0.618
 6857TIP3   OH242129   0.107   4.847   1.108
 6857TIP3    H142130   0.133   4.810   1.192
 6857TIP3    H242131   0.183   4.834   1.051
 6858TIP3   OH242132   4.647   4.881   8.143
 6858TIP3    H142133   4.637   4.937   8.065
 6858TIP3    H242134   4.741   4.865   8.149
 6859TIP3   OH242135   5.794   5.665   0.498
 6859TIP3    H142136   5.818   5.751   0.464
 6859TIP3    H242137   5.716   5.640   0.448
 6860TIP3   OH242138   3.072   1.347   2.273
 6860TIP3    H142139   3.000   1.291   2.244
 6860TIP3    H242140   3.029   1.424   2.310
 6861TIP3   OH242141   1.646   3.728   1.391
 6861TIP3    H142142   1.611   3.670   1.323
 6861TIP3    H242143   1.595   3.707   1.469
 6862TIP3   OH242144   5.212   1.106   1.403
 6862TIP3    H142145   5.264   1.185   1.391
 6862TIP3    H242146   5.270   1.046   1.449
 6863TIP3   OH242147   2.749   2.189   1.061
 6863TIP3    H142148   2.712   2.235   0.986
 6863TIP3    H242149   2.674   2.156   1.110
 6864TIP3   OH242150   2.279   0.010   0.370
 6864TIP3    H142151   2.267   6.693   0.383
 6864TIP3    H242152   2.308   0.018   0.280
 6865TIP3   OH242153   0.822   4.014   6.899
 6865TIP3    H142154   0.879   4.058   6.835
 6865TIP3    H242155   0.802   3.929   6.860
 6866TIP3   OH242156   3.625   0.118   1.786
 6866TIP3    H142157   3.592   0.030   1.768
 6866TIP3    H242158   3.630   0.160   1.701
 6867TIP3   OH242159   4.393   0.479   0.240
 6867TIP3    H142160   4.456   0.456   0.172
 6867TIP3    H242161   4.349   0.397   0.260
 6868TIP3   OH242162   2.962   6.713   7.982
 6868TIP3    H142163   2.935   6.671   7.900
 6868TIP3    H242164   2.895   0.003   7.998
 6869TIP3   OH242165   1.635   0.256   1.789
 6869TIP3    H142166   1.650   0.163   1.772
 6869TIP3    H242167   1.614   0.261   1.882
 6870TIP3   OH242168   3.906   3.052   0.578
 6870TIP3    H142169   3.843   3.080   0.645
 6870TIP3    H242170   3.920   3.131   0.524
 6871TIP3   OH242171   4.685   6.509   1.210
 6871TIP3    H142172   4.738   6.466   1.277
 6871TIP3    H242173   4.608   6.542   1.257
 6872TIP3   OH242174   5.270   0.306   8.092
 6872TIP3    H142175   5.210   0.233   8.108
 6872TIP3    H242176   5.282   0.306   7.997
 6873TIP3   OH242177   6.331   4.871   2.000
 6873TIP3    H142178   6.279   4.948   1.978
 6873TIP3    H242179   6.344   4.877   2.095
 6874TIP3   OH242180   2.733   2.452   7.225
 6874TIP3    H142181   2.817   2.494   7.209
 6874TIP3    H242182   2.728   2.382   7.160
 6875TIP3   OH242183   1.359   3.964   6.359
 6875TIP3    H142184   1.268   3.982   6.383
 6875TIP3    H242185   1.355   3.881   6.312
 6876TIP3   OH242186   5.947   5.114   8.391
 6876TIP3    H142187   5.900   5.181   8.439
 6876TIP3    H242188   5.933   5.034   8.440
 6877TIP3   OH242189   3.671   5.874   1.064
 6877TIP3    H142190   3.752   5.924   1.074
 6877TIP3    H242191   3.608   5.937   1.028
 6878TIP3   OH242192   5.653   4.146   0.148
 6878TIP3    H142193   5.629   4.191   0.229
 6878TIP3    H242194   5.585   4.080   0.136
 6879TIP3   OH242195   4.277   1.397   0.589
 6879TIP3    H142196   4.302   1.469   0.530
 6879TIP3    H242197   4.357   1.346   0.599
 6880TIP3   OH242198   4.737   2.054   1.237
 6880TIP3    H142199   4.738   1.959   1.250
 6880TIP3    H242200   4.651   2.082   1.269
 6881TIP3   OH242201   3.106   2.425   7.041
 6881TIP3    H142202   3.145   2.338   7.045
 6881TIP3    H242203   3.175   2.480   7.004
 6882TIP3   OH242204   3.750   1.402   1.576
 6882TIP3    H142205   3.693   1.447   1.639
 6882TIP3    H242206   3.817   1.360   1.630
 6883TIP3   OH242207   1.593   6.275   7.889
 6883TIP3    H142208   1.661   6.333   7.924
 6883TIP3    H242209   1.519   6.333   7.869
 6884TIP3   OH242210   6.580   5.091   8.224
 6884TIP3    H142211   6.552   5.175   8.187
 6884TIP3    H242212   6.604   5.111   8.315
 6885TIP3   OH242213   3.105   5.766   0.326
 6885TIP3    H142214   3.117   5.678   0.362
 6885TIP3    H242215   3.081   5.819   0.402
 6886TIP3   OH242216   5.235   2.279   0.727
 6886TIP3    H142217   5.196   2.228   0.798
 6886TIP3    H242218   5.264   2.360   0.768
 6887TIP3   OH242219   5.625   0.058   8.595
 6887TIP3    H142220   5.676   0.061   8.676
 6887TIP3    H242221   5.685   0.024   8.529
 6888TIP3   OH242222   0.856   0.577   8.253
 6888TIP3    H142223   0.946   0.581   8.283
 6888TIP3    H242224   0.858   0.516   8.179
 6889TIP3   OH242225   1.144   1.852   8.808
 6889TIP3    H142226   1.203   1.859   8.733
 6889TIP3    H242227   1.057   1.840   8.769
 6890TIP3   OH242228   0.746   1.373   1.492
 6890TIP3    H142229   0.784   1.295   1.451
 6890TIP3    H242230   0.800   1.387   1.570
 6891TIP3   OH242231   3.493   4.507   6.640
 6891TIP3    H142232   3.585   4.531   6.651
 6891TIP3    H242233   3.474   4.448   6.713
 6892TIP3   OH242234   2.402   3.537   8.681
 6892TIP3    H142235   2.344   3.477   8.634
 6892TIP3    H242236   2.401   3.617   8.629
 6893TIP3   OH242237   1.359   0.592   7.392
 6893TIP3    H142238   1.404   0.620   7.472
 6893TIP3    H242239   1.389   0.502   7.377
 6894TIP3   OH242240   2.356   5.678   1.143
 6894TIP3    H142241   2.438   5.710   1.104
 6894TIP3    H242242   2.336   5.598   1.095
 6895TIP3   OH242243   6.211   4.984   7.155
 6895TIP3    H142244   6.160   4.927   7.212
 6895TIP3    H242245   6.210   4.941   7.070
 6896TIP3   OH242246   5.725   4.478   8.604
 6896TIP3    H142247   5.707   4.413   8.672
 6896TIP3    H242248   5.687   4.441   8.524
 6897TIP3   OH242249   1.527   6.708   8.110
 6897TIP3    H142250   1.558   6.630   8.064
 6897TIP3    H242251   1.543   0.003   8.049
 6898TIP3   OH242252   3.728   0.847   8.832
 6898TIP3    H142253   3.732   0.802   0.003
 6898TIP3    H242254   3.820   0.858   8.806
 6899TIP3   OH242255   1.740   3.867   2.097
 6899TIP3    H142256   1.730   3.946   2.044
 6899TIP3    H242257   1.835   3.851   2.098
 6900TIP3   OH242258   5.746   2.481   6.496
 6900TIP3    H142259   5.685   2.534   6.546
 6900TIP3    H242260   5.756   2.526   6.412
 6901TIP3   OH242261   5.619   3.900   0.958
 6901TIP3    H142262   5.558   3.973   0.968
 6901TIP3    H242263   5.601   3.843   1.033
 6902TIP3   OH242264   1.698   4.862   8.188
 6902TIP3    H142265   1.748   4.838   8.267
 6902TIP3    H242266   1.762   4.906   8.132
 6903TIP3   OH242267   0.466   6.542   7.264
 6903TIP3    H142268   0.526   6.558   7.336
 6903TIP3    H242269   0.440   6.630   7.234
 6904TIP3   OH242270   0.182   0.895   1.453
 6904TIP3    H142271   0.157   0.883   1.361
 6904TIP3    H242272   0.274   0.924   1.449
 6905TIP3   OH242273   3.000   3.258   0.428
 6905TIP3    H142274   3.051   3.181   0.401
 6905TIP3    H242275   2.981   3.303   0.346
 6906TIP3   OH242276   2.959   0.483   8.296
 6906TIP3    H142277   2.897   0.465   8.226
 6906TIP3    H242278   2.948   0.577   8.315
 6907TIP3   OH242279   6.340   4.399   0.829
 6907TIP3    H142280   6.300   4.339   0.893
 6907TIP3    H242281   6.397   4.344   0.776
 6908TIP3   OH242282   2.591   6.403   1.012
 6908TIP3    H142283   2.648   6.342   0.964
 6908TIP3    H242284   2.646   6.478   1.031
 6909TIP3   OH242285   3.848   0.545   1.847
 6909TIP3    H142286   3.866   0.635   1.819
 6909TIP3    H242287   3.764   0.524   1.808
 6910TIP3   OH242288   5.051   3.244   0.488
 6910TIP3    H142289   5.060   3.150   0.476
 6910TIP3    H242290   5.124   3.269   0.544
 6911TIP3   OH242291   5.152   0.546   8.232
 6911TIP3    H142292   5.197   0.488   8.170
 6911TIP3    H242293   5.065   0.507   8.243
 6912TIP3   OH242294   0.242   4.068   7.123
 6912TIP3    H142295   0.305   4.030   7.062
 6912TIP3    H242296   0.295   4.123   7.181
 6913TIP3   OH242297   5.080   0.834   0.039
 6913TIP3    H142298   5.175   0.837   0.025
 6913TIP3    H242299   5.062   0.743   0.063
 6914TIP3   OH242300   0.050   1.890   7.488
 6914TIP3    H142301   0.100   1.950   7.543
 6914TIP3    H242302   0.115   1.833   7.449
 6915TIP3   OH242303   5.264   5.984   7.956
 6915TIP3    H142304   5.242   6.077   7.951
 6915TIP3    H242305   5.197   5.946   8.013
 6916TIP3   OH242306   4.627   1.335   7.580
 6916TIP3    H142307   4.561   1.394   7.544
 6916TIP3    H242308   4.710   1.374   7.555
 6917TIP3   OH242309   4.981   4.727   7.490
 6917TIP3    H142310   4.944   4.654   7.540
 6917TIP3    H242311   5.066   4.695   7.461
 6918TIP3   OH242312   0.228   6.224   1.503
 6918TIP3    H142313   0.247   6.250   1.593
 6918TIP3    H242314   0.133   6.209   1.502
 6919TIP3   OH242315   6.743   1.083   8.440
 6919TIP3    H142316   6.717   1.161   8.490
 6919TIP3    H242317   6.683   1.082   8.365
 6920TIP3   OH242318   2.839   3.636   7.339
 6920TIP3    H142319   2.761   3.675   7.379
 6920TIP3    H242320   2.896   3.615   7.413
 6921TIP3   OH242321   2.981   6.153   7.642
 6921TIP3    H142322   2.894   6.115   7.628
 6921TIP3    H242323   2.963   6.236   7.687
 6922TIP3   OH242324   2.870   0.279   0.478
 6922TIP3    H142325   2.922   0.234   0.544
 6922TIP3    H242326   2.917   0.266   0.396
 6923TIP3   OH242327   5.755   2.768   2.162
 6923TIP3    H142328   5.721   2.772   2.251
 6923TIP3    H242329   5.838   2.814   2.165
 6924TIP3   OH242330   1.276   1.947   7.018
 6924TIP3    H142331   1.320   2.031   7.006
 6924TIP3    H242332   1.238   1.951   7.105
 6925TIP3   OH242333   4.708   1.250   8.789
 6925TIP3    H142334   4.739   1.335   8.757
 6925TIP3    H242335   4.663   1.211   8.713
 6926TIP3   OH242336   6.532   2.160   7.349
 6926TIP3    H142337   6.477   2.093   7.308
 6926TIP3    H242338   6.617   2.151   7.306
 6927TIP3   OH242339   4.633   1.240   7.938
 6927TIP3    H142340   4.604   1.150   7.927
 6927TIP3    H242341   4.688   1.258   7.862
 6928TIP3   OH242342   1.895   0.148   8.739
 6928TIP3    H142343   1.873   0.126   8.648
 6928TIP3    H242344   1.813   0.142   8.786
 6929TIP3   OH242345   3.529   4.300   7.635
 6929TIP3    H142346   3.464   4.243   7.674
 6929TIP3    H242347   3.552   4.258   7.551
 6930TIP3   OH242348   2.199   6.549   6.838
 6930TIP3    H142349   2.170   6.598   6.760
 6930TIP3    H242350   2.155   6.464   6.831
 6931TIP3   OH242351   5.192   3.756   0.838
 6931TIP3    H142352   5.116   3.700   0.829
 6931TIP3    H242353   5.259   3.715   0.784
 6932TIP3   OH242354   4.516   3.971   0.160
 6932TIP3    H142355   4.462   3.990   0.237
 6932TIP3    H242356   4.452   3.943   0.093
 6933TIP3   OH242357   3.283   1.787   7.781
 6933TIP3    H142358   3.259   1.828   7.864
 6933TIP3    H242359   3.372   1.818   7.764
 6934TIP3   OH242360   1.344   5.147   0.752
 6934TIP3    H142361   1.251   5.159   0.769
 6934TIP3    H242362   1.378   5.236   0.740
 6935TIP3   OH242363   5.305   5.362   0.239
 6935TIP3    H142364   5.255   5.428   0.191
 6935TIP3    H242365   5.373   5.334   0.178
 6936TIP3   OH242366   0.552   2.161   8.460
 6936TIP3    H142367   0.604   2.149   8.540
 6936TIP3    H242368   0.505   2.243   8.474
 6937TIP3   OH242369   0.142   0.826   7.325
 6937TIP3    H142370   0.079   0.758   7.301
 6937TIP3    H242371   0.198   0.835   7.248
 6938TIP3   OH242372   2.284   4.385   0.914
 6938TIP3    H142373   2.238   4.467   0.899
 6938TIP3    H242374   2.234   4.342   0.983
 6939TIP3   OH242375   6.122   6.051   0.641
 6939TIP3    H142376   6.086   6.119   0.699
 6939TIP3    H242377   6.084   6.071   0.555
 6940TIP3   OH242378   3.177   4.852   0.381
 6940TIP3    H142379   3.233   4.907   0.437
 6940TIP3    H242380   3.144   4.785   0.440
 6941TIP3   OH242381   5.573   5.133   0.956
 6941TIP3    H142382   5.661   5.099   0.971
 6941TIP3    H242383   5.569   5.213   1.009
 6942TIP3   OH242384   0.753   0.407   7.076
 6942TIP3    H142385   0.827   0.443   7.125
 6942TIP3    H242386   0.780   0.409   6.985
 6943TIP3   OH242387   6.687   6.287   2.070
 6943TIP3    H142388   6.618   6.347   2.099
 6943TIP3    H242389   6.660   6.202   2.104
 6944TIP3   OH242390   2.862   2.584   2.749
 6944TIP3    H142391   2.896   2.500   2.721
 6944TIP3    H242392   2.892   2.646   2.683
 6945TIP3   OH242393   5.345   5.944   1.093
 6945TIP3    H142394   5.293   6.021   1.116
 6945TIP3    H242395   5.404   5.975   1.024
 6946TIP3   OH242396   1.432   2.246   6.464
 6946TIP3    H142397   1.348   2.275   6.427
 6946TIP3    H242398   1.492   2.319   6.448
 6947TIP3   OH242399   5.672   0.584   1.982
 6947TIP3    H142400   5.713   0.628   2.057
 6947TIP3    H242401   5.605   0.528   2.020
 6948TIP3   OH242402   5.174   4.519   0.124
 6948TIP3    H142403   5.112   4.593   0.121
 6948TIP3    H242404   5.255   4.559   0.155
 6949TIP3   OH242405   1.865   1.172   0.091
 6949TIP3    H142406   1.846   1.083   0.062
 6949TIP3    H242407   1.920   1.161   0.169
 6950TIP3   OH242408   5.156   5.079   7.530
 6950TIP3    H142409   5.108   5.076   7.612
 6950TIP3    H242410   5.119   5.008   7.478
 6951TIP3   OH242411   2.554   2.068   1.918
 6951TIP3    H142412   2.492   2.047   1.987
 6951TIP3    H242413   2.506   2.053   1.836
 6952TIP3   OH242414   5.577   5.159   6.314
 6952TIP3    H142415   5.486   5.137   6.335
 6952TIP3    H242416   5.629   5.104   6.373
 6953TIP3   OH242417   1.099   3.220   0.510
 6953TIP3    H142418   1.138   3.287   0.565
 6953TIP3    H242419   1.066   3.267   0.434
 6954TIP3   OH242420   3.648   2.521   7.740
 6954TIP3    H142421   3.557   2.551   7.744
 6954TIP3    H242422   3.650   2.460   7.666
 6955TIP3   OH242423   6.065   3.684   0.008
 6955TIP3    H142424   6.078   3.697   8.828
 6955TIP3    H242425   5.971   3.665   0.017
 6956TIP3   OH242426   3.361   0.070   1.045
 6956TIP3    H142427   3.382   0.159   1.074
 6956TIP3    H242428   3.324   0.028   1.122
 6957TIP3   OH242429   3.154   6.410   1.203
 6957TIP3    H142430   3.115   6.391   1.118
 6957TIP3    H242431   3.248   6.405   1.188
 6958TIP3   OH242432   1.591   3.242   2.061
 6958TIP3    H142433   1.561   3.332   2.066
 6958TIP3    H242434   1.512   3.190   2.076
 6959TIP3   OH242435   4.741   5.567   1.721
 6959TIP3    H142436   4.653   5.550   1.753
 6959TIP3    H242437   4.773   5.639   1.776
 6960TIP3   OH242438   3.357   1.840   1.989
 6960TIP3    H142439   3.430   1.901   2.001
 6960TIP3    H242440   3.399   1.757   1.966
 6961TIP3   OH242441   4.643   3.183   6.469
 6961TIP3    H142442   4.633   3.257   6.528
 6961TIP3    H242443   4.666   3.223   6.385
 6962TIP3   OH242444   2.687   0.388   2.564
 6962TIP3    H142445   2.769   0.357   2.602
 6962TIP3    H242446   2.670   0.328   2.492
 6963TIP3   OH242447   5.911   4.567   0.893
 6963TIP3    H142448   5.976   4.618   0.844
 6963TIP3    H242449   5.868   4.632   0.950
 6964TIP3   OH242450   0.130   3.340   0.548
 6964TIP3    H142451   0.123   3.261   0.602
 6964TIP3    H242452   0.100   3.313   0.461
 6965TIP3   OH242453   3.451   0.321   0.794
 6965TIP3    H142454   3.392   0.387   0.830
 6965TIP3    H242455   3.392   0.252   0.762
 6966TIP3   OH242456   3.119   0.991   0.686
 6966TIP3    H142457   3.204   0.965   0.650
 6966TIP3    H242458   3.119   0.955   0.775
 6967TIP3   OH242459   3.323   6.670   6.623
 6967TIP3    H142460   3.367   6.615   6.560
 6967TIP3    H242461   3.377   6.749   6.629
 6968TIP3   OH242462   5.471   3.740   8.188
 6968TIP3    H142463   5.463   3.835   8.180
 6968TIP3    H242464   5.528   3.714   8.116
 6969TIP3   OH242465   5.530   6.387   7.036
 6969TIP3    H142466   5.439   6.379   7.008
 6969TIP3    H242467   5.562   6.297   7.039
 6970TIP3   OH242468   4.436   1.543   6.671
 6970TIP3    H142469   4.398   1.462   6.635
 6970TIP3    H242470   4.525   1.545   6.635
 6971TIP3   OH242471   6.118   4.578   1.144
 6971TIP3    H142472   6.213   4.578   1.158
 6971TIP3    H242473   6.107   4.618   1.057
 6972TIP3   OH242474   1.151   3.528   0.275
 6972TIP3    H142475   1.106   3.582   0.340
 6972TIP3    H242476   1.105   3.444   0.277
 6973TIP3   OH242477   6.422   3.406   8.615
 6973TIP3    H142478   6.346   3.416   8.672
 6973TIP3    H242479   6.411   3.320   8.574
 6974TIP3   OH242480   0.973   0.279   7.671
 6974TIP3    H142481   0.927   0.318   7.596
 6974TIP3    H242482   1.054   0.329   7.678
 6975TIP3   OH242483   0.993   6.643   7.076
 6975TIP3    H142484   0.991   6.548   7.085
 6975TIP3    H242485   1.086   6.664   7.065
 6976TIP3   OH242486   0.645   6.251   7.397
 6976TIP3    H142487   0.692   6.174   7.429
 6976TIP3    H242488   0.691   6.325   7.437
 6977TIP3   OH242489   3.217   5.588   8.185
 6977TIP3    H142490   3.237   5.624   8.098
 6977TIP3    H242491   3.137   5.537   8.172
 6978TIP3   OH242492   6.441   3.752   1.465
 6978TIP3    H142493   6.369   3.783   1.410
 6978TIP3    H242494   6.426   3.658   1.472
 6979TIP3   OH242495   1.889   4.554   2.208
 6979TIP3    H142496   1.962   4.534   2.266
 6979TIP3    H242497   1.828   4.481   2.218
 6980TIP3   OH242498   0.311   4.370   7.474
 6980TIP3    H142499   0.307   4.401   7.383
 6980TIP3    H242500   0.392   4.321   7.480
 6981TIP3   OH242501   6.438   0.458   6.705
 6981TIP3    H142502   6.504   0.428   6.767
 6981TIP3    H242503   6.452   0.404   6.627
 6982TIP3   OH242504   0.017   6.149   7.219
 6982TIP3    H142505   0.100   6.192   7.198
 6982TIP3    H242506   0.036   6.099   7.299
 6983TIP3   OH242507   4.928   1.467   1.407
 6983TIP3    H142508   4.919   1.562   1.402
 6983TIP3    H242509   4.865   1.440   1.474
 6984TIP3   OH242510   6.072   4.993   1.528
 6984TIP3    H142511   6.125   5.018   1.603
 6984TIP3    H242512   6.104   4.906   1.504
 6985TIP3   OH242513   2.168   5.646   0.838
 6985TIP3    H142514   2.114   5.657   0.916
 6985TIP3    H242515   2.222   5.569   0.856
 6986TIP3   OH242516   4.477   4.418   8.512
 6986TIP3    H142517   4.472   4.324   8.498
 6986TIP3    H242518   4.490   4.456   8.425
 6987TIP3   OH242519   6.752   1.038   5.725
 6987TIP3    H142520   0.019   0.955   5.703
 6987TIP3    H242521   6.735   1.032   5.819
 6988TIP3   OH242522   0.122   0.098   6.816
 6988TIP3    H142523   0.081   0.084   6.731
 6988TIP3    H242524   0.201   0.044   6.813
 6989TIP3   OH242525   4.759   6.037   6.989
 6989TIP3    H142526   4.664   6.040   6.979
 6989TIP3    H242527   4.791   5.992   6.911
 6990TIP3   OH242528   3.354   0.960   7.235
 6990TIP3    H142529   3.404   1.021   7.289
 6990TIP3    H242530   3.318   1.013   7.164
 6991TIP3   OH242531   0.180   1.648   7.736
 6991TIP3    H142532   0.213   1.703   7.665
 6991TIP3    H242533   0.243   1.660   7.807
 6992TIP3   OH242534   5.692   6.244   1.685
 6992TIP3    H142535   5.769   6.263   1.739
 6992TIP3    H242536   5.630   6.203   1.745
 6993TIP3   OH242537   3.427   3.753   7.609
 6993TIP3    H142538   3.345   3.778   7.653
 6993TIP3    H242539   3.483   3.720   7.680
 6994TIP3   OH242540   6.431   6.590   6.492
 6994TIP3    H142541   6.497   6.551   6.436
 6994TIP3    H242542   6.397   6.664   6.443
 6995TIP3   OH242543   3.922   5.131   2.432
 6995TIP3    H142544   4.007   5.151   2.392
 6995TIP3    H242545   3.943   5.093   2.517
 6996TIP3   OH242546   3.903   6.002   6.783
 6996TIP3    H142547   3.942   5.929   6.734
 6996TIP3    H242548   3.949   6.079   6.751
 6997TIP3   OH242549   6.211   1.828   7.408
 6997TIP3    H142550   6.299   1.791   7.412
 6997TIP3    H242551   6.224   1.920   7.383
 6998TIP3   OH242552   1.047   6.063   8.864
 6998TIP3    H142553   1.073   6.025   0.034
 6998TIP3    H242554   1.018   6.152   8.886
 6999TIP3   OH242555   5.038   2.743   8.470
 6999TIP3    H142556   5.017   2.836   8.469
 6999TIP3    H242557   4.984   2.707   8.540
 7000TIP3   OH242558   0.480   3.680   1.031
 7000TIP3    H142559   0.409   3.744   1.030
 7000TIP3    H242560   0.477   3.642   1.119
 7001TIP3   OH242561   2.233   5.312   2.034
 7001TIP3    H142562   2.198   5.343   1.951
 7001TIP3    H242563   2.185   5.231   2.052
 7002TIP3   OH242564   3.169   0.471   8.101
 7002TIP3    H142565   3.260   0.498   8.110
 7002TIP3    H242566   3.128   0.497   8.185
 7003TIP3   OH242567   3.433   5.373   8.698
 7003TIP3    H142568   3.376   5.369   8.775
 7003TIP3    H242569   3.419   5.460   8.661
 7004TIP3   OH242570   1.231   0.944   0.123
 7004TIP3    H142571   1.203   0.909   0.207
 7004TIP3    H242572   1.236   1.039   0.137
 7005TIP3   OH242573   3.619   5.044   7.401
 7005TIP3    H142574   3.616   5.139   7.415
 7005TIP3    H242575   3.597   5.007   7.487
 7006TIP3   OH242576   4.160   1.029   7.003
 7006TIP3    H142577   4.138   0.936   6.999
 7006TIP3    H242578   4.109   1.069   6.933
 7007TIP3   OH242579   2.986   6.613   1.935
 7007TIP3    H142580   3.061   6.671   1.945
 7007TIP3    H242581   2.973   6.576   2.022
 7008TIP3   OH242582   2.835   6.208   8.374
 7008TIP3    H142583   2.811   6.125   8.416
 7008TIP3    H242584   2.922   6.227   8.408
 7009TIP3   OH242585   4.422   0.788   6.616
 7009TIP3    H142586   4.377   0.722   6.669
 7009TIP3    H242587   4.427   0.865   6.673
 7010TIP3   OH242588   3.448   1.119   1.465
 7010TIP3    H142589   3.477   1.131   1.375
 7010TIP3    H242590   3.369   1.173   1.472
 7011TIP3   OH242591   0.142   1.802   1.403
 7011TIP3    H142592   0.234   1.789   1.426
 7011TIP3    H242593   0.136   1.775   1.312
 7012TIP3   OH242594   5.784   2.852   0.121
 7012TIP3    H142595   5.696   2.824   0.095
 7012TIP3    H242596   5.820   2.778   0.169
 7013TIP3   OH242597   5.087   1.195   0.475
 7013TIP3    H142598   5.144   1.210   0.551
 7013TIP3    H242599   5.145   1.203   0.400
 7014TIP3   OH242600   1.469   1.497   1.627
 7014TIP3    H142601   1.489   1.547   1.548
 7014TIP3    H242602   1.437   1.562   1.689
 7015TIP3   OH242603   6.505   4.498   7.077
 7015TIP3    H142604   6.432   4.438   7.090
 7015TIP3    H242605   6.517   4.541   7.162
 7016TIP3   OH242606   5.217   0.020   0.008
 7016TIP3    H142607   5.174   0.102   8.901
 7016TIP3    H242608   5.256   6.767   8.839
 7017TIP3   OH242609   2.051   4.053   2.280
 7017TIP3    H142610   2.065   4.037   2.187
 7017TIP3    H242611   2.112   3.994   2.324
 7018TIP3   OH242612   5.021   0.821   8.325
 7018TIP3    H142613   5.105   0.780   8.304
 7018TIP3    H242614   5.009   0.806   8.419
 7019TIP3   OH242615   3.952   5.124   0.845
 7019TIP3    H142616   4.021   5.140   0.909
 7019TIP3    H242617   3.989   5.059   0.785
 7020TIP3   OH242618   5.419   1.672   8.680
 7020TIP3    H142619   5.445   1.647   8.768
 7020TIP3    H242620   5.439   1.765   8.674
 7021TIP3   OH242621   5.644   5.706   1.686
 7021TIP3    H142622   5.638   5.611   1.695
 7021TIP3    H242623   5.581   5.739   1.751
 7022TIP3   OH242624   1.277   0.259   8.500
 7022TIP3    H142625   1.320   0.242   8.584
 7022TIP3    H242626   1.313   0.343   8.471
 7023TIP3   OH242627   4.515   0.085   7.489
 7023TIP3    H142628   4.512   0.074   7.394
 7023TIP3    H242629   4.537   6.775   7.523
 7024TIP3   OH242630   3.842   3.161   1.294
 7024TIP3    H142631   3.920   3.134   1.343
 7024TIP3    H242632   3.798   3.079   1.271
 7025TIP3   OH242633   6.737   1.069   1.227
 7025TIP3    H142634   6.698   1.114   1.303
 7025TIP3    H242635   6.707   1.119   1.152
 7026TIP3   OH242636   6.058   0.108   6.279
 7026TIP3    H142637   5.986   0.048   6.298
 7026TIP3    H242638   6.029   0.155   6.201
 7027TIP3   OH242639   1.622   0.726   8.409
 7027TIP3    H142640   1.574   0.792   8.359
 7027TIP3    H242641   1.652   0.663   8.344
 7028TIP3   OH242642   0.709   4.902   6.861
 7028TIP3    H142643   0.636   4.856   6.820
 7028TIP3    H242644   0.678   4.993   6.870
 7029TIP3   OH242645   2.425   0.603   0.969
 7029TIP3    H142646   2.368   0.526   0.969
 7029TIP3    H242647   2.371   0.674   1.003
 7030TIP3   OH242648   2.353   6.697   1.069
 7030TIP3    H142649   2.308   6.613   1.064
 7030TIP3    H242650   2.303   6.748   1.133
 7031TIP3   OH242651   3.229   4.677   1.030
 7031TIP3    H142652   3.295   4.660   0.963
 7031TIP3    H242653   3.197   4.590   1.054
 7032TIP3   OH242654   4.139   4.576   2.715
 7032TIP3    H142655   4.087   4.602   2.639
 7032TIP3    H242656   4.128   4.481   2.720
 7033TIP3   OH242657   0.170   5.498   0.563
 7033TIP3    H142658   0.098   5.513   0.624
 7033TIP3    H242659   0.223   5.577   0.568
 7034TIP3   OH242660   0.976   6.454   7.774
 7034TIP3    H142661   0.905   6.490   7.827
 7034TIP3    H242662   1.056   6.478   7.821
 7035TIP3   OH242663   0.337   5.959   1.982
 7035TIP3    H142664   0.284   6.010   2.042
 7035TIP3    H242665   0.344   5.873   2.023
 7036TIP3   OH242666   2.594   5.570   8.443
 7036TIP3    H142667   2.687   5.550   8.434
 7036TIP3    H242668   2.551   5.486   8.430
 7037TIP3   OH242669   4.541   2.350   2.412
 7037TIP3    H142670   4.541   2.258   2.439
 7037TIP3    H242671   4.607   2.354   2.342
 7038TIP3   OH242672   4.243   0.340   7.012
 7038TIP3    H142673   4.319   0.284   7.030
 7038TIP3    H242674   4.222   0.324   6.920
 7039TIP3   OH242675   3.427   0.637   8.116
 7039TIP3    H142676   3.428   0.716   8.169
 7039TIP3    H242677   3.459   0.568   8.174
 7040TIP3   OH242678   4.226   6.142   0.200
 7040TIP3    H142679   4.157   6.169   0.260
 7040TIP3    H242680   4.290   6.213   0.204
 7041TIP3   OH242681   3.147   3.676   7.973
 7041TIP3    H142682   3.238   3.704   7.968
 7041TIP3    H242683   3.150   3.594   8.022
 7042TIP3   OH242684   3.889   1.711   7.226
 7042TIP3    H142685   3.894   1.646   7.156
 7042TIP3    H242686   3.848   1.787   7.186
 7043TIP3   OH242687   2.434   1.979   0.924
 7043TIP3    H142688   2.371   2.050   0.941
 7043TIP3    H242689   2.477   2.003   0.843
 7044TIP3   OH242690   4.781   6.474   0.104
 7044TIP3    H142691   4.770   6.430   0.188
 7044TIP3    H242692   4.711   6.440   0.049
 7045TIP3   OH242693   3.855   3.566   1.038
 7045TIP3    H142694   3.932   3.582   0.983
 7045TIP3    H242695   3.844   3.647   1.087
 7046TIP3   OH242696   2.431   2.195   7.240
 7046TIP3    H142697   2.398   2.278   7.205
 7046TIP3    H242698   2.495   2.220   7.306
 7047TIP3   OH242699   6.624   5.827   1.769
 7047TIP3    H142700   6.642   5.882   1.845
 7047TIP3    H242701   6.592   5.889   1.702
 7048TIP3   OH242702   3.156   5.061   7.327
 7048TIP3    H142703   3.135   5.058   7.421
 7048TIP3    H242704   3.127   4.977   7.293
 7049TIP3   OH242705   3.834   4.990   0.510
 7049TIP3    H142706   3.894   4.938   0.563
 7049TIP3    H242707   3.878   5.074   0.500
 7050TIP3   OH242708   3.218   1.260   2.863
 7050TIP3    H142709   3.213   1.355   2.877
 7050TIP3    H242710   3.140   1.240   2.811
 7051TIP3   OH242711   4.329   2.527   2.492
 7051TIP3    H142712   4.354   2.614   2.460
 7051TIP3    H242713   4.395   2.468   2.457
 7052TIP3   OH242714   5.139   5.199   0.431
 7052TIP3    H142715   5.204   5.266   0.409
 7052TIP3    H242716   5.056   5.247   0.439
 7053TIP3   OH242717   4.195   4.140   1.097
 7053TIP3    H142718   4.180   4.095   1.014
 7053TIP3    H242719   4.286   4.118   1.120
 7054TIP3   OH242720   1.444   5.363   0.371
 7054TIP3    H142721   1.377   5.386   0.435
 7054TIP3    H242722   1.397   5.318   0.301
 7055TIP3   OH242723   1.486   3.416   0.658
 7055TIP3    H142724   1.456   3.352   0.722
 7055TIP3    H242725   1.532   3.364   0.592
 7056TIP3   OH242726   2.651   5.542   1.578
 7056TIP3    H142727   2.573   5.486   1.579
 7056TIP3    H242728   2.663   5.566   1.486
 7057TIP3   OH242729   3.151   1.848   0.731
 7057TIP3    H142730   3.245   1.859   0.740
 7057TIP3    H242731   3.130   1.888   0.646
 7058TIP3   OH242732   1.731   5.474   7.194
 7058TIP3    H142733   1.783   5.394   7.194
 7058TIP3    H242734   1.649   5.449   7.236
 7059TIP3   OH242735   5.192   3.428   2.073
 7059TIP3    H142736   5.148   3.421   1.988
 7059TIP3    H242737   5.122   3.415   2.137
 7060TIP3   OH242738   0.446   3.793   8.017
 7060TIP3    H142739   0.520   3.830   7.969
 7060TIP3    H242740   0.435   3.705   7.980
 7061TIP3   OH242741   6.131   4.715   6.987
 7061TIP3    H142742   6.074   4.647   7.024
 7061TIP3    H242743   6.071   4.780   6.951
 7062TIP3   OH242744   5.690   4.496   1.299
 7062TIP3    H142745   5.644   4.578   1.317
 7062TIP3    H242746   5.783   4.520   1.297
 7063TIP3   OH242747   6.547   5.383   8.483
 7063TIP3    H142748   6.500   5.408   8.562
 7063TIP3    H242749   6.576   5.293   8.500
 7064TIP3   OH242750   6.238   2.616   7.615
 7064TIP3    H142751   6.180   2.692   7.619
 7064TIP3    H242752   6.326   2.653   7.618
 7065TIP3   OH242753   4.707   2.546   0.935
 7065TIP3    H142754   4.612   2.556   0.929
 7065TIP3    H242755   4.741   2.635   0.936
 7066TIP3   OH242756   5.074   6.760   6.353
 7066TIP3    H142757   5.011   0.041   6.397
 7066TIP3    H242758   5.071   0.011   6.261
 7067TIP3   OH242759   5.132   2.104   8.129
 7067TIP3    H142760   5.223   2.077   8.131
 7067TIP3    H242761   5.094   2.069   8.210
 7068TIP3   OH242762   1.808   0.070   5.855
 7068TIP3    H142763   1.791   0.026   5.938
 7068TIP3    H242764   1.898   0.045   5.833
 7069TIP3   OH242765   6.295   4.696   7.233
 7069TIP3    H142766   6.229   4.648   7.285
 7069TIP3    H242767   6.259   4.697   7.144
 7070TIP3   OH242768   2.900   6.499   8.195
 7070TIP3    H142769   2.927   6.569   8.135
 7070TIP3    H242770   2.911   6.419   8.144
 7071TIP3   OH242771   6.733   5.655   0.680
 7071TIP3    H142772   6.692   5.588   0.734
 7071TIP3    H242773   6.665   5.680   0.618
 7072LIG      O42774   0.785   4.654   0.924
 7072LIG     C142775   0.775   4.574   1.041
 7072LIG     C242776   0.641   4.601   1.108
 7072LIG     C342777   0.813   4.435   0.995
 7072LIG     H142778   0.854   4.614   1.108
 7072LIG     H242779   0.563   4.574   1.033
 7072LIG     H342780   0.635   4.702   1.155
 7072LIG     H442781   0.621   4.529   1.190
 7072LIG     H542782   0.719   4.385   0.965
 7072LIG     H642783   0.864   4.367   1.067
 7072LIG     H742784   0.870   4.442   0.900
 7072LIG     H842785   0.723   4.615   0.862
   6.77671   6.77671   8.91355
