Title t= 11200.00000 step= 5600000
42785
    1SAPS     N    1   4.439   3.933   6.911
    1SAPS   HN1    2   4.474   3.845   6.868
    1SAPS   HN2    3   4.471   4.002   6.839
    1SAPS   HN3    4   4.485   3.970   6.996
    1SAPS   C12    5   4.292   3.935   6.908
    1SAPS  H12A    6   4.261   3.868   6.987
    1SAPS   C13    7   4.229   4.068   6.938
    1SAPS  O13A    8   4.298   4.178   6.966
    1SAPS  O13B    9   4.098   4.072   6.934
    1SAPS   C11   10   4.256   3.890   6.770
    1SAPS  H11A   11   4.289   3.960   6.690
    1SAPS  H11B   12   4.145   3.900   6.765
    1SAPS     P   13   4.220   3.630   6.743
    1SAPS   O13   14   4.270   3.532   6.643
    1SAPS   O14   15   4.201   3.593   6.886
    1SAPS   O12   16   4.310   3.757   6.748
    1SAPS   O11   17   4.084   3.694   6.682
    1SAPS    C1   18   4.018   3.643   6.565
    1SAPS    HA   19   4.047   3.537   6.551
    1SAPS    HB   20   3.911   3.640   6.591
    1SAPS    C2   21   4.030   3.738   6.451
    1SAPS    HS   22   3.952   3.711   6.376
    1SAPS   O21   23   4.162   3.729   6.393
    1SAPS   C21   24   4.183   3.634   6.309
    1SAPS   O22   25   4.100   3.548   6.270
    1SAPS   C22   26   4.326   3.640   6.256
    1SAPS   H2R   27   4.380   3.719   6.313
    1SAPS   H2S   28   4.379   3.553   6.300
    1SAPS    C3   29   3.997   3.885   6.494
    1SAPS    HX   30   4.066   3.928   6.570
    1SAPS    HY   31   3.898   3.878   6.543
    1SAPS   O31   32   4.004   3.982   6.379
    1SAPS   C31   33   3.898   3.977   6.299
    1SAPS   O32   34   3.803   3.903   6.311
    1SAPS   C32   35   3.928   4.074   6.189
    1SAPS   H2X   36   3.999   4.156   6.214
    1SAPS   H2Y   37   3.832   4.123   6.159
    1SAPS   C23   38   4.338   3.661   6.103
    1SAPS   H3R   39   4.276   3.749   6.075
    1SAPS   H3S   40   4.309   3.565   6.054
    1SAPS   C24   41   4.486   3.680   6.070
    1SAPS   H4R   42   4.504   3.675   5.961
    1SAPS   H4S   43   4.554   3.604   6.114
    1SAPS   C25   44   4.523   3.826   6.110
    1SAPS   H5R   45   4.575   3.836   6.207
    1SAPS   C26   46   4.544   3.942   6.038
    1SAPS   H6R   47   4.561   4.032   6.099
    1SAPS   C27   48   4.492   3.958   5.897
    1SAPS   H7R   49   4.453   4.060   5.879
    1SAPS   H7S   50   4.416   3.879   5.877
    1SAPS   C28   51   4.594   3.921   5.792
    1SAPS   H8R   52   4.655   3.836   5.826
    1SAPS   C29   53   4.603   3.970   5.666
    1SAPS   H9R   54   4.679   3.923   5.602
    1SAPS  C210   55   4.529   4.082   5.601
    1SAPS  H10R   56   4.601   4.152   5.553
    1SAPS  H10S   57   4.479   4.133   5.686
    1SAPS  C211   58   4.427   4.042   5.502
    1SAPS  H11R   59   4.364   3.962   5.545
    1SAPS  C212   60   4.410   4.091   5.372
    1SAPS  H12R   61   4.339   4.041   5.305
    1SAPS  C213   62   4.487   4.198   5.301
    1SAPS  H13R   63   4.533   4.269   5.373
    1SAPS  H13S   64   4.412   4.246   5.235
    1SAPS  C214   65   4.597   4.134   5.220
    1SAPS  H14R   66   4.688   4.103   5.272
    1SAPS  C215   67   4.606   4.108   5.081
    1SAPS  H15R   68   4.697   4.063   5.039
    1SAPS  C216   69   4.497   4.143   4.986
    1SAPS  H16R   70   4.537   4.232   4.931
    1SAPS  H16S   71   4.400   4.174   5.030
    1SAPS  C217   72   4.491   4.032   4.882
    1SAPS  H17R   73   4.587   4.019   4.829
    1SAPS  H17S   74   4.423   4.076   4.805
    1SAPS  C218   75   4.434   3.902   4.938
    1SAPS  H18R   76   4.328   3.919   4.964
    1SAPS  H18S   77   4.471   3.880   5.041
    1SAPS  C219   78   4.457   3.792   4.831
    1SAPS  H19R   79   4.417   3.693   4.865
    1SAPS  H19S   80   4.565   3.768   4.832
    1SAPS  C220   81   4.422   3.821   4.691
    1SAPS  H20R   82   4.314   3.823   4.667
    1SAPS  H20S   83   4.477   3.761   4.615
    1SAPS  H20T   84   4.466   3.919   4.662
    1SAPS   C33   85   3.977   4.003   6.053
    1SAPS   H3X   86   3.900   3.933   6.015
    1SAPS   H3Y   87   4.064   3.941   6.084
    1SAPS   C34   88   4.009   4.110   5.946
    1SAPS   H4X   89   4.077   4.184   5.994
    1SAPS   H4Y   90   3.912   4.150   5.912
    1SAPS   C35   91   4.078   4.066   5.811
    1SAPS   H5X   92   4.164   4.000   5.835
    1SAPS   H5Y   93   4.110   4.160   5.761
    1SAPS   C36   94   3.987   3.993   5.710
    1SAPS   H6X   95   3.897   4.057   5.705
    1SAPS   H6Y   96   3.957   3.894   5.752
    1SAPS   C37   97   4.056   3.986   5.569
    1SAPS   H7X   98   4.147   3.923   5.568
    1SAPS   H7Y   99   4.106   4.085   5.557
    1SAPS   C38  100   3.967   3.938   5.453
    1SAPS   H8X  101   3.895   4.017   5.423
    1SAPS   H8Y  102   3.908   3.849   5.484
    1SAPS   C39  103   4.040   3.896   5.326
    1SAPS   H9X  104   4.095   3.799   5.339
    1SAPS   H9Y  105   4.108   3.975   5.288
    1SAPS  C310  106   3.944   3.878   5.205
    1SAPS  H10X  107   3.895   3.975   5.181
    1SAPS  H10Y  108   3.865   3.813   5.247
    1SAPS  C311  109   4.020   3.821   5.087
    1SAPS  H11X  110   4.052   3.723   5.128
    1SAPS  H11Y  111   4.109   3.881   5.059
    1SAPS  C312  112   3.936   3.790   4.965
    1SAPS  H12X  113   3.904   3.887   4.922
    1SAPS  H12Y  114   3.846   3.729   4.989
    1SAPS  C313  115   4.017   3.712   4.854
    1SAPS  H13X  116   4.055   3.615   4.894
    1SAPS  H13Y  117   4.113   3.763   4.831
    1SAPS  C314  118   3.931   3.702   4.726
    1SAPS  H14X  119   3.823   3.686   4.748
    1SAPS  H14Y  120   3.964   3.611   4.671
    1SAPS  C315  121   3.957   3.818   4.622
    1SAPS  H15X  122   4.057   3.811   4.574
    1SAPS  H15Y  123   3.955   3.911   4.682
    1SAPS  C316  124   3.859   3.814   4.506
    1SAPS  H16X  125   3.892   3.886   4.428
    1SAPS  H16Y  126   3.759   3.843   4.543
    1SAPS  C317  127   3.863   3.681   4.438
    1SAPS  H17X  128   3.831   3.595   4.501
    1SAPS  H17Y  129   3.966   3.658   4.403
    1SAPS  C318  130   3.779   3.681   4.314
    1SAPS  H18X  131   3.794   3.776   4.257
    1SAPS  H18Y  132   3.669   3.666   4.323
    1SAPS  H18Z  133   3.803   3.599   4.244
    2SAPS     N  134   4.926   6.135   6.258
    2SAPS   HN1  135   4.905   6.195   6.175
    2SAPS   HN2  136   4.996   6.063   6.231
    2SAPS   HN3  137   4.847   6.073   6.286
    2SAPS   C12  138   4.977   6.218   6.372
    2SAPS  H12A  139   4.900   6.199   6.445
    2SAPS   C13  140   5.113   6.164   6.425
    2SAPS  O13A  141   5.170   6.070   6.367
    2SAPS  O13B  142   5.153   6.219   6.533
    2SAPS   C11  143   4.976   6.374   6.326
    2SAPS  H11A  144   5.056   6.390   6.250
    2SAPS  H11B  145   5.000   6.438   6.413
    2SAPS     P  146   4.721   6.462   6.357
    2SAPS   O13  147   4.686   6.343   6.442
    2SAPS   O14  148   4.735   6.593   6.424
    2SAPS   O12  149   4.852   6.432   6.277
    2SAPS   O11  150   4.609   6.476   6.235
    2SAPS    C1  151   4.590   6.379   6.138
    2SAPS    HA  152   4.637   6.280   6.160
    2SAPS    HB  153   4.481   6.357   6.138
    2SAPS    C2  154   4.630   6.418   5.991
    2SAPS    HS  155   4.628   6.332   5.919
    2SAPS   O21  156   4.758   6.491   5.986
    2SAPS   C21  157   4.867   6.409   5.999
    2SAPS   O22  158   4.868   6.290   6.022
    2SAPS   C22  159   4.993   6.495   5.970
    2SAPS   H2R  160   4.973   6.587   6.029
    2SAPS   H2S  161   5.089   6.453   6.003
    2SAPS    C3  162   4.515   6.506   5.926
    2SAPS    HX  163   4.545   6.539   5.824
    2SAPS    HY  164   4.508   6.591   5.998
    2SAPS   O31  165   4.400   6.431   5.931
    2SAPS   C31  166   4.287   6.501   5.936
    2SAPS   O32  167   4.280   6.624   5.955
    2SAPS   C32  168   4.162   6.422   5.892
    2SAPS   H2X  169   4.069   6.453   5.945
    2SAPS   H2Y  170   4.187   6.317   5.918
    2SAPS   C23  171   4.993   6.529   5.820
    2SAPS   H3R  172   5.086   6.577   5.783
    2SAPS   H3S  173   4.906   6.596   5.802
    2SAPS   C24  174   4.963   6.411   5.736
    2SAPS   H4R  175   4.960   6.448   5.632
    2SAPS   H4S  176   4.862   6.370   5.755
    2SAPS   C25  177   5.046   6.287   5.731
    2SAPS   H5R  178   5.049   6.229   5.824
    2SAPS   C26  179   5.085   6.223   5.617
    2SAPS   H6R  180   5.140   6.128   5.620
    2SAPS   C27  181   5.083   6.281   5.478
    2SAPS   H7R  182   5.179   6.331   5.454
    2SAPS   H7S  183   5.010   6.364   5.464
    2SAPS   C28  184   5.030   6.180   5.382
    2SAPS   H8R  185   4.957   6.107   5.421
    2SAPS   C29  186   5.050   6.164   5.252
    2SAPS   H9R  187   5.019   6.064   5.222
    2SAPS  C210  188   5.137   6.230   5.144
    2SAPS  H10R  189   5.199   6.311   5.188
    2SAPS  H10S  190   5.069   6.274   5.067
    2SAPS  C211  191   5.230   6.136   5.074
    2SAPS  H11R  192   5.307   6.096   5.142
    2SAPS  C212  193   5.243   6.114   4.942
    2SAPS  H12R  194   5.333   6.062   4.906
    2SAPS  C213  195   5.155   6.175   4.836
    2SAPS  H13R  196   5.208   6.175   4.738
    2SAPS  H13S  197   5.131   6.283   4.842
    2SAPS  C214  198   5.030   6.104   4.814
    2SAPS  H14R  199   4.970   6.079   4.903
    2SAPS  C215  200   4.976   6.059   4.698
    2SAPS  H15R  201   4.895   5.985   4.692
    2SAPS  C216  202   5.023   6.094   4.556
    2SAPS  H16R  203   5.097   6.022   4.515
    2SAPS  H16S  204   5.067   6.196   4.554
    2SAPS  C217  205   4.904   6.088   4.459
    2SAPS  H17R  206   4.861   5.986   4.457
    2SAPS  H17S  207   4.944   6.096   4.355
    2SAPS  C218  208   4.803   6.202   4.475
    2SAPS  H18R  209   4.852   6.295   4.439
    2SAPS  H18S  210   4.797   6.212   4.585
    2SAPS  C219  211   4.670   6.177   4.400
    2SAPS  H19R  212   4.585   6.233   4.444
    2SAPS  H19S  213   4.635   6.072   4.405
    2SAPS  C220  214   4.683   6.228   4.259
    2SAPS  H20R  215   4.603   6.202   4.186
    2SAPS  H20S  216   4.781   6.197   4.217
    2SAPS  H20T  217   4.680   6.338   4.276
    2SAPS   C33  218   4.134   6.430   5.741
    2SAPS   H3X  219   4.123   6.537   5.710
    2SAPS   H3Y  220   4.037   6.378   5.727
    2SAPS   C34  221   4.247   6.373   5.662
    2SAPS   H4X  222   4.269   6.271   5.702
    2SAPS   H4Y  223   4.338   6.434   5.679
    2SAPS   C35  224   4.231   6.352   5.509
    2SAPS   H5X  225   4.160   6.271   5.479
    2SAPS   H5Y  226   4.328   6.307   5.479
    2SAPS   C36  227   4.237   6.485   5.425
    2SAPS   H6X  228   4.317   6.552   5.463
    2SAPS   H6Y  229   4.147   6.547   5.446
    2SAPS   C37  230   4.249   6.472   5.270
    2SAPS   H7X  231   4.350   6.437   5.241
    2SAPS   H7Y  232   4.255   6.572   5.223
    2SAPS   C38  233   4.145   6.377   5.205
    2SAPS   H8X  234   4.045   6.422   5.222
    2SAPS   H8Y  235   4.151   6.283   5.265
    2SAPS   C39  236   4.176   6.350   5.061
    2SAPS   H9X  237   4.242   6.262   5.044
    2SAPS   H9Y  238   4.225   6.430   5.000
    2SAPS  C310  239   4.054   6.332   4.973
    2SAPS  H10X  240   3.968   6.286   5.027
    2SAPS  H10Y  241   4.076   6.280   4.877
    2SAPS  C311  242   3.990   6.464   4.919
    2SAPS  H11X  243   4.058   6.519   4.851
    2SAPS  H11Y  244   3.966   6.523   5.010
    2SAPS  C312  245   3.861   6.447   4.839
    2SAPS  H12X  246   3.772   6.416   4.897
    2SAPS  H12Y  247   3.875   6.378   4.753
    2SAPS  C313  248   3.812   6.580   4.782
    2SAPS  H13X  249   3.897   6.606   4.715
    2SAPS  H13Y  250   3.809   6.662   4.857
    2SAPS  C314  251   3.673   6.574   4.706
    2SAPS  H14X  252   3.602   6.577   4.792
    2SAPS  H14Y  253   3.658   6.479   4.651
    2SAPS  C315  254   3.638   6.689   4.608
    2SAPS  H15X  255   3.607   6.780   4.664
    2SAPS  H15Y  256   3.541   6.661   4.563
    2SAPS  C316  257   3.741   6.723   4.502
    2SAPS  H16X  258   3.828   6.758   4.562
    2SAPS  H16Y  259   3.701   6.805   4.439
    2SAPS  C317  260   3.782   6.607   4.415
    2SAPS  H17X  261   3.687   6.578   4.365
    2SAPS  H17Y  262   3.817   6.512   4.461
    2SAPS  C318  263   3.893   6.636   4.305
    2SAPS  H18X  264   3.869   6.734   4.259
    2SAPS  H18Y  265   3.888   6.551   4.233
    2SAPS  H18Z  266   3.994   6.635   4.351
    3SAPS     N  267   4.636   4.534   6.888
    3SAPS   HN1  268   4.623   4.566   6.986
    3SAPS   HN2  269   4.637   4.622   6.831
    3SAPS   HN3  270   4.566   4.464   6.857
    3SAPS   C12  271   4.770   4.475   6.861
    3SAPS  H12A  272   4.846   4.546   6.888
    3SAPS   C13  273   4.795   4.342   6.946
    3SAPS  O13A  274   4.719   4.314   7.039
    3SAPS  O13B  275   4.901   4.272   6.922
    3SAPS   C11  276   4.789   4.447   6.704
    3SAPS  H11A  277   4.723   4.364   6.671
    3SAPS  H11B  278   4.893   4.410   6.694
    3SAPS     P  279   4.723   4.584   6.487
    3SAPS   O13  280   4.608   4.488   6.471
    3SAPS   O14  281   4.698   4.727   6.452
    3SAPS   O12  282   4.774   4.571   6.634
    3SAPS   O11  283   4.846   4.529   6.408
    3SAPS    C1  284   4.965   4.613   6.396
    3SAPS    HA  285   4.966   4.698   6.468
    3SAPS    HB  286   5.055   4.551   6.415
    3SAPS    C2  287   4.979   4.665   6.253
    3SAPS    HS  288   4.892   4.731   6.232
    3SAPS   O21  289   4.984   4.552   6.165
    3SAPS   C21  290   4.873   4.538   6.081
    3SAPS   O22  291   4.784   4.622   6.070
    3SAPS   C22  292   4.882   4.415   5.994
    3SAPS   H2R  293   4.937   4.336   6.049
    3SAPS   H2S  294   4.776   4.397   5.966
    3SAPS    C3  295   5.101   4.759   6.225
    3SAPS    HX  296   5.192   4.703   6.256
    3SAPS    HY  297   5.093   4.848   6.292
    3SAPS   O31  298   5.121   4.797   6.094
    3SAPS   C31  299   5.055   4.907   6.048
    3SAPS   O32  300   4.991   4.980   6.124
    3SAPS   C32  301   5.083   4.927   5.899
    3SAPS   H2X  302   5.141   5.021   5.893
    3SAPS   H2Y  303   4.982   4.937   5.853
    3SAPS   C23  304   4.974   4.437   5.862
    3SAPS   H3R  305   4.998   4.338   5.818
    3SAPS   H3S  306   5.064   4.487   5.902
    3SAPS   C24  307   4.909   4.524   5.752
    3SAPS   H4R  308   4.983   4.562   5.679
    3SAPS   H4S  309   4.870   4.617   5.800
    3SAPS   C25  310   4.797   4.449   5.685
    3SAPS   H5R  311   4.730   4.393   5.752
    3SAPS   C26  312   4.786   4.432   5.553
    3SAPS   H6R  313   4.700   4.373   5.518
    3SAPS   C27  314   4.880   4.487   5.447
    3SAPS   H7R  315   4.951   4.407   5.415
    3SAPS   H7S  316   4.938   4.578   5.474
    3SAPS   C28  317   4.799   4.515   5.323
    3SAPS   H8R  318   4.710   4.567   5.361
    3SAPS   C29  319   4.817   4.470   5.196
    3SAPS   H9R  320   4.732   4.485   5.127
    3SAPS  C210  321   4.942   4.412   5.134
    3SAPS  H10R  322   5.006   4.359   5.207
    3SAPS  H10S  323   5.005   4.495   5.096
    3SAPS  C211  324   4.899   4.305   5.033
    3SAPS  H11R  325   4.911   4.204   5.075
    3SAPS  C212  326   4.860   4.315   4.906
    3SAPS  H12R  327   4.836   4.229   4.842
    3SAPS  C213  328   4.827   4.440   4.830
    3SAPS  H13R  329   4.922   4.460   4.777
    3SAPS  H13S  330   4.804   4.523   4.901
    3SAPS  C214  331   4.718   4.437   4.726
    3SAPS  H14R  332   4.621   4.467   4.767
    3SAPS  C215  333   4.734   4.389   4.598
    3SAPS  H15R  334   4.653   4.407   4.525
    3SAPS  C216  335   4.860   4.330   4.542
    3SAPS  H16R  336   4.949   4.348   4.607
    3SAPS  H16S  337   4.879   4.374   4.442
    3SAPS  C217  338   4.833   4.172   4.531
    3SAPS  H17R  339   4.754   4.150   4.456
    3SAPS  H17S  340   4.796   4.130   4.628
    3SAPS  C218  341   4.958   4.090   4.494
    3SAPS  H18R  342   4.940   3.982   4.475
    3SAPS  H18S  343   5.028   4.086   4.580
    3SAPS  C219  344   5.028   4.147   4.376
    3SAPS  H19R  345   4.963   4.146   4.286
    3SAPS  H19S  346   5.063   4.249   4.404
    3SAPS  C220  347   5.146   4.057   4.333
    3SAPS  H20R  348   5.221   4.109   4.270
    3SAPS  H20S  349   5.110   3.955   4.305
    3SAPS  H20T  350   5.208   4.048   4.425
    3SAPS   C33  351   5.157   4.799   5.841
    3SAPS   H3X  352   5.081   4.718   5.842
    3SAPS   H3Y  353   5.248   4.776   5.901
    3SAPS   C34  354   5.213   4.822   5.704
    3SAPS   H4X  355   5.275   4.912   5.690
    3SAPS   H4Y  356   5.123   4.816   5.638
    3SAPS   C35  357   5.315   4.710   5.657
    3SAPS   H5X  358   5.393   4.689   5.733
    3SAPS   H5Y  359   5.256   4.616   5.646
    3SAPS   C36  360   5.390   4.727   5.526
    3SAPS   H6X  361   5.447   4.632   5.522
    3SAPS   H6Y  362   5.459   4.813   5.540
    3SAPS   C37  363   5.308   4.756   5.405
    3SAPS   H7X  364   5.344   4.840   5.342
    3SAPS   H7Y  365   5.204   4.781   5.432
    3SAPS   C38  366   5.311   4.625   5.321
    3SAPS   H8X  367   5.281   4.535   5.379
    3SAPS   H8Y  368   5.408   4.602   5.272
    3SAPS   C39  369   5.215   4.630   5.205
    3SAPS   H9X  370   5.113   4.657   5.241
    3SAPS   H9Y  371   5.209   4.530   5.157
    3SAPS  C310  372   5.247   4.721   5.078
    3SAPS  H10X  373   5.352   4.710   5.042
    3SAPS  H10Y  374   5.230   4.826   5.109
    3SAPS  C311  375   5.147   4.688   4.966
    3SAPS  H11X  376   5.045   4.696   5.011
    3SAPS  H11Y  377   5.155   4.580   4.939
    3SAPS  C312  378   5.144   4.767   4.833
    3SAPS  H12X  379   5.243   4.761   4.783
    3SAPS  H12Y  380   5.120   4.874   4.846
    3SAPS  C313  381   5.035   4.708   4.750
    3SAPS  H13X  382   4.938   4.710   4.805
    3SAPS  H13Y  383   5.059   4.603   4.724
    3SAPS  C314  384   5.020   4.781   4.618
    3SAPS  H14X  385   5.113   4.768   4.558
    3SAPS  H14Y  386   5.005   4.887   4.648
    3SAPS  C315  387   4.903   4.718   4.534
    3SAPS  H15X  388   4.811   4.724   4.596
    3SAPS  H15Y  389   4.925   4.610   4.522
    3SAPS  C316  390   4.871   4.784   4.400
    3SAPS  H16X  391   4.963   4.796   4.339
    3SAPS  H16Y  392   4.833   4.887   4.413
    3SAPS  C317  393   4.784   4.702   4.299
    3SAPS  H17X  394   4.828   4.600   4.295
    3SAPS  H17Y  395   4.784   4.751   4.199
    3SAPS  C318  396   4.634   4.690   4.330
    3SAPS  H18X  397   4.588   4.787   4.301
    3SAPS  H18Y  398   4.617   4.682   4.439
    3SAPS  H18Z  399   4.595   4.603   4.272
    4SAPS     N  400   2.412   2.861   6.734
    4SAPS   HN1  401   2.419   2.866   6.837
    4SAPS   HN2  402   2.378   2.764   6.722
    4SAPS   HN3  403   2.509   2.855   6.697
    4SAPS   C12  404   2.321   2.955   6.662
    4SAPS  H12A  405   2.242   2.962   6.735
    4SAPS   C13  406   2.378   3.097   6.635
    4SAPS  O13A  407   2.490   3.123   6.677
    4SAPS  O13B  408   2.325   3.176   6.556
    4SAPS   C11  409   2.264   2.891   6.533
    4SAPS  H11A  410   2.338   2.872   6.453
    4SAPS  H11B  411   2.185   2.957   6.491
    4SAPS     P  412   2.059   2.717   6.529
    4SAPS   O13  413   2.032   2.584   6.589
    4SAPS   O14  414   1.956   2.822   6.559
    4SAPS   O12  415   2.203   2.770   6.572
    4SAPS   O11  416   2.065   2.704   6.379
    4SAPS    C1  417   2.038   2.811   6.289
    4SAPS    HA  418   2.021   2.908   6.341
    4SAPS    HB  419   2.126   2.841   6.227
    4SAPS    C2  420   1.921   2.786   6.190
    4SAPS    HS  421   1.941   2.696   6.127
    4SAPS   O21  422   1.910   2.901   6.104
    4SAPS   C21  423   1.988   2.898   5.995
    4SAPS   O22  424   2.061   2.811   5.956
    4SAPS   C22  425   1.976   3.039   5.930
    4SAPS   H2R  426   1.870   3.072   5.944
    4SAPS   H2S  427   2.038   3.106   5.993
    4SAPS    C3  428   1.789   2.785   6.269
    4SAPS    HX  429   1.800   2.863   6.348
    4SAPS    HY  430   1.770   2.686   6.316
    4SAPS   O31  431   1.667   2.831   6.199
    4SAPS   C31  432   1.619   2.753   6.102
    4SAPS   O32  433   1.682   2.655   6.056
    4SAPS   C32  434   1.496   2.802   6.044
    4SAPS   H2X  435   1.506   2.912   6.031
    4SAPS   H2Y  436   1.411   2.777   6.111
    4SAPS   C23  437   2.019   3.048   5.782
    4SAPS   H3R  438   1.963   2.967   5.730
    4SAPS   H3S  439   2.126   3.017   5.781
    4SAPS   C24  440   1.987   3.176   5.711
    4SAPS   H4R  441   2.023   3.167   5.607
    4SAPS   H4S  442   2.036   3.261   5.763
    4SAPS   C25  443   1.837   3.199   5.697
    4SAPS   H5R  444   1.793   3.228   5.794
    4SAPS   C26  445   1.763   3.194   5.583
    4SAPS   H6R  446   1.654   3.198   5.595
    4SAPS   C27  447   1.818   3.178   5.446
    4SAPS   H7R  448   1.920   3.221   5.433
    4SAPS   H7S  449   1.752   3.237   5.379
    4SAPS   C28  450   1.827   3.031   5.409
    4SAPS   H8R  451   1.814   2.961   5.493
    4SAPS   C29  452   1.866   2.992   5.285
    4SAPS   H9R  453   1.872   2.884   5.263
    4SAPS  C210  454   1.884   3.085   5.172
    4SAPS  H10R  455   1.988   3.077   5.134
    4SAPS  H10S  456   1.882   3.189   5.213
    4SAPS  C211  457   1.780   3.062   5.063
    4SAPS  H11R  458   1.785   2.962   5.017
    4SAPS  C212  459   1.688   3.153   5.011
    4SAPS  H12R  460   1.632   3.109   4.928
    4SAPS  C213  461   1.683   3.299   5.065
    4SAPS  H13R  462   1.779   3.324   5.116
    4SAPS  H13S  463   1.625   3.304   5.159
    4SAPS  C214  464   1.646   3.409   4.974
    4SAPS  H14R  465   1.572   3.478   5.015
    4SAPS  C215  466   1.706   3.441   4.857
    4SAPS  H15R  467   1.662   3.526   4.803
    4SAPS  C216  468   1.816   3.364   4.785
    4SAPS  H16R  469   1.846   3.276   4.844
    4SAPS  H16S  470   1.912   3.419   4.779
    4SAPS  C217  471   1.766   3.312   4.650
    4SAPS  H17R  472   1.853   3.275   4.592
    4SAPS  H17S  473   1.728   3.398   4.592
    4SAPS  C218  474   1.647   3.213   4.648
    4SAPS  H18R  475   1.590   3.235   4.741
    4SAPS  H18S  476   1.683   3.109   4.664
    4SAPS  C219  477   1.560   3.231   4.518
    4SAPS  H19R  478   1.488   3.312   4.544
    4SAPS  H19S  479   1.505   3.135   4.525
    4SAPS  C220  480   1.627   3.228   4.389
    4SAPS  H20R  481   1.711   3.157   4.404
    4SAPS  H20S  482   1.670   3.328   4.368
    4SAPS  H20T  483   1.559   3.197   4.307
    4SAPS   C33  484   1.470   2.733   5.910
    4SAPS   H3X  485   1.373   2.762   5.865
    4SAPS   H3Y  486   1.476   2.623   5.918
    4SAPS   C34  487   1.561   2.783   5.801
    4SAPS   H4X  488   1.665   2.760   5.833
    4SAPS   H4Y  489   1.547   2.893   5.790
    4SAPS   C35  490   1.535   2.713   5.668
    4SAPS   H5X  491   1.428   2.691   5.647
    4SAPS   H5Y  492   1.586   2.615   5.659
    4SAPS   C36  493   1.570   2.794   5.540
    4SAPS   H6X  494   1.676   2.827   5.538
    4SAPS   H6Y  495   1.525   2.895   5.532
    4SAPS   C37  496   1.536   2.711   5.418
    4SAPS   H7X  497   1.427   2.687   5.425
    4SAPS   H7Y  498   1.586   2.612   5.424
    4SAPS   C38  499   1.549   2.786   5.281
    4SAPS   H8X  500   1.655   2.817   5.282
    4SAPS   H8Y  501   1.487   2.878   5.283
    4SAPS   C39  502   1.541   2.691   5.167
    4SAPS   H9X  503   1.435   2.658   5.167
    4SAPS   H9Y  504   1.603   2.599   5.165
    4SAPS  C310  505   1.568   2.756   5.029
    4SAPS  H10X  506   1.676   2.783   5.030
    4SAPS  H10Y  507   1.525   2.858   5.023
    4SAPS  C311  508   1.521   2.672   4.909
    4SAPS  H11X  509   1.537   2.564   4.931
    4SAPS  H11Y  510   1.590   2.697   4.825
    4SAPS  C312  511   1.383   2.700   4.856
    4SAPS  H12X  512   1.329   2.752   4.937
    4SAPS  H12Y  513   1.329   2.605   4.834
    4SAPS  C313  514   1.371   2.801   4.736
    4SAPS  H13X  515   1.427   2.894   4.758
    4SAPS  H13Y  516   1.262   2.826   4.730
    4SAPS  C314  517   1.430   2.742   4.601
    4SAPS  H14X  518   1.406   2.634   4.597
    4SAPS  H14Y  519   1.540   2.755   4.594
    4SAPS  C315  520   1.367   2.806   4.473
    4SAPS  H15X  521   1.385   2.915   4.487
    4SAPS  H15Y  522   1.257   2.800   4.484
    4SAPS  C316  523   1.419   2.750   4.341
    4SAPS  H16X  524   1.344   2.752   4.258
    4SAPS  H16Y  525   1.427   2.640   4.357
    4SAPS  C317  526   1.556   2.807   4.303
    4SAPS  H17X  527   1.632   2.774   4.377
    4SAPS  H17Y  528   1.556   2.918   4.308
    4SAPS  C318  529   1.593   2.753   4.167
    4SAPS  H18X  530   1.603   2.642   4.168
    4SAPS  H18Y  531   1.686   2.808   4.139
    4SAPS  H18Z  532   1.518   2.778   4.089
    5SAPS     N  533   4.720   4.972   6.594
    5SAPS   HN1  534   4.685   4.878   6.567
    5SAPS   HN2  535   4.641   5.040   6.600
    5SAPS   HN3  536   4.788   4.997   6.518
    5SAPS   C12  537   4.794   4.953   6.716
    5SAPS  H12A  538   4.781   5.049   6.764
    5SAPS   C13  539   4.721   4.852   6.817
    5SAPS  O13A  540   4.605   4.810   6.789
    5SAPS  O13B  541   4.773   4.846   6.934
    5SAPS   C11  542   4.949   4.920   6.697
    5SAPS  H11A  543   4.944   4.820   6.649
    5SAPS  H11B  544   4.999   4.905   6.796
    5SAPS     P  545   5.184   5.032   6.616
    5SAPS   O13  546   5.207   5.172   6.561
    5SAPS   O14  547   5.244   5.002   6.749
    5SAPS   O12  548   5.021   5.015   6.615
    5SAPS   O11  549   5.235   4.929   6.509
    5SAPS    C1  550   5.271   4.794   6.547
    5SAPS    HA  551   5.204   4.765   6.631
    5SAPS    HB  552   5.273   4.717   6.468
    5SAPS    C2  553   5.419   4.792   6.603
    5SAPS    HS  554   5.423   4.882   6.668
    5SAPS   O21  555   5.511   4.799   6.494
    5SAPS   C21  556   5.643   4.805   6.511
    5SAPS   O22  557   5.698   4.815   6.621
    5SAPS   C22  558   5.710   4.788   6.377
    5SAPS   H2R  559   5.818   4.767   6.391
    5SAPS   H2S  560   5.666   4.705   6.319
    5SAPS    C3  561   5.445   4.657   6.679
    5SAPS    HX  562   5.358   4.631   6.742
    5SAPS    HY  563   5.526   4.677   6.752
    5SAPS   O31  564   5.501   4.552   6.600
    5SAPS   C31  565   5.403   4.477   6.545
    5SAPS   O32  566   5.287   4.468   6.585
    5SAPS   C32  567   5.479   4.412   6.421
    5SAPS   H2X  568   5.462   4.305   6.446
    5SAPS   H2Y  569   5.587   4.438   6.409
    5SAPS   C23  570   5.723   4.924   6.297
    5SAPS   H3R  571   5.788   4.898   6.210
    5SAPS   H3S  572   5.797   4.995   6.341
    5SAPS   C24  573   5.590   5.001   6.279
    5SAPS   H4R  574   5.617   5.101   6.238
    5SAPS   H4S  575   5.539   5.016   6.376
    5SAPS   C25  576   5.483   4.926   6.208
    5SAPS   H5R  577   5.432   4.855   6.274
    5SAPS   C26  578   5.448   4.941   6.076
    5SAPS   H6R  579   5.391   4.861   6.027
    5SAPS   C27  580   5.516   5.038   5.978
    5SAPS   H7R  581   5.573   5.118   6.030
    5SAPS   H7S  582   5.446   5.103   5.922
    5SAPS   C28  583   5.610   4.976   5.879
    5SAPS   H8R  584   5.632   4.871   5.901
    5SAPS   C29  585   5.666   5.027   5.770
    5SAPS   H9R  586   5.746   4.973   5.718
    5SAPS  C210  587   5.639   5.164   5.713
    5SAPS  H10R  588   5.732   5.203   5.665
    5SAPS  H10S  589   5.608   5.239   5.788
    5SAPS  C211  590   5.518   5.164   5.619
    5SAPS  H11R  591   5.424   5.176   5.675
    5SAPS  C212  592   5.516   5.155   5.488
    5SAPS  H12R  593   5.423   5.157   5.430
    5SAPS  C213  594   5.634   5.146   5.401
    5SAPS  H13R  595   5.726   5.194   5.441
    5SAPS  H13S  596   5.607   5.200   5.308
    5SAPS  C214  597   5.669   5.006   5.358
    5SAPS  H14R  598   5.731   4.950   5.431
    5SAPS  C215  599   5.626   4.944   5.245
    5SAPS  H15R  600   5.647   4.838   5.225
    5SAPS  C216  601   5.537   5.002   5.145
    5SAPS  H16R  602   5.472   5.079   5.193
    5SAPS  H16S  603   5.463   4.924   5.116
    5SAPS  C217  604   5.602   5.062   5.028
    5SAPS  H17R  605   5.675   5.136   5.067
    5SAPS  H17S  606   5.524   5.106   4.962
    5SAPS  C218  607   5.695   4.971   4.945
    5SAPS  H18R  608   5.634   4.879   4.933
    5SAPS  H18S  609   5.783   4.948   5.010
    5SAPS  C219  610   5.744   5.025   4.804
    5SAPS  H19R  611   5.657   5.058   4.743
    5SAPS  H19S  612   5.788   4.935   4.756
    5SAPS  C220  613   5.840   5.144   4.812
    5SAPS  H20R  614   5.910   5.147   4.899
    5SAPS  H20S  615   5.779   5.236   4.825
    5SAPS  H20T  616   5.897   5.157   4.717
    5SAPS   C33  617   5.414   4.463   6.291
    5SAPS   H3X  618   5.437   4.571   6.280
    5SAPS   H3Y  619   5.304   4.450   6.301
    5SAPS   C34  620   5.467   4.391   6.175
    5SAPS   H4X  621   5.466   4.281   6.191
    5SAPS   H4Y  622   5.573   4.421   6.164
    5SAPS   C35  623   5.390   4.424   6.036
    5SAPS   H5X  624   5.410   4.529   6.006
    5SAPS   H5Y  625   5.282   4.405   6.055
    5SAPS   C36  626   5.434   4.327   5.928
    5SAPS   H6X  627   5.426   4.223   5.966
    5SAPS   H6Y  628   5.541   4.346   5.904
    5SAPS   C37  629   5.355   4.352   5.798
    5SAPS   H7X  630   5.364   4.456   5.760
    5SAPS   H7Y  631   5.247   4.337   5.819
    5SAPS   C38  632   5.412   4.259   5.692
    5SAPS   H8X  633   5.367   4.158   5.692
    5SAPS   H8Y  634   5.523   4.259   5.696
    5SAPS   C39  635   5.368   4.303   5.556
    5SAPS   H9X  636   5.401   4.409   5.548
    5SAPS   H9Y  637   5.264   4.279   5.526
    5SAPS  C310  638   5.461   4.225   5.449
    5SAPS  H10X  639   5.453   4.118   5.477
    5SAPS  H10Y  640   5.561   4.273   5.462
    5SAPS  C311  641   5.423   4.255   5.302
    5SAPS  H11X  642   5.498   4.207   5.236
    5SAPS  H11Y  643   5.426   4.363   5.278
    5SAPS  C312  644   5.291   4.186   5.259
    5SAPS  H12X  645   5.206   4.255   5.277
    5SAPS  H12Y  646   5.264   4.090   5.309
    5SAPS  C313  647   5.280   4.149   5.108
    5SAPS  H13X  648   5.174   4.127   5.082
    5SAPS  H13Y  649   5.338   4.055   5.093
    5SAPS  C314  650   5.330   4.260   5.011
    5SAPS  H14X  651   5.441   4.255   5.003
    5SAPS  H14Y  652   5.308   4.354   5.065
    5SAPS  C315  653   5.288   4.259   4.863
    5SAPS  H15X  654   5.180   4.285   4.866
    5SAPS  H15Y  655   5.305   4.165   4.806
    5SAPS  C316  656   5.363   4.371   4.777
    5SAPS  H16X  657   5.458   4.322   4.749
    5SAPS  H16Y  658   5.382   4.465   4.833
    5SAPS  C317  659   5.284   4.404   4.647
    5SAPS  H17X  660   5.178   4.416   4.676
    5SAPS  H17Y  661   5.293   4.333   4.562
    5SAPS  C318  662   5.337   4.518   4.559
    5SAPS  H18X  663   5.328   4.614   4.614
    5SAPS  H18Y  664   5.292   4.532   4.458
    5SAPS  H18Z  665   5.447   4.503   4.561
    6SAPS     N  666   3.357   4.559   6.745
    6SAPS   HN1  667   3.325   4.595   6.837
    6SAPS   HN2  668   3.442   4.501   6.757
    6SAPS   HN3  669   3.390   4.637   6.685
    6SAPS   C12  670   3.252   4.485   6.669
    6SAPS  H12A  671   3.296   4.433   6.585
    6SAPS   C13  672   3.203   4.360   6.754
    6SAPS  O13A  673   3.251   4.340   6.867
    6SAPS  O13B  674   3.103   4.296   6.714
    6SAPS   C11  675   3.132   4.569   6.632
    6SAPS  H11A  676   3.074   4.583   6.726
    6SAPS  H11B  677   3.071   4.505   6.566
    6SAPS     P  678   3.167   4.717   6.416
    6SAPS   O13  679   3.023   4.706   6.374
    6SAPS   O14  680   3.234   4.842   6.392
    6SAPS   O12  681   3.172   4.695   6.573
    6SAPS   O11  682   3.244   4.594   6.370
    6SAPS    C1  683   3.202   4.478   6.303
    6SAPS    HA  684   3.272   4.399   6.338
    6SAPS    HB  685   3.097   4.450   6.324
    6SAPS    C2  686   3.224   4.503   6.148
    6SAPS    HS  687   3.328   4.536   6.128
    6SAPS   O21  688   3.132   4.600   6.097
    6SAPS   C21  689   3.175   4.670   5.990
    6SAPS   O22  690   3.291   4.679   5.956
    6SAPS   C22  691   3.059   4.728   5.927
    6SAPS   H2R  692   3.003   4.639   5.891
    6SAPS   H2S  693   2.998   4.789   5.998
    6SAPS    C3  694   3.200   4.370   6.063
    6SAPS    HX  695   3.094   4.358   6.094
    6SAPS    HY  696   3.267   4.287   6.095
    6SAPS   O31  697   3.199   4.396   5.923
    6SAPS   C31  698   3.317   4.397   5.868
    6SAPS   O32  699   3.424   4.367   5.920
    6SAPS   C32  700   3.302   4.420   5.716
    6SAPS   H2X  701   3.287   4.527   5.688
    6SAPS   H2Y  702   3.209   4.365   5.689
    6SAPS   C23  703   3.099   4.805   5.797
    6SAPS   H3R  704   3.173   4.737   5.749
    6SAPS   H3S  705   3.155   4.898   5.822
    6SAPS   C24  706   2.976   4.821   5.705
    6SAPS   H4R  707   2.896   4.888   5.743
    6SAPS   H4S  708   2.924   4.722   5.701
    6SAPS   C25  709   2.998   4.866   5.562
    6SAPS   H5R  710   3.023   4.786   5.490
    6SAPS   C26  711   2.970   4.987   5.509
    6SAPS   H6R  712   2.998   5.002   5.404
    6SAPS   C27  713   2.918   5.105   5.585
    6SAPS   H7R  714   2.952   5.092   5.690
    6SAPS   H7S  715   2.807   5.097   5.587
    6SAPS   C28  716   2.961   5.244   5.537
    6SAPS   H8R  717   3.017   5.306   5.609
    6SAPS   C29  718   2.907   5.304   5.431
    6SAPS   H9R  719   2.943   5.403   5.399
    6SAPS  C210  720   2.809   5.248   5.331
    6SAPS  H10R  721   2.707   5.244   5.373
    6SAPS  H10S  722   2.829   5.141   5.305
    6SAPS  C211  723   2.799   5.331   5.204
    6SAPS  H11R  724   2.899   5.367   5.175
    6SAPS  C212  725   2.702   5.316   5.113
    6SAPS  H12R  726   2.698   5.394   5.035
    6SAPS  C213  727   2.582   5.216   5.123
    6SAPS  H13R  728   2.494   5.274   5.160
    6SAPS  H13S  729   2.580   5.133   5.197
    6SAPS  C214  730   2.550   5.157   4.990
    6SAPS  H14R  731   2.488   5.217   4.922
    6SAPS  C215  732   2.603   5.048   4.931
    6SAPS  H15R  733   2.571   5.008   4.833
    6SAPS  C216  734   2.721   4.969   4.994
    6SAPS  H16R  735   2.674   4.872   5.022
    6SAPS  H16S  736   2.753   5.009   5.092
    6SAPS  C217  737   2.846   4.953   4.910
    6SAPS  H17R  738   2.858   5.041   4.843
    6SAPS  H17S  739   2.830   4.875   4.832
    6SAPS  C218  740   2.974   4.917   4.978
    6SAPS  H18R  741   2.954   4.818   5.025
    6SAPS  H18S  742   2.989   4.992   5.058
    6SAPS  C219  743   3.107   4.927   4.908
    6SAPS  H19R  744   3.187   4.902   4.980
    6SAPS  H19S  745   3.119   5.031   4.871
    6SAPS  C220  746   3.122   4.845   4.782
    6SAPS  H20R  747   3.042   4.864   4.707
    6SAPS  H20S  748   3.121   4.735   4.802
    6SAPS  H20T  749   3.217   4.863   4.726
    6SAPS   C33  750   3.416   4.373   5.632
    6SAPS   H3X  751   3.452   4.272   5.660
    6SAPS   H3Y  752   3.506   4.437   5.640
    6SAPS   C34  753   3.375   4.381   5.481
    6SAPS   H4X  754   3.302   4.302   5.453
    6SAPS   H4Y  755   3.469   4.358   5.427
    6SAPS   C35  756   3.336   4.518   5.430
    6SAPS   H5X  757   3.403   4.591   5.481
    6SAPS   H5Y  758   3.235   4.557   5.453
    6SAPS   C36  759   3.358   4.540   5.283
    6SAPS   H6X  760   3.462   4.537   5.243
    6SAPS   H6Y  761   3.314   4.639   5.259
    6SAPS   C37  762   3.273   4.442   5.196
    6SAPS   H7X  763   3.172   4.482   5.221
    6SAPS   H7Y  764   3.280   4.333   5.214
    6SAPS   C38  765   3.287   4.466   5.047
    6SAPS   H8X  766   3.379   4.409   5.021
    6SAPS   H8Y  767   3.302   4.573   5.023
    6SAPS   C39  768   3.163   4.424   4.965
    6SAPS   H9X  769   3.107   4.513   4.930
    6SAPS   H9Y  770   3.100   4.377   5.043
    6SAPS  C310  771   3.184   4.321   4.857
    6SAPS  H10X  772   3.086   4.290   4.814
    6SAPS  H10Y  773   3.232   4.234   4.906
    6SAPS  C311  774   3.268   4.348   4.739
    6SAPS  H11X  775   3.251   4.266   4.666
    6SAPS  H11Y  776   3.377   4.353   4.761
    6SAPS  C312  777   3.238   4.479   4.661
    6SAPS  H12X  778   3.287   4.568   4.706
    6SAPS  H12Y  779   3.128   4.494   4.658
    6SAPS  C313  780   3.263   4.463   4.508
    6SAPS  H13X  781   3.221   4.366   4.475
    6SAPS  H13Y  782   3.374   4.469   4.498
    6SAPS  C314  783   3.184   4.559   4.424
    6SAPS  H14X  784   3.208   4.665   4.447
    6SAPS  H14Y  785   3.076   4.550   4.450
    6SAPS  C315  786   3.215   4.531   4.269
    6SAPS  H15X  787   3.324   4.539   4.248
    6SAPS  H15Y  788   3.160   4.615   4.222
    6SAPS  C316  789   3.156   4.399   4.210
    6SAPS  H16X  790   3.051   4.405   4.245
    6SAPS  H16Y  791   3.212   4.323   4.267
    6SAPS  C317  792   3.175   4.375   4.066
    6SAPS  H17X  793   3.146   4.467   4.011
    6SAPS  H17Y  794   3.108   4.293   4.030
    6SAPS  C318  795   3.322   4.334   4.036
    6SAPS  H18X  796   3.404   4.404   4.063
    6SAPS  H18Y  797   3.334   4.308   3.928
    6SAPS  H18Z  798   3.345   4.242   4.092
    7SAPS     N  799   2.341   0.969   6.739
    7SAPS   HN1  800   2.350   1.071   6.754
    7SAPS   HN2  801   2.404   0.934   6.664
    7SAPS   HN3  802   2.248   0.941   6.700
    7SAPS   C12  803   2.372   0.897   6.866
    7SAPS  H12A  804   2.449   0.955   6.914
    7SAPS   C13  805   2.246   0.876   6.969
    7SAPS  O13A  806   2.140   0.943   6.957
    7SAPS  O13B  807   2.276   0.820   7.076
    7SAPS   C11  808   2.428   0.760   6.838
    7SAPS  H11A  809   2.345   0.706   6.788
    7SAPS  H11B  810   2.452   0.705   6.931
    7SAPS     P  811   2.615   0.661   6.672
    7SAPS   O13  812   2.732   0.710   6.599
    7SAPS   O14  813   2.638   0.548   6.773
    7SAPS   O12  814   2.535   0.771   6.739
    7SAPS   O11  815   2.506   0.603   6.572
    7SAPS    C1  816   2.442   0.696   6.477
    7SAPS    HA  817   2.332   0.689   6.487
    7SAPS    HB  818   2.483   0.798   6.494
    7SAPS    C2  819   2.478   0.672   6.328
    7SAPS    HS  820   2.447   0.569   6.298
    7SAPS   O21  821   2.625   0.682   6.308
    7SAPS   C21  822   2.697   0.572   6.334
    7SAPS   O22  823   2.656   0.462   6.358
    7SAPS   C22  824   2.847   0.600   6.325
    7SAPS   H2R  825   2.865   0.702   6.285
    7SAPS   H2S  826   2.889   0.597   6.428
    7SAPS    C3  827   2.408   0.775   6.225
    7SAPS    HX  828   2.459   0.868   6.257
    7SAPS    HY  829   2.298   0.785   6.240
    7SAPS   O31  830   2.432   0.741   6.092
    7SAPS   C31  831   2.396   0.837   5.998
    7SAPS   O32  832   2.333   0.936   6.031
    7SAPS   C32  833   2.447   0.803   5.858
    7SAPS   H2X  834   2.383   0.718   5.827
    7SAPS   H2Y  835   2.551   0.765   5.858
    7SAPS   C23  836   2.924   0.502   6.235
    7SAPS   H3R  837   2.905   0.396   6.262
    7SAPS   H3S  838   3.032   0.528   6.235
    7SAPS   C24  839   2.885   0.514   6.090
    7SAPS   H4R  840   2.903   0.620   6.061
    7SAPS   H4S  841   2.777   0.491   6.077
    7SAPS   C25  842   2.958   0.415   6.006
    7SAPS   H5R  843   2.909   0.317   6.020
    7SAPS   C26  844   3.042   0.431   5.904
    7SAPS   H6R  845   3.070   0.342   5.846
    7SAPS   C27  846   3.099   0.563   5.860
    7SAPS   H7R  847   3.183   0.536   5.793
    7SAPS   H7S  848   3.138   0.619   5.948
    7SAPS   C28  849   3.001   0.640   5.775
    7SAPS   H8R  850   2.948   0.720   5.828
    7SAPS   C29  851   2.986   0.647   5.637
    7SAPS   H9R  852   2.902   0.706   5.598
    7SAPS  C210  853   3.060   0.564   5.536
    7SAPS  H10R  854   3.020   0.589   5.436
    7SAPS  H10S  855   3.014   0.466   5.560
    7SAPS  C211  856   3.214   0.572   5.522
    7SAPS  H11R  857   3.271   0.588   5.614
    7SAPS  C212  858   3.278   0.599   5.408
    7SAPS  H12R  859   3.388   0.591   5.403
    7SAPS  C213  860   3.213   0.590   5.273
    7SAPS  H13R  861   3.115   0.539   5.270
    7SAPS  H13S  862   3.281   0.531   5.208
    7SAPS  C214  863   3.179   0.726   5.216
    7SAPS  H14R  864   3.106   0.781   5.277
    7SAPS  C215  865   3.210   0.773   5.091
    7SAPS  H15R  866   3.170   0.871   5.059
    7SAPS  C216  867   3.296   0.716   4.986
    7SAPS  H16R  868   3.327   0.610   5.002
    7SAPS  H16S  869   3.396   0.763   4.974
    7SAPS  C217  870   3.224   0.730   4.854
    7SAPS  H17R  871   3.208   0.839   4.836
    7SAPS  H17S  872   3.123   0.684   4.848
    7SAPS  C218  873   3.302   0.682   4.729
    7SAPS  H18R  874   3.336   0.578   4.747
    7SAPS  H18S  875   3.388   0.752   4.716
    7SAPS  C219  876   3.222   0.681   4.594
    7SAPS  H19R  877   3.174   0.779   4.577
    7SAPS  H19S  878   3.139   0.607   4.605
    7SAPS  C220  879   3.303   0.642   4.469
    7SAPS  H20R  880   3.314   0.532   4.482
    7SAPS  H20S  881   3.403   0.689   4.459
    7SAPS  H20T  882   3.247   0.677   4.380
    7SAPS   C33  883   2.429   0.914   5.750
    7SAPS   H3X  884   2.509   0.989   5.769
    7SAPS   H3Y  885   2.334   0.969   5.764
    7SAPS   C34  886   2.427   0.867   5.606
    7SAPS   H4X  887   2.342   0.803   5.574
    7SAPS   H4Y  888   2.513   0.798   5.590
    7SAPS   C35  889   2.439   0.992   5.515
    7SAPS   H5X  890   2.514   1.062   5.557
    7SAPS   H5Y  891   2.344   1.049   5.508
    7SAPS   C36  892   2.474   0.948   5.371
    7SAPS   H6X  893   2.385   0.884   5.351
    7SAPS   H6Y  894   2.567   0.886   5.376
    7SAPS   C37  895   2.496   1.078   5.291
    7SAPS   H7X  896   2.591   1.129   5.318
    7SAPS   H7Y  897   2.418   1.156   5.301
    7SAPS   C38  898   2.508   1.050   5.141
    7SAPS   H8X  899   2.420   0.994   5.104
    7SAPS   H8Y  900   2.607   1.002   5.124
    7SAPS   C39  901   2.522   1.177   5.056
    7SAPS   H9X  902   2.630   1.205   5.063
    7SAPS   H9Y  903   2.456   1.261   5.087
    7SAPS  C310  904   2.506   1.151   4.898
    7SAPS  H10X  905   2.405   1.116   4.868
    7SAPS  H10Y  906   2.574   1.075   4.854
    7SAPS  C311  907   2.534   1.280   4.825
    7SAPS  H11X  908   2.631   1.328   4.850
    7SAPS  H11Y  909   2.450   1.348   4.847
    7SAPS  C312  910   2.543   1.254   4.674
    7SAPS  H12X  911   2.606   1.169   4.643
    7SAPS  H12Y  912   2.591   1.342   4.627
    7SAPS  C313  913   2.406   1.238   4.605
    7SAPS  H13X  914   2.350   1.328   4.636
    7SAPS  H13Y  915   2.363   1.151   4.659
    7SAPS  C314  916   2.407   1.218   4.453
    7SAPS  H14X  917   2.471   1.130   4.432
    7SAPS  H14Y  918   2.441   1.306   4.394
    7SAPS  C315  919   2.269   1.193   4.395
    7SAPS  H15X  920   2.203   1.280   4.409
    7SAPS  H15Y  921   2.222   1.109   4.450
    7SAPS  C316  922   2.281   1.160   4.243
    7SAPS  H16X  923   2.288   1.050   4.230
    7SAPS  H16Y  924   2.376   1.203   4.205
    7SAPS  C317  925   2.165   1.198   4.158
    7SAPS  H17X  926   2.195   1.153   4.061
    7SAPS  H17Y  927   2.165   1.308   4.142
    7SAPS  C318  928   2.022   1.153   4.206
    7SAPS  H18X  929   1.939   1.178   4.137
    7SAPS  H18Y  930   1.999   1.202   4.303
    7SAPS  H18Z  931   2.016   1.046   4.233
    8SAPS     N  932   1.922   1.654   6.447
    8SAPS   HN1  933   1.882   1.635   6.353
    8SAPS   HN2  934   1.854   1.678   6.522
    8SAPS   HN3  935   1.978   1.742   6.447
    8SAPS   C12  936   2.008   1.549   6.498
    8SAPS  H12A  937   2.016   1.561   6.605
    8SAPS   C13  938   1.956   1.406   6.466
    8SAPS  O13A  939   1.832   1.386   6.442
    8SAPS  O13B  940   2.022   1.315   6.525
    8SAPS   C11  941   2.150   1.567   6.432
    8SAPS  H11A  942   2.144   1.569   6.321
    8SAPS  H11B  943   2.202   1.472   6.457
    8SAPS     P  944   2.362   1.723   6.455
    8SAPS   O13  945   2.389   1.862   6.496
    8SAPS   O14  946   2.441   1.624   6.532
    8SAPS   O12  947   2.205   1.690   6.473
    8SAPS   O11  948   2.382   1.707   6.305
    8SAPS    C1  949   2.339   1.816   6.220
    8SAPS    HA  950   2.266   1.770   6.149
    8SAPS    HB  951   2.281   1.897   6.268
    8SAPS    C2  952   2.447   1.886   6.124
    8SAPS    HS  953   2.396   1.968   6.069
    8SAPS   O21  954   2.511   1.791   6.037
    8SAPS   C21  955   2.427   1.747   5.940
    8SAPS   O22  956   2.330   1.814   5.909
    8SAPS   C22  957   2.482   1.626   5.877
    8SAPS   H2R  958   2.438   1.630   5.775
    8SAPS   H2S  959   2.592   1.622   5.862
    8SAPS    C3  960   2.553   1.962   6.211
    8SAPS    HX  961   2.573   1.925   6.313
    8SAPS    HY  962   2.505   2.061   6.228
    8SAPS   O31  963   2.670   1.995   6.138
    8SAPS   C31  964   2.767   1.896   6.144
    8SAPS   O32  965   2.760   1.799   6.219
    8SAPS   C32  966   2.885   1.927   6.046
    8SAPS   H2X  967   2.983   1.917   6.098
    8SAPS   H2Y  968   2.868   2.030   6.010
    8SAPS   C23  969   2.443   1.493   5.932
    8SAPS   H3R  970   2.332   1.491   5.941
    8SAPS   H3S  971   2.487   1.479   6.033
    8SAPS   C24  972   2.470   1.366   5.847
    8SAPS   H4R  973   2.410   1.363   5.753
    8SAPS   H4S  974   2.436   1.278   5.906
    8SAPS   C25  975   2.611   1.346   5.805
    8SAPS   H5R  976   2.677   1.330   5.892
    8SAPS   C26  977   2.670   1.352   5.686
    8SAPS   H6R  978   2.777   1.329   5.677
    8SAPS   C27  979   2.612   1.377   5.545
    8SAPS   H7R  980   2.502   1.383   5.556
    8SAPS   H7S  981   2.630   1.287   5.482
    8SAPS   C28  982   2.664   1.511   5.486
    8SAPS   H8R  983   2.740   1.577   5.529
    8SAPS   C29  984   2.620   1.556   5.371
    8SAPS   H9R  985   2.675   1.644   5.336
    8SAPS  C210  986   2.515   1.491   5.278
    8SAPS  H10R  987   2.516   1.382   5.298
    8SAPS  H10S  988   2.557   1.511   5.177
    8SAPS  C211  989   2.373   1.542   5.290
    8SAPS  H11R  990   2.339   1.561   5.393
    8SAPS  C212  991   2.289   1.566   5.188
    8SAPS  H12R  992   2.185   1.599   5.204
    8SAPS  C213  993   2.326   1.568   5.046
    8SAPS  H13R  994   2.413   1.503   5.023
    8SAPS  H13S  995   2.357   1.673   5.029
    8SAPS  C214  996   2.214   1.509   4.962
    8SAPS  H14R  997   2.167   1.417   4.998
    8SAPS  C215  998   2.174   1.569   4.841
    8SAPS  H15R  999   2.106   1.514   4.775
    8SAPS  C216 1000   2.243   1.687   4.781
    8SAPS  H16R 1001   2.267   1.764   4.857
    8SAPS  H16S 1002   2.173   1.746   4.718
    8SAPS  C217 1003   2.367   1.646   4.698
    8SAPS  H17R 1004   2.341   1.581   4.612
    8SAPS  H17S 1005   2.426   1.575   4.759
    8SAPS  C218 1006   2.441   1.765   4.635
    8SAPS  H18R 1007   2.503   1.819   4.710
    8SAPS  H18S 1008   2.370   1.839   4.594
    8SAPS  C219 1009   2.539   1.730   4.515
    8SAPS  H19R 1010   2.490   1.652   4.452
    8SAPS  H19S 1011   2.633   1.685   4.551
    8SAPS  C220 1012   2.570   1.843   4.425
    8SAPS  H20R 1013   2.479   1.888   4.378
    8SAPS  H20S 1014   2.635   1.800   4.347
    8SAPS  H20T 1015   2.621   1.925   4.480
    8SAPS   C33 1016   2.904   1.828   5.931
    8SAPS   H3X 1017   2.880   1.730   5.978
    8SAPS   H3Y 1018   3.010   1.829   5.898
    8SAPS   C34 1019   2.808   1.840   5.812
    8SAPS   H4X 1020   2.700   1.832   5.840
    8SAPS   H4Y 1021   2.840   1.759   5.743
    8SAPS   C35 1022   2.832   1.963   5.727
    8SAPS   H5X 1023   2.940   1.969   5.701
    8SAPS   H5Y 1024   2.814   2.058   5.784
    8SAPS   C36 1025   2.751   1.980   5.597
    8SAPS   H6X 1026   2.776   2.082   5.560
    8SAPS   H6Y 1027   2.643   1.975   5.621
    8SAPS   C37 1028   2.791   1.879   5.492
    8SAPS   H7X 1029   2.748   1.781   5.522
    8SAPS   H7Y 1030   2.899   1.856   5.501
    8SAPS   C38 1031   2.775   1.921   5.347
    8SAPS   H8X 1032   2.828   1.858   5.272
    8SAPS   H8Y 1033   2.826   2.019   5.333
    8SAPS   C39 1034   2.626   1.934   5.294
    8SAPS   H9X 1035   2.587   2.015   5.360
    8SAPS   H9Y 1036   2.570   1.843   5.321
    8SAPS  C310 1037   2.615   1.966   5.136
    8SAPS  H10X 1038   2.507   1.959   5.109
    8SAPS  H10Y 1039   2.635   1.876   5.074
    8SAPS  C311 1040   2.678   2.098   5.089
    8SAPS  H11X 1041   2.783   2.102   5.126
    8SAPS  H11Y 1042   2.619   2.173   5.147
    8SAPS  C312 1043   2.693   2.130   4.942
    8SAPS  H12X 1044   2.748   2.045   4.895
    8SAPS  H12Y 1045   2.749   2.226   4.934
    8SAPS  C313 1046   2.553   2.144   4.880
    8SAPS  H13X 1047   2.499   2.233   4.917
    8SAPS  H13Y 1048   2.492   2.054   4.904
    8SAPS  C314 1049   2.559   2.145   4.725
    8SAPS  H14X 1050   2.599   2.051   4.683
    8SAPS  H14Y 1051   2.633   2.224   4.700
    8SAPS  C315 1052   2.428   2.184   4.652
    8SAPS  H15X 1053   2.392   2.276   4.703
    8SAPS  H15Y 1054   2.356   2.100   4.659
    8SAPS  C316 1055   2.438   2.212   4.502
    8SAPS  H16X 1056   2.477   2.120   4.454
    8SAPS  H16Y 1057   2.514   2.293   4.493
    8SAPS  C317 1058   2.302   2.238   4.436
    8SAPS  H17X 1059   2.254   2.326   4.484
    8SAPS  H17Y 1060   2.225   2.162   4.464
    8SAPS  C318 1061   2.311   2.263   4.286
    8SAPS  H18X 1062   2.315   2.167   4.230
    8SAPS  H18Y 1063   2.391   2.338   4.267
    8SAPS  H18Z 1064   2.214   2.302   4.250
    9SAPS     N 1065   1.305   5.706   6.726
    9SAPS   HN1 1066   1.382   5.771   6.699
    9SAPS   HN2 1067   1.265   5.737   6.817
    9SAPS   HN3 1068   1.343   5.610   6.731
    9SAPS   C12 1069   1.203   5.706   6.620
    9SAPS  H12A 1070   1.124   5.639   6.650
    9SAPS   C13 1071   1.150   5.847   6.593
    9SAPS  O13A 1072   1.215   5.942   6.637
    9SAPS  O13B 1073   1.054   5.866   6.508
    9SAPS   C11 1074   1.248   5.641   6.483
    9SAPS  H11A 1075   1.336   5.707   6.464
    9SAPS  H11B 1076   1.178   5.653   6.397
    9SAPS     P 1077   1.206   5.392   6.476
    9SAPS   O13 1078   1.281   5.267   6.488
    9SAPS   O14 1079   1.081   5.406   6.556
    9SAPS   O12 1080   1.301   5.507   6.516
    9SAPS   O11 1081   1.171   5.430   6.326
    9SAPS    C1 1082   1.276   5.398   6.232
    9SAPS    HA 1083   1.309   5.499   6.200
    9SAPS    HB 1084   1.367   5.350   6.273
    9SAPS    C2 1085   1.220   5.321   6.115
    9SAPS    HS 1086   1.302   5.289   6.048
    9SAPS   O21 1087   1.119   5.392   6.049
    9SAPS   C21 1088   1.168   5.478   5.955
    9SAPS   O22 1089   1.279   5.487   5.918
    9SAPS   C22 1090   1.057   5.575   5.917
    9SAPS   H2R 1091   0.984   5.514   5.859
    9SAPS   H2S 1092   1.008   5.617   6.008
    9SAPS    C3 1093   1.153   5.182   6.162
    9SAPS    HX 1094   1.049   5.207   6.189
    9SAPS    HY 1095   1.209   5.145   6.251
    9SAPS   O31 1096   1.162   5.083   6.055
    9SAPS   C31 1097   1.264   5.001   6.058
    9SAPS   O32 1098   1.328   4.972   6.154
    9SAPS   C32 1099   1.266   4.925   5.926
    9SAPS   H2X 1100   1.264   5.008   5.853
    9SAPS   H2Y 1101   1.181   4.859   5.898
    9SAPS   C23 1102   1.101   5.681   5.815
    9SAPS   H3R 1103   1.155   5.641   5.726
    9SAPS   H3S 1104   1.163   5.765   5.852
    9SAPS   C24 1105   0.985   5.753   5.745
    9SAPS   H4R 1106   1.022   5.833   5.676
    9SAPS   H4S 1107   0.924   5.800   5.824
    9SAPS   C25 1108   0.893   5.673   5.657
    9SAPS   H5R 1109   0.796   5.645   5.700
    9SAPS   C26 1110   0.910   5.648   5.527
    9SAPS   H6R 1111   0.827   5.590   5.485
    9SAPS   C27 1112   1.033   5.682   5.445
    9SAPS   H7R 1113   1.117   5.723   5.505
    9SAPS   H7S 1114   1.008   5.764   5.374
    9SAPS   C28 1115   1.073   5.558   5.364
    9SAPS   H8R 1116   1.125   5.480   5.422
    9SAPS   C29 1117   1.069   5.544   5.223
    9SAPS   H9R 1118   1.113   5.454   5.179
    9SAPS  C210 1119   1.012   5.645   5.131
    9SAPS  H10R 1120   1.077   5.731   5.157
    9SAPS  H10S 1121   0.907   5.671   5.158
    9SAPS  C211 1122   1.011   5.613   4.989
    9SAPS  H11R 1123   0.961   5.518   4.968
    9SAPS  C212 1124   1.076   5.677   4.894
    9SAPS  H12R 1125   1.068   5.634   4.793
    9SAPS  C213 1126   1.161   5.804   4.899
    9SAPS  H13R 1127   1.111   5.887   4.954
    9SAPS  H13S 1128   1.169   5.840   4.794
    9SAPS  C214 1129   1.284   5.784   4.969
    9SAPS  H14R 1130   1.268   5.725   5.061
    9SAPS  C215 1131   1.408   5.808   4.920
    9SAPS  H15R 1132   1.491   5.768   4.980
    9SAPS  C216 1133   1.444   5.890   4.802
    9SAPS  H16R 1134   1.483   5.989   4.833
    9SAPS  H16S 1135   1.357   5.924   4.743
    9SAPS  C217 1136   1.540   5.809   4.705
    9SAPS  H17R 1137   1.483   5.745   4.634
    9SAPS  H17S 1138   1.606   5.741   4.764
    9SAPS  C218 1139   1.632   5.897   4.616
    9SAPS  H18R 1140   1.706   5.834   4.562
    9SAPS  H18S 1141   1.689   5.961   4.687
    9SAPS  C219 1142   1.554   5.985   4.525
    9SAPS  H19R 1143   1.504   6.062   4.588
    9SAPS  H19S 1144   1.487   5.924   4.460
    9SAPS  C220 1145   1.649   6.050   4.426
    9SAPS  H20R 1146   1.726   6.116   4.474
    9SAPS  H20S 1147   1.598   6.113   4.351
    9SAPS  H20T 1148   1.701   5.967   4.375
    9SAPS   C33 1149   1.401   4.846   5.910
    9SAPS   H3X 1150   1.393   4.765   5.986
    9SAPS   H3Y 1151   1.487   4.912   5.936
    9SAPS   C34 1152   1.429   4.771   5.777
    9SAPS   H4X 1153   1.363   4.684   5.796
    9SAPS   H4Y 1154   1.532   4.731   5.768
    9SAPS   C35 1155   1.399   4.833   5.640
    9SAPS   H5X 1156   1.476   4.910   5.619
    9SAPS   H5Y 1157   1.305   4.892   5.644
    9SAPS   C36 1158   1.410   4.735   5.528
    9SAPS   H6X 1159   1.321   4.671   5.547
    9SAPS   H6Y 1160   1.500   4.669   5.528
    9SAPS   C37 1161   1.405   4.796   5.381
    9SAPS   H7X 1162   1.498   4.857   5.372
    9SAPS   H7Y 1163   1.319   4.866   5.378
    9SAPS   C38 1164   1.392   4.695   5.268
    9SAPS   H8X 1165   1.311   4.626   5.300
    9SAPS   H8Y 1166   1.488   4.639   5.260
    9SAPS   C39 1167   1.355   4.760   5.130
    9SAPS   H9X 1168   1.423   4.846   5.109
    9SAPS   H9Y 1169   1.253   4.800   5.144
    9SAPS  C310 1170   1.361   4.671   5.006
    9SAPS  H10X 1171   1.329   4.736   4.921
    9SAPS  H10Y 1172   1.288   4.587   5.009
    9SAPS  C311 1173   1.497   4.608   4.981
    9SAPS  H11X 1174   1.534   4.541   5.062
    9SAPS  H11Y 1175   1.567   4.690   4.954
    9SAPS  C312 1176   1.489   4.518   4.855
    9SAPS  H12X 1177   1.453   4.586   4.774
    9SAPS  H12Y 1178   1.412   4.440   4.872
    9SAPS  C313 1179   1.624   4.449   4.820
    9SAPS  H13X 1180   1.645   4.365   4.890
    9SAPS  H13Y 1181   1.714   4.514   4.811
    9SAPS  C314 1182   1.602   4.388   4.687
    9SAPS  H14X 1183   1.571   4.464   4.612
    9SAPS  H14Y 1184   1.534   4.302   4.707
    9SAPS  C315 1185   1.736   4.320   4.651
    9SAPS  H15X 1186   1.776   4.268   4.740
    9SAPS  H15Y 1187   1.811   4.395   4.618
    9SAPS  C316 1188   1.711   4.215   4.533
    9SAPS  H16X 1189   1.661   4.130   4.585
    9SAPS  H16Y 1190   1.811   4.189   4.493
    9SAPS  C317 1191   1.621   4.272   4.415
    9SAPS  H17X 1192   1.664   4.371   4.388
    9SAPS  H17Y 1193   1.522   4.290   4.462
    9SAPS  C318 1194   1.602   4.185   4.287
    9SAPS  H18X 1195   1.523   4.225   4.221
    9SAPS  H18Y 1196   1.561   4.084   4.309
    9SAPS  H18Z 1197   1.700   4.181   4.235
   10SAPS     N 1198   1.596   5.063   6.959
   10SAPS   HN1 1199   1.546   5.099   7.042
   10SAPS   HN2 1200   1.547   5.106   6.878
   10SAPS   HN3 1201   1.587   4.960   6.949
   10SAPS   C12 1202   1.736   5.096   6.948
   10SAPS  H12A 1203   1.745   5.192   6.899
   10SAPS   C13 1204   1.816   5.110   7.078
   10SAPS  O13A 1205   1.765   5.075   7.190
   10SAPS  O13B 1206   1.921   5.180   7.072
   10SAPS   C11 1207   1.804   4.983   6.855
   10SAPS  H11A 1208   1.815   4.884   6.903
   10SAPS  H11B 1209   1.912   5.010   6.858
   10SAPS     P 1210   1.836   4.896   6.616
   10SAPS   O13 1211   1.976   4.937   6.624
   10SAPS   O14 1212   1.817   4.752   6.633
   10SAPS   O12 1213   1.753   4.971   6.721
   10SAPS   O11 1214   1.766   4.939   6.486
   10SAPS    C1 1215   1.713   5.075   6.460
   10SAPS    HA 1216   1.629   5.093   6.530
   10SAPS    HB 1217   1.792   5.148   6.487
   10SAPS    C2 1218   1.663   5.093   6.312
   10SAPS    HS 1219   1.571   5.031   6.310
   10SAPS   O21 1220   1.751   5.041   6.212
   10SAPS   C21 1221   1.880   5.074   6.219
   10SAPS   O22 1222   1.936   5.148   6.298
   10SAPS   C22 1223   1.947   4.990   6.108
   10SAPS   H2R 1224   1.945   4.880   6.125
   10SAPS   H2S 1225   1.913   5.013   6.005
   10SAPS    C3 1226   1.642   5.237   6.286
   10SAPS    HX 1227   1.735   5.297   6.293
   10SAPS    HY 1228   1.581   5.270   6.373
   10SAPS   O31 1229   1.580   5.262   6.160
   10SAPS   C31 1230   1.659   5.302   6.058
   10SAPS   O32 1231   1.775   5.338   6.073
   10SAPS   C32 1232   1.583   5.299   5.930
   10SAPS   H2X 1233   1.530   5.396   5.944
   10SAPS   H2Y 1234   1.497   5.229   5.928
   10SAPS   C23 1235   2.092   5.034   6.094
   10SAPS   H3R 1236   2.143   5.032   6.193
   10SAPS   H3S 1237   2.098   5.139   6.059
   10SAPS   C24 1238   2.169   4.942   6.001
   10SAPS   H4R 1239   2.112   4.944   5.905
   10SAPS   H4S 1240   2.163   4.834   6.025
   10SAPS   C25 1241   2.314   4.983   5.999
   10SAPS   H5R 1242   2.361   5.002   6.097
   10SAPS   C26 1243   2.384   5.020   5.886
   10SAPS   H6R 1244   2.492   5.041   5.885
   10SAPS   C27 1245   2.328   5.016   5.745
   10SAPS   H7R 1246   2.249   5.095   5.737
   10SAPS   H7S 1247   2.273   4.921   5.728
   10SAPS   C28 1248   2.431   5.024   5.643
   10SAPS   H8R 1249   2.513   5.092   5.674
   10SAPS   C29 1250   2.437   4.971   5.523
   10SAPS   H9R 1251   2.530   4.987   5.466
   10SAPS  C210 1252   2.336   4.879   5.466
   10SAPS  H10R 1253   2.235   4.904   5.504
   10SAPS  H10S 1254   2.345   4.775   5.505
   10SAPS  C211 1255   2.343   4.874   5.315
   10SAPS  H11R 1256   2.394   4.785   5.275
   10SAPS  C212 1257   2.290   4.959   5.221
   10SAPS  H12R 1258   2.293   4.939   5.113
   10SAPS  C213 1259   2.233   5.088   5.276
   10SAPS  H13R 1260   2.299   5.172   5.246
   10SAPS  H13S 1261   2.223   5.098   5.386
   10SAPS  C214 1262   2.096   5.106   5.217
   10SAPS  H14R 1263   2.025   5.027   5.242
   10SAPS  C215 1264   2.062   5.199   5.125
   10SAPS  H15R 1265   1.957   5.194   5.091
   10SAPS  C216 1266   2.151   5.301   5.066
   10SAPS  H16R 1267   2.237   5.331   5.130
   10SAPS  H16S 1268   2.082   5.384   5.037
   10SAPS  C217 1269   2.208   5.229   4.944
   10SAPS  H17R 1270   2.282   5.151   4.973
   10SAPS  H17S 1271   2.274   5.305   4.896
   10SAPS  C218 1272   2.104   5.168   4.850
   10SAPS  H18R 1273   2.033   5.247   4.819
   10SAPS  H18S 1274   2.050   5.083   4.896
   10SAPS  C219 1275   2.157   5.103   4.723
   10SAPS  H19R 1276   2.220   5.186   4.684
   10SAPS  H19S 1277   2.073   5.084   4.653
   10SAPS  C220 1278   2.235   4.970   4.732
   10SAPS  H20R 1279   2.228   4.922   4.632
   10SAPS  H20S 1280   2.208   4.899   4.812
   10SAPS  H20T 1281   2.343   4.984   4.751
   10SAPS   C33 1282   1.667   5.309   5.806
   10SAPS   H3X 1283   1.751   5.381   5.819
   10SAPS   H3Y 1284   1.598   5.354   5.731
   10SAPS   C34 1285   1.730   5.190   5.744
   10SAPS   H4X 1286   1.643   5.122   5.747
   10SAPS   H4Y 1287   1.800   5.156   5.823
   10SAPS   C35 1288   1.783   5.213   5.601
   10SAPS   H5X 1289   1.841   5.308   5.610
   10SAPS   H5Y 1290   1.696   5.250   5.543
   10SAPS   C36 1291   1.857   5.100   5.536
   10SAPS   H6X 1292   1.951   5.073   5.588
   10SAPS   H6Y 1293   1.894   5.137   5.439
   10SAPS   C37 1294   1.756   4.990   5.503
   10SAPS   H7X 1295   1.663   5.043   5.475
   10SAPS   H7Y 1296   1.743   4.915   5.583
   10SAPS   C38 1297   1.801   4.907   5.378
   10SAPS   H8X 1298   1.752   4.808   5.393
   10SAPS   H8Y 1299   1.911   4.895   5.379
   10SAPS   C39 1300   1.756   4.976   5.251
   10SAPS   H9X 1301   1.810   5.073   5.238
   10SAPS   H9Y 1302   1.648   5.000   5.263
   10SAPS  C310 1303   1.788   4.894   5.121
   10SAPS  H10X 1304   1.745   4.792   5.131
   10SAPS  H10Y 1305   1.898   4.886   5.106
   10SAPS  C311 1306   1.726   4.963   4.996
   10SAPS  H11X 1307   1.769   5.066   5.000
   10SAPS  H11Y 1308   1.616   4.967   5.009
   10SAPS  C312 1309   1.781   4.904   4.866
   10SAPS  H12X 1310   1.726   4.807   4.865
   10SAPS  H12Y 1311   1.890   4.884   4.870
   10SAPS  C313 1312   1.736   4.982   4.736
   10SAPS  H13X 1313   1.811   5.063   4.719
   10SAPS  H13Y 1314   1.636   5.028   4.745
   10SAPS  C314 1315   1.739   4.891   4.613
   10SAPS  H14X 1316   1.738   4.961   4.528
   10SAPS  H14Y 1317   1.647   4.828   4.611
   10SAPS  C315 1318   1.873   4.817   4.587
   10SAPS  H15X 1319   1.882   4.729   4.654
   10SAPS  H15Y 1320   1.956   4.890   4.598
   10SAPS  C316 1321   1.883   4.772   4.442
   10SAPS  H16X 1322   1.972   4.706   4.451
   10SAPS  H16Y 1323   1.898   4.861   4.377
   10SAPS  C317 1324   1.760   4.699   4.403
   10SAPS  H17X 1325   1.676   4.772   4.397
   10SAPS  H17Y 1326   1.724   4.625   4.478
   10SAPS  C318 1327   1.762   4.647   4.258
   10SAPS  H18X 1328   1.843   4.572   4.243
   10SAPS  H18Y 1329   1.783   4.728   4.185
   10SAPS  H18Z 1330   1.670   4.591   4.230
   11SAPS     N 1331   3.587   2.632   1.820
   11SAPS   HN1 1332   3.666   2.579   1.861
   11SAPS   HN2 1333   3.512   2.574   1.862
   11SAPS   HN3 1334   3.578   2.630   1.717
   11SAPS   C12 1335   3.575   2.765   1.874
   11SAPS  H12A 1336   3.580   2.765   1.982
   11SAPS   C13 1337   3.682   2.863   1.817
   11SAPS  O13A 1338   3.745   2.837   1.713
   11SAPS  O13B 1339   3.727   2.946   1.893
   11SAPS   C11 1340   3.430   2.821   1.837
   11SAPS  H11A 1341   3.428   2.876   1.740
   11SAPS  H11B 1342   3.418   2.895   1.919
   11SAPS     P 1343   3.178   2.770   1.839
   11SAPS   O13 1344   3.164   2.844   1.710
   11SAPS   O14 1345   3.083   2.656   1.871
   11SAPS   O12 1346   3.329   2.723   1.853
   11SAPS   O11 1347   3.157   2.888   1.948
   11SAPS    C1 1348   3.177   2.838   2.080
   11SAPS    HA 1349   3.098   2.768   2.114
   11SAPS    HB 1350   3.275   2.786   2.082
   11SAPS    C2 1351   3.176   2.948   2.191
   11SAPS    HS 1352   3.073   2.990   2.191
   11SAPS   O21 1353   3.268   3.048   2.160
   11SAPS   C21 1354   3.257   3.155   2.227
   11SAPS   O22 1355   3.162   3.184   2.300
   11SAPS   C22 1356   3.364   3.252   2.184
   11SAPS   H2R 1357   3.458   3.202   2.151
   11SAPS   H2S 1358   3.326   3.320   2.105
   11SAPS    C3 1359   3.209   2.892   2.332
   11SAPS    HX 1360   3.193   2.973   2.406
   11SAPS    HY 1361   3.319   2.874   2.321
   11SAPS   O31 1362   3.143   2.767   2.364
   11SAPS   C31 1363   3.170   2.735   2.494
   11SAPS   O32 1364   3.243   2.794   2.573
   11SAPS   C32 1365   3.079   2.621   2.525
   11SAPS   H2X 1366   3.112   2.528   2.473
   11SAPS   H2Y 1367   2.981   2.649   2.482
   11SAPS   C23 1368   3.406   3.331   2.308
   11SAPS   H3R 1369   3.318   3.363   2.368
   11SAPS   H3S 1370   3.446   3.425   2.264
   11SAPS   C24 1371   3.512   3.270   2.397
   11SAPS   H4R 1372   3.551   3.353   2.460
   11SAPS   H4S 1373   3.599   3.239   2.335
   11SAPS   C25 1374   3.463   3.161   2.488
   11SAPS   H5R 1375   3.477   3.062   2.441
   11SAPS   C26 1376   3.397   3.174   2.604
   11SAPS   H6R 1377   3.375   3.085   2.665
   11SAPS   C27 1378   3.390   3.305   2.679
   11SAPS   H7R 1379   3.303   3.307   2.748
   11SAPS   H7S 1380   3.362   3.389   2.612
   11SAPS   C28 1381   3.521   3.344   2.747
   11SAPS   H8R 1382   3.607   3.285   2.711
   11SAPS   C29 1383   3.521   3.432   2.842
   11SAPS   H9R 1384   3.622   3.445   2.885
   11SAPS  C210 1385   3.412   3.531   2.888
   11SAPS  H10R 1386   3.337   3.473   2.945
   11SAPS  H10S 1387   3.371   3.575   2.794
   11SAPS  C211 1388   3.462   3.656   2.959
   11SAPS  H11R 1389   3.511   3.724   2.889
   11SAPS  C212 1390   3.471   3.683   3.091
   11SAPS  H12R 1391   3.525   3.775   3.120
   11SAPS  C213 1392   3.423   3.603   3.208
   11SAPS  H13R 1393   3.327   3.551   3.193
   11SAPS  H13S 1394   3.395   3.667   3.294
   11SAPS  C214 1395   3.540   3.515   3.246
   11SAPS  H14R 1396   3.549   3.435   3.171
   11SAPS  C215 1397   3.613   3.517   3.363
   11SAPS  H15R 1398   3.700   3.451   3.369
   11SAPS  C216 1399   3.594   3.613   3.477
   11SAPS  H16R 1400   3.487   3.642   3.475
   11SAPS  H16S 1401   3.658   3.700   3.453
   11SAPS  C217 1402   3.649   3.570   3.616
   11SAPS  H17R 1403   3.759   3.559   3.605
   11SAPS  H17S 1404   3.605   3.470   3.634
   11SAPS  C218 1405   3.604   3.663   3.730
   11SAPS  H18R 1406   3.502   3.630   3.758
   11SAPS  H18S 1407   3.587   3.756   3.672
   11SAPS  C219 1408   3.691   3.671   3.848
   11SAPS  H19R 1409   3.787   3.716   3.815
   11SAPS  H19S 1410   3.706   3.569   3.888
   11SAPS  C220 1411   3.630   3.759   3.956
   11SAPS  H20R 1412   3.527   3.725   3.978
   11SAPS  H20S 1413   3.627   3.862   3.912
   11SAPS  H20T 1414   3.695   3.749   4.046
   11SAPS   C33 1415   3.056   2.607   2.675
   11SAPS   H3X 1416   3.023   2.703   2.719
   11SAPS   H3Y 1417   3.149   2.601   2.736
   11SAPS   C34 1418   2.949   2.513   2.704
   11SAPS   H4X 1419   2.945   2.445   2.616
   11SAPS   H4Y 1420   2.850   2.563   2.705
   11SAPS   C35 1421   2.980   2.441   2.835
   11SAPS   H5X 1422   3.082   2.396   2.839
   11SAPS   H5Y 1423   2.906   2.360   2.851
   11SAPS   C36 1424   2.963   2.531   2.957
   11SAPS   H6X 1425   2.855   2.553   2.972
   11SAPS   H6Y 1426   3.011   2.630   2.944
   11SAPS   C37 1427   2.998   2.482   3.102
   11SAPS   H7X 1428   3.104   2.447   3.105
   11SAPS   H7Y 1429   2.935   2.393   3.126
   11SAPS   C38 1430   2.967   2.586   3.210
   11SAPS   H8X 1431   2.865   2.624   3.187
   11SAPS   H8Y 1432   3.026   2.680   3.215
   11SAPS   C39 1433   2.961   2.530   3.351
   11SAPS   H9X 1434   3.062   2.492   3.377
   11SAPS   H9Y 1435   2.888   2.446   3.352
   11SAPS  C310 1436   2.918   2.640   3.448
   11SAPS  H10X 1437   2.811   2.668   3.437
   11SAPS  H10Y 1438   2.969   2.738   3.436
   11SAPS  C311 1439   2.937   2.600   3.597
   11SAPS  H11X 1440   3.039   2.562   3.616
   11SAPS  H11Y 1441   2.870   2.514   3.617
   11SAPS  C312 1442   2.905   2.712   3.701
   11SAPS  H12X 1443   2.803   2.747   3.674
   11SAPS  H12Y 1444   2.979   2.792   3.684
   11SAPS  C313 1445   2.899   2.645   3.841
   11SAPS  H13X 1446   2.990   2.582   3.852
   11SAPS  H13Y 1447   2.811   2.577   3.839
   11SAPS  C314 1448   2.891   2.746   3.956
   11SAPS  H14X 1449   2.866   2.683   4.044
   11SAPS  H14Y 1450   2.803   2.803   3.920
   11SAPS  C315 1451   3.005   2.842   3.962
   11SAPS  H15X 1452   3.027   2.899   3.870
   11SAPS  H15Y 1453   3.094   2.779   3.984
   11SAPS  C316 1454   2.992   2.946   4.084
   11SAPS  H16X 1455   2.962   2.894   4.177
   11SAPS  H16Y 1456   2.912   3.019   4.061
   11SAPS  C317 1457   3.122   3.020   4.112
   11SAPS  H17X 1458   3.161   3.072   4.022
   11SAPS  H17Y 1459   3.208   2.954   4.138
   11SAPS  C318 1460   3.113   3.117   4.231
   11SAPS  H18X 1461   3.107   3.071   4.332
   11SAPS  H18Y 1462   3.022   3.180   4.218
   11SAPS  H18Z 1463   3.211   3.168   4.247
   12SAPS     N 1464   2.178   2.511   1.914
   12SAPS   HN1 1465   2.100   2.569   1.875
   12SAPS   HN2 1466   2.133   2.473   2.000
   12SAPS   HN3 1467   2.256   2.578   1.931
   12SAPS   C12 1468   2.217   2.403   1.810
   12SAPS  H12A 1469   2.128   2.348   1.784
   12SAPS   C13 1470   2.272   2.474   1.682
   12SAPS  O13A 1471   2.305   2.594   1.675
   12SAPS  O13B 1472   2.317   2.396   1.592
   12SAPS   C11 1473   2.329   2.304   1.867
   12SAPS  H11A 1474   2.411   2.372   1.896
   12SAPS  H11B 1475   2.374   2.238   1.789
   12SAPS     P 1476   2.364   2.105   2.028
   12SAPS   O13 1477   2.374   2.007   1.921
   12SAPS   O14 1478   2.486   2.162   2.084
   12SAPS   O12 1479   2.277   2.224   1.978
   12SAPS   O11 1480   2.284   2.035   2.149
   12SAPS    C1 1481   2.192   2.106   2.232
   12SAPS    HA 1482   2.165   2.204   2.188
   12SAPS    HB 1483   2.098   2.046   2.238
   12SAPS    C2 1484   2.250   2.139   2.373
   12SAPS    HS 1485   2.342   2.200   2.372
   12SAPS   O21 1486   2.268   2.008   2.430
   12SAPS   C21 1487   2.364   2.003   2.525
   12SAPS   O22 1488   2.430   2.092   2.571
   12SAPS   C22 1489   2.382   1.859   2.578
   12SAPS   H2R 1490   2.317   1.860   2.668
   12SAPS   H2S 1491   2.338   1.781   2.512
   12SAPS    C3 1492   2.134   2.218   2.449
   12SAPS    HX 1493   2.040   2.159   2.443
   12SAPS    HY 1494   2.111   2.308   2.388
   12SAPS   O31 1495   2.168   2.284   2.576
   12SAPS   C31 1496   2.154   2.197   2.679
   12SAPS   O32 1497   2.127   2.082   2.678
   12SAPS   C32 1498   2.189   2.273   2.806
   12SAPS   H2X 1499   2.112   2.249   2.882
   12SAPS   H2Y 1500   2.174   2.381   2.786
   12SAPS   C23 1501   2.518   1.836   2.625
   12SAPS   H3R 1502   2.535   1.897   2.716
   12SAPS   H3S 1503   2.581   1.861   2.537
   12SAPS   C24 1504   2.542   1.682   2.659
   12SAPS   H4R 1505   2.647   1.653   2.637
   12SAPS   H4S 1506   2.477   1.621   2.592
   12SAPS   C25 1507   2.508   1.648   2.798
   12SAPS   H5R 1508   2.404   1.668   2.826
   12SAPS   C26 1509   2.593   1.614   2.898
   12SAPS   H6R 1510   2.546   1.582   2.992
   12SAPS   C27 1511   2.739   1.588   2.888
   12SAPS   H7R 1512   2.767   1.557   2.785
   12SAPS   H7S 1513   2.752   1.489   2.936
   12SAPS   C28 1514   2.828   1.697   2.947
   12SAPS   H8R 1515   2.883   1.764   2.880
   12SAPS   C29 1516   2.838   1.720   3.081
   12SAPS   H9R 1517   2.898   1.808   3.110
   12SAPS  C210 1518   2.775   1.659   3.195
   12SAPS  H10R 1519   2.712   1.573   3.163
   12SAPS  H10S 1520   2.705   1.731   3.243
   12SAPS  C211 1521   2.882   1.610   3.296
   12SAPS  H11R 1522   2.939   1.525   3.258
   12SAPS  C212 1523   2.884   1.651   3.422
   12SAPS  H12R 1524   2.952   1.602   3.494
   12SAPS  C213 1525   2.803   1.762   3.488
   12SAPS  H13R 1526   2.698   1.733   3.511
   12SAPS  H13S 1527   2.782   1.845   3.417
   12SAPS  C214 1528   2.875   1.826   3.606
   12SAPS  H14R 1529   2.931   1.919   3.590
   12SAPS  C215 1530   2.876   1.776   3.734
   12SAPS  H15R 1531   2.941   1.833   3.801
   12SAPS  C216 1532   2.826   1.651   3.789
   12SAPS  H16R 1533   2.910   1.611   3.849
   12SAPS  H16S 1534   2.796   1.572   3.716
   12SAPS  C217 1535   2.696   1.676   3.874
   12SAPS  H17R 1536   2.618   1.716   3.806
   12SAPS  H17S 1537   2.723   1.752   3.950
   12SAPS  C218 1538   2.654   1.542   3.944
   12SAPS  H18R 1539   2.728   1.504   4.018
   12SAPS  H18S 1540   2.661   1.464   3.866
   12SAPS  C219 1541   2.515   1.542   4.014
   12SAPS  H19R 1542   2.443   1.570   3.934
   12SAPS  H19S 1543   2.513   1.630   4.081
   12SAPS  C220 1544   2.464   1.414   4.090
   12SAPS  H20R 1545   2.548   1.359   4.138
   12SAPS  H20S 1546   2.437   1.339   4.012
   12SAPS  H20T 1547   2.373   1.424   4.152
   12SAPS   C33 1548   2.327   2.243   2.852
   12SAPS   H3X 1549   2.396   2.331   2.857
   12SAPS   H3Y 1550   2.369   2.158   2.796
   12SAPS   C34 1551   2.326   2.181   3.000
   12SAPS   H4X 1552   2.239   2.113   2.990
   12SAPS   H4Y 1553   2.316   2.271   3.063
   12SAPS   C35 1554   2.457   2.116   3.026
   12SAPS   H5X 1555   2.529   2.200   3.020
   12SAPS   H5Y 1556   2.482   2.044   2.946
   12SAPS   C36 1557   2.463   2.044   3.166
   12SAPS   H6X 1558   2.554   1.982   3.165
   12SAPS   H6Y 1559   2.376   1.975   3.168
   12SAPS   C37 1560   2.471   2.137   3.289
   12SAPS   H7X 1561   2.368   2.175   3.307
   12SAPS   H7Y 1562   2.544   2.218   3.269
   12SAPS   C38 1563   2.520   2.064   3.416
   12SAPS   H8X 1564   2.623   2.024   3.408
   12SAPS   H8Y 1565   2.445   1.984   3.435
   12SAPS   C39 1566   2.518   2.160   3.529
   12SAPS   H9X 1567   2.415   2.201   3.537
   12SAPS   H9Y 1568   2.583   2.242   3.492
   12SAPS  C310 1569   2.540   2.106   3.673
   12SAPS  H10X 1570   2.597   2.184   3.728
   12SAPS  H10Y 1571   2.606   2.016   3.672
   12SAPS  C311 1572   2.407   2.077   3.749
   12SAPS  H11X 1573   2.356   2.000   3.687
   12SAPS  H11Y 1574   2.335   2.160   3.761
   12SAPS  C312 1575   2.424   2.006   3.888
   12SAPS  H12X 1576   2.485   2.072   3.953
   12SAPS  H12Y 1577   2.482   1.915   3.863
   12SAPS  C313 1578   2.291   1.968   3.958
   12SAPS  H13X 1579   2.234   1.909   3.882
   12SAPS  H13Y 1580   2.229   2.059   3.972
   12SAPS  C314 1581   2.301   1.890   4.085
   12SAPS  H14X 1582   2.384   1.912   4.156
   12SAPS  H14Y 1583   2.311   1.781   4.066
   12SAPS  C315 1584   2.171   1.907   4.170
   12SAPS  H15X 1585   2.076   1.913   4.111
   12SAPS  H15Y 1586   2.170   1.999   4.232
   12SAPS  C316 1587   2.158   1.772   4.252
   12SAPS  H16X 1588   2.105   1.793   4.348
   12SAPS  H16Y 1589   2.260   1.740   4.283
   12SAPS  C317 1590   2.065   1.663   4.189
   12SAPS  H17X 1591   2.115   1.629   4.096
   12SAPS  H17Y 1592   1.964   1.705   4.172
   12SAPS  C318 1593   2.052   1.544   4.279
   12SAPS  H18X 1594   2.042   1.581   4.383
   12SAPS  H18Y 1595   2.149   1.490   4.279
   12SAPS  H18Z 1596   1.969   1.476   4.250
   13SAPS     N 1597   5.039   1.369   1.856
   13SAPS   HN1 1598   5.137   1.346   1.883
   13SAPS   HN2 1599   5.037   1.360   1.752
   13SAPS   HN3 1600   5.025   1.467   1.888
   13SAPS   C12 1601   4.942   1.275   1.917
   13SAPS  H12A 1602   4.846   1.311   1.881
   13SAPS   C13 1603   4.952   1.126   1.872
   13SAPS  O13A 1604   5.041   1.085   1.795
   13SAPS  O13B 1605   4.851   1.051   1.904
   13SAPS   C11 1606   4.954   1.300   2.069
   13SAPS  H11A 1607   5.052   1.264   2.109
   13SAPS  H11B 1608   4.877   1.233   2.112
   13SAPS     P 1609   4.825   1.495   2.212
   13SAPS   O13 1610   4.880   1.623   2.262
   13SAPS   O14 1611   4.686   1.493   2.148
   13SAPS   O12 1612   4.923   1.436   2.099
   13SAPS   O11 1613   4.847   1.391   2.329
   13SAPS    C1 1614   4.981   1.376   2.388
   13SAPS    HA 1615   5.024   1.274   2.393
   13SAPS    HB 1616   5.061   1.432   2.333
   13SAPS    C2 1617   4.979   1.413   2.533
   13SAPS    HS 1618   5.081   1.412   2.577
   13SAPS   O21 1619   4.891   1.324   2.601
   13SAPS   C21 1620   4.948   1.209   2.633
   13SAPS   O22 1621   5.065   1.171   2.617
   13SAPS   C22 1622   4.837   1.120   2.688
   13SAPS   H2R 1623   4.734   1.155   2.665
   13SAPS   H2S 1624   4.852   1.023   2.637
   13SAPS    C3 1625   4.937   1.563   2.547
   13SAPS    HX 1626   4.834   1.578   2.509
   13SAPS    HY 1627   4.992   1.616   2.466
   13SAPS   O31 1628   4.974   1.609   2.682
   13SAPS   C31 1629   4.877   1.591   2.775
   13SAPS   O32 1630   4.759   1.567   2.757
   13SAPS   C32 1631   4.948   1.584   2.911
   13SAPS   H2X 1632   5.027   1.663   2.916
   13SAPS   H2Y 1633   5.008   1.490   2.911
   13SAPS   C23 1634   4.859   1.089   2.840
   13SAPS   H3R 1635   4.960   1.043   2.846
   13SAPS   H3S 1636   4.784   1.013   2.870
   13SAPS   C24 1637   4.836   1.213   2.929
   13SAPS   H4R 1638   4.914   1.285   2.896
   13SAPS   H4S 1639   4.876   1.196   3.031
   13SAPS   C25 1640   4.694   1.266   2.943
   13SAPS   H5R 1641   4.651   1.324   2.860
   13SAPS   C26 1642   4.605   1.242   3.046
   13SAPS   H6R 1643   4.505   1.288   3.045
   13SAPS   C27 1644   4.633   1.156   3.164
   13SAPS   H7R 1645   4.713   1.081   3.146
   13SAPS   H7S 1646   4.545   1.092   3.184
   13SAPS   C28 1647   4.674   1.237   3.282
   13SAPS   H8R 1648   4.765   1.298   3.280
   13SAPS   C29 1649   4.602   1.262   3.396
   13SAPS   H9R 1650   4.649   1.307   3.485
   13SAPS  C210 1651   4.480   1.181   3.438
   13SAPS  H10R 1652   4.526   1.094   3.490
   13SAPS  H10S 1653   4.425   1.143   3.349
   13SAPS  C211 1654   4.393   1.266   3.526
   13SAPS  H11R 1655   4.316   1.332   3.484
   13SAPS  C212 1656   4.398   1.279   3.659
   13SAPS  H12R 1657   4.306   1.324   3.701
   13SAPS  C213 1658   4.500   1.216   3.757
   13SAPS  H13R 1659   4.561   1.302   3.794
   13SAPS  H13S 1660   4.554   1.140   3.696
   13SAPS  C214 1661   4.412   1.140   3.854
   13SAPS  H14R 1662   4.401   1.035   3.821
   13SAPS  C215 1663   4.364   1.187   3.969
   13SAPS  H15R 1664   4.311   1.122   4.041
   13SAPS  C216 1665   4.385   1.325   4.026
   13SAPS  H16R 1666   4.432   1.384   3.945
   13SAPS  H16S 1667   4.459   1.319   4.108
   13SAPS  C217 1668   4.263   1.408   4.077
   13SAPS  H17R 1669   4.190   1.417   3.993
   13SAPS  H17S 1670   4.306   1.509   4.091
   13SAPS  C218 1671   4.202   1.342   4.202
   13SAPS  H18R 1672   4.288   1.306   4.263
   13SAPS  H18S 1673   4.166   1.242   4.171
   13SAPS  C219 1674   4.110   1.434   4.266
   13SAPS  H19R 1675   4.168   1.515   4.314
   13SAPS  H19S 1676   4.071   1.377   4.352
   13SAPS  C220 1677   4.000   1.485   4.170
   13SAPS  H20R 1678   4.044   1.554   4.095
   13SAPS  H20S 1679   3.932   1.542   4.237
   13SAPS  H20T 1680   3.932   1.407   4.129
   13SAPS   C33 1681   4.849   1.605   3.031
   13SAPS   H3X 1682   4.769   1.528   3.023
   13SAPS   H3Y 1683   4.792   1.698   3.010
   13SAPS   C34 1684   4.900   1.602   3.176
   13SAPS   H4X 1685   4.978   1.681   3.177
   13SAPS   H4Y 1686   4.948   1.504   3.195
   13SAPS   C35 1687   4.789   1.625   3.278
   13SAPS   H5X 1688   4.707   1.554   3.252
   13SAPS   H5Y 1689   4.754   1.730   3.270
   13SAPS   C36 1690   4.826   1.595   3.427
   13SAPS   H6X 1691   4.915   1.651   3.463
   13SAPS   H6Y 1692   4.866   1.492   3.441
   13SAPS   C37 1693   4.705   1.627   3.525
   13SAPS   H7X 1694   4.631   1.545   3.517
   13SAPS   H7Y 1695   4.654   1.719   3.491
   13SAPS   C38 1696   4.744   1.632   3.667
   13SAPS   H8X 1697   4.807   1.721   3.689
   13SAPS   H8Y 1698   4.804   1.545   3.700
   13SAPS   C39 1699   4.620   1.633   3.758
   13SAPS   H9X 1700   4.578   1.530   3.753
   13SAPS   H9Y 1701   4.541   1.695   3.713
   13SAPS  C310 1702   4.634   1.670   3.912
   13SAPS  H10X 1703   4.535   1.655   3.960
   13SAPS  H10Y 1704   4.662   1.776   3.930
   13SAPS  C311 1705   4.736   1.575   3.970
   13SAPS  H11X 1706   4.835   1.597   3.924
   13SAPS  H11Y 1707   4.713   1.473   3.933
   13SAPS  C312 1708   4.742   1.581   4.118
   13SAPS  H12X 1709   4.636   1.579   4.151
   13SAPS  H12Y 1710   4.778   1.680   4.154
   13SAPS  C313 1711   4.828   1.475   4.186
   13SAPS  H13X 1712   4.932   1.484   4.148
   13SAPS  H13Y 1713   4.784   1.377   4.161
   13SAPS  C314 1714   4.831   1.473   4.339
   13SAPS  H14X 1715   4.733   1.435   4.377
   13SAPS  H14Y 1716   4.850   1.578   4.370
   13SAPS  C315 1717   4.945   1.396   4.400
   13SAPS  H15X 1718   5.035   1.437   4.350
   13SAPS  H15Y 1719   4.929   1.294   4.359
   13SAPS  C316 1720   4.956   1.403   4.551
   13SAPS  H16X 1721   4.857   1.373   4.592
   13SAPS  H16Y 1722   4.989   1.502   4.589
   13SAPS  C317 1723   5.045   1.292   4.606
   13SAPS  H17X 1724   4.992   1.197   4.580
   13SAPS  H17Y 1725   5.041   1.288   4.717
   13SAPS  C318 1726   5.194   1.280   4.561
   13SAPS  H18X 1727   5.194   1.265   4.451
   13SAPS  H18Y 1728   5.228   1.190   4.617
   13SAPS  H18Z 1729   5.252   1.372   4.585
   14SAPS     N 1730   5.289   3.416   1.953
   14SAPS   HN1 1731   5.190   3.439   1.971
   14SAPS   HN2 1732   5.282   3.318   1.920
   14SAPS   HN3 1733   5.343   3.440   2.039
   14SAPS   C12 1734   5.335   3.503   1.843
   14SAPS  H12A 1735   5.442   3.498   1.850
   14SAPS   C13 1736   5.296   3.440   1.706
   14SAPS  O13A 1737   5.218   3.344   1.700
   14SAPS  O13B 1738   5.347   3.497   1.610
   14SAPS   C11 1739   5.278   3.645   1.859
   14SAPS  H11A 1740   5.169   3.629   1.849
   14SAPS  H11B 1741   5.327   3.705   1.779
   14SAPS     P 1742   5.315   3.841   2.017
   14SAPS   O13 1743   5.427   3.895   1.943
   14SAPS   O14 1744   5.181   3.902   1.996
   14SAPS   O12 1745   5.308   3.690   1.997
   14SAPS   O11 1746   5.350   3.859   2.164
   14SAPS    C1 1747   5.265   3.833   2.263
   14SAPS    HA 1748   5.284   3.902   2.348
   14SAPS    HB 1749   5.159   3.856   2.242
   14SAPS    C2 1750   5.270   3.687   2.310
   14SAPS    HS 1751   5.245   3.616   2.228
   14SAPS   O21 1752   5.186   3.658   2.417
   14SAPS   C21 1753   5.051   3.657   2.396
   14SAPS   O22 1754   4.997   3.682   2.292
   14SAPS   C22 1755   4.984   3.626   2.533
   14SAPS   H2R 1756   4.876   3.622   2.509
   14SAPS   H2S 1757   5.013   3.524   2.567
   14SAPS    C3 1758   5.420   3.661   2.359
   14SAPS    HX 1759   5.480   3.666   2.266
   14SAPS    HY 1760   5.426   3.555   2.392
   14SAPS   O31 1761   5.451   3.761   2.462
   14SAPS   C31 1762   5.582   3.748   2.498
   14SAPS   O32 1763   5.672   3.690   2.440
   14SAPS   C32 1764   5.593   3.820   2.634
   14SAPS   H2X 1765   5.555   3.924   2.625
   14SAPS   H2Y 1766   5.702   3.815   2.656
   14SAPS   C23 1767   5.009   3.731   2.645
   14SAPS   H3R 1768   5.015   3.837   2.615
   14SAPS   H3S 1769   5.101   3.712   2.704
   14SAPS   C24 1770   4.881   3.714   2.737
   14SAPS   H4R 1771   4.896   3.622   2.797
   14SAPS   H4S 1772   4.788   3.717   2.676
   14SAPS   C25 1773   4.863   3.825   2.841
   14SAPS   H5R 1774   4.888   3.927   2.809
   14SAPS   C26 1775   4.843   3.821   2.977
   14SAPS   H6R 1776   4.841   3.915   3.033
   14SAPS   C27 1777   4.830   3.700   3.067
   14SAPS   H7R 1778   4.932   3.694   3.110
   14SAPS   H7S 1779   4.826   3.613   2.998
   14SAPS   C28 1780   4.713   3.699   3.167
   14SAPS   H8R 1781   4.615   3.690   3.119
   14SAPS   C29 1782   4.725   3.681   3.303
   14SAPS   H9R 1783   4.635   3.682   3.366
   14SAPS  C210 1784   4.857   3.689   3.380
   14SAPS  H10R 1785   4.948   3.683   3.318
   14SAPS  H10S 1786   4.869   3.593   3.435
   14SAPS  C211 1787   4.899   3.803   3.466
   14SAPS  H11R 1788   4.959   3.882   3.419
   14SAPS  C212 1789   4.856   3.826   3.590
   14SAPS  H12R 1790   4.880   3.922   3.639
   14SAPS  C213 1791   4.751   3.737   3.662
   14SAPS  H13R 1792   4.813   3.667   3.722
   14SAPS  H13S 1793   4.691   3.686   3.584
   14SAPS  C214 1794   4.666   3.813   3.764
   14SAPS  H14R 1795   4.694   3.917   3.789
   14SAPS  C215 1796   4.545   3.785   3.802
   14SAPS  H15R 1797   4.499   3.855   3.873
   14SAPS  C216 1798   4.470   3.658   3.786
   14SAPS  H16R 1799   4.423   3.617   3.878
   14SAPS  H16S 1800   4.544   3.580   3.762
   14SAPS  C217 1801   4.352   3.661   3.697
   14SAPS  H17R 1802   4.271   3.725   3.739
   14SAPS  H17S 1803   4.308   3.560   3.687
   14SAPS  C218 1804   4.373   3.727   3.562
   14SAPS  H18R 1805   4.467   3.687   3.520
   14SAPS  H18S 1806   4.378   3.835   3.588
   14SAPS  C219 1807   4.260   3.706   3.468
   14SAPS  H19R 1808   4.247   3.801   3.412
   14SAPS  H19S 1809   4.167   3.692   3.528
   14SAPS  C220 1810   4.277   3.598   3.356
   14SAPS  H20R 1811   4.317   3.509   3.409
   14SAPS  H20S 1812   4.350   3.639   3.283
   14SAPS  H20T 1813   4.174   3.579   3.321
   14SAPS   C33 1814   5.534   3.740   2.751
   14SAPS   H3X 1815   5.603   3.764   2.834
   14SAPS   H3Y 1816   5.541   3.630   2.733
   14SAPS   C34 1817   5.380   3.759   2.782
   14SAPS   H4X 1818   5.316   3.722   2.699
   14SAPS   H4Y 1819   5.366   3.868   2.792
   14SAPS   C35 1820   5.343   3.683   2.912
   14SAPS   H5X 1821   5.366   3.575   2.913
   14SAPS   H5Y 1822   5.232   3.680   2.924
   14SAPS   C36 1823   5.392   3.757   3.039
   14SAPS   H6X 1824   5.348   3.859   3.026
   14SAPS   H6Y 1825   5.503   3.764   3.037
   14SAPS   C37 1826   5.348   3.710   3.173
   14SAPS   H7X 1827   5.385   3.611   3.207
   14SAPS   H7Y 1828   5.241   3.679   3.178
   14SAPS   C38 1829   5.379   3.805   3.285
   14SAPS   H8X 1830   5.333   3.903   3.259
   14SAPS   H8Y 1831   5.488   3.825   3.296
   14SAPS   C39 1832   5.325   3.768   3.418
   14SAPS   H9X 1833   5.355   3.664   3.445
   14SAPS   H9Y 1834   5.216   3.758   3.401
   14SAPS  C310 1835   5.366   3.859   3.534
   14SAPS  H10X 1836   5.318   3.958   3.516
   14SAPS  H10Y 1837   5.477   3.866   3.527
   14SAPS  C311 1838   5.311   3.800   3.662
   14SAPS  H11X 1839   5.375   3.717   3.701
   14SAPS  H11Y 1840   5.204   3.771   3.651
   14SAPS  C312 1841   5.313   3.899   3.783
   14SAPS  H12X 1842   5.270   3.993   3.743
   14SAPS  H12Y 1843   5.410   3.927   3.829
   14SAPS  C313 1844   5.214   3.856   3.894
   14SAPS  H13X 1845   5.114   3.842   3.848
   14SAPS  H13Y 1846   5.206   3.941   3.964
   14SAPS  C314 1847   5.259   3.717   3.950
   14SAPS  H14X 1848   5.278   3.647   3.866
   14SAPS  H14Y 1849   5.178   3.669   4.008
   14SAPS  C315 1850   5.384   3.721   4.038
   14SAPS  H15X 1851   5.466   3.766   3.979
   14SAPS  H15Y 1852   5.415   3.615   4.048
   14SAPS  C316 1853   5.370   3.777   4.181
   14SAPS  H16X 1854   5.296   3.719   4.240
   14SAPS  H16Y 1855   5.327   3.879   4.178
   14SAPS  C317 1856   5.508   3.777   4.262
   14SAPS  H17X 1857   5.540   3.671   4.255
   14SAPS  H17Y 1858   5.494   3.803   4.369
   14SAPS  C318 1859   5.603   3.880   4.210
   14SAPS  H18X 1860   5.601   3.884   4.099
   14SAPS  H18Y 1861   5.706   3.856   4.245
   14SAPS  H18Z 1862   5.579   3.983   4.243
   15SAPS     N 1863   3.758   3.107   1.658
   15SAPS   HN1 1864   3.806   3.057   1.580
   15SAPS   HN2 1865   3.731   3.042   1.735
   15SAPS   HN3 1866   3.671   3.141   1.613
   15SAPS   C12 1867   3.847   3.212   1.708
   15SAPS  H12A 1868   3.943   3.169   1.732
   15SAPS   C13 1869   3.856   3.337   1.613
   15SAPS  O13A 1870   3.753   3.385   1.567
   15SAPS  O13B 1871   3.958   3.412   1.628
   15SAPS   C11 1872   3.791   3.262   1.846
   15SAPS  H11A 1873   3.750   3.178   1.905
   15SAPS  H11B 1874   3.702   3.327   1.832
   15SAPS     P 1875   3.983   3.261   2.019
   15SAPS   O13 1876   4.001   3.124   1.983
   15SAPS   O14 1877   4.105   3.345   2.042
   15SAPS   O12 1878   3.894   3.337   1.916
   15SAPS   O11 1879   3.893   3.260   2.150
   15SAPS    C1 1880   3.852   3.381   2.208
   15SAPS    HA 1881   3.909   3.469   2.171
   15SAPS    HB 1882   3.744   3.406   2.194
   15SAPS    C2 1883   3.880   3.386   2.365
   15SAPS    HS 1884   3.988   3.397   2.386
   15SAPS   O21 1885   3.840   3.266   2.424
   15SAPS   C21 1886   3.925   3.166   2.437
   15SAPS   O22 1887   4.045   3.166   2.409
   15SAPS   C22 1888   3.849   3.049   2.500
   15SAPS   H2R 1889   3.740   3.068   2.516
   15SAPS   H2S 1890   3.858   2.974   2.420
   15SAPS    C3 1891   3.808   3.499   2.447
   15SAPS    HX 1892   3.699   3.484   2.432
   15SAPS    HY 1893   3.836   3.601   2.411
   15SAPS   O31 1894   3.826   3.483   2.591
   15SAPS   C31 1895   3.917   3.566   2.643
   15SAPS   O32 1896   3.995   3.636   2.578
   15SAPS   C32 1897   3.910   3.554   2.798
   15SAPS   H2X 1898   3.911   3.446   2.824
   15SAPS   H2Y 1899   3.813   3.586   2.842
   15SAPS   C23 1900   3.908   2.996   2.633
   15SAPS   H3R 1901   4.019   3.003   2.626
   15SAPS   H3S 1902   3.881   2.889   2.648
   15SAPS   C24 1903   3.850   3.070   2.756
   15SAPS   H4R 1904   3.741   3.054   2.745
   15SAPS   H4S 1905   3.876   3.178   2.755
   15SAPS   C25 1906   3.897   3.006   2.891
   15SAPS   H5R 1907   3.865   2.903   2.914
   15SAPS   C26 1908   3.966   3.071   2.993
   15SAPS   H6R 1909   4.002   3.022   3.085
   15SAPS   C27 1910   4.014   3.216   2.994
   15SAPS   H7R 1911   3.935   3.283   3.035
   15SAPS   H7S 1912   4.009   3.247   2.888
   15SAPS   C28 1913   4.142   3.249   3.066
   15SAPS   H8R 1914   4.226   3.269   2.998
   15SAPS   C29 1915   4.142   3.258   3.204
   15SAPS   H9R 1916   4.237   3.283   3.254
   15SAPS  C210 1917   4.020   3.246   3.295
   15SAPS  H10R 1918   4.011   3.147   3.343
   15SAPS  H10S 1919   3.927   3.256   3.235
   15SAPS  C211 1920   4.006   3.362   3.389
   15SAPS  H11R 1921   3.956   3.447   3.340
   15SAPS  C212 1922   4.065   3.377   3.508
   15SAPS  H12R 1923   4.050   3.466   3.572
   15SAPS  C213 1924   4.138   3.259   3.564
   15SAPS  H13R 1925   4.197   3.208   3.485
   15SAPS  H13S 1926   4.065   3.182   3.599
   15SAPS  C214 1927   4.225   3.295   3.685
   15SAPS  H14R 1928   4.326   3.334   3.669
   15SAPS  C215 1929   4.180   3.295   3.815
   15SAPS  H15R 1930   4.234   3.333   3.903
   15SAPS  C216 1931   4.044   3.242   3.873
   15SAPS  H16R 1932   3.969   3.253   3.792
   15SAPS  H16S 1933   4.013   3.312   3.954
   15SAPS  C217 1934   4.051   3.102   3.937
   15SAPS  H17R 1935   4.136   3.106   4.009
   15SAPS  H17S 1936   4.088   3.031   3.860
   15SAPS  C218 1937   3.921   3.065   4.012
   15SAPS  H18R 1938   3.846   3.045   3.932
   15SAPS  H18S 1939   3.879   3.143   4.079
   15SAPS  C219 1940   3.935   2.952   4.112
   15SAPS  H19R 1941   4.009   2.994   4.185
   15SAPS  H19S 1942   3.977   2.865   4.057
   15SAPS  C220 1943   3.806   2.908   4.177
   15SAPS  H20R 1944   3.723   2.904   4.103
   15SAPS  H20S 1945   3.778   2.993   4.243
   15SAPS  H20T 1946   3.833   2.813   4.227
   15SAPS   C33 1947   4.030   3.626   2.872
   15SAPS   H3X 1948   4.034   3.726   2.823
   15SAPS   H3Y 1949   4.125   3.571   2.853
   15SAPS   C34 1950   4.006   3.654   3.024
   15SAPS   H4X 1951   4.097   3.705   3.062
   15SAPS   H4Y 1952   3.989   3.559   3.080
   15SAPS   C35 1953   3.878   3.729   3.053
   15SAPS   H5X 1954   3.794   3.659   3.030
   15SAPS   H5Y 1955   3.869   3.813   2.981
   15SAPS   C36 1956   3.867   3.768   3.201
   15SAPS   H6X 1957   3.881   3.681   3.268
   15SAPS   H6Y 1958   3.766   3.812   3.217
   15SAPS   C37 1959   3.963   3.888   3.243
   15SAPS   H7X 1960   3.919   3.985   3.211
   15SAPS   H7Y 1961   4.066   3.867   3.206
   15SAPS   C38 1962   3.973   3.903   3.395
   15SAPS   H8X 1963   4.064   3.959   3.426
   15SAPS   H8Y 1964   3.975   3.798   3.430
   15SAPS   C39 1965   3.852   3.966   3.471
   15SAPS   H9X 1966   3.753   3.928   3.440
   15SAPS   H9Y 1967   3.859   4.075   3.451
   15SAPS  C310 1968   3.867   3.944   3.636
   15SAPS  H10X 1969   3.903   3.841   3.653
   15SAPS  H10Y 1970   3.769   3.951   3.689
   15SAPS  C311 1971   3.967   4.037   3.713
   15SAPS  H11X 1972   3.938   4.140   3.684
   15SAPS  H11Y 1973   4.075   4.021   3.690
   15SAPS  C312 1974   3.957   4.026   3.865
   15SAPS  H12X 1975   3.856   3.991   3.894
   15SAPS  H12Y 1976   3.973   4.126   3.911
   15SAPS  C313 1977   4.062   3.932   3.944
   15SAPS  H13X 1978   4.155   3.991   3.958
   15SAPS  H13Y 1979   4.081   3.846   3.876
   15SAPS  C314 1980   4.002   3.877   4.072
   15SAPS  H14X 1981   3.928   3.801   4.041
   15SAPS  H14Y 1982   3.940   3.951   4.126
   15SAPS  C315 1983   4.098   3.821   4.174
   15SAPS  H15X 1984   4.055   3.793   4.272
   15SAPS  H15Y 1985   4.158   3.911   4.200
   15SAPS  C316 1986   4.194   3.716   4.121
   15SAPS  H16X 1987   4.188   3.717   4.010
   15SAPS  H16Y 1988   4.159   3.621   4.166
   15SAPS  C317 1989   4.338   3.746   4.171
   15SAPS  H17X 1990   4.341   3.851   4.134
   15SAPS  H17Y 1991   4.401   3.677   4.111
   15SAPS  C318 1992   4.376   3.728   4.324
   15SAPS  H18X 1993   4.480   3.769   4.324
   15SAPS  H18Y 1994   4.370   3.618   4.342
   15SAPS  H18Z 1995   4.301   3.791   4.376
   16SAPS     N 1996   5.987   4.234   1.943
   16SAPS   HN1 1997   5.979   4.313   2.010
   16SAPS   HN2 1998   5.920   4.162   1.978
   16SAPS   HN3 1999   6.082   4.192   1.949
   16SAPS   C12 2000   5.947   4.267   1.805
   16SAPS  H12A 2001   6.037   4.276   1.746
   16SAPS   C13 2002   5.873   4.165   1.727
   16SAPS  O13A 2003   5.853   4.052   1.788
   16SAPS  O13B 2004   5.794   4.194   1.632
   16SAPS   C11 2005   5.885   4.407   1.803
   16SAPS  H11A 2006   5.784   4.392   1.847
   16SAPS  H11B 2007   5.873   4.438   1.698
   16SAPS     P 2008   5.899   4.618   1.970
   16SAPS   O13 2009   5.974   4.609   2.100
   16SAPS   O14 2010   5.900   4.746   1.898
   16SAPS   O12 2011   5.953   4.508   1.870
   16SAPS   O11 2012   5.743   4.576   1.987
   16SAPS    C1 2013   5.650   4.662   2.057
   16SAPS    HA 2014   5.659   4.766   2.020
   16SAPS    HB 2015   5.546   4.627   2.038
   16SAPS    C2 2016   5.670   4.657   2.208
   16SAPS    HS 2017   5.774   4.690   2.228
   16SAPS   O21 2018   5.649   4.521   2.255
   16SAPS   C21 2019   5.720   4.479   2.352
   16SAPS   O22 2020   5.807   4.540   2.410
   16SAPS   C22 2021   5.684   4.335   2.389
   16SAPS   H2R 2022   5.577   4.332   2.418
   16SAPS   H2S 2023   5.703   4.273   2.298
   16SAPS    C3 2024   5.562   4.738   2.291
   16SAPS    HX 2025   5.463   4.715   2.246
   16SAPS    HY 2026   5.578   4.843   2.260
   16SAPS   O31 2027   5.580   4.722   2.434
   16SAPS   C31 2028   5.637   4.822   2.501
   16SAPS   O32 2029   5.676   4.928   2.456
   16SAPS   C32 2030   5.638   4.796   2.649
   16SAPS   H2X 2031   5.628   4.897   2.694
   16SAPS   H2Y 2032   5.734   4.747   2.675
   16SAPS   C23 2033   5.778   4.275   2.491
   16SAPS   H3R 2034   5.884   4.303   2.477
   16SAPS   H3S 2035   5.772   4.164   2.489
   16SAPS   C24 2036   5.732   4.305   2.639
   16SAPS   H4R 2037   5.712   4.413   2.651
   16SAPS   H4S 2038   5.819   4.271   2.700
   16SAPS   C25 2039   5.609   4.226   2.675
   16SAPS   H5R 2040   5.530   4.224   2.598
   16SAPS   C26 2041   5.577   4.177   2.793
   16SAPS   H6R 2042   5.489   4.111   2.800
   16SAPS   C27 2043   5.655   4.173   2.920
   16SAPS   H7R 2044   5.625   4.257   2.985
   16SAPS   H7S 2045   5.766   4.181   2.915
   16SAPS   C28 2046   5.640   4.048   2.998
   16SAPS   H8R 2047   5.661   3.954   2.944
   16SAPS   C29 2048   5.629   4.038   3.128
   16SAPS   H9R 2049   5.610   3.938   3.172
   16SAPS  C210 2050   5.601   4.144   3.238
   16SAPS  H10R 2051   5.492   4.144   3.257
   16SAPS  H10S 2052   5.633   4.246   3.208
   16SAPS  C211 2053   5.671   4.111   3.367
   16SAPS  H11R 2054   5.758   4.047   3.347
   16SAPS  C212 2055   5.628   4.146   3.490
   16SAPS  H12R 2056   5.684   4.126   3.583
   16SAPS  C213 2057   5.502   4.237   3.510
   16SAPS  H13R 2058   5.415   4.182   3.552
   16SAPS  H13S 2059   5.467   4.278   3.413
   16SAPS  C214 2060   5.527   4.348   3.614
   16SAPS  H14R 2061   5.551   4.449   3.575
   16SAPS  C215 2062   5.535   4.342   3.748
   16SAPS  H15R 2063   5.537   4.436   3.805
   16SAPS  C216 2064   5.521   4.215   3.823
   16SAPS  H16R 2065   5.512   4.127   3.755
   16SAPS  H16S 2066   5.425   4.223   3.880
   16SAPS  C217 2067   5.636   4.193   3.923
   16SAPS  H17R 2068   5.596   4.121   3.998
   16SAPS  H17S 2069   5.666   4.286   3.976
   16SAPS  C218 2070   5.773   4.144   3.862
   16SAPS  H18R 2071   5.798   4.225   3.790
   16SAPS  H18S 2072   5.750   4.055   3.800
   16SAPS  C219 2073   5.888   4.117   3.961
   16SAPS  H19R 2074   5.970   4.077   3.897
   16SAPS  H19S 2075   5.864   4.042   4.039
   16SAPS  C220 2076   5.948   4.240   4.034
   16SAPS  H20R 2077   6.045   4.222   4.084
   16SAPS  H20S 2078   5.880   4.277   4.114
   16SAPS  H20T 2079   5.968   4.321   3.961
   16SAPS   C33 2080   5.519   4.712   2.705
   16SAPS   H3X 2081   5.532   4.613   2.656
   16SAPS   H3Y 2082   5.418   4.749   2.675
   16SAPS   C34 2083   5.531   4.685   2.850
   16SAPS   H4X 2084   5.489   4.767   2.912
   16SAPS   H4Y 2085   5.634   4.663   2.886
   16SAPS   C35 2086   5.466   4.554   2.893
   16SAPS   H5X 2087   5.520   4.466   2.853
   16SAPS   H5Y 2088   5.363   4.550   2.850
   16SAPS   C36 2089   5.468   4.530   3.047
   16SAPS   H6X 2090   5.575   4.545   3.074
   16SAPS   H6Y 2091   5.440   4.424   3.066
   16SAPS   C37 2092   5.375   4.621   3.130
   16SAPS   H7X 2093   5.272   4.607   3.090
   16SAPS   H7Y 2094   5.402   4.729   3.127
   16SAPS   C38 2095   5.367   4.593   3.280
   16SAPS   H8X 2096   5.467   4.589   3.329
   16SAPS   H8Y 2097   5.322   4.492   3.290
   16SAPS   C39 2098   5.268   4.679   3.361
   16SAPS   H9X 2099   5.166   4.688   3.317
   16SAPS   H9Y 2100   5.309   4.782   3.366
   16SAPS  C310 2101   5.253   4.607   3.499
   16SAPS  H10X 2102   5.357   4.578   3.523
   16SAPS  H10Y 2103   5.205   4.509   3.479
   16SAPS  C311 2104   5.177   4.674   3.618
   16SAPS  H11X 2105   5.075   4.691   3.578
   16SAPS  H11Y 2106   5.225   4.774   3.626
   16SAPS  C312 2107   5.168   4.600   3.744
   16SAPS  H12X 2108   5.150   4.498   3.705
   16SAPS  H12Y 2109   5.084   4.641   3.803
   16SAPS  C313 2110   5.280   4.619   3.844
   16SAPS  H13X 2111   5.293   4.726   3.868
   16SAPS  H13Y 2112   5.381   4.599   3.802
   16SAPS  C314 2113   5.259   4.533   3.967
   16SAPS  H14X 2114   5.261   4.426   3.937
   16SAPS  H14Y 2115   5.167   4.562   4.022
   16SAPS  C315 2116   5.376   4.532   4.073
   16SAPS  H15X 2117   5.367   4.628   4.129
   16SAPS  H15Y 2118   5.470   4.517   4.016
   16SAPS  C316 2119   5.360   4.414   4.169
   16SAPS  H16X 2120   5.340   4.321   4.112
   16SAPS  H16Y 2121   5.274   4.441   4.235
   16SAPS  C317 2122   5.482   4.392   4.255
   16SAPS  H17X 2123   5.503   4.477   4.324
   16SAPS  H17Y 2124   5.575   4.377   4.195
   16SAPS  C318 2125   5.482   4.252   4.323
   16SAPS  H18X 2126   5.468   4.179   4.241
   16SAPS  H18Y 2127   5.386   4.253   4.380
   16SAPS  H18Z 2128   5.577   4.216   4.368
   17SAPS     N 2129   1.571   2.149   1.865
   17SAPS   HN1 2130   1.644   2.076   1.856
   17SAPS   HN2 2131   1.611   2.243   1.887
   17SAPS   HN3 2132   1.513   2.108   1.941
   17SAPS   C12 2133   1.491   2.164   1.743
   17SAPS  H12A 2134   1.413   2.231   1.774
   17SAPS   C13 2135   1.551   2.256   1.632
   17SAPS  O13A 2136   1.665   2.315   1.645
   17SAPS  O13B 2137   1.470   2.287   1.543
   17SAPS   C11 2138   1.436   2.030   1.680
   17SAPS  H11A 2139   1.523   1.988   1.626
   17SAPS  H11B 2140   1.357   2.052   1.605
   17SAPS     P 2141   1.239   1.905   1.795
   17SAPS   O13 2142   1.149   2.021   1.772
   17SAPS   O14 2143   1.208   1.778   1.718
   17SAPS   O12 2144   1.387   1.938   1.782
   17SAPS   O11 2145   1.221   1.873   1.947
   17SAPS    C1 2146   1.082   1.865   1.989
   17SAPS    HA 2147   1.008   1.871   1.906
   17SAPS    HB 2148   1.059   1.763   2.025
   17SAPS    C2 2149   1.056   1.960   2.112
   17SAPS    HS 2150   1.088   2.060   2.074
   17SAPS   O21 2151   1.147   1.914   2.218
   17SAPS   C21 2152   1.215   2.002   2.282
   17SAPS   O22 2153   1.213   2.124   2.258
   17SAPS   C22 2154   1.289   1.930   2.390
   17SAPS   H2R 2155   1.218   1.879   2.459
   17SAPS   H2S 2156   1.359   1.860   2.340
   17SAPS    C3 2157   0.904   1.970   2.152
   17SAPS    HX 2158   0.847   1.877   2.129
   17SAPS    HY 2159   0.865   2.042   2.077
   17SAPS   O31 2160   0.889   2.010   2.289
   17SAPS   C31 2161   0.884   2.135   2.312
   17SAPS   O32 2162   0.860   2.225   2.230
   17SAPS   C32 2163   0.918   2.166   2.455
   17SAPS   H2X 2164   0.865   2.257   2.492
   17SAPS   H2Y 2165   1.029   2.179   2.456
   17SAPS   C23 2166   1.368   2.034   2.474
   17SAPS   H3R 2167   1.306   2.093   2.546
   17SAPS   H3S 2168   1.431   2.089   2.401
   17SAPS   C24 2169   1.474   1.961   2.559
   17SAPS   H4R 2170   1.536   2.038   2.608
   17SAPS   H4S 2171   1.537   1.907   2.485
   17SAPS   C25 2172   1.426   1.852   2.652
   17SAPS   H5R 2173   1.427   1.755   2.600
   17SAPS   C26 2174   1.366   1.864   2.774
   17SAPS   H6R 2175   1.349   1.774   2.836
   17SAPS   C27 2176   1.338   1.993   2.846
   17SAPS   H7R 2177   1.230   1.996   2.872
   17SAPS   H7S 2178   1.355   2.087   2.788
   17SAPS   C28 2179   1.430   2.013   2.963
   17SAPS   H8R 2180   1.522   2.071   2.950
   17SAPS   C29 2181   1.423   1.974   3.089
   17SAPS   H9R 2182   1.504   2.001   3.159
   17SAPS  C210 2183   1.312   1.892   3.151
   17SAPS  H10R 2184   1.349   1.789   3.135
   17SAPS  H10S 2185   1.220   1.896   3.088
   17SAPS  C211 2186   1.286   1.922   3.295
   17SAPS  H11R 2187   1.203   1.992   3.315
   17SAPS  C212 2188   1.357   1.871   3.398
   17SAPS  H12R 2189   1.325   1.899   3.499
   17SAPS  C213 2190   1.480   1.776   3.405
   17SAPS  H13R 2191   1.562   1.845   3.433
   17SAPS  H13S 2192   1.519   1.741   3.307
   17SAPS  C214 2193   1.473   1.671   3.505
   17SAPS  H14R 2194   1.521   1.703   3.599
   17SAPS  C215 2195   1.423   1.551   3.477
   17SAPS  H15R 2196   1.416   1.482   3.562
   17SAPS  C216 2197   1.365   1.504   3.349
   17SAPS  H16R 2198   1.328   1.585   3.283
   17SAPS  H16S 2199   1.280   1.435   3.368
   17SAPS  C217 2200   1.469   1.419   3.270
   17SAPS  H17R 2201   1.507   1.336   3.333
   17SAPS  H17S 2202   1.555   1.482   3.240
   17SAPS  C218 2203   1.416   1.348   3.148
   17SAPS  H18R 2204   1.333   1.282   3.178
   17SAPS  H18S 2205   1.494   1.285   3.100
   17SAPS  C219 2206   1.375   1.457   3.043
   17SAPS  H19R 2207   1.468   1.510   3.014
   17SAPS  H19S 2208   1.306   1.537   3.077
   17SAPS  C220 2209   1.310   1.388   2.918
   17SAPS  H20R 2210   1.370   1.304   2.876
   17SAPS  H20S 2211   1.313   1.463   2.837
   17SAPS  H20T 2212   1.210   1.355   2.954
   17SAPS   C33 2213   0.880   2.063   2.567
   17SAPS   H3X 2214   0.937   1.968   2.571
   17SAPS   H3Y 2215   0.774   2.030   2.571
   17SAPS   C34 2216   0.920   2.132   2.699
   17SAPS   H4X 2217   0.857   2.221   2.721
   17SAPS   H4Y 2218   1.022   2.172   2.716
   17SAPS   C35 2219   0.915   2.026   2.814
   17SAPS   H5X 2220   1.006   1.962   2.809
   17SAPS   H5Y 2221   0.830   1.956   2.795
   17SAPS   C36 2222   0.896   2.096   2.948
   17SAPS   H6X 2223   0.799   2.149   2.940
   17SAPS   H6Y 2224   0.976   2.172   2.964
   17SAPS   C37 2225   0.883   1.998   3.068
   17SAPS   H7X 2226   0.972   1.932   3.062
   17SAPS   H7Y 2227   0.790   1.938   3.061
   17SAPS   C38 2228   0.867   2.077   3.196
   17SAPS   H8X 2229   0.784   2.150   3.194
   17SAPS   H8Y 2230   0.958   2.139   3.213
   17SAPS   C39 2231   0.863   1.979   3.320
   17SAPS   H9X 2232   0.960   1.929   3.342
   17SAPS   H9Y 2233   0.790   1.898   3.298
   17SAPS  C310 2234   0.813   2.059   3.445
   17SAPS  H10X 2235   0.787   1.997   3.534
   17SAPS  H10Y 2236   0.717   2.106   3.415
   17SAPS  C311 2237   0.915   2.162   3.497
   17SAPS  H11X 2238   0.856   2.224   3.568
   17SAPS  H11Y 2239   0.938   2.219   3.405
   17SAPS  C312 2240   1.026   2.093   3.575
   17SAPS  H12X 2241   1.053   2.005   3.512
   17SAPS  H12Y 2242   0.975   2.061   3.668
   17SAPS  C313 2243   1.137   2.203   3.616
   17SAPS  H13X 2244   1.088   2.279   3.681
   17SAPS  H13Y 2245   1.174   2.251   3.523
   17SAPS  C314 2246   1.260   2.145   3.686
   17SAPS  H14X 2247   1.337   2.222   3.706
   17SAPS  H14Y 2248   1.306   2.063   3.627
   17SAPS  C315 2249   1.226   2.076   3.813
   17SAPS  H15X 2250   1.166   1.983   3.802
   17SAPS  H15Y 2251   1.170   2.156   3.866
   17SAPS  C316 2252   1.346   2.034   3.897
   17SAPS  H16X 2253   1.317   1.994   3.996
   17SAPS  H16Y 2254   1.420   2.115   3.910
   17SAPS  C317 2255   1.415   1.911   3.834
   17SAPS  H17X 2256   1.472   1.952   3.748
   17SAPS  H17Y 2257   1.347   1.842   3.781
   17SAPS  C318 2258   1.510   1.818   3.920
   17SAPS  H18X 2259   1.589   1.882   3.965
   17SAPS  H18Y 2260   1.545   1.729   3.863
   17SAPS  H18Z 2261   1.458   1.773   4.007
   18SAPS     N 2262   4.769   2.801   2.124
   18SAPS   HN1 2263   4.855   2.744   2.112
   18SAPS   HN2 2264   4.816   2.894   2.123
   18SAPS   HN3 2265   4.721   2.774   2.212
   18SAPS   C12 2266   4.662   2.797   2.017
   18SAPS  H12A 2267   4.578   2.864   2.028
   18SAPS   C13 2268   4.718   2.842   1.878
   18SAPS  O13A 2269   4.817   2.919   1.868
   18SAPS  O13B 2270   4.640   2.835   1.779
   18SAPS   C11 2271   4.603   2.654   2.007
   18SAPS  H11A 2272   4.686   2.591   1.968
   18SAPS  H11B 2273   4.523   2.633   1.933
   18SAPS     P 2274   4.454   2.640   2.227
   18SAPS   O13 2275   4.331   2.591   2.160
   18SAPS   O14 2276   4.466   2.582   2.356
   18SAPS   O12 2277   4.571   2.606   2.137
   18SAPS   O11 2278   4.463   2.802   2.239
   18SAPS    C1 2279   4.351   2.865   2.303
   18SAPS    HA 2280   4.371   2.971   2.278
   18SAPS    HB 2281   4.253   2.842   2.256
   18SAPS    C2 2282   4.342   2.852   2.457
   18SAPS    HS 2283   4.439   2.802   2.481
   18SAPS   O21 2284   4.224   2.774   2.489
   18SAPS   C21 2285   4.232   2.693   2.594
   18SAPS   O22 2286   4.319   2.682   2.679
   18SAPS   C22 2287   4.099   2.618   2.604
   18SAPS   H2R 2288   4.015   2.686   2.577
   18SAPS   H2S 2289   4.092   2.548   2.517
   18SAPS    C3 2290   4.346   2.993   2.529
   18SAPS    HX 2291   4.278   3.049   2.462
   18SAPS    HY 2292   4.453   3.022   2.525
   18SAPS   O31 2293   4.289   2.978   2.660
   18SAPS   C31 2294   4.366   3.004   2.760
   18SAPS   O32 2295   4.476   3.056   2.754
   18SAPS   C32 2296   4.296   2.949   2.883
   18SAPS   H2X 2297   4.294   2.839   2.873
   18SAPS   H2Y 2298   4.191   2.982   2.879
   18SAPS   C23 2299   4.066   2.540   2.732
   18SAPS   H3R 2300   4.098   2.605   2.816
   18SAPS   H3S 2301   4.132   2.450   2.730
   18SAPS   C24 2302   3.913   2.513   2.745
   18SAPS   H4R 2303   3.882   2.455   2.656
   18SAPS   H4S 2304   3.852   2.606   2.747
   18SAPS   C25 2305   3.893   2.438   2.870
   18SAPS   H5R 2306   3.880   2.331   2.852
   18SAPS   C26 2307   3.861   2.489   2.993
   18SAPS   H6R 2308   3.841   2.417   3.073
   18SAPS   C27 2309   3.864   2.635   3.025
   18SAPS   H7R 2310   3.772   2.660   3.083
   18SAPS   H7S 2311   3.852   2.696   2.933
   18SAPS   C28 2312   3.995   2.680   3.088
   18SAPS   H8R 2313   4.079   2.697   3.019
   18SAPS   C29 2314   4.007   2.718   3.220
   18SAPS   H9R 2315   4.109   2.749   3.249
   18SAPS  C210 2316   3.900   2.727   3.330
   18SAPS  H10R 2317   3.919   2.646   3.404
   18SAPS  H10S 2318   3.797   2.708   3.293
   18SAPS  C211 2319   3.898   2.866   3.387
   18SAPS  H11R 2320   3.883   2.951   3.319
   18SAPS  C212 2321   3.940   2.909   3.510
   18SAPS  H12R 2322   3.930   3.017   3.527
   18SAPS  C213 2323   3.967   2.830   3.633
   18SAPS  H13R 2324   4.041   2.881   3.697
   18SAPS  H13S 2325   4.022   2.742   3.595
   18SAPS  C214 2326   3.854   2.799   3.720
   18SAPS  H14R 2327   3.787   2.881   3.751
   18SAPS  C215 2328   3.828   2.680   3.773
   18SAPS  H15R 2329   3.745   2.674   3.844
   18SAPS  C216 2330   3.898   2.548   3.751
   18SAPS  H16R 2331   3.947   2.532   3.653
   18SAPS  H16S 2332   3.836   2.458   3.768
   18SAPS  C217 2333   4.023   2.542   3.847
   18SAPS  H17R 2334   4.096   2.620   3.816
   18SAPS  H17S 2335   4.065   2.441   3.828
   18SAPS  C218 2336   3.998   2.554   4.000
   18SAPS  H18R 2337   3.945   2.649   4.024
   18SAPS  H18S 2338   4.095   2.545   4.052
   18SAPS  C219 2339   3.924   2.430   4.051
   18SAPS  H19R 2340   3.859   2.384   3.973
   18SAPS  H19S 2341   3.856   2.471   4.129
   18SAPS  C220 2342   4.014   2.321   4.110
   18SAPS  H20R 2343   4.091   2.302   4.032
   18SAPS  H20S 2344   3.959   2.229   4.141
   18SAPS  H20T 2345   4.068   2.366   4.196
   18SAPS   C33 2346   4.369   2.979   3.014
   18SAPS   H3X 2347   4.363   3.089   3.029
   18SAPS   H3Y 2348   4.476   2.949   3.022
   18SAPS   C34 2349   4.310   2.904   3.130
   18SAPS   H4X 2350   4.326   2.794   3.126
   18SAPS   H4Y 2351   4.201   2.923   3.116
   18SAPS   C35 2352   4.358   2.967   3.262
   18SAPS   H5X 2353   4.302   3.059   3.286
   18SAPS   H5Y 2354   4.468   2.985   3.256
   18SAPS   C36 2355   4.337   2.886   3.387
   18SAPS   H6X 2356   4.387   2.788   3.370
   18SAPS   H6Y 2357   4.229   2.866   3.403
   18SAPS   C37 2358   4.388   2.944   3.515
   18SAPS   H7X 2359   4.342   3.044   3.529
   18SAPS   H7Y 2360   4.496   2.949   3.491
   18SAPS   C38 2361   4.360   2.855   3.637
   18SAPS   H8X 2362   4.418   2.760   3.630
   18SAPS   H8Y 2363   4.257   2.814   3.631
   18SAPS   C39 2364   4.371   2.925   3.775
   18SAPS   H9X 2365   4.316   3.022   3.771
   18SAPS   H9Y 2366   4.476   2.961   3.769
   18SAPS  C310 2367   4.341   2.843   3.902
   18SAPS  H10X 2368   4.384   2.741   3.896
   18SAPS  H10Y 2369   4.230   2.837   3.914
   18SAPS  C311 2370   4.400   2.915   4.020
   18SAPS  H11X 2371   4.376   3.023   4.009
   18SAPS  H11Y 2372   4.510   2.900   4.030
   18SAPS  C312 2373   4.332   2.871   4.148
   18SAPS  H12X 2374   4.338   2.762   4.167
   18SAPS  H12Y 2375   4.227   2.905   4.135
   18SAPS  C313 2376   4.364   2.959   4.267
   18SAPS  H13X 2377   4.329   3.064   4.262
   18SAPS  H13Y 2378   4.471   2.985   4.281
   18SAPS  C314 2379   4.339   2.893   4.401
   18SAPS  H14X 2380   4.356   2.973   4.477
   18SAPS  H14Y 2381   4.412   2.813   4.427
   18SAPS  C315 2382   4.199   2.832   4.419
   18SAPS  H15X 2383   4.169   2.769   4.332
   18SAPS  H15Y 2384   4.129   2.918   4.425
   18SAPS  C316 2385   4.184   2.764   4.560
   18SAPS  H16X 2386   4.079   2.732   4.574
   18SAPS  H16Y 2387   4.208   2.843   4.633
   18SAPS  C317 2388   4.270   2.640   4.587
   18SAPS  H17X 2389   4.372   2.684   4.589
   18SAPS  H17Y 2390   4.253   2.574   4.500
   18SAPS  C318 2391   4.246   2.571   4.723
   18SAPS  H18X 2392   4.294   2.471   4.723
   18SAPS  H18Y 2393   4.137   2.558   4.734
   18SAPS  H18Z 2394   4.276   2.629   4.813
   19SAPS     N 2395   4.097   5.516   1.727
   19SAPS   HN1 2396   4.127   5.580   1.651
   19SAPS   HN2 2397   4.181   5.476   1.773
   19SAPS   HN3 2398   4.035   5.447   1.677
   19SAPS   C12 2399   4.031   5.582   1.847
   19SAPS  H12A 2400   4.094   5.658   1.891
   19SAPS   C13 2401   3.890   5.649   1.814
   19SAPS  O13A 2402   3.837   5.631   1.704
   19SAPS  O13B 2403   3.821   5.677   1.920
   19SAPS   C11 2404   4.014   5.468   1.954
   19SAPS  H11A 2405   3.956   5.383   1.912
   19SAPS  H11B 2406   3.963   5.511   2.044
   19SAPS     P 2407   4.165   5.376   2.148
   19SAPS   O13 2408   4.253   5.260   2.145
   19SAPS   O14 2409   4.221   5.490   2.219
   19SAPS   O12 2410   4.140   5.420   2.001
   19SAPS   O11 2411   4.020   5.341   2.202
   19SAPS    C1 2412   3.943   5.238   2.142
   19SAPS    HA 2413   3.842   5.284   2.128
   19SAPS    HB 2414   3.989   5.194   2.051
   19SAPS    C2 2415   3.916   5.113   2.242
   19SAPS    HS 2416   3.852   5.041   2.187
   19SAPS   O21 2417   3.847   5.162   2.358
   19SAPS   C21 2418   3.720   5.196   2.335
   19SAPS   O22 2419   3.661   5.177   2.227
   19SAPS   C22 2420   3.648   5.244   2.468
   19SAPS   H2R 2421   3.713   5.319   2.517
   19SAPS   H2S 2422   3.548   5.278   2.432
   19SAPS    C3 2423   4.059   5.047   2.285
   19SAPS    HX 2424   4.134   5.129   2.291
   19SAPS    HY 2425   4.090   4.984   2.199
   19SAPS   O31 2426   4.048   4.964   2.406
   19SAPS   C31 2427   4.071   5.027   2.528
   19SAPS   O32 2428   4.081   5.144   2.543
   19SAPS   C32 2429   4.070   4.919   2.634
   19SAPS   H2X 2430   3.977   4.859   2.625
   19SAPS   H2Y 2431   4.065   4.965   2.735
   19SAPS   C23 2432   3.623   5.119   2.562
   19SAPS   H3R 2433   3.716   5.059   2.565
   19SAPS   H3S 2434   3.547   5.052   2.515
   19SAPS   C24 2435   3.576   5.172   2.695
   19SAPS   H4R 2436   3.480   5.227   2.683
   19SAPS   H4S 2437   3.644   5.249   2.739
   19SAPS   C25 2438   3.556   5.052   2.783
   19SAPS   H5R 2439   3.463   4.995   2.767
   19SAPS   C26 2440   3.642   5.008   2.878
   19SAPS   H6R 2441   3.593   4.934   2.942
   19SAPS   C27 2442   3.768   5.077   2.910
   19SAPS   H7R 2443   3.818   5.122   2.821
   19SAPS   H7S 2444   3.836   4.995   2.942
   19SAPS   C28 2445   3.768   5.183   3.023
   19SAPS   H8R 2446   3.799   5.285   2.996
   19SAPS   C29 2447   3.730   5.171   3.153
   19SAPS   H9R 2448   3.726   5.264   3.213
   19SAPS  C210 2449   3.664   5.054   3.217
   19SAPS  H10R 2450   3.658   4.966   3.148
   19SAPS  H10S 2451   3.558   5.081   3.238
   19SAPS  C211 2452   3.722   4.999   3.344
   19SAPS  H11R 2453   3.795   4.917   3.348
   19SAPS  C212 2454   3.686   5.028   3.466
   19SAPS  H12R 2455   3.734   4.991   3.558
   19SAPS  C213 2456   3.598   5.145   3.502
   19SAPS  H13R 2457   3.493   5.112   3.521
   19SAPS  H13S 2458   3.587   5.227   3.428
   19SAPS  C214 2459   3.654   5.222   3.623
   19SAPS  H14R 2460   3.752   5.266   3.597
   19SAPS  C215 2461   3.597   5.255   3.739
   19SAPS  H15R 2462   3.655   5.312   3.814
   19SAPS  C216 2463   3.459   5.214   3.781
   19SAPS  H16R 2464   3.474   5.104   3.783
   19SAPS  H16S 2465   3.384   5.240   3.703
   19SAPS  C217 2466   3.410   5.278   3.919
   19SAPS  H17R 2467   3.491   5.245   3.987
   19SAPS  H17S 2468   3.318   5.222   3.943
   19SAPS  C218 2469   3.400   5.428   3.896
   19SAPS  H18R 2470   3.338   5.453   3.807
   19SAPS  H18S 2471   3.502   5.471   3.882
   19SAPS  C219 2472   3.350   5.493   4.028
   19SAPS  H19R 2473   3.274   5.421   4.065
   19SAPS  H19S 2474   3.304   5.593   4.012
   19SAPS  C220 2475   3.461   5.518   4.135
   19SAPS  H20R 2476   3.430   5.578   4.223
   19SAPS  H20S 2477   3.535   5.583   4.085
   19SAPS  H20T 2478   3.505   5.419   4.160
   19SAPS   C33 2479   4.189   4.830   2.620
   19SAPS   H3X 2480   4.217   4.802   2.516
   19SAPS   H3Y 2481   4.166   4.727   2.655
   19SAPS   C34 2482   4.308   4.872   2.703
   19SAPS   H4X 2483   4.275   4.900   2.806
   19SAPS   H4Y 2484   4.366   4.959   2.665
   19SAPS   C35 2485   4.415   4.759   2.709
   19SAPS   H5X 2486   4.429   4.718   2.607
   19SAPS   H5Y 2487   4.364   4.673   2.758
   19SAPS   C36 2488   4.542   4.797   2.787
   19SAPS   H6X 2489   4.608   4.861   2.725
   19SAPS   H6Y 2490   4.591   4.699   2.807
   19SAPS   C37 2491   4.505   4.867   2.923
   19SAPS   H7X 2492   4.431   4.950   2.913
   19SAPS   H7Y 2493   4.600   4.898   2.972
   19SAPS   C38 2494   4.447   4.761   3.022
   19SAPS   H8X 2495   4.517   4.676   3.026
   19SAPS   H8Y 2496   4.351   4.715   2.990
   19SAPS   C39 2497   4.405   4.823   3.158
   19SAPS   H9X 2498   4.368   4.743   3.225
   19SAPS   H9Y 2499   4.318   4.884   3.127
   19SAPS  C310 2500   4.503   4.910   3.225
   19SAPS  H10X 2501   4.531   5.003   3.171
   19SAPS  H10Y 2502   4.599   4.860   3.247
   19SAPS  C311 2503   4.438   4.962   3.355
   19SAPS  H11X 2504   4.408   4.872   3.414
   19SAPS  H11Y 2505   4.348   5.024   3.334
   19SAPS  C312 2506   4.538   5.042   3.444
   19SAPS  H12X 2507   4.573   5.135   3.395
   19SAPS  H12Y 2508   4.626   4.975   3.454
   19SAPS  C313 2509   4.478   5.083   3.583
   19SAPS  H13X 2510   4.489   4.993   3.646
   19SAPS  H13Y 2511   4.370   5.104   3.572
   19SAPS  C314 2512   4.565   5.193   3.652
   19SAPS  H14X 2513   4.584   5.285   3.593
   19SAPS  H14Y 2514   4.661   5.139   3.665
   19SAPS  C315 2515   4.517   5.227   3.793
   19SAPS  H15X 2516   4.458   5.138   3.824
   19SAPS  H15Y 2517   4.454   5.318   3.798
   19SAPS  C316 2518   4.624   5.256   3.896
   19SAPS  H16X 2519   4.723   5.252   3.845
   19SAPS  H16Y 2520   4.631   5.180   3.978
   19SAPS  C317 2521   4.603   5.389   3.970
   19SAPS  H17X 2522   4.512   5.377   4.033
   19SAPS  H17Y 2523   4.593   5.479   3.905
   19SAPS  C318 2524   4.707   5.415   4.086
   19SAPS  H18X 2525   4.814   5.413   4.053
   19SAPS  H18Y 2526   4.692   5.332   4.158
   19SAPS  H18Z 2527   4.699   5.519   4.125
   20SAPS     N 2528   4.766   6.050   2.024
   20SAPS   HN1 2529   4.717   5.978   2.081
   20SAPS   HN2 2530   4.733   6.043   1.925
   20SAPS   HN3 2531   4.869   6.035   2.029
   20SAPS   C12 2532   4.731   6.181   2.083
   20SAPS  H12A 2533   4.762   6.178   2.186
   20SAPS   C13 2534   4.816   6.290   2.014
   20SAPS  O13A 2535   4.917   6.265   1.949
   20SAPS  O13B 2536   4.800   6.406   2.069
   20SAPS   C11 2537   4.577   6.206   2.072
   20SAPS  H11A 2538   4.555   6.226   1.965
   20SAPS  H11B 2539   4.551   6.297   2.130
   20SAPS     P 2540   4.359   6.068   2.119
   20SAPS   O13 2541   4.305   6.147   2.012
   20SAPS   O14 2542   4.312   5.930   2.128
   20SAPS   O12 2543   4.514   6.081   2.119
   20SAPS   O11 2544   4.320   6.137   2.256
   20SAPS    C1 2545   4.183   6.123   2.302
   20SAPS    HA 2546   4.111   6.115   2.218
   20SAPS    HB 2547   4.169   6.033   2.366
   20SAPS    C2 2548   4.152   6.245   2.399
   20SAPS    HS 2549   4.160   6.337   2.336
   20SAPS   O21 2550   4.250   6.241   2.505
   20SAPS   C21 2551   4.260   6.352   2.566
   20SAPS   O22 2552   4.199   6.457   2.546
   20SAPS   C22 2553   4.361   6.333   2.682
   20SAPS   H2R 2554   4.453   6.285   2.642
   20SAPS   H2S 2555   4.399   6.432   2.715
   20SAPS    C3 2556   4.003   6.236   2.445
   20SAPS    HX 2557   3.948   6.215   2.351
   20SAPS    HY 2558   3.958   6.328   2.488
   20SAPS   O31 2559   3.987   6.114   2.520
   20SAPS   C31 2560   3.956   6.120   2.648
   20SAPS   O32 2561   3.906   6.213   2.704
   20SAPS   C32 2562   4.008   5.985   2.711
   20SAPS   H2X 2563   4.100   5.950   2.660
   20SAPS   H2Y 2564   3.926   5.913   2.689
   20SAPS   C23 2565   4.295   6.289   2.810
   20SAPS   H3R 2566   4.261   6.185   2.795
   20SAPS   H3S 2567   4.208   6.356   2.829
   20SAPS   C24 2568   4.398   6.294   2.921
   20SAPS   H4R 2569   4.352   6.285   3.021
   20SAPS   H4S 2570   4.454   6.389   2.910
   20SAPS   C25 2571   4.499   6.184   2.912
   20SAPS   H5R 2572   4.455   6.085   2.893
   20SAPS   C26 2573   4.633   6.204   2.913
   20SAPS   H6R 2574   4.698   6.116   2.897
   20SAPS   C27 2575   4.715   6.329   2.918
   20SAPS   H7R 2576   4.719   6.348   3.027
   20SAPS   H7S 2577   4.651   6.409   2.874
   20SAPS   C28 2578   4.850   6.339   2.858
   20SAPS   H8R 2579   4.855   6.327   2.749
   20SAPS   C29 2580   4.966   6.337   2.926
   20SAPS   H9R 2581   5.056   6.333   2.863
   20SAPS  C210 2582   4.977   6.349   3.081
   20SAPS  H10R 2583   4.888   6.414   3.100
   20SAPS  H10S 2584   5.067   6.411   3.102
   20SAPS  C211 2585   4.979   6.227   3.171
   20SAPS  H11R 2586   4.993   6.132   3.116
   20SAPS  C212 2587   4.957   6.222   3.304
   20SAPS  H12R 2588   4.968   6.122   3.349
   20SAPS  C213 2589   4.944   6.338   3.395
   20SAPS  H13R 2590   4.953   6.436   3.344
   20SAPS  H13S 2591   5.031   6.331   3.464
   20SAPS  C214 2592   4.812   6.346   3.472
   20SAPS  H14R 2593   4.727   6.385   3.414
   20SAPS  C215 2594   4.789   6.302   3.603
   20SAPS  H15R 2595   4.685   6.306   3.638
   20SAPS  C216 2596   4.889   6.245   3.702
   20SAPS  H16R 2597   4.982   6.222   3.645
   20SAPS  H16S 2598   4.864   6.149   3.750
   20SAPS  C217 2599   4.897   6.341   3.814
   20SAPS  H17R 2600   4.803   6.379   3.858
   20SAPS  H17S 2601   4.963   6.420   3.772
   20SAPS  C218 2602   4.988   6.280   3.930
   20SAPS  H18R 2603   5.091   6.266   3.890
   20SAPS  H18S 2604   4.955   6.181   3.967
   20SAPS  C219 2605   5.009   6.374   4.048
   20SAPS  H19R 2606   4.907   6.381   4.092
   20SAPS  H19S 2607   5.050   6.470   4.009
   20SAPS  C220 2608   5.111   6.326   4.152
   20SAPS  H20R 2609   5.124   6.412   4.222
   20SAPS  H20S 2610   5.211   6.306   4.107
   20SAPS  H20T 2611   5.076   6.233   4.201
   20SAPS   C33 2612   4.039   5.994   2.862
   20SAPS   H3X 2613   4.087   6.090   2.892
   20SAPS   H3Y 2614   4.112   5.912   2.881
   20SAPS   C34 2615   3.906   5.964   2.937
   20SAPS   H4X 2616   3.861   5.870   2.901
   20SAPS   H4Y 2617   3.824   6.038   2.922
   20SAPS   C35 2618   3.930   5.965   3.091
   20SAPS   H5X 2619   3.951   6.070   3.122
   20SAPS   H5Y 2620   4.011   5.891   3.110
   20SAPS   C36 2621   3.801   5.930   3.167
   20SAPS   H6X 2622   3.750   5.844   3.119
   20SAPS   H6Y 2623   3.721   6.007   3.168
   20SAPS   C37 2624   3.834   5.874   3.309
   20SAPS   H7X 2625   3.870   5.956   3.375
   20SAPS   H7Y 2626   3.914   5.797   3.301
   20SAPS   C38 2627   3.718   5.799   3.378
   20SAPS   H8X 2628   3.741   5.756   3.477
   20SAPS   H8Y 2629   3.693   5.714   3.312
   20SAPS   C39 2630   3.587   5.880   3.400
   20SAPS   H9X 2631   3.504   5.810   3.425
   20SAPS   H9Y 2632   3.563   5.926   3.302
   20SAPS  C310 2633   3.593   5.999   3.497
   20SAPS  H10X 2634   3.659   6.080   3.460
   20SAPS  H10Y 2635   3.643   5.973   3.593
   20SAPS  C311 2636   3.459   6.058   3.529
   20SAPS  H11X 2637   3.406   6.005   3.610
   20SAPS  H11Y 2638   3.391   6.044   3.442
   20SAPS  C312 2639   3.465   6.208   3.559
   20SAPS  H12X 2640   3.565   6.236   3.600
   20SAPS  H12Y 2641   3.390   6.204   3.641
   20SAPS  C313 2642   3.430   6.294   3.440
   20SAPS  H13X 2643   3.333   6.258   3.400
   20SAPS  H13Y 2644   3.504   6.292   3.357
   20SAPS  C314 2645   3.404   6.440   3.479
   20SAPS  H14X 2646   3.490   6.469   3.541
   20SAPS  H14Y 2647   3.310   6.437   3.538
   20SAPS  C315 2648   3.402   6.540   3.364
   20SAPS  H15X 2649   3.484   6.550   3.290
   20SAPS  H15Y 2650   3.382   6.639   3.410
   20SAPS  C316 2651   3.277   6.515   3.276
   20SAPS  H16X 2652   3.247   6.613   3.232
   20SAPS  H16Y 2653   3.197   6.476   3.343
   20SAPS  C317 2654   3.293   6.434   3.147
   20SAPS  H17X 2655   3.343   6.336   3.165
   20SAPS  H17Y 2656   3.356   6.493   3.077
   20SAPS  C318 2657   3.162   6.407   3.077
   20SAPS  H18X 2658   3.094   6.337   3.130
   20SAPS  H18Y 2659   3.192   6.351   2.986
   20SAPS  H18Z 2660   3.108   6.498   3.046
   21CHL1    C3 2661   1.527   4.318   5.929
   21CHL1    H3 2662   1.574   4.418   5.934
   21CHL1    O3 2663   1.466   4.318   6.062
   21CHL1   H3' 2664   1.428   4.230   6.073
   21CHL1    C4 2665   1.430   4.309   5.812
   21CHL1   H4A 2666   1.358   4.226   5.830
   21CHL1   H4B 2667   1.375   4.405   5.814
   21CHL1    C5 2668   1.490   4.274   5.679
   21CHL1    C6 2669   1.466   4.347   5.564
   21CHL1    H6 2670   1.386   4.422   5.568
   21CHL1    C7 2671   1.533   4.323   5.435
   21CHL1   H7A 2672   1.458   4.343   5.356
   21CHL1   H7B 2673   1.618   4.392   5.420
   21CHL1    C8 2674   1.591   4.185   5.434
   21CHL1    H8 2675   1.503   4.116   5.433
   21CHL1   C14 2676   1.669   4.161   5.299
   21CHL1   H14 2677   1.764   4.217   5.314
   21CHL1   C15 2678   1.599   4.211   5.170
   21CHL1  H15A 2679   1.497   4.168   5.162
   21CHL1  H15B 2680   1.596   4.322   5.175
   21CHL1   C16 2681   1.692   4.154   5.064
   21CHL1  H16A 2682   1.624   4.108   4.989
   21CHL1  H16B 2683   1.749   4.238   5.018
   21CHL1   C17 2684   1.784   4.050   5.133
   21CHL1   H17 2685   1.880   4.105   5.139
   21CHL1   C13 2686   1.724   4.028   5.271
   21CHL1   C18 2687   1.610   3.921   5.252
   21CHL1  H18A 2688   1.565   3.910   5.353
   21CHL1  H18B 2689   1.531   3.954   5.180
   21CHL1  H18C 2690   1.634   3.815   5.230
   21CHL1   C12 2691   1.832   3.986   5.386
   21CHL1  H12A 2692   1.858   3.880   5.366
   21CHL1  H12B 2693   1.915   4.059   5.383
   21CHL1   C11 2694   1.756   4.002   5.526
   21CHL1  H11A 2695   1.684   3.917   5.530
   21CHL1  H11B 2696   1.833   3.982   5.603
   21CHL1    C9 2697   1.690   4.141   5.548
   21CHL1    H9 2698   1.768   4.219   5.551
   21CHL1   C10 2699   1.602   4.161   5.675
   21CHL1   C19 2700   1.521   4.030   5.693
   21CHL1  H19A 2701   1.467   4.005   5.599
   21CHL1  H19B 2702   1.590   3.951   5.728
   21CHL1  H19C 2703   1.451   4.027   5.779
   21CHL1    C1 2704   1.704   4.188   5.794
   21CHL1   H1A 2705   1.779   4.106   5.805
   21CHL1   H1B 2706   1.755   4.283   5.768
   21CHL1    C2 2707   1.636   4.205   5.930
   21CHL1   H2A 2708   1.713   4.226   6.008
   21CHL1   H2B 2709   1.589   4.109   5.959
   21CHL1   C20 2710   1.821   3.928   5.042
   21CHL1   H20 2711   1.730   3.864   5.034
   21CHL1   C21 2712   1.930   3.833   5.099
   21CHL1  H21A 2713   1.967   3.764   5.020
   21CHL1  H21B 2714   1.888   3.779   5.187
   21CHL1  H21C 2715   2.022   3.885   5.131
   21CHL1   C22 2716   1.867   3.963   4.897
   21CHL1  H22A 2717   1.802   4.045   4.859
   21CHL1  H22B 2718   1.968   4.009   4.899
   21CHL1   C23 2719   1.871   3.847   4.795
   21CHL1  H23A 2720   1.953   3.777   4.818
   21CHL1  H23B 2721   1.777   3.788   4.803
   21CHL1   C24 2722   1.887   3.892   4.656
   21CHL1  H24A 2723   1.786   3.910   4.614
   21CHL1  H24B 2724   1.936   3.991   4.647
   21CHL1   C25 2725   1.943   3.782   4.549
   21CHL1   H25 2726   1.852   3.719   4.536
   21CHL1   C26 2727   1.973   3.851   4.407
   21CHL1  H26A 2728   1.888   3.916   4.378
   21CHL1  H26B 2729   2.072   3.901   4.395
   21CHL1  H26C 2730   1.991   3.776   4.328
   21CHL1   C27 2731   2.064   3.702   4.605
   21CHL1  H27A 2732   2.156   3.763   4.618
   21CHL1  H27B 2733   2.043   3.639   4.693
   21CHL1  H27C 2734   2.088   3.625   4.528
   22CHL1    C3 2735   2.261   2.045   5.677
   22CHL1    H3 2736   2.234   2.147   5.642
   22CHL1    O3 2737   2.332   2.053   5.800
   22CHL1   H3' 2738   2.324   1.967   5.843
   22CHL1    C4 2739   2.132   1.965   5.686
   22CHL1   H4A 2740   2.155   1.859   5.709
   22CHL1   H4B 2741   2.073   2.016   5.765
   22CHL1    C5 2742   2.056   1.973   5.557
   22CHL1    C6 2743   1.928   2.017   5.547
   22CHL1    H6 2744   1.870   2.052   5.633
   22CHL1    C7 2745   1.855   2.028   5.416
   22CHL1   H7A 2746   1.747   2.003   5.423
   22CHL1   H7B 2747   1.857   2.138   5.404
   22CHL1    C8 2748   1.913   1.943   5.305
   22CHL1    H8 2749   1.898   1.835   5.328
   22CHL1   C14 2750   1.847   1.979   5.170
   22CHL1   H14 2751   1.856   2.088   5.153
   22CHL1   C15 2752   1.696   1.947   5.165
   22CHL1  H15A 2753   1.671   1.846   5.207
   22CHL1  H15B 2754   1.635   2.015   5.228
   22CHL1   C16 2755   1.669   1.963   5.016
   22CHL1  H16A 2756   1.586   1.900   4.975
   22CHL1  H16B 2757   1.631   2.065   4.996
   22CHL1   C17 2758   1.799   1.951   4.938
   22CHL1   H17 2759   1.830   2.055   4.912
   22CHL1   C13 2760   1.895   1.902   5.044
   22CHL1   C18 2761   1.900   1.755   5.054
   22CHL1  H18A 2762   1.935   1.725   5.155
   22CHL1  H18B 2763   1.803   1.705   5.036
   22CHL1  H18C 2764   1.975   1.726   4.978
   22CHL1   C12 2765   2.045   1.958   5.039
   22CHL1  H12A 2766   2.093   1.895   4.961
   22CHL1  H12B 2767   2.056   2.067   5.021
   22CHL1   C11 2768   2.128   1.920   5.163
   22CHL1  H11A 2769   2.133   1.809   5.164
   22CHL1  H11B 2770   2.227   1.968   5.144
   22CHL1    C9 2771   2.065   1.973   5.298
   22CHL1    H9 2772   2.076   2.083   5.296
   22CHL1   C10 2773   2.134   1.936   5.431
   22CHL1   C19 2774   2.157   1.784   5.427
   22CHL1  H19A 2775   2.214   1.767   5.521
   22CHL1  H19B 2776   2.073   1.712   5.423
   22CHL1  H19C 2777   2.229   1.756   5.347
   22CHL1    C1 2778   2.274   2.007   5.421
   22CHL1   H1A 2779   2.329   1.940   5.351
   22CHL1   H1B 2780   2.282   2.116   5.401
   22CHL1    C2 2781   2.348   1.994   5.556
   22CHL1   H2A 2782   2.443   2.050   5.563
   22CHL1   H2B 2783   2.370   1.886   5.573
   22CHL1   C20 2784   1.788   1.889   4.802
   22CHL1   H20 2785   1.756   1.784   4.821
   22CHL1   C21 2786   1.931   1.901   4.736
   22CHL1  H21A 2787   1.931   1.838   4.644
   22CHL1  H21B 2788   2.005   1.850   4.801
   22CHL1  H21C 2789   1.962   2.005   4.712
   22CHL1   C22 2790   1.676   1.955   4.715
   22CHL1  H22A 2791   1.588   1.960   4.782
   22CHL1  H22B 2792   1.706   2.059   4.689
   22CHL1   C23 2793   1.659   1.890   4.580
   22CHL1  H23A 2794   1.760   1.885   4.534
   22CHL1  H23B 2795   1.619   1.786   4.582
   22CHL1   C24 2796   1.572   1.965   4.475
   22CHL1  H24A 2797   1.467   1.984   4.504
   22CHL1  H24B 2798   1.625   2.060   4.455
   22CHL1   C25 2799   1.555   1.883   4.340
   22CHL1   H25 2800   1.513   1.944   4.257
   22CHL1   C26 2801   1.684   1.809   4.289
   22CHL1  H26A 2802   1.711   1.730   4.363
   22CHL1  H26B 2803   1.660   1.769   4.189
   22CHL1  H26C 2804   1.765   1.883   4.273
   22CHL1   C27 2805   1.448   1.774   4.363
   22CHL1  H27A 2806   1.389   1.738   4.276
   22CHL1  H27B 2807   1.498   1.700   4.429
   22CHL1  H27C 2808   1.372   1.822   4.429
   23CHL1    C3 2809   1.005   3.838   5.805
   23CHL1    H3 2810   0.914   3.793   5.759
   23CHL1    O3 2811   1.029   3.771   5.931
   23CHL1   H3' 2812   0.955   3.801   5.985
   23CHL1    C4 2813   1.128   3.822   5.716
   23CHL1   H4A 2814   1.219   3.853   5.771
   23CHL1   H4B 2815   1.139   3.714   5.694
   23CHL1    C5 2816   1.106   3.887   5.582
   23CHL1    C6 2817   1.108   3.816   5.466
   23CHL1    H6 2818   1.137   3.711   5.480
   23CHL1    C7 2819   1.096   3.876   5.329
   23CHL1   H7A 2820   1.177   3.838   5.263
   23CHL1   H7B 2821   1.001   3.841   5.284
   23CHL1    C8 2822   1.103   4.029   5.326
   23CHL1    H8 2823   1.210   4.057   5.331
   23CHL1   C14 2824   1.046   4.078   5.197
   23CHL1   H14 2825   0.939   4.050   5.206
   23CHL1   C15 2826   1.086   4.018   5.070
   23CHL1  H15A 2827   1.196   4.012   5.059
   23CHL1  H15B 2828   1.051   3.914   5.049
   23CHL1   C16 2829   1.034   4.124   4.967
   23CHL1  H16A 2830   1.120   4.163   4.908
   23CHL1  H16B 2831   0.958   4.076   4.901
   23CHL1   C17 2832   0.971   4.241   5.051
   23CHL1   H17 2833   0.868   4.209   5.075
   23CHL1   C13 2834   1.053   4.233   5.181
   23CHL1   C18 2835   1.198   4.288   5.166
   23CHL1  H18A 2836   1.267   4.246   5.242
   23CHL1  H18B 2837   1.238   4.265   5.065
   23CHL1  H18C 2838   1.191   4.399   5.167
   23CHL1   C12 2839   0.983   4.297   5.304
   23CHL1  H12A 2840   0.990   4.408   5.295
   23CHL1  H12B 2841   0.875   4.270   5.300
   23CHL1   C11 2842   1.039   4.245   5.433
   23CHL1  H11A 2843   1.142   4.283   5.450
   23CHL1  H11B 2844   0.986   4.294   5.518
   23CHL1    C9 2845   1.031   4.090   5.442
   23CHL1    H9 2846   0.924   4.068   5.422
   23CHL1   C10 2847   1.070   4.031   5.585
   23CHL1   C19 2848   1.201   4.102   5.631
   23CHL1  H19A 2849   1.273   4.094   5.546
   23CHL1  H19B 2850   1.179   4.208   5.656
   23CHL1  H19C 2851   1.245   4.060   5.723
   23CHL1    C1 2852   0.949   4.048   5.683
   23CHL1   H1A 2853   0.938   4.155   5.711
   23CHL1   H1B 2854   0.850   4.021   5.642
   23CHL1    C2 2855   0.969   3.993   5.821
   23CHL1   H2A 2856   0.878   4.006   5.883
   23CHL1   H2B 2857   1.053   4.043   5.873
   23CHL1   C20 2858   0.963   4.373   4.970
   23CHL1   H20 2859   1.060   4.426   4.958
   23CHL1   C21 2860   0.881   4.478   5.047
   23CHL1  H21A 2861   0.952   4.526   5.117
   23CHL1  H21B 2862   0.805   4.425   5.107
   23CHL1  H21C 2863   0.827   4.549   4.980
   23CHL1   C22 2864   0.913   4.357   4.820
   23CHL1  H22A 2865   0.990   4.303   4.761
   23CHL1  H22B 2866   0.822   4.294   4.829
   23CHL1   C23 2867   0.894   4.482   4.733
   23CHL1  H23A 2868   0.831   4.560   4.781
   23CHL1  H23B 2869   0.997   4.525   4.733
   23CHL1   C24 2870   0.847   4.448   4.592
   23CHL1  H24A 2871   0.921   4.376   4.550
   23CHL1  H24B 2872   0.748   4.398   4.597
   23CHL1   C25 2873   0.824   4.561   4.484
   23CHL1   H25 2874   0.755   4.637   4.526
   23CHL1   C26 2875   0.961   4.635   4.461
   23CHL1  H26A 2876   0.967   4.667   4.355
   23CHL1  H26B 2877   0.963   4.721   4.530
   23CHL1  H26C 2878   1.041   4.566   4.495
   23CHL1   C27 2879   0.744   4.515   4.365
   23CHL1  H27A 2880   0.809   4.447   4.306
   23CHL1  H27B 2881   0.645   4.478   4.401
   23CHL1  H27C 2882   0.743   4.595   4.289
   24CHL1    C3 2883   3.560   5.263   6.021
   24CHL1    H3 2884   3.494   5.341   5.977
   24CHL1    O3 2885   3.564   5.261   6.163
   24CHL1   H3' 2886   3.476   5.258   6.201
   24CHL1    C4 2887   3.511   5.122   5.974
   24CHL1   H4A 2888   3.587   5.049   6.009
   24CHL1   H4B 2889   3.413   5.095   6.017
   24CHL1    C5 2890   3.505   5.106   5.823
   24CHL1    C6 2891   3.394   5.075   5.759
   24CHL1    H6 2892   3.293   5.072   5.804
   24CHL1    C7 2893   3.386   5.048   5.612
   24CHL1   H7A 2894   3.353   4.945   5.588
   24CHL1   H7B 2895   3.308   5.110   5.562
   24CHL1    C8 2896   3.512   5.055   5.525
   24CHL1    H8 2897   3.565   4.959   5.533
   24CHL1   C14 2898   3.478   5.089   5.384
   24CHL1   H14 2899   3.425   5.185   5.368
   24CHL1   C15 2900   3.385   4.988   5.308
   24CHL1  H15A 2901   3.422   4.892   5.348
   24CHL1  H15B 2902   3.276   5.003   5.322
   24CHL1   C16 2903   3.431   4.995   5.162
   24CHL1  H16A 2904   3.459   4.897   5.119
   24CHL1  H16B 2905   3.346   5.039   5.105
   24CHL1   C17 2906   3.549   5.104   5.159
   24CHL1   H17 2907   3.496   5.200   5.138
   24CHL1   C13 2908   3.605   5.092   5.298
   24CHL1   C18 2909   3.690   4.951   5.308
   24CHL1  H18A 2910   3.622   4.866   5.284
   24CHL1  H18B 2911   3.779   4.963   5.242
   24CHL1  H18C 2912   3.731   4.942   5.411
   24CHL1   C12 2913   3.698   5.202   5.344
   24CHL1  H12A 2914   3.795   5.198   5.291
   24CHL1  H12B 2915   3.657   5.301   5.314
   24CHL1   C11 2916   3.725   5.188   5.496
   24CHL1  H11A 2917   3.796   5.103   5.502
   24CHL1  H11B 2918   3.780   5.280   5.521
   24CHL1    C9 2919   3.603   5.162   5.584
   24CHL1    H9 2920   3.540   5.254   5.582
   24CHL1   C10 2921   3.634   5.149   5.739
   24CHL1   C19 2922   3.742   5.040   5.756
   24CHL1  H19A 2923   3.846   5.059   5.722
   24CHL1  H19B 2924   3.762   5.018   5.863
   24CHL1  H19C 2925   3.706   4.941   5.718
   24CHL1    C1 2926   3.678   5.286   5.801
   24CHL1   H1A 2927   3.771   5.316   5.749
   24CHL1   H1B 2928   3.599   5.360   5.774
   24CHL1    C2 2929   3.693   5.287   5.956
   24CHL1   H2A 2930   3.733   5.386   5.986
   24CHL1   H2B 2931   3.766   5.213   5.995
   24CHL1   C20 2932   3.638   5.087   5.037
   24CHL1   H20 2933   3.718   5.015   5.066
   24CHL1   C21 2934   3.699   5.222   5.005
   24CHL1  H21A 2935   3.775   5.244   5.083
   24CHL1  H21B 2936   3.622   5.303   5.004
   24CHL1  H21C 2937   3.741   5.224   4.902
   24CHL1   C22 2938   3.565   5.044   4.908
   24CHL1  H22A 2939   3.510   4.950   4.930
   24CHL1  H22B 2940   3.496   5.126   4.877
   24CHL1   C23 2941   3.655   5.020   4.783
   24CHL1  H23A 2942   3.670   5.115   4.728
   24CHL1  H23B 2943   3.752   4.984   4.823
   24CHL1   C24 2944   3.612   4.928   4.672
   24CHL1  H24A 2945   3.510   4.958   4.640
   24CHL1  H24B 2946   3.680   4.940   4.584
   24CHL1   C25 2947   3.605   4.780   4.711
   24CHL1   H25 2948   3.549   4.762   4.806
   24CHL1   C26 2949   3.537   4.713   4.596
   24CHL1  H26A 2950   3.533   4.606   4.623
   24CHL1  H26B 2951   3.434   4.754   4.589
   24CHL1  H26C 2952   3.578   4.718   4.493
   24CHL1   C27 2953   3.740   4.723   4.741
   24CHL1  H27A 2954   3.748   4.613   4.724
   24CHL1  H27B 2955   3.815   4.758   4.666
   24CHL1  H27C 2956   3.783   4.759   4.837
   25CHL1    C3 2957   6.162   6.389   5.653
   25CHL1    H3 2958   6.259   6.439   5.632
   25CHL1    O3 2959   6.129   6.424   5.786
   25CHL1   H3' 2960   6.064   6.364   5.823
   25CHL1    C4 2961   6.048   6.433   5.561
   25CHL1   H4A 2962   5.959   6.389   5.612
   25CHL1   H4B 2963   6.044   6.544   5.555
   25CHL1    C5 2964   6.058   6.382   5.418
   25CHL1    C6 2965   6.052   6.469   5.305
   25CHL1    H6 2966   6.046   6.577   5.325
   25CHL1    C7 2967   6.059   6.426   5.165
   25CHL1   H7A 2968   5.982   6.478   5.104
   25CHL1   H7B 2969   6.157   6.443   5.117
   25CHL1    C8 2970   6.038   6.272   5.140
   25CHL1    H8 2971   5.931   6.250   5.157
   25CHL1   C14 2972   6.067   6.229   4.997
   25CHL1   H14 2973   6.178   6.236   4.994
   25CHL1   C15 2974   6.010   6.304   4.878
   25CHL1  H15A 2975   5.903   6.332   4.890
   25CHL1  H15B 2976   6.060   6.401   4.857
   25CHL1   C16 2977   6.016   6.200   4.764
   25CHL1  H16A 2978   5.912   6.189   4.727
   25CHL1  H16B 2979   6.076   6.236   4.677
   25CHL1   C17 2980   6.080   6.072   4.824
   25CHL1   H17 2981   6.188   6.097   4.820
   25CHL1   C13 2982   6.048   6.077   4.977
   25CHL1   C18 2983   5.904   6.034   5.007
   25CHL1  H18A 2984   5.872   6.049   5.113
   25CHL1  H18B 2985   5.828   6.093   4.951
   25CHL1  H18C 2986   5.903   5.925   4.985
   25CHL1   C12 2987   6.141   6.003   5.075
   25CHL1  H12A 2988   6.126   5.894   5.062
   25CHL1  H12B 2989   6.248   6.026   5.056
   25CHL1   C11 2990   6.110   6.038   5.219
   25CHL1  H11A 2991   6.013   5.994   5.251
   25CHL1  H11B 2992   6.189   6.003   5.288
   25CHL1    C9 2993   6.120   6.191   5.246
   25CHL1    H9 2994   6.227   6.213   5.228
   25CHL1   C10 2995   6.092   6.231   5.395
   25CHL1   C19 2996   5.960   6.156   5.441
   25CHL1  H19A 2997   5.939   6.197   5.542
   25CHL1  H19B 2998   5.873   6.177   5.374
   25CHL1  H19C 2999   5.977   6.048   5.455
   25CHL1    C1 3000   6.215   6.198   5.485
   25CHL1   H1A 3001   6.220   6.087   5.483
   25CHL1   H1B 3002   6.301   6.232   5.425
   25CHL1    C2 3003   6.199   6.241   5.632
   25CHL1   H2A 3004   6.290   6.212   5.689
   25CHL1   H2B 3005   6.121   6.172   5.672
   25CHL1   C20 3006   6.055   5.948   4.738
   25CHL1   H20 3007   5.957   5.905   4.765
   25CHL1   C21 3008   6.160   5.832   4.765
   25CHL1  H21A 3009   6.149   5.753   4.688
   25CHL1  H21B 3010   6.152   5.792   4.868
   25CHL1  H21C 3011   6.260   5.882   4.763
   25CHL1   C22 3012   6.056   5.975   4.578
   25CHL1  H22A 3013   5.993   5.894   4.536
   25CHL1  H22B 3014   6.007   6.070   4.549
   25CHL1   C23 3015   6.192   5.968   4.500
   25CHL1  H23A 3016   6.268   6.042   4.533
   25CHL1  H23B 3017   6.234   5.866   4.517
   25CHL1   C24 3018   6.175   5.991   4.353
   25CHL1  H24A 3019   6.089   5.927   4.326
   25CHL1  H24B 3020   6.160   6.101   4.340
   25CHL1   C25 3021   6.302   5.949   4.270
   25CHL1   H25 3022   6.284   5.996   4.172
   25CHL1   C26 3023   6.439   5.993   4.325
   25CHL1  H26A 3024   6.509   5.985   4.238
   25CHL1  H26B 3025   6.439   6.095   4.367
   25CHL1  H26C 3026   6.468   5.923   4.406
   25CHL1   C27 3027   6.293   5.801   4.235
   25CHL1  H27A 3028   6.320   5.736   4.321
   25CHL1  H27B 3029   6.196   5.765   4.194
   25CHL1  H27C 3030   6.360   5.779   4.150
   26CHL1    C3 3031   3.764   3.511   6.134
   26CHL1    H3 3032   3.696   3.595   6.157
   26CHL1    O3 3033   3.837   3.477   6.256
   26CHL1   H3' 3034   3.930   3.489   6.237
   26CHL1    C4 3035   3.679   3.394   6.087
   26CHL1   H4A 3036   3.748   3.308   6.080
   26CHL1   H4B 3037   3.605   3.371   6.167
   26CHL1    C5 3038   3.617   3.426   5.952
   26CHL1    C6 3039   3.483   3.438   5.931
   26CHL1    H6 3040   3.414   3.422   6.015
   26CHL1    C7 3041   3.426   3.456   5.794
   26CHL1   H7A 3042   3.335   3.394   5.785
   26CHL1   H7B 3043   3.387   3.559   5.780
   26CHL1    C8 3044   3.529   3.439   5.674
   26CHL1    H8 3045   3.550   3.330   5.666
   26CHL1   C14 3046   3.479   3.498   5.540
   26CHL1   H14 3047   3.462   3.606   5.562
   26CHL1   C15 3048   3.355   3.433   5.480
   26CHL1  H15A 3049   3.360   3.322   5.481
   26CHL1  H15B 3050   3.259   3.466   5.524
   26CHL1   C16 3051   3.359   3.490   5.335
   26CHL1  H16A 3052   3.321   3.419   5.258
   26CHL1  H16B 3053   3.287   3.573   5.323
   26CHL1   C17 3054   3.495   3.550   5.309
   26CHL1   H17 3055   3.483   3.659   5.328
   26CHL1   C13 3056   3.582   3.492   5.425
   26CHL1   C18 3057   3.629   3.345   5.391
   26CHL1  H18A 3058   3.557   3.285   5.333
   26CHL1  H18B 3059   3.718   3.358   5.326
   26CHL1  H18C 3060   3.658   3.301   5.489
   26CHL1   C12 3061   3.698   3.585   5.468
   26CHL1  H12A 3062   3.773   3.590   5.386
   26CHL1  H12B 3063   3.665   3.689   5.487
   26CHL1   C11 3064   3.762   3.527   5.593
   26CHL1  H11A 3065   3.820   3.442   5.552
   26CHL1  H11B 3066   3.838   3.598   5.631
   26CHL1    C9 3067   3.658   3.512   5.712
   26CHL1    H9 3068   3.621   3.615   5.732
   26CHL1   C10 3069   3.718   3.453   5.840
   26CHL1   C19 3070   3.797   3.324   5.801
   26CHL1  H19A 3071   3.902   3.342   5.769
   26CHL1  H19B 3072   3.802   3.252   5.886
   26CHL1  H19C 3073   3.762   3.272   5.709
   26CHL1    C1 3074   3.820   3.566   5.888
   26CHL1   H1A 3075   3.917   3.565   5.834
   26CHL1   H1B 3076   3.778   3.668   5.878
   26CHL1    C2 3077   3.869   3.540   6.037
   26CHL1   H2A 3078   3.916   3.637   6.066
   26CHL1   H2B 3079   3.953   3.467   6.036
   26CHL1   C20 3080   3.542   3.531   5.163
   26CHL1   H20 3081   3.561   3.423   5.151
   26CHL1   C21 3082   3.671   3.606   5.135
   26CHL1  H21A 3083   3.660   3.715   5.153
   26CHL1  H21B 3084   3.697   3.598   5.027
   26CHL1  H21C 3085   3.758   3.571   5.194
   26CHL1   C22 3086   3.436   3.576   5.053
   26CHL1  H22A 3087   3.336   3.535   5.080
   26CHL1  H22B 3088   3.434   3.687   5.058
   26CHL1   C23 3089   3.464   3.528   4.912
   26CHL1  H23A 3090   3.573   3.510   4.899
   26CHL1  H23B 3091   3.419   3.428   4.896
   26CHL1   C24 3092   3.397   3.612   4.809
   26CHL1  H24A 3093   3.286   3.608   4.818
   26CHL1  H24B 3094   3.435   3.714   4.832
   26CHL1   C25 3095   3.435   3.557   4.665
   26CHL1   H25 3096   3.382   3.459   4.662
   26CHL1   C26 3097   3.363   3.641   4.559
   26CHL1  H26A 3098   3.405   3.744   4.557
   26CHL1  H26B 3099   3.384   3.606   4.455
   26CHL1  H26C 3100   3.253   3.645   4.574
   26CHL1   C27 3101   3.580   3.524   4.623
   26CHL1  H27A 3102   3.586   3.454   4.536
   26CHL1  H27B 3103   3.627   3.617   4.585
   26CHL1  H27C 3104   3.647   3.489   4.704
   27CHL1    C3 3105   0.305   3.009   6.113
   27CHL1    H3 3106   0.250   3.100   6.082
   27CHL1    O3 3107   0.272   2.975   6.248
   27CHL1   H3' 3108   0.315   2.891   6.263
   27CHL1    C4 3109   0.250   2.895   6.030
   27CHL1   H4A 3110   0.270   2.793   6.069
   27CHL1   H4B 3111   0.139   2.903   6.035
   27CHL1    C5 3112   0.300   2.907   5.886
   27CHL1    C6 3113   0.213   2.898   5.785
   27CHL1    H6 3114   0.106   2.878   5.801
   27CHL1    C7 3115   0.253   2.899   5.639
   27CHL1   H7A 3116   0.208   2.812   5.587
   27CHL1   H7B 3117   0.244   3.002   5.600
   27CHL1    C8 3118   0.406   2.869   5.618
   27CHL1    H8 3119   0.428   2.762   5.642
   27CHL1   C14 3120   0.439   2.903   5.478
   27CHL1   H14 3121   0.401   3.007   5.470
   27CHL1   C15 3122   0.347   2.833   5.371
   27CHL1  H15A 3123   0.334   2.723   5.381
   27CHL1  H15B 3124   0.257   2.894   5.348
   27CHL1   C16 3125   0.431   2.852   5.246
   27CHL1  H16A 3126   0.468   2.757   5.202
   27CHL1  H16B 3127   0.374   2.902   5.164
   27CHL1   C17 3128   0.563   2.937   5.281
   27CHL1   H17 3129   0.542   3.046   5.273
   27CHL1   C13 3130   0.582   2.899   5.434
   27CHL1   C18 3131   0.651   2.756   5.438
   27CHL1  H18A 3132   0.643   2.724   5.544
   27CHL1  H18B 3133   0.585   2.682   5.388
   27CHL1  H18C 3134   0.753   2.742   5.395
   27CHL1   C12 3135   0.653   3.002   5.528
   27CHL1  H12A 3136   0.763   3.009   5.509
   27CHL1  H12B 3137   0.610   3.103   5.512
   27CHL1   C11 3138   0.639   2.958   5.678
   27CHL1  H11A 3139   0.682   2.857   5.695
   27CHL1  H11B 3140   0.693   3.028   5.746
   27CHL1    C9 3141   0.488   2.953   5.715
   27CHL1    H9 3142   0.445   3.055   5.700
   27CHL1   C10 3143   0.448   2.925   5.871
   27CHL1   C19 3144   0.509   2.794   5.916
   27CHL1  H19A 3145   0.619   2.794   5.901
   27CHL1  H19B 3146   0.489   2.781   6.025
   27CHL1  H19C 3147   0.463   2.706   5.865
   27CHL1    C1 3148   0.492   3.051   5.954
   27CHL1   H1A 3149   0.602   3.059   5.953
   27CHL1   H1B 3150   0.453   3.149   5.919
   27CHL1    C2 3151   0.458   3.027   6.103
   27CHL1   H2A 3152   0.483   3.115   6.166
   27CHL1   H2B 3153   0.509   2.942   6.153
   27CHL1   C20 3154   0.682   2.910   5.195
   27CHL1   H20 3155   0.703   2.801   5.189
   27CHL1   C21 3156   0.809   2.984   5.252
   27CHL1  H21A 3157   0.779   3.077   5.304
   27CHL1  H21B 3158   0.879   3.002   5.168
   27CHL1  H21C 3159   0.849   2.930   5.341
   27CHL1   C22 3160   0.649   2.958   5.050
   27CHL1  H22A 3161   0.732   2.943   4.977
   27CHL1  H22B 3162   0.565   2.893   5.017
   27CHL1   C23 3163   0.580   3.095   5.032
   27CHL1  H23A 3164   0.482   3.093   5.086
   27CHL1  H23B 3165   0.638   3.178   5.078
   27CHL1   C24 3166   0.563   3.127   4.882
   27CHL1  H24A 3167   0.482   3.058   4.850
   27CHL1  H24B 3168   0.510   3.224   4.871
   27CHL1   C25 3169   0.684   3.137   4.794
   27CHL1   H25 3170   0.733   3.039   4.777
   27CHL1   C26 3171   0.658   3.215   4.666
   27CHL1  H26A 3172   0.579   3.162   4.609
   27CHL1  H26B 3173   0.631   3.322   4.682
   27CHL1  H26C 3174   0.744   3.211   4.596
   27CHL1   C27 3175   0.796   3.213   4.874
   27CHL1  H27A 3176   0.808   3.150   4.965
   27CHL1  H27B 3177   0.754   3.307   4.914
   27CHL1  H27C 3178   0.889   3.236   4.816
   28CHL1    C3 3179   5.490   2.398   5.794
   28CHL1    H3 3180   5.388   2.367   5.763
   28CHL1    O3 3181   5.511   2.412   5.929
   28CHL1   H3' 3182   5.601   2.442   5.941
   28CHL1    C4 3183   5.594   2.303   5.737
   28CHL1   H4A 3184   5.699   2.337   5.747
   28CHL1   H4B 3185   5.600   2.206   5.791
   28CHL1    C5 3186   5.578   2.281   5.585
   28CHL1    C6 3187   5.544   2.159   5.530
   28CHL1    H6 3188   5.527   2.070   5.592
   28CHL1    C7 3189   5.541   2.139   5.381
   28CHL1   H7A 3190   5.614   2.063   5.344
   28CHL1   H7B 3191   5.433   2.121   5.361
   28CHL1    C8 3192   5.577   2.261   5.289
   28CHL1    H8 3193   5.688   2.258   5.287
   28CHL1   C14 3194   5.529   2.242   5.147
   28CHL1   H14 3195   5.422   2.223   5.165
   28CHL1   C15 3196   5.571   2.111   5.084
   28CHL1  H15A 3197   5.679   2.087   5.081
   28CHL1  H15B 3198   5.508   2.023   5.107
   28CHL1   C16 3199   5.537   2.145   4.936
   28CHL1  H16A 3200   5.632   2.137   4.879
   28CHL1  H16B 3201   5.461   2.074   4.897
   28CHL1   C17 3202   5.482   2.287   4.924
   28CHL1   H17 3203   5.374   2.296   4.950
   28CHL1   C13 3204   5.549   2.357   5.052
   28CHL1   C18 3205   5.699   2.391   5.031
   28CHL1  H18A 3206   5.756   2.311   4.980
   28CHL1  H18B 3207   5.698   2.474   4.956
   28CHL1  H18C 3208   5.749   2.429   5.122
   28CHL1   C12 3209   5.477   2.476   5.113
   28CHL1  H12A 3210   5.491   2.572   5.060
   28CHL1  H12B 3211   5.371   2.446   5.126
   28CHL1   C11 3212   5.538   2.505   5.254
   28CHL1  H11A 3213   5.646   2.527   5.244
   28CHL1  H11B 3214   5.485   2.595   5.291
   28CHL1    C9 3215   5.526   2.389   5.352
   28CHL1    H9 3216   5.417   2.373   5.365
   28CHL1   C10 3217   5.582   2.406   5.500
   28CHL1   C19 3218   5.729   2.463   5.497
   28CHL1  H19A 3219   5.784   2.378   5.449
   28CHL1  H19B 3220   5.741   2.557   5.438
   28CHL1  H19C 3221   5.772   2.486   5.597
   28CHL1    C1 3222   5.492   2.509   5.574
   28CHL1   H1A 3223   5.500   2.610   5.529
   28CHL1   H1B 3224   5.386   2.478   5.556
   28CHL1    C2 3225   5.508   2.535   5.722
   28CHL1   H2A 3226   5.420   2.597   5.746
   28CHL1   H2B 3227   5.609   2.580   5.738
   28CHL1   C20 3228   5.508   2.345   4.784
   28CHL1   H20 3229   5.613   2.345   4.750
   28CHL1   C21 3230   5.464   2.491   4.775
   28CHL1  H21A 3231   5.526   2.561   4.835
   28CHL1  H21B 3232   5.362   2.499   4.818
   28CHL1  H21C 3233   5.467   2.532   4.672
   28CHL1   C22 3234   5.432   2.259   4.676
   28CHL1  H22A 3235   5.457   2.152   4.684
   28CHL1  H22B 3236   5.323   2.278   4.687
   28CHL1   C23 3237   5.474   2.284   4.528
   28CHL1  H23A 3238   5.448   2.389   4.503
   28CHL1  H23B 3239   5.576   2.251   4.498
   28CHL1   C24 3240   5.396   2.192   4.437
   28CHL1  H24A 3241   5.428   2.086   4.444
   28CHL1  H24B 3242   5.287   2.201   4.454
   28CHL1   C25 3243   5.403   2.238   4.284
   28CHL1   H25 3244   5.354   2.335   4.261
   28CHL1   C26 3245   5.551   2.231   4.240
   28CHL1  H26A 3246   5.559   2.252   4.131
   28CHL1  H26B 3247   5.604   2.309   4.298
   28CHL1  H26C 3248   5.586   2.128   4.261
   28CHL1   C27 3249   5.332   2.130   4.202
   28CHL1  H27A 3250   5.382   2.031   4.214
   28CHL1  H27B 3251   5.225   2.123   4.232
   28CHL1  H27C 3252   5.338   2.154   4.094
   29CHL1    C3 3253   2.628   4.401   6.029
   29CHL1    H3 3254   2.656   4.295   6.016
   29CHL1    O3 3255   2.616   4.433   6.161
   29CHL1   H3' 3256   2.669   4.513   6.170
   29CHL1    C4 3257   2.747   4.482   5.978
   29CHL1   H4A 3258   2.750   4.590   6.003
   29CHL1   H4B 3259   2.832   4.437   6.033
   29CHL1    C5 3260   2.764   4.477   5.828
   29CHL1    C6 3261   2.882   4.441   5.775
   29CHL1    H6 3262   2.965   4.424   5.844
   29CHL1    C7 3263   2.905   4.444   5.627
   29CHL1   H7A 3264   3.003   4.489   5.600
   29CHL1   H7B 3265   2.907   4.335   5.604
   29CHL1    C8 3266   2.788   4.517   5.551
   29CHL1    H8 3267   2.807   4.625   5.570
   29CHL1   C14 3268   2.791   4.474   5.409
   29CHL1   H14 3269   2.760   4.368   5.403
   29CHL1   C15 3270   2.924   4.478   5.331
   29CHL1  H15A 3271   2.989   4.566   5.350
   29CHL1  H15B 3272   2.977   4.383   5.352
   29CHL1   C16 3273   2.885   4.466   5.182
   29CHL1  H16A 3274   2.940   4.540   5.121
   29CHL1  H16B 3275   2.906   4.360   5.156
   29CHL1   C17 3276   2.732   4.490   5.179
   29CHL1   H17 3277   2.686   4.389   5.174
   29CHL1   C13 3278   2.693   4.540   5.315
   29CHL1   C18 3279   2.705   4.700   5.309
   29CHL1  H18A 3280   2.693   4.733   5.414
   29CHL1  H18B 3281   2.806   4.719   5.265
   29CHL1  H18C 3282   2.632   4.743   5.237
   29CHL1   C12 3283   2.556   4.500   5.368
   29CHL1  H12A 3284   2.475   4.548   5.309
   29CHL1  H12B 3285   2.543   4.390   5.357
   29CHL1   C11 3286   2.536   4.539   5.518
   29CHL1  H11A 3287   2.544   4.650   5.518
   29CHL1  H11B 3288   2.435   4.512   5.555
   29CHL1    C9 3289   2.650   4.480   5.605
   29CHL1    H9 3290   2.641   4.370   5.590
   29CHL1   C10 3291   2.631   4.507   5.758
   29CHL1   C19 3292   2.588   4.648   5.784
   29CHL1  H19A 3293   2.487   4.658   5.740
   29CHL1  H19B 3294   2.577   4.671   5.892
   29CHL1  H19C 3295   2.654   4.727   5.743
   29CHL1    C1 3296   2.524   4.399   5.799
   29CHL1   H1A 3297   2.431   4.410   5.739
   29CHL1   H1B 3298   2.562   4.296   5.781
   29CHL1    C2 3299   2.494   4.413   5.949
   29CHL1   H2A 3300   2.430   4.330   5.987
   29CHL1   H2B 3301   2.442   4.510   5.964
   29CHL1   C20 3302   2.677   4.557   5.048
   29CHL1   H20 3303   2.702   4.665   5.051
   29CHL1   C21 3304   2.523   4.553   5.047
   29CHL1  H21A 3305   2.495   4.601   4.951
   29CHL1  H21B 3306   2.476   4.617   5.125
   29CHL1  H21C 3307   2.476   4.452   5.056
   29CHL1   C22 3308   2.737   4.492   4.916
   29CHL1  H22A 3309   2.847   4.512   4.915
   29CHL1  H22B 3310   2.714   4.384   4.919
   29CHL1   C23 3311   2.680   4.535   4.779
   29CHL1  H23A 3312   2.574   4.504   4.772
   29CHL1  H23B 3313   2.692   4.645   4.770
   29CHL1   C24 3314   2.758   4.498   4.655
   29CHL1  H24A 3315   2.855   4.552   4.646
   29CHL1  H24B 3316   2.782   4.390   4.652
   29CHL1   C25 3317   2.689   4.522   4.515
   29CHL1   H25 3318   2.670   4.628   4.492
   29CHL1   C26 3319   2.769   4.470   4.398
   29CHL1  H26A 3320   2.867   4.515   4.375
   29CHL1  H26B 3321   2.760   4.360   4.408
   29CHL1  H26C 3322   2.701   4.483   4.311
   29CHL1   C27 3323   2.555   4.452   4.508
   29CHL1  H27A 3324   2.478   4.486   4.580
   29CHL1  H27B 3325   2.510   4.475   4.409
   29CHL1  H27C 3326   2.564   4.341   4.516
   30CHL1    C3 3327   2.975   3.888   5.929
   30CHL1    H3 3328   2.904   3.812   5.891
   30CHL1    O3 3329   2.991   3.881   6.068
   30CHL1   H3' 3330   3.026   3.792   6.075
   30CHL1    C4 3331   3.109   3.861   5.854
   30CHL1   H4A 3332   3.189   3.933   5.882
   30CHL1   H4B 3333   3.150   3.764   5.890
   30CHL1    C5 3334   3.087   3.861   5.708
   30CHL1    C6 3335   3.114   3.750   5.633
   30CHL1    H6 3336   3.160   3.661   5.679
   30CHL1    C7 3337   3.105   3.750   5.484
   30CHL1   H7A 3338   3.197   3.716   5.432
   30CHL1   H7B 3339   3.025   3.677   5.459
   30CHL1    C8 3340   3.079   3.885   5.420
   30CHL1    H8 3341   3.171   3.945   5.408
   30CHL1   C14 3342   3.015   3.861   5.277
   30CHL1   H14 3343   2.914   3.822   5.298
   30CHL1   C15 3344   3.088   3.762   5.183
   30CHL1  H15A 3345   3.199   3.774   5.184
   30CHL1  H15B 3346   3.058   3.657   5.201
   30CHL1   C16 3347   3.036   3.804   5.042
   30CHL1  H16A 3348   3.123   3.834   4.979
   30CHL1  H16B 3349   2.992   3.711   5.001
   30CHL1   C17 3350   2.946   3.933   5.065
   30CHL1   H17 3351   2.842   3.895   5.079
   30CHL1   C13 3352   2.988   3.990   5.199
   30CHL1   C18 3353   3.117   4.071   5.176
   30CHL1  H18A 3354   3.148   4.128   5.266
   30CHL1  H18B 3355   3.199   4.014   5.127
   30CHL1  H18C 3356   3.092   4.145   5.097
   30CHL1   C12 3357   2.886   4.064   5.285
   30CHL1  H12A 3358   2.855   4.162   5.244
   30CHL1  H12B 3359   2.790   4.007   5.292
   30CHL1   C11 3360   2.941   4.094   5.429
   30CHL1  H11A 3361   3.020   4.172   5.421
   30CHL1  H11B 3362   2.855   4.137   5.484
   30CHL1    C9 3363   2.981   3.969   5.502
   30CHL1    H9 3364   2.898   3.896   5.504
   30CHL1   C10 3365   3.028   3.988   5.650
   30CHL1   C19 3366   3.154   4.086   5.655
   30CHL1  H19A 3367   3.223   4.084   5.742
   30CHL1  H19B 3368   3.208   4.068   5.559
   30CHL1  H19C 3369   3.120   4.191   5.643
   30CHL1    C1 3370   2.912   4.038   5.737
   30CHL1   H1A 3371   2.891   4.145   5.712
   30CHL1   H1B 3372   2.822   3.987   5.696
   30CHL1    C2 3373   2.929   4.019   5.887
   30CHL1   H2A 3374   2.826   4.032   5.926
   30CHL1   H2B 3375   2.995   4.094   5.936
   30CHL1   C20 3376   2.945   4.016   4.937
   30CHL1   H20 3377   3.044   4.060   4.912
   30CHL1   C21 3378   2.848   4.127   4.955
   30CHL1  H21A 3379   2.870   4.188   5.045
   30CHL1  H21B 3380   2.746   4.084   4.947
   30CHL1  H21C 3381   2.857   4.201   4.872
   30CHL1   C22 3382   2.898   3.942   4.810
   30CHL1  H22A 3383   2.957   3.848   4.806
   30CHL1  H22B 3384   2.791   3.913   4.814
   30CHL1   C23 3385   2.916   4.019   4.679
   30CHL1  H23A 3386   2.842   4.102   4.674
   30CHL1  H23B 3387   3.015   4.068   4.691
   30CHL1   C24 3388   2.910   3.934   4.546
   30CHL1  H24A 3389   2.817   3.874   4.556
   30CHL1  H24B 3390   2.887   4.003   4.463
   30CHL1   C25 3391   3.036   3.850   4.507
   30CHL1   H25 3392   3.063   3.781   4.590
   30CHL1   C26 3393   2.992   3.767   4.386
   30CHL1  H26A 3394   2.911   3.702   4.426
   30CHL1  H26B 3395   2.951   3.834   4.307
   30CHL1  H26C 3396   3.066   3.695   4.347
   30CHL1   C27 3397   3.156   3.933   4.464
   30CHL1  H27A 3398   3.117   4.015   4.401
   30CHL1  H27B 3399   3.206   3.982   4.551
   30CHL1  H27C 3400   3.231   3.870   4.411
   31CHL1    C3 3401   1.857   4.566   5.984
   31CHL1    H3 3402   1.813   4.467   5.959
   31CHL1    O3 3403   1.834   4.590   6.121
   31CHL1   H3' 3404   1.740   4.611   6.121
   31CHL1    C4 3405   2.010   4.548   5.950
   31CHL1   H4A 3406   2.068   4.642   5.962
   31CHL1   H4B 3407   2.042   4.473   6.025
   31CHL1    C5 3408   2.028   4.506   5.805
   31CHL1    C6 3409   2.097   4.394   5.766
   31CHL1    H6 3410   2.144   4.339   5.849
   31CHL1    C7 3411   2.116   4.356   5.621
   31CHL1   H7A 3412   2.221   4.322   5.605
   31CHL1   H7B 3413   2.056   4.265   5.598
   31CHL1    C8 3414   2.079   4.465   5.509
   31CHL1    H8 3415   2.161   4.539   5.507
   31CHL1   C14 3416   2.074   4.405   5.371
   31CHL1   H14 3417   1.998   4.324   5.382
   31CHL1   C15 3418   2.202   4.336   5.323
   31CHL1  H15A 3419   2.288   4.404   5.341
   31CHL1  H15B 3420   2.220   4.236   5.369
   31CHL1   C16 3421   2.176   4.318   5.173
   31CHL1  H16A 3422   2.258   4.352   5.106
   31CHL1  H16B 3423   2.160   4.212   5.144
   31CHL1   C17 3424   2.045   4.398   5.143
   31CHL1   H17 3425   1.960   4.328   5.158
   31CHL1   C13 3426   2.024   4.489   5.265
   31CHL1   C18 3427   2.116   4.619   5.241
   31CHL1  H18A 3428   2.076   4.676   5.154
   31CHL1  H18B 3429   2.117   4.690   5.326
   31CHL1  H18C 3430   2.222   4.596   5.218
   31CHL1   C12 3431   1.878   4.528   5.310
   31CHL1  H12A 3432   1.828   4.597   5.239
   31CHL1  H12B 3433   1.824   4.431   5.315
   31CHL1   C11 3434   1.872   4.600   5.457
   31CHL1  H11A 3435   1.930   4.694   5.442
   31CHL1  H11B 3436   1.764   4.618   5.476
   31CHL1    C9 3437   1.948   4.522   5.567
   31CHL1    H9 3438   1.890   4.430   5.588
   31CHL1   C10 3439   1.962   4.597   5.702
   31CHL1   C19 3440   2.048   4.729   5.692
   31CHL1  H19A 3441   2.157   4.711   5.678
   31CHL1  H19B 3442   2.002   4.791   5.612
   31CHL1  H19C 3443   2.039   4.793   5.782
   31CHL1    C1 3444   1.814   4.632   5.747
   31CHL1   H1A 3445   1.783   4.716   5.681
   31CHL1   H1B 3446   1.746   4.545   5.735
   31CHL1    C2 3447   1.796   4.676   5.892
   31CHL1   H2A 3448   1.692   4.695   5.925
   31CHL1   H2B 3449   1.845   4.775   5.904
   31CHL1   C20 3450   2.043   4.461   5.002
   31CHL1   H20 3451   2.124   4.537   4.997
   31CHL1   C21 3452   1.906   4.538   4.982
   31CHL1  H21A 3453   1.913   4.591   4.885
   31CHL1  H21B 3454   1.899   4.626   5.049
   31CHL1  H21C 3455   1.824   4.463   4.984
   31CHL1   C22 3456   2.063   4.360   4.889
   31CHL1  H22A 3457   2.155   4.303   4.914
   31CHL1  H22B 3458   1.977   4.290   4.887
   31CHL1   C23 3459   2.069   4.429   4.753
   31CHL1  H23A 3460   1.978   4.489   4.732
   31CHL1  H23B 3461   2.150   4.505   4.745
   31CHL1   C24 3462   2.097   4.322   4.651
   31CHL1  H24A 3463   2.189   4.263   4.674
   31CHL1  H24B 3464   2.019   4.244   4.663
   31CHL1   C25 3465   2.089   4.357   4.508
   31CHL1   H25 3466   1.985   4.389   4.486
   31CHL1   C26 3467   2.178   4.467   4.465
   31CHL1  H26A 3468   2.166   4.569   4.507
   31CHL1  H26B 3469   2.277   4.423   4.492
   31CHL1  H26C 3470   2.177   4.479   4.355
   31CHL1   C27 3471   2.112   4.234   4.417
   31CHL1  H27A 3472   2.107   4.275   4.313
   31CHL1  H27B 3473   2.212   4.193   4.440
   31CHL1  H27C 3474   2.031   4.159   4.429
   32CHL1    C3 3475   2.030   2.495   5.715
   32CHL1    H3 3476   2.030   2.384   5.723
   32CHL1    O3 3477   2.039   2.555   5.843
   32CHL1   H3' 3478   2.118   2.609   5.851
   32CHL1    C4 3479   2.153   2.538   5.629
   32CHL1   H4A 3480   2.149   2.649   5.637
   32CHL1   H4B 3481   2.240   2.492   5.680
   32CHL1    C5 3482   2.140   2.490   5.482
   32CHL1    C6 3483   2.244   2.433   5.419
   32CHL1    H6 3484   2.342   2.424   5.467
   32CHL1    C7 3485   2.231   2.400   5.274
   32CHL1   H7A 3486   2.327   2.431   5.228
   32CHL1   H7B 3487   2.226   2.289   5.271
   32CHL1    C8 3488   2.114   2.455   5.198
   32CHL1    H8 3489   2.116   2.565   5.187
   32CHL1   C14 3490   2.087   2.374   5.070
   32CHL1   H14 3491   2.056   2.273   5.105
   32CHL1   C15 3492   2.203   2.357   4.974
   32CHL1  H15A 3493   2.266   2.448   4.963
   32CHL1  H15B 3494   2.271   2.274   5.004
   32CHL1   C16 3495   2.138   2.329   4.836
   32CHL1  H16A 3496   2.193   2.394   4.766
   32CHL1  H16B 3497   2.154   2.223   4.807
   32CHL1   C17 3498   1.985   2.357   4.859
   32CHL1   H17 3499   1.941   2.257   4.877
   32CHL1   C13 3500   1.974   2.433   4.983
   32CHL1   C18 3501   2.003   2.586   4.958
   32CHL1  H18A 3502   2.008   2.650   5.049
   32CHL1  H18B 3503   2.095   2.602   4.897
   32CHL1  H18C 3504   1.915   2.628   4.905
   32CHL1   C12 3505   1.844   2.405   5.058
   32CHL1  H12A 3506   1.757   2.455   5.012
   32CHL1  H12B 3507   1.839   2.295   5.065
   32CHL1   C11 3508   1.850   2.467   5.195
   32CHL1  H11A 3509   1.854   2.578   5.188
   32CHL1  H11B 3510   1.764   2.429   5.253
   32CHL1    C9 3511   1.982   2.436   5.278
   32CHL1    H9 3512   1.970   2.330   5.311
   32CHL1   C10 3513   2.001   2.509   5.417
   32CHL1   C19 3514   1.989   2.661   5.401
   32CHL1  H19A 3515   2.030   2.722   5.484
   32CHL1  H19B 3516   2.034   2.702   5.309
   32CHL1  H19C 3517   1.882   2.689   5.390
   32CHL1    C1 3518   1.892   2.462   5.512
   32CHL1   H1A 3519   1.798   2.494   5.461
   32CHL1   H1B 3520   1.891   2.351   5.522
   32CHL1    C2 3521   1.895   2.519   5.653
   32CHL1   H2A 3522   1.811   2.469   5.708
   32CHL1   H2B 3523   1.864   2.625   5.650
   32CHL1   C20 3524   1.919   2.411   4.735
   32CHL1   H20 3525   1.966   2.509   4.712
   32CHL1   C21 3526   1.773   2.436   4.740
   32CHL1  H21A 3527   1.747   2.529   4.795
   32CHL1  H21B 3528   1.719   2.349   4.782
   32CHL1  H21C 3529   1.727   2.458   4.642
   32CHL1   C22 3530   1.941   2.308   4.619
   32CHL1  H22A 3531   2.040   2.259   4.610
   32CHL1  H22B 3532   1.862   2.231   4.631
   32CHL1   C23 3533   1.927   2.372   4.479
   32CHL1  H23A 3534   1.837   2.437   4.471
   32CHL1  H23B 3535   2.014   2.434   4.449
   32CHL1   C24 3536   1.923   2.265   4.374
   32CHL1  H24A 3537   2.019   2.209   4.376
   32CHL1  H24B 3538   1.840   2.201   4.410
   32CHL1   C25 3539   1.904   2.295   4.227
   32CHL1   H25 3540   1.982   2.363   4.185
   32CHL1   C26 3541   1.904   2.164   4.149
   32CHL1  H26A 3542   1.997   2.104   4.147
   32CHL1  H26B 3543   1.824   2.098   4.188
   32CHL1  H26C 3544   1.882   2.196   4.044
   32CHL1   C27 3545   1.776   2.379   4.211
   32CHL1  H27A 3546   1.751   2.379   4.103
   32CHL1  H27B 3547   1.688   2.344   4.268
   32CHL1  H27C 3548   1.796   2.484   4.242
   33CHL1    C3 3549   0.799   1.590   5.890
   33CHL1    H3 3550   0.889   1.538   5.851
   33CHL1    O3 3551   0.780   1.537   6.021
   33CHL1   H3' 3552   0.808   1.445   6.014
   33CHL1    C4 3553   0.816   1.739   5.896
   33CHL1   H4A 3554   0.717   1.774   5.933
   33CHL1   H4B 3555   0.894   1.764   5.971
   33CHL1    C5 3556   0.840   1.799   5.762
   33CHL1    C6 3557   0.950   1.871   5.740
   33CHL1    H6 3558   1.018   1.891   5.825
   33CHL1    C7 3559   0.971   1.951   5.613
   33CHL1   H7A 3560   0.990   2.057   5.642
   33CHL1   H7B 3561   1.058   1.906   5.561
   33CHL1    C8 3562   0.849   1.949   5.519
   33CHL1    H8 3563   0.774   2.027   5.545
   33CHL1   C14 3564   0.902   1.967   5.381
   33CHL1   H14 3565   0.955   1.872   5.355
   33CHL1   C15 3566   1.003   2.073   5.359
   33CHL1  H15A 3567   0.971   2.157   5.424
   33CHL1  H15B 3568   1.108   2.038   5.373
   33CHL1   C16 3569   0.991   2.116   5.212
   33CHL1  H16A 3570   0.965   2.223   5.197
   33CHL1  H16B 3571   1.090   2.099   5.164
   33CHL1   C17 3572   0.884   2.022   5.149
   33CHL1   H17 3573   0.941   1.929   5.128
   33CHL1   C13 3574   0.796   1.984   5.266
   33CHL1   C18 3575   0.696   2.097   5.303
   33CHL1  H18A 3576   0.617   2.090   5.225
   33CHL1  H18B 3577   0.645   2.081   5.400
   33CHL1  H18C 3578   0.736   2.200   5.289
   33CHL1   C12 3579   0.713   1.848   5.272
   33CHL1  H12A 3580   0.622   1.866   5.210
   33CHL1  H12B 3581   0.781   1.779   5.218
   33CHL1   C11 3582   0.670   1.797   5.412
   33CHL1  H11A 3583   0.576   1.850   5.433
   33CHL1  H11B 3584   0.633   1.692   5.406
   33CHL1    C9 3585   0.775   1.808   5.523
   33CHL1    H9 3586   0.854   1.738   5.488
   33CHL1   C10 3587   0.729   1.778   5.663
   33CHL1   C19 3588   0.597   1.856   5.691
   33CHL1  H19A 3589   0.549   1.843   5.791
   33CHL1  H19B 3590   0.632   1.961   5.681
   33CHL1  H19C 3591   0.516   1.835   5.618
   33CHL1    C1 3592   0.705   1.623   5.667
   33CHL1   H1A 3593   0.611   1.604   5.611
   33CHL1   H1B 3594   0.781   1.563   5.613
   33CHL1    C2 3595   0.677   1.566   5.803
   33CHL1   H2A 3596   0.663   1.457   5.792
   33CHL1   H2B 3597   0.583   1.602   5.850
   33CHL1   C20 3598   0.824   2.077   5.015
   33CHL1   H20 3599   0.753   2.161   5.030
   33CHL1   C21 3600   0.753   1.958   4.948
   33CHL1  H21A 3601   0.704   1.991   4.854
   33CHL1  H21B 3602   0.692   1.905   5.024
   33CHL1  H21C 3603   0.816   1.872   4.916
   33CHL1   C22 3604   0.927   2.139   4.919
   33CHL1  H22A 3605   0.969   2.233   4.961
   33CHL1  H22B 3606   1.006   2.063   4.902
   33CHL1   C23 3607   0.874   2.181   4.778
   33CHL1  H23A 3608   0.881   2.092   4.713
   33CHL1  H23B 3609   0.773   2.228   4.785
   33CHL1   C24 3610   0.960   2.289   4.701
   33CHL1  H24A 3611   0.958   2.380   4.764
   33CHL1  H24B 3612   1.065   2.252   4.705
   33CHL1   C25 3613   0.907   2.318   4.555
   33CHL1   H25 3614   0.884   2.223   4.502
   33CHL1   C26 3615   0.788   2.414   4.568
   33CHL1  H26A 3616   0.818   2.503   4.627
   33CHL1  H26B 3617   0.760   2.447   4.465
   33CHL1  H26C 3618   0.702   2.356   4.608
   33CHL1   C27 3619   1.011   2.400   4.470
   33CHL1  H27A 3620   1.104   2.343   4.451
   33CHL1  H27B 3621   0.963   2.414   4.371
   33CHL1  H27C 3622   1.047   2.494   4.519
   34CHL1    C3 3623   2.790   2.950   6.017
   34CHL1    H3 3624   2.879   2.978   5.957
   34CHL1    O3 3625   2.827   2.958   6.159
   34CHL1   H3' 3626   2.750   2.919   6.201
   34CHL1    C4 3627   2.677   3.053   5.996
   34CHL1   H4A 3628   2.589   3.027   6.059
   34CHL1   H4B 3629   2.712   3.149   6.039
   34CHL1    C5 3630   2.625   3.049   5.855
   34CHL1    C6 3631   2.619   3.161   5.781
   34CHL1    H6 3632   2.654   3.255   5.828
   34CHL1    C7 3633   2.554   3.165   5.647
   34CHL1   H7A 3634   2.488   3.254   5.648
   34CHL1   H7B 3635   2.629   3.180   5.567
   34CHL1    C8 3636   2.471   3.045   5.608
   34CHL1    H8 3637   2.376   3.048   5.666
   34CHL1   C14 3638   2.446   3.054   5.459
   34CHL1   H14 3639   2.545   3.053   5.409
   34CHL1   C15 3640   2.371   3.177   5.404
   34CHL1  H15A 3641   2.301   3.211   5.482
   34CHL1  H15B 3642   2.445   3.258   5.386
   34CHL1   C16 3643   2.305   3.127   5.273
   34CHL1  H16A 3644   2.195   3.146   5.278
   34CHL1  H16B 3645   2.341   3.183   5.184
   34CHL1   C17 3646   2.342   2.980   5.263
   34CHL1   H17 3647   2.441   2.978   5.213
   34CHL1   C13 3648   2.365   2.935   5.409
   34CHL1   C18 3649   2.223   2.923   5.477
   34CHL1  H18A 3650   2.236   2.889   5.582
   34CHL1  H18B 3651   2.167   3.018   5.481
   34CHL1  H18C 3652   2.183   2.832   5.427
   34CHL1   C12 3653   2.453   2.809   5.441
   34CHL1  H12A 3654   2.410   2.713   5.406
   34CHL1  H12B 3655   2.553   2.812   5.393
   34CHL1   C11 3656   2.474   2.786   5.589
   34CHL1  H11A 3657   2.381   2.749   5.638
   34CHL1  H11B 3658   2.545   2.701   5.593
   34CHL1    C9 3659   2.541   2.915   5.651
   34CHL1    H9 3660   2.641   2.920   5.603
   34CHL1   C10 3661   2.572   2.915   5.805
   34CHL1   C19 3662   2.434   2.900   5.880
   34CHL1  H19A 3663   2.375   2.992   5.857
   34CHL1  H19B 3664   2.383   2.807   5.849
   34CHL1  H19C 3665   2.446   2.894   5.990
   34CHL1    C1 3666   2.667   2.794   5.847
   34CHL1   H1A 3667   2.604   2.703   5.855
   34CHL1   H1B 3668   2.738   2.779   5.763
   34CHL1    C2 3669   2.740   2.811   5.987
   34CHL1   H2A 3670   2.829   2.746   5.998
   34CHL1   H2B 3671   2.664   2.785   6.064
   34CHL1   C20 3672   2.248   2.905   5.173
   34CHL1   H20 3673   2.151   2.915   5.226
   34CHL1   C21 3674   2.294   2.761   5.162
   34CHL1  H21A 3675   2.257   2.721   5.065
   34CHL1  H21B 3676   2.249   2.700   5.244
   34CHL1  H21C 3677   2.403   2.745   5.155
   34CHL1   C22 3678   2.228   2.976   5.034
   34CHL1  H22A 3679   2.205   3.084   5.045
   34CHL1  H22B 3680   2.326   2.966   4.981
   34CHL1   C23 3681   2.117   2.922   4.943
   34CHL1  H23A 3682   2.102   2.813   4.955
   34CHL1  H23B 3683   2.021   2.967   4.976
   34CHL1   C24 3684   2.131   2.951   4.797
   34CHL1  H24A 3685   2.177   3.051   4.783
   34CHL1  H24B 3686   2.196   2.871   4.754
   34CHL1   C25 3687   2.005   2.956   4.711
   34CHL1   H25 3688   1.956   3.052   4.736
   34CHL1   C26 3689   2.048   2.976   4.565
   34CHL1  H26A 3690   2.116   3.063   4.563
   34CHL1  H26B 3691   2.093   2.880   4.531
   34CHL1  H26C 3692   1.953   2.994   4.509
   34CHL1   C27 3693   1.905   2.843   4.719
   34CHL1  H27A 3694   1.960   2.748   4.703
   34CHL1  H27B 3695   1.861   2.831   4.820
   34CHL1  H27C 3696   1.835   2.857   4.633
   35CHL1    C3 3697   4.345   5.755   5.860
   35CHL1    H3 3698   4.451   5.787   5.863
   35CHL1    O3 3699   4.323   5.746   6.000
   35CHL1   H3' 3700   4.231   5.721   6.011
   35CHL1    C4 3701   4.253   5.862   5.793
   35CHL1   H4A 3702   4.144   5.839   5.803
   35CHL1   H4B 3703   4.266   5.966   5.831
   35CHL1    C5 3704   4.271   5.858   5.639
   35CHL1    C6 3705   4.281   5.970   5.569
   35CHL1    H6 3706   4.283   6.064   5.626
   35CHL1    C7 3707   4.287   5.980   5.419
   35CHL1   H7A 3708   4.224   6.065   5.385
   35CHL1   H7B 3709   4.394   6.003   5.402
   35CHL1    C8 3710   4.242   5.856   5.345
   35CHL1    H8 3711   4.132   5.871   5.350
   35CHL1   C14 3712   4.288   5.856   5.203
   35CHL1   H14 3713   4.399   5.849   5.208
   35CHL1   C15 3714   4.259   5.982   5.122
   35CHL1  H15A 3715   4.154   6.013   5.137
   35CHL1  H15B 3716   4.324   6.066   5.156
   35CHL1   C16 3717   4.275   5.932   4.975
   35CHL1  H16A 3718   4.193   5.975   4.913
   35CHL1  H16B 3719   4.369   5.976   4.936
   35CHL1   C17 3720   4.276   5.777   4.979
   35CHL1   H17 3721   4.382   5.745   4.984
   35CHL1   C13 3722   4.229   5.735   5.119
   35CHL1   C18 3723   4.080   5.733   5.122
   35CHL1  H18A 3724   4.059   5.641   5.063
   35CHL1  H18B 3725   4.023   5.720   5.216
   35CHL1  H18C 3726   4.039   5.817   5.063
   35CHL1   C12 3727   4.288   5.605   5.184
   35CHL1  H12A 3728   4.254   5.514   5.130
   35CHL1  H12B 3729   4.399   5.617   5.180
   35CHL1   C11 3730   4.262   5.601   5.340
   35CHL1  H11A 3731   4.156   5.576   5.361
   35CHL1  H11B 3732   4.323   5.516   5.377
   35CHL1    C9 3733   4.300   5.733   5.419
   35CHL1    H9 3734   4.410   5.747   5.417
   35CHL1   C10 3735   4.260   5.721   5.569
   35CHL1   C19 3736   4.110   5.667   5.587
   35CHL1  H19A 3737   4.066   5.673   5.688
   35CHL1  H19B 3738   4.040   5.730   5.528
   35CHL1  H19C 3739   4.089   5.559   5.566
   35CHL1    C1 3740   4.353   5.622   5.644
   35CHL1   H1A 3741   4.334   5.520   5.606
   35CHL1   H1B 3742   4.461   5.644   5.632
   35CHL1    C2 3743   4.320   5.620   5.800
   35CHL1   H2A 3744   4.405   5.562   5.842
   35CHL1   H2B 3745   4.222   5.574   5.823
   35CHL1   C20 3746   4.212   5.709   4.854
   35CHL1   H20 3747   4.103   5.728   4.850
   35CHL1   C21 3748   4.235   5.552   4.852
   35CHL1  H21A 3749   4.340   5.518   4.861
   35CHL1  H21B 3750   4.190   5.506   4.761
   35CHL1  H21C 3751   4.173   5.512   4.935
   35CHL1   C22 3752   4.268   5.768   4.725
   35CHL1  H22A 3753   4.311   5.870   4.739
   35CHL1  H22B 3754   4.355   5.703   4.700
   35CHL1   C23 3755   4.163   5.804   4.621
   35CHL1  H23A 3756   4.105   5.887   4.667
   35CHL1  H23B 3757   4.206   5.848   4.529
   35CHL1   C24 3758   4.072   5.686   4.581
   35CHL1  H24A 3759   4.144   5.612   4.538
   35CHL1  H24B 3760   4.022   5.636   4.666
   35CHL1   C25 3761   3.972   5.724   4.471
   35CHL1   H25 3762   3.925   5.626   4.447
   35CHL1   C26 3763   3.856   5.819   4.517
   35CHL1  H26A 3764   3.800   5.776   4.602
   35CHL1  H26B 3765   3.894   5.923   4.532
   35CHL1  H26C 3766   3.780   5.834   4.438
   35CHL1   C27 3767   4.033   5.777   4.339
   35CHL1  H27A 3768   4.082   5.872   4.369
   35CHL1  H27B 3769   4.113   5.705   4.312
   35CHL1  H27C 3770   3.948   5.797   4.270
   36CHL1    C3 3771   6.791   4.074   5.992
   36CHL1    H3 3772   6.682   4.061   5.975
   36CHL1    O3 3773   6.823   4.056   6.134
   36CHL1   H3' 3774   6.884   4.128   6.148
   36CHL1    C4 3775   6.881   3.983   5.910
   36CHL1   H4A 3776   0.076   3.997   5.934
   36CHL1   H4B 3777   6.864   3.879   5.944
   36CHL1    C5 3778   6.869   4.000   5.760
   36CHL1    C6 3779   6.823   3.907   5.680
   36CHL1    H6 3780   6.795   3.812   5.727
   36CHL1    C7 3781   6.838   3.923   5.530
   36CHL1   H7A 3782   6.853   3.825   5.480
   36CHL1   H7B 3783   6.733   3.952   5.508
   36CHL1    C8 3784   0.018   4.030   5.475
   36CHL1    H8 3785   0.122   4.001   5.499
   36CHL1   C14 3786   6.889   4.063   5.335
   36CHL1   H14 3787   6.790   4.112   5.347
   36CHL1   C15 3788   6.867   3.954   5.239
   36CHL1  H15A 3789   0.037   3.883   5.262
   36CHL1  H15B 3790   6.778   3.893   5.262
   36CHL1   C16 3791   6.873   4.018   5.106
   36CHL1  H16A 3792   0.039   3.961   5.053
   36CHL1  H16B 3793   6.775   4.018   5.053
   36CHL1   C17 3794   0.001   4.170   5.123
   36CHL1   H17 3795   6.816   4.219   5.140
   36CHL1   C13 3796   0.065   4.171   5.259
   36CHL1   C18 3797   0.210   4.133   5.262
   36CHL1  H18A 3798   0.243   4.101   5.363
   36CHL1  H18B 3799   0.228   4.057   5.184
   36CHL1  H18C 3800   0.270   4.223   5.234
   36CHL1   C12 3801   0.041   4.301   5.338
   36CHL1  H12A 3802   0.096   4.388   5.298
   36CHL1  H12B 3803   6.846   4.329   5.328
   36CHL1   C11 3804   0.070   4.283   5.494
   36CHL1  H11A 3805   0.178   4.288   5.520
   36CHL1  H11B 3806   0.021   4.371   5.541
   36CHL1    C9 3807   6.901   4.159   5.556
   36CHL1    H9 3808   6.795   4.190   5.544
   36CHL1   C10 3809   0.008   4.136   5.714
   36CHL1   C19 3810   0.150   4.179   5.754
   36CHL1  H19A 3811   0.178   4.143   5.855
   36CHL1  H19B 3812   0.210   4.113   5.688
   36CHL1  H19C 3813   0.163   4.287   5.732
   36CHL1    C1 3814   6.823   4.225   5.797
   36CHL1   H1A 3815   6.854   4.329   5.771
   36CHL1   H1B 3816   6.722   4.213   5.753
   36CHL1    C2 3817   6.834   4.217   5.949
   36CHL1   H2A 3818   6.759   4.285   5.995
   36CHL1   H2B 3819   0.022   4.252   5.982
   36CHL1   C20 3820   0.075   4.228   5.000
   36CHL1   H20 3821   0.164   4.164   4.982
   36CHL1   C21 3822   0.125   4.376   5.023
   36CHL1  H21A 3823   0.170   4.419   4.931
   36CHL1  H21B 3824   0.205   4.369   5.099
   36CHL1  H21C 3825   0.040   4.437   5.061
   36CHL1   C22 3826   6.905   4.222   4.864
   36CHL1  H22A 3827   6.796   4.224   4.886
   36CHL1  H22B 3828   0.021   4.311   4.805
   36CHL1   C23 3829   0.026   4.089   4.782
   36CHL1  H23A 3830   0.137   4.080   4.780
   36CHL1  H23B 3831   6.907   3.999   4.840
   36CHL1   C24 3832   6.864   4.097   4.641
   36CHL1  H24A 3833   6.754   4.096   4.656
   36CHL1  H24B 3834   6.898   4.191   4.594
   36CHL1   C25 3835   6.890   3.972   4.558
   36CHL1   H25 3836   6.854   3.897   4.632
   36CHL1   C26 3837   6.809   3.965   4.434
   36CHL1  H26A 3838   6.700   3.972   4.453
   36CHL1  H26B 3839   6.840   4.051   4.370
   36CHL1  H26C 3840   6.831   3.875   4.372
   36CHL1   C27 3841   0.123   3.951   4.525
   36CHL1  H27A 3842   0.137   3.871   4.449
   36CHL1  H27B 3843   0.165   4.047   4.486
   36CHL1  H27C 3844   0.186   3.919   4.611
   37CHL1    C3 3845   0.873   0.627   5.824
   37CHL1    H3 3846   0.957   0.693   5.794
   37CHL1    O3 3847   0.845   0.627   5.961
   37CHL1   H3' 3848   0.773   0.563   5.961
   37CHL1    C4 3849   0.739   0.675   5.753
   37CHL1   H4A 3850   0.655   0.609   5.784
   37CHL1   H4B 3851   0.715   0.772   5.801
   37CHL1    C5 3852   0.757   0.664   5.601
   37CHL1    C6 3853   0.732   0.770   5.523
   37CHL1    H6 3854   0.700   0.862   5.574
   37CHL1    C7 3855   0.731   0.773   5.370
   37CHL1   H7A 3856   0.642   0.831   5.337
   37CHL1   H7B 3857   0.821   0.831   5.341
   37CHL1    C8 3858   0.718   0.621   5.320
   37CHL1    H8 3859   0.615   0.581   5.334
   37CHL1   C14 3860   0.760   0.619   5.173
   37CHL1   H14 3861   0.859   0.670   5.172
   37CHL1   C15 3862   0.679   0.712   5.080
   37CHL1  H15A 3863   0.575   0.725   5.116
   37CHL1  H15B 3864   0.723   0.814   5.092
   37CHL1   C16 3865   0.699   0.652   4.936
   37CHL1  H16A 3866   0.599   0.622   4.899
   37CHL1  H16B 3867   0.743   0.732   4.872
   37CHL1   C17 3868   0.788   0.525   4.955
   37CHL1   H17 3869   0.890   0.563   4.935
   37CHL1   C13 3870   0.773   0.488   5.106
   37CHL1   C18 3871   0.632   0.406   5.121
   37CHL1  H18A 3872   0.573   0.463   5.047
   37CHL1  H18B 3873   0.651   0.306   5.075
   37CHL1  H18C 3874   0.577   0.407   5.218
   37CHL1   C12 3875   0.886   0.408   5.177
   37CHL1  H12A 3876   0.873   0.305   5.137
   37CHL1  H12B 3877   0.983   0.460   5.160
   37CHL1   C11 3878   0.852   0.396   5.323
   37CHL1  H11A 3879   0.766   0.329   5.337
   37CHL1  H11B 3880   0.932   0.333   5.366
   37CHL1    C9 3881   0.823   0.531   5.397
   37CHL1    H9 3882   0.911   0.599   5.390
   37CHL1   C10 3883   0.788   0.524   5.549
   37CHL1   C19 3884   0.676   0.420   5.574
   37CHL1  H19A 3885   0.709   0.319   5.543
   37CHL1  H19B 3886   0.650   0.420   5.682
   37CHL1  H19C 3887   0.581   0.447   5.524
   37CHL1    C1 3888   0.922   0.488   5.618
   37CHL1   H1A 3889   0.964   0.391   5.582
   37CHL1   H1B 3890   1.003   0.560   5.592
   37CHL1    C2 3891   0.909   0.486   5.773
   37CHL1   H2A 3892   1.013   0.462   5.803
   37CHL1   H2B 3893   0.845   0.404   5.815
   37CHL1   C20 3894   0.758   0.410   4.848
   37CHL1   H20 3895   0.668   0.350   4.871
   37CHL1   C21 3896   0.873   0.309   4.839
   37CHL1  H21A 3897   0.958   0.354   4.782
   37CHL1  H21B 3898   0.834   0.223   4.781
   37CHL1  H21C 3899   0.918   0.261   4.928
   37CHL1   C22 3900   0.729   0.475   4.705
   37CHL1  H22A 3901   0.641   0.542   4.714
   37CHL1  H22B 3902   0.818   0.533   4.674
   37CHL1   C23 3903   0.706   0.375   4.586
   37CHL1  H23A 3904   0.800   0.317   4.577
   37CHL1  H23B 3905   0.624   0.314   4.629
   37CHL1   C24 3906   0.670   0.439   4.453
   37CHL1  H24A 3907   0.560   0.453   4.459
   37CHL1  H24B 3908   0.725   0.534   4.433
   37CHL1   C25 3909   0.699   0.357   4.323
   37CHL1   H25 3910   0.649   0.415   4.243
   37CHL1   C26 3911   0.850   0.342   4.301
   37CHL1  H26A 3912   0.904   0.435   4.329
   37CHL1  H26B 3913   0.882   0.259   4.367
   37CHL1  H26C 3914   0.884   0.314   4.199
   37CHL1   C27 3915   0.635   0.216   4.323
   37CHL1  H27A 3916   0.633   0.186   4.216
   37CHL1  H27B 3917   0.697   0.143   4.379
   37CHL1  H27C 3918   0.530   0.205   4.357
   38CHL1    C3 3919   1.660   1.282   5.622
   38CHL1    H3 3920   1.762   1.309   5.588
   38CHL1    O3 3921   1.657   1.271   5.762
   38CHL1   H3' 3922   1.629   1.183   5.788
   38CHL1    C4 3923   1.554   1.384   5.574
   38CHL1   H4A 3924   1.450   1.385   5.613
   38CHL1   H4B 3925   1.596   1.471   5.629
   38CHL1    C5 3926   1.545   1.395   5.422
   38CHL1    C6 3927   1.574   1.503   5.343
   38CHL1    H6 3928   1.599   1.600   5.387
   38CHL1    C7 3929   1.570   1.500   5.191
   38CHL1   H7A 3930   1.550   1.600   5.146
   38CHL1   H7B 3931   1.672   1.480   5.153
   38CHL1    C8 3932   1.483   1.383   5.143
   38CHL1    H8 3933   1.377   1.402   5.172
   38CHL1   C14 3934   1.474   1.377   4.989
   38CHL1   H14 3935   1.580   1.369   4.958
   38CHL1   C15 3936   1.431   1.511   4.921
   38CHL1  H15A 3937   1.338   1.542   4.973
   38CHL1  H15B 3938   1.497   1.601   4.926
   38CHL1   C16 3939   1.402   1.467   4.777
   38CHL1  H16A 3940   1.297   1.496   4.753
   38CHL1  H16B 3941   1.475   1.523   4.714
   38CHL1   C17 3942   1.417   1.314   4.781
   38CHL1   H17 3943   1.521   1.285   4.755
   38CHL1   C13 3944   1.406   1.254   4.924
   38CHL1   C18 3945   1.260   1.257   4.961
   38CHL1  H18A 3946   1.207   1.345   4.917
   38CHL1  H18B 3947   1.200   1.173   4.920
   38CHL1  H18C 3948   1.231   1.245   5.068
   38CHL1   C12 3949   1.477   1.129   4.972
   38CHL1  H12A 3950   1.434   1.039   4.922
   38CHL1  H12B 3951   1.584   1.129   4.943
   38CHL1   C11 3952   1.472   1.120   5.127
   38CHL1  H11A 3953   1.364   1.102   5.146
   38CHL1  H11B 3954   1.531   1.034   5.167
   38CHL1    C9 3955   1.528   1.251   5.205
   38CHL1    H9 3956   1.635   1.244   5.176
   38CHL1   C10 3957   1.521   1.256   5.360
   38CHL1   C19 3958   1.372   1.221   5.389
   38CHL1  H19A 3959   1.337   1.231   5.494
   38CHL1  H19B 3960   1.293   1.271   5.328
   38CHL1  H19C 3961   1.354   1.114   5.363
   38CHL1    C1 3962   1.608   1.145   5.408
   38CHL1   H1A 3963   1.559   1.053   5.372
   38CHL1   H1B 3964   1.711   1.150   5.367
   38CHL1    C2 3965   1.614   1.143   5.568
   38CHL1   H2A 3966   1.664   1.050   5.601
   38CHL1   H2B 3967   1.508   1.131   5.600
   38CHL1   C20 3968   1.327   1.253   4.673
   38CHL1   H20 3969   1.223   1.263   4.709
   38CHL1   C21 3970   1.367   1.105   4.659
   38CHL1  H21A 3971   1.320   1.057   4.571
   38CHL1  H21B 3972   1.330   1.042   4.742
   38CHL1  H21C 3973   1.477   1.091   4.649
   38CHL1   C22 3974   1.334   1.318   4.536
   38CHL1  H22A 3975   1.276   1.253   4.468
   38CHL1  H22B 3976   1.282   1.416   4.537
   38CHL1   C23 3977   1.477   1.344   4.477
   38CHL1  H23A 3978   1.528   1.416   4.545
   38CHL1  H23B 3979   1.532   1.247   4.482
   38CHL1   C24 3980   1.460   1.383   4.335
   38CHL1  H24A 3981   1.415   1.299   4.279
   38CHL1  H24B 3982   1.396   1.474   4.338
   38CHL1   C25 3983   1.591   1.428   4.276
   38CHL1   H25 3984   1.632   1.517   4.329
   38CHL1   C26 3985   1.695   1.312   4.265
   38CHL1  H26A 3986   1.787   1.345   4.213
   38CHL1  H26B 3987   1.728   1.263   4.359
   38CHL1  H26C 3988   1.640   1.241   4.199
   38CHL1   C27 3989   1.563   1.488   4.139
   38CHL1  H27A 3990   1.511   1.413   4.075
   38CHL1  H27B 3991   1.487   1.568   4.148
   38CHL1  H27C 3992   1.656   1.525   4.090
   39CHL1    C3 3993   3.427   1.773   6.176
   39CHL1    H3 3994   3.537   1.788   6.185
   39CHL1    O3 3995   3.371   1.774   6.306
   39CHL1   H3' 3996   3.277   1.772   6.286
   39CHL1    C4 3997   3.379   1.901   6.099
   39CHL1   H4A 3998   3.270   1.884   6.103
   39CHL1   H4B 3999   3.401   1.991   6.160
   39CHL1    C5 4000   3.437   1.923   5.958
   39CHL1    C6 4001   3.516   2.020   5.920
   39CHL1    H6 4002   3.525   2.109   5.984
   39CHL1    C7 4003   3.587   2.033   5.791
   39CHL1   H7A 4004   3.580   2.135   5.746
   39CHL1   H7B 4005   3.694   2.007   5.807
   39CHL1    C8 4006   3.526   1.934   5.686
   39CHL1    H8 4007   3.428   1.974   5.654
   39CHL1   C14 4008   3.620   1.924   5.574
   39CHL1   H14 4009   3.718   1.897   5.619
   39CHL1   C15 4010   3.665   2.056   5.498
   39CHL1  H15A 4011   3.585   2.133   5.486
   39CHL1  H15B 4012   3.745   2.122   5.538
   39CHL1   C16 4013   3.728   1.991   5.366
   39CHL1  H16A 4014   3.704   2.055   5.278
   39CHL1  H16B 4015   3.838   1.992   5.376
   39CHL1   C17 4016   3.687   1.842   5.356
   39CHL1   H17 4017   3.777   1.789   5.394
   39CHL1   C13 4018   3.575   1.819   5.472
   39CHL1   C18 4019   3.443   1.864   5.402
   39CHL1  H18A 4020   3.419   1.794   5.319
   39CHL1  H18B 4021   3.369   1.879   5.483
   39CHL1  H18C 4022   3.464   1.965   5.360
   39CHL1   C12 4023   3.578   1.675   5.533
   39CHL1  H12A 4024   3.532   1.606   5.459
   39CHL1  H12B 4025   3.679   1.636   5.560
   39CHL1   C11 4026   3.478   1.689   5.645
   39CHL1  H11A 4027   3.380   1.718   5.601
   39CHL1  H11B 4028   3.470   1.586   5.686
   39CHL1    C9 4029   3.519   1.797   5.748
   39CHL1    H9 4030   3.620   1.761   5.776
   39CHL1   C10 4031   3.426   1.799   5.872
   39CHL1   C19 4032   3.277   1.802   5.830
   39CHL1  H19A 4033   3.246   1.892   5.772
   39CHL1  H19B 4034   3.260   1.721   5.756
   39CHL1  H19C 4035   3.202   1.801   5.912
   39CHL1    C1 4036   3.447   1.668   5.953
   39CHL1   H1A 4037   3.405   1.583   5.896
   39CHL1   H1B 4038   3.553   1.636   5.965
   39CHL1    C2 4039   3.387   1.655   6.099
   39CHL1   H2A 4040   3.419   1.563   6.153
   39CHL1   H2B 4041   3.276   1.656   6.095
   39CHL1   C20 4042   3.661   1.802   5.214
   39CHL1   H20 4043   3.567   1.845   5.175
   39CHL1   C21 4044   3.637   1.648   5.200
   39CHL1  H21A 4045   3.625   1.619   5.093
   39CHL1  H21B 4046   3.543   1.616   5.249
   39CHL1  H21C 4047   3.718   1.591   5.250
   39CHL1   C22 4048   3.770   1.847   5.115
   39CHL1  H22A 4049   3.824   1.937   5.151
   39CHL1  H22B 4050   3.851   1.771   5.107
   39CHL1   C23 4051   3.721   1.869   4.967
   39CHL1  H23A 4052   3.690   1.769   4.930
   39CHL1  H23B 4053   3.626   1.927   4.962
   39CHL1   C24 4054   3.827   1.941   4.883
   39CHL1  H24A 4055   3.827   2.047   4.914
   39CHL1  H24B 4056   3.930   1.901   4.891
   39CHL1   C25 4057   3.791   1.956   4.731
   39CHL1   H25 4058   3.763   1.853   4.700
   39CHL1   C26 4059   3.663   2.036   4.706
   39CHL1  H26A 4060   3.628   2.010   4.603
   39CHL1  H26B 4061   3.588   2.019   4.786
   39CHL1  H26C 4062   3.691   2.143   4.713
   39CHL1   C27 4063   3.903   1.998   4.637
   39CHL1  H27A 4064   3.987   1.926   4.640
   39CHL1  H27B 4065   3.872   2.029   4.535
   39CHL1  H27C 4066   3.935   2.092   4.685
   40CHL1    C3 4067   3.825   4.665   5.927
   40CHL1    H3 4068   3.867   4.755   5.877
   40CHL1    O3 4069   3.795   4.688   6.062
   40CHL1   H3' 4070   3.776   4.600   6.096
   40CHL1    C4 4071   3.702   4.630   5.849
   40CHL1   H4A 4072   3.654   4.550   5.909
   40CHL1   H4B 4073   3.625   4.710   5.848
   40CHL1    C5 4074   3.740   4.590   5.704
   40CHL1    C6 4075   3.691   4.659   5.603
   40CHL1    H6 4076   3.618   4.738   5.630
   40CHL1    C7 4077   3.719   4.643   5.458
   40CHL1   H7A 4078   3.623   4.636   5.403
   40CHL1   H7B 4079   3.784   4.722   5.416
   40CHL1    C8 4080   3.797   4.505   5.432
   40CHL1    H8 4081   3.729   4.419   5.452
   40CHL1   C14 4082   3.859   4.501   5.295
   40CHL1   H14 4083   3.936   4.580   5.284
   40CHL1   C15 4084   3.762   4.526   5.183
   40CHL1  H15A 4085   3.657   4.495   5.202
   40CHL1  H15B 4086   3.761   4.635   5.159
   40CHL1   C16 4087   3.829   4.448   5.065
   40CHL1  H16A 4088   3.753   4.378   5.023
   40CHL1  H16B 4089   3.848   4.519   4.982
   40CHL1   C17 4090   3.956   4.380   5.111
   40CHL1   H17 4091   4.043   4.448   5.101
   40CHL1   C13 4092   3.937   4.375   5.270
   40CHL1   C18 4093   3.849   4.253   5.294
   40CHL1  H18A 4094   3.827   4.243   5.403
   40CHL1  H18B 4095   3.757   4.255   5.233
   40CHL1  H18C 4096   3.904   4.165   5.253
   40CHL1   C12 4097   4.056   4.376   5.363
   40CHL1  H12A 4098   4.117   4.284   5.352
   40CHL1  H12B 4099   4.130   4.454   5.333
   40CHL1   C11 4100   4.015   4.378   5.509
   40CHL1  H11A 4101   3.968   4.280   5.535
   40CHL1  H11B 4102   4.102   4.382   5.578
   40CHL1    C9 4103   3.906   4.488   5.539
   40CHL1    H9 4104   3.972   4.578   5.536
   40CHL1   C10 4105   3.854   4.487   5.683
   40CHL1   C19 4106   3.784   4.349   5.718
   40CHL1  H19A 4107   3.867   4.275   5.716
   40CHL1  H19B 4108   3.740   4.348   5.820
   40CHL1  H19C 4109   3.695   4.324   5.656
   40CHL1    C1 4110   3.968   4.520   5.775
   40CHL1   H1A 4111   4.042   4.438   5.770
   40CHL1   H1B 4112   4.026   4.609   5.743
   40CHL1    C2 4113   3.925   4.552   5.920
   40CHL1   H2A 4114   4.011   4.570   5.989
   40CHL1   H2B 4115   3.868   4.469   5.967
   40CHL1   C20 4116   3.989   4.258   5.023
   40CHL1   H20 4117   3.913   4.177   5.035
   40CHL1   C21 4118   4.126   4.200   5.054
   40CHL1  H21A 4119   4.133   4.181   5.164
   40CHL1  H21B 4120   4.194   4.284   5.028
   40CHL1  H21C 4121   4.148   4.107   4.998
   40CHL1   C22 4122   3.986   4.291   4.876
   40CHL1  H22A 4123   3.898   4.348   4.840
   40CHL1  H22B 4124   4.077   4.351   4.853
   40CHL1   C23 4125   3.976   4.161   4.789
   40CHL1  H23A 4126   4.057   4.086   4.801
   40CHL1  H23B 4127   3.879   4.111   4.808
   40CHL1   C24 4128   3.962   4.197   4.637
   40CHL1  H24A 4129   3.938   4.100   4.588
   40CHL1  H24B 4130   3.876   4.263   4.613
   40CHL1   C25 4131   4.094   4.240   4.575
   40CHL1   H25 4132   4.141   4.330   4.620
   40CHL1   C26 4133   4.202   4.127   4.588
   40CHL1  H26A 4134   4.282   4.134   4.511
   40CHL1  H26B 4135   4.251   4.125   4.688
   40CHL1  H26C 4136   4.153   4.028   4.575
   40CHL1   C27 4137   4.085   4.275   4.424
   40CHL1  H27A 4138   4.045   4.190   4.364
   40CHL1  H27B 4139   4.021   4.365   4.413
   40CHL1  H27C 4140   4.190   4.294   4.392
   41CHL1    C3 4141   0.357   5.017   5.969
   41CHL1    H3 4142   0.462   4.979   5.968
   41CHL1    O3 4143   0.293   5.007   6.095
   41CHL1   H3' 4144   0.202   5.033   6.079
   41CHL1    C4 4145   0.354   5.165   5.936
   41CHL1   H4A 4146   0.251   5.200   5.960
   41CHL1   H4B 4147   0.419   5.214   6.012
   41CHL1    C5 4148   0.409   5.202   5.802
   41CHL1    C6 4149   0.509   5.289   5.780
   41CHL1    H6 4150   0.545   5.344   5.868
   41CHL1    C7 4151   0.564   5.330   5.647
   41CHL1   H7A 4152   0.586   5.436   5.624
   41CHL1   H7B 4153   0.664   5.285   5.661
   41CHL1    C8 4154   0.482   5.266   5.524
   41CHL1    H8 4155   0.386   5.319   5.505
   41CHL1   C14 4156   0.575   5.268   5.410
   41CHL1   H14 4157   0.653   5.192   5.432
   41CHL1   C15 4158   0.668   5.389   5.365
   41CHL1  H15A 4159   0.609   5.483   5.380
   41CHL1  H15B 4160   0.764   5.396   5.419
   41CHL1   C16 4161   0.700   5.358   5.217
   41CHL1  H16A 4162   0.660   5.450   5.170
   41CHL1  H16B 4163   0.811   5.354   5.213
   41CHL1   C17 4164   0.627   5.231   5.175
   41CHL1   H17 4165   0.705   5.154   5.196
   41CHL1   C13 4166   0.514   5.217   5.281
   41CHL1   C18 4167   0.404   5.316   5.230
   41CHL1  H18A 4168   0.361   5.271   5.138
   41CHL1  H18B 4169   0.325   5.341   5.303
   41CHL1  H18C 4170   0.445   5.414   5.197
   41CHL1   C12 4171   0.474   5.066   5.315
   41CHL1  H12A 4172   0.413   5.027   5.230
   41CHL1  H12B 4173   0.559   4.995   5.317
   41CHL1   C11 4174   0.379   5.056   5.432
   41CHL1  H11A 4175   0.284   5.104   5.402
   41CHL1  H11B 4176   0.353   4.948   5.443
   41CHL1    C9 4177   0.436   5.123   5.564
   41CHL1    H9 4178   0.532   5.076   5.595
   41CHL1   C10 4179   0.349   5.113   5.694
   41CHL1   C19 4180   0.207   5.161   5.659
   41CHL1  H19A 4181   0.207   5.269   5.633
   41CHL1  H19B 4182   0.169   5.101   5.573
   41CHL1  H19C 4183   0.137   5.160   5.745
   41CHL1    C1 4184   0.344   4.957   5.735
   41CHL1   H1A 4185   0.292   4.899   5.656
   41CHL1   H1B 4186   0.445   4.910   5.743
   41CHL1    C2 4187   0.281   4.927   5.870
   41CHL1   H2A 4188   0.298   4.819   5.891
   41CHL1   H2B 4189   0.174   4.955   5.856
   41CHL1   C20 4190   0.609   5.222   5.020
   41CHL1   H20 4191   0.567   5.315   4.976
   41CHL1   C21 4192   0.528   5.092   4.986
   41CHL1  H21A 4193   0.586   5.002   5.016
   41CHL1  H21B 4194   0.503   5.084   4.878
   41CHL1  H21C 4195   0.434   5.099   5.045
   41CHL1   C22 4196   0.746   5.211   4.950
   41CHL1  H22A 4197   0.825   5.272   5.000
   41CHL1  H22B 4198   0.786   5.108   4.963
   41CHL1   C23 4199   0.741   5.236   4.801
   41CHL1  H23A 4200   0.843   5.217   4.762
   41CHL1  H23B 4201   0.670   5.168   4.751
   41CHL1   C24 4202   0.708   5.382   4.759
   41CHL1  H24A 4203   0.612   5.418   4.803
   41CHL1  H24B 4204   0.785   5.455   4.792
   41CHL1   C25 4205   0.700   5.406   4.606
   41CHL1   H25 4206   0.709   5.517   4.594
   41CHL1   C26 4207   0.813   5.356   4.521
   41CHL1  H26A 4208   0.882   5.442   4.510
   41CHL1  H26B 4209   0.860   5.264   4.562
   41CHL1  H26C 4210   0.777   5.328   4.420
   41CHL1   C27 4211   0.559   5.356   4.556
   41CHL1  H27A 4212   0.478   5.386   4.626
   41CHL1  H27B 4213   0.526   5.399   4.459
   41CHL1  H27C 4214   0.557   5.245   4.565
   42CHL1    C3 4215   5.397   3.916   6.151
   42CHL1    H3 4216   5.296   3.955   6.126
   42CHL1    O3 4217   5.421   3.930   6.292
   42CHL1   H3' 4218   5.495   3.873   6.315
   42CHL1    C4 4219   5.413   3.769   6.121
   42CHL1   H4A 4220   5.513   3.737   6.158
   42CHL1   H4B 4221   5.348   3.704   6.183
   42CHL1    C5 4222   5.409   3.730   5.976
   42CHL1    C6 4223   5.314   3.644   5.939
   42CHL1    H6 4224   5.244   3.608   6.016
   42CHL1    C7 4225   5.296   3.605   5.796
   42CHL1   H7A 4226   5.296   3.496   5.777
   42CHL1   H7B 4227   5.204   3.651   5.754
   42CHL1    C8 4228   5.426   3.652   5.709
   42CHL1    H8 4229   5.507   3.578   5.726
   42CHL1   C14 4230   5.390   3.641   5.556
   42CHL1   H14 4231   5.310   3.716   5.538
   42CHL1   C15 4232   5.343   3.506   5.501
   42CHL1  H15A 4233   5.412   3.424   5.529
   42CHL1  H15B 4234   5.237   3.488   5.531
   42CHL1   C16 4235   5.352   3.544   5.347
   42CHL1  H16A 4236   5.392   3.450   5.304
   42CHL1  H16B 4237   5.254   3.553   5.297
   42CHL1   C17 4238   5.447   3.669   5.329
   42CHL1   H17 4239   5.370   3.748   5.314
   42CHL1   C13 4240   5.509   3.687   5.470
   42CHL1   C18 4241   5.627   3.599   5.497
   42CHL1  H18A 4242   5.596   3.495   5.474
   42CHL1  H18B 4243   5.709   3.623   5.426
   42CHL1  H18C 4244   5.661   3.613   5.602
   42CHL1   C12 4245   5.534   3.840   5.505
   42CHL1  H12A 4246   5.624   3.879   5.453
   42CHL1  H12B 4247   5.440   3.897   5.487
   42CHL1   C11 4248   5.572   3.858   5.653
   42CHL1  H11A 4249   5.672   3.810   5.662
   42CHL1  H11B 4250   5.585   3.966   5.674
   42CHL1    C9 4251   5.467   3.795   5.745
   42CHL1    H9 4252   5.374   3.854   5.730
   42CHL1   C10 4253   5.501   3.809   5.886
   42CHL1   C19 4254   5.639   3.748   5.901
   42CHL1  H19A 4255   5.648   3.657   5.838
   42CHL1  H19B 4256   5.708   3.821   5.855
   42CHL1  H19C 4257   5.663   3.721   6.007
   42CHL1    C1 4258   5.510   3.964   5.933
   42CHL1   H1A 4259   5.599   4.012   5.886
   42CHL1   H1B 4260   5.416   3.997   5.883
   42CHL1    C2 4261   5.517   3.985   6.083
   42CHL1   H2A 4262   5.528   4.092   6.112
   42CHL1   H2B 4263   5.609   3.947   6.131
   42CHL1   C20 4264   5.541   3.658   5.208
   42CHL1   H20 4265   5.614   3.575   5.215
   42CHL1   C21 4266   5.632   3.781   5.202
   42CHL1  H21A 4267   5.679   3.791   5.102
   42CHL1  H21B 4268   5.700   3.776   5.290
   42CHL1  H21C 4269   5.565   3.869   5.210
   42CHL1   C22 4270   5.474   3.645   5.066
   42CHL1  H22A 4271   5.555   3.649   4.990
   42CHL1  H22B 4272   5.422   3.546   5.069
   42CHL1   C23 4273   5.364   3.747   5.036
   42CHL1  H23A 4274   5.294   3.757   5.122
   42CHL1  H23B 4275   5.414   3.845   5.026
   42CHL1   C24 4276   5.299   3.719   4.888
   42CHL1  H24A 4277   5.386   3.707   4.820
   42CHL1  H24B 4278   5.257   3.617   4.901
   42CHL1   C25 4279   5.214   3.819   4.813
   42CHL1   H25 4280   5.279   3.908   4.802
   42CHL1   C26 4281   5.180   3.760   4.680
   42CHL1  H26A 4282   5.127   3.841   4.624
   42CHL1  H26B 4283   5.264   3.718   4.621
   42CHL1  H26C 4284   5.111   3.675   4.694
   42CHL1   C27 4285   5.093   3.855   4.898
   42CHL1  H27A 4286   5.123   3.913   4.988
   42CHL1  H27B 4287   5.009   3.905   4.845
   42CHL1  H27C 4288   5.042   3.762   4.932
   43CHL1    C3 4289   6.490   2.181   6.116
   43CHL1    H3 4290   6.380   2.189   6.126
   43CHL1    O3 4291   6.548   2.202   6.250
   43CHL1   H3' 4292   6.580   2.293   6.250
   43CHL1    C4 4293   6.528   2.042   6.061
   43CHL1   H4A 4294   6.636   2.021   6.079
   43CHL1   H4B 4295   6.475   1.969   6.126
   43CHL1    C5 4296   6.492   2.020   5.916
   43CHL1    C6 4297   6.422   1.911   5.876
   43CHL1    H6 4298   6.412   1.822   5.940
   43CHL1    C7 4299   6.381   1.880   5.735
   43CHL1   H7A 4300   6.400   1.774   5.709
   43CHL1   H7B 4301   6.273   1.906   5.734
   43CHL1    C8 4302   6.466   1.959   5.635
   43CHL1    H8 4303   6.564   1.907   5.625
   43CHL1   C14 4304   6.399   1.949   5.495
   43CHL1   H14 4305   6.310   2.015   5.504
   43CHL1   C15 4306   6.349   1.814   5.435
   43CHL1  H15A 4307   6.431   1.738   5.430
   43CHL1  H15B 4308   6.254   1.773   5.474
   43CHL1   C16 4309   6.324   1.848   5.288
   43CHL1  H16A 4310   6.366   1.768   5.224
   43CHL1  H16B 4311   6.216   1.863   5.269
   43CHL1   C17 4312   6.389   1.989   5.261
   43CHL1   H17 4313   6.311   2.066   5.277
   43CHL1   C13 4314   6.482   2.016   5.384
   43CHL1   C18 4315   6.617   1.944   5.358
   43CHL1  H18A 4316   6.595   1.841   5.321
   43CHL1  H18B 4317   6.681   1.993   5.281
   43CHL1  H18C 4318   6.676   1.941   5.452
   43CHL1   C12 4319   6.507   2.164   5.415
   43CHL1  H12A 4320   6.579   2.201   5.339
   43CHL1  H12B 4321   6.415   2.227   5.418
   43CHL1   C11 4322   6.565   2.182   5.554
   43CHL1  H11A 4323   6.666   2.135   5.555
   43CHL1  H11B 4324   6.572   2.292   5.564
   43CHL1    C9 4325   6.489   2.111   5.669
   43CHL1    H9 4326   6.386   2.152   5.671
   43CHL1   C10 4327   6.538   2.131   5.813
   43CHL1   C19 4328   6.697   2.125   5.810
   43CHL1  H19A 4329   6.724   2.216   5.751
   43CHL1  H19B 4330   6.754   2.131   5.905
   43CHL1  H19C 4331   6.723   2.036   5.750
   43CHL1    C1 4332   6.479   2.256   5.873
   43CHL1   H1A 4333   6.491   2.349   5.813
   43CHL1   H1B 4334   6.369   2.248   5.880
   43CHL1    C2 4335   6.532   2.290   6.018
   43CHL1   H2A 4336   6.492   2.388   6.051
   43CHL1   H2B 4337   6.643   2.289   6.028
   43CHL1   C20 4338   6.455   1.996   5.121
   43CHL1   H20 4339   6.533   1.917   5.118
   43CHL1   C21 4340   6.520   2.137   5.104
   43CHL1  H21A 4341   6.457   2.221   5.141
   43CHL1  H21B 4342   6.539   2.156   4.996
   43CHL1  H21C 4343   6.616   2.141   5.159
   43CHL1   C22 4344   6.350   1.964   5.013
   43CHL1  H22A 4345   6.296   1.870   5.038
   43CHL1  H22B 4346   6.277   2.048   5.017
   43CHL1   C23 4347   6.412   1.944   4.874
   43CHL1  H23A 4348   6.469   2.030   4.834
   43CHL1  H23B 4349   6.496   1.871   4.873
   43CHL1   C24 4350   6.319   1.896   4.760
   43CHL1  H24A 4351   6.259   1.810   4.797
   43CHL1  H24B 4352   6.244   1.970   4.726
   43CHL1   C25 4353   6.397   1.866   4.631
   43CHL1   H25 4354   6.450   1.775   4.665
   43CHL1   C26 4355   6.302   1.820   4.516
   43CHL1  H26A 4356   6.256   1.908   4.468
   43CHL1  H26B 4357   6.357   1.751   4.447
   43CHL1  H26C 4358   6.213   1.766   4.554
   43CHL1   C27 4359   6.497   1.975   4.589
   43CHL1  H27A 4360   6.534   1.940   4.490
   43CHL1  H27B 4361   6.441   2.069   4.572
   43CHL1  H27C 4362   6.586   1.990   4.654
   44CHL1    C3 4363   0.018   3.444   5.946
   44CHL1    H3 4364   6.832   3.435   5.894
   44CHL1    O3 4365   6.898   3.426   6.082
   44CHL1   H3' 4366   0.056   3.454   6.140
   44CHL1    C4 4367   0.121   3.341   5.897
   44CHL1   H4A 4368   0.219   3.343   5.950
   44CHL1   H4B 4369   0.092   3.238   5.927
   44CHL1    C5 4370   0.131   3.358   5.746
   44CHL1    C6 4371   0.078   3.266   5.661
   44CHL1    H6 4372   0.022   3.179   5.699
   44CHL1    C7 4373   0.097   3.269   5.513
   44CHL1   H7A 4374   0.138   3.172   5.480
   44CHL1   H7B 4375   6.907   3.290   5.474
   44CHL1    C8 4376   0.197   3.376   5.460
   44CHL1    H8 4377   0.299   3.346   5.492
   44CHL1   C14 4378   0.172   3.404   5.317
   44CHL1   H14 4379   0.070   3.449   5.314
   44CHL1   C15 4380   0.170   3.290   5.214
   44CHL1  H15A 4381   0.254   3.220   5.235
   44CHL1  H15B 4382   0.080   3.226   5.223
   44CHL1   C16 4383   0.195   3.348   5.074
   44CHL1  H16A 4384   0.287   3.311   5.024
   44CHL1  H16B 4385   0.110   3.335   5.004
   44CHL1   C17 4386   0.221   3.502   5.095
   44CHL1   H17 4387   0.121   3.550   5.089
   44CHL1   C13 4388   0.256   3.513   5.247
   44CHL1   C18 4389   0.408   3.476   5.259
   44CHL1  H18A 4390   0.433   3.467   5.367
   44CHL1  H18B 4391   0.439   3.384   5.206
   44CHL1  H18C 4392   0.478   3.550   5.214
   44CHL1   C12 4393   0.231   3.647   5.322
   44CHL1  H12A 4394   0.300   3.727   5.287
   44CHL1  H12B 4395   0.131   3.686   5.293
   44CHL1   C11 4396   0.249   3.629   5.473
   44CHL1  H11A 4397   0.359   3.627   5.489
   44CHL1  H11B 4398   0.216   3.727   5.514
   44CHL1    C9 4399   0.176   3.506   5.543
   44CHL1    H9 4400   0.067   3.524   5.530
   44CHL1   C10 4401   0.191   3.491   5.698
   44CHL1   C19 4402   0.343   3.489   5.744
   44CHL1  H19A 4403   0.350   3.461   5.852
   44CHL1  H19B 4404   0.392   3.410   5.682
   44CHL1  H19C 4405   0.376   3.593   5.721
   44CHL1    C1 4406   0.099   3.591   5.766
   44CHL1   H1A 4407   0.135   3.694   5.747
   44CHL1   H1B 4408   6.908   3.585   5.724
   44CHL1    C2 4409   0.073   3.588   5.922
   44CHL1   H2A 4410   0.000   3.669   5.942
   44CHL1   H2B 4411   0.168   3.614   5.975
   44CHL1   C20 4412   0.308   3.564   4.985
   44CHL1   H20 4413   0.407   3.513   4.987
   44CHL1   C21 4414   0.324   3.718   5.006
   44CHL1  H21A 4415   0.367   3.741   5.106
   44CHL1  H21B 4416   0.232   3.779   4.998
   44CHL1  H21C 4417   0.384   3.761   4.922
   44CHL1   C22 4418   0.251   3.548   4.841
   44CHL1  H22A 4419   0.220   3.442   4.827
   44CHL1  H22B 4420   0.165   3.618   4.834
   44CHL1   C23 4421   0.359   3.575   4.731
   44CHL1  H23A 4422   0.432   3.654   4.761
   44CHL1  H23B 4423   0.429   3.488   4.730
   44CHL1   C24 4424   0.300   3.574   4.587
   44CHL1  H24A 4425   0.269   3.468   4.579
   44CHL1  H24B 4426   0.209   3.637   4.581
   44CHL1   C25 4427   0.406   3.603   4.480
   44CHL1   H25 4428   0.492   3.538   4.506
   44CHL1   C26 4429   0.346   3.563   4.346
   44CHL1  H26A 4430   0.335   3.454   4.331
   44CHL1  H26B 4431   0.247   3.611   4.335
   44CHL1  H26C 4432   0.402   3.588   4.253
   44CHL1   C27 4433   0.438   3.748   4.471
   44CHL1  H27A 4434   0.356   3.809   4.427
   44CHL1  H27B 4435   0.439   3.791   4.574
   44CHL1  H27C 4436   0.533   3.762   4.416
   45CHL1    C3 4437   6.337   4.653   5.853
   45CHL1    H3 4438   6.259   4.717   5.806
   45CHL1    O3 4439   6.323   4.650   5.994
   45CHL1   H3' 4440   6.394   4.599   6.035
   45CHL1    C4 4441   6.312   4.514   5.787
   45CHL1   H4A 4442   6.378   4.435   5.830
   45CHL1   H4B 4443   6.206   4.487   5.806
   45CHL1    C5 4444   6.333   4.519   5.640
   45CHL1    C6 4445   6.239   4.490   5.550
   45CHL1    H6 4446   6.148   4.443   5.591
   45CHL1    C7 4447   6.256   4.490   5.399
   45CHL1   H7A 4448   6.216   4.396   5.356
   45CHL1   H7B 4449   6.197   4.572   5.352
   45CHL1    C8 4450   6.402   4.507   5.361
   45CHL1    H8 4451   6.460   4.414   5.383
   45CHL1   C14 4452   6.404   4.545   5.213
   45CHL1   H14 4453   6.363   4.649   5.208
   45CHL1   C15 4454   6.317   4.463   5.115
   45CHL1  H15A 4455   6.323   4.353   5.134
   45CHL1  H15B 4456   6.210   4.492   5.116
   45CHL1   C16 4457   6.385   4.500   4.977
   45CHL1  H16A 4458   6.399   4.406   4.920
   45CHL1  H16B 4459   6.313   4.559   4.917
   45CHL1   C17 4460   6.513   4.579   4.997
   45CHL1   H17 4461   6.488   4.686   4.982
   45CHL1   C13 4462   6.541   4.559   5.151
   45CHL1   C18 4463   6.629   4.439   5.170
   45CHL1  H18A 4464   6.726   4.424   5.120
   45CHL1  H18B 4465   6.650   4.418   5.277
   45CHL1  H18C 4466   6.566   4.353   5.139
   45CHL1   C12 4467   6.593   4.685   5.218
   45CHL1  H12A 4468   6.701   4.688   5.191
   45CHL1  H12B 4469   6.538   4.775   5.183
   45CHL1   C11 4470   6.588   4.681   5.379
   45CHL1  H11A 4471   6.671   4.615   5.413
   45CHL1  H11B 4472   6.607   4.782   5.420
   45CHL1    C9 4473   6.457   4.626   5.441
   45CHL1    H9 4474   6.395   4.717   5.431
   45CHL1   C10 4475   6.461   4.587   5.590
   45CHL1   C19 4476   6.577   4.491   5.620
   45CHL1  H19A 4477   6.578   4.463   5.727
   45CHL1  H19B 4478   6.566   4.395   5.564
   45CHL1  H19C 4479   6.683   4.520   5.603
   45CHL1    C1 4480   6.503   4.717   5.668
   45CHL1   H1A 4481   6.611   4.745   5.663
   45CHL1   H1B 4482   6.437   4.801   5.636
   45CHL1    C2 4483   6.473   4.713   5.816
   45CHL1   H2A 4484   6.490   4.808   5.871
   45CHL1   H2B 4485   6.553   4.650   5.863
   45CHL1   C20 4486   6.617   4.540   4.893
   45CHL1   H20 4487   6.636   4.432   4.908
   45CHL1   C21 4488   6.744   4.626   4.916
   45CHL1  H21A 4489   6.806   4.573   4.991
   45CHL1  H21B 4490   6.716   4.726   4.956
   45CHL1  H21C 4491   6.807   4.643   4.825
   45CHL1   C22 4492   6.565   4.570   4.748
   45CHL1  H22A 4493   6.464   4.524   4.735
   45CHL1  H22B 4494   6.563   4.680   4.734
   45CHL1   C23 4495   6.641   4.500   4.630
   45CHL1  H23A 4496   6.744   4.542   4.633
   45CHL1  H23B 4497   6.651   4.396   4.667
   45CHL1   C24 4498   6.575   4.500   4.496
   45CHL1  H24A 4499   6.464   4.503   4.501
   45CHL1  H24B 4500   6.595   4.595   4.441
   45CHL1   C25 4501   6.622   4.377   4.411
   45CHL1   H25 4502   6.624   4.290   4.480
   45CHL1   C26 4503   6.524   4.332   4.301
   45CHL1  H26A 4504   6.573   4.260   4.232
   45CHL1  H26B 4505   6.428   4.292   4.342
   45CHL1  H26C 4506   6.496   4.421   4.242
   45CHL1   C27 4507   6.765   4.393   4.355
   45CHL1  H27A 4508   6.850   4.404   4.425
   45CHL1  H27B 4509   6.780   4.311   4.281
   45CHL1  H27C 4510   6.767   4.488   4.299
   46CHL1    C3 4511   2.322   6.133   5.772
   46CHL1    H3 4512   2.415   6.187   5.746
   46CHL1    O3 4513   2.289   6.171   5.903
   46CHL1   H3' 4514   2.246   6.097   5.944
   46CHL1    C4 4515   2.210   6.183   5.671
   46CHL1   H4A 4516   2.107   6.151   5.696
   46CHL1   H4B 4517   2.221   6.294   5.677
   46CHL1    C5 4518   2.247   6.129   5.534
   46CHL1    C6 4519   2.253   6.208   5.427
   46CHL1    H6 4520   2.213   6.309   5.439
   46CHL1    C7 4521   2.270   6.157   5.289
   46CHL1   H7A 4522   2.209   6.198   5.205
   46CHL1   H7B 4523   2.374   6.180   5.256
   46CHL1    C8 4524   2.263   6.002   5.273
   46CHL1    H8 4525   2.157   5.973   5.264
   46CHL1   C14 4526   2.322   5.965   5.141
   46CHL1   H14 4527   2.429   5.995   5.148
   46CHL1   C15 4528   2.263   6.028   5.005
   46CHL1  H15A 4529   2.153   6.012   5.005
   46CHL1  H15B 4530   2.286   6.137   5.005
   46CHL1   C16 4531   2.328   5.935   4.898
   46CHL1  H16A 4532   2.247   5.881   4.844
   46CHL1  H16B 4533   2.387   5.983   4.818
   46CHL1   C17 4534   2.402   5.820   4.982
   46CHL1   H17 4535   2.508   5.850   4.994
   46CHL1   C13 4536   2.329   5.809   5.113
   46CHL1   C18 4537   2.186   5.753   5.093
   46CHL1  H18A 4538   2.125   5.762   5.185
   46CHL1  H18B 4539   2.132   5.787   5.002
   46CHL1  H18C 4540   2.195   5.643   5.081
   46CHL1   C12 4541   2.398   5.746   5.233
   46CHL1  H12A 4542   2.401   5.636   5.214
   46CHL1  H12B 4543   2.503   5.781   5.242
   46CHL1   C11 4544   2.333   5.778   5.367
   46CHL1  H11A 4545   2.231   5.735   5.368
   46CHL1  H11B 4546   2.392   5.721   5.443
   46CHL1    C9 4547   2.329   5.930   5.389
   46CHL1    H9 4548   2.436   5.960   5.382
   46CHL1   C10 4549   2.274   5.971   5.529
   46CHL1   C19 4550   2.139   5.904   5.554
   46CHL1  H19A 4551   2.075   5.894   5.463
   46CHL1  H19B 4552   2.159   5.798   5.581
   46CHL1  H19C 4553   2.084   5.948   5.640
   46CHL1    C1 4554   2.380   5.927   5.634
   46CHL1   H1A 4555   2.393   5.817   5.626
   46CHL1   H1B 4556   2.477   5.977   5.610
   46CHL1    C2 4557   2.336   5.982   5.771
   46CHL1   H2A 4558   2.410   5.960   5.851
   46CHL1   H2B 4559   2.245   5.924   5.797
   46CHL1   C20 4560   2.415   5.697   4.893
   46CHL1   H20 4561   2.314   5.651   4.887
   46CHL1   C21 4562   2.504   5.599   4.963
   46CHL1  H21A 4563   2.437   5.548   5.036
   46CHL1  H21B 4564   2.584   5.657   5.012
   46CHL1  H21C 4565   2.540   5.517   4.897
   46CHL1   C22 4566   2.480   5.726   4.756
   46CHL1  H22A 4567   2.505   5.630   4.707
   46CHL1  H22B 4568   2.408   5.782   4.692
   46CHL1   C23 4569   2.621   5.788   4.763
   46CHL1  H23A 4570   2.614   5.884   4.818
   46CHL1  H23B 4571   2.684   5.715   4.819
   46CHL1   C24 4572   2.686   5.819   4.623
   46CHL1  H24A 4573   2.789   5.857   4.640
   46CHL1  H24B 4574   2.700   5.730   4.559
   46CHL1   C25 4575   2.615   5.924   4.544
   46CHL1   H25 4576   2.515   5.884   4.518
   46CHL1   C26 4577   2.618   6.057   4.619
   46CHL1  H26A 4578   2.541   6.034   4.696
   46CHL1  H26B 4579   2.712   6.076   4.675
   46CHL1  H26C 4580   2.589   6.142   4.554
   46CHL1   C27 4581   2.682   5.947   4.415
   46CHL1  H27A 4582   2.788   5.975   4.430
   46CHL1  H27B 4583   2.674   5.858   4.349
   46CHL1  H27C 4584   2.642   6.033   4.358
   47CHL1    C3 4585   4.089   5.191   5.984
   47CHL1    H3 4586   3.980   5.175   5.975
   47CHL1    O3 4587   4.117   5.223   6.119
   47CHL1   H3' 4588   4.137   5.317   6.111
   47CHL1    C4 4589   4.162   5.063   5.922
   47CHL1   H4A 4590   4.270   5.061   5.945
   47CHL1   H4B 4591   4.118   4.985   5.988
   47CHL1    C5 4592   4.153   5.045   5.771
   47CHL1    C6 4593   4.115   4.930   5.719
   47CHL1    H6 4594   4.100   4.843   5.784
   47CHL1    C7 4595   4.096   4.901   5.574
   47CHL1   H7A 4596   4.137   4.802   5.545
   47CHL1   H7B 4597   3.988   4.891   5.554
   47CHL1    C8 4598   4.161   5.012   5.487
   47CHL1    H8 4599   4.266   4.975   5.484
   47CHL1   C14 4600   4.096   4.997   5.347
   47CHL1   H14 4601   3.989   5.027   5.353
   47CHL1   C15 4602   4.097   4.860   5.277
   47CHL1  H15A 4603   4.198   4.815   5.281
   47CHL1  H15B 4604   4.029   4.795   5.336
   47CHL1   C16 4605   4.067   4.893   5.128
   47CHL1  H16A 4606   4.139   4.840   5.061
   47CHL1  H16B 4607   3.965   4.861   5.100
   47CHL1   C17 4608   4.090   5.044   5.115
   47CHL1   H17 4609   3.992   5.097   5.120
   47CHL1   C13 4610   4.162   5.090   5.242
   47CHL1   C18 4611   4.309   5.045   5.214
   47CHL1  H18A 4612   4.359   5.123   5.153
   47CHL1  H18B 4613   4.374   5.030   5.303
   47CHL1  H18C 4614   4.311   4.955   5.149
   47CHL1   C12 4615   4.160   5.236   5.291
   47CHL1  H12A 4616   4.204   5.307   5.219
   47CHL1  H12B 4617   4.052   5.260   5.297
   47CHL1   C11 4618   4.222   5.244   5.433
   47CHL1  H11A 4619   4.332   5.239   5.448
   47CHL1  H11B 4620   4.187   5.346   5.457
   47CHL1    C9 4621   4.145   5.154   5.536
   47CHL1    H9 4622   4.035   5.169   5.534
   47CHL1   C10 4623   4.177   5.171   5.682
   47CHL1   C19 4624   4.325   5.202   5.702
   47CHL1  H19A 4625   4.386   5.126   5.647
   47CHL1  H19B 4626   4.346   5.302   5.658
   47CHL1  H19C 4627   4.357   5.199   5.808
   47CHL1    C1 4628   4.087   5.284   5.745
   47CHL1   H1A 4629   4.080   5.373   5.678
   47CHL1   H1B 4630   3.982   5.247   5.733
   47CHL1    C2 4631   4.110   5.314   5.898
   47CHL1   H2A 4632   4.035   5.389   5.930
   47CHL1   H2B 4633   4.216   5.346   5.910
   47CHL1   C20 4634   4.144   5.087   4.975
   47CHL1   H20 4635   4.245   5.041   4.971
   47CHL1   C21 4636   4.146   5.240   4.957
   47CHL1  H21A 4637   4.220   5.270   5.034
   47CHL1  H21B 4638   4.044   5.280   4.979
   47CHL1  H21C 4639   4.186   5.286   4.865
   47CHL1   C22 4640   4.067   5.042   4.846
   47CHL1  H22A 4641   4.046   4.933   4.858
   47CHL1  H22B 4642   3.967   5.090   4.853
   47CHL1   C23 4643   4.149   5.046   4.717
   47CHL1  H23A 4644   4.216   5.133   4.704
   47CHL1  H23B 4645   4.208   4.952   4.726
   47CHL1   C24 4646   4.059   5.012   4.588
   47CHL1  H24A 4647   4.135   5.002   4.508
   47CHL1  H24B 4648   4.009   4.916   4.614
   47CHL1   C25 4649   3.953   5.112   4.546
   47CHL1   H25 4650   3.863   5.096   4.610
   47CHL1   C26 4651   4.000   5.259   4.555
   47CHL1  H26A 4652   4.041   5.276   4.657
   47CHL1  H26B 4653   4.096   5.253   4.499
   47CHL1  H26C 4654   3.923   5.328   4.514
   47CHL1   C27 4655   3.898   5.079   4.404
   47CHL1  H27A 4656   3.989   5.087   4.341
   47CHL1  H27B 4657   3.864   4.974   4.387
   47CHL1  H27C 4658   3.824   5.153   4.366
   48CHL1    C3 4659   0.945   6.277   5.776
   48CHL1    H3 4660   0.902   6.375   5.806
   48CHL1    O3 4661   1.016   6.240   5.899
   48CHL1   H3' 4662   0.950   6.218   5.965
   48CHL1    C4 4663   0.833   6.181   5.742
   48CHL1   H4A 4664   0.884   6.085   5.719
   48CHL1   H4B 4665   0.769   6.160   5.830
   48CHL1    C5 4666   0.756   6.223   5.617
   48CHL1    C6 4667   0.622   6.237   5.603
   48CHL1    H6 4668   0.560   6.209   5.690
   48CHL1    C7 4669   0.545   6.265   5.476
   48CHL1   H7A 4670   0.480   6.178   5.454
   48CHL1   H7B 4671   0.491   6.362   5.481
   48CHL1    C8 4672   0.636   6.257   5.357
   48CHL1    H8 4673   0.653   6.151   5.328
   48CHL1   C14 4674   0.562   6.323   5.245
   48CHL1   H14 4675   0.556   6.431   5.269
   48CHL1   C15 4676   0.415   6.275   5.212
   48CHL1  H15A 4677   0.420   6.165   5.219
   48CHL1  H15B 4678   0.333   6.311   5.278
   48CHL1   C16 4679   0.400   6.307   5.066
   48CHL1  H16A 4680   0.385   6.213   5.009
   48CHL1  H16B 4681   0.324   6.386   5.045
   48CHL1   C17 4682   0.541   6.363   5.009
   48CHL1   H17 4683   0.531   6.472   5.031
   48CHL1   C13 4684   0.641   6.315   5.114
   48CHL1   C18 4685   0.687   6.170   5.075
   48CHL1  H18A 4686   0.597   6.106   5.065
   48CHL1  H18B 4687   0.743   6.166   4.979
   48CHL1  H18C 4688   0.747   6.120   5.155
   48CHL1   C12 4689   0.764   6.401   5.136
   48CHL1  H12A 4690   0.834   6.421   5.052
   48CHL1  H12B 4691   0.739   6.501   5.177
   48CHL1   C11 4692   0.849   6.348   5.249
   48CHL1  H11A 4693   0.901   6.257   5.212
   48CHL1  H11B 4694   0.936   6.416   5.261
   48CHL1    C9 4695   0.772   6.326   5.377
   48CHL1    H9 4696   0.741   6.426   5.413
   48CHL1   C10 4697   0.844   6.252   5.490
   48CHL1   C19 4698   0.899   6.112   5.440
   48CHL1  H19A 4699   0.819   6.045   5.399
   48CHL1  H19B 4700   0.968   6.133   5.356
   48CHL1  H19C 4701   0.951   6.057   5.521
   48CHL1    C1 4702   0.973   6.340   5.531
   48CHL1   H1A 4703   1.041   6.359   5.445
   48CHL1   H1B 4704   0.935   6.444   5.541
   48CHL1    C2 4705   1.045   6.295   5.653
   48CHL1   H2A 4706   1.117   6.372   5.689
   48CHL1   H2B 4707   1.084   6.195   5.624
   48CHL1   C20 4708   0.564   6.334   4.859
   48CHL1   H20 4709   0.568   6.225   4.840
   48CHL1   C21 4710   0.693   6.402   4.811
   48CHL1  H21A 4711   0.688   6.512   4.829
   48CHL1  H21B 4712   0.773   6.351   4.869
   48CHL1  H21C 4713   0.713   6.381   4.704
   48CHL1   C22 4714   0.448   6.391   4.771
   48CHL1  H22A 4715   0.354   6.348   4.811
   48CHL1  H22B 4716   0.455   6.501   4.765
   48CHL1   C23 4717   0.459   6.334   4.620
   48CHL1  H23A 4718   0.554   6.373   4.576
   48CHL1  H23B 4719   0.468   6.224   4.630
   48CHL1   C24 4720   0.339   6.369   4.527
   48CHL1  H24A 4721   0.240   6.341   4.569
   48CHL1  H24B 4722   0.342   6.479   4.518
   48CHL1   C25 4723   0.346   6.284   4.402
   48CHL1   H25 4724   0.377   6.183   4.437
   48CHL1   C26 4725   0.204   6.264   4.341
   48CHL1  H26A 4726   0.195   6.341   4.261
   48CHL1  H26B 4727   0.183   6.159   4.311
   48CHL1  H26C 4728   0.135   6.296   4.421
   48CHL1   C27 4729   0.451   6.327   4.299
   48CHL1  H27A 4730   0.413   6.409   4.233
   48CHL1  H27B 4731   0.543   6.345   4.358
   48CHL1  H27C 4732   0.471   6.244   4.227
   49CHL1    C3 4733   3.894   4.408   2.783
   49CHL1    H3 4734   3.788   4.442   2.783
   49CHL1    O3 4735   3.920   4.358   2.656
   49CHL1   H3' 4736   4.004   4.402   2.642
   49CHL1    C4 4737   3.992   4.525   2.804
   49CHL1   H4A 4738   4.085   4.481   2.760
   49CHL1   H4B 4739   3.964   4.607   2.734
   49CHL1    C5 4740   4.014   4.561   2.951
   49CHL1    C6 4741   3.999   4.692   2.983
   49CHL1    H6 4742   3.992   4.759   2.895
   49CHL1    C7 4743   3.997   4.747   3.117
   49CHL1   H7A 4744   4.059   4.839   3.130
   49CHL1   H7B 4745   3.897   4.782   3.151
   49CHL1    C8 4746   4.062   4.645   3.223
   49CHL1    H8 4747   4.171   4.643   3.198
   49CHL1   C14 4748   4.034   4.680   3.369
   49CHL1   H14 4749   3.927   4.659   3.391
   49CHL1   C15 4750   4.069   4.824   3.396
   49CHL1  H15A 4751   4.168   4.851   3.353
   49CHL1  H15B 4752   3.982   4.878   3.354
   49CHL1   C16 4753   4.081   4.828   3.547
   49CHL1  H16A 4754   4.186   4.858   3.566
   49CHL1  H16B 4755   4.010   4.892   3.603
   49CHL1   C17 4756   4.071   4.679   3.592
   49CHL1   H17 4757   3.963   4.677   3.616
   49CHL1   C13 4758   4.105   4.593   3.472
   49CHL1   C18 4759   4.258   4.595   3.450
   49CHL1  H18A 4760   4.289   4.701   3.440
   49CHL1  H18B 4761   4.306   4.556   3.543
   49CHL1  H18C 4762   4.286   4.538   3.359
   49CHL1   C12 4763   4.049   4.451   3.449
   49CHL1  H12A 4764   4.101   4.383   3.520
   49CHL1  H12B 4765   3.939   4.447   3.464
   49CHL1   C11 4766   4.072   4.394   3.304
   49CHL1  H11A 4767   4.180   4.381   3.283
   49CHL1  H11B 4768   4.020   4.297   3.294
   49CHL1    C9 4769   4.012   4.493   3.200
   49CHL1    H9 4770   3.905   4.499   3.229
   49CHL1   C10 4771   4.026   4.448   3.054
   49CHL1   C19 4772   4.166   4.395   3.025
   49CHL1  H19A 4773   4.183   4.299   3.078
   49CHL1  H19B 4774   4.179   4.370   2.917
   49CHL1  H19C 4775   4.245   4.464   3.060
   49CHL1    C1 4776   3.913   4.354   3.031
   49CHL1   H1A 4777   3.932   4.267   3.096
   49CHL1   H1B 4778   3.819   4.402   3.066
   49CHL1    C2 4779   3.902   4.300   2.885
   49CHL1   H2A 4780   3.808   4.242   2.873
   49CHL1   H2B 4781   3.986   4.229   2.868
   49CHL1   C20 4782   4.143   4.659   3.725
   49CHL1   H20 4783   4.253   4.666   3.712
   49CHL1   C21 4784   4.121   4.506   3.771
   49CHL1  H21A 4785   4.182   4.439   3.707
   49CHL1  H21B 4786   4.013   4.478   3.779
   49CHL1  H21C 4787   4.162   4.485   3.872
   49CHL1   C22 4788   4.104   4.761   3.841
   49CHL1  H22A 4789   4.153   4.743   3.938
   49CHL1  H22B 4790   4.137   4.861   3.805
   49CHL1   C23 4791   3.958   4.760   3.872
   49CHL1  H23A 4792   3.897   4.775   3.780
   49CHL1  H23B 4793   3.933   4.662   3.918
   49CHL1   C24 4794   3.935   4.874   3.976
   49CHL1  H24A 4795   4.006   4.869   4.061
   49CHL1  H24B 4796   3.954   4.975   3.932
   49CHL1   C25 4797   3.785   4.867   4.025
   49CHL1   H25 4798   3.725   4.832   3.939
   49CHL1   C26 4799   3.767   4.763   4.143
   49CHL1  H26A 4800   3.813   4.664   4.121
   49CHL1  H26B 4801   3.820   4.806   4.230
   49CHL1  H26C 4802   3.662   4.760   4.179
   49CHL1   C27 4803   3.735   5.007   4.057
   49CHL1  H27A 4804   3.736   5.074   3.968
   49CHL1  H27B 4805   3.631   5.011   4.095
   49CHL1  H27C 4806   3.798   5.047   4.140
   50CHL1    C3 4807   4.141   2.004   2.746
   50CHL1    H3 4808   4.238   1.987   2.798
   50CHL1    O3 4809   4.168   2.018   2.613
   50CHL1   H3' 4810   4.101   1.974   2.560
   50CHL1    C4 4811   4.028   1.899   2.772
   50CHL1   H4A 4812   3.936   1.935   2.722
   50CHL1   H4B 4813   4.064   1.804   2.727
   50CHL1    C5 4814   4.010   1.883   2.922
   50CHL1    C6 4815   4.025   1.770   2.992
   50CHL1    H6 4816   4.039   1.676   2.938
   50CHL1    C7 4817   3.992   1.762   3.140
   50CHL1   H7A 4818   3.938   1.668   3.167
   50CHL1   H7B 4819   4.093   1.746   3.183
   50CHL1    C8 4820   3.921   1.884   3.198
   50CHL1    H8 4821   3.814   1.877   3.169
   50CHL1   C14 4822   3.935   1.896   3.346
   50CHL1   H14 4823   4.044   1.905   3.362
   50CHL1   C15 4824   3.890   1.778   3.436
   50CHL1  H15A 4825   3.785   1.757   3.407
   50CHL1  H15B 4826   3.954   1.687   3.430
   50CHL1   C16 4827   3.855   1.828   3.578
   50CHL1  H16A 4828   3.747   1.811   3.598
   50CHL1  H16B 4829   3.907   1.767   3.655
   50CHL1   C17 4830   3.891   1.977   3.579
   50CHL1   H17 4831   4.002   1.976   3.591
   50CHL1   C13 4832   3.871   2.012   3.426
   50CHL1   C18 4833   3.717   2.022   3.402
   50CHL1  H18A 4834   3.682   2.121   3.440
   50CHL1  H18B 4835   3.696   2.009   3.294
   50CHL1  H18C 4836   3.662   1.943   3.458
   50CHL1   C12 4837   3.936   2.140   3.378
   50CHL1  H12A 4838   3.884   2.223   3.430
   50CHL1  H12B 4839   4.045   2.138   3.399
   50CHL1   C11 4840   3.922   2.144   3.220
   50CHL1  H11A 4841   3.812   2.157   3.204
   50CHL1  H11B 4842   3.954   2.239   3.172
   50CHL1    C9 4843   3.980   2.022   3.145
   50CHL1    H9 4844   4.087   2.026   3.177
   50CHL1   C10 4845   3.973   2.025   2.991
   50CHL1   C19 4846   3.833   2.068   2.950
   50CHL1  H19A 4847   3.809   2.173   2.979
   50CHL1  H19B 4848   3.836   2.068   2.839
   50CHL1  H19C 4849   3.753   2.006   2.996
   50CHL1    C1 4850   4.081   2.124   2.952
   50CHL1   H1A 4851   4.042   2.222   2.987
   50CHL1   H1B 4852   4.182   2.099   2.991
   50CHL1    C2 4853   4.097   2.137   2.801
   50CHL1   H2A 4854   4.175   2.213   2.779
   50CHL1   H2B 4855   4.005   2.182   2.756
   50CHL1   C20 4856   3.821   2.057   3.687
   50CHL1   H20 4857   3.741   2.129   3.661
   50CHL1   C21 4858   3.938   2.162   3.719
   50CHL1  H21A 4859   3.938   2.226   3.628
   50CHL1  H21B 4860   4.041   2.133   3.748
   50CHL1  H21C 4861   3.913   2.220   3.811
   50CHL1   C22 4862   3.780   1.983   3.813
   50CHL1  H22A 4863   3.691   1.924   3.782
   50CHL1  H22B 4864   3.841   1.896   3.845
   50CHL1   C23 4865   3.747   2.065   3.937
   50CHL1  H23A 4866   3.839   2.109   3.980
   50CHL1  H23B 4867   3.684   2.151   3.906
   50CHL1   C24 4868   3.674   1.985   4.049
   50CHL1  H24A 4869   3.568   1.983   4.017
   50CHL1  H24B 4870   3.712   1.881   4.063
   50CHL1   C25 4871   3.686   2.057   4.185
   50CHL1   H25 4872   3.791   2.044   4.220
   50CHL1   C26 4873   3.646   2.202   4.172
   50CHL1  H26A 4874   3.729   2.257   4.122
   50CHL1  H26B 4875   3.548   2.209   4.120
   50CHL1  H26C 4876   3.627   2.240   4.274
   50CHL1   C27 4877   3.591   1.978   4.277
   50CHL1  H27A 4878   3.646   1.888   4.311
   50CHL1  H27B 4879   3.569   2.049   4.360
   50CHL1  H27C 4880   3.495   1.948   4.230
   51CHL1    C3 4881   3.483   2.728   2.815
   51CHL1    H3 4882   3.529   2.642   2.868
   51CHL1    O3 4883   3.467   2.702   2.678
   51CHL1   H3' 4884   3.390   2.748   2.643
   51CHL1    C4 4885   3.351   2.750   2.890
   51CHL1   H4A 4886   3.296   2.828   2.833
   51CHL1   H4B 4887   3.290   2.658   2.876
   51CHL1    C5 4888   3.373   2.780   3.032
   51CHL1    C6 4889   3.328   2.701   3.133
   51CHL1    H6 4890   3.279   2.607   3.101
   51CHL1    C7 4891   3.335   2.742   3.273
   51CHL1   H7A 4892   3.233   2.734   3.316
   51CHL1   H7B 4893   3.404   2.677   3.331
   51CHL1    C8 4894   3.377   2.890   3.298
   51CHL1    H8 4895   3.283   2.949   3.290
   51CHL1   C14 4896   3.426   2.903   3.442
   51CHL1   H14 4897   3.510   2.831   3.449
   51CHL1   C15 4898   3.333   2.864   3.552
   51CHL1  H15A 4899   3.226   2.884   3.529
   51CHL1  H15B 4900   3.339   2.753   3.562
   51CHL1   C16 4901   3.385   2.941   3.678
   51CHL1  H16A 4902   3.305   3.013   3.703
   51CHL1  H16B 4903   3.406   2.870   3.761
   51CHL1   C17 4904   3.507   3.026   3.629
   51CHL1   H17 4905   3.590   2.954   3.643
   51CHL1   C13 4906   3.475   3.045   3.474
   51CHL1   C18 4907   3.361   3.153   3.468
   51CHL1  H18A 4908   3.263   3.135   3.517
   51CHL1  H18B 4909   3.396   3.256   3.489
   51CHL1  H18C 4910   3.340   3.161   3.359
   51CHL1   C12 4911   3.593   3.078   3.391
   51CHL1  H12A 4912   3.626   3.184   3.397
   51CHL1  H12B 4913   3.679   3.019   3.429
   51CHL1   C11 4914   3.571   3.049   3.244
   51CHL1  H11A 4915   3.512   3.139   3.214
   51CHL1  H11B 4916   3.670   3.051   3.194
   51CHL1    C9 4917   3.495   2.918   3.210
   51CHL1    H9 4918   3.573   2.842   3.231
   51CHL1   C10 4919   3.461   2.911   3.056
   51CHL1   C19 4920   3.384   3.045   3.020
   51CHL1  H19A 4921   3.453   3.132   3.013
   51CHL1  H19B 4922   3.350   3.024   2.916
   51CHL1  H19C 4923   3.288   3.061   3.074
   51CHL1    C1 4924   3.588   2.895   2.973
   51CHL1   H1A 4925   3.639   2.991   2.993
   51CHL1   H1B 4926   3.635   2.801   3.010
   51CHL1    C2 4927   3.565   2.862   2.829
   51CHL1   H2A 4928   3.667   2.852   2.785
   51CHL1   H2B 4929   3.526   2.953   2.780
   51CHL1   C20 4930   3.539   3.149   3.715
   51CHL1   H20 4931   3.471   3.235   3.695
   51CHL1   C21 4932   3.690   3.191   3.688
   51CHL1  H21A 4933   3.702   3.238   3.588
   51CHL1  H21B 4934   3.753   3.100   3.692
   51CHL1  H21C 4935   3.712   3.271   3.762
   51CHL1   C22 4936   3.520   3.104   3.865
   51CHL1  H22A 4937   3.422   3.056   3.887
   51CHL1  H22B 4938   3.601   3.036   3.897
   51CHL1   C23 4939   3.520   3.231   3.954
   51CHL1  H23A 4940   3.612   3.290   3.933
   51CHL1  H23B 4941   3.431   3.292   3.927
   51CHL1   C24 4942   3.508   3.191   4.101
   51CHL1  H24A 4943   3.418   3.127   4.116
   51CHL1  H24B 4944   3.599   3.132   4.126
   51CHL1   C25 4945   3.512   3.297   4.214
   51CHL1   H25 4946   3.419   3.358   4.210
   51CHL1   C26 4947   3.506   3.219   4.347
   51CHL1  H26A 4948   3.407   3.168   4.347
   51CHL1  H26B 4949   3.577   3.134   4.346
   51CHL1  H26C 4950   3.521   3.276   4.441
   51CHL1   C27 4951   3.635   3.381   4.207
   51CHL1  H27A 4952   3.641   3.441   4.300
   51CHL1  H27B 4953   3.730   3.323   4.205
   51CHL1  H27C 4954   3.622   3.451   4.122
   52CHL1    C3 4955   2.791   4.687   2.198
   52CHL1    H3 4956   2.688   4.713   2.232
   52CHL1    O3 4957   2.810   4.717   2.056
   52CHL1   H3' 4958   2.736   4.685   2.004
   52CHL1    C4 4959   2.893   4.768   2.277
   52CHL1   H4A 4960   2.993   4.740   2.236
   52CHL1   H4B 4961   2.892   4.877   2.255
   52CHL1    C5 4962   2.893   4.737   2.430
   52CHL1    C6 4963   2.879   4.824   2.526
   52CHL1    H6 4964   2.871   4.931   2.500
   52CHL1    C7 4965   2.880   4.800   2.671
   52CHL1   H7A 4966   2.931   4.879   2.730
   52CHL1   H7B 4967   2.778   4.814   2.715
   52CHL1    C8 4968   2.927   4.660   2.699
   52CHL1    H8 4969   3.039   4.659   2.696
   52CHL1   C14 4970   2.887   4.626   2.841
   52CHL1   H14 4971   2.776   4.622   2.845
   52CHL1   C15 4972   2.916   4.723   2.953
   52CHL1  H15A 4973   3.020   4.760   2.958
   52CHL1  H15B 4974   2.850   4.810   2.934
   52CHL1   C16 4975   2.890   4.640   3.085
   52CHL1  H16A 4976   2.976   4.665   3.150
   52CHL1  H16B 4977   2.802   4.681   3.138
   52CHL1   C17 4978   2.888   4.486   3.045
   52CHL1   H17 4979   2.780   4.459   3.048
   52CHL1   C13 4980   2.930   4.488   2.896
   52CHL1   C18 4981   3.087   4.485   2.879
   52CHL1  H18A 4982   3.121   4.386   2.917
   52CHL1  H18B 4983   3.133   4.506   2.780
   52CHL1  H18C 4984   3.143   4.561   2.938
   52CHL1   C12 4985   2.862   4.385   2.803
   52CHL1  H12A 4986   2.891   4.286   2.844
   52CHL1  H12B 4987   2.751   4.384   2.811
   52CHL1   C11 4988   2.897   4.407   2.653
   52CHL1  H11A 4989   3.007   4.409   2.644
   52CHL1  H11B 4990   2.854   4.331   2.584
   52CHL1    C9 4991   2.866   4.555   2.610
   52CHL1    H9 4992   2.756   4.558   2.619
   52CHL1   C10 4993   2.899   4.584   2.457
   52CHL1   C19 4994   3.039   4.538   2.417
   52CHL1  H19A 4995   3.032   4.428   2.401
   52CHL1  H19B 4996   3.078   4.571   2.319
   52CHL1  H19C 4997   3.112   4.564   2.496
   52CHL1    C1 4998   2.786   4.504   2.378
   52CHL1   H1A 4999   2.800   4.396   2.401
   52CHL1   H1B 5000   2.689   4.536   2.421
   52CHL1    C2 5001   2.794   4.539   2.223
   52CHL1   H2A 5002   2.710   4.498   2.163
   52CHL1   H2B 5003   2.886   4.495   2.181
   52CHL1   C20 5004   2.963   4.402   3.157
   52CHL1   H20 5005   3.070   4.431   3.151
   52CHL1   C21 5006   2.966   4.252   3.131
   52CHL1  H21A 5007   2.863   4.211   3.143
   52CHL1  H21B 5008   3.033   4.202   3.204
   52CHL1  H21C 5009   2.995   4.234   3.026
   52CHL1   C22 5010   2.927   4.427   3.307
   52CHL1  H22A 5011   2.924   4.534   3.335
   52CHL1  H22B 5012   2.821   4.393   3.303
   52CHL1   C23 5013   2.983   4.342   3.418
   52CHL1  H23A 5014   2.966   4.233   3.405
   52CHL1  H23B 5015   3.093   4.350   3.419
   52CHL1   C24 5016   2.919   4.375   3.551
   52CHL1  H24A 5017   2.915   4.481   3.584
   52CHL1  H24B 5018   2.813   4.342   3.540
   52CHL1   C25 5019   2.977   4.303   3.674
   52CHL1   H25 5020   2.950   4.197   3.654
   52CHL1   C26 5021   3.129   4.330   3.688
   52CHL1  H26A 5022   3.143   4.433   3.725
   52CHL1  H26B 5023   3.163   4.260   3.767
   52CHL1  H26C 5024   3.183   4.310   3.593
   52CHL1   C27 5025   2.908   4.346   3.803
   52CHL1  H27A 5026   2.798   4.328   3.811
   52CHL1  H27B 5027   2.956   4.309   3.896
   52CHL1  H27C 5028   2.928   4.454   3.814
   53CHL1    C3 5029   2.912   3.106   2.546
   53CHL1    H3 5030   2.838   3.189   2.539
   53CHL1    O3 5031   2.951   3.072   2.415
   53CHL1   H3' 5032   3.025   3.132   2.403
   53CHL1    C4 5033   3.039   3.162   2.621
   53CHL1   H4A 5034   3.120   3.087   2.634
   53CHL1   H4B 5035   3.084   3.245   2.563
   53CHL1    C5 5036   3.003   3.190   2.765
   53CHL1    C6 5037   3.019   3.311   2.815
   53CHL1    H6 5038   3.066   3.385   2.749
   53CHL1    C7 5039   3.003   3.335   2.962
   53CHL1   H7A 5040   3.069   3.404   3.019
   53CHL1   H7B 5041   2.901   3.377   2.981
   53CHL1    C8 5042   2.995   3.202   3.049
   53CHL1    H8 5043   3.097   3.159   3.061
   53CHL1   C14 5044   2.943   3.251   3.186
   53CHL1   H14 5045   2.842   3.296   3.173
   53CHL1   C15 5046   3.024   3.345   3.270
   53CHL1  H15A 5047   3.130   3.311   3.278
   53CHL1  H15B 5048   3.039   3.447   3.228
   53CHL1   C16 5049   2.961   3.345   3.408
   53CHL1  H16A 5050   3.048   3.343   3.476
   53CHL1  H16B 5051   2.896   3.435   3.422
   53CHL1   C17 5052   2.876   3.214   3.412
   53CHL1   H17 5053   2.774   3.253   3.395
   53CHL1   C13 5054   2.914   3.133   3.280
   53CHL1   C18 5055   3.042   3.050   3.315
   53CHL1  H18A 5056   3.023   2.959   3.375
   53CHL1  H18B 5057   3.091   3.015   3.222
   53CHL1  H18C 5058   3.113   3.112   3.373
   53CHL1   C12 5059   2.804   3.051   3.209
   53CHL1  H12A 5060   2.774   2.963   3.271
   53CHL1  H12B 5061   2.723   3.124   3.189
   53CHL1   C11 5062   2.848   2.989   3.072
   53CHL1  H11A 5063   2.929   2.914   3.085
   53CHL1  H11B 5064   2.756   2.938   3.037
   53CHL1    C9 5065   2.895   3.108   2.982
   53CHL1    H9 5066   2.802   3.168   2.965
   53CHL1   C10 5067   2.941   3.068   2.837
   53CHL1   C19 5068   3.045   2.953   2.855
   53CHL1  H19A 5069   3.086   2.933   2.754
   53CHL1  H19B 5070   3.125   2.987   2.925
   53CHL1  H19C 5071   3.006   2.852   2.881
   53CHL1    C1 5072   2.819   3.010   2.762
   53CHL1   H1A 5073   2.787   2.917   2.814
   53CHL1   H1B 5074   2.740   3.089   2.764
   53CHL1    C2 5075   2.856   2.984   2.619
   53CHL1   H2A 5076   2.768   2.959   2.556
   53CHL1   H2B 5077   2.939   2.911   2.617
   53CHL1   C20 5078   2.879   3.154   3.553
   53CHL1   H20 5079   2.986   3.160   3.580
   53CHL1   C21 5080   2.806   3.021   3.556
   53CHL1  H21A 5081   2.832   2.961   3.646
   53CHL1  H21B 5082   2.845   2.965   3.469
   53CHL1  H21C 5083   2.695   3.032   3.549
   53CHL1   C22 5084   2.821   3.240   3.668
   53CHL1  H22A 5085   2.863   3.342   3.655
   53CHL1  H22B 5086   2.710   3.239   3.669
   53CHL1   C23 5087   2.881   3.190   3.798
   53CHL1  H23A 5088   2.848   3.088   3.828
   53CHL1  H23B 5089   2.992   3.197   3.792
   53CHL1   C24 5090   2.842   3.268   3.919
   53CHL1  H24A 5091   2.883   3.226   4.013
   53CHL1  H24B 5092   2.873   3.374   3.912
   53CHL1   C25 5093   2.693   3.289   3.934
   53CHL1   H25 5094   2.637   3.217   3.871
   53CHL1   C26 5095   2.655   3.240   4.080
   53CHL1  H26A 5096   2.686   3.306   4.163
   53CHL1  H26B 5097   2.545   3.223   4.088
   53CHL1  H26C 5098   2.691   3.135   4.088
   53CHL1   C27 5099   2.647   3.437   3.924
   53CHL1  H27A 5100   2.705   3.492   4.000
   53CHL1  H27B 5101   2.668   3.478   3.823
   53CHL1  H27C 5102   2.541   3.449   3.956
   54CHL1    C3 5103   2.485   3.471   2.724
   54CHL1    H3 5104   2.466   3.580   2.731
   54CHL1    O3 5105   2.519   3.448   2.585
   54CHL1   H3' 5106   2.488   3.358   2.571
   54CHL1    C4 5107   2.594   3.435   2.818
   54CHL1   H4A 5108   2.617   3.331   2.786
   54CHL1   H4B 5109   2.675   3.508   2.800
   54CHL1    C5 5110   2.559   3.428   2.967
   54CHL1    C6 5111   2.636   3.497   3.055
   54CHL1    H6 5112   2.727   3.546   3.020
   54CHL1    C7 5113   2.612   3.498   3.198
   54CHL1   H7A 5114   2.704   3.476   3.256
   54CHL1   H7B 5115   2.586   3.601   3.229
   54CHL1    C8 5116   2.499   3.393   3.244
   54CHL1    H8 5117   2.548   3.294   3.247
   54CHL1   C14 5118   2.433   3.428   3.381
   54CHL1   H14 5119   2.391   3.531   3.369
   54CHL1   C15 5120   2.527   3.447   3.507
   54CHL1  H15A 5121   2.606   3.368   3.500
   54CHL1  H15B 5122   2.578   3.545   3.502
   54CHL1   C16 5123   2.438   3.437   3.628
   54CHL1  H16A 5124   2.479   3.352   3.686
   54CHL1  H16B 5125   2.422   3.531   3.685
   54CHL1   C17 5126   2.303   3.388   3.573
   54CHL1   H17 5127   2.241   3.477   3.551
   54CHL1   C13 5128   2.319   3.335   3.427
   54CHL1   C18 5129   2.372   3.193   3.428
   54CHL1  H18A 5130   2.457   3.176   3.497
   54CHL1  H18B 5131   2.290   3.129   3.469
   54CHL1  H18C 5132   2.391   3.143   3.331
   54CHL1   C12 5133   2.210   3.358   3.323
   54CHL1  H12A 5134   2.116   3.305   3.351
   54CHL1  H12B 5135   2.176   3.463   3.318
   54CHL1   C11 5136   2.252   3.327   3.180
   54CHL1  H11A 5137   2.269   3.217   3.172
   54CHL1  H11B 5138   2.172   3.373   3.118
   54CHL1    C9 5139   2.385   3.401   3.139
   54CHL1    H9 5140   2.340   3.502   3.135
   54CHL1   C10 5141   2.425   3.361   2.998
   54CHL1   C19 5142   2.441   3.206   2.990
   54CHL1  H19A 5143   2.343   3.154   2.997
   54CHL1  H19B 5144   2.482   3.180   2.890
   54CHL1  H19C 5145   2.524   3.181   3.060
   54CHL1    C1 5146   2.307   3.402   2.895
   54CHL1   H1A 5147   2.217   3.338   2.907
   54CHL1   H1B 5148   2.278   3.506   2.921
   54CHL1    C2 5149   2.352   3.392   2.752
   54CHL1   H2A 5150   2.281   3.433   2.677
   54CHL1   H2B 5151   2.373   3.291   2.712
   54CHL1   C20 5152   2.221   3.306   3.677
   54CHL1   H20 5153   2.246   3.200   3.655
   54CHL1   C21 5154   2.067   3.332   3.651
   54CHL1  H21A 5155   2.028   3.434   3.674
   54CHL1  H21B 5156   2.007   3.258   3.708
   54CHL1  H21C 5157   2.040   3.301   3.548
   54CHL1   C22 5158   2.251   3.333   3.832
   54CHL1  H22A 5159   2.342   3.274   3.859
   54CHL1  H22B 5160   2.271   3.439   3.858
   54CHL1   C23 5161   2.148   3.292   3.937
   54CHL1  H23A 5162   2.056   3.355   3.938
   54CHL1  H23B 5163   2.104   3.192   3.915
   54CHL1   C24 5164   2.197   3.302   4.085
   54CHL1  H24A 5165   2.282   3.230   4.087
   54CHL1  H24B 5166   2.235   3.404   4.108
   54CHL1   C25 5167   2.090   3.261   4.190
   54CHL1   H25 5168   2.009   3.336   4.177
   54CHL1   C26 5169   2.034   3.119   4.172
   54CHL1  H26A 5170   1.950   3.090   4.238
   54CHL1  H26B 5171   2.001   3.104   4.067
   54CHL1  H26C 5172   2.113   3.046   4.201
   54CHL1   C27 5173   2.142   3.284   4.333
   54CHL1  H27A 5174   2.215   3.203   4.354
   54CHL1  H27B 5175   2.189   3.384   4.347
   54CHL1  H27C 5176   2.051   3.277   4.395
   55CHL1    C3 5177   3.801   6.597   2.887
   55CHL1    H3 5178   3.710   6.655   2.914
   55CHL1    O3 5179   3.815   6.611   2.756
   55CHL1   H3' 5180   3.911   6.619   2.749
   55CHL1    C4 5181   3.931   6.658   2.955
   55CHL1   H4A 5182   4.022   6.609   2.913
   55CHL1   H4B 5183   3.957   6.760   2.919
   55CHL1    C5 5184   3.921   6.637   3.104
   55CHL1    C6 5185   3.932   6.742   3.190
   55CHL1    H6 5186   3.943   6.843   3.147
   55CHL1    C7 5187   3.946   6.733   3.339
   55CHL1   H7A 5188   4.040   6.783   3.371
   55CHL1   H7B 5189   3.852   6.776   3.380
   55CHL1    C8 5190   3.953   6.584   3.386
   55CHL1    H8 5191   4.056   6.544   3.375
   55CHL1   C14 5192   3.898   6.582   3.530
   55CHL1   H14 5193   3.794   6.613   3.507
   55CHL1   C15 5194   3.952   6.668   3.643
   55CHL1  H15A 5195   4.063   6.681   3.642
   55CHL1  H15B 5196   3.897   6.763   3.630
   55CHL1   C16 5197   3.900   6.604   3.778
   55CHL1  H16A 5198   3.982   6.558   3.838
   55CHL1  H16B 5199   3.848   6.685   3.832
   55CHL1   C17 5200   3.820   6.476   3.730
   55CHL1   H17 5201   3.716   6.505   3.701
   55CHL1   C13 5202   3.881   6.441   3.591
   55CHL1   C18 5203   4.019   6.377   3.614
   55CHL1  H18A 5204   3.989   6.282   3.664
   55CHL1  H18B 5205   4.069   6.343   3.521
   55CHL1  H18C 5206   4.093   6.427   3.680
   55CHL1   C12 5207   3.787   6.353   3.500
   55CHL1  H12A 5208   3.782   6.255   3.551
   55CHL1  H12B 5209   3.688   6.404   3.496
   55CHL1   C11 5210   3.842   6.345   3.355
   55CHL1  H11A 5211   3.939   6.292   3.366
   55CHL1  H11B 5212   3.772   6.288   3.290
   55CHL1    C9 5213   3.862   6.489   3.296
   55CHL1    H9 5214   3.759   6.530   3.301
   55CHL1   C10 5215   3.896   6.493   3.143
   55CHL1   C19 5216   4.018   6.401   3.111
   55CHL1  H19A 5217   4.066   6.416   3.012
   55CHL1  H19B 5218   4.089   6.425   3.194
   55CHL1  H19C 5219   3.987   6.295   3.112
   55CHL1    C1 5220   3.776   6.427   3.065
   55CHL1   H1A 5221   3.768   6.317   3.081
   55CHL1   H1B 5222   3.673   6.450   3.099
   55CHL1    C2 5223   3.788   6.447   2.913
   55CHL1   H2A 5224   3.696   6.408   2.866
   55CHL1   H2B 5225   3.876   6.399   2.866
   55CHL1   C20 5226   3.804   6.362   3.835
   55CHL1   H20 5227   3.779   6.269   3.780
   55CHL1   C21 5228   3.678   6.394   3.917
   55CHL1  H21A 5229   3.600   6.414   3.840
   55CHL1  H21B 5230   3.687   6.479   3.987
   55CHL1  H21C 5231   3.637   6.303   3.967
   55CHL1   C22 5232   3.919   6.322   3.932
   55CHL1  H22A 5233   4.002   6.289   3.867
   55CHL1  H22B 5234   3.955   6.409   3.991
   55CHL1   C23 5235   3.893   6.201   4.024
   55CHL1  H23A 5236   3.813   6.228   4.096
   55CHL1  H23B 5237   3.862   6.119   3.956
   55CHL1   C24 5238   4.019   6.142   4.090
   55CHL1  H24A 5239   3.987   6.072   4.170
   55CHL1  H24B 5240   4.088   6.098   4.015
   55CHL1   C25 5241   4.098   6.238   4.182
   55CHL1   H25 5242   4.118   6.333   4.128
   55CHL1   C26 5243   4.028   6.261   4.316
   55CHL1  H26A 5244   3.922   6.293   4.302
   55CHL1  H26B 5245   4.012   6.163   4.366
   55CHL1  H26C 5246   4.085   6.328   4.384
   55CHL1   C27 5247   4.236   6.176   4.210
   55CHL1  H27A 5248   4.228   6.087   4.276
   55CHL1  H27B 5249   4.269   6.144   4.109
   55CHL1  H27C 5250   4.302   6.262   4.237
   56CHL1    C3 5251   5.619   2.166   2.889
   56CHL1    H3 5252   5.593   2.058   2.895
   56CHL1    O3 5253   5.608   2.204   2.755
   56CHL1   H3' 5254   5.517   2.182   2.732
   56CHL1    C4 5255   5.507   2.251   2.967
   56CHL1   H4A 5256   5.533   2.358   2.958
   56CHL1   H4B 5257   5.410   2.243   2.914
   56CHL1    C5 5258   5.516   2.213   3.111
   56CHL1    C6 5259   5.412   2.163   3.178
   56CHL1    H6 5260   5.319   2.144   3.121
   56CHL1    C7 5261   5.407   2.121   3.328
   56CHL1   H7A 5262   5.312   2.158   3.373
   56CHL1   H7B 5263   5.411   2.010   3.326
   56CHL1    C8 5264   5.534   2.167   3.407
   56CHL1    H8 5265   5.525   2.273   3.440
   56CHL1   C14 5266   5.556   2.080   3.531
   56CHL1   H14 5267   5.579   1.983   3.482
   56CHL1   C15 5268   5.437   2.035   3.626
   56CHL1  H15A 5269   5.363   2.118   3.639
   56CHL1  H15B 5270   5.377   1.961   3.568
   56CHL1   C16 5271   5.498   1.991   3.762
   56CHL1  H16A 5272   5.464   2.062   3.841
   56CHL1  H16B 5273   5.468   1.887   3.787
   56CHL1   C17 5274   5.653   1.989   3.739
   56CHL1   H17 5275   5.677   1.894   3.687
   56CHL1   C13 5276   5.672   2.099   3.627
   56CHL1   C18 5277   5.669   2.244   3.689
   56CHL1  H18A 5278   5.760   2.266   3.748
   56CHL1  H18B 5279   5.668   2.321   3.609
   56CHL1  H18C 5280   5.577   2.257   3.750
   56CHL1   C12 5281   5.799   2.099   3.546
   56CHL1  H12A 5282   5.881   2.131   3.614
   56CHL1  H12B 5283   5.818   1.997   3.506
   56CHL1   C11 5284   5.788   2.184   3.412
   56CHL1  H11A 5285   5.786   2.289   3.447
   56CHL1  H11B 5286   5.878   2.174   3.348
   56CHL1    C9 5287   5.658   2.154   3.326
   56CHL1    H9 5288   5.668   2.048   3.296
   56CHL1   C10 5289   5.657   2.230   3.182
   56CHL1   C19 5290   5.683   2.382   3.195
   56CHL1  H19A 5291   5.678   2.425   3.093
   56CHL1  H19B 5292   5.611   2.420   3.270
   56CHL1  H19C 5293   5.786   2.392   3.235
   56CHL1    C1 5294   5.769   2.162   3.090
   56CHL1   H1A 5295   5.874   2.174   3.127
   56CHL1   H1B 5296   5.756   2.052   3.102
   56CHL1    C2 5297   5.764   2.196   2.938
   56CHL1   H2A 5298   5.833   2.128   2.883
   56CHL1   H2B 5299   5.788   2.303   2.918
   56CHL1   C20 5300   5.722   2.014   3.872
   56CHL1   H20 5301   5.694   2.114   3.912
   56CHL1   C21 5302   5.873   2.002   3.845
   56CHL1  H21A 5303   5.903   2.103   3.810
   56CHL1  H21B 5304   5.910   1.924   3.775
   56CHL1  H21C 5305   5.923   1.979   3.942
   56CHL1   C22 5306   5.676   1.917   3.983
   56CHL1  H22A 5307   5.718   1.944   4.082
   56CHL1  H22B 5308   5.565   1.910   3.991
   56CHL1   C23 5309   5.727   1.770   3.950
   56CHL1  H23A 5310   5.708   1.749   3.843
   56CHL1  H23B 5311   5.836   1.766   3.973
   56CHL1   C24 5312   5.653   1.652   4.024
   56CHL1  H24A 5313   5.661   1.671   4.133
   56CHL1  H24B 5314   5.544   1.655   4.001
   56CHL1   C25 5315   5.695   1.507   3.989
   56CHL1   H25 5316   5.794   1.511   3.937
   56CHL1   C26 5317   5.707   1.432   4.123
   56CHL1  H26A 5318   5.772   1.484   4.197
   56CHL1  H26B 5319   5.609   1.428   4.174
   56CHL1  H26C 5320   5.731   1.329   4.091
   56CHL1   C27 5321   5.595   1.431   3.895
   56CHL1  H27A 5322   5.591   1.477   3.794
   56CHL1  H27B 5323   5.614   1.322   3.885
   56CHL1  H27C 5324   5.491   1.425   3.935
   57CHL1    C3 5325   4.265   0.310   3.156
   57CHL1    H3 5326   4.358   0.352   3.200
   57CHL1    O3 5327   4.275   0.313   3.012
   57CHL1   H3' 5328   4.201   0.264   2.975
   57CHL1    C4 5329   4.243   0.170   3.203
   57CHL1   H4A 5330   4.152   0.118   3.165
   57CHL1   H4B 5331   4.333   0.110   3.175
   57CHL1    C5 5332   4.229   0.179   3.355
   57CHL1    C6 5333   4.317   0.122   3.438
   57CHL1    H6 5334   4.403   0.070   3.393
   57CHL1    C7 5335   4.302   0.123   3.587
   57CHL1   H7A 5336   4.339   0.027   3.628
   57CHL1   H7B 5337   4.356   0.209   3.634
   57CHL1    C8 5338   4.153   0.150   3.620
   57CHL1    H8 5339   4.091   0.065   3.586
   57CHL1   C14 5340   4.153   0.162   3.775
   57CHL1   H14 5341   4.231   0.239   3.792
   57CHL1   C15 5342   4.199   0.044   3.866
   57CHL1  H15A 5343   4.138   6.869   3.831
   57CHL1  H15B 5344   4.307   0.021   3.869
   57CHL1   C16 5345   4.144   0.080   4.010
   57CHL1  H16A 5346   4.073   0.005   4.051
   57CHL1  H16B 5347   4.236   0.106   4.068
   57CHL1   C17 5348   4.053   0.211   3.992
   57CHL1   H17 5349   4.121   0.292   4.028
   57CHL1   C13 5350   4.023   0.218   3.836
   57CHL1   C18 5351   3.908   0.115   3.804
   57CHL1  H18A 5352   3.895   0.111   3.694
   57CHL1  H18B 5353   3.927   0.012   3.841
   57CHL1  H18C 5354   3.809   0.154   3.835
   57CHL1   C12 5355   4.001   0.359   3.779
   57CHL1  H12A 5356   3.902   0.404   3.803
   57CHL1  H12B 5357   4.078   0.422   3.827
   57CHL1   C11 5358   3.997   0.358   3.623
   57CHL1  H11A 5359   3.900   0.310   3.599
   57CHL1  H11B 5360   4.007   0.464   3.592
   57CHL1    C9 5361   4.111   0.275   3.563
   57CHL1    H9 5362   4.196   0.343   3.587
   57CHL1   C10 5363   4.115   0.258   3.408
   57CHL1   C19 5364   3.980   0.195   3.372
   57CHL1  H19A 5365   3.974   0.178   3.263
   57CHL1  H19B 5366   3.962   0.095   3.419
   57CHL1  H19C 5367   3.891   0.259   3.388
   57CHL1    C1 5368   4.124   0.407   3.351
   57CHL1   H1A 5369   4.035   0.467   3.375
   57CHL1   H1B 5370   4.212   0.451   3.403
   57CHL1    C2 5371   4.144   0.406   3.200
   57CHL1   H2A 5372   4.161   0.513   3.175
   57CHL1   H2B 5373   4.055   0.360   3.153
   57CHL1   C20 5374   3.929   0.219   4.087
   57CHL1   H20 5375   3.862   0.136   4.055
   57CHL1   C21 5376   3.870   0.353   4.067
   57CHL1  H21A 5377   3.816   0.387   4.158
   57CHL1  H21B 5378   3.795   0.353   3.985
   57CHL1  H21C 5379   3.947   0.427   4.038
   57CHL1   C22 5380   3.951   0.188   4.235
   57CHL1  H22A 5381   3.852   0.167   4.281
   57CHL1  H22B 5382   4.010   0.094   4.237
   57CHL1   C23 5383   4.044   0.292   4.311
   57CHL1  H23A 5384   4.116   0.340   4.242
   57CHL1  H23B 5385   3.987   0.378   4.352
   57CHL1   C24 5386   4.121   0.231   4.430
   57CHL1  H24A 5387   4.162   0.134   4.393
   57CHL1  H24B 5388   4.197   0.299   4.474
   57CHL1   C25 5389   4.029   0.195   4.556
   57CHL1   H25 5390   3.927   0.161   4.527
   57CHL1   C26 5391   4.101   0.092   4.644
   57CHL1  H26A 5392   4.205   0.120   4.672
   57CHL1  H26B 5393   4.031   0.064   4.725
   57CHL1  H26C 5394   4.127   6.912   4.587
   57CHL1   C27 5395   4.008   0.320   4.640
   57CHL1  H27A 5396   4.104   0.367   4.670
   57CHL1  H27B 5397   3.953   0.391   4.574
   57CHL1  H27C 5398   3.942   0.305   4.728
   58CHL1    C3 5399   4.168   1.086   3.059
   58CHL1    H3 5400   4.274   1.062   3.085
   58CHL1    O3 5401   4.149   1.111   2.918
   58CHL1   H3' 5402   4.054   1.097   2.912
   58CHL1    C4 5403   4.082   0.958   3.101
   58CHL1   H4A 5404   3.977   0.978   3.070
   58CHL1   H4B 5405   4.114   0.871   3.040
   58CHL1    C5 5406   4.081   0.940   3.250
   58CHL1    C6 5407   4.123   0.824   3.296
   58CHL1    H6 5408   4.168   0.744   3.236
   58CHL1    C7 5409   4.116   0.790   3.441
   58CHL1   H7A 5410   4.092   0.686   3.472
   58CHL1   H7B 5411   4.218   0.805   3.482
   58CHL1    C8 5412   4.015   0.887   3.521
   58CHL1    H8 5413   3.911   0.851   3.501
   58CHL1   C14 5414   4.038   0.874   3.673
   58CHL1   H14 5415   4.147   0.896   3.677
   58CHL1   C15 5416   4.042   0.733   3.741
   58CHL1  H15A 5417   3.956   0.670   3.709
   58CHL1  H15B 5418   4.137   0.678   3.724
   58CHL1   C16 5419   4.041   0.769   3.895
   58CHL1  H16A 5420   3.942   0.734   3.931
   58CHL1  H16B 5421   4.131   0.739   3.952
   58CHL1   C17 5422   4.043   0.931   3.902
   58CHL1   H17 5423   4.148   0.968   3.895
   58CHL1   C13 5424   3.972   0.973   3.772
   58CHL1   C18 5425   3.822   0.950   3.778
   58CHL1  H18A 5426   3.751   1.022   3.823
   58CHL1  H18B 5427   3.782   0.960   3.675
   58CHL1  H18C 5428   3.796   0.842   3.787
   58CHL1   C12 5429   4.003   1.117   3.723
   58CHL1  H12A 5430   3.950   1.196   3.781
   58CHL1  H12B 5431   4.110   1.140   3.740
   58CHL1   C11 5432   3.975   1.135   3.571
   58CHL1  H11A 5433   3.865   1.141   3.558
   58CHL1  H11B 5434   4.005   1.239   3.545
   58CHL1    C9 5435   4.040   1.029   3.479
   58CHL1    H9 5436   4.149   1.034   3.502
   58CHL1   C10 5437   4.025   1.061   3.333
   58CHL1   C19 5438   3.878   1.064   3.298
   58CHL1  H19A 5439   3.876   1.093   3.190
   58CHL1  H19B 5440   3.822   0.973   3.328
   58CHL1  H19C 5441   3.846   1.152   3.358
   58CHL1    C1 5442   4.104   1.189   3.287
   58CHL1   H1A 5443   4.060   1.275   3.342
   58CHL1   H1B 5444   4.201   1.174   3.339
   58CHL1    C2 5445   4.111   1.213   3.140
   58CHL1   H2A 5446   4.190   1.290   3.125
   58CHL1   H2B 5447   4.007   1.233   3.108
   58CHL1   C20 5448   3.985   0.972   4.041
   58CHL1   H20 5449   3.883   0.928   4.040
   58CHL1   C21 5450   3.960   1.124   4.037
   58CHL1  H21A 5451   3.949   1.160   4.142
   58CHL1  H21B 5452   3.873   1.159   3.978
   58CHL1  H21C 5453   4.039   1.188   3.992
   58CHL1   C22 5454   4.075   0.939   4.158
   58CHL1  H22A 5455   4.142   0.855   4.131
   58CHL1  H22B 5456   4.145   1.025   4.168
   58CHL1   C23 5457   3.988   0.939   4.294
   58CHL1  H23A 5458   4.055   0.961   4.380
   58CHL1  H23B 5459   3.915   1.023   4.285
   58CHL1   C24 5460   3.926   0.802   4.317
   58CHL1  H24A 5461   3.904   0.751   4.221
   58CHL1  H24B 5462   3.990   0.732   4.375
   58CHL1   C25 5463   3.797   0.795   4.394
   58CHL1   H25 5464   3.726   0.861   4.340
   58CHL1   C26 5465   3.735   0.659   4.389
   58CHL1  H26A 5466   3.625   0.658   4.406
   58CHL1  H26B 5467   3.747   0.631   4.282
   58CHL1  H26C 5468   3.784   0.588   4.459
   58CHL1   C27 5469   3.809   0.840   4.537
   58CHL1  H27A 5470   3.706   0.841   4.579
   58CHL1  H27B 5471   3.876   0.780   4.602
   58CHL1  H27C 5472   3.842   0.946   4.539
   59CHL1    C3 5473   2.069   5.194   2.576
   59CHL1    H3 5474   1.981   5.147   2.623
   59CHL1    O3 5475   2.048   5.215   2.439
   59CHL1   H3' 5476   2.127   5.258   2.404
   59CHL1    C4 5477   2.090   5.333   2.636
   59CHL1   H4A 5478   2.182   5.373   2.588
   59CHL1   H4B 5479   2.010   5.409   2.621
   59CHL1    C5 5480   2.117   5.315   2.783
   59CHL1    C6 5481   2.042   5.384   2.872
   59CHL1    H6 5482   1.959   5.446   2.837
   59CHL1    C7 5483   2.068   5.402   3.021
   59CHL1   H7A 5484   2.059   5.510   3.048
   59CHL1   H7B 5485   1.997   5.347   3.087
   59CHL1    C8 5486   2.211   5.351   3.060
   59CHL1    H8 5487   2.282   5.435   3.046
   59CHL1   C14 5488   2.212   5.326   3.214
   59CHL1   H14 5489   2.129   5.253   3.222
   59CHL1   C15 5490   2.176   5.441   3.311
   59CHL1  H15A 5491   2.233   5.529   3.275
   59CHL1  H15B 5492   2.067   5.460   3.304
   59CHL1   C16 5493   2.210   5.383   3.452
   59CHL1  H16A 5494   2.276   5.455   3.506
   59CHL1  H16B 5495   2.118   5.359   3.508
   59CHL1   C17 5496   2.289   5.247   3.429
   59CHL1   H17 5497   2.218   5.163   3.437
   59CHL1   C13 5498   2.325   5.254   3.280
   59CHL1   C18 5499   2.452   5.356   3.258
   59CHL1  H18A 5500   2.434   5.446   3.322
   59CHL1  H18B 5501   2.545   5.308   3.294
   59CHL1  H18C 5502   2.472   5.381   3.152
   59CHL1   C12 5503   2.353   5.121   3.197
   59CHL1  H12A 5504   2.444   5.064   3.224
   59CHL1  H12B 5505   2.275   5.043   3.206
   59CHL1   C11 5506   2.367   5.145   3.044
   59CHL1  H11A 5507   2.456   5.209   3.026
   59CHL1  H11B 5508   2.382   5.048   2.993
   59CHL1    C9 5509   2.245   5.217   2.985
   59CHL1    H9 5510   2.156   5.157   3.011
   59CHL1   C10 5511   2.240   5.228   2.824
   59CHL1   C19 5512   2.366   5.301   2.781
   59CHL1  H19A 5513   2.363   5.331   2.674
   59CHL1  H19B 5514   2.367   5.388   2.850
   59CHL1  H19C 5515   2.455   5.237   2.800
   59CHL1    C1 5516   2.218   5.092   2.759
   59CHL1   H1A 5517   2.306   5.031   2.788
   59CHL1   H1B 5518   2.132   5.054   2.819
   59CHL1    C2 5519   2.195   5.104   2.606
   59CHL1   H2A 5520   2.183   5.005   2.557
   59CHL1   H2B 5521   2.281   5.144   2.548
   59CHL1   C20 5522   2.396   5.222   3.533
   59CHL1   H20 5523   2.469   5.304   3.519
   59CHL1   C21 5524   2.469   5.098   3.494
   59CHL1  H21A 5525   2.523   5.127   3.401
   59CHL1  H21B 5526   2.398   5.016   3.471
   59CHL1  H21C 5527   2.536   5.062   3.575
   59CHL1   C22 5528   2.354   5.210   3.682
   59CHL1  H22A 5529   2.452   5.180   3.724
   59CHL1  H22B 5530   2.320   5.311   3.715
   59CHL1   C23 5531   2.245   5.105   3.714
   59CHL1  H23A 5532   2.160   5.112   3.642
   59CHL1  H23B 5533   2.302   5.011   3.695
   59CHL1   C24 5534   2.185   5.115   3.855
   59CHL1  H24A 5535   2.139   5.216   3.860
   59CHL1  H24B 5536   2.111   5.035   3.878
   59CHL1   C25 5537   2.274   5.101   3.977
   59CHL1   H25 5538   2.334   5.194   3.985
   59CHL1   C26 5539   2.196   5.093   4.113
   59CHL1  H26A 5540   2.265   5.108   4.198
   59CHL1  H26B 5541   2.116   5.170   4.121
   59CHL1  H26C 5542   2.156   4.990   4.123
   59CHL1   C27 5543   2.378   4.986   3.978
   59CHL1  H27A 5544   2.324   4.891   4.000
   59CHL1  H27B 5545   2.422   4.961   3.879
   59CHL1  H27C 5546   2.456   4.995   4.056
   60CHL1    C3 5547   5.330   5.854   3.017
   60CHL1    H3 5548   5.309   5.752   3.055
   60CHL1    O3 5549   5.311   5.847   2.877
   60CHL1   H3' 5550   5.304   5.938   2.847
   60CHL1    C4 5551   5.237   5.955   3.087
   60CHL1   H4A 5552   5.264   6.058   3.057
   60CHL1   H4B 5553   5.138   5.941   3.039
   60CHL1    C5 5554   5.250   5.930   3.240
   60CHL1    C6 5555   5.153   5.888   3.317
   60CHL1    H6 5556   5.055   5.878   3.269
   60CHL1    C7 5557   5.161   5.899   3.464
   60CHL1   H7A 5558   5.072   5.953   3.504
   60CHL1   H7B 5559   5.150   5.794   3.502
   60CHL1    C8 5560   5.287   5.965   3.518
   60CHL1    H8 5561   5.272   6.072   3.495
   60CHL1   C14 5562   5.300   5.925   3.665
   60CHL1   H14 5563   5.298   5.815   3.678
   60CHL1   C15 5564   5.193   5.973   3.764
   60CHL1  H15A 5565   5.185   6.082   3.745
   60CHL1  H15B 5566   5.096   5.922   3.743
   60CHL1   C16 5567   5.253   5.960   3.899
   60CHL1  H16A 5568   5.240   6.050   3.963
   60CHL1  H16B 5569   5.194   5.875   3.941
   60CHL1   C17 5570   5.406   5.934   3.881
   60CHL1   H17 5571   5.421   5.824   3.886
   60CHL1   C13 5572   5.429   5.971   3.732
   60CHL1   C18 5573   5.442   6.123   3.726
   60CHL1  H18A 5574   5.413   6.168   3.628
   60CHL1  H18B 5575   5.378   6.170   3.803
   60CHL1  H18C 5576   5.549   6.147   3.742
   60CHL1   C12 5577   5.542   5.892   3.654
   60CHL1  H12A 5578   5.636   5.929   3.700
   60CHL1  H12B 5579   5.530   5.784   3.676
   60CHL1   C11 5580   5.544   5.933   3.508
   60CHL1  H11A 5581   5.575   6.040   3.501
   60CHL1  H11B 5582   5.611   5.869   3.446
   60CHL1    C9 5583   5.405   5.908   3.438
   60CHL1    H9 5584   5.404   5.797   3.444
   60CHL1   C10 5585   5.394   5.957   3.290
   60CHL1   C19 5586   5.437   6.114   3.277
   60CHL1  H19A 5587   5.416   6.154   3.175
   60CHL1  H19B 5588   5.386   6.184   3.346
   60CHL1  H19C 5589   5.542   6.132   3.306
   60CHL1    C1 5590   5.491   5.870   3.207
   60CHL1   H1A 5591   5.593   5.902   3.239
   60CHL1   H1B 5592   5.476   5.765   3.240
   60CHL1    C2 5593   5.477   5.868   3.055
   60CHL1   H2A 5594   5.529   5.777   3.019
   60CHL1   H2B 5595   5.521   5.957   3.005
   60CHL1   C20 5596   5.500   5.995   3.981
   60CHL1   H20 5597   5.494   6.106   3.974
   60CHL1   C21 5598   5.639   5.955   3.952
   60CHL1  H21A 5599   5.704   5.971   4.040
   60CHL1  H21B 5600   5.694   6.023   3.883
   60CHL1  H21C 5601   5.648   5.852   3.911
   60CHL1   C22 5602   5.459   5.954   4.125
   60CHL1  H22A 5603   5.357   5.993   4.144
   60CHL1  H22B 5604   5.466   5.843   4.134
   60CHL1   C23 5605   5.537   6.021   4.236
   60CHL1  H23A 5606   5.644   6.005   4.211
   60CHL1  H23B 5607   5.530   6.132   4.240
   60CHL1   C24 5608   5.496   5.961   4.371
   60CHL1  H24A 5609   5.388   5.937   4.371
   60CHL1  H24B 5610   5.543   5.861   4.378
   60CHL1   C25 5611   5.525   6.050   4.494
   60CHL1   H25 5612   5.517   6.159   4.470
   60CHL1   C26 5613   5.426   6.033   4.604
   60CHL1  H26A 5614   5.460   6.092   4.692
   60CHL1  H26B 5615   5.325   6.061   4.568
   60CHL1  H26C 5616   5.423   5.926   4.633
   60CHL1   C27 5617   5.672   6.035   4.543
   60CHL1  H27A 5618   5.743   6.054   4.460
   60CHL1  H27B 5619   5.693   6.099   4.631
   60CHL1  H27C 5620   5.687   5.928   4.572
   61CHL1    C3 5621   5.264   2.699   3.118
   61CHL1    H3 5622   5.166   2.653   3.146
   61CHL1    O3 5623   5.275   2.730   2.981
   61CHL1   H3' 5624   5.367   2.716   2.956
   61CHL1    C4 5625   5.279   2.839   3.182
   61CHL1   H4A 5626   5.377   2.888   3.162
   61CHL1   H4B 5627   5.202   2.906   3.138
   61CHL1    C5 5628   5.277   2.830   3.333
   61CHL1    C6 5629   5.196   2.911   3.406
   61CHL1    H6 5630   5.134   2.993   3.366
   61CHL1    C7 5631   5.197   2.916   3.553
   61CHL1   H7A 5632   5.180   3.022   3.579
   61CHL1   H7B 5633   5.113   2.852   3.589
   61CHL1    C8 5634   5.313   2.845   3.620
   61CHL1    H8 5635   5.404   2.909   3.617
   61CHL1   C14 5636   5.283   2.811   3.765
   61CHL1   H14 5637   5.197   2.741   3.759
   61CHL1   C15 5638   5.224   2.917   3.862
   61CHL1  H15A 5639   5.281   3.010   3.841
   61CHL1  H15B 5640   5.119   2.952   3.847
   61CHL1   C16 5641   5.262   2.861   3.996
   61CHL1  H16A 5642   5.326   2.933   4.052
   61CHL1  H16B 5643   5.176   2.835   4.061
   61CHL1   C17 5644   5.352   2.732   3.987
   61CHL1   H17 5645   5.282   2.645   3.987
   61CHL1   C13 5646   5.402   2.740   3.839
   61CHL1   C18 5647   5.525   2.833   3.848
   61CHL1  H18A 5648   5.606   2.794   3.914
   61CHL1  H18B 5649   5.568   2.858   3.749
   61CHL1  H18C 5650   5.496   2.931   3.891
   61CHL1   C12 5651   5.425   2.605   3.764
   61CHL1  H12A 5652   5.517   2.564   3.811
   61CHL1  H12B 5653   5.329   2.550   3.773
   61CHL1   C11 5654   5.464   2.636   3.623
   61CHL1  H11A 5655   5.556   2.698   3.620
   61CHL1  H11B 5656   5.481   2.546   3.561
   61CHL1    C9 5657   5.351   2.710   3.546
   61CHL1    H9 5658   5.263   2.642   3.553
   61CHL1   C10 5659   5.373   2.727   3.391
   61CHL1   C19 5660   5.516   2.789   3.369
   61CHL1  H19A 5661   5.533   2.880   3.429
   61CHL1  H19B 5662   5.586   2.714   3.412
   61CHL1  H19C 5663   5.546   2.807   3.263
   61CHL1    C1 5664   5.355   2.588   3.324
   61CHL1   H1A 5665   5.445   2.534   3.361
   61CHL1   H1B 5666   5.266   2.526   3.349
   61CHL1    C2 5667   5.363   2.600   3.169
   61CHL1   H2A 5668   5.353   2.501   3.118
   61CHL1   H2B 5669   5.468   2.624   3.143
   61CHL1   C20 5670   5.440   2.708   4.111
   61CHL1   H20 5671   5.532   2.769   4.102
   61CHL1   C21 5672   5.494   2.565   4.107
   61CHL1  H21A 5673   5.562   2.562   4.019
   61CHL1  H21B 5674   5.415   2.490   4.086
   61CHL1  H21C 5675   5.543   2.539   4.203
   61CHL1   C22 5676   5.372   2.724   4.250
   61CHL1  H22A 5677   5.454   2.722   4.326
   61CHL1  H22B 5678   5.335   2.829   4.250
   61CHL1   C23 5679   5.250   2.633   4.291
   61CHL1  H23A 5680   5.188   2.624   4.199
   61CHL1  H23B 5681   5.280   2.528   4.312
   61CHL1   C24 5682   5.169   2.690   4.402
   61CHL1  H24A 5683   5.169   2.800   4.391
   61CHL1  H24B 5684   5.063   2.658   4.395
   61CHL1   C25 5685   5.212   2.640   4.547
   61CHL1   H25 5686   5.321   2.618   4.549
   61CHL1   C26 5687   5.187   2.761   4.648
   61CHL1  H26A 5688   5.264   2.840   4.634
   61CHL1  H26B 5689   5.083   2.796   4.631
   61CHL1  H26C 5690   5.200   2.724   4.752
   61CHL1   C27 5691   5.141   2.515   4.587
   61CHL1  H27A 5692   5.155   2.431   4.516
   61CHL1  H27B 5693   5.169   2.496   4.693
   61CHL1  H27C 5694   5.031   2.528   4.589
   62CHL1    C3 5695   1.235   0.865   2.663
   62CHL1    H3 5696   1.195   0.968   2.651
   62CHL1    O3 5697   1.261   0.825   2.532
   62CHL1   H3' 5698   1.303   0.739   2.536
   62CHL1    C4 5699   1.369   0.877   2.742
   62CHL1   H4A 5700   1.439   0.793   2.725
   62CHL1   H4B 5701   1.411   0.968   2.694
   62CHL1    C5 5702   1.345   0.879   2.892
   62CHL1    C6 5703   1.402   0.979   2.954
   62CHL1    H6 5704   1.466   1.052   2.902
   62CHL1    C7 5705   1.398   0.994   3.106
   62CHL1   H7A 5706   1.502   0.997   3.143
   62CHL1   H7B 5707   1.339   1.082   3.138
   62CHL1    C8 5708   1.342   0.868   3.174
   62CHL1    H8 5709   1.415   0.784   3.164
   62CHL1   C14 5710   1.315   0.890   3.319
   62CHL1   H14 5711   1.244   0.975   3.311
   62CHL1   C15 5712   1.425   0.944   3.414
   62CHL1  H15A 5713   1.510   0.873   3.401
   62CHL1  H15B 5714   1.466   1.046   3.395
   62CHL1   C16 5715   1.369   0.934   3.552
   62CHL1  H16A 5716   1.441   0.880   3.618
   62CHL1  H16B 5717   1.356   1.040   3.585
   62CHL1   C17 5718   1.234   0.854   3.536
   62CHL1   H17 5719   1.158   0.936   3.538
   62CHL1   C13 5720   1.236   0.786   3.401
   62CHL1   C18 5721   1.331   0.659   3.404
   62CHL1  H18A 5722   1.283   0.572   3.454
   62CHL1  H18B 5723   1.355   0.631   3.299
   62CHL1  H18C 5724   1.432   0.676   3.446
   62CHL1   C12 5725   1.100   0.764   3.326
   62CHL1  H12A 5726   1.054   0.677   3.378
   62CHL1  H12B 5727   1.037   0.854   3.345
   62CHL1   C11 5728   1.128   0.731   3.183
   62CHL1  H11A 5729   1.173   0.629   3.182
   62CHL1  H11B 5730   1.032   0.727   3.128
   62CHL1    C9 5731   1.219   0.826   3.102
   62CHL1    H9 5732   1.164   0.922   3.095
   62CHL1   C10 5733   1.243   0.777   2.955
   62CHL1   C19 5734   1.313   0.641   2.950
   62CHL1  H19A 5735   1.413   0.655   2.997
   62CHL1  H19B 5736   1.264   0.568   3.017
   62CHL1  H19C 5737   1.323   0.600   2.847
   62CHL1    C1 5738   1.119   0.777   2.871
   62CHL1   H1A 5739   1.043   0.703   2.906
   62CHL1   H1B 5740   1.079   0.880   2.875
   62CHL1    C2 5741   1.136   0.767   2.721
   62CHL1   H2A 5742   1.037   0.784   2.672
   62CHL1   H2B 5743   1.182   0.667   2.705
   62CHL1   C20 5744   1.196   0.777   3.660
   62CHL1   H20 5745   1.268   0.692   3.661
   62CHL1   C21 5746   1.050   0.714   3.650
   62CHL1  H21A 5747   1.026   0.658   3.743
   62CHL1  H21B 5748   1.039   0.636   3.571
   62CHL1  H21C 5749   0.976   0.794   3.633
   62CHL1   C22 5750   1.209   0.845   3.802
   62CHL1  H22A 5751   1.181   0.778   3.886
   62CHL1  H22B 5752   1.314   0.881   3.813
   62CHL1   C23 5753   1.129   0.980   3.812
   62CHL1  H23A 5754   1.175   1.056   3.746
   62CHL1  H23B 5755   1.020   0.958   3.810
   62CHL1   C24 5756   1.138   1.039   3.954
   62CHL1  H24A 5757   1.142   0.952   4.023
   62CHL1  H24B 5758   1.238   1.083   3.974
   62CHL1   C25 5759   1.022   1.128   3.995
   62CHL1   H25 5760   0.935   1.061   3.980
   62CHL1   C26 5761   1.018   1.154   4.141
   62CHL1  H26A 5762   0.933   1.210   4.186
   62CHL1  H26B 5763   1.019   1.063   4.205
   62CHL1  H26C 5764   1.100   1.215   4.185
   62CHL1   C27 5765   1.004   1.252   3.908
   62CHL1  H27A 5766   0.931   1.327   3.946
   62CHL1  H27B 5767   1.103   1.302   3.900
   62CHL1  H27C 5768   0.972   1.222   3.806
   63CHL1    C3 5769   4.365   5.573   2.727
   63CHL1    H3 5770   4.445   5.514   2.777
   63CHL1    O3 5771   4.401   5.621   2.601
   63CHL1   H3' 5772   4.481   5.663   2.633
   63CHL1    C4 5773   4.239   5.496   2.730
   63CHL1   H4A 5774   4.159   5.563   2.692
   63CHL1   H4B 5775   4.252   5.401   2.674
   63CHL1    C5 5776   4.210   5.453   2.875
   63CHL1    C6 5777   4.196   5.319   2.905
   63CHL1    H6 5778   4.216   5.234   2.837
   63CHL1    C7 5779   4.162   5.263   3.041
   63CHL1   H7A 5780   4.105   5.168   3.035
   63CHL1   H7B 5781   4.258   5.232   3.086
   63CHL1    C8 5782   4.113   5.369   3.140
   63CHL1    H8 5783   4.002   5.379   3.129
   63CHL1   C14 5784   4.143   5.324   3.281
   63CHL1   H14 5785   4.254   5.325   3.285
   63CHL1   C15 5786   4.096   5.184   3.322
   63CHL1  H15A 5787   3.993   5.169   3.284
   63CHL1  H15B 5788   4.156   5.097   3.285
   63CHL1   C16 5789   4.090   5.185   3.477
   63CHL1  H16A 5790   3.989   5.158   3.514
   63CHL1  H16B 5791   4.166   5.113   3.515
   63CHL1   C17 5792   4.126   5.335   3.513
   63CHL1   H17 5793   4.236   5.323   3.505
   63CHL1   C13 5794   4.085   5.416   3.388
   63CHL1   C18 5795   3.925   5.423   3.381
   63CHL1  H18A 5796   3.893   5.483   3.468
   63CHL1  H18B 5797   3.899   5.467   3.282
   63CHL1  H18C 5798   3.877   5.323   3.392
   63CHL1   C12 5799   4.154   5.553   3.370
   63CHL1  H12A 5800   4.095   5.624   3.432
   63CHL1  H12B 5801   4.261   5.546   3.397
   63CHL1   C11 5802   4.145   5.601   3.230
   63CHL1  H11A 5803   4.038   5.627   3.213
   63CHL1  H11B 5804   4.213   5.688   3.235
   63CHL1    C9 5805   4.184   5.502   3.122
   63CHL1    H9 5806   4.290   5.482   3.148
   63CHL1   C10 5807   4.193   5.561   2.978
   63CHL1   C19 5808   4.052   5.626   2.946
   63CHL1  H19A 5809   4.052   5.683   2.851
   63CHL1  H19B 5810   3.968   5.558   2.973
   63CHL1  H19C 5811   4.052   5.704   3.025
   63CHL1    C1 5812   4.308   5.662   2.957
   63CHL1   H1A 5813   4.271   5.755   3.003
   63CHL1   H1B 5814   4.407   5.638   3.001
   63CHL1    C2 5815   4.345   5.694   2.814
   63CHL1   H2A 5816   4.440   5.752   2.813
   63CHL1   H2B 5817   4.267   5.753   2.762
   63CHL1   C20 5818   4.088   5.381   3.658
   63CHL1   H20 5819   3.984   5.419   3.669
   63CHL1   C21 5820   4.185   5.491   3.699
   63CHL1  H21A 5821   4.283   5.444   3.723
   63CHL1  H21B 5822   4.159   5.531   3.799
   63CHL1  H21C 5823   4.193   5.568   3.619
   63CHL1   C22 5824   4.088   5.257   3.754
   63CHL1  H22A 5825   3.996   5.197   3.739
   63CHL1  H22B 5826   4.182   5.198   3.741
   63CHL1   C23 5827   4.087   5.280   3.901
   63CHL1  H23A 5828   4.114   5.183   3.948
   63CHL1  H23B 5829   4.164   5.359   3.916
   63CHL1   C24 5830   3.961   5.350   3.951
   63CHL1  H24A 5831   3.976   5.454   3.914
   63CHL1  H24B 5832   3.870   5.315   3.898
   63CHL1   C25 5833   3.944   5.349   4.110
   63CHL1   H25 5834   3.953   5.246   4.150
   63CHL1   C26 5835   4.057   5.437   4.179
   63CHL1  H26A 5836   4.162   5.412   4.154
   63CHL1  H26B 5837   4.048   5.537   4.132
   63CHL1  H26C 5838   4.041   5.444   4.289
   63CHL1   C27 5839   3.802   5.388   4.149
   63CHL1  H27A 5840   3.790   5.404   4.259
   63CHL1  H27B 5841   3.784   5.481   4.091
   63CHL1  H27C 5842   3.728   5.315   4.111
   64CHL1    C3 5843   2.571   2.703   2.674
   64CHL1    H3 5844   2.671   2.745   2.699
   64CHL1    O3 5845   2.569   2.683   2.535
   64CHL1   H3' 5846   2.518   2.602   2.526
   64CHL1    C4 5847   2.538   2.571   2.739
   64CHL1   H4A 5848   2.441   2.529   2.706
   64CHL1   H4B 5849   2.620   2.507   2.700
   64CHL1    C5 5850   2.532   2.585   2.887
   64CHL1    C6 5851   2.595   2.492   2.962
   64CHL1    H6 5852   2.636   2.402   2.914
   64CHL1    C7 5853   2.595   2.490   3.116
   64CHL1   H7A 5854   2.572   2.390   3.158
   64CHL1   H7B 5855   2.695   2.515   3.155
   64CHL1    C8 5856   2.495   2.597   3.171
   64CHL1    H8 5857   2.396   2.546   3.177
   64CHL1   C14 5858   2.536   2.626   3.316
   64CHL1   H14 5859   2.637   2.672   3.308
   64CHL1   C15 5860   2.553   2.510   3.414
   64CHL1  H15A 5861   2.469   2.438   3.424
   64CHL1  H15B 5862   2.647   2.453   3.398
   64CHL1   C16 5863   2.551   2.580   3.552
   64CHL1  H16A 5864   2.486   2.539   3.632
   64CHL1  H16B 5865   2.654   2.569   3.592
   64CHL1   C17 5866   2.513   2.733   3.534
   64CHL1   H17 5867   2.610   2.785   3.525
   64CHL1   C13 5868   2.447   2.726   3.391
   64CHL1   C18 5869   2.303   2.660   3.409
   64CHL1  H18A 5870   2.269   2.613   3.313
   64CHL1  H18B 5871   2.301   2.572   3.476
   64CHL1  H18C 5872   2.228   2.739   3.430
   64CHL1   C12 5873   2.442   2.857   3.312
   64CHL1  H12A 5874   2.367   2.925   3.356
   64CHL1  H12B 5875   2.540   2.908   3.303
   64CHL1   C11 5876   2.393   2.834   3.168
   64CHL1  H11A 5877   2.287   2.802   3.176
   64CHL1  H11B 5878   2.404   2.933   3.118
   64CHL1    C9 5879   2.486   2.733   3.103
   64CHL1    H9 5880   2.588   2.777   3.092
   64CHL1   C10 5881   2.452   2.705   2.952
   64CHL1   C19 5882   2.302   2.671   2.942
   64CHL1  H19A 5883   2.286   2.577   3.000
   64CHL1  H19B 5884   2.234   2.752   2.977
   64CHL1  H19C 5885   2.279   2.654   2.834
   64CHL1    C1 5886   2.489   2.834   2.877
   64CHL1   H1A 5887   2.427   2.918   2.913
   64CHL1   H1B 5888   2.592   2.868   2.901
   64CHL1    C2 5889   2.470   2.809   2.726
   64CHL1   H2A 5890   2.496   2.901   2.670
   64CHL1   H2B 5891   2.366   2.800   2.688
   64CHL1   C20 5892   2.437   2.789   3.655
   64CHL1   H20 5893   2.348   2.726   3.676
   64CHL1   C21 5894   2.380   2.933   3.641
   64CHL1  H21A 5895   2.339   2.956   3.742
   64CHL1  H21B 5896   2.298   2.925   3.566
   64CHL1  H21C 5897   2.463   2.999   3.610
   64CHL1   C22 5898   2.516   2.776   3.785
   64CHL1  H22A 5899   2.546   2.669   3.787
   64CHL1  H22B 5900   2.606   2.841   3.777
   64CHL1   C23 5901   2.445   2.809   3.914
   64CHL1  H23A 5902   2.424   2.917   3.925
   64CHL1  H23B 5903   2.350   2.752   3.902
   64CHL1   C24 5904   2.514   2.752   4.043
   64CHL1  H24A 5905   2.540   2.645   4.030
   64CHL1  H24B 5906   2.602   2.819   4.060
   64CHL1   C25 5907   2.439   2.775   4.173
   64CHL1   H25 5908   2.348   2.712   4.167
   64CHL1   C26 5909   2.513   2.708   4.296
   64CHL1  H26A 5910   2.613   2.753   4.313
   64CHL1  H26B 5911   2.445   2.712   4.384
   64CHL1  H26C 5912   2.524   2.599   4.275
   64CHL1   C27 5913   2.392   2.917   4.211
   64CHL1  H27A 5914   2.305   2.949   4.150
   64CHL1  H27B 5915   2.372   2.926   4.320
   64CHL1  H27C 5916   2.481   2.982   4.202
   65CHL1    C3 5917   0.453   0.534   2.398
   65CHL1    H3 5918   0.424   0.641   2.399
   65CHL1    O3 5919   0.447   0.488   2.265
   65CHL1   H3' 5920   0.427   0.395   2.279
   65CHL1    C4 5921   0.592   0.512   2.453
   65CHL1   H4A 5922   0.621   0.406   2.438
   65CHL1   H4B 5923   0.656   0.574   2.387
   65CHL1    C5 5924   0.597   0.564   2.593
   65CHL1    C6 5925   0.681   0.659   2.627
   65CHL1    H6 5926   0.737   0.710   2.547
   65CHL1    C7 5927   0.699   0.717   2.762
   65CHL1   H7A 5928   0.807   0.723   2.788
   65CHL1   H7B 5929   0.653   0.816   2.784
   65CHL1    C8 5930   0.640   0.617   2.864
   65CHL1    H8 5931   0.704   0.526   2.867
   65CHL1   C14 5932   0.631   0.673   3.005
   65CHL1   H14 5933   0.572   0.765   2.987
   65CHL1   C15 5934   0.761   0.728   3.067
   65CHL1  H15A 5935   0.828   0.640   3.053
   65CHL1  H15B 5936   0.795   0.821   3.018
   65CHL1   C16 5937   0.724   0.747   3.214
   65CHL1  H16A 5938   0.808   0.705   3.274
   65CHL1  H16B 5939   0.711   0.856   3.236
   65CHL1   C17 5940   0.583   0.672   3.232
   65CHL1   H17 5941   0.506   0.751   3.222
   65CHL1   C13 5942   0.566   0.585   3.110
   65CHL1   C18 5943   0.641   0.453   3.126
   65CHL1  H18A 5944   0.577   0.394   3.195
   65CHL1  H18B 5945   0.642   0.388   3.036
   65CHL1  H18C 5946   0.744   0.467   3.166
   65CHL1   C12 5947   0.420   0.570   3.060
   65CHL1  H12A 5948   0.353   0.525   3.137
   65CHL1  H12B 5949   0.379   0.671   3.040
   65CHL1   C11 5950   0.417   0.497   2.933
   65CHL1  H11A 5951   0.452   0.393   2.949
   65CHL1  H11B 5952   0.313   0.491   2.894
   65CHL1    C9 5953   0.500   0.568   2.820
   65CHL1    H9 5954   0.445   0.662   2.799
   65CHL1   C10 5955   0.500   0.490   2.692
   65CHL1   C19 5956   0.544   0.346   2.720
   65CHL1  H19A 5957   0.584   0.299   2.628
   65CHL1  H19B 5958   0.623   0.339   2.798
   65CHL1  H19C 5959   0.449   0.289   2.730
   65CHL1    C1 5960   0.356   0.496   2.630
   65CHL1   H1A 5961   0.274   0.439   2.678
   65CHL1   H1B 5962   0.328   0.603   2.638
   65CHL1    C2 5963   0.360   0.445   2.486
   65CHL1   H2A 5964   0.256   0.441   2.449
   65CHL1   H2B 5965   0.395   0.340   2.483
   65CHL1   C20 5966   0.573   0.601   3.372
   65CHL1   H20 5967   0.662   0.534   3.372
   65CHL1   C21 5968   0.445   0.527   3.377
   65CHL1  H21A 5969   0.364   0.603   3.374
   65CHL1  H21B 5970   0.437   0.472   3.473
   65CHL1  H21C 5971   0.428   0.455   3.294
   65CHL1   C22 5972   0.586   0.709   3.487
   65CHL1  H22A 5973   0.674   0.774   3.467
   65CHL1  H22B 5974   0.501   0.777   3.466
   65CHL1   C23 5975   0.569   0.666   3.632
   65CHL1  H23A 5976   0.551   0.757   3.694
   65CHL1  H23B 5977   0.474   0.608   3.638
   65CHL1   C24 5978   0.684   0.583   3.697
   65CHL1  H24A 5979   0.698   0.484   3.648
   65CHL1  H24B 5980   0.771   0.649   3.675
   65CHL1   C25 5981   0.669   0.570   3.848
   65CHL1   H25 5982   0.684   0.673   3.887
   65CHL1   C26 5983   0.525   0.525   3.878
   65CHL1  H26A 5984   0.530   0.522   3.989
   65CHL1  H26B 5985   0.460   0.608   3.843
   65CHL1  H26C 5986   0.487   0.430   3.835
   65CHL1   C27 5987   0.770   0.479   3.914
   65CHL1  H27A 5988   0.776   0.376   3.873
   65CHL1  H27B 5989   0.874   0.517   3.912
   65CHL1  H27C 5990   0.744   0.460   4.020
   66CHL1    C3 5991   4.521   2.431   2.868
   66CHL1    H3 5992   4.631   2.411   2.865
   66CHL1    O3 5993   4.485   2.469   2.739
   66CHL1   H3' 5994   4.416   2.533   2.759
   66CHL1    C4 5995   4.434   2.316   2.918
   66CHL1   H4A 5996   4.328   2.339   2.892
   66CHL1   H4B 5997   4.470   2.234   2.852
   66CHL1    C5 5998   4.439   2.276   3.065
   66CHL1    C6 5999   4.462   2.152   3.114
   66CHL1    H6 6000   4.485   2.068   3.047
   66CHL1    C7 6001   4.464   2.120   3.260
   66CHL1   H7A 6002   4.413   2.027   3.292
   66CHL1   H7B 6003   4.572   2.111   3.286
   66CHL1    C8 6004   4.411   2.232   3.351
   66CHL1    H8 6005   4.300   2.236   3.344
   66CHL1   C14 6006   4.447   2.206   3.497
   66CHL1   H14 6007   4.558   2.211   3.506
   66CHL1   C15 6008   4.405   2.071   3.560
   66CHL1  H15A 6009   4.305   2.049   3.516
   66CHL1  H15B 6010   4.477   1.990   3.538
   66CHL1   C16 6011   4.394   2.098   3.712
   66CHL1  H16A 6012   4.291   2.078   3.749
   66CHL1  H16B 6013   4.469   2.040   3.770
   66CHL1   C17 6014   4.427   2.250   3.724
   66CHL1   H17 6015   4.537   2.266   3.730
   66CHL1   C13 6016   4.382   2.314   3.591
   66CHL1   C18 6017   4.213   2.319   3.590
   66CHL1  H18A 6018   4.168   2.352   3.493
   66CHL1  H18B 6019   4.183   2.217   3.621
   66CHL1  H18C 6020   4.191   2.394   3.669
   66CHL1   C12 6021   4.442   2.450   3.554
   66CHL1  H12A 6022   4.404   2.534   3.617
   66CHL1  H12B 6023   4.552   2.440   3.560
   66CHL1   C11 6024   4.409   2.491   3.403
   66CHL1  H11A 6025   4.298   2.503   3.405
   66CHL1  H11B 6026   4.468   2.585   3.394
   66CHL1    C9 6027   4.451   2.371   3.306
   66CHL1    H9 6028   4.561   2.373   3.316
   66CHL1   C10 6029   4.416   2.397   3.158
   66CHL1   C19 6030   4.271   2.451   3.153
   66CHL1  H19A 6031   4.234   2.446   3.049
   66CHL1  H19B 6032   4.201   2.385   3.209
   66CHL1  H19C 6033   4.271   2.551   3.203
   66CHL1    C1 6034   4.518   2.500   3.113
   66CHL1   H1A 6035   4.501   2.589   3.178
   66CHL1   H1B 6036   4.622   2.463   3.113
   66CHL1    C2 6037   4.505   2.548   2.961
   66CHL1   H2A 6038   4.587   2.621   2.942
   66CHL1   H2B 6039   4.406   2.589   2.932
   66CHL1   C20 6040   4.390   2.333   3.858
   66CHL1   H20 6041   4.290   2.382   3.848
   66CHL1   C21 6042   4.501   2.444   3.899
   66CHL1  H21A 6043   4.515   2.522   3.821
   66CHL1  H21B 6044   4.600   2.398   3.919
   66CHL1  H21C 6045   4.478   2.508   3.987
   66CHL1   C22 6046   4.383   2.238   3.977
   66CHL1  H22A 6047   4.342   2.299   4.061
   66CHL1  H22B 6048   4.300   2.170   3.949
   66CHL1   C23 6049   4.515   2.178   4.035
   66CHL1  H23A 6050   4.587   2.143   3.958
   66CHL1  H23B 6051   4.576   2.260   4.079
   66CHL1   C24 6052   4.489   2.051   4.122
   66CHL1  H24A 6053   4.414   2.075   4.201
   66CHL1  H24B 6054   4.426   1.984   4.060
   66CHL1   C25 6055   4.614   1.974   4.168
   66CHL1   H25 6056   4.663   1.926   4.080
   66CHL1   C26 6057   4.704   2.069   4.256
   66CHL1  H26A 6058   4.645   2.128   4.329
   66CHL1  H26B 6059   4.786   2.021   4.313
   66CHL1  H26C 6060   4.762   2.142   4.196
   66CHL1   C27 6061   4.554   1.859   4.251
   66CHL1  H27A 6062   4.498   1.894   4.340
   66CHL1  H27B 6063   4.635   1.805   4.304
   66CHL1  H27C 6064   4.492   1.788   4.192
   67CHL1    C3 6065   4.443   6.731   3.033
   67CHL1    H3 6066   4.447   6.841   3.046
   67CHL1    O3 6067   4.440   6.711   2.895
   67CHL1   H3' 6068   4.532   6.709   2.868
   67CHL1    C4 6069   4.581   6.690   3.094
   67CHL1   H4A 6070   4.596   6.587   3.056
   67CHL1   H4B 6071   4.662   6.757   3.057
   67CHL1    C5 6072   4.578   6.681   3.250
   67CHL1    C6 6073   4.680   6.730   3.322
   67CHL1    H6 6074   4.770   6.774   3.276
   67CHL1    C7 6075   4.680   6.729   3.472
   67CHL1   H7A 6076   4.781   6.696   3.505
   67CHL1   H7B 6077   4.655   6.832   3.505
   67CHL1    C8 6078   4.575   6.631   3.528
   67CHL1    H8 6079   4.609   6.527   3.507
   67CHL1   C14 6080   4.561   6.659   3.677
   67CHL1   H14 6081   4.549   6.769   3.688
   67CHL1   C15 6082   4.683   6.634   3.763
   67CHL1  H15A 6083   4.750   6.552   3.731
   67CHL1  H15B 6084   4.746   6.723   3.743
   67CHL1   C16 6085   4.630   6.623   3.905
   67CHL1  H16A 6086   4.658   6.524   3.945
   67CHL1  H16B 6087   4.672   6.698   3.975
   67CHL1   C17 6088   4.477   6.633   3.898
   67CHL1   H17 6089   4.462   6.742   3.908
   67CHL1   C13 6090   4.441   6.594   3.750
   67CHL1   C18 6091   4.444   6.442   3.746
   67CHL1  H18A 6092   4.525   6.401   3.810
   67CHL1  H18B 6093   4.351   6.388   3.774
   67CHL1  H18C 6094   4.477   6.406   3.646
   67CHL1   C12 6095   4.312   6.635   3.685
   67CHL1  H12A 6096   4.236   6.564   3.725
   67CHL1  H12B 6097   4.293   6.738   3.722
   67CHL1   C11 6098   4.309   6.603   3.529
   67CHL1  H11A 6099   4.293   6.494   3.514
   67CHL1  H11B 6100   4.216   6.645   3.484
   67CHL1    C9 6101   4.438   6.661   3.455
   67CHL1    H9 6102   4.427   6.772   3.459
   67CHL1   C10 6103   4.449   6.626   3.307
   67CHL1   C19 6104   4.429   6.469   3.291
   67CHL1  H19A 6105   4.492   6.412   3.361
   67CHL1  H19B 6106   4.324   6.433   3.295
   67CHL1  H19C 6107   4.464   6.438   3.190
   67CHL1    C1 6108   4.322   6.692   3.236
   67CHL1   H1A 6109   4.224   6.652   3.269
   67CHL1   H1B 6110   4.320   6.797   3.271
   67CHL1    C2 6111   4.313   6.682   3.088
   67CHL1   H2A 6112   4.222   6.734   3.051
   67CHL1   H2B 6113   4.296   6.576   3.061
   67CHL1   C20 6114   4.416   6.568   4.023
   67CHL1   H20 6115   4.430   6.458   4.023
   67CHL1   C21 6116   4.262   6.579   4.014
   67CHL1  H21A 6117   4.240   6.684   4.043
   67CHL1  H21B 6118   4.201   6.525   4.089
   67CHL1  H21C 6119   4.219   6.553   3.915
   67CHL1   C22 6120   4.465   6.631   4.155
   67CHL1  H22A 6121   4.573   6.604   4.160
   67CHL1  H22B 6122   4.459   6.740   4.137
   67CHL1   C23 6123   4.394   6.575   4.281
   67CHL1  H23A 6124   4.283   6.583   4.272
   67CHL1  H23B 6125   4.396   6.464   4.289
   67CHL1   C24 6126   4.455   6.644   4.402
   67CHL1  H24A 6127   4.565   6.627   4.396
   67CHL1  H24B 6128   4.435   6.753   4.406
   67CHL1   C25 6129   4.407   6.584   4.537
   67CHL1   H25 6130   4.400   6.473   4.533
   67CHL1   C26 6131   4.507   6.624   4.653
   67CHL1  H26A 6132   4.502   6.734   4.671
   67CHL1  H26B 6133   4.468   6.582   4.748
   67CHL1  H26C 6134   4.611   6.588   4.639
   67CHL1   C27 6135   4.265   6.630   4.560
   67CHL1  H27A 6136   4.210   6.644   4.465
   67CHL1  H27B 6137   4.212   6.551   4.618
   67CHL1  H27C 6138   4.261   6.724   4.618
   68CHL1    C3 6139   1.667   5.389   2.666
   68CHL1    H3 6140   1.775   5.400   2.692
   68CHL1    O3 6141   1.644   5.406   2.526
   68CHL1   H3' 6142   1.548   5.400   2.517
   68CHL1    C4 6143   1.637   5.243   2.702
   68CHL1   H4A 6144   1.529   5.220   2.687
   68CHL1   H4B 6145   1.701   5.177   2.640
   68CHL1    C5 6146   1.682   5.228   2.844
   68CHL1    C6 6147   1.776   5.141   2.881
   68CHL1    H6 6148   1.807   5.079   2.795
   68CHL1    C7 6149   1.814   5.107   3.025
   68CHL1   H7A 6150   1.837   4.999   3.024
   68CHL1   H7B 6151   1.909   5.162   3.043
   68CHL1    C8 6152   1.719   5.164   3.126
   68CHL1    H8 6153   1.626   5.104   3.117
   68CHL1   C14 6154   1.781   5.176   3.261
   68CHL1   H14 6155   1.863   5.251   3.255
   68CHL1   C15 6156   1.839   5.047   3.321
   68CHL1  H15A 6157   1.772   4.964   3.291
   68CHL1  H15B 6158   1.942   5.022   3.287
   68CHL1   C16 6159   1.842   5.070   3.472
   68CHL1  H16A 6160   1.783   4.984   3.509
   68CHL1  H16B 6161   1.944   5.050   3.513
   68CHL1   C17 6162   1.766   5.209   3.498
   68CHL1   H17 6163   1.849   5.283   3.486
   68CHL1   C13 6164   1.683   5.227   3.370
   68CHL1   C18 6165   1.557   5.138   3.383
   68CHL1  H18A 6166   1.497   5.189   3.462
   68CHL1  H18B 6167   1.501   5.128   3.288
   68CHL1  H18C 6168   1.594   5.039   3.417
   68CHL1   C12 6169   1.643   5.370   3.332
   68CHL1  H12A 6170   1.569   5.418   3.399
   68CHL1  H12B 6171   1.737   5.428   3.320
   68CHL1   C11 6172   1.575   5.374   3.193
   68CHL1  H11A 6173   1.478   5.319   3.199
   68CHL1  H11B 6174   1.544   5.474   3.159
   68CHL1    C9 6175   1.666   5.309   3.087
   68CHL1    H9 6176   1.757   5.372   3.085
   68CHL1   C10 6177   1.609   5.327   2.944
   68CHL1   C19 6178   1.459   5.282   2.942
   68CHL1  H19A 6179   1.457   5.179   2.983
   68CHL1  H19B 6180   1.407   5.354   3.009
   68CHL1  H19C 6181   1.405   5.294   2.846
   68CHL1    C1 6182   1.626   5.474   2.892
   68CHL1   H1A 6183   1.557   5.539   2.949
   68CHL1   H1B 6184   1.730   5.512   2.903
   68CHL1    C2 6185   1.579   5.491   2.748
   68CHL1   H2A 6186   1.601   5.592   2.707
   68CHL1   H2B 6187   1.470   5.470   2.743
   68CHL1   C20 6188   1.698   5.242   3.635
   68CHL1   H20 6189   1.591   5.214   3.620
   68CHL1   C21 6190   1.704   5.392   3.663
   68CHL1  H21A 6191   1.789   5.419   3.729
   68CHL1  H21B 6192   1.602   5.413   3.702
   68CHL1  H21C 6193   1.714   5.452   3.570
   68CHL1   C22 6194   1.760   5.164   3.752
   68CHL1  H22A 6195   1.772   5.063   3.708
   68CHL1  H22B 6196   1.866   5.196   3.760
   68CHL1   C23 6197   1.681   5.151   3.882
   68CHL1  H23A 6198   1.632   5.246   3.913
   68CHL1  H23B 6199   1.606   5.074   3.855
   68CHL1   C24 6200   1.775   5.094   3.990
   68CHL1  H24A 6201   1.835   5.008   3.953
   68CHL1  H24B 6202   1.849   5.176   4.003
   68CHL1   C25 6203   1.712   5.069   4.133
   68CHL1   H25 6204   1.794   5.019   4.188
   68CHL1   C26 6205   1.676   5.211   4.194
   68CHL1  H26A 6206   1.593   5.255   4.135
   68CHL1  H26B 6207   1.648   5.205   4.301
   68CHL1  H26C 6208   1.767   5.275   4.191
   68CHL1   C27 6209   1.592   4.983   4.139
   68CHL1  H27A 6210   1.518   5.029   4.070
   68CHL1  H27B 6211   1.603   4.874   4.120
   68CHL1  H27C 6212   1.555   4.986   4.244
   69CHL1    C3 6213   0.440   3.023   2.690
   69CHL1    H3 6214   0.331   3.004   2.703
   69CHL1    O3 6215   0.455   3.033   2.548
   69CHL1   H3' 6216   0.534   2.983   2.528
   69CHL1    C4 6217   0.489   3.148   2.755
   69CHL1   H4A 6218   0.595   3.178   2.740
   69CHL1   H4B 6219   0.429   3.227   2.706
   69CHL1    C5 6220   0.462   3.134   2.903
   69CHL1    C6 6221   0.386   3.226   2.964
   69CHL1    H6 6222   0.334   3.306   2.910
   69CHL1    C7 6223   0.368   3.225   3.115
   69CHL1   H7A 6224   0.394   3.327   3.150
   69CHL1   H7B 6225   0.265   3.194   3.145
   69CHL1    C8 6226   0.465   3.131   3.193
   69CHL1    H8 6227   0.561   3.187   3.199
   69CHL1   C14 6228   0.421   3.111   3.333
   69CHL1   H14 6229   0.331   3.046   3.321
   69CHL1   C15 6230   0.374   3.221   3.425
   69CHL1  H15A 6231   0.442   3.307   3.405
   69CHL1  H15B 6232   0.270   3.255   3.407
   69CHL1   C16 6233   0.383   3.170   3.567
   69CHL1  H16A 6234   0.447   3.239   3.627
   69CHL1  H16B 6235   0.286   3.150   3.617
   69CHL1   C17 6236   0.439   3.024   3.553
   69CHL1   H17 6237   0.357   2.957   3.520
   69CHL1   C13 6238   0.517   3.022   3.418
   69CHL1   C18 6239   0.657   3.089   3.431
   69CHL1  H18A 6240   0.656   3.183   3.489
   69CHL1  H18B 6241   0.730   3.019   3.477
   69CHL1  H18C 6242   0.704   3.111   3.332
   69CHL1   C12 6243   0.531   2.889   3.354
   69CHL1  H12A 6244   0.609   2.824   3.398
   69CHL1  H12B 6245   0.435   2.835   3.372
   69CHL1   C11 6246   0.564   2.895   3.200
   69CHL1  H11A 6247   0.672   2.920   3.195
   69CHL1  H11B 6248   0.550   2.795   3.155
   69CHL1    C9 6249   0.481   2.996   3.121
   69CHL1    H9 6250   0.380   2.954   3.104
   69CHL1   C10 6251   0.528   3.012   2.971
   69CHL1   C19 6252   0.683   3.026   2.965
   69CHL1  H19A 6253   0.710   3.046   2.859
   69CHL1  H19B 6254   0.723   3.112   3.023
   69CHL1  H19C 6255   0.744   2.940   3.000
   69CHL1    C1 6256   0.484   2.890   2.888
   69CHL1   H1A 6257   0.540   2.797   2.912
   69CHL1   H1B 6258   0.378   2.872   2.914
   69CHL1    C2 6259   0.506   2.902   2.739
   69CHL1   H2A 6260   0.470   2.818   2.675
   69CHL1   H2B 6261   0.617   2.913   2.732
   69CHL1   C20 6262   0.502   2.970   3.679
   69CHL1   H20 6263   0.605   2.944   3.648
   69CHL1   C21 6264   0.440   2.841   3.710
   69CHL1  H21A 6265   0.337   2.858   3.748
   69CHL1  H21B 6266   0.496   2.784   3.787
   69CHL1  H21C 6267   0.423   2.771   3.625
   69CHL1   C22 6268   0.528   3.069   3.787
   69CHL1  H22A 6269   0.585   3.156   3.748
   69CHL1  H22B 6270   0.432   3.093   3.838
   69CHL1   C23 6271   0.624   3.018   3.895
   69CHL1  H23A 6272   0.581   2.923   3.934
   69CHL1  H23B 6273   0.718   2.973   3.856
   69CHL1   C24 6274   0.652   3.123   4.004
   69CHL1  H24A 6275   0.719   3.191   3.947
   69CHL1  H24B 6276   0.566   3.188   4.028
   69CHL1   C25 6277   0.716   3.066   4.131
   69CHL1   H25 6278   0.789   2.988   4.098
   69CHL1   C26 6279   0.794   3.181   4.196
   69CHL1  H26A 6280   0.722   3.264   4.207
   69CHL1  H26B 6281   0.840   3.148   4.292
   69CHL1  H26C 6282   0.870   3.233   4.133
   69CHL1   C27 6283   0.621   2.988   4.226
   69CHL1  H27A 6284   0.565   3.053   4.297
   69CHL1  H27B 6285   0.537   2.932   4.180
   69CHL1  H27C 6286   0.684   2.914   4.280
   70CHL1    C3 6287   2.275   0.762   2.477
   70CHL1    H3 6288   2.196   0.839   2.488
   70CHL1    O3 6289   2.308   0.734   2.344
   70CHL1   H3' 6290   2.364   0.656   2.344
   70CHL1    C4 6291   2.398   0.832   2.544
   70CHL1   H4A 6292   2.491   0.771   2.534
   70CHL1   H4B 6293   2.420   0.928   2.493
   70CHL1    C5 6294   2.381   0.855   2.696
   70CHL1    C6 6295   2.384   0.978   2.754
   70CHL1    H6 6296   2.399   1.068   2.693
   70CHL1    C7 6297   2.378   1.001   2.908
   70CHL1   H7A 6298   2.465   1.066   2.935
   70CHL1   H7B 6299   2.286   1.055   2.939
   70CHL1    C8 6300   2.390   0.867   2.986
   70CHL1    H8 6301   2.498   0.840   2.983
   70CHL1   C14 6302   2.348   0.882   3.137
   70CHL1   H14 6303   2.240   0.910   3.132
   70CHL1   C15 6304   2.413   0.991   3.218
   70CHL1  H15A 6305   2.524   0.989   3.208
   70CHL1  H15B 6306   2.377   1.093   3.195
   70CHL1   C16 6307   2.375   0.956   3.360
   70CHL1  H16A 6308   2.463   0.965   3.428
   70CHL1  H16B 6309   2.294   1.023   3.395
   70CHL1   C17 6310   2.323   0.811   3.360
   70CHL1   H17 6311   2.212   0.812   3.359
   70CHL1   C13 6312   2.361   0.760   3.220
   70CHL1   C18 6313   2.499   0.708   3.222
   70CHL1  H18A 6314   2.539   0.683   3.121
   70CHL1  H18B 6315   2.571   0.781   3.265
   70CHL1  H18C 6316   2.500   0.612   3.277
   70CHL1   C12 6317   2.267   0.656   3.162
   70CHL1  H12A 6318   2.265   0.561   3.218
   70CHL1  H12B 6319   2.163   0.694   3.172
   70CHL1   C11 6320   2.296   0.633   3.012
   70CHL1  H11A 6321   2.390   0.573   3.018
   70CHL1  H11B 6322   2.227   0.562   2.962
   70CHL1    C9 6323   2.308   0.756   2.920
   70CHL1    H9 6324   2.210   0.806   2.909
   70CHL1   C10 6325   2.342   0.723   2.766
   70CHL1   C19 6326   2.452   0.617   2.760
   70CHL1  H19A 6327   2.514   0.641   2.849
   70CHL1  H19B 6328   2.403   0.517   2.767
   70CHL1  H19C 6329   2.512   0.622   2.667
   70CHL1    C1 6330   2.219   0.661   2.702
   70CHL1   H1A 6331   2.173   0.566   2.737
   70CHL1   H1B 6332   2.136   0.734   2.699
   70CHL1    C2 6333   2.244   0.630   2.551
   70CHL1   H2A 6334   2.144   0.607   2.509
   70CHL1   H2B 6335   2.310   0.541   2.541
   70CHL1   C20 6336   2.358   0.723   3.477
   70CHL1   H20 6337   2.355   0.620   3.436
   70CHL1   C21 6338   2.240   0.742   3.581
   70CHL1  H21A 6339   2.244   0.675   3.669
   70CHL1  H21B 6340   2.137   0.730   3.542
   70CHL1  H21C 6341   2.259   0.844   3.621
   70CHL1   C22 6342   2.499   0.730   3.544
   70CHL1  H22A 6343   2.583   0.715   3.472
   70CHL1  H22B 6344   2.506   0.836   3.575
   70CHL1   C23 6345   2.525   0.617   3.647
   70CHL1  H23A 6346   2.441   0.612   3.721
   70CHL1  H23B 6347   2.514   0.521   3.592
   70CHL1   C24 6348   2.667   0.613   3.707
   70CHL1  H24A 6349   2.739   0.608   3.622
   70CHL1  H24B 6350   2.693   0.712   3.750
   70CHL1   C25 6351   2.702   0.494   3.803
   70CHL1   H25 6352   2.676   0.401   3.749
   70CHL1   C26 6353   2.856   0.497   3.832
   70CHL1  H26A 6354   2.882   0.597   3.874
   70CHL1  H26B 6355   2.893   0.412   3.893
   70CHL1  H26C 6356   2.906   0.486   3.734
   70CHL1   C27 6357   2.610   0.488   3.933
   70CHL1  H27A 6358   2.609   0.380   3.958
   70CHL1  H27B 6359   2.656   0.535   4.023
   70CHL1  H27C 6360   2.512   0.534   3.910
   71CHL1    C3 6361   5.459   6.372   2.833
   71CHL1    H3 6362   5.434   6.289   2.903
   71CHL1    O3 6363   5.367   6.360   2.721
   71CHL1   H3' 6364   5.367   6.444   2.677
   71CHL1    C4 6365   5.446   6.505   2.893
   71CHL1   H4A 6366   5.469   6.578   2.814
   71CHL1   H4B 6367   5.339   6.511   2.923
   71CHL1    C5 6368   5.542   6.527   3.010
   71CHL1    C6 6369   5.496   6.564   3.135
   71CHL1    H6 6370   5.388   6.570   3.157
   71CHL1    C7 6371   5.580   6.583   3.249
   71CHL1   H7A 6372   5.560   6.675   3.308
   71CHL1   H7B 6373   5.556   6.505   3.325
   71CHL1    C8 6374   5.735   6.587   3.210
   71CHL1    H8 6375   5.743   6.688   3.164
   71CHL1   C14 6376   5.835   6.569   3.319
   71CHL1   H14 6377   5.821   6.462   3.346
   71CHL1   C15 6378   5.824   6.655   3.454
   71CHL1  H15A 6379   5.782   6.754   3.427
   71CHL1  H15B 6380   5.767   6.605   3.535
   71CHL1   C16 6381   5.971   6.676   3.501
   71CHL1  H16A 6382   5.991   6.784   3.490
   71CHL1  H16B 6383   5.974   6.645   3.608
   71CHL1   C17 6384   6.066   6.593   3.413
   71CHL1   H17 6385   6.058   6.492   3.458
   71CHL1   C13 6386   5.987   6.586   3.281
   71CHL1   C18 6387   6.012   6.725   3.217
   71CHL1  H18A 6388   5.939   6.742   3.134
   71CHL1  H18B 6389   6.005   6.823   3.269
   71CHL1  H18C 6390   6.110   6.719   3.167
   71CHL1   C12 6391   6.019   6.473   3.185
   71CHL1  H12A 6392   6.124   6.483   3.147
   71CHL1  H12B 6393   6.029   6.375   3.234
   71CHL1   C11 6394   5.922   6.467   3.064
   71CHL1  H11A 6395   5.970   6.538   2.993
   71CHL1  H11B 6396   5.936   6.373   3.006
   71CHL1    C9 6397   5.770   6.488   3.102
   71CHL1    H9 6398   5.741   6.390   3.146
   71CHL1   C10 6399   5.688   6.502   2.974
   71CHL1   C19 6400   5.745   6.623   2.897
   71CHL1  H19A 6401   5.837   6.596   2.841
   71CHL1  H19B 6402   5.668   6.654   2.823
   71CHL1  H19C 6403   5.757   6.713   2.960
   71CHL1    C1 6404   5.694   6.369   2.892
   71CHL1   H1A 6405   5.797   6.362   2.850
   71CHL1   H1B 6406   5.680   6.284   2.962
   71CHL1    C2 6407   5.596   6.352   2.778
   71CHL1   H2A 6408   5.579   6.252   2.733
   71CHL1   H2B 6409   5.617   6.420   2.693
   71CHL1   C20 6410   6.209   6.654   3.419
   71CHL1   H20 6411   6.212   6.736   3.344
   71CHL1   C21 6412   6.306   6.550   3.365
   71CHL1  H21A 6413   6.286   6.508   3.264
   71CHL1  H21B 6414   6.300   6.463   3.434
   71CHL1  H21C 6415   6.407   6.596   3.367
   71CHL1   C22 6416   6.257   6.702   3.563
   71CHL1  H22A 6417   6.177   6.763   3.611
   71CHL1  H22B 6418   6.287   6.616   3.626
   71CHL1   C23 6419   6.368   6.802   3.558
   71CHL1  H23A 6420   6.462   6.743   3.551
   71CHL1  H23B 6421   6.373   6.874   3.473
   71CHL1   C24 6422   6.393   6.884   3.692
   71CHL1  H24A 6423   6.298   0.024   3.715
   71CHL1  H24B 6424   6.427   6.813   3.769
   71CHL1   C25 6425   6.512   0.066   3.691
   71CHL1   H25 6426   6.599   0.017   3.643
   71CHL1   C26 6427   6.482   0.190   3.604
   71CHL1  H26A 6428   6.471   0.156   3.498
   71CHL1  H26B 6429   6.382   0.233   3.624
   71CHL1  H26C 6430   6.556   0.273   3.606
   71CHL1   C27 6431   6.559   0.113   3.834
   71CHL1  H27A 6432   6.607   0.213   3.828
   71CHL1  H27B 6433   6.470   0.120   3.901
   71CHL1  H27C 6434   6.623   0.032   3.875
   72CHL1    C3 6435   0.044   4.710   2.797
   72CHL1    H3 6436   6.889   4.640   2.853
   72CHL1    O3 6437   0.030   4.673   2.659
   72CHL1   H3' 6438   0.085   4.736   2.612
   72CHL1    C4 6439   6.907   4.850   2.811
   72CHL1   H4A 6440   0.036   4.915   2.732
   72CHL1   H4B 6441   6.800   4.849   2.780
   72CHL1    C5 6442   0.007   4.913   2.954
   72CHL1    C6 6443   6.815   4.966   3.015
   72CHL1    H6 6444   6.724   4.979   2.954
   72CHL1    C7 6445   6.816   5.035   3.145
   72CHL1   H7A 6446   6.776   5.138   3.131
   72CHL1   H7B 6447   6.752   4.977   3.215
   72CHL1    C8 6448   0.047   5.050   3.207
   72CHL1    H8 6449   0.096   5.140   3.164
   72CHL1   C14 6450   0.048   5.053   3.358
   72CHL1   H14 6451   0.011   4.957   3.401
   72CHL1   C15 6452   6.870   5.166   3.413
   72CHL1  H15A 6453   6.871   5.264   3.361
   72CHL1  H15B 6454   6.762   5.140   3.408
   72CHL1   C16 6455   0.005   5.180   3.558
   72CHL1  H16A 6456   0.040   5.284   3.576
   72CHL1  H16B 6457   6.838   5.162   3.634
   72CHL1   C17 6458   0.132   5.088   3.578
   72CHL1   H17 6459   0.096   4.984   3.595
   72CHL1   C13 6460   0.184   5.076   3.427
   72CHL1   C18 6461   0.242   5.213   3.380
   72CHL1  H18A 6462   0.279   5.207   3.275
   72CHL1  H18B 6463   0.172   5.299   3.392
   72CHL1  H18C 6464   0.330   5.239   3.442
   72CHL1   C12 6465   0.269   4.955   3.386
   72CHL1  H12A 6466   0.374   4.971   3.417
   72CHL1  H12B 6467   0.237   4.867   3.446
   72CHL1   C11 6468   0.274   4.939   3.234
   72CHL1  H11A 6469   0.312   5.037   3.197
   72CHL1  H11B 6470   0.345   4.859   3.204
   72CHL1    C9 6471   0.132   4.928   3.168
   72CHL1    H9 6472   0.088   4.834   3.207
   72CHL1   C10 6473   0.149   4.895   3.012
   72CHL1   C19 6474   0.238   5.004   2.935
   72CHL1  H19A 6475   0.347   4.998   2.956
   72CHL1  H19B 6476   0.227   5.003   2.824
   72CHL1  H19C 6477   0.193   5.103   2.960
   72CHL1    C1 6478   0.197   4.745   2.986
   72CHL1   H1A 6479   0.303   4.735   3.017
   72CHL1   H1B 6480   0.145   4.678   3.057
   72CHL1    C2 6481   0.189   4.697   2.845
   72CHL1   H2A 6482   0.223   4.591   2.839
   72CHL1   H2B 6483   0.255   4.755   2.778
   72CHL1   C20 6484   0.228   5.135   3.688
   72CHL1   H20 6485   0.286   5.225   3.659
   72CHL1   C21 6486   0.336   5.037   3.714
   72CHL1  H21A 6487   0.389   5.082   3.801
   72CHL1  H21B 6488   0.403   5.024   3.626
   72CHL1  H21C 6489   0.291   4.937   3.732
   72CHL1   C22 6490   0.150   5.166   3.819
   72CHL1  H22A 6491   0.072   5.242   3.800
   72CHL1  H22B 6492   0.108   5.072   3.859
   72CHL1   C23 6493   0.243   5.245   3.921
   72CHL1  H23A 6494   0.317   5.174   3.965
   72CHL1  H23B 6495   0.283   5.338   3.877
   72CHL1   C24 6496   0.163   5.314   4.037
   72CHL1  H24A 6497   0.079   5.350   3.973
   72CHL1  H24B 6498   0.123   5.244   4.114
   72CHL1   C25 6499   0.231   5.433   4.110
   72CHL1   H25 6500   0.282   5.501   4.038
   72CHL1   C26 6501   0.123   5.525   4.177
   72CHL1  H26A 6502   0.054   5.466   4.241
   72CHL1  H26B 6503   0.179   5.605   4.230
   72CHL1  H26C 6504   0.053   5.557   4.096
   72CHL1   C27 6505   0.341   5.388   4.207
   72CHL1  H27A 6506   0.406   5.316   4.152
   72CHL1  H27B 6507   0.394   5.477   4.247
   72CHL1  H27C 6508   0.302   5.325   4.289
   73CHL1    C3 6509   1.087   5.401   2.720
   73CHL1    H3 6510   1.196   5.386   2.732
   73CHL1    O3 6511   1.077   5.432   2.586
   73CHL1   H3' 6512   0.983   5.425   2.567
   73CHL1    C4 6513   1.015   5.276   2.769
   73CHL1   H4A 6514   0.907   5.285   2.746
   73CHL1   H4B 6515   1.066   5.200   2.706
   73CHL1    C5 6516   1.052   5.260   2.913
   73CHL1    C6 6517   1.112   5.146   2.957
   73CHL1    H6 6518   1.147   5.070   2.885
   73CHL1    C7 6519   1.155   5.120   3.102
   73CHL1   H7A 6520   1.143   5.014   3.132
   73CHL1   H7B 6521   1.261   5.153   3.105
   73CHL1    C8 6522   1.080   5.215   3.198
   73CHL1    H8 6523   0.973   5.184   3.190
   73CHL1   C14 6524   1.142   5.201   3.334
   73CHL1   H14 6525   1.245   5.230   3.306
   73CHL1   C15 6526   1.133   5.062   3.392
   73CHL1  H15A 6527   1.025   5.036   3.380
   73CHL1  H15B 6528   1.198   4.986   3.345
   73CHL1   C16 6529   1.172   5.085   3.541
   73CHL1  H16A 6530   1.089   5.035   3.596
   73CHL1  H16B 6531   1.271   5.042   3.568
   73CHL1   C17 6532   1.171   5.237   3.554
   73CHL1   H17 6533   1.278   5.266   3.545
   73CHL1   C13 6534   1.097   5.296   3.433
   73CHL1   C18 6535   0.954   5.278   3.467
   73CHL1  H18A 6536   0.888   5.277   3.378
   73CHL1  H18B 6537   0.931   5.180   3.514
   73CHL1  H18C 6538   0.914   5.364   3.526
   73CHL1   C12 6539   1.126   5.440   3.379
   73CHL1  H12A 6540   1.107   5.514   3.460
   73CHL1  H12B 6541   1.231   5.456   3.347
   73CHL1   C11 6542   1.040   5.465   3.257
   73CHL1  H11A 6543   0.932   5.464   3.282
   73CHL1  H11B 6544   1.060   5.562   3.207
   73CHL1    C9 6545   1.083   5.362   3.143
   73CHL1    H9 6546   1.187   5.386   3.115
   73CHL1   C10 6547   1.017   5.378   3.008
   73CHL1   C19 6548   0.864   5.383   3.029
   73CHL1  H19A 6549   0.831   5.288   3.077
   73CHL1  H19B 6550   0.835   5.473   3.088
   73CHL1  H19C 6551   0.794   5.390   2.943
   73CHL1    C1 6552   1.077   5.511   2.944
   73CHL1   H1A 6553   1.049   5.598   3.007
   73CHL1   H1B 6554   1.187   5.504   2.959
   73CHL1    C2 6555   1.033   5.525   2.796
   73CHL1   H2A 6556   1.075   5.622   2.762
   73CHL1   H2B 6557   0.923   5.535   2.797
   73CHL1   C20 6558   1.143   5.281   3.701
   73CHL1   H20 6559   1.046   5.234   3.727
   73CHL1   C21 6560   1.131   5.431   3.713
   73CHL1  H21A 6561   1.217   5.485   3.667
   73CHL1  H21B 6562   1.131   5.468   3.817
   73CHL1  H21C 6563   1.035   5.466   3.668
   73CHL1   C22 6564   1.253   5.225   3.797
   73CHL1  H22A 6565   1.289   5.121   3.787
   73CHL1  H22B 6566   1.343   5.289   3.787
   73CHL1   C23 6567   1.192   5.227   3.933
   73CHL1  H23A 6568   1.165   5.331   3.962
   73CHL1  H23B 6569   1.098   5.169   3.925
   73CHL1   C24 6570   1.292   5.175   4.045
   73CHL1  H24A 6571   1.314   5.069   4.019
   73CHL1  H24B 6572   1.382   5.238   4.027
   73CHL1   C25 6573   1.238   5.184   4.187
   73CHL1   H25 6574   1.298   5.119   4.254
   73CHL1   C26 6575   1.259   5.325   4.250
   73CHL1  H26A 6576   1.210   5.404   4.189
   73CHL1  H26B 6577   1.233   5.324   4.359
   73CHL1  H26C 6578   1.367   5.347   4.239
   73CHL1   C27 6579   1.093   5.124   4.202
   73CHL1  H27A 6580   1.020   5.191   4.152
   73CHL1  H27B 6581   1.102   5.019   4.167
   73CHL1  H27C 6582   1.059   5.122   4.307
   74CHL1    C3 6583   0.926   4.489   2.531
   74CHL1    H3 6584   0.827   4.535   2.550
   74CHL1    O3 6585   0.945   4.464   2.392
   74CHL1   H3' 6586   0.881   4.401   2.359
   74CHL1    C4 6587   1.039   4.573   2.583
   74CHL1   H4A 6588   1.137   4.535   2.547
   74CHL1   H4B 6589   1.042   4.678   2.546
   74CHL1    C5 6590   1.056   4.576   2.735
   74CHL1    C6 6591   1.063   4.701   2.794
   74CHL1    H6 6592   1.047   4.793   2.736
   74CHL1    C7 6593   1.083   4.711   2.946
   74CHL1   H7A 6594   1.146   4.798   2.976
   74CHL1   H7B 6595   0.981   4.738   2.982
   74CHL1    C8 6596   1.123   4.580   3.023
   74CHL1    H8 6597   1.232   4.567   3.008
   74CHL1   C14 6598   1.084   4.590   3.170
   74CHL1   H14 6599   0.974   4.583   3.162
   74CHL1   C15 6600   1.118   4.710   3.246
   74CHL1  H15A 6601   1.215   4.756   3.216
   74CHL1  H15B 6602   1.038   4.785   3.229
   74CHL1   C16 6603   1.103   4.657   3.394
   74CHL1  H16A 6604   1.199   4.685   3.442
   74CHL1  H16B 6605   1.034   4.724   3.451
   74CHL1   C17 6606   1.078   4.512   3.391
   74CHL1   H17 6607   0.967   4.500   3.392
   74CHL1   C13 6608   1.123   4.471   3.252
   74CHL1   C18 6609   1.273   4.450   3.246
   74CHL1  H18A 6610   1.309   4.420   3.145
   74CHL1  H18B 6611   1.331   4.532   3.295
   74CHL1  H18C 6612   1.297   4.366   3.314
   74CHL1   C12 6613   1.051   4.346   3.193
   74CHL1  H12A 6614   1.081   4.258   3.253
   74CHL1  H12B 6615   0.943   4.358   3.215
   74CHL1   C11 6616   1.077   4.332   3.045
   74CHL1  H11A 6617   1.182   4.309   3.018
   74CHL1  H11B 6618   1.014   4.248   3.010
   74CHL1    C9 6619   1.045   4.455   2.966
   74CHL1    H9 6620   0.937   4.476   2.982
   74CHL1   C10 6621   1.063   4.439   2.811
   74CHL1   C19 6622   1.206   4.378   2.780
   74CHL1  H19A 6623   1.222   4.275   2.818
   74CHL1  H19B 6624   1.219   4.379   2.670
   74CHL1  H19C 6625   1.288   4.438   2.824
   74CHL1    C1 6626   0.948   4.352   2.752
   74CHL1   H1A 6627   0.949   4.247   2.786
   74CHL1   H1B 6628   0.858   4.406   2.791
   74CHL1    C2 6629   0.941   4.348   2.597
   74CHL1   H2A 6630   0.847   4.291   2.575
   74CHL1   H2B 6631   1.033   4.303   2.555
   74CHL1   C20 6632   1.123   4.435   3.521
   74CHL1   H20 6633   1.234   4.431   3.518
   74CHL1   C21 6634   1.071   4.289   3.512
   74CHL1  H21A 6635   1.070   4.230   3.607
   74CHL1  H21B 6636   1.135   4.224   3.450
   74CHL1  H21C 6637   0.967   4.295   3.473
   74CHL1   C22 6638   1.070   4.505   3.650
   74CHL1  H22A 6639   1.098   4.445   3.739
   74CHL1  H22B 6640   1.125   4.602   3.651
   74CHL1   C23 6641   0.920   4.528   3.662
   74CHL1  H23A 6642   0.898   4.601   3.581
   74CHL1  H23B 6643   0.861   4.440   3.627
   74CHL1   C24 6644   0.865   4.575   3.791
   74CHL1  H24A 6645   0.936   4.653   3.825
   74CHL1  H24B 6646   0.772   4.628   3.760
   74CHL1   C25 6647   0.834   4.487   3.907
   74CHL1   H25 6648   0.926   4.483   3.970
   74CHL1   C26 6649   0.728   4.558   3.994
   74CHL1  H26A 6650   0.636   4.596   3.944
   74CHL1  H26B 6651   0.703   4.486   4.075
   74CHL1  H26C 6652   0.768   4.648   4.045
   74CHL1   C27 6653   0.783   4.353   3.868
   74CHL1  H27A 6654   0.689   4.347   3.808
   74CHL1  H27B 6655   0.849   4.286   3.809
   74CHL1  H27C 6656   0.756   4.294   3.958
   75CHL1    C3 6657   0.769   3.367   2.540
   75CHL1    H3 6658   0.683   3.296   2.543
   75CHL1    O3 6659   0.800   3.371   2.400
   75CHL1   H3' 6660   0.849   3.452   2.387
   75CHL1    C4 6661   0.727   3.502   2.588
   75CHL1   H4A 6662   0.817   3.562   2.561
   75CHL1   H4B 6663   0.639   3.547   2.539
   75CHL1    C5 6664   0.714   3.508   2.737
   75CHL1    C6 6665   0.606   3.557   2.792
   75CHL1    H6 6666   0.549   3.620   2.721
   75CHL1    C7 6667   0.577   3.567   2.941
   75CHL1   H7A 6668   0.542   3.668   2.971
   75CHL1   H7B 6669   0.499   3.491   2.959
   75CHL1    C8 6670   0.702   3.539   3.025
   75CHL1    H8 6671   0.766   3.628   3.009
   75CHL1   C14 6672   0.662   3.517   3.166
   75CHL1   H14 6673   0.600   3.424   3.170
   75CHL1   C15 6674   0.575   3.617   3.238
   75CHL1  H15A 6675   0.612   3.716   3.204
   75CHL1  H15B 6676   0.467   3.608   3.213
   75CHL1   C16 6677   0.595   3.578   3.387
   75CHL1  H16A 6678   0.600   3.670   3.450
   75CHL1  H16B 6679   0.508   3.524   3.431
   75CHL1   C17 6680   0.708   3.478   3.401
   75CHL1   H17 6681   0.661   3.377   3.405
   75CHL1   C13 6682   0.774   3.489   3.263
   75CHL1   C18 6683   0.863   3.619   3.259
   75CHL1  H18A 6684   0.813   3.705   3.308
   75CHL1  H18B 6685   0.953   3.609   3.323
   75CHL1  H18C 6686   0.893   3.654   3.158
   75CHL1   C12 6687   0.849   3.362   3.209
   75CHL1  H12A 6688   0.943   3.348   3.266
   75CHL1  H12B 6689   0.786   3.271   3.217
   75CHL1   C11 6690   0.894   3.376   3.058
   75CHL1  H11A 6691   0.961   3.463   3.072
   75CHL1  H11B 6692   0.943   3.280   3.030
   75CHL1    C9 6693   0.777   3.415   2.967
   75CHL1    H9 6694   0.700   3.335   2.973
   75CHL1   C10 6695   0.823   3.441   2.823
   75CHL1   C19 6696   0.945   3.541   2.828
   75CHL1  H19A 6697   0.934   3.637   2.885
   75CHL1  H19B 6698   1.045   3.503   2.858
   75CHL1  H19C 6699   0.974   3.563   2.723
   75CHL1    C1 6700   0.870   3.312   2.764
   75CHL1   H1A 6701   0.957   3.279   2.824
   75CHL1   H1B 6702   0.797   3.231   2.785
   75CHL1    C2 6703   0.892   3.320   2.614
   75CHL1   H2A 6704   0.923   3.220   2.577
   75CHL1   H2B 6705   0.978   3.383   2.582
   75CHL1   C20 6706   0.794   3.499   3.529
   75CHL1   H20 6707   0.847   3.596   3.531
   75CHL1   C21 6708   0.906   3.395   3.534
   75CHL1  H21A 6709   0.959   3.399   3.631
   75CHL1  H21B 6710   0.985   3.417   3.459
   75CHL1  H21C 6711   0.859   3.294   3.531
   75CHL1   C22 6712   0.708   3.505   3.663
   75CHL1  H22A 6713   0.611   3.549   3.633
   75CHL1  H22B 6714   0.681   3.403   3.699
   75CHL1   C23 6715   0.782   3.584   3.775
   75CHL1  H23A 6716   0.871   3.525   3.805
   75CHL1  H23B 6717   0.807   3.681   3.727
   75CHL1   C24 6718   0.686   3.605   3.892
   75CHL1  H24A 6719   0.598   3.665   3.858
   75CHL1  H24B 6720   0.649   3.504   3.921
   75CHL1   C25 6721   0.755   3.662   4.015
   75CHL1   H25 6722   0.838   3.593   4.042
   75CHL1   C26 6723   0.830   3.793   3.982
   75CHL1  H26A 6724   0.764   3.866   3.932
   75CHL1  H26B 6725   0.883   3.843   4.066
   75CHL1  H26C 6726   0.901   3.764   3.902
   75CHL1   C27 6727   0.667   3.680   4.128
   75CHL1  H27A 6728   0.579   3.739   4.095
   75CHL1  H27B 6729   0.626   3.580   4.158
   75CHL1  H27C 6730   0.708   3.731   4.218
   76CHL1    C3 6731   6.468   5.172   3.074
   76CHL1    H3 6732   6.562   5.204   3.122
   76CHL1    O3 6733   6.500   5.159   2.932
   76CHL1   H3' 6734   6.438   5.094   2.899
   76CHL1    C4 6735   6.422   5.035   3.124
   76CHL1   H4A 6736   6.330   5.002   3.072
   76CHL1   H4B 6737   6.512   4.971   3.110
   76CHL1    C5 6738   6.379   5.037   3.268
   76CHL1    C6 6739   6.428   4.953   3.359
   76CHL1    H6 6740   6.493   4.871   3.324
   76CHL1    C7 6741   6.399   4.947   3.510
   76CHL1   H7A 6742   6.370   4.845   3.543
   76CHL1   H7B 6743   6.485   4.983   3.569
   76CHL1    C8 6744   6.273   5.030   3.534
   76CHL1    H8 6745   6.185   4.971   3.503
   76CHL1   C14 6746   6.272   5.067   3.680
   76CHL1   H14 6747   6.352   5.141   3.699
   76CHL1   C15 6748   6.291   4.956   3.780
   76CHL1  H15A 6749   6.223   4.871   3.762
   76CHL1  H15B 6750   6.396   4.920   3.791
   76CHL1   C16 6751   6.244   5.014   3.914
   76CHL1  H16A 6752   6.156   4.953   3.942
   76CHL1  H16B 6753   6.326   5.013   3.989
   76CHL1   C17 6754   6.180   5.147   3.878
   76CHL1   H17 6755   6.263   5.219   3.893
   76CHL1   C13 6756   6.144   5.138   3.725
   76CHL1   C18 6757   6.014   5.060   3.709
   76CHL1  H18A 6758   5.975   5.044   3.607
   76CHL1  H18B 6759   6.019   4.964   3.764
   76CHL1  H18C 6760   5.934   5.116   3.761
   76CHL1   C12 6761   6.140   5.277   3.656
   76CHL1  H12A 6762   6.052   5.342   3.677
   76CHL1  H12B 6763   6.230   5.336   3.684
   76CHL1   C11 6764   6.147   5.256   3.503
   76CHL1  H11A 6765   6.049   5.218   3.465
   76CHL1  H11B 6766   6.170   5.357   3.464
   76CHL1    C9 6767   6.264   5.160   3.454
   76CHL1    H9 6768   6.358   5.211   3.484
   76CHL1   C10 6769   6.275   5.150   3.298
   76CHL1   C19 6770   6.139   5.100   3.238
   76CHL1  H19A 6771   6.052   5.163   3.266
   76CHL1  H19B 6772   6.134   5.095   3.127
   76CHL1  H19C 6773   6.111   4.998   3.272
   76CHL1    C1 6774   6.322   5.290   3.251
   76CHL1   H1A 6775   6.245   5.366   3.272
   76CHL1   H1B 6776   6.415   5.330   3.297
   76CHL1    C2 6777   6.362   5.283   3.101
   76CHL1   H2A 6778   6.399   5.380   3.062
   76CHL1   H2B 6779   6.275   5.258   3.037
   76CHL1   C20 6780   6.072   5.189   3.982
   76CHL1   H20 6781   5.987   5.119   3.963
   76CHL1   C21 6782   6.016   5.332   3.955
   76CHL1  H21A 6783   5.963   5.349   3.859
   76CHL1  H21B 6784   6.107   5.395   3.945
   76CHL1  H21C 6785   5.959   5.371   4.042
   76CHL1   C22 6786   6.104   5.174   4.135
   76CHL1  H22A 6787   6.024   5.205   4.206
   76CHL1  H22B 6788   6.116   5.063   4.144
   76CHL1   C23 6789   6.237   5.246   4.180
   76CHL1  H23A 6790   6.317   5.185   4.133
   76CHL1  H23B 6791   6.250   5.344   4.131
   76CHL1   C24 6792   6.254   5.247   4.333
   76CHL1  H24A 6793   6.351   5.295   4.359
   76CHL1  H24B 6794   6.170   5.309   4.368
   76CHL1   C25 6795   6.246   5.111   4.409
   76CHL1   H25 6796   6.153   5.056   4.384
   76CHL1   C26 6797   6.365   5.019   4.382
   76CHL1  H26A 6798   6.456   5.081   4.397
   76CHL1  H26B 6799   6.362   4.935   4.455
   76CHL1  H26C 6800   6.368   4.979   4.279
   76CHL1   C27 6801   6.236   5.138   4.555
   76CHL1  H27A 6802   6.146   5.194   4.589
   76CHL1  H27B 6803   6.255   5.047   4.615
   76CHL1  H27C 6804   6.316   5.209   4.587
   77SOPE     N 6805   2.664   3.249   6.538
   77SOPE   HN1 6806   2.614   3.181   6.599
   77SOPE   HN2 6807   2.722   3.315   6.595
   77SOPE   HN3 6808   2.601   3.320   6.496
   77SOPE   C12 6809   2.755   3.176   6.440
   77SOPE  H12A 6810   2.686   3.139   6.361
   77SOPE  H12B 6811   2.797   3.093   6.501
   77SOPE   C11 6812   2.864   3.271   6.382
   77SOPE  H11A 6813   2.822   3.367   6.345
   77SOPE  H11B 6814   2.915   3.227   6.294
   77SOPE     P 6815   2.986   3.405   6.575
   77SOPE   O13 6816   3.076   3.373   6.681
   77SOPE   O14 6817   2.848   3.448   6.609
   77SOPE   O12 6818   2.970   3.278   6.478
   77SOPE   O11 6819   3.061   3.514   6.485
   77SOPE    C1 6820   3.207   3.516   6.461
   77SOPE    HA 6821   3.258   3.420   6.488
   77SOPE    HB 6822   3.257   3.588   6.529
   77SOPE    C2 6823   3.225   3.567   6.313
   77SOPE    HS 6824   3.160   3.655   6.296
   77SOPE   O21 6825   3.187   3.461   6.224
   77SOPE   C21 6826   3.129   3.497   6.107
   77SOPE   O22 6827   3.107   3.611   6.074
   77SOPE   C22 6828   3.074   3.376   6.046
   77SOPE   H2R 6829   2.987   3.354   6.111
   77SOPE   H2S 6830   3.146   3.291   6.052
   77SOPE    C3 6831   3.373   3.614   6.288
   77SOPE    HX 6832   3.414   3.512   6.306
   77SOPE    HY 6833   3.400   3.687   6.367
   77SOPE   O31 6834   3.401   3.657   6.156
   77SOPE   C31 6835   3.436   3.783   6.136
   77SOPE   O32 6836   3.430   3.870   6.217
   77SOPE   C32 6837   3.481   3.802   5.991
   77SOPE   H2X 6838   3.394   3.820   5.924
   77SOPE   H2Y 6839   3.542   3.715   5.958
   77SOPE   C23 6840   3.044   3.395   5.896
   77SOPE   H3R 6841   3.138   3.427   5.846
   77SOPE   H3S 6842   2.968   3.470   5.866
   77SOPE   C24 6843   3.021   3.260   5.825
   77SOPE   H4R 6844   3.107   3.193   5.844
   77SOPE   H4S 6845   2.935   3.209   5.874
   77SOPE   C25 6846   2.995   3.267   5.671
   77SOPE   H5R 6847   2.887   3.286   5.653
   77SOPE   H5S 6848   3.055   3.351   5.630
   77SOPE   C26 6849   3.033   3.139   5.596
   77SOPE   H6R 6850   3.141   3.111   5.601
   77SOPE   H6S 6851   2.979   3.061   5.655
   77SOPE   C27 6852   2.990   3.150   5.448
   77SOPE   H7R 6853   2.884   3.183   5.447
   77SOPE   H7S 6854   3.053   3.232   5.407
   77SOPE   C28 6855   3.017   3.017   5.366
   77SOPE   H8R 6856   3.129   3.016   5.366
   77SOPE   H8S 6857   2.975   2.944   5.439
   77SOPE   C29 6858   2.957   2.996   5.228
   77SOPE   H91 6859   2.857   2.949   5.224
   77SOPE  C210 6860   3.009   3.022   5.109
   77SOPE  H101 6861   2.945   2.996   5.024
   77SOPE  C211 6862   3.155   3.077   5.093
   77SOPE  H11R 6863   3.209   3.028   5.009
   77SOPE  H11S 6864   3.219   3.073   5.183
   77SOPE  C212 6865   3.148   3.225   5.049
   77SOPE  H12R 6866   3.244   3.278   5.061
   77SOPE  H12S 6867   3.089   3.289   5.118
   77SOPE  C213 6868   3.108   3.241   4.900
   77SOPE  H13R 6869   3.017   3.184   4.870
   77SOPE  H13S 6870   3.193   3.210   4.836
   77SOPE  C214 6871   3.080   3.389   4.864
   77SOPE  H14R 6872   3.180   3.438   4.860
   77SOPE  H14S 6873   3.023   3.445   4.942
   77SOPE  C215 6874   3.004   3.410   4.734
   77SOPE  H15R 6875   2.988   3.518   4.717
   77SOPE  H15S 6876   2.904   3.368   4.758
   77SOPE  C216 6877   3.082   3.357   4.616
   77SOPE  H16R 6878   3.094   3.247   4.617
   77SOPE  H16S 6879   3.189   3.386   4.620
   77SOPE  C217 6880   3.036   3.397   4.478
   77SOPE  H17R 6881   3.106   3.342   4.411
   77SOPE  H17S 6882   3.069   3.500   4.452
   77SOPE  C218 6883   2.896   3.369   4.440
   77SOPE  H18R 6884   2.826   3.440   4.490
   77SOPE  H18S 6885   2.875   3.264   4.470
   77SOPE  H18T 6886   2.884   3.379   4.330
   77SOPE   C33 6887   3.573   3.929   5.971
   77SOPE   H3X 6888   3.655   3.937   6.046
   77SOPE   H3Y 6889   3.510   4.020   5.984
   77SOPE   C34 6890   3.635   3.936   5.833
   77SOPE   H4X 6891   3.704   3.849   5.833
   77SOPE   H4Y 6892   3.687   4.031   5.810
   77SOPE   C35 6893   3.548   3.912   5.706
   77SOPE   H5X 6894   3.457   3.974   5.710
   77SOPE   H5Y 6895   3.509   3.808   5.710
   77SOPE   C36 6896   3.612   3.954   5.580
   77SOPE   H6X 6897   3.690   3.877   5.560
   77SOPE   H6Y 6898   3.656   4.055   5.589
   77SOPE   C37 6899   3.514   3.949   5.466
   77SOPE   H7X 6900   3.451   4.039   5.485
   77SOPE   H7Y 6901   3.448   3.860   5.458
   77SOPE   C38 6902   3.586   3.983   5.330
   77SOPE   H8X 6903   3.650   3.896   5.303
   77SOPE   H8Y 6904   3.653   4.068   5.357
   77SOPE   C39 6905   3.499   4.024   5.211
   77SOPE   H9X 6906   3.474   4.131   5.227
   77SOPE   H9Y 6907   3.404   3.967   5.216
   77SOPE  C310 6908   3.566   4.008   5.070
   77SOPE  H10X 6909   3.560   3.899   5.046
   77SOPE  H10Y 6910   3.674   4.031   5.082
   77SOPE  C311 6911   3.502   4.084   4.956
   77SOPE  H11X 6912   3.511   4.194   4.970
   77SOPE  H11Y 6913   3.396   4.058   4.971
   77SOPE  C312 6914   3.560   4.035   4.818
   77SOPE  H12X 6915   3.559   3.925   4.805
   77SOPE  H12Y 6916   3.668   4.056   4.809
   77SOPE  C313 6917   3.483   4.083   4.692
   77SOPE  H13X 6918   3.486   4.194   4.697
   77SOPE  H13Y 6919   3.376   4.056   4.701
   77SOPE  C314 6920   3.550   4.033   4.562
   77SOPE  H14X 6921   3.510   3.932   4.537
   77SOPE  H14Y 6922   3.660   4.033   4.576
   77SOPE  C315 6923   3.518   4.120   4.432
   77SOPE  H15X 6924   3.535   4.228   4.450
   77SOPE  H15Y 6925   3.410   4.105   4.410
   77SOPE  C316 6926   3.596   4.076   4.308
   77SOPE  H16X 6927   3.539   4.109   4.218
   77SOPE  H16Y 6928   3.587   3.965   4.305
   77SOPE  C317 6929   3.735   4.126   4.285
   77SOPE  H17X 6930   3.772   4.044   4.219
   77SOPE  H17Y 6931   3.804   4.140   4.370
   77SOPE  C318 6932   3.739   4.257   4.202
   77SOPE  H18X 6933   3.845   4.267   4.170
   77SOPE  H18Y 6934   3.714   4.344   4.267
   77SOPE  H18Z 6935   3.679   4.245   4.109
   78SOPE     N 6936   3.225   4.096   6.566
   78SOPE   HN1 6937   3.247   4.009   6.618
   78SOPE   HN2 6938   3.301   4.167   6.560
   78SOPE   HN3 6939   3.146   4.142   6.615
   78SOPE   C12 6940   3.188   4.044   6.427
   78SOPE  H12A 6941   3.279   4.031   6.365
   78SOPE  H12B 6942   3.121   4.109   6.367
   78SOPE   C11 6943   3.112   3.913   6.449
   78SOPE  H11A 6944   3.186   3.841   6.489
   78SOPE  H11B 6945   3.084   3.881   6.346
   78SOPE     P 6946   2.866   3.983   6.495
   78SOPE   O13 6947   2.891   4.118   6.440
   78SOPE   O14 6948   2.749   3.979   6.588
   78SOPE   O12 6949   3.002   3.927   6.545
   78SOPE   O11 6950   2.834   3.891   6.373
   78SOPE    C1 6951   2.847   3.749   6.368
   78SOPE    HA 6952   2.887   3.711   6.464
   78SOPE    HB 6953   2.929   3.721   6.299
   78SOPE    C2 6954   2.713   3.667   6.342
   78SOPE    HS 6955   2.728   3.558   6.354
   78SOPE   O21 6956   2.668   3.700   6.212
   78SOPE   C21 6957   2.723   3.634   6.112
   78SOPE   O22 6958   2.805   3.544   6.124
   78SOPE   C22 6959   2.667   3.692   5.984
   78SOPE   H2R 6960   2.693   3.800   5.970
   78SOPE   H2S 6961   2.556   3.688   5.985
   78SOPE    C3 6962   2.612   3.698   6.448
   78SOPE    HX 6963   2.619   3.809   6.443
   78SOPE    HY 6964   2.639   3.671   6.552
   78SOPE   O31 6965   2.479   3.664   6.401
   78SOPE   C31 6966   2.455   3.538   6.409
   78SOPE   O32 6967   2.536   3.450   6.445
   78SOPE   C32 6968   2.310   3.504   6.372
   78SOPE   H2X 6969   2.257   3.550   6.458
   78SOPE   H2Y 6970   2.306   3.394   6.377
   78SOPE   C23 6971   2.712   3.606   5.861
   78SOPE   H3R 6972   2.703   3.496   5.878
   78SOPE   H3S 6973   2.823   3.617   5.857
   78SOPE   C24 6974   2.650   3.669   5.740
   78SOPE   H4R 6975   2.541   3.648   5.734
   78SOPE   H4S 6976   2.666   3.779   5.745
   78SOPE   C25 6977   2.711   3.616   5.607
   78SOPE   H5R 6978   2.813   3.658   5.595
   78SOPE   H5S 6979   2.707   3.507   5.631
   78SOPE   C26 6980   2.640   3.648   5.475
   78SOPE   H6R 6981   2.534   3.620   5.495
   78SOPE   H6S 6982   2.650   3.758   5.462
   78SOPE   C27 6983   2.690   3.570   5.360
   78SOPE   H7R 6984   2.788   3.615   5.337
   78SOPE   H7S 6985   2.708   3.469   5.403
   78SOPE   C28 6986   2.589   3.565   5.238
   78SOPE   H8R 6987   2.514   3.483   5.252
   78SOPE   H8S 6988   2.531   3.660   5.236
   78SOPE   C29 6989   2.658   3.556   5.099
   78SOPE   H91 6990   2.658   3.650   5.043
   78SOPE  C210 6991   2.734   3.458   5.049
   78SOPE  H101 6992   2.775   3.472   4.948
   78SOPE  C211 6993   2.782   3.326   5.107
   78SOPE  H11R 6994   2.823   3.345   5.209
   78SOPE  H11S 6995   2.869   3.290   5.049
   78SOPE  C212 6996   2.681   3.213   5.126
   78SOPE  H12R 6997   2.603   3.247   5.196
   78SOPE  H12S 6998   2.723   3.124   5.178
   78SOPE  C213 6999   2.601   3.175   5.002
   78SOPE  H13R 7000   2.559   3.256   4.939
   78SOPE  H13S 7001   2.526   3.105   5.044
   78SOPE  C214 7002   2.676   3.073   4.916
   78SOPE  H14R 7003   2.711   2.986   4.976
   78SOPE  H14S 7004   2.766   3.116   4.868
   78SOPE  C215 7005   2.590   3.004   4.807
   78SOPE  H15R 7006   2.519   2.927   4.845
   78SOPE  H15S 7007   2.669   2.941   4.760
   78SOPE  C216 7008   2.516   3.108   4.711
   78SOPE  H16R 7009   2.587   3.193   4.719
   78SOPE  H16S 7010   2.420   3.154   4.742
   78SOPE  C217 7011   2.515   3.063   4.564
   78SOPE  H17R 7012   2.425   3.002   4.542
   78SOPE  H17S 7013   2.610   3.006   4.559
   78SOPE  C218 7014   2.519   3.181   4.467
   78SOPE  H18R 7015   2.419   3.229   4.476
   78SOPE  H18S 7016   2.548   3.148   4.365
   78SOPE  H18T 7017   2.600   3.253   4.489
   78SOPE   C33 7018   2.264   3.565   6.236
   78SOPE   H3X 7019   2.320   3.660   6.221
   78SOPE   H3Y 7020   2.154   3.581   6.242
   78SOPE   C34 7021   2.300   3.475   6.113
   78SOPE   H4X 7022   2.283   3.366   6.128
   78SOPE   H4Y 7023   2.410   3.475   6.098
   78SOPE   C35 7024   2.239   3.536   5.991
   78SOPE   H5X 7025   2.270   3.642   6.002
   78SOPE   H5Y 7026   2.128   3.540   5.995
   78SOPE   C36 7027   2.288   3.498   5.853
   78SOPE   H6X 7028   2.239   3.401   5.829
   78SOPE   H6Y 7029   2.398   3.490   5.843
   78SOPE   C37 7030   2.235   3.583   5.741
   78SOPE   H7X 7031   2.301   3.672   5.737
   78SOPE   H7Y 7032   2.128   3.608   5.757
   78SOPE   C38 7033   2.249   3.508   5.606
   78SOPE   H8X 7034   2.189   3.415   5.612
   78SOPE   H8Y 7035   2.352   3.473   5.585
   78SOPE   C39 7036   2.193   3.587   5.491
   78SOPE   H9X 7037   2.268   3.667   5.471
   78SOPE   H9Y 7038   2.098   3.633   5.524
   78SOPE  C310 7039   2.157   3.501   5.368
   78SOPE  H10X 7040   2.098   3.413   5.399
   78SOPE  H10Y 7041   2.256   3.481   5.322
   78SOPE  C311 7042   2.059   3.568   5.263
   78SOPE  H11X 7043   2.105   3.663   5.230
   78SOPE  H11Y 7044   1.965   3.599   5.314
   78SOPE  C312 7045   2.026   3.481   5.142
   78SOPE  H12X 7046   1.943   3.533   5.091
   78SOPE  H12Y 7047   1.977   3.388   5.178
   78SOPE  C313 7048   2.142   3.449   5.044
   78SOPE  H13X 7049   2.097   3.390   4.961
   78SOPE  H13Y 7050   2.197   3.367   5.096
   78SOPE  C314 7051   2.255   3.548   5.014
   78SOPE  H14X 7052   2.285   3.587   5.113
   78SOPE  H14Y 7053   2.215   3.631   4.952
   78SOPE  C315 7054   2.368   3.482   4.942
   78SOPE  H15X 7055   2.328   3.385   4.904
   78SOPE  H15Y 7056   2.449   3.438   5.004
   78SOPE  C316 7057   2.429   3.570   4.828
   78SOPE  H16X 7058   2.470   3.664   4.870
   78SOPE  H16Y 7059   2.355   3.606   4.753
   78SOPE  C317 7060   2.527   3.492   4.734
   78SOPE  H17X 7061   2.477   3.418   4.669
   78SOPE  H17Y 7062   2.598   3.448   4.807
   78SOPE  C318 7063   2.603   3.590   4.631
   78SOPE  H18X 7064   2.691   3.534   4.593
   78SOPE  H18Y 7065   2.648   3.675   4.685
   78SOPE  H18Z 7066   2.538   3.625   4.548
   79SOPE     N 7067   4.646   0.677   6.422
   79SOPE   HN1 7068   4.608   0.584   6.450
   79SOPE   HN2 7069   4.565   0.742   6.425
   79SOPE   HN3 7070   4.697   0.663   6.332
   79SOPE   C12 7071   4.741   0.715   6.523
   79SOPE  H12A 7072   4.757   0.824   6.512
   79SOPE  H12B 7073   4.840   0.667   6.503
   79SOPE   C11 7074   4.690   0.674   6.661
   79SOPE  H11A 7075   4.757   0.731   6.730
   79SOPE  H11B 7076   4.701   0.564   6.670
   79SOPE     P 7077   4.508   0.866   6.673
   79SOPE   O13 7078   4.608   0.968   6.706
   79SOPE   O14 7079   4.374   0.880   6.736
   79SOPE   O12 7080   4.563   0.721   6.692
   79SOPE   O11 7081   4.496   0.869   6.514
   79SOPE    C1 7082   4.385   0.922   6.454
   79SOPE    HA 7083   4.419   0.999   6.381
   79SOPE    HB 7084   4.314   0.985   6.512
   79SOPE    C2 7085   4.308   0.815   6.376
   79SOPE    HS 7086   4.280   0.738   6.451
   79SOPE   O21 7087   4.396   0.748   6.275
   79SOPE   C21 7088   4.344   0.656   6.200
   79SOPE   O22 7089   4.242   0.591   6.215
   79SOPE   C22 7090   4.451   0.629   6.083
   79SOPE   H2R 7091   4.449   0.520   6.063
   79SOPE   H2S 7092   4.552   0.655   6.120
   79SOPE    C3 7093   4.183   0.881   6.316
   79SOPE    HX 7094   4.109   0.914   6.391
   79SOPE    HY 7095   4.123   0.808   6.258
   79SOPE   O31 7096   4.226   0.982   6.218
   79SOPE   C31 7097   4.157   1.097   6.220
   79SOPE   O32 7098   4.070   1.120   6.298
   79SOPE   C32 7099   4.188   1.192   6.114
   79SOPE   H2X 7100   4.297   1.213   6.115
   79SOPE   H2Y 7101   4.130   1.285   6.133
   79SOPE   C23 7102   4.437   0.727   5.961
   79SOPE   H3R 7103   4.338   0.723   5.911
   79SOPE   H3S 7104   4.513   0.693   5.888
   79SOPE   C24 7105   4.476   0.868   5.998
   79SOPE   H4R 7106   4.403   0.891   6.079
   79SOPE   H4S 7107   4.583   0.866   6.025
   79SOPE   C25 7108   4.464   0.964   5.875
   79SOPE   H5R 7109   4.382   0.934   5.808
   79SOPE   H5S 7110   4.456   1.068   5.914
   79SOPE   C26 7111   4.597   0.968   5.805
   79SOPE   H6R 7112   4.673   0.987   5.883
   79SOPE   H6S 7113   4.612   0.873   5.747
   79SOPE   C27 7114   4.599   1.083   5.699
   79SOPE   H7R 7115   4.510   1.078   5.633
   79SOPE   H7S 7116   4.584   1.178   5.755
   79SOPE   C28 7117   4.728   1.108   5.629
   79SOPE   H8R 7118   4.741   1.215   5.599
   79SOPE   H8S 7119   4.803   1.096   5.711
   79SOPE   C29 7120   4.749   1.015   5.511
   79SOPE   H91 7121   4.665   0.945   5.496
   79SOPE  C210 7122   4.850   1.022   5.419
   79SOPE  H101 7123   4.854   0.948   5.337
   79SOPE  C211 7124   4.974   1.110   5.411
   79SOPE  H11R 7125   5.062   1.042   5.422
   79SOPE  H11S 7126   4.984   1.172   5.503
   79SOPE  C212 7127   4.972   1.187   5.278
   79SOPE  H12R 7128   4.866   1.216   5.269
   79SOPE  H12S 7129   5.002   1.110   5.204
   79SOPE  C213 7130   5.058   1.313   5.273
   79SOPE  H13R 7131   5.153   1.281   5.320
   79SOPE  H13S 7132   5.016   1.392   5.339
   79SOPE  C214 7133   5.075   1.358   5.125
   79SOPE  H14R 7134   5.116   1.271   5.069
   79SOPE  H14S 7135   5.154   1.435   5.127
   79SOPE  C215 7136   4.944   1.411   5.073
   79SOPE  H15R 7137   4.891   1.481   5.140
   79SOPE  H15S 7138   4.870   1.329   5.058
   79SOPE  C216 7139   4.967   1.497   4.935
   79SOPE  H16R 7140   4.891   1.489   4.855
   79SOPE  H16S 7141   5.070   1.481   4.895
   79SOPE  C217 7142   4.962   1.653   4.961
   79SOPE  H17R 7143   5.001   1.705   4.871
   79SOPE  H17S 7144   5.028   1.688   5.043
   79SOPE  C218 7145   4.824   1.716   4.983
   79SOPE  H18R 7146   4.827   1.827   4.979
   79SOPE  H18S 7147   4.774   1.682   5.076
   79SOPE  H18T 7148   4.762   1.686   4.895
   79SOPE   C33 7149   4.153   1.133   5.976
   79SOPE   H3X 7150   4.051   1.089   5.975
   79SOPE   H3Y 7151   4.222   1.054   5.937
   79SOPE   C34 7152   4.143   1.247   5.884
   79SOPE   H4X 7153   4.236   1.308   5.890
   79SOPE   H4Y 7154   4.069   1.313   5.934
   79SOPE   C35 7155   4.099   1.216   5.739
   79SOPE   H5X 7156   4.074   1.309   5.683
   79SOPE   H5Y 7157   4.008   1.153   5.745
   79SOPE   C36 7158   4.207   1.138   5.656
   79SOPE   H6X 7159   4.276   1.076   5.717
   79SOPE   H6Y 7160   4.268   1.218   5.608
   79SOPE   C37 7161   4.142   1.052   5.541
   79SOPE   H7X 7162   4.098   1.121   5.466
   79SOPE   H7Y 7163   4.062   0.986   5.581
   79SOPE   C38 7164   4.250   0.976   5.457
   79SOPE   H8X 7165   4.188   0.904   5.399
   79SOPE   H8Y 7166   4.316   0.913   5.521
   79SOPE   C39 7167   4.335   1.056   5.355
   79SOPE   H9X 7168   4.400   1.120   5.418
   79SOPE   H9Y 7169   4.262   1.112   5.293
   79SOPE  C310 7170   4.418   0.971   5.265
   79SOPE  H10X 7171   4.355   0.927   5.185
   79SOPE  H10Y 7172   4.480   0.890   5.310
   79SOPE  C311 7173   4.522   1.046   5.178
   79SOPE  H11X 7174   4.579   1.116   5.243
   79SOPE  H11Y 7175   4.471   1.111   5.103
   79SOPE  C312 7176   4.627   0.946   5.117
   79SOPE  H12X 7177   4.582   0.868   5.051
   79SOPE  H12Y 7178   4.691   0.902   5.197
   79SOPE  C313 7179   4.712   1.024   5.018
   79SOPE  H13X 7180   4.755   1.116   5.063
   79SOPE  H13Y 7181   4.646   1.059   4.935
   79SOPE  C314 7182   4.831   0.942   4.960
   79SOPE  H14X 7183   4.799   0.859   4.893
   79SOPE  H14Y 7184   4.882   0.890   5.044
   79SOPE  C315 7185   4.931   1.035   4.895
   79SOPE  H15X 7186   4.948   1.118   4.967
   79SOPE  H15Y 7187   4.883   1.085   4.808
   79SOPE  C316 7188   5.073   0.986   4.863
   79SOPE  H16X 7189   5.120   0.951   4.957
   79SOPE  H16Y 7190   5.133   1.065   4.813
   79SOPE  C317 7191   5.068   0.873   4.765
   79SOPE  H17X 7192   5.003   0.900   4.679
   79SOPE  H17Y 7193   5.027   0.783   4.816
   79SOPE  C318 7194   5.204   0.829   4.694
   79SOPE  H18X 7195   5.277   0.828   4.778
   79SOPE  H18Y 7196   5.245   0.901   4.619
   79SOPE  H18Z 7197   5.198   0.725   4.656
   80SOPE     N 7198   1.787   4.254   6.369
   80SOPE   HN1 7199   1.836   4.246   6.278
   80SOPE   HN2 7200   1.821   4.345   6.407
   80SOPE   HN3 7201   1.813   4.173   6.429
   80SOPE   C12 7202   1.637   4.260   6.337
   80SOPE  H12A 7203   1.610   4.354   6.284
   80SOPE  H12B 7204   1.583   4.272   6.433
   80SOPE   C11 7205   1.597   4.125   6.270
   80SOPE  H11A 7206   1.642   4.119   6.169
   80SOPE  H11B 7207   1.486   4.127   6.264
   80SOPE     P 7208   1.600   3.865   6.305
   80SOPE   O13 7209   1.462   3.882   6.258
   80SOPE   O14 7210   1.615   3.779   6.427
   80SOPE   O12 7211   1.650   4.012   6.346
   80SOPE   O11 7212   1.694   3.819   6.189
   80SOPE    C1 7213   1.836   3.845   6.207
   80SOPE    HA 7214   1.885   3.759   6.257
   80SOPE    HB 7215   1.862   3.942   6.256
   80SOPE    C2 7216   1.905   3.841   6.071
   80SOPE    HS 7217   1.869   3.927   6.011
   80SOPE   O21 7218   1.876   3.718   6.003
   80SOPE   C21 7219   1.860   3.723   5.868
   80SOPE   O22 7220   1.861   3.831   5.809
   80SOPE   C22 7221   1.830   3.584   5.811
   80SOPE   H2R 7222   1.736   3.538   5.849
   80SOPE   H2S 7223   1.910   3.518   5.850
   80SOPE    C3 7224   2.061   3.867   6.084
   80SOPE    HX 7225   2.099   3.777   6.138
   80SOPE    HY 7226   2.081   3.951   6.154
   80SOPE   O31 7227   2.126   3.884   5.958
   80SOPE   C31 7228   2.120   4.010   5.904
   80SOPE   O32 7229   2.066   4.103   5.961
   80SOPE   C32 7230   2.182   3.992   5.762
   80SOPE   H2X 7231   2.151   4.082   5.704
   80SOPE   H2Y 7232   2.124   3.914   5.708
   80SOPE   C23 7233   1.816   3.594   5.657
   80SOPE   H3R 7234   1.843   3.491   5.623
   80SOPE   H3S 7235   1.895   3.662   5.619
   80SOPE   C24 7236   1.677   3.634   5.614
   80SOPE   H4R 7237   1.608   3.566   5.667
   80SOPE   H4S 7238   1.646   3.737   5.639
   80SOPE   C25 7239   1.660   3.599   5.466
   80SOPE   H5R 7240   1.735   3.655   5.407
   80SOPE   H5S 7241   1.681   3.490   5.453
   80SOPE   C26 7242   1.518   3.618   5.418
   80SOPE   H6R 7243   1.449   3.563   5.485
   80SOPE   H6S 7244   1.494   3.726   5.409
   80SOPE   C27 7245   1.496   3.569   5.273
   80SOPE   H7R 7246   1.570   3.613   5.204
   80SOPE   H7S 7247   1.532   3.464   5.267
   80SOPE   C28 7248   1.352   3.598   5.218
   80SOPE   H8R 7249   1.279   3.570   5.297
   80SOPE   H8S 7250   1.340   3.707   5.199
   80SOPE   C29 7251   1.318   3.524   5.092
   80SOPE   H91 7252   1.316   3.415   5.103
   80SOPE  C210 7253   1.293   3.583   4.976
   80SOPE  H101 7254   1.247   3.517   4.901
   80SOPE  C211 7255   1.287   3.733   4.953
   80SOPE  H11R 7256   1.386   3.778   4.971
   80SOPE  H11S 7257   1.195   3.779   4.996
   80SOPE  C212 7258   1.256   3.762   4.804
   80SOPE  H12R 7259   1.155   3.727   4.777
   80SOPE  H12S 7260   1.330   3.693   4.757
   80SOPE  C213 7261   1.275   3.901   4.758
   80SOPE  H13R 7262   1.376   3.943   4.777
   80SOPE  H13S 7263   1.197   3.971   4.796
   80SOPE  C214 7264   1.268   3.900   4.609
   80SOPE  H14R 7265   1.160   3.907   4.584
   80SOPE  H14S 7266   1.302   3.808   4.556
   80SOPE  C215 7267   1.337   4.026   4.541
   80SOPE  H15R 7268   1.343   4.010   4.432
   80SOPE  H15S 7269   1.441   4.014   4.579
   80SOPE  C216 7270   1.270   4.159   4.577
   80SOPE  H16R 7271   1.336   4.248   4.566
   80SOPE  H16S 7272   1.231   4.157   4.681
   80SOPE  C217 7273   1.159   4.187   4.481
   80SOPE  H17R 7274   1.091   4.257   4.533
   80SOPE  H17S 7275   1.105   4.093   4.458
   80SOPE  C218 7276   1.201   4.242   4.348
   80SOPE  H18R 7277   1.112   4.298   4.313
   80SOPE  H18S 7278   1.247   4.159   4.291
   80SOPE  H18T 7279   1.282   4.318   4.363
   80SOPE   C33 7280   2.331   3.964   5.761
   80SOPE   H3X 7281   2.358   3.878   5.827
   80SOPE   H3Y 7282   2.379   4.054   5.805
   80SOPE   C34 7283   2.393   3.935   5.620
   80SOPE   H4X 7284   2.343   3.838   5.599
   80SOPE   H4Y 7285   2.499   3.915   5.645
   80SOPE   C35 7286   2.380   4.043   5.510
   80SOPE   H5X 7287   2.389   4.142   5.561
   80SOPE   H5Y 7288   2.281   4.033   5.460
   80SOPE   C36 7289   2.504   4.031   5.413
   80SOPE   H6X 7290   2.543   3.928   5.420
   80SOPE   H6Y 7291   2.584   4.086   5.468
   80SOPE   C37 7292   2.493   4.078   5.267
   80SOPE   H7X 7293   2.594   4.073   5.220
   80SOPE   H7Y 7294   2.469   4.186   5.274
   80SOPE   C38 7295   2.384   4.005   5.192
   80SOPE   H8X 7296   2.278   4.020   5.225
   80SOPE   H8Y 7297   2.404   3.897   5.202
   80SOPE   C39 7298   2.386   4.043   5.043
   80SOPE   H9X 7299   2.489   4.051   5.001
   80SOPE   H9Y 7300   2.337   4.143   5.036
   80SOPE  C310 7301   2.292   3.955   4.954
   80SOPE  H10X 7302   2.194   3.955   5.006
   80SOPE  H10Y 7303   2.335   3.852   4.955
   80SOPE  C311 7304   2.275   3.995   4.811
   80SOPE  H11X 7305   2.227   4.095   4.808
   80SOPE  H11Y 7306   2.200   3.937   4.753
   80SOPE  C312 7307   2.402   4.029   4.725
   80SOPE  H12X 7308   2.500   4.023   4.777
   80SOPE  H12Y 7309   2.406   4.134   4.689
   80SOPE  C313 7310   2.391   3.944   4.591
   80SOPE  H13X 7311   2.286   3.953   4.554
   80SOPE  H13Y 7312   2.408   3.836   4.606
   80SOPE  C314 7313   2.472   4.012   4.479
   80SOPE  H14X 7314   2.579   4.007   4.508
   80SOPE  H14Y 7315   2.452   4.121   4.472
   80SOPE  C315 7316   2.446   3.947   4.341
   80SOPE  H15X 7317   2.354   3.983   4.291
   80SOPE  H15Y 7318   2.436   3.840   4.368
   80SOPE  C316 7319   2.566   3.961   4.242
   80SOPE  H16X 7320   2.627   4.053   4.260
   80SOPE  H16Y 7321   2.520   3.991   4.146
   80SOPE  C317 7322   2.657   3.836   4.216
   80SOPE  H17X 7323   2.706   3.815   4.314
   80SOPE  H17Y 7324   2.740   3.853   4.144
   80SOPE  C318 7325   2.577   3.710   4.169
   80SOPE  H18X 7326   2.499   3.678   4.242
   80SOPE  H18Y 7327   2.652   3.629   4.157
   80SOPE  H18Z 7328   2.527   3.738   4.073
   81SOPE     N 7329   5.324   1.145   6.935
   81SOPE   HN1 7330   5.339   1.052   6.979
   81SOPE   HN2 7331   5.373   1.142   6.843
   81SOPE   HN3 7332   5.358   1.221   6.997
   81SOPE   C12 7333   5.182   1.165   6.900
   81SOPE  H12A 7334   5.146   1.266   6.872
   81SOPE  H12B 7335   5.122   1.140   6.991
   81SOPE   C11 7336   5.151   1.073   6.779
   81SOPE  H11A 7337   5.216   1.115   6.698
   81SOPE  H11B 7338   5.043   1.080   6.752
   81SOPE     P 7339   5.091   0.810   6.774
   81SOPE   O13 7340   4.971   0.815   6.859
   81SOPE   O14 7341   5.168   0.682   6.779
   81SOPE   O12 7342   5.192   0.936   6.806
   81SOPE   O11 7343   5.048   0.841   6.624
   81SOPE    C1 7344   5.141   0.868   6.522
   81SOPE    HA 7345   5.225   0.795   6.519
   81SOPE    HB 7346   5.188   0.968   6.518
   81SOPE    C2 7347   5.078   0.875   6.374
   81SOPE    HS 7348   5.147   0.933   6.309
   81SOPE   O21 7349   4.950   0.935   6.373
   81SOPE   C21 7350   4.952   1.061   6.407
   81SOPE   O22 7351   5.049   1.133   6.427
   81SOPE   C22 7352   4.807   1.112   6.412
   81SOPE   H2R 7353   4.803   1.221   6.432
   81SOPE   H2S 7354   4.759   1.056   6.495
   81SOPE    C3 7355   5.072   0.734   6.308
   81SOPE    HX 7356   5.000   0.665   6.356
   81SOPE    HY 7357   5.171   0.684   6.316
   81SOPE   O31 7358   5.045   0.764   6.170
   81SOPE   C31 7359   4.914   0.773   6.134
   81SOPE   O32 7360   4.812   0.746   6.197
   81SOPE   C32 7361   4.918   0.829   5.994
   81SOPE   H2X 7362   4.838   0.906   5.987
   81SOPE   H2Y 7363   4.884   0.747   5.926
   81SOPE   C23 7364   4.724   1.074   6.284
   81SOPE   H3R 7365   4.618   1.094   6.311
   81SOPE   H3S 7366   4.725   0.967   6.252
   81SOPE   C24 7367   4.734   1.159   6.155
   81SOPE   H4R 7368   4.698   1.106   6.064
   81SOPE   H4S 7369   4.672   1.251   6.151
   81SOPE   C25 7370   4.876   1.200   6.117
   81SOPE   H5R 7371   4.912   1.265   6.200
   81SOPE   H5S 7372   4.945   1.115   6.099
   81SOPE   C26 7373   4.891   1.292   5.990
   81SOPE   H6R 7374   4.836   1.255   5.901
   81SOPE   H6S 7375   4.837   1.385   6.019
   81SOPE   C27 7376   5.036   1.322   5.951
   81SOPE   H7R 7377   5.100   1.332   6.041
   81SOPE   H7S 7378   5.072   1.226   5.907
   81SOPE   C28 7379   5.055   1.437   5.841
   81SOPE   H8R 7380   5.164   1.455   5.829
   81SOPE   H8S 7381   5.008   1.400   5.748
   81SOPE   C29 7382   4.994   1.558   5.894
   81SOPE   H91 7383   5.004   1.568   6.003
   81SOPE  C210 7384   4.922   1.650   5.834
   81SOPE  H101 7385   4.891   1.743   5.884
   81SOPE  C211 7386   4.889   1.661   5.686
   81SOPE  H11R 7387   4.780   1.662   5.665
   81SOPE  H11S 7388   4.934   1.573   5.637
   81SOPE  C212 7389   4.962   1.781   5.618
   81SOPE  H12R 7390   5.070   1.763   5.602
   81SOPE  H12S 7391   4.955   1.876   5.675
   81SOPE  C213 7392   4.893   1.796   5.472
   81SOPE  H13R 7393   4.782   1.800   5.471
   81SOPE  H13S 7394   4.926   1.711   5.410
   81SOPE  C214 7395   4.936   1.920   5.396
   81SOPE  H14R 7396   5.042   1.949   5.410
   81SOPE  H14S 7397   4.888   2.003   5.452
   81SOPE  C215 7398   4.914   1.926   5.243
   81SOPE  H15R 7399   4.805   1.919   5.224
   81SOPE  H15S 7400   4.971   1.840   5.202
   81SOPE  C216 7401   4.963   2.062   5.191
   81SOPE  H16R 7402   5.050   2.098   5.250
   81SOPE  H16S 7403   4.882   2.137   5.208
   81SOPE  C217 7404   5.033   2.050   5.050
   81SOPE  H17R 7405   4.958   2.051   4.967
   81SOPE  H17S 7406   5.081   1.951   5.042
   81SOPE  C218 7407   5.139   2.158   5.016
   81SOPE  H18R 7408   5.096   2.252   4.974
   81SOPE  H18S 7409   5.199   2.111   4.935
   81SOPE  H18T 7410   5.209   2.184   5.098
   81SOPE   C33 7411   5.054   0.887   5.947
   81SOPE   H3X 7412   5.134   0.814   5.972
   81SOPE   H3Y 7413   5.074   0.978   6.008
   81SOPE   C34 7414   5.076   0.925   5.803
   81SOPE   H4X 7415   5.002   1.005   5.781
   81SOPE   H4Y 7416   5.075   0.841   5.731
   81SOPE   C35 7417   5.219   0.976   5.784
   81SOPE   H5X 7418   5.284   0.886   5.792
   81SOPE   H5Y 7419   5.242   1.046   5.867
   81SOPE   C36 7420   5.239   1.041   5.652
   81SOPE   H6X 7421   5.156   1.113   5.638
   81SOPE   H6Y 7422   5.233   0.959   5.577
   81SOPE   C37 7423   5.366   1.129   5.642
   81SOPE   H7X 7424   5.459   1.068   5.637
   81SOPE   H7Y 7425   5.372   1.164   5.747
   81SOPE   C38 7426   5.355   1.244   5.551
   81SOPE   H8X 7427   5.383   1.332   5.613
   81SOPE   H8Y 7428   5.254   1.258   5.509
   81SOPE   C39 7429   5.456   1.234   5.427
   81SOPE   H9X 7430   5.556   1.233   5.475
   81SOPE   H9Y 7431   5.437   1.328   5.370
   81SOPE  C310 7432   5.446   1.113   5.337
   81SOPE  H10X 7433   5.342   1.085   5.312
   81SOPE  H10Y 7434   5.492   1.023   5.383
   81SOPE  C311 7435   5.514   1.143   5.202
   81SOPE  H11X 7436   5.613   1.185   5.232
   81SOPE  H11Y 7437   5.460   1.224   5.147
   81SOPE  C312 7438   5.545   1.014   5.123
   81SOPE  H12X 7439   5.449   0.958   5.120
   81SOPE  H12Y 7440   5.618   0.950   5.177
   81SOPE  C313 7441   5.583   1.041   4.977
   81SOPE  H13X 7442   5.686   1.081   4.965
   81SOPE  H13Y 7443   5.509   1.112   4.934
   81SOPE  C314 7444   5.583   0.911   4.900
   81SOPE  H14X 7445   5.492   0.851   4.925
   81SOPE  H14Y 7446   5.670   0.850   4.933
   81SOPE  C315 7447   5.603   0.936   4.749
   81SOPE  H15X 7448   5.700   0.988   4.732
   81SOPE  H15Y 7449   5.517   0.992   4.706
   81SOPE  C316 7450   5.599   0.805   4.662
   81SOPE  H16X 7451   5.497   0.763   4.668
   81SOPE  H16Y 7452   5.682   0.738   4.692
   81SOPE  C317 7453   5.619   0.841   4.514
   81SOPE  H17X 7454   5.712   0.900   4.497
   81SOPE  H17Y 7455   5.533   0.900   4.475
   81SOPE  C318 7456   5.640   0.711   4.438
   81SOPE  H18X 7457   5.733   0.664   4.477
   81SOPE  H18Y 7458   5.657   0.729   4.329
   81SOPE  H18Z 7459   5.548   0.655   4.464
   82SOPE     N 7460   1.832   1.123   6.602
   82SOPE   HN1 7461   1.833   1.106   6.705
   82SOPE   HN2 7462   1.869   1.037   6.557
   82SOPE   HN3 7463   1.892   1.203   6.574
   82SOPE   C12 7464   1.695   1.140   6.548
   82SOPE  H12A 7465   1.656   1.244   6.557
   82SOPE  H12B 7466   1.638   1.084   6.625
   82SOPE   C11 7467   1.694   1.091   6.403
   82SOPE  H11A 7468   1.751   1.171   6.352
   82SOPE  H11B 7469   1.589   1.080   6.367
   82SOPE     P 7470   1.817   0.908   6.253
   82SOPE   O13 7471   1.735   0.785   6.228
   82SOPE   O14 7472   1.968   0.901   6.248
   82SOPE   O12 7473   1.778   0.976   6.388
   82SOPE   O11 7474   1.774   1.018   6.153
   82SOPE    C1 7475   1.649   1.012   6.084
   82SOPE    HA 7476   1.617   1.115   6.057
   82SOPE    HB 7477   1.564   0.963   6.136
   82SOPE    C2 7478   1.652   0.950   5.947
   82SOPE    HS 7479   1.676   0.842   5.954
   82SOPE   O21 7480   1.750   1.017   5.865
   82SOPE   C21 7481   1.865   0.957   5.845
   82SOPE   O22 7482   1.890   0.845   5.891
   82SOPE   C22 7483   1.967   1.045   5.769
   82SOPE   H2R 7484   2.037   1.088   5.844
   82SOPE   H2S 7485   1.916   1.119   5.704
   82SOPE    C3 7486   1.522   0.968   5.865
   82SOPE    HX 7487   1.503   1.077   5.872
   82SOPE    HY 7488   1.439   0.918   5.919
   82SOPE   O31 7489   1.521   0.927   5.734
   82SOPE   C31 7490   1.551   0.795   5.709
   82SOPE   O32 7491   1.575   0.714   5.789
   82SOPE   C32 7492   1.565   0.792   5.559
   82SOPE   H2X 7493   1.667   0.824   5.532
   82SOPE   H2Y 7494   1.491   0.863   5.516
   82SOPE   C23 7495   2.054   0.960   5.680
   82SOPE   H3R 7496   2.081   0.862   5.725
   82SOPE   H3S 7497   2.153   1.011   5.680
   82SOPE   C24 7498   1.989   0.935   5.541
   82SOPE   H4R 7499   1.899   0.873   5.563
   82SOPE   H4S 7500   1.952   1.024   5.487
   82SOPE   C25 7501   2.074   0.844   5.454
   82SOPE   H5R 7502   2.159   0.899   5.409
   82SOPE   H5S 7503   2.120   0.777   5.531
   82SOPE   C26 7504   1.991   0.768   5.350
   82SOPE   H6R 7505   1.904   0.722   5.402
   82SOPE   H6S 7506   1.965   0.864   5.300
   82SOPE   C27 7507   2.049   0.657   5.261
   82SOPE   H7R 7508   2.063   0.561   5.316
   82SOPE   H7S 7509   1.988   0.638   5.170
   82SOPE   C28 7510   2.196   0.694   5.213
   82SOPE   H8R 7511   2.200   0.801   5.184
   82SOPE   H8S 7512   2.274   0.686   5.292
   82SOPE   C29 7513   2.245   0.604   5.102
   82SOPE   H91 7514   2.312   0.523   5.133
   82SOPE  C210 7515   2.232   0.617   4.972
   82SOPE  H101 7516   2.271   0.533   4.912
   82SOPE  C211 7517   2.156   0.729   4.914
   82SOPE  H11R 7518   2.140   0.809   4.990
   82SOPE  H11S 7519   2.058   0.698   4.873
   82SOPE  C212 7520   2.230   0.800   4.801
   82SOPE  H12R 7521   2.338   0.817   4.822
   82SOPE  H12S 7522   2.186   0.902   4.801
   82SOPE  C213 7523   2.215   0.731   4.663
   82SOPE  H13R 7524   2.109   0.709   4.640
   82SOPE  H13S 7525   2.271   0.635   4.668
   82SOPE  C214 7526   2.284   0.825   4.567
   82SOPE  H14R 7527   2.392   0.843   4.588
   82SOPE  H14S 7528   2.238   0.926   4.576
   82SOPE  C215 7529   2.259   0.779   4.413
   82SOPE  H15R 7530   2.320   0.851   4.353
   82SOPE  H15S 7531   2.157   0.810   4.381
   82SOPE  C216 7532   2.283   0.629   4.390
   82SOPE  H16R 7533   2.217   0.565   4.452
   82SOPE  H16S 7534   2.392   0.608   4.402
   82SOPE  C217 7535   2.253   0.597   4.240
   82SOPE  H17R 7536   2.329   0.656   4.184
   82SOPE  H17S 7537   2.155   0.636   4.204
   82SOPE  C218 7538   2.259   0.449   4.201
   82SOPE  H18R 7539   2.238   0.436   4.092
   82SOPE  H18S 7540   2.189   0.388   4.262
   82SOPE  H18T 7541   2.362   0.410   4.218
   82SOPE   C33 7542   1.543   0.652   5.500
   82SOPE   H3X 7543   1.440   0.609   5.496
   82SOPE   H3Y 7544   1.601   0.577   5.557
   82SOPE   C34 7545   1.596   0.646   5.358
   82SOPE   H4X 7546   1.577   0.544   5.317
   82SOPE   H4Y 7547   1.707   0.648   5.356
   82SOPE   C35 7548   1.536   0.753   5.266
   82SOPE   H5X 7549   1.577   0.853   5.290
   82SOPE   H5Y 7550   1.427   0.754   5.289
   82SOPE   C36 7551   1.556   0.730   5.114
   82SOPE   H6X 7552   1.490   0.800   5.059
   82SOPE   H6Y 7553   1.520   0.626   5.094
   82SOPE   C37 7554   1.707   0.767   5.078
   82SOPE   H7X 7555   1.779   0.704   5.135
   82SOPE   H7Y 7556   1.729   0.870   5.113
   82SOPE   C38 7557   1.746   0.756   4.933
   82SOPE   H8X 7558   1.842   0.809   4.913
   82SOPE   H8Y 7559   1.671   0.811   4.873
   82SOPE   C39 7560   1.750   0.607   4.867
   82SOPE   H9X 7561   1.655   0.550   4.879
   82SOPE   H9Y 7562   1.825   0.557   4.933
   82SOPE  C310 7563   1.775   0.616   4.712
   82SOPE  H10X 7564   1.873   0.667   4.700
   82SOPE  H10Y 7565   1.698   0.673   4.655
   82SOPE  C311 7566   1.779   0.481   4.650
   82SOPE  H11X 7567   1.685   0.423   4.661
   82SOPE  H11Y 7568   1.858   0.422   4.702
   82SOPE  C312 7569   1.819   0.493   4.505
   82SOPE  H12X 7570   1.912   0.551   4.491
   82SOPE  H12Y 7571   1.740   0.553   4.454
   82SOPE  C313 7572   1.825   0.355   4.436
   82SOPE  H13X 7573   1.728   0.302   4.426
   82SOPE  H13Y 7574   1.895   0.283   4.484
   82SOPE  C314 7575   1.873   0.374   4.293
   82SOPE  H14X 7576   1.974   0.420   4.283
   82SOPE  H14Y 7577   1.814   0.442   4.229
   82SOPE  C315 7578   1.887   0.242   4.215
   82SOPE  H15X 7579   1.910   0.276   4.112
   82SOPE  H15Y 7580   1.791   0.188   4.220
   82SOPE  C316 7581   1.988   0.141   4.247
   82SOPE  H16X 7582   1.983   0.116   4.356
   82SOPE  H16Y 7583   2.090   0.181   4.227
   82SOPE  C317 7584   1.984   0.008   4.172
   82SOPE  H17X 7585   2.021   0.023   4.069
   82SOPE  H17Y 7586   1.878   6.888   4.157
   82SOPE  C318 7587   2.043   6.795   4.241
   82SOPE  H18X 7588   2.046   6.714   4.165
   82SOPE  H18Y 7589   1.975   6.758   4.321
   82SOPE  H18Z 7590   2.142   6.820   4.284
   83SOPE     N 7591   1.575   2.560   1.536
   83SOPE   HN1 7592   1.545   2.467   1.573
   83SOPE   HN2 7593   1.564   2.560   1.433
   83SOPE   HN3 7594   1.678   2.561   1.550
   83SOPE   C12 7595   1.528   2.684   1.603
   83SOPE  H12A 7596   1.417   2.680   1.594
   83SOPE  H12B 7597   1.571   2.773   1.552
   83SOPE   C11 7598   1.557   2.673   1.757
   83SOPE  H11A 7599   1.505   2.761   1.799
   83SOPE  H11B 7600   1.666   2.677   1.778
   83SOPE     P 7601   1.360   2.540   1.862
   83SOPE   O13 7602   1.333   2.398   1.904
   83SOPE   O14 7603   1.269   2.596   1.765
   83SOPE   O12 7604   1.510   2.546   1.803
   83SOPE   O11 7605   1.367   2.635   1.979
   83SOPE    C1 7606   1.466   2.613   2.074
   83SOPE    HA 7607   1.567   2.633   2.031
   83SOPE    HB 7608   1.472   2.506   2.103
   83SOPE    C2 7609   1.445   2.701   2.201
   83SOPE    HS 7610   1.542   2.706   2.255
   83SOPE   O21 7611   1.339   2.633   2.275
   83SOPE   C21 7612   1.379   2.529   2.344
   83SOPE   O22 7613   1.494   2.501   2.365
   83SOPE   C22 7614   1.270   2.464   2.426
   83SOPE   H2R 7615   1.250   2.372   2.366
   83SOPE   H2S 7616   1.183   2.530   2.443
   83SOPE    C3 7617   1.408   2.850   2.173
   83SOPE    HX 7618   1.353   2.861   2.078
   83SOPE    HY 7619   1.508   2.899   2.163
   83SOPE   O31 7620   1.342   2.905   2.288
   83SOPE   C31 7621   1.207   2.888   2.282
   83SOPE   O32 7622   1.141   2.852   2.186
   83SOPE   C32 7623   1.163   2.928   2.422
   83SOPE   H2X 7624   1.101   3.020   2.415
   83SOPE   H2Y 7625   1.254   2.946   2.484
   83SOPE   C23 7626   1.328   2.418   2.565
   83SOPE   H3R 7627   1.410   2.349   2.535
   83SOPE   H3S 7628   1.250   2.360   2.619
   83SOPE   C24 7629   1.384   2.529   2.652
   83SOPE   H4R 7630   1.483   2.565   2.617
   83SOPE   H4S 7631   1.322   2.621   2.647
   83SOPE   C25 7632   1.403   2.488   2.800
   83SOPE   H5R 7633   1.449   2.387   2.805
   83SOPE   H5S 7634   1.462   2.564   2.854
   83SOPE   C26 7635   1.266   2.460   2.874
   83SOPE   H6R 7636   1.200   2.545   2.846
   83SOPE   H6S 7637   1.223   2.371   2.823
   83SOPE   C27 7638   1.284   2.430   3.025
   83SOPE   H7R 7639   1.183   2.406   3.065
   83SOPE   H7S 7640   1.352   2.345   3.044
   83SOPE   C28 7641   1.336   2.552   3.103
   83SOPE   H8R 7642   1.445   2.548   3.083
   83SOPE   H8S 7643   1.303   2.647   3.057
   83SOPE   C29 7644   1.302   2.560   3.248
   83SOPE   H91 7645   1.264   2.657   3.283
   83SOPE  C210 7646   1.339   2.476   3.348
   83SOPE  H101 7647   1.288   2.497   3.443
   83SOPE  C211 7648   1.413   2.346   3.332
   83SOPE  H11R 7649   1.466   2.333   3.235
   83SOPE  H11S 7650   1.338   2.265   3.347
   83SOPE  C212 7651   1.511   2.333   3.447
   83SOPE  H12R 7652   1.445   2.352   3.534
   83SOPE  H12S 7653   1.580   2.420   3.443
   83SOPE  C213 7654   1.585   2.198   3.455
   83SOPE  H13R 7655   1.678   2.200   3.394
   83SOPE  H13S 7656   1.509   2.122   3.426
   83SOPE  C214 7657   1.643   2.169   3.593
   83SOPE  H14R 7658   1.560   2.158   3.666
   83SOPE  H14S 7659   1.704   2.247   3.641
   83SOPE  C215 7660   1.723   2.042   3.593
   83SOPE  H15R 7661   1.804   2.036   3.517
   83SOPE  H15S 7662   1.652   1.960   3.566
   83SOPE  C216 7663   1.785   2.021   3.736
   83SOPE  H16R 7664   1.702   2.039   3.808
   83SOPE  H16S 7665   1.857   2.100   3.766
   83SOPE  C217 7666   1.856   1.886   3.747
   83SOPE  H17R 7667   1.951   1.885   3.690
   83SOPE  H17S 7668   1.794   1.797   3.723
   83SOPE  C218 7669   1.912   1.859   3.888
   83SOPE  H18R 7670   2.015   1.898   3.902
   83SOPE  H18S 7671   1.912   1.749   3.903
   83SOPE  H18T 7672   1.848   1.899   3.970
   83SOPE   C33 7673   1.077   2.823   2.498
   83SOPE   H3X 7674   1.143   2.746   2.545
   83SOPE   H3Y 7675   1.011   2.781   2.419
   83SOPE   C34 7676   1.008   2.886   2.615
   83SOPE   H4X 7677   0.936   2.809   2.649
   83SOPE   H4Y 7678   0.938   2.965   2.582
   83SOPE   C35 7679   1.091   2.923   2.732
   83SOPE   H5X 7680   1.119   3.027   2.706
   83SOPE   H5Y 7681   1.183   2.864   2.749
   83SOPE   C36 7682   1.010   2.945   2.861
   83SOPE   H6X 7683   0.941   2.860   2.881
   83SOPE   H6Y 7684   0.939   3.030   2.866
   83SOPE   C37 7685   1.102   2.956   2.987
   83SOPE   H7X 7686   1.155   3.053   2.980
   83SOPE   H7Y 7687   1.190   2.887   2.984
   83SOPE   C38 7688   1.027   2.939   3.123
   83SOPE   H8X 7689   0.999   2.832   3.135
   83SOPE   H8Y 7690   0.937   3.004   3.122
   83SOPE   C39 7691   1.104   2.999   3.239
   83SOPE   H9X 7692   1.129   3.106   3.221
   83SOPE   H9Y 7693   1.199   2.941   3.242
   83SOPE  C310 7694   1.025   2.994   3.372
   83SOPE  H10X 7695   1.008   2.886   3.393
   83SOPE  H10Y 7696   0.932   3.054   3.374
   83SOPE  C311 7697   1.114   3.041   3.492
   83SOPE  H11X 7698   1.147   3.147   3.483
   83SOPE  H11Y 7699   1.207   2.981   3.498
   83SOPE  C312 7700   1.026   3.038   3.622
   83SOPE  H12X 7701   0.978   2.940   3.639
   83SOPE  H12Y 7702   0.944   3.111   3.602
   83SOPE  C313 7703   1.111   3.090   3.738
   83SOPE  H13X 7704   1.041   3.103   3.823
   83SOPE  H13Y 7705   1.146   3.195   3.721
   83SOPE  C314 7706   1.221   3.005   3.777
   83SOPE  H14X 7707   1.305   3.001   3.704
   83SOPE  H14Y 7708   1.186   2.900   3.781
   83SOPE  C315 7709   1.284   3.033   3.915
   83SOPE  H15X 7710   1.300   3.143   3.913
   83SOPE  H15Y 7711   1.382   2.982   3.926
   83SOPE  C316 7712   1.193   2.983   4.028
   83SOPE  H16X 7713   1.172   2.874   4.021
   83SOPE  H16Y 7714   1.089   3.024   4.024
   83SOPE  C317 7715   1.247   3.001   4.166
   83SOPE  H17X 7716   1.358   3.004   4.158
   83SOPE  H17Y 7717   1.217   2.916   4.231
   83SOPE  C318 7718   1.191   3.134   4.229
   83SOPE  H18X 7719   1.236   3.222   4.178
   83SOPE  H18Y 7720   1.223   3.141   4.335
   83SOPE  H18Z 7721   1.080   3.137   4.223
   84SOPE     N 7722   0.704   1.132   2.103
   84SOPE   HN1 7723   0.741   1.173   2.014
   84SOPE   HN2 7724   0.649   1.203   2.156
   84SOPE   HN3 7725   0.775   1.098   2.170
   84SOPE   C12 7726   0.620   1.014   2.063
   84SOPE  H12A 7727   0.546   0.990   2.142
   84SOPE  H12B 7728   0.687   0.926   2.064
   84SOPE   C11 7729   0.559   1.030   1.923
   84SOPE  H11A 7730   0.639   1.045   1.847
   84SOPE  H11B 7731   0.500   1.124   1.933
   84SOPE     P 7732   0.348   0.871   1.909
   84SOPE   O13 7733   0.344   0.726   1.875
   84SOPE   O14 7734   0.262   0.954   1.822
   84SOPE   O12 7735   0.497   0.915   1.892
   84SOPE   O11 7736   0.315   0.898   2.063
   84SOPE    C1 7737   0.272   0.794   2.156
   84SOPE    HA 7738   0.353   0.719   2.171
   84SOPE    HB 7739   0.183   0.742   2.114
   84SOPE    C2 7740   0.230   0.847   2.299
   84SOPE    HS 7741   0.163   0.934   2.279
   84SOPE   O21 7742   0.338   0.885   2.383
   84SOPE   C21 7743   0.378   1.006   2.358
   84SOPE   O22 7744   0.343   1.079   2.265
   84SOPE   C22 7745   0.479   1.051   2.470
   84SOPE   H2R 7746   0.444   1.151   2.504
   84SOPE   H2S 7747   0.575   1.063   2.415
   84SOPE    C3 7748   0.137   0.732   2.363
   84SOPE    HX 7749   0.182   0.631   2.366
   84SOPE    HY 7750   0.061   0.712   2.285
   84SOPE   O31 7751   0.076   0.781   2.482
   84SOPE   C31 7752   0.017   0.686   2.550
   84SOPE   O32 7753   0.001   0.571   2.519
   84SOPE   C32 7754   6.877   0.752   2.679
   84SOPE   H2X 7755   6.767   0.760   2.663
   84SOPE   H2Y 7756   0.010   0.854   2.688
   84SOPE   C23 7757   0.482   0.962   2.594
   84SOPE   H3R 7758   0.577   0.992   2.644
   84SOPE   H3S 7759   0.508   0.857   2.569
   84SOPE   C24 7760   0.371   0.972   2.691
   84SOPE   H4R 7761   0.273   0.943   2.648
   84SOPE   H4S 7762   0.395   0.903   2.774
   84SOPE   C25 7763   0.365   1.116   2.750
   84SOPE   H5R 7764   0.463   1.167   2.759
   84SOPE   H5S 7765   0.299   1.170   2.678
   84SOPE   C26 7766   0.283   1.121   2.884
   84SOPE   H6R 7767   0.253   1.227   2.898
   84SOPE   H6S 7768   0.193   1.061   2.863
   84SOPE   C27 7769   0.341   1.059   3.011
   84SOPE   H7R 7770   0.387   0.963   2.979
   84SOPE   H7S 7771   0.412   1.127   3.063
   84SOPE   C28 7772   0.217   1.015   3.103
   84SOPE   H8R 7773   0.178   1.111   3.143
   84SOPE   H8S 7774   0.143   0.955   3.047
   84SOPE   C29 7775   0.265   0.922   3.211
   84SOPE   H91 7776   0.307   0.824   3.183
   84SOPE  C210 7777   0.278   0.949   3.347
   84SOPE  H101 7778   0.301   0.863   3.412
   84SOPE  C211 7779   0.246   1.078   3.422
   84SOPE  H11R 7780   0.194   1.147   3.353
   84SOPE  H11S 7781   0.328   1.147   3.452
   84SOPE  C212 7782   0.165   1.054   3.544
   84SOPE  H12R 7783   0.084   0.979   3.531
   84SOPE  H12S 7784   0.104   1.147   3.553
   84SOPE  C213 7785   0.249   1.021   3.671
   84SOPE  H13R 7786   0.289   1.112   3.720
   84SOPE  H13S 7787   0.336   0.959   3.639
   84SOPE  C214 7788   0.179   0.944   3.779
   84SOPE  H14R 7789   0.257   0.894   3.841
   84SOPE  H14S 7790   0.112   0.866   3.738
   84SOPE  C215 7791   0.095   1.032   3.879
   84SOPE  H15R 7792   0.025   1.105   3.833
   84SOPE  H15S 7793   0.165   1.096   3.937
   84SOPE  C216 7794   0.011   0.946   3.975
   84SOPE  H16R 7795   0.064   0.867   4.033
   84SOPE  H16S 7796   6.866   0.881   3.905
   84SOPE  C217 7797   6.837   1.028   4.069
   84SOPE  H17R 7798   6.796   1.116   4.014
   84SOPE  H17S 7799   6.895   1.098   4.133
   84SOPE  C218 7800   6.738   0.950   4.149
   84SOPE  H18R 7801   6.700   1.019   4.227
   84SOPE  H18S 7802   6.796   0.869   4.200
   84SOPE  H18T 7803   6.661   0.903   4.084
   84SOPE   C33 7804   6.897   0.655   2.795
   84SOPE   H3X 7805   0.095   0.643   2.809
   84SOPE   H3Y 7806   6.846   0.558   2.783
   84SOPE   C34 7807   6.850   0.721   2.932
   84SOPE   H4X 7808   6.748   0.765   2.934
   84SOPE   H4Y 7809   0.010   0.805   2.941
   84SOPE   C35 7810   6.862   0.622   3.036
   84SOPE   H5X 7811   0.051   0.577   3.026
   84SOPE   H5Y 7812   6.786   0.541   3.031
   84SOPE   C36 7813   6.856   0.679   3.182
   84SOPE   H6X 7814   6.757   0.721   3.210
   84SOPE   H6Y 7815   0.005   0.771   3.178
   84SOPE   C37 7816   0.007   0.583   3.291
   84SOPE   H7X 7817   0.099   0.532   3.258
   84SOPE   H7Y 7818   6.855   0.494   3.310
   84SOPE   C38 7819   0.007   0.644   3.431
   84SOPE   H8X 7820   6.820   0.690   3.452
   84SOPE   H8Y 7821   0.090   0.717   3.424
   84SOPE   C39 7822   0.035   0.533   3.530
   84SOPE   H9X 7823   0.117   0.469   3.490
   84SOPE   H9Y 7824   6.856   0.470   3.544
   84SOPE  C310 7825   0.079   0.590   3.669
   84SOPE  H10X 7826   6.909   0.649   3.714
   84SOPE  H10Y 7827   0.166   0.657   3.653
   84SOPE  C311 7828   0.131   0.485   3.762
   84SOPE  H11X 7829   0.223   0.449   3.710
   84SOPE  H11Y 7830   0.057   0.405   3.779
   84SOPE  C312 7831   0.176   0.544   3.896
   84SOPE  H12X 7832   0.219   0.645   3.882
   84SOPE  H12Y 7833   0.254   0.477   3.937
   84SOPE  C313 7834   0.059   0.562   3.995
   84SOPE  H13X 7835   6.902   0.476   4.002
   84SOPE  H13Y 7836   6.906   0.645   3.962
   84SOPE  C314 7837   0.106   0.583   4.138
   84SOPE  H14X 7838   0.018   0.621   4.195
   84SOPE  H14Y 7839   0.182   0.664   4.135
   84SOPE  C315 7840   0.167   0.453   4.197
   84SOPE  H15X 7841   0.257   0.430   4.135
   84SOPE  H15Y 7842   0.095   0.370   4.182
   84SOPE  C316 7843   0.217   0.461   4.341
   84SOPE  H16X 7844   0.310   0.400   4.344
   84SOPE  H16Y 7845   0.143   0.417   4.411
   84SOPE  C317 7846   0.254   0.590   4.407
   84SOPE  H17X 7847   0.273   0.559   4.511
   84SOPE  H17Y 7848   0.165   0.657   4.410
   84SOPE  C318 7849   0.370   0.658   4.331
   84SOPE  H18X 7850   0.432   0.585   4.275
   84SOPE  H18Y 7851   0.428   0.699   4.416
   84SOPE  H18Z 7852   0.333   0.740   4.265
   85SOPE     N 7853   5.584   4.112   1.857
   85SOPE   HN1 7854   5.543   4.037   1.916
   85SOPE   HN2 7855   5.674   4.085   1.813
   85SOPE   HN3 7856   5.593   4.202   1.907
   85SOPE   C12 7857   5.493   4.101   1.741
   85SOPE  H12A 7858   5.466   3.995   1.718
   85SOPE  H12B 7859   5.553   4.133   1.653
   85SOPE   C11 7860   5.363   4.180   1.749
   85SOPE  H11A 7861   5.287   4.129   1.812
   85SOPE  H11B 7862   5.319   4.177   1.647
   85SOPE     P 7863   5.291   4.402   1.867
   85SOPE   O13 7864   5.169   4.403   1.777
   85SOPE   O14 7865   5.347   4.533   1.909
   85SOPE   O12 7866   5.401   4.313   1.790
   85SOPE   O11 7867   5.258   4.322   1.996
   85SOPE    C1 7868   5.117   4.280   2.027
   85SOPE    HA 7869   5.095   4.188   1.970
   85SOPE    HB 7870   5.045   4.356   1.990
   85SOPE    C2 7871   5.087   4.258   2.179
   85SOPE    HS 7872   4.979   4.268   2.202
   85SOPE   O21 7873   5.160   4.348   2.258
   85SOPE   C21 7874   5.112   4.466   2.260
   85SOPE   O22 7875   4.997   4.499   2.223
   85SOPE   C22 7876   5.217   4.552   2.326
   85SOPE   H2R 7877   5.184   4.657   2.312
   85SOPE   H2S 7878   5.316   4.547   2.276
   85SOPE    C3 7879   5.128   4.116   2.220
   85SOPE    HX 7880   5.236   4.095   2.201
   85SOPE    HY 7881   5.073   4.052   2.148
   85SOPE   O31 7882   5.085   4.097   2.362
   85SOPE   C31 7883   5.177   4.128   2.451
   85SOPE   O32 7884   5.297   4.148   2.429
   85SOPE   C32 7885   5.112   4.136   2.591
   85SOPE   H2X 7886   5.033   4.059   2.594
   85SOPE   H2Y 7887   5.073   4.238   2.613
   85SOPE   C23 7888   5.234   4.536   2.477
   85SOPE   H3R 7889   5.333   4.584   2.491
   85SOPE   H3S 7890   5.240   4.435   2.523
   85SOPE   C24 7891   5.123   4.610   2.559
   85SOPE   H4R 7892   5.109   4.717   2.533
   85SOPE   H4S 7893   5.028   4.558   2.535
   85SOPE   C25 7894   5.140   4.605   2.710
   85SOPE   H5R 7895   5.142   4.500   2.746
   85SOPE   H5S 7896   5.244   4.639   2.731
   85SOPE   C26 7897   5.037   4.686   2.788
   85SOPE   H6R 7898   5.037   4.786   2.740
   85SOPE   H6S 7899   4.937   4.642   2.768
   85SOPE   C27 7900   5.079   4.685   2.937
   85SOPE   H7R 7901   5.087   4.578   2.967
   85SOPE   H7S 7902   5.177   4.731   2.960
   85SOPE   C28 7903   4.967   4.746   3.025
   85SOPE   H8R 7904   4.878   4.679   3.031
   85SOPE   H8S 7905   5.007   4.740   3.129
   85SOPE   C29 7906   4.928   4.887   3.000
   85SOPE   H91 7907   4.941   4.915   2.894
   85SOPE  C210 7908   4.891   4.983   3.083
   85SOPE  H101 7909   4.870   5.082   3.040
   85SOPE  C211 7910   4.856   4.966   3.227
   85SOPE  H11R 7911   4.835   4.860   3.252
   85SOPE  H11S 7912   4.762   5.021   3.248
   85SOPE  C212 7913   4.974   5.001   3.312
   85SOPE  H12R 7914   5.006   5.106   3.297
   85SOPE  H12S 7915   5.058   4.931   3.290
   85SOPE  C213 7916   4.941   4.983   3.467
   85SOPE  H13R 7917   4.915   4.876   3.481
   85SOPE  H13S 7918   4.851   5.042   3.492
   85SOPE  C214 7919   5.061   5.032   3.554
   85SOPE  H14R 7920   5.067   5.138   3.520
   85SOPE  H14S 7921   5.149   4.968   3.529
   85SOPE  C215 7922   5.029   5.037   3.706
   85SOPE  H15R 7923   4.979   4.940   3.728
   85SOPE  H15S 7924   4.958   5.121   3.715
   85SOPE  C216 7925   5.150   5.051   3.794
   85SOPE  H16R 7926   5.188   5.155   3.792
   85SOPE  H16S 7927   5.231   4.995   3.743
   85SOPE  C217 7928   5.111   5.025   3.938
   85SOPE  H17R 7929   5.107   4.917   3.963
   85SOPE  H17S 7930   5.008   5.064   3.955
   85SOPE  C218 7931   5.208   5.068   4.042
   85SOPE  H18R 7932   5.168   5.056   4.145
   85SOPE  H18S 7933   5.230   5.176   4.028
   85SOPE  H18T 7934   5.307   5.018   4.035
   85SOPE   C33 7935   5.221   4.109   2.692
   85SOPE   H3X 7936   5.294   4.192   2.701
   85SOPE   H3Y 7937   5.266   4.015   2.653
   85SOPE   C34 7938   5.161   4.111   2.833
   85SOPE   H4X 7939   5.081   4.035   2.842
   85SOPE   H4Y 7940   5.107   4.208   2.842
   85SOPE   C35 7941   5.262   4.118   2.943
   85SOPE   H5X 7942   5.329   4.206   2.934
   85SOPE   H5Y 7943   5.327   4.029   2.931
   85SOPE   C36 7944   5.186   4.114   3.077
   85SOPE   H6X 7945   5.248   4.078   3.162
   85SOPE   H6Y 7946   5.110   4.033   3.077
   85SOPE   C37 7947   5.117   4.243   3.121
   85SOPE   H7X 7948   5.054   4.284   3.039
   85SOPE   H7Y 7949   5.193   4.315   3.158
   85SOPE   C38 7950   5.009   4.216   3.227
   85SOPE   H8X 7951   4.945   4.131   3.195
   85SOPE   H8Y 7952   4.956   4.312   3.244
   85SOPE   C39 7953   5.081   4.175   3.353
   85SOPE   H9X 7954   5.175   4.234   3.363
   85SOPE   H9Y 7955   5.096   4.066   3.367
   85SOPE  C310 7956   5.012   4.216   3.487
   85SOPE  H10X 7957   4.920   4.155   3.501
   85SOPE  H10Y 7958   4.990   4.324   3.490
   85SOPE  C311 7959   5.094   4.187   3.615
   85SOPE  H11X 7960   5.187   4.246   3.606
   85SOPE  H11Y 7961   5.117   4.078   3.622
   85SOPE  C312 7962   5.027   4.230   3.751
   85SOPE  H12X 7963   4.964   4.321   3.734
   85SOPE  H12Y 7964   5.096   4.265   3.831
   85SOPE  C313 7965   4.938   4.119   3.816
   85SOPE  H13X 7966   5.002   4.033   3.846
   85SOPE  H13Y 7967   4.852   4.091   3.751
   85SOPE  C314 7968   4.865   4.170   3.943
   85SOPE  H14X 7969   4.805   4.260   3.922
   85SOPE  H14Y 7970   4.940   4.188   4.023
   85SOPE  C315 7971   4.771   4.066   4.013
   85SOPE  H15X 7972   4.830   3.980   4.052
   85SOPE  H15Y 7973   4.684   4.048   3.946
   85SOPE  C316 7974   4.713   4.102   4.156
   85SOPE  H16X 7975   4.691   4.210   4.139
   85SOPE  H16Y 7976   4.788   4.076   4.234
   85SOPE  C317 7977   4.574   4.051   4.189
   85SOPE  H17X 7978   4.587   3.940   4.187
   85SOPE  H17Y 7979   4.510   4.090   4.107
   85SOPE  C318 7980   4.509   4.112   4.323
   85SOPE  H18X 7981   4.412   4.061   4.338
   85SOPE  H18Y 7982   4.492   4.221   4.318
   85SOPE  H18Z 7983   4.571   4.068   4.404
   86SOPE     N 7984   5.097   1.769   2.146
   86SOPE   HN1 7985   5.105   1.770   2.043
   86SOPE   HN2 7986   5.181   1.717   2.179
   86SOPE   HN3 7987   5.016   1.708   2.168
   86SOPE   C12 7988   5.078   1.908   2.215
   86SOPE  H12A 7989   4.975   1.939   2.188
   86SOPE  H12B 7990   5.145   1.986   2.173
   86SOPE   C11 7991   5.100   1.890   2.366
   86SOPE  H11A 7992   5.015   1.826   2.400
   86SOPE  H11B 7993   5.091   1.991   2.411
   86SOPE     P 7994   5.350   1.914   2.395
   86SOPE   O13 7995   5.321   2.056   2.426
   86SOPE   O14 7996   5.405   1.880   2.255
   86SOPE   O12 7997   5.221   1.825   2.405
   86SOPE   O11 7998   5.436   1.856   2.513
   86SOPE    C1 7999   5.443   1.716   2.545
   86SOPE    HA 8000   5.549   1.701   2.572
   86SOPE    HB 8001   5.401   1.658   2.459
   86SOPE    C2 8002   5.359   1.671   2.667
   86SOPE    HS 8003   5.252   1.689   2.647
   86SOPE   O21 8004   5.412   1.728   2.789
   86SOPE   C21 8005   5.343   1.826   2.844
   86SOPE   O22 8006   5.254   1.889   2.786
   86SOPE   C22 8007   5.374   1.834   2.995
   86SOPE   H2R 8008   5.291   1.895   3.038
   86SOPE   H2S 8009   5.472   1.884   3.008
   86SOPE    C3 8010   5.361   1.520   2.677
   86SOPE    HX 8011   5.465   1.488   2.697
   86SOPE    HY 8012   5.322   1.471   2.585
   86SOPE   O31 8013   5.284   1.460   2.785
   86SOPE   C31 8014   5.314   1.333   2.805
   86SOPE   O32 8015   5.395   1.269   2.739
   86SOPE   C32 8016   5.208   1.280   2.904
   86SOPE   H2X 8017   5.226   1.172   2.924
   86SOPE   H2Y 8018   5.106   1.297   2.863
   86SOPE   C23 8019   5.367   1.692   3.054
   86SOPE   H3R 8020   5.448   1.625   3.019
   86SOPE   H3S 8021   5.268   1.652   3.024
   86SOPE   C24 8022   5.355   1.683   3.208
   86SOPE   H4R 8023   5.340   1.574   3.219
   86SOPE   H4S 8024   5.455   1.702   3.251
   86SOPE   C25 8025   5.252   1.771   3.273
   86SOPE   H5R 8026   5.276   1.879   3.265
   86SOPE   H5S 8027   5.150   1.764   3.229
   86SOPE   C26 8028   5.228   1.731   3.420
   86SOPE   H6R 8029   5.188   1.628   3.433
   86SOPE   H6S 8030   5.331   1.736   3.462
   86SOPE   C27 8031   5.132   1.818   3.496
   86SOPE   H7R 8032   5.163   1.924   3.507
   86SOPE   H7S 8033   5.035   1.817   3.441
   86SOPE   C28 8034   5.108   1.755   3.636
   86SOPE   H8R 8035   5.018   1.795   3.686
   86SOPE   H8S 8036   5.073   1.652   3.618
   86SOPE   C29 8037   5.228   1.749   3.734
   86SOPE   H91 8038   5.323   1.710   3.693
   86SOPE  C210 8039   5.219   1.770   3.870
   86SOPE  H101 8040   5.312   1.757   3.927
   86SOPE  C211 8041   5.095   1.810   3.947
   86SOPE  H11R 8042   5.021   1.727   3.946
   86SOPE  H11S 8043   5.046   1.894   3.894
   86SOPE  C212 8044   5.115   1.856   4.093
   86SOPE  H12R 8045   5.038   1.929   4.125
   86SOPE  H12S 8046   5.213   1.905   4.106
   86SOPE  C213 8047   5.113   1.737   4.198
   86SOPE  H13R 8048   5.193   1.663   4.179
   86SOPE  H13S 8049   5.011   1.693   4.198
   86SOPE  C214 8050   5.144   1.787   4.344
   86SOPE  H14R 8051   5.243   1.838   4.343
   86SOPE  H14S 8052   5.160   1.696   4.405
   86SOPE  C215 8053   5.030   1.869   4.417
   86SOPE  H15R 8054   4.951   1.799   4.451
   86SOPE  H15S 8055   4.985   1.948   4.352
   86SOPE  C216 8056   5.061   1.941   4.550
   86SOPE  H16R 8057   5.155   1.998   4.538
   86SOPE  H16S 8058   5.071   1.859   4.624
   86SOPE  C217 8059   4.945   2.030   4.597
   86SOPE  H17R 8060   4.923   2.100   4.513
   86SOPE  H17S 8061   4.988   2.085   4.683
   86SOPE  C218 8062   4.824   1.952   4.649
   86SOPE  H18R 8063   4.792   1.875   4.576
   86SOPE  H18S 8064   4.737   2.018   4.668
   86SOPE  H18T 8065   4.850   1.908   4.748
   86SOPE   C33 8066   5.216   1.356   3.044
   86SOPE   H3X 8067   5.189   1.463   3.028
   86SOPE   H3Y 8068   5.322   1.363   3.077
   86SOPE   C34 8069   5.130   1.296   3.157
   86SOPE   H4X 8070   5.124   1.185   3.149
   86SOPE   H4Y 8071   5.026   1.322   3.126
   86SOPE   C35 8072   5.175   1.341   3.299
   86SOPE   H5X 8073   5.173   1.452   3.304
   86SOPE   H5Y 8074   5.281   1.317   3.318
   86SOPE   C36 8075   5.086   1.275   3.406
   86SOPE   H6X 8076   5.097   1.165   3.389
   86SOPE   H6Y 8077   4.980   1.307   3.400
   86SOPE   C37 8078   5.137   1.309   3.547
   86SOPE   H7X 8079   5.132   1.420   3.545
   86SOPE   H7Y 8080   5.242   1.272   3.552
   86SOPE   C38 8081   5.044   1.243   3.650
   86SOPE   H8X 8082   5.052   1.134   3.667
   86SOPE   H8Y 8083   4.939   1.263   3.619
   86SOPE   C39 8084   5.058   1.296   3.797
   86SOPE   H9X 8085   5.075   1.405   3.794
   86SOPE   H9Y 8086   5.146   1.245   3.841
   86SOPE  C310 8087   4.939   1.268   3.889
   86SOPE  H10X 8088   4.854   1.327   3.847
   86SOPE  H10Y 8089   4.964   1.302   3.992
   86SOPE  C311 8090   4.902   1.122   3.902
   86SOPE  H11X 8091   4.981   1.062   3.953
   86SOPE  H11Y 8092   4.882   1.085   3.799
   86SOPE  C312 8093   4.766   1.101   3.978
   86SOPE  H12X 8094   4.706   1.024   3.925
   86SOPE  H12Y 8095   4.709   1.194   3.963
   86SOPE  C313 8096   4.788   1.053   4.122
   86SOPE  H13X 8097   4.842   1.119   4.193
   86SOPE  H13Y 8098   4.846   0.959   4.114
   86SOPE  C314 8099   4.649   1.031   4.191
   86SOPE  H14X 8100   4.589   0.952   4.142
   86SOPE  H14Y 8101   4.598   1.130   4.183
   86SOPE  C315 8102   4.665   0.981   4.331
   86SOPE  H15X 8103   4.742   0.901   4.328
   86SOPE  H15Y 8104   4.571   0.942   4.376
   86SOPE  C316 8105   4.709   1.092   4.427
   86SOPE  H16X 8106   4.690   1.187   4.373
   86SOPE  H16Y 8107   4.818   1.086   4.446
   86SOPE  C317 8108   4.632   1.101   4.553
   86SOPE  H17X 8109   4.525   1.123   4.530
   86SOPE  H17Y 8110   4.666   1.190   4.611
   86SOPE  C318 8111   4.635   0.971   4.640
   86SOPE  H18X 8112   4.546   0.961   4.705
   86SOPE  H18Y 8113   4.723   0.979   4.707
   86SOPE  H18Z 8114   4.643   0.880   4.575
   87SOPE     N 8115   0.248   1.261   2.094
   87SOPE   HN1 8116   0.315   1.337   2.068
   87SOPE   HN2 8117   0.187   1.301   2.168
   87SOPE   HN3 8118   0.294   1.179   2.138
   87SOPE   C12 8119   0.170   1.245   1.966
   87SOPE  H12A 8120   0.235   1.212   1.882
   87SOPE  H12B 8121   0.135   1.348   1.946
   87SOPE   C11 8122   0.058   1.149   1.987
   87SOPE  H11A 8123   0.087   1.054   2.038
   87SOPE  H11B 8124   0.012   1.133   1.887
   87SOPE     P 8125   6.727   1.239   2.033
   87SOPE   O13 8126   6.709   1.245   1.888
   87SOPE   O14 8127   6.678   1.352   2.111
   87SOPE   O12 8128   6.883   1.213   2.075
   87SOPE   O11 8129   6.652   1.123   2.098
   87SOPE    C1 8130   6.706   1.043   2.201
   87SOPE    HA 8131   6.712   1.107   2.291
   87SOPE    HB 8132   6.807   1.004   2.178
   87SOPE    C2 8133   6.630   0.911   2.236
   87SOPE    HS 8134   6.616   0.855   2.141
   87SOPE   O21 8135   6.517   0.959   2.295
   87SOPE   C21 8136   6.406   0.889   2.269
   87SOPE   O22 8137   6.396   0.786   2.203
   87SOPE   C22 8138   6.298   0.933   2.362
   87SOPE   H2R 8139   6.226   0.852   2.386
   87SOPE   H2S 8140   6.244   0.999   2.292
   87SOPE    C3 8141   6.717   0.834   2.342
   87SOPE    HX 8142   6.771   0.903   2.410
   87SOPE    HY 8143   6.795   0.780   2.284
   87SOPE   O31 8144   6.644   0.742   2.421
   87SOPE   C31 8145   6.617   0.624   2.356
   87SOPE   O32 8146   6.650   0.595   2.243
   87SOPE   C32 8147   6.526   0.537   2.451
   87SOPE   H2X 8148   6.522   0.434   2.410
   87SOPE   H2Y 8149   6.427   0.588   2.449
   87SOPE   C23 8150   6.332   0.990   2.504
   87SOPE   H3R 8151   6.241   1.035   2.550
   87SOPE   H3S 8152   6.399   1.078   2.497
   87SOPE   C24 8153   6.376   0.876   2.603
   87SOPE   H4R 8154   6.290   0.805   2.601
   87SOPE   H4S 8155   6.468   0.834   2.557
   87SOPE   C25 8156   6.382   0.926   2.747
   87SOPE   H5R 8157   6.443   1.018   2.761
   87SOPE   H5S 8158   6.276   0.955   2.766
   87SOPE   C26 8159   6.417   0.820   2.849
   87SOPE   H6R 8160   6.364   0.725   2.829
   87SOPE   H6S 8161   6.525   0.797   2.833
   87SOPE   C27 8162   6.387   0.850   2.994
   87SOPE   H7R 8163   6.458   0.797   3.062
   87SOPE   H7S 8164   6.404   0.959   3.004
   87SOPE   C28 8165   6.239   0.832   3.032
   87SOPE   H8R 8166   6.226   0.879   3.132
   87SOPE   H8S 8167   6.172   0.883   2.959
   87SOPE   C29 8168   6.197   0.684   3.034
   87SOPE   H91 8169   6.251   0.620   2.962
   87SOPE  C210 8170   6.096   0.630   3.101
   87SOPE  H101 8171   6.081   0.524   3.077
   87SOPE  C211 8172   5.999   0.708   3.192
   87SOPE  H11R 8173   5.906   0.649   3.204
   87SOPE  H11S 8174   5.966   0.800   3.138
   87SOPE  C212 8175   6.054   0.756   3.327
   87SOPE  H12R 8176   6.127   0.836   3.300
   87SOPE  H12S 8177   6.103   0.672   3.380
   87SOPE  C213 8178   5.949   0.819   3.418
   87SOPE  H13R 8179   5.860   0.753   3.422
   87SOPE  H13S 8180   5.918   0.912   3.365
   87SOPE  C214 8181   6.001   0.847   3.563
   87SOPE  H14R 8182   6.083   0.923   3.565
   87SOPE  H14S 8183   6.031   0.750   3.610
   87SOPE  C215 8184   5.895   0.905   3.660
   87SOPE  H15R 8185   5.810   0.833   3.668
   87SOPE  H15S 8186   5.869   1.004   3.619
   87SOPE  C216 8187   5.963   0.929   3.796
   87SOPE  H16R 8188   6.063   0.977   3.794
   87SOPE  H16S 8189   5.990   0.832   3.843
   87SOPE  C217 8190   5.867   1.003   3.889
   87SOPE  H17R 8191   5.774   0.943   3.878
   87SOPE  H17S 8192   5.850   1.108   3.856
   87SOPE  C218 8193   5.917   1.001   4.032
   87SOPE  H18R 8194   5.845   1.051   4.101
   87SOPE  H18S 8195   6.014   1.056   4.035
   87SOPE  H18T 8196   5.931   0.898   4.070
   87SOPE   C33 8197   6.577   0.543   2.603
   87SOPE   H3X 8198   6.586   0.650   2.630
   87SOPE   H3Y 8199   6.680   0.503   2.608
   87SOPE   C34 8200   6.478   0.459   2.693
   87SOPE   H4X 8201   6.468   0.356   2.653
   87SOPE   H4Y 8202   6.388   0.524   2.692
   87SOPE   C35 8203   6.529   0.450   2.837
   87SOPE   H5X 8204   6.531   0.556   2.870
   87SOPE   H5Y 8205   6.631   0.405   2.832
   87SOPE   C36 8206   6.448   0.362   2.929
   87SOPE   H6X 8207   6.442   0.263   2.879
   87SOPE   H6Y 8208   6.341   0.391   2.940
   87SOPE   C37 8209   6.509   0.332   3.064
   87SOPE   H7X 8210   6.608   0.286   3.045
   87SOPE   H7Y 8211   6.439   0.267   3.121
   87SOPE   C38 8212   6.514   0.448   3.153
   87SOPE   H8X 8213   6.445   0.529   3.123
   87SOPE   H8Y 8214   6.605   0.509   3.138
   87SOPE   C39 8215   6.501   0.423   3.303
   87SOPE   H9X 8216   6.583   0.353   3.332
   87SOPE   H9Y 8217   6.399   0.390   3.331
   87SOPE  C310 8218   6.540   0.552   3.385
   87SOPE  H10X 8219   6.643   0.586   3.362
   87SOPE  H10Y 8220   6.529   0.532   3.494
   87SOPE  C311 8221   6.447   0.675   3.354
   87SOPE  H11X 8222   6.345   0.635   3.371
   87SOPE  H11Y 8223   6.456   0.707   3.248
   87SOPE  C312 8224   6.455   0.795   3.452
   87SOPE  H12X 8225   6.399   0.877   3.403
   87SOPE  H12Y 8226   6.560   0.829   3.468
   87SOPE  C313 8227   6.389   0.772   3.596
   87SOPE  H13X 8228   6.445   0.689   3.644
   87SOPE  H13Y 8229   6.282   0.741   3.593
   87SOPE  C314 8230   6.396   0.886   3.690
   87SOPE  H14X 8231   6.341   0.967   3.638
   87SOPE  H14Y 8232   6.498   0.928   3.707
   87SOPE  C315 8233   6.339   0.847   3.832
   87SOPE  H15X 8234   6.407   0.763   3.857
   87SOPE  H15Y 8235   6.238   0.801   3.830
   87SOPE  C316 8236   6.350   0.966   3.929
   87SOPE  H16X 8237   6.292   1.050   3.885
   87SOPE  H16Y 8238   6.454   1.002   3.942
   87SOPE  C317 8239   6.282   0.924   4.061
   87SOPE  H17X 8240   6.333   0.834   4.102
   87SOPE  H17Y 8241   6.179   0.894   4.033
   87SOPE  C318 8242   6.261   1.028   4.174
   87SOPE  H18X 8243   6.351   1.092   4.183
   87SOPE  H18Y 8244   6.222   0.976   4.264
   87SOPE  H18Z 8245   6.174   1.087   4.138
   88SOPE     N 8246   1.197   6.590   2.070
   88SOPE   HN1 8247   1.224   6.689   2.089
   88SOPE   HN2 8248   1.128   6.549   2.137
   88SOPE   HN3 8249   1.279   6.528   2.082
   88SOPE   C12 8250   1.169   6.571   1.926
   88SOPE  H12A 8251   1.258   6.609   1.871
   88SOPE  H12B 8252   1.079   6.634   1.906
   88SOPE   C11 8253   1.145   6.430   1.886
   88SOPE  H11A 8254   1.225   6.362   1.923
   88SOPE  H11B 8255   1.142   6.421   1.776
   88SOPE     P 8256   0.997   6.289   2.047
   88SOPE   O13 8257   1.032   6.151   2.008
   88SOPE   O14 8258   0.851   6.307   2.080
   88SOPE   O12 8259   1.015   6.388   1.925
   88SOPE   O11 8260   1.099   6.341   2.156
   88SOPE    C1 8261   1.165   6.246   2.240
   88SOPE    HA 8262   1.231   6.300   2.311
   88SOPE    HB 8263   1.235   6.190   2.174
   88SOPE    C2 8264   1.062   6.167   2.322
   88SOPE    HS 8265   0.996   6.113   2.250
   88SOPE   O21 8266   0.977   6.261   2.395
   88SOPE   C21 8267   0.865   6.206   2.427
   88SOPE   O22 8268   0.839   6.088   2.408
   88SOPE   C22 8269   0.763   6.303   2.487
   88SOPE   H2R 8270   0.672   6.240   2.496
   88SOPE   H2S 8271   0.749   6.393   2.423
   88SOPE    C3 8272   1.141   6.069   2.416
   88SOPE    HX 8273   1.195   6.007   2.341
   88SOPE    HY 8274   1.072   5.995   2.463
   88SOPE   O31 8275   1.230   6.139   2.503
   88SOPE   C31 8276   1.171   6.161   2.627
   88SOPE   O32 8277   1.065   6.118   2.658
   88SOPE   C32 8278   1.272   6.247   2.706
   88SOPE   H2X 8279   1.313   6.319   2.632
   88SOPE   H2Y 8280   1.348   6.182   2.754
   88SOPE   C23 8281   0.807   6.350   2.623
   88SOPE   H3R 8282   0.907   6.397   2.620
   88SOPE   H3S 8283   0.821   6.268   2.696
   88SOPE   C24 8284   0.708   6.439   2.697
   88SOPE   H4R 8285   0.662   6.523   2.641
   88SOPE   H4S 8286   0.621   6.374   2.720
   88SOPE   C25 8287   0.760   6.483   2.833
   88SOPE   H5R 8288   0.811   6.398   2.882
   88SOPE   H5S 8289   0.833   6.564   2.812
   88SOPE   C26 8290   0.660   6.549   2.927
   88SOPE   H6R 8291   0.689   6.656   2.920
   88SOPE   H6S 8292   0.561   6.544   2.878
   88SOPE   C27 8293   0.650   6.503   3.072
   88SOPE   H7R 8294   0.747   6.503   3.126
   88SOPE   H7S 8295   0.575   6.558   3.133
   88SOPE   C28 8296   0.597   6.355   3.076
   88SOPE   H8R 8297   0.499   6.339   3.025
   88SOPE   H8S 8298   0.670   6.292   3.021
   88SOPE   C29 8299   0.567   6.296   3.210
   88SOPE   H91 8300   0.646   6.247   3.269
   88SOPE  C210 8301   0.451   6.307   3.277
   88SOPE  H101 8302   0.441   6.254   3.372
   88SOPE  C211 8303   0.337   6.388   3.221
   88SOPE  H11R 8304   0.305   6.371   3.116
   88SOPE  H11S 8305   0.374   6.492   3.207
   88SOPE  C212 8306   0.215   6.396   3.314
   88SOPE  H12R 8307   0.139   6.423   3.237
   88SOPE  H12S 8308   0.219   6.483   3.384
   88SOPE  C213 8309   0.167   6.273   3.393
   88SOPE  H13R 8310   0.220   6.255   3.490
   88SOPE  H13S 8311   0.175   6.182   3.330
   88SOPE  C214 8312   0.021   6.295   3.416
   88SOPE  H14R 8313   6.885   6.310   3.317
   88SOPE  H14S 8314   6.912   6.391   3.468
   88SOPE  C215 8315   6.855   6.176   3.476
   88SOPE  H15R 8316   6.748   6.204   3.472
   88SOPE  H15S 8317   6.878   6.173   3.585
   88SOPE  C216 8318   6.864   6.032   3.416
   88SOPE  H16R 8319   6.814   5.953   3.475
   88SOPE  H16S 8320   0.054   5.992   3.399
   88SOPE  C217 8321   6.792   6.013   3.277
   88SOPE  H17R 8322   6.820   5.909   3.248
   88SOPE  H17S 8323   6.834   6.082   3.202
   88SOPE  C218 8324   6.642   6.028   3.270
   88SOPE  H18R 8325   6.610   6.133   3.283
   88SOPE  H18S 8326   6.585   5.969   3.346
   88SOPE  H18T 8327   6.614   6.010   3.165
   88SOPE   C33 8328   1.207   6.330   2.820
   88SOPE   H3X 8329   1.114   6.384   2.794
   88SOPE   H3Y 8330   1.285   6.406   2.840
   88SOPE   C34 8331   1.188   6.244   2.948
   88SOPE   H4X 8332   1.264   6.163   2.957
   88SOPE   H4Y 8333   1.089   6.196   2.959
   88SOPE   C35 8334   1.209   6.343   3.067
   88SOPE   H5X 8335   1.124   6.414   3.072
   88SOPE   H5Y 8336   1.311   6.385   3.063
   88SOPE   C36 8337   1.192   6.272   3.204
   88SOPE   H6X 8338   1.226   6.349   3.277
   88SOPE   H6Y 8339   1.259   6.183   3.209
   88SOPE   C37 8340   1.053   6.223   3.241
   88SOPE   H7X 8341   1.032   6.117   3.216
   88SOPE   H7Y 8342   0.973   6.282   3.191
   88SOPE   C38 8343   1.033   6.241   3.391
   88SOPE   H8X 8344   1.071   6.343   3.413
   88SOPE   H8Y 8345   1.104   6.172   3.441
   88SOPE   C39 8346   0.890   6.223   3.439
   88SOPE   H9X 8347   0.858   6.117   3.432
   88SOPE   H9Y 8348   0.838   6.280   3.359
   88SOPE  C310 8349   0.840   6.289   3.569
   88SOPE  H10X 8350   0.876   6.394   3.560
   88SOPE  H10Y 8351   0.883   6.238   3.658
   88SOPE  C311 8352   0.690   6.299   3.578
   88SOPE  H11X 8353   0.643   6.203   3.548
   88SOPE  H11Y 8354   0.656   6.376   3.505
   88SOPE  C312 8355   0.644   6.346   3.718
   88SOPE  H12X 8356   0.674   6.448   3.751
   88SOPE  H12Y 8357   0.691   6.273   3.787
   88SOPE  C313 8358   0.494   6.322   3.731
   88SOPE  H13X 8359   0.465   6.315   3.838
   88SOPE  H13Y 8360   0.450   6.241   3.668
   88SOPE  C314 8361   0.415   6.440   3.669
   88SOPE  H14X 8362   0.426   6.452   3.559
   88SOPE  H14Y 8363   0.457   6.537   3.704
   88SOPE  C315 8364   0.268   6.441   3.704
   88SOPE  H15X 8365   0.226   6.340   3.683
   88SOPE  H15Y 8366   0.211   6.514   3.641
   88SOPE  C316 8367   0.239   6.474   3.850
   88SOPE  H16X 8368   0.307   6.420   3.920
   88SOPE  H16Y 8369   0.141   6.443   3.893
   88SOPE  C317 8370   0.249   6.628   3.876
   88SOPE  H17X 8371   0.196   6.684   3.797
   88SOPE  H17Y 8372   0.354   6.653   3.848
   88SOPE  C318 8373   0.207   6.667   4.021
   88SOPE  H18X 8374   0.098   6.650   4.033
   88SOPE  H18Y 8375   0.240   6.769   4.052
   88SOPE  H18Z 8376   0.253   6.594   4.091
   89SAPC     N 8377   5.260   3.169   6.635
   89SAPC   C12 8378   5.130   3.235   6.621
   89SAPC  H12A 8379   5.052   3.180   6.671
   89SAPC  H12B 8380   5.094   3.232   6.519
   89SAPC   C13 8381   5.297   3.139   6.775
   89SAPC  H13A 8382   5.319   3.228   6.831
   89SAPC  H13B 8383   5.217   3.088   6.826
   89SAPC  H13C 8384   5.385   3.077   6.777
   89SAPC   C14 8385   5.262   3.040   6.561
   89SAPC  H14A 8386   5.362   3.001   6.576
   89SAPC  H14B 8387   5.192   2.969   6.605
   89SAPC  H14C 8388   5.242   3.051   6.456
   89SAPC   C15 8389   5.381   3.260   6.582
   89SAPC  H15A 8390   5.373   3.287   6.478
   89SAPC  H15B 8391   5.391   3.345   6.648
   89SAPC  H15C 8392   5.477   3.211   6.596
   89SAPC   C11 8393   5.112   3.380   6.676
   89SAPC  H11A 8394   5.173   3.457   6.624
   89SAPC  H11B 8395   5.147   3.378   6.782
   89SAPC     P 8396   4.882   3.402   6.570
   89SAPC   O13 8397   4.852   3.257   6.545
   89SAPC   O14 8398   4.768   3.494   6.592
   89SAPC   O12 8399   4.978   3.418   6.696
   89SAPC   O11 8400   4.976   3.455   6.448
   89SAPC    C1 8401   5.043   3.578   6.448
   89SAPC    HA 8402   5.047   3.617   6.552
   89SAPC    HB 8403   5.150   3.560   6.421
   89SAPC    C2 8404   4.984   3.688   6.363
   89SAPC    HS 8405   4.878   3.700   6.392
   89SAPC   O21 8406   5.012   3.647   6.231
   89SAPC   C21 8407   4.909   3.588   6.166
   89SAPC   O22 8408   4.800   3.556   6.212
   89SAPC   C22 8409   4.957   3.582   6.020
   89SAPC   H2R 8410   4.979   3.689   6.001
   89SAPC   H2S 8411   5.049   3.520   6.011
   89SAPC    C3 8412   5.044   3.827   6.388
   89SAPC    HX 8413   5.155   3.817   6.398
   89SAPC    HY 8414   5.015   3.879   6.481
   89SAPC   O31 8415   5.006   3.917   6.280
   89SAPC   C31 8416   4.882   3.951   6.273
   89SAPC   O32 8417   4.790   3.916   6.349
   89SAPC   C32 8418   4.862   4.046   6.148
   89SAPC   H2X 8419   4.922   4.136   6.172
   89SAPC   H2Y 8420   4.757   4.082   6.160
   89SAPC   C23 8421   4.850   3.523   5.929
   89SAPC   H3R 8422   4.744   3.534   5.958
   89SAPC   H3S 8423   4.872   3.414   5.931
   89SAPC   C24 8424   4.869   3.562   5.780
   89SAPC   H4R 8425   4.976   3.543   5.756
   89SAPC   H4S 8426   4.860   3.671   5.765
   89SAPC   C25 8427   4.780   3.484   5.693
   89SAPC   H5R 8428   4.678   3.524   5.698
   89SAPC   C26 8429   4.812   3.391   5.602
   89SAPC   H6R 8430   4.731   3.355   5.537
   89SAPC   C27 8431   4.947   3.325   5.586
   89SAPC   H7R 8432   4.992   3.312   5.687
   89SAPC   H7S 8433   5.010   3.401   5.535
   89SAPC   C28 8434   4.949   3.193   5.518
   89SAPC   H8R 8435   4.937   3.110   5.589
   89SAPC   C29 8436   4.967   3.168   5.392
   89SAPC   H9R 8437   4.974   3.064   5.357
   89SAPC  C210 8438   4.993   3.267   5.275
   89SAPC  H10R 8439   5.066   3.240   5.196
   89SAPC  H10S 8440   5.026   3.366   5.313
   89SAPC  C211 8441   4.855   3.282   5.212
   89SAPC  H11R 8442   4.779   3.292   5.290
   89SAPC  C212 8443   4.829   3.315   5.089
   89SAPC  H12R 8444   4.725   3.319   5.055
   89SAPC  C213 8445   4.935   3.329   4.977
   89SAPC  H13R 8446   4.935   3.231   4.924
   89SAPC  H13S 8447   5.035   3.355   5.017
   89SAPC  C214 8448   4.908   3.436   4.875
   89SAPC  H14R 8449   4.949   3.535   4.897
   89SAPC  C215 8450   4.844   3.431   4.759
   89SAPC  H15R 8451   4.843   3.519   4.693
   89SAPC  C216 8452   4.788   3.304   4.693
   89SAPC  H16R 8453   4.863   3.222   4.700
   89SAPC  H16S 8454   4.771   3.325   4.585
   89SAPC  C217 8455   4.666   3.247   4.765
   89SAPC  H17R 8456   4.653   3.277   4.871
   89SAPC  H17S 8457   4.680   3.137   4.764
   89SAPC  C218 8458   4.540   3.274   4.687
   89SAPC  H18R 8459   4.464   3.196   4.710
   89SAPC  H18S 8460   4.553   3.265   4.577
   89SAPC  C219 8461   4.481   3.417   4.711
   89SAPC  H19R 8462   4.558   3.495   4.691
   89SAPC  H19S 8463   4.444   3.424   4.815
   89SAPC  C220 8464   4.368   3.459   4.614
   89SAPC  H20R 8465   4.333   3.558   4.652
   89SAPC  H20S 8466   4.280   3.391   4.612
   89SAPC  H20T 8467   4.402   3.475   4.509
   89SAPC   C33 8468   4.889   3.981   6.014
   89SAPC   H3X 8469   4.851   4.048   5.933
   89SAPC   H3Y 8470   4.841   3.883   5.997
   89SAPC   C34 8471   5.037   3.969   5.976
   89SAPC   H4X 8472   5.075   3.885   6.038
   89SAPC   H4Y 8473   5.095   4.063   5.992
   89SAPC   C35 8474   5.082   3.928   5.834
   89SAPC   H5X 8475   5.012   3.857   5.784
   89SAPC   H5Y 8476   5.184   3.883   5.834
   89SAPC   C36 8477   5.103   4.039   5.728
   89SAPC   H6X 8478   5.180   4.104   5.774
   89SAPC   H6Y 8479   5.020   4.112   5.721
   89SAPC   C37 8480   5.147   3.983   5.592
   89SAPC   H7X 8481   5.220   3.900   5.603
   89SAPC   H7Y 8482   5.199   4.058   5.530
   89SAPC   C38 8483   5.024   3.929   5.510
   89SAPC   H8X 8484   4.951   4.009   5.483
   89SAPC   H8Y 8485   4.963   3.867   5.578
   89SAPC   C39 8486   5.055   3.838   5.393
   89SAPC   H9X 8487   5.133   3.765   5.424
   89SAPC   H9Y 8488   5.084   3.894   5.302
   89SAPC  C310 8489   4.928   3.753   5.362
   89SAPC  H10X 8490   4.900   3.691   5.451
   89SAPC  H10Y 8491   4.972   3.682   5.289
   89SAPC  C311 8492   4.813   3.823   5.298
   89SAPC  H11X 8493   4.840   3.880   5.207
   89SAPC  H11Y 8494   4.769   3.913   5.348
   89SAPC  C312 8495   4.695   3.740   5.258
   89SAPC  H12X 8496   4.726   3.659   5.189
   89SAPC  H12Y 8497   4.629   3.810   5.203
   89SAPC  C313 8498   4.626   3.684   5.385
   89SAPC  H13X 8499   4.604   3.772   5.450
   89SAPC  H13Y 8500   4.685   3.604   5.435
   89SAPC  C314 8501   4.494   3.616   5.344
   89SAPC  H14X 8502   4.529   3.561   5.255
   89SAPC  H14Y 8503   4.422   3.691   5.305
   89SAPC  C315 8504   4.427   3.523   5.448
   89SAPC  H15X 8505   4.493   3.436   5.468
   89SAPC  H15Y 8506   4.328   3.488   5.413
   89SAPC  C316 8507   4.390   3.600   5.575
   89SAPC  H16X 8508   4.337   3.692   5.542
   89SAPC  H16Y 8509   4.488   3.628   5.620
   89SAPC  C317 8510   4.318   3.499   5.668
   89SAPC  H17X 8511   4.407   3.453   5.715
   89SAPC  H17Y 8512   4.257   3.426   5.610
   89SAPC  C318 8513   4.238   3.567   5.779
   89SAPC  H18X 8514   4.176   3.496   5.838
   89SAPC  H18Y 8515   4.156   3.627   5.733
   89SAPC  H18Z 8516   4.306   3.633   5.836
   90SAPC     N 8517   2.747   5.961   6.553
   90SAPC   C12 8518   2.821   6.073   6.626
   90SAPC  H12A 8519   2.791   6.061   6.729
   90SAPC  H12B 8520   2.790   6.170   6.592
   90SAPC   C13 8521   2.755   5.982   6.404
   90SAPC  H13A 8522   2.716   5.897   6.351
   90SAPC  H13B 8523   2.723   6.077   6.366
   90SAPC  H13C 8524   2.859   5.980   6.376
   90SAPC   C14 8525   2.806   5.824   6.589
   90SAPC  H14A 8526   2.741   5.747   6.548
   90SAPC  H14B 8527   2.909   5.812   6.561
   90SAPC  H14C 8528   2.803   5.806   6.695
   90SAPC   C15 8529   2.602   5.952   6.601
   90SAPC  H15A 8530   2.555   5.888   6.527
   90SAPC  H15B 8531   2.594   5.902   6.696
   90SAPC  H15C 8532   2.551   6.047   6.608
   90SAPC   C11 8533   2.978   6.069   6.621
   90SAPC  H11A 8534   3.014   5.979   6.675
   90SAPC  H11B 8535   3.009   6.162   6.675
   90SAPC     P 8536   3.160   6.048   6.435
   90SAPC   O13 8537   3.255   6.149   6.491
   90SAPC   O14 8538   3.183   5.902   6.461
   90SAPC   O12 8539   3.021   6.091   6.480
   90SAPC   O11 8540   3.145   6.060   6.282
   90SAPC    C1 8541   3.256   6.086   6.190
   90SAPC    HA 8542   3.348   6.065   6.248
   90SAPC    HB 8543   3.249   6.013   6.106
   90SAPC    C2 8544   3.259   6.226   6.123
   90SAPC    HS 8545   3.259   6.300   6.206
   90SAPC   O21 8546   3.142   6.249   6.042
   90SAPC   C21 8547   3.115   6.369   5.988
   90SAPC   O22 8548   3.173   6.473   6.019
   90SAPC   C22 8549   3.004   6.365   5.888
   90SAPC   H2R 8550   2.988   6.261   5.851
   90SAPC   H2S 8551   2.916   6.395   5.948
   90SAPC    C3 8552   3.385   6.254   6.033
   90SAPC    HX 8553   3.474   6.235   6.096
   90SAPC    HY 8554   3.403   6.358   5.999
   90SAPC   O31 8555   3.384   6.159   5.923
   90SAPC   C31 8556   3.501   6.136   5.869
   90SAPC   O32 8557   3.609   6.171   5.914
   90SAPC   C32 8558   3.481   6.054   5.742
   90SAPC   H2X 8559   3.405   5.975   5.759
   90SAPC   H2Y 8560   3.573   5.998   5.715
   90SAPC   C23 8561   3.034   6.471   5.782
   90SAPC   H3R 8562   3.043   6.576   5.815
   90SAPC   H3S 8563   2.944   6.463   5.716
   90SAPC   C24 8564   3.161   6.443   5.691
   90SAPC   H4R 8565   3.147   6.341   5.649
   90SAPC   H4S 8566   3.243   6.458   5.765
   90SAPC   C25 8567   3.181   6.551   5.588
   90SAPC   H5R 8568   3.188   6.652   5.631
   90SAPC   C26 8569   3.184   6.540   5.455
   90SAPC   H6R 8570   3.210   6.634   5.403
   90SAPC   C27 8571   3.184   6.415   5.366
   90SAPC   H7R 8572   3.166   6.321   5.421
   90SAPC   H7S 8573   3.281   6.405   5.312
   90SAPC   C28 8574   3.070   6.422   5.271
   90SAPC   H8R 8575   2.972   6.386   5.307
   90SAPC   C29 8576   3.082   6.457   5.142
   90SAPC   H9R 8577   2.997   6.458   5.073
   90SAPC  C210 8578   3.219   6.504   5.093
   90SAPC  H10R 8579   3.280   6.411   5.090
   90SAPC  H10S 8580   3.263   6.570   5.172
   90SAPC  C211 8581   3.214   6.560   4.945
   90SAPC  H11R 8582   3.216   6.670   4.943
   90SAPC  C212 8583   3.183   6.485   4.832
   90SAPC  H12R 8584   3.167   6.541   4.739
   90SAPC  C213 8585   3.173   6.333   4.804
   90SAPC  H13R 8586   3.228   6.279   4.885
   90SAPC  H13S 8587   3.229   6.315   4.710
   90SAPC  C214 8588   3.034   6.269   4.792
   90SAPC  H14R 8589   2.973   6.266   4.884
   90SAPC  C215 8590   2.982   6.207   4.686
   90SAPC  H15R 8591   2.891   6.145   4.693
   90SAPC  C216 8592   3.043   6.185   4.542
   90SAPC  H16R 8593   3.030   6.080   4.510
   90SAPC  H16S 8594   3.151   6.213   4.535
   90SAPC  C217 8595   2.964   6.259   4.434
   90SAPC  H17R 8596   3.013   6.357   4.414
   90SAPC  H17S 8597   2.858   6.275   4.462
   90SAPC  C218 8598   2.978   6.180   4.296
   90SAPC  H18R 8599   2.923   6.084   4.308
   90SAPC  H18S 8600   3.084   6.170   4.264
   90SAPC  C219 8601   2.896   6.260   4.191
   90SAPC  H19R 8602   2.947   6.357   4.169
   90SAPC  H19S 8603   2.794   6.289   4.221
   90SAPC  C220 8604   2.891   6.181   4.059
   90SAPC  H20R 8605   2.836   6.087   4.082
   90SAPC  H20S 8606   2.996   6.165   4.025
   90SAPC  H20T 8607   2.844   6.227   3.969
   90SAPC   C33 8608   3.458   6.152   5.627
   90SAPC   H3X 8609   3.538   6.227   5.618
   90SAPC   H3Y 8610   3.361   6.206   5.633
   90SAPC   C34 8611   3.433   6.082   5.492
   90SAPC   H4X 8612   3.505   6.009   5.449
   90SAPC   H4Y 8613   3.407   6.162   5.420
   90SAPC   C35 8614   3.298   6.001   5.502
   90SAPC   H5X 8615   3.221   6.062   5.553
   90SAPC   H5Y 8616   3.325   5.910   5.561
   90SAPC   C36 8617   3.240   5.954   5.360
   90SAPC   H6X 8618   3.219   6.051   5.312
   90SAPC   H6Y 8619   3.141   5.906   5.376
   90SAPC   C37 8620   3.334   5.858   5.286
   90SAPC   H7X 8621   3.352   5.763   5.342
   90SAPC   H7Y 8622   3.438   5.897   5.285
   90SAPC   C38 8623   3.290   5.817   5.150
   90SAPC   H8X 8624   3.187   5.775   5.154
   90SAPC   H8Y 8625   3.368   5.751   5.105
   90SAPC   C39 8626   3.281   5.932   5.048
   90SAPC   H9X 8627   3.384   5.941   5.008
   90SAPC   H9Y 8628   3.279   6.025   5.109
   90SAPC  C310 8629   3.170   5.922   4.950
   90SAPC  H10X 8630   3.165   6.019   4.897
   90SAPC  H10Y 8631   3.075   5.914   5.006
   90SAPC  C311 8632   3.169   5.804   4.855
   90SAPC  H11X 8633   3.070   5.806   4.804
   90SAPC  H11Y 8634   3.179   5.716   4.921
   90SAPC  C312 8635   3.270   5.822   4.742
   90SAPC  H12X 8636   3.366   5.862   4.781
   90SAPC  H12Y 8637   3.220   5.907   4.692
   90SAPC  C313 8638   3.280   5.699   4.655
   90SAPC  H13X 8639   3.282   5.608   4.719
   90SAPC  H13Y 8640   3.369   5.693   4.589
   90SAPC  C314 8641   3.163   5.690   4.553
   90SAPC  H14X 8642   3.185   5.754   4.464
   90SAPC  H14Y 8643   3.076   5.736   4.605
   90SAPC  C315 8644   3.140   5.548   4.504
   90SAPC  H15X 8645   3.116   5.484   4.591
   90SAPC  H15Y 8646   3.230   5.515   4.447
   90SAPC  C316 8647   3.026   5.553   4.405
   90SAPC  H16X 8648   3.030   5.650   4.351
   90SAPC  H16Y 8649   2.934   5.557   4.468
   90SAPC  C317 8650   3.016   5.441   4.296
   90SAPC  H17X 8651   3.020   5.358   4.370
   90SAPC  H17Y 8652   3.101   5.433   4.225
   90SAPC  C318 8653   2.885   5.442   4.211
   90SAPC  H18X 8654   2.849   5.343   4.176
   90SAPC  H18Y 8655   2.893   5.505   4.120
   90SAPC  H18Z 8656   2.804   5.487   4.273
   91SAPC     N 8657   0.173   5.795   6.605
   91SAPC   C12 8658   0.095   5.877   6.506
   91SAPC  H12A 8659   0.022   5.946   6.547
   91SAPC  H12B 8660   0.030   5.811   6.449
   91SAPC   C13 8661   0.240   5.880   6.716
   91SAPC  H13A 8662   0.170   5.926   6.785
   91SAPC  H13B 8663   0.312   5.819   6.769
   91SAPC  H13C 8664   0.296   5.959   6.668
   91SAPC   C14 8665   0.095   5.691   6.680
   91SAPC  H14A 8666   0.148   5.660   6.769
   91SAPC  H14B 8667   6.905   5.722   6.698
   91SAPC  H14C 8668   0.085   5.600   6.623
   91SAPC   C15 8669   0.278   5.717   6.531
   91SAPC  H15A 8670   0.341   5.778   6.468
   91SAPC  H15B 8671   0.332   5.659   6.604
   91SAPC  H15C 8672   0.227   5.649   6.465
   91SAPC   C11 8673   0.176   5.964   6.411
   91SAPC  H11A 8674   0.102   6.026   6.356
   91SAPC  H11B 8675   0.229   5.897   6.340
   91SAPC     P 8676   0.264   6.198   6.482
   91SAPC   O13 8677   0.129   6.235   6.529
   91SAPC   O14 8678   0.376   6.262   6.554
   91SAPC   O12 8679   0.276   6.039   6.476
   91SAPC   O11 8680   0.278   6.223   6.328
   91SAPC    C1 8681   0.403   6.189   6.267
   91SAPC    HA 8682   0.462   6.279   6.292
   91SAPC    HB 8683   0.454   6.101   6.313
   91SAPC    C2 8684   0.389   6.181   6.116
   91SAPC    HS 8685   0.474   6.121   6.075
   91SAPC   O21 8686   0.402   6.314   6.065
   91SAPC   C21 8687   0.532   6.351   6.046
   91SAPC   O22 8688   0.625   6.274   6.021
   91SAPC   C22 8689   0.542   6.495   6.047
   91SAPC   H2R 8690   0.440   6.540   6.043
   91SAPC   H2S 8691   0.587   6.526   6.144
   91SAPC    C3 8692   0.253   6.108   6.068
   91SAPC    HX 8693   0.163   6.168   6.092
   91SAPC    HY 8694   0.258   6.009   6.118
   91SAPC   O31 8695   0.265   6.071   5.928
   91SAPC   C31 8696   0.152   6.024   5.874
   91SAPC   O32 8697   0.052   5.993   5.932
   91SAPC   C32 8698   0.182   6.001   5.721
   91SAPC   H2X 8699   0.261   5.924   5.707
   91SAPC   H2Y 8700   0.221   6.095   5.677
   91SAPC   C23 8701   0.604   6.539   5.916
   91SAPC   H3R 8702   0.698   6.491   5.880
   91SAPC   H3S 8703   0.632   6.646   5.931
   91SAPC   C24 8704   0.501   6.532   5.801
   91SAPC   H4R 8705   0.469   6.425   5.793
   91SAPC   H4S 8706   0.560   6.561   5.711
   91SAPC   C25 8707   0.382   6.627   5.817
   91SAPC   H5R 8708   0.430   6.726   5.826
   91SAPC   C26 8709   0.252   6.597   5.812
   91SAPC   H6R 8710   0.174   6.674   5.817
   91SAPC   C27 8711   0.198   6.463   5.775
   91SAPC   H7R 8712   0.266   6.376   5.767
   91SAPC   H7S 8713   0.169   6.463   5.668
   91SAPC   C28 8714   0.086   6.428   5.874
   91SAPC   H8R 8715   0.119   6.439   5.979
   91SAPC   C29 8716   6.883   6.366   5.837
   91SAPC   H9R 8717   6.818   6.346   5.924
   91SAPC  C210 8718   6.830   6.332   5.698
   91SAPC  H10R 8719   6.890   6.253   5.649
   91SAPC  H10S 8720   6.844   6.424   5.638
   91SAPC  C211 8721   6.689   6.280   5.685
   91SAPC  H11R 8722   6.642   6.229   5.770
   91SAPC  C212 8723   6.614   6.289   5.571
   91SAPC  H12R 8724   6.509   6.256   5.576
   91SAPC  C213 8725   6.651   6.360   5.444
   91SAPC  H13R 8726   6.755   6.397   5.436
   91SAPC  H13S 8727   6.592   6.454   5.459
   91SAPC  C214 8728   6.614   6.277   5.324
   91SAPC  H14R 8729   6.649   6.172   5.323
   91SAPC  C215 8730   6.540   6.308   5.214
   91SAPC  H15R 8731   6.520   6.230   5.139
   91SAPC  C216 8732   6.463   6.435   5.197
   91SAPC  H16R 8733   6.493   6.513   5.270
   91SAPC  H16S 8734   6.357   6.404   5.212
   91SAPC  C217 8735   6.478   6.498   5.054
   91SAPC  H17R 8736   6.439   6.427   4.978
   91SAPC  H17S 8737   6.588   6.513   5.042
   91SAPC  C218 8738   6.404   6.636   5.039
   91SAPC  H18R 8739   6.445   6.704   5.117
   91SAPC  H18S 8740   6.301   6.633   5.080
   91SAPC  C219 8741   6.422   6.714   4.907
   91SAPC  H19R 8742   6.385   6.819   4.913
   91SAPC  H19S 8743   6.370   6.661   4.824
   91SAPC  C220 8744   6.566   6.733   4.875
   91SAPC  H20R 8745   6.619   6.800   4.946
   91SAPC  H20S 8746   6.575   6.799   4.787
   91SAPC  H20T 8747   6.622   6.637   4.875
   91SAPC   C33 8748   0.054   5.945   5.651
   91SAPC   H3X 8749   6.881   6.011   5.678
   91SAPC   H3Y 8750   0.025   5.851   5.702
   91SAPC   C34 8751   0.060   5.912   5.503
   91SAPC   H4X 8752   6.879   5.863   5.466
   91SAPC   H4Y 8753   0.139   5.836   5.484
   91SAPC   C35 8754   0.087   6.035   5.412
   91SAPC   H5X 8755   0.196   6.055   5.419
   91SAPC   H5Y 8756   0.032   6.120   5.459
   91SAPC   C36 8757   0.053   6.012   5.263
   91SAPC   H6X 8758   6.862   6.010   5.223
   91SAPC   H6Y 8759   0.103   5.920   5.226
   91SAPC   C37 8760   0.104   6.125   5.181
   91SAPC   H7X 8761   0.211   6.145   5.206
   91SAPC   H7Y 8762   0.052   6.219   5.209
   91SAPC   C38 8763   0.092   6.110   5.029
   91SAPC   H8X 8764   0.136   6.014   4.995
   91SAPC   H8Y 8765   0.149   6.190   4.977
   91SAPC   C39 8766   6.861   6.103   4.971
   91SAPC   H9X 8767   6.812   6.200   4.990
   91SAPC   H9Y 8768   6.803   6.025   5.025
   91SAPC  C310 8769   6.871   6.061   4.825
   91SAPC  H10X 8770   0.001   5.958   4.831
   91SAPC  H10Y 8771   0.033   6.115   4.763
   91SAPC  C311 8772   6.740   6.058   4.736
   91SAPC  H11X 8773   6.660   5.995   4.780
   91SAPC  H11Y 8774   6.792   6.005   4.654
   91SAPC  C312 8775   6.690   6.202   4.700
   91SAPC  H12X 8776   6.768   6.255   4.641
   91SAPC  H12Y 8777   6.665   6.267   4.787
   91SAPC  C313 8778   6.558   6.208   4.628
   91SAPC  H13X 8779   6.479   6.175   4.699
   91SAPC  H13Y 8780   6.567   6.145   4.537
   91SAPC  C314 8781   6.523   6.340   4.566
   91SAPC  H14X 8782   6.568   6.350   4.465
   91SAPC  H14Y 8783   6.564   6.418   4.634
   91SAPC  C315 8784   6.371   6.364   4.567
   91SAPC  H15X 8785   6.351   6.378   4.676
   91SAPC  H15Y 8786   6.334   6.271   4.518
   91SAPC  C316 8787   6.313   6.491   4.497
   91SAPC  H16X 8788   6.208   6.501   4.533
   91SAPC  H16Y 8789   6.312   6.467   4.388
   91SAPC  C317 8790   6.383   6.617   4.520
   91SAPC  H17X 8791   6.485   6.623   4.476
   91SAPC  H17Y 8792   6.396   6.629   4.629
   91SAPC  C318 8793   6.307   6.740   4.469
   91SAPC  H18X 8794   6.198   6.722   4.457
   91SAPC  H18Y 8795   6.353   6.758   4.369
   91SAPC  H18Z 8796   6.317   6.828   4.535
   92SAPC     N 8797   6.042   5.637   6.140
   92SAPC   C12 8798   6.089   5.507   6.198
   92SAPC  H12A 8799   6.196   5.500   6.199
   92SAPC  H12B 8800   6.047   5.432   6.133
   92SAPC   C13 8801   6.112   5.748   6.198
   92SAPC  H13A 8802   6.209   5.763   6.153
   92SAPC  H13B 8803   6.057   5.840   6.181
   92SAPC  H13C 8804   6.118   5.726   6.304
   92SAPC   C14 8805   6.062   5.649   5.991
   92SAPC  H14A 8806   6.014   5.740   5.958
   92SAPC  H14B 8807   6.167   5.652   5.965
   92SAPC  H14C 8808   6.024   5.563   5.937
   92SAPC   C15 8809   5.891   5.658   6.149
   92SAPC  H15A 8810   5.859   5.738   6.084
   92SAPC  H15B 8811   5.841   5.572   6.105
   92SAPC  H15C 8812   5.863   5.692   6.248
   92SAPC   C11 8813   6.054   5.466   6.344
   92SAPC  H11A 8814   6.077   5.358   6.355
   92SAPC  H11B 8815   5.946   5.487   6.358
   92SAPC     P 8816   6.278   5.516   6.472
   92SAPC   O13 8817   6.340   5.646   6.504
   92SAPC   O14 8818   6.274   5.417   6.580
   92SAPC   O12 8819   6.130   5.552   6.429
   92SAPC   O11 8820   6.341   5.446   6.354
   92SAPC    C1 8821   6.477   5.424   6.321
   92SAPC    HA 8822   6.547   5.500   6.361
   92SAPC    HB 8823   6.519   5.328   6.358
   92SAPC    C2 8824   6.501   5.438   6.170
   92SAPC    HS 8825   6.475   5.543   6.143
   92SAPC   O21 8826   6.426   5.340   6.100
   92SAPC   C21 8827   6.369   5.384   5.989
   92SAPC   O22 8828   6.355   5.500   5.955
   92SAPC   C22 8829   6.350   5.254   5.897
   92SAPC   H2R 8830   6.411   5.286   5.810
   92SAPC   H2S 8831   6.395   5.164   5.944
   92SAPC    C3 8832   6.650   5.418   6.136
   92SAPC    HX 8833   6.671   5.309   6.145
   92SAPC    HY 8834   6.714   5.463   6.215
   92SAPC   O31 8835   6.683   5.444   5.996
   92SAPC   C31 8836   6.704   5.577   5.977
   92SAPC   O32 8837   6.713   5.664   6.065
   92SAPC   C32 8838   6.731   5.603   5.828
   92SAPC   H2X 8839   6.753   5.712   5.820
   92SAPC   H2Y 8840   6.641   5.584   5.767
   92SAPC   C23 8841   6.207   5.225   5.845
   92SAPC   H3R 8842   6.171   5.315   5.790
   92SAPC   H3S 8843   6.139   5.208   5.931
   92SAPC   C24 8844   6.193   5.095   5.758
   92SAPC   H4R 8845   6.194   5.003   5.819
   92SAPC   H4S 8846   6.289   5.074   5.705
   92SAPC   C25 8847   6.061   5.085   5.689
   92SAPC   H5R 8848   5.969   5.066   5.746
   92SAPC   C26 8849   6.048   5.087   5.554
   92SAPC   H6R 8850   5.946   5.081   5.514
   92SAPC   C27 8851   6.159   5.115   5.454
   92SAPC   H7R 8852   6.238   5.037   5.464
   92SAPC   H7S 8853   6.197   5.216   5.478
   92SAPC   C28 8854   6.114   5.132   5.313
   92SAPC   H8R 8855   6.038   5.210   5.298
   92SAPC   C29 8856   6.153   5.065   5.202
   92SAPC   H9R 8857   6.099   5.093   5.110
   92SAPC  C210 8858   6.250   4.953   5.184
   92SAPC  H10R 8859   6.281   4.934   5.289
   92SAPC  H10S 8860   6.336   4.992   5.125
   92SAPC  C211 8861   6.189   4.826   5.126
   92SAPC  H11R 8862   6.140   4.764   5.202
   92SAPC  C212 8863   6.187   4.782   5.000
   92SAPC  H12R 8864   6.114   4.704   4.973
   92SAPC  C213 8865   6.229   4.868   4.887
   92SAPC  H13R 8866   6.332   4.837   4.859
   92SAPC  H13S 8867   6.241   4.976   4.911
   92SAPC  C214 8868   6.125   4.872   4.777
   92SAPC  H14R 8869   6.075   4.970   4.771
   92SAPC  C215 8870   6.098   4.779   4.682
   92SAPC  H15R 8871   6.015   4.807   4.616
   92SAPC  C216 8872   6.156   4.642   4.660
   92SAPC  H16R 8873   6.072   4.570   4.669
   92SAPC  H16S 8874   6.230   4.615   4.738
   92SAPC  C217 8875   6.218   4.606   4.529
   92SAPC  H17R 8876   6.241   4.499   4.543
   92SAPC  H17S 8877   6.309   4.668   4.515
   92SAPC  C218 8878   6.126   4.608   4.410
   92SAPC  H18R 8879   6.095   4.711   4.383
   92SAPC  H18S 8880   6.033   4.550   4.424
   92SAPC  C219 8881   6.212   4.558   4.289
   92SAPC  H19R 8882   6.158   4.488   4.222
   92SAPC  H19S 8883   6.281   4.495   4.349
   92SAPC  C220 8884   6.279   4.668   4.205
   92SAPC  H20R 8885   6.202   4.731   4.156
   92SAPC  H20S 8886   6.347   4.623   4.130
   92SAPC  H20T 8887   6.343   4.720   4.279
   92SAPC   C33 8888   6.849   5.527   5.759
   92SAPC   H3X 8889   6.830   5.420   5.781
   92SAPC   H3Y 8890   0.036   5.551   5.803
   92SAPC   C34 8891   6.859   5.553   5.607
   92SAPC   H4X 8892   6.814   5.652   5.583
   92SAPC   H4Y 8893   6.806   5.470   5.556
   92SAPC   C35 8894   0.091   5.551   5.554
   92SAPC   H5X 8895   0.146   5.459   5.585
   92SAPC   H5Y 8896   0.138   5.640   5.600
   92SAPC   C36 8897   0.103   5.563   5.401
   92SAPC   H6X 8898   0.210   5.549   5.379
   92SAPC   H6Y 8899   0.077   5.662   5.357
   92SAPC   C37 8900   0.030   5.460   5.315
   92SAPC   H7X 8901   6.832   5.464   5.333
   92SAPC   H7Y 8902   0.066   5.358   5.340
   92SAPC   C38 8903   0.067   5.485   5.168
   92SAPC   H8X 8904   0.020   5.408   5.103
   92SAPC   H8Y 8905   0.176   5.463   5.162
   92SAPC   C39 8906   0.008   5.624   5.115
   92SAPC   H9X 8907   0.087   5.702   5.112
   92SAPC   H9Y 8908   6.841   5.652   5.188
   92SAPC  C310 8909   6.877   5.609   4.972
   92SAPC  H10X 8910   6.828   5.708   4.954
   92SAPC  H10Y 8911   6.808   5.523   4.960
   92SAPC  C311 8912   0.081   5.615   4.870
   92SAPC  H11X 8913   0.135   5.518   4.880
   92SAPC  H11Y 8914   0.166   5.674   4.912
   92SAPC  C312 8915   0.040   5.669   4.735
   92SAPC  H12X 8916   6.905   5.769   4.746
   92SAPC  H12Y 8917   6.876   5.596   4.698
   92SAPC  C313 8918   0.152   5.684   4.634
   92SAPC  H13X 8919   0.211   5.590   4.628
   92SAPC  H13Y 8920   0.237   5.747   4.669
   92SAPC  C314 8921   0.127   5.732   4.491
   92SAPC  H14X 8922   0.078   5.651   4.433
   92SAPC  H14Y 8923   0.229   5.748   4.448
   92SAPC  C315 8924   0.038   5.855   4.488
   92SAPC  H15X 8925   0.075   5.934   4.557
   92SAPC  H15Y 8926   6.852   5.820   4.525
   92SAPC  C316 8927   0.018   5.905   4.347
   92SAPC  H16X 8928   6.876   5.821   4.298
   92SAPC  H16Y 8929   0.111   5.923   4.288
   92SAPC  C317 8930   6.841   6.031   4.355
   92SAPC  H17X 8931   6.895   6.114   4.405
   92SAPC  H17Y 8932   6.764   6.001   4.429
   92SAPC  C318 8933   6.795   6.077   4.222
   92SAPC  H18X 8934   6.763   5.995   4.155
   92SAPC  H18Y 8935   6.872   6.130   4.162
   92SAPC  H18Z 8936   6.708   6.146   4.233
   93SAPC     N 8937   1.184   6.652   6.734
   93SAPC   C12 8938   1.200   6.653   6.585
   93SAPC  H12A 8939   1.099   6.640   6.550
   93SAPC  H12B 8940   1.256   6.563   6.562
   93SAPC   C13 8941   1.074   6.758   6.766
   93SAPC  H13A 8942   1.043   6.764   6.869
   93SAPC  H13B 8943   1.108   6.855   6.734
   93SAPC  H13C 8944   0.985   6.747   6.706
   93SAPC   C14 8945   1.134   6.521   6.780
   93SAPC  H14A 8946   1.048   6.487   6.724
   93SAPC  H14B 8947   1.211   6.446   6.784
   93SAPC  H14C 8948   1.099   6.528   6.882
   93SAPC   C15 8949   1.309   6.689   6.792
   93SAPC  H15A 8950   1.328   6.793   6.770
   93SAPC  H15B 8951   1.303   6.679   6.899
   93SAPC  H15C 8952   1.396   6.640   6.752
   93SAPC   C11 8953   1.259   6.782   6.512
   93SAPC  H11A 8954   1.261   6.752   6.405
   93SAPC  H11B 8955   1.367   6.791   6.536
   93SAPC     P 8956   1.246   0.124   6.493
   93SAPC   O13 8957   1.137   0.224   6.460
   93SAPC   O14 8958   1.327   0.163   6.612
   93SAPC   O12 8959   1.179   6.894   6.527
   93SAPC   O11 8960   1.340   0.085   6.363
   93SAPC    C1 8961   1.300   0.155   6.235
   93SAPC    HA 8962   1.196   0.130   6.206
   93SAPC    HB 8963   1.319   0.265   6.242
   93SAPC    C2 8964   1.386   0.097   6.115
   93SAPC    HS 8965   1.490   0.118   6.148
   93SAPC   O21 8966   1.350   0.156   5.986
   93SAPC   C21 8967   1.393   0.286   5.973
   93SAPC   O22 8968   1.459   0.338   6.062
   93SAPC   C22 8969   1.343   0.348   5.847
   93SAPC   H2R 8970   1.244   0.390   5.875
   93SAPC   H2S 8971   1.408   0.438   5.836
   93SAPC    C3 8972   1.384   6.857   6.109
   93SAPC    HX 8973   1.276   6.835   6.122
   93SAPC    HY 8974   1.426   6.808   6.199
   93SAPC   O31 8975   1.434   6.804   5.989
   93SAPC   C31 8976   1.399   6.676   5.967
   93SAPC   O32 8977   1.329   6.611   6.042
   93SAPC   C32 8978   1.444   6.643   5.825
   93SAPC   H2X 8979   1.470   6.535   5.834
   93SAPC   H2Y 8980   1.530   6.704   5.793
   93SAPC   C23 8981   1.335   0.253   5.727
   93SAPC   H3R 8982   1.293   0.298   5.634
   93SAPC   H3S 8983   1.267   0.168   5.749
   93SAPC   C24 8984   1.475   0.203   5.678
   93SAPC   H4R 8985   1.528   0.158   5.764
   93SAPC   H4S 8986   1.528   0.291   5.636
   93SAPC   C25 8987   1.456   0.104   5.565
   93SAPC   H5R 8988   1.452   6.910   5.595
   93SAPC   C26 8989   1.431   0.132   5.432
   93SAPC   H6R 8990   1.424   0.053   5.356
   93SAPC   C27 8991   1.433   0.275   5.387
   93SAPC   H7R 8992   1.518   0.278   5.315
   93SAPC   H7S 8993   1.475   0.352   5.455
   93SAPC   C28 8994   1.303   0.316   5.320
   93SAPC   H8R 8995   1.235   0.375   5.384
   93SAPC   C29 8996   1.269   0.295   5.192
   93SAPC   H9R 8997   1.172   0.341   5.165
   93SAPC  C210 8998   1.349   0.214   5.094
   93SAPC  H10R 8999   1.275   0.141   5.053
   93SAPC  H10S 9000   1.425   0.147   5.141
   93SAPC  C211 9001   1.407   0.314   4.993
   93SAPC  H11R 9002   1.351   0.406   4.974
   93SAPC  C212 9003   1.496   0.271   4.907
   93SAPC  H12R 9004   1.518   0.337   4.822
   93SAPC  C213 9005   1.575   0.144   4.896
   93SAPC  H13R 9006   1.512   0.062   4.853
   93SAPC  H13S 9007   1.594   0.098   4.995
   93SAPC  C214 9008   1.712   0.150   4.831
   93SAPC  H14R 9009   1.717   0.117   4.726
   93SAPC  C215 9010   1.828   0.191   4.884
   93SAPC  H15R 9011   1.917   0.209   4.822
   93SAPC  C216 9012   1.830   0.242   5.026
   93SAPC  H16R 9013   1.727   0.248   5.067
   93SAPC  H16S 9014   1.849   0.351   5.022
   93SAPC  C217 9015   1.900   0.146   5.116
   93SAPC  H17R 9016   2.001   0.132   5.072
   93SAPC  H17S 9017   1.849   0.048   5.127
   93SAPC  C218 9018   1.927   0.207   5.252
   93SAPC  H18R 9019   2.002   0.288   5.236
   93SAPC  H18S 9020   1.984   0.136   5.315
   93SAPC  C219 9021   1.803   0.258   5.330
   93SAPC  H19R 9022   1.728   0.177   5.324
   93SAPC  H19S 9023   1.772   0.355   5.286
   93SAPC  C220 9024   1.832   0.299   5.472
   93SAPC  H20R 9025   1.922   0.365   5.472
   93SAPC  H20S 9026   1.848   0.214   5.543
   93SAPC  H20T 9027   1.744   0.350   5.515
   93SAPC   C33 9028   1.321   6.657   5.726
   93SAPC   H3X 9029   1.299   6.765   5.711
   93SAPC   H3Y 9030   1.225   6.617   5.764
   93SAPC   C34 9031   1.357   6.601   5.589
   93SAPC   H4X 9032   1.362   6.490   5.589
   93SAPC   H4Y 9033   1.457   6.638   5.558
   93SAPC   C35 9034   1.254   6.639   5.483
   93SAPC   H5X 9035   1.232   6.748   5.491
   93SAPC   H5Y 9036   1.152   6.594   5.486
   93SAPC   C36 9037   1.311   6.613   5.345
   93SAPC   H6X 9038   1.334   6.506   5.325
   93SAPC   H6Y 9039   1.408   6.662   5.325
   93SAPC   C37 9040   1.213   6.656   5.230
   93SAPC   H7X 9041   1.109   6.621   5.251
   93SAPC   H7Y 9042   1.253   6.622   5.133
   93SAPC   C38 9043   1.193   6.809   5.215
   93SAPC   H8X 9044   1.293   6.841   5.179
   93SAPC   H8Y 9045   1.171   6.858   5.312
   93SAPC   C39 9046   1.084   6.845   5.111
   93SAPC   H9X 9047   1.079   0.043   5.115
   93SAPC   H9Y 9048   0.983   6.804   5.135
   93SAPC  C310 9049   1.117   6.807   4.964
   93SAPC  H10X 9050   1.084   6.704   4.939
   93SAPC  H10Y 9051   1.223   6.830   4.937
   93SAPC  C311 9052   1.029   6.887   4.863
   93SAPC  H11X 9053   1.070   0.077   4.873
   93SAPC  H11Y 9054   0.921   6.887   4.890
   93SAPC  C312 9055   1.034   6.846   4.718
   93SAPC  H12X 9056   0.952   6.896   4.663
   93SAPC  H12Y 9057   1.001   6.740   4.719
   93SAPC  C313 9058   1.171   6.875   4.661
   93SAPC  H13X 9059   1.243   6.843   4.741
   93SAPC  H13Y 9060   1.185   0.071   4.640
   93SAPC  C314 9061   1.210   6.790   4.535
   93SAPC  H14X 9062   1.164   6.839   4.447
   93SAPC  H14Y 9063   1.173   6.687   4.557
   93SAPC  C315 9064   1.361   6.782   4.521
   93SAPC  H15X 9065   1.373   6.711   4.436
   93SAPC  H15Y 9066   1.396   6.754   4.622
   93SAPC  C316 9067   1.423   0.002   4.474
   93SAPC  H16X 9068   1.387   0.093   4.528
   93SAPC  H16Y 9069   1.398   0.013   4.367
   93SAPC  C317 9070   1.582   0.011   4.472
   93SAPC  H17X 9071   1.618   0.022   4.576
   93SAPC  H17Y 9072   1.601   0.104   4.415
   93SAPC  C318 9073   1.652   6.807   4.399
   93SAPC  H18X 9074   1.624   6.803   4.291
   93SAPC  H18Y 9075   1.625   6.710   4.444
   93SAPC  H18Z 9076   1.763   6.818   4.393
   94SAPC     N 9077   6.584   5.520   6.925
   94SAPC   C12 9078   6.536   5.418   6.826
   94SAPC  H12A 9079   6.428   5.425   6.828
   94SAPC  H12B 9080   6.561   5.318   6.858
   94SAPC   C13 9081   6.574   5.657   6.875
   94SAPC  H13A 9082   6.602   5.724   6.955
   94SAPC  H13B 9083   6.636   5.677   6.789
   94SAPC  H13C 9084   6.473   5.681   6.848
   94SAPC   C14 9085   6.502   5.505   7.056
   94SAPC  H14A 9086   6.398   5.530   7.044
   94SAPC  H14B 9087   6.504   5.402   7.088
   94SAPC  H14C 9088   6.550   5.575   7.123
   94SAPC   C15 9089   6.725   5.504   6.960
   94SAPC  H15A 9090   6.742   5.418   7.024
   94SAPC  H15B 9091   6.776   5.476   6.869
   94SAPC  H15C 9092   6.774   5.592   6.999
   94SAPC   C11 9093   6.583   5.444   6.682
   94SAPC  H11A 9094   6.563   5.551   6.662
   94SAPC  H11B 9095   6.533   5.383   6.604
   94SAPC     P 9096   6.797   5.471   6.545
   94SAPC   O13 9097   6.754   5.609   6.508
   94SAPC   O14 9098   0.028   5.441   6.570
   94SAPC   O12 9099   6.721   5.426   6.678
   94SAPC   O11 9100   6.748   5.377   6.433
   94SAPC    C1 9101   6.767   5.229   6.437
   94SAPC    HA 9102   6.757   5.188   6.539
   94SAPC    HB 9103   6.696   5.180   6.366
   94SAPC    C2 9104   6.905   5.197   6.367
   94SAPC    HS 9105   0.072   5.208   6.443
   94SAPC   O21 9106   0.023   5.290   6.261
   94SAPC   C21 9107   0.156   5.325   6.251
   94SAPC   O22 9108   0.245   5.279   6.313
   94SAPC   C22 9109   0.167   5.425   6.134
   94SAPC   H2R 9110   0.181   5.371   6.038
   94SAPC   H2S 9111   0.066   5.472   6.134
   94SAPC    C3 9112   0.000   5.050   6.320
   94SAPC    HX 9113   6.879   4.997   6.411
   94SAPC    HY 9114   0.105   5.029   6.289
   94SAPC   O31 9115   6.816   5.016   6.217
   94SAPC   C31 9116   6.844   5.040   6.086
   94SAPC   O32 9117   0.041   5.082   6.043
   94SAPC   C32 9118   6.717   5.027   5.997
   94SAPC   H2X 9119   6.631   5.075   6.048
   94SAPC   H2Y 9120   6.687   4.920   5.987
   94SAPC   C23 9121   0.282   5.528   6.145
   94SAPC   H3R 9122   0.383   5.484   6.160
   94SAPC   H3S 9123   0.263   5.598   6.229
   94SAPC   C24 9124   0.288   5.615   6.009
   94SAPC   H4R 9125   0.191   5.669   6.012
   94SAPC   H4S 9126   0.291   5.544   5.923
   94SAPC   C25 9127   0.400   5.718   6.021
   94SAPC   H5R 9128   0.417   5.758   6.122
   94SAPC   C26 9129   0.491   5.757   5.926
   94SAPC   H6R 9130   0.569   5.823   5.965
   94SAPC   C27 9131   0.487   5.721   5.777
   94SAPC   H7R 9132   0.386   5.697   5.738
   94SAPC   H7S 9133   0.548   5.629   5.764
   94SAPC   C28 9134   0.561   5.824   5.695
   94SAPC   H8R 9135   0.615   5.908   5.743
   94SAPC   C29 9136   0.556   5.828   5.564
   94SAPC   H9R 9137   0.629   5.903   5.530
   94SAPC  C210 9138   0.479   5.750   5.467
   94SAPC  H10R 9139   0.416   5.673   5.516
   94SAPC  H10S 9140   0.557   5.686   5.419
   94SAPC  C211 9141   0.415   5.830   5.351
   94SAPC  H11R 9142   0.336   5.902   5.377
   94SAPC  C212 9143   0.458   5.838   5.228
   94SAPC  H12R 9144   0.405   5.900   5.154
   94SAPC  C213 9145   0.569   5.744   5.170
   94SAPC  H13R 9146   0.607   5.663   5.236
   94SAPC  H13S 9147   0.660   5.806   5.155
   94SAPC  C214 9148   0.525   5.671   5.044
   94SAPC  H14R 9149   0.429   5.618   5.052
   94SAPC  C215 9150   0.583   5.674   4.921
   94SAPC  H15R 9151   0.537   5.621   4.836
   94SAPC  C216 9152   0.711   5.737   4.885
   94SAPC  H16R 9153   0.783   5.666   4.842
   94SAPC  H16S 9154   0.763   5.772   4.977
   94SAPC  C217 9155   0.702   5.871   4.804
   94SAPC  H17R 9156   0.655   5.955   4.858
   94SAPC  H17S 9157   0.634   5.847   4.719
   94SAPC  C218 9158   0.833   5.913   4.747
   94SAPC  H18R 9159   0.871   5.827   4.687
   94SAPC  H18S 9160   0.909   5.924   4.827
   94SAPC  C219 9161   0.832   6.033   4.656
   94SAPC  H19R 9162   0.938   6.049   4.626
   94SAPC  H19S 9163   0.804   6.130   4.702
   94SAPC  C220 9164   0.729   6.024   4.543
   94SAPC  H20R 9165   0.625   6.051   4.568
   94SAPC  H20S 9166   0.719   5.923   4.496
   94SAPC  H20T 9167   0.752   6.098   4.464
   94SAPC   C33 9168   6.755   5.099   5.869
   94SAPC   H3X 9169   6.856   5.070   5.834
   94SAPC   H3Y 9170   6.751   5.209   5.886
   94SAPC   C34 9171   6.665   5.063   5.755
   94SAPC   H4X 9172   6.557   5.055   5.781
   94SAPC   H4Y 9173   6.701   4.962   5.730
   94SAPC   C35 9174   6.670   5.166   5.639
   94SAPC   H5X 9175   6.776   5.174   5.607
   94SAPC   H5Y 9176   6.643   5.271   5.661
   94SAPC   C36 9177   6.584   5.137   5.517
   94SAPC   H6X 9178   6.483   5.183   5.514
   94SAPC   H6Y 9179   6.572   5.030   5.492
   94SAPC   C37 9180   6.654   5.201   5.394
   94SAPC   H7X 9181   6.747   5.148   5.368
   94SAPC   H7Y 9182   6.675   5.310   5.393
   94SAPC   C38 9183   6.560   5.180   5.269
   94SAPC   H8X 9184   6.474   5.250   5.277
   94SAPC   H8Y 9185   6.514   5.079   5.263
   94SAPC   C39 9186   6.630   5.186   5.135
   94SAPC   H9X 9187   6.719   5.119   5.136
   94SAPC   H9Y 9188   6.661   5.291   5.117
   94SAPC  C310 9189   6.544   5.141   5.023
   94SAPC  H10X 9190   6.437   5.168   5.031
   94SAPC  H10Y 9191   6.537   5.031   5.041
   94SAPC  C311 9192   6.599   5.199   4.890
   94SAPC  H11X 9193   6.706   5.178   4.873
   94SAPC  H11Y 9194   6.596   5.309   4.900
   94SAPC  C312 9195   6.520   5.144   4.770
   94SAPC  H12X 9196   6.530   5.221   4.691
   94SAPC  H12Y 9197   6.412   5.139   4.795
   94SAPC  C313 9198   6.563   5.002   4.734
   94SAPC  H13X 9199   6.484   4.951   4.676
   94SAPC  H13Y 9200   6.590   4.944   4.826
   94SAPC  C314 9201   6.692   5.010   4.645
   94SAPC  H14X 9202   6.764   5.078   4.695
   94SAPC  H14Y 9203   6.660   5.062   4.552
   94SAPC  C315 9204   6.756   4.879   4.607
   94SAPC  H15X 9205   6.685   4.816   4.549
   94SAPC  H15Y 9206   6.775   4.813   4.695
   94SAPC  C316 9207   6.885   4.893   4.525
   94SAPC  H16X 9208   0.004   4.787   4.515
   94SAPC  H16Y 9209   0.052   4.952   4.576
   94SAPC  C317 9210   6.883   4.932   4.379
   94SAPC  H17X 9211   0.075   4.959   4.349
   94SAPC  H17Y 9212   6.820   5.022   4.363
   94SAPC  C318 9213   6.830   4.817   4.283
   94SAPC  H18X 9214   6.722   4.802   4.304
   94SAPC  H18Y 9215   6.888   4.724   4.302
   94SAPC  H18Z 9216   6.849   4.852   4.179
   95SAPC     N 9217   3.912   6.158   1.902
   95SAPC   C12 9218   3.846   6.199   2.032
   95SAPC  H12A 9219   3.784   6.285   2.010
   95SAPC  H12B 9220   3.926   6.234   2.096
   95SAPC   C13 9221   3.982   6.024   1.912
   95SAPC  H13A 9222   3.906   5.950   1.929
   95SAPC  H13B 9223   4.039   6.004   1.822
   95SAPC  H13C 9224   4.051   6.027   1.995
   95SAPC   C14 9225   3.814   6.149   1.791
   95SAPC  H14A 9226   3.755   6.059   1.796
   95SAPC  H14B 9227   3.753   6.238   1.782
   95SAPC  H14C 9228   3.867   6.145   1.697
   95SAPC   C15 9229   4.018   6.257   1.861
   95SAPC  H15A 9230   4.093   6.259   1.938
   95SAPC  H15B 9231   4.070   6.229   1.770
   95SAPC  H15C 9232   3.973   6.355   1.849
   95SAPC   C11 9233   3.752   6.102   2.105
   95SAPC  H11A 9234   3.738   6.136   2.210
   95SAPC  H11B 9235   3.815   6.011   2.114
   95SAPC     P 9236   3.504   6.169   2.048
   95SAPC   O13 9237   3.539   6.293   2.119
   95SAPC   O14 9238   3.447   6.171   1.915
   95SAPC   O12 9239   3.627   6.075   2.042
   95SAPC   O11 9240   3.410   6.088   2.140
   95SAPC    C1 9241   3.431   6.075   2.273
   95SAPC    HA 9242   3.522   6.015   2.293
   95SAPC    HB 9243   3.439   6.175   2.322
   95SAPC    C2 9244   3.300   6.020   2.319
   95SAPC    HS 9245   3.214   6.071   2.273
   95SAPC   O21 9246   3.299   6.032   2.466
   95SAPC   C21 9247   3.180   6.014   2.516
   95SAPC   O22 9248   3.085   5.959   2.464
   95SAPC   C22 9249   3.178   6.073   2.660
   95SAPC   H2R 9250   3.177   5.994   2.738
   95SAPC   H2S 9251   3.267   6.138   2.675
   95SAPC    C3 9252   3.293   5.869   2.279
   95SAPC    HX 9253   3.308   5.859   2.169
   95SAPC    HY 9254   3.193   5.832   2.310
   95SAPC   O31 9255   3.388   5.793   2.366
   95SAPC   C31 9256   3.431   5.671   2.317
   95SAPC   O32 9257   3.389   5.620   2.218
   95SAPC   C32 9258   3.544   5.621   2.405
   95SAPC   H2X 9259   3.632   5.576   2.353
   95SAPC   H2Y 9260   3.499   5.550   2.477
   95SAPC   C23 9261   3.047   6.155   2.685
   95SAPC   H3R 9262   3.052   6.204   2.784
   95SAPC   H3S 9263   2.960   6.086   2.680
   95SAPC   C24 9264   3.007   6.282   2.601
   95SAPC   H4R 9265   3.071   6.361   2.646
   95SAPC   H4S 9266   2.902   6.314   2.617
   95SAPC   C25 9267   3.027   6.274   2.455
   95SAPC   H5R 9268   2.973   6.198   2.395
   95SAPC   C26 9269   3.112   6.348   2.381
   95SAPC   H6R 9270   3.121   6.323   2.274
   95SAPC   C27 9271   3.212   6.454   2.431
   95SAPC   H7R 9272   3.164   6.518   2.507
   95SAPC   H7S 9273   3.236   6.523   2.348
   95SAPC   C28 9274   3.334   6.392   2.499
   95SAPC   H8R 9275   3.407   6.331   2.443
   95SAPC   C29 9276   3.384   6.431   2.614
   95SAPC   H9R 9277   3.483   6.384   2.631
   95SAPC  C210 9278   3.320   6.517   2.728
   95SAPC  H10R 9279   3.345   6.473   2.828
   95SAPC  H10S 9280   3.210   6.520   2.715
   95SAPC  C211 9281   3.369   6.664   2.713
   95SAPC  H11R 9282   3.453   6.678   2.644
   95SAPC  C212 9283   3.333   6.780   2.784
   95SAPC  H12R 9284   3.390   6.871   2.763
   95SAPC  C213 9285   3.220   6.787   2.885
   95SAPC  H13R 9286   3.255   6.760   2.988
   95SAPC  H13S 9287   3.142   6.710   2.868
   95SAPC  C214 9288   3.153   0.010   2.882
   95SAPC  H14R 9289   3.174   0.081   2.801
   95SAPC  C215 9290   3.051   0.047   2.961
   95SAPC  H15R 9291   2.995   0.135   2.925
   95SAPC  C216 9292   2.990   6.879   3.080
   95SAPC  H16R 9293   2.997   6.769   3.075
   95SAPC  H16S 9294   2.879   6.883   3.086
   95SAPC  C217 9295   3.065   6.890   3.217
   95SAPC  H17R 9296   3.041   0.079   3.255
   95SAPC  H17S 9297   3.175   6.892   3.200
   95SAPC  C218 9298   3.030   6.774   3.311
   95SAPC  H18R 9299   3.058   6.683   3.253
   95SAPC  H18S 9300   2.921   6.775   3.330
   95SAPC  C219 9301   3.096   6.772   3.449
   95SAPC  H19R 9302   3.064   6.864   3.502
   95SAPC  H19S 9303   3.206   6.782   3.433
   95SAPC  C220 9304   3.068   6.653   3.542
   95SAPC  H20R 9305   3.146   6.642   3.619
   95SAPC  H20S 9306   3.064   6.560   3.481
   95SAPC  H20T 9307   2.969   6.661   3.593
   95SAPC   C33 9308   3.605   5.738   2.494
   95SAPC   H3X 9309   3.516   5.761   2.555
   95SAPC   H3Y 9310   3.635   5.813   2.418
   95SAPC   C34 9311   3.721   5.686   2.586
   95SAPC   H4X 9312   3.772   5.768   2.641
   95SAPC   H4Y 9313   3.797   5.639   2.519
   95SAPC   C35 9314   3.673   5.575   2.690
   95SAPC   H5X 9315   3.758   5.529   2.745
   95SAPC   H5Y 9316   3.628   5.495   2.628
   95SAPC   C36 9317   3.581   5.633   2.799
   95SAPC   H6X 9318   3.481   5.657   2.758
   95SAPC   H6Y 9319   3.643   5.715   2.843
   95SAPC   C37 9320   3.573   5.531   2.913
   95SAPC   H7X 9321   3.674   5.500   2.948
   95SAPC   H7Y 9322   3.528   5.434   2.886
   95SAPC   C38 9323   3.489   5.577   3.034
   95SAPC   H8X 9324   3.393   5.617   2.997
   95SAPC   H8Y 9325   3.554   5.655   3.079
   95SAPC   C39 9326   3.466   5.470   3.142
   95SAPC   H9X 9327   3.568   5.454   3.182
   95SAPC   H9Y 9328   3.437   5.373   3.096
   95SAPC  C310 9329   3.363   5.504   3.259
   95SAPC  H10X 9330   3.261   5.476   3.227
   95SAPC  H10Y 9331   3.364   5.614   3.276
   95SAPC  C311 9332   3.396   5.438   3.392
   95SAPC  H11X 9333   3.502   5.421   3.418
   95SAPC  H11Y 9334   3.361   5.333   3.386
   95SAPC  C312 9335   3.333   5.501   3.524
   95SAPC  H12X 9336   3.412   5.567   3.566
   95SAPC  H12Y 9337   3.331   5.424   3.605
   95SAPC  C313 9338   3.195   5.580   3.519
   95SAPC  H13X 9339   3.119   5.500   3.505
   95SAPC  H13Y 9340   3.193   5.653   3.436
   95SAPC  C314 9341   3.171   5.646   3.651
   95SAPC  H14X 9342   3.185   5.560   3.719
   95SAPC  H14Y 9343   3.063   5.672   3.656
   95SAPC  C315 9344   3.246   5.779   3.677
   95SAPC  H15X 9345   3.201   5.852   3.606
   95SAPC  H15Y 9346   3.352   5.769   3.648
   95SAPC  C316 9347   3.240   5.815   3.824
   95SAPC  H16X 9348   3.259   5.924   3.825
   95SAPC  H16Y 9349   3.321   5.754   3.870
   95SAPC  C317 9350   3.102   5.800   3.890
   95SAPC  H17X 9351   3.079   5.692   3.880
   95SAPC  H17Y 9352   3.016   5.847   3.836
   95SAPC  C318 9353   3.114   5.846   4.040
   95SAPC  H18X 9354   3.020   5.823   4.095
   95SAPC  H18Y 9355   3.138   5.954   4.048
   95SAPC  H18Z 9356   3.197   5.791   4.088
   96SAPC     N 9357   3.127   2.171   1.758
   96SAPC   C12 9358   3.211   2.245   1.859
   96SAPC  H12A 9359   3.183   2.348   1.873
   96SAPC  H12B 9360   3.312   2.250   1.823
   96SAPC   C13 9361   3.162   2.216   1.620
   96SAPC  H13A 9362   3.264   2.193   1.593
   96SAPC  H13B 9363   3.106   2.178   1.536
   96SAPC  H13C 9364   3.157   2.323   1.618
   96SAPC   C14 9365   3.142   2.024   1.758
   96SAPC  H14A 9366   3.063   1.977   1.701
   96SAPC  H14B 9367   3.245   2.004   1.733
   96SAPC  H14C 9368   3.127   1.985   1.857
   96SAPC   C15 9369   2.978   2.199   1.781
   96SAPC  H15A 9370   2.943   2.207   1.883
   96SAPC  H15B 9371   2.952   2.295   1.739
   96SAPC  H15C 9372   2.925   2.126   1.722
   96SAPC   C11 9373   3.220   2.179   2.002
   96SAPC  H11A 9374   3.113   2.155   2.023
   96SAPC  H11B 9375   3.252   2.261   2.070
   96SAPC     P 9376   3.449   2.083   1.993
   96SAPC   O13 9377   3.510   1.962   1.930
   96SAPC   O14 9378   3.468   2.213   1.929
   96SAPC   O12 9379   3.289   2.064   2.008
   96SAPC   O11 9380   3.492   2.097   2.147
   96SAPC    C1 9381   3.457   1.987   2.234
   96SAPC    HA 9382   3.410   1.905   2.176
   96SAPC    HB 9383   3.549   1.941   2.278
   96SAPC    C2 9384   3.369   2.051   2.342
   96SAPC    HS 9385   3.270   2.067   2.295
   96SAPC   O21 9386   3.416   2.179   2.388
   96SAPC   C21 9387   3.345   2.234   2.481
   96SAPC   O22 9388   3.224   2.197   2.504
   96SAPC   C22 9389   3.411   2.361   2.528
   96SAPC   H2R 9390   3.455   2.415   2.441
   96SAPC   H2S 9391   3.337   2.423   2.582
   96SAPC    C3 9392   3.339   1.941   2.460
   96SAPC    HX 9393   3.331   1.840   2.413
   96SAPC    HY 9394   3.245   1.968   2.513
   96SAPC   O31 9395   3.440   1.940   2.562
   96SAPC   C31 9396   3.525   1.839   2.557
   96SAPC   O32 9397   3.522   1.748   2.478
   96SAPC   C32 9398   3.622   1.863   2.674
   96SAPC   H2X 9399   3.573   1.925   2.752
   96SAPC   H2Y 9400   3.713   1.906   2.628
   96SAPC   C23 9401   3.525   2.337   2.628
   96SAPC   H3R 9402   3.558   2.438   2.661
   96SAPC   H3S 9403   3.616   2.295   2.579
   96SAPC   C24 9404   3.486   2.254   2.751
   96SAPC   H4R 9405   3.582   2.248   2.806
   96SAPC   H4S 9406   3.461   2.149   2.725
   96SAPC   C25 9407   3.377   2.316   2.836
   96SAPC   H5R 9408   3.280   2.332   2.786
   96SAPC   C26 9409   3.393   2.350   2.969
   96SAPC   H6R 9410   3.307   2.396   3.019
   96SAPC   C27 9411   3.511   2.335   3.061
   96SAPC   H7R 9412   3.529   2.429   3.118
   96SAPC   H7S 9413   3.599   2.313   2.997
   96SAPC   C28 9414   3.493   2.223   3.163
   96SAPC   H8R 9415   3.508   2.123   3.121
   96SAPC   C29 9416   3.501   2.229   3.299
   96SAPC   H9R 9417   3.478   2.142   3.361
   96SAPC  C210 9418   3.520   2.350   3.381
   96SAPC  H10R 9419   3.561   2.431   3.318
   96SAPC  H10S 9420   3.599   2.335   3.457
   96SAPC  C211 9421   3.388   2.397   3.454
   96SAPC  H11R 9422   3.297   2.369   3.398
   96SAPC  C212 9423   3.370   2.477   3.564
   96SAPC  H12R 9424   3.271   2.494   3.608
   96SAPC  C213 9425   3.479   2.528   3.648
   96SAPC  H13R 9426   3.442   2.611   3.712
   96SAPC  H13S 9427   3.568   2.562   3.591
   96SAPC  C214 9428   3.518   2.403   3.732
   96SAPC  H14R 9429   3.580   2.330   3.677
   96SAPC  C215 9430   3.532   2.395   3.868
   96SAPC  H15R 9431   3.550   2.295   3.910
   96SAPC  C216 9432   3.484   2.511   3.959
   96SAPC  H16R 9433   3.392   2.471   4.006
   96SAPC  H16S 9434   3.458   2.606   3.907
   96SAPC  C217 9435   3.577   2.546   4.077
   96SAPC  H17R 9436   3.667   2.592   4.032
   96SAPC  H17S 9437   3.618   2.467   4.144
   96SAPC  C218 9438   3.524   2.663   4.162
   96SAPC  H18R 9439   3.497   2.744   4.091
   96SAPC  H18S 9440   3.602   2.708   4.228
   96SAPC  C219 9441   3.389   2.629   4.239
   96SAPC  H19R 9442   3.309   2.626   4.162
   96SAPC  H19S 9443   3.353   2.714   4.301
   96SAPC  C220 9444   3.411   2.496   4.311
   96SAPC  H20R 9445   3.420   2.406   4.245
   96SAPC  H20S 9446   3.321   2.467   4.369
   96SAPC  H20T 9447   3.500   2.497   4.377
   96SAPC   C33 9448   3.651   1.725   2.736
   96SAPC   H3X 9449   3.742   1.725   2.799
   96SAPC   H3Y 9450   3.664   1.646   2.659
   96SAPC   C34 9451   3.543   1.685   2.845
   96SAPC   H4X 9452   3.547   1.575   2.861
   96SAPC   H4Y 9453   3.439   1.714   2.820
   96SAPC   C35 9454   3.565   1.766   2.980
   96SAPC   H5X 9455   3.536   1.869   2.950
   96SAPC   H5Y 9456   3.673   1.758   3.008
   96SAPC   C36 9457   3.479   1.711   3.098
   96SAPC   H6X 9458   3.502   1.603   3.104
   96SAPC   H6Y 9459   3.372   1.725   3.068
   96SAPC   C37 9460   3.487   1.789   3.231
   96SAPC   H7X 9461   3.482   1.899   3.217
   96SAPC   H7Y 9462   3.577   1.755   3.287
   96SAPC   C38 9463   3.355   1.757   3.310
   96SAPC   H8X 9464   3.350   1.650   3.338
   96SAPC   H8Y 9465   3.267   1.773   3.244
   96SAPC   C39 9466   3.345   1.836   3.442
   96SAPC   H9X 9467   3.241   1.833   3.481
   96SAPC   H9Y 9468   3.387   1.935   3.416
   96SAPC  C310 9469   3.425   1.784   3.553
   96SAPC  H10X 9470   3.529   1.797   3.516
   96SAPC  H10Y 9471   3.404   1.676   3.570
   96SAPC  C311 9472   3.426   1.867   3.683
   96SAPC  H11X 9473   3.418   1.975   3.659
   96SAPC  H11Y 9474   3.518   1.841   3.739
   96SAPC  C312 9475   3.306   1.837   3.771
   96SAPC  H12X 9476   3.320   1.729   3.794
   96SAPC  H12Y 9477   3.215   1.846   3.707
   96SAPC  C313 9478   3.296   1.911   3.898
   96SAPC  H13X 9479   3.294   2.022   3.887
   96SAPC  H13Y 9480   3.384   1.895   3.964
   96SAPC  C314 9481   3.164   1.876   3.973
   96SAPC  H14X 9482   3.121   1.775   3.962
   96SAPC  H14Y 9483   3.087   1.941   3.927
   96SAPC  C315 9484   3.170   1.911   4.119
   96SAPC  H15X 9485   3.212   2.012   4.137
   96SAPC  H15Y 9486   3.245   1.845   4.168
   96SAPC  C316 9487   3.032   1.900   4.191
   96SAPC  H16X 9488   2.971   1.982   4.149
   96SAPC  H16Y 9489   3.071   1.923   4.293
   96SAPC  C317 9490   2.976   1.756   4.186
   96SAPC  H17X 9491   2.963   1.730   4.079
   96SAPC  H17Y 9492   2.876   1.757   4.236
   96SAPC  C318 9493   3.070   1.655   4.253
   96SAPC  H18X 9494   3.024   1.554   4.264
   96SAPC  H18Y 9495   3.097   1.688   4.356
   96SAPC  H18Z 9496   3.159   1.638   4.189
   97SAPC     N 9497   2.543   0.942   1.912
   97SAPC   C12 9498   2.508   0.883   2.048
   97SAPC  H12A 9499   2.500   0.775   2.044
   97SAPC  H12B 9500   2.409   0.924   2.066
   97SAPC   C13 9501   2.451   0.910   1.801
   97SAPC  H13A 9502   2.366   0.976   1.814
   97SAPC  H13B 9503   2.485   0.935   1.701
   97SAPC  H13C 9504   2.417   0.808   1.806
   97SAPC   C14 9505   2.559   1.083   1.922
   97SAPC  H14A 9506   2.584   1.117   1.823
   97SAPC  H14B 9507   2.473   1.135   1.964
   97SAPC  H14C 9508   2.639   1.122   1.983
   97SAPC   C15 9509   2.682   0.890   1.879
   97SAPC  H15A 9510   2.706   0.907   1.775
   97SAPC  H15B 9511   2.764   0.923   1.941
   97SAPC  H15C 9512   2.688   0.782   1.879
   97SAPC   C11 9513   2.591   0.921   2.174
   97SAPC  H11A 9514   2.533   0.922   2.269
   97SAPC  H11B 9515   2.622   1.027   2.160
   97SAPC     P 9516   2.709   0.687   2.204
   97SAPC   O13 9517   2.575   0.627   2.175
   97SAPC   O14 9518   2.823   0.624   2.127
   97SAPC   O12 9519   2.711   0.841   2.175
   97SAPC   O11 9520   2.726   0.679   2.355
   97SAPC    C1 9521   2.818   0.757   2.431
   97SAPC    HA 9522   2.831   0.858   2.388
   97SAPC    HB 9523   2.778   0.781   2.532
   97SAPC    C2 9524   2.951   0.677   2.445
   97SAPC    HS 9525   2.976   0.635   2.345
   97SAPC   O21 9526   2.926   0.574   2.547
   97SAPC   C21 9527   3.017   0.481   2.570
   97SAPC   O22 9528   3.123   0.463   2.519
   97SAPC   C22 9529   2.950   0.379   2.670
   97SAPC   H2R 9530   2.856   0.340   2.626
   97SAPC   H2S 9531   3.025   0.297   2.681
   97SAPC    C3 9532   3.072   0.766   2.487
   97SAPC    HX 9533   3.091   0.843   2.409
   97SAPC    HY 9534   3.165   0.705   2.485
   97SAPC   O31 9535   3.041   0.844   2.605
   97SAPC   C31 9536   3.097   0.808   2.714
   97SAPC   O32 9537   3.183   0.722   2.728
   97SAPC   C32 9538   3.031   0.884   2.828
   97SAPC   H2X 9539   2.922   0.886   2.808
   97SAPC   H2Y 9540   3.084   0.981   2.824
   97SAPC   C23 9541   2.899   0.449   2.806
   97SAPC   H3R 9542   2.841   0.539   2.775
   97SAPC   H3S 9543   2.985   0.491   2.862
   97SAPC   C24 9544   2.812   0.365   2.895
   97SAPC   H4R 9545   2.839   0.258   2.887
   97SAPC   H4S 9546   2.708   0.371   2.856
   97SAPC   C25 9547   2.810   0.430   3.037
   97SAPC   H5R 9548   2.884   0.505   3.068
   97SAPC   C26 9549   2.719   0.409   3.134
   97SAPC   H6R 9550   2.737   0.448   3.235
   97SAPC   C27 9551   2.607   0.309   3.128
   97SAPC   H7R 9552   2.568   0.302   3.025
   97SAPC   H7S 9553   2.524   0.334   3.198
   97SAPC   C28 9554   2.649   0.165   3.161
   97SAPC   H8R 9555   2.644   0.091   3.080
   97SAPC   C29 9556   2.707   0.118   3.281
   97SAPC   H9R 9557   2.737   0.012   3.286
   97SAPC  C210 9558   2.730   0.185   3.412
   97SAPC  H10R 9559   2.633   0.177   3.466
   97SAPC  H10S 9560   2.759   0.292   3.406
   97SAPC  C211 9561   2.825   0.101   3.497
   97SAPC  H11R 9562   2.931   0.116   3.472
   97SAPC  C212 9563   2.790   0.016   3.594
   97SAPC  H12R 9564   2.869   6.867   3.640
   97SAPC  C213 9565   2.650   6.910   3.645
   97SAPC  H13R 9566   2.611   0.101   3.656
   97SAPC  H13S 9567   2.652   6.865   3.747
   97SAPC  C214 9568   2.576   6.807   3.560
   97SAPC  H14R 9569   2.624   6.778   3.465
   97SAPC  C215 9570   2.460   6.743   3.584
   97SAPC  H15R 9571   2.433   6.663   3.514
   97SAPC  C216 9572   2.375   6.762   3.700
   97SAPC  H16R 9573   2.273   6.775   3.659
   97SAPC  H16S 9574   2.404   6.856   3.750
   97SAPC  C217 9575   2.380   6.647   3.799
   97SAPC  H17R 9576   2.480   6.637   3.847
   97SAPC  H17S 9577   2.363   6.546   3.756
   97SAPC  C218 9578   2.274   6.662   3.911
   97SAPC  H18R 9579   2.175   6.632   3.871
   97SAPC  H18S 9580   2.255   6.767   3.942
   97SAPC  C219 9581   2.315   6.587   4.049
   97SAPC  H19R 9582   2.235   6.638   4.107
   97SAPC  H19S 9583   2.412   6.625   4.088
   97SAPC  C220 9584   2.315   6.432   4.051
   97SAPC  H20R 9585   2.223   6.411   3.992
   97SAPC  H20S 9586   2.319   6.391   4.154
   97SAPC  H20T 9587   2.404   6.401   3.993
   97SAPC   C33 9588   3.066   0.815   2.962
   97SAPC   H3X 9589   3.176   0.801   2.973
   97SAPC   H3Y 9590   3.030   0.710   2.970
   97SAPC   C34 9591   3.023   0.883   3.096
   97SAPC   H4X 9592   2.923   0.931   3.101
   97SAPC   H4Y 9593   3.094   0.964   3.122
   97SAPC   C35 9594   3.035   0.794   3.222
   97SAPC   H5X 9595   3.128   0.734   3.226
   97SAPC   H5Y 9596   2.960   0.712   3.233
   97SAPC   C36 9597   3.032   0.878   3.351
   97SAPC   H6X 9598   2.928   0.918   3.352
   97SAPC   H6Y 9599   3.095   0.969   3.357
   97SAPC   C37 9600   3.063   0.798   3.475
   97SAPC   H7X 9601   3.168   0.763   3.469
   97SAPC   H7Y 9602   3.008   0.702   3.482
   97SAPC   C38 9603   3.035   0.878   3.604
   97SAPC   H8X 9604   2.928   0.910   3.607
   97SAPC   H8Y 9605   3.094   0.972   3.599
   97SAPC   C39 9606   3.089   0.793   3.717
   97SAPC   H9X 9607   3.199   0.775   3.710
   97SAPC   H9Y 9608   3.052   0.688   3.721
   97SAPC  C310 9609   3.037   0.863   3.847
   97SAPC  H10X 9610   2.927   0.852   3.840
   97SAPC  H10Y 9611   3.057   0.971   3.868
   97SAPC  C311 9612   3.081   0.793   3.975
   97SAPC  H11X 9613   3.192   0.785   3.977
   97SAPC  H11Y 9614   3.038   0.691   3.967
   97SAPC  C312 9615   3.031   0.861   4.103
   97SAPC  H12X 9616   3.057   0.969   4.106
   97SAPC  H12Y 9617   3.089   0.812   4.184
   97SAPC  C313 9618   2.883   0.849   4.146
   97SAPC  H13X 9619   2.818   0.890   4.066
   97SAPC  H13Y 9620   2.865   0.912   4.235
   97SAPC  C314 9621   2.827   0.714   4.183
   97SAPC  H14X 9622   2.807   0.659   4.088
   97SAPC  H14Y 9623   2.725   0.736   4.220
   97SAPC  C315 9624   2.917   0.628   4.271
   97SAPC  H15X 9625   2.979   0.689   4.340
   97SAPC  H15Y 9626   2.974   0.562   4.201
   97SAPC  C316 9627   2.836   0.542   4.372
   97SAPC  H16X 9628   2.759   0.610   4.413
   97SAPC  H16Y 9629   2.909   0.507   4.448
   97SAPC  C317 9630   2.770   0.420   4.322
   97SAPC  H17X 9631   2.697   0.465   4.252
   97SAPC  H17Y 9632   2.719   0.371   4.408
   97SAPC  C318 9633   2.843   0.310   4.250
   97SAPC  H18X 9634   2.898   0.357   4.166
   97SAPC  H18Y 9635   2.770   0.238   4.208
   97SAPC  H18Z 9636   2.921   0.269   4.317
   98SAPC     N 9637   5.735   2.050   2.458
   98SAPC   C12 9638   5.721   1.949   2.343
   98SAPC  H12A 9639   5.742   1.995   2.247
   98SAPC  H12B 9640   5.617   1.919   2.341
   98SAPC   C13 9641   5.710   1.987   2.588
   98SAPC  H13A 9642   5.608   1.954   2.596
   98SAPC  H13B 9643   5.784   1.911   2.610
   98SAPC  H13C 9644   5.718   2.062   2.665
   98SAPC   C14 9645   5.877   2.101   2.466
   98SAPC  H14A 9646   5.906   2.145   2.371
   98SAPC  H14B 9647   5.887   2.173   2.546
   98SAPC  H14C 9648   5.956   2.028   2.476
   98SAPC   C15 9649   5.638   2.165   2.442
   98SAPC  H15A 9650   5.653   2.242   2.517
   98SAPC  H15B 9651   5.658   2.213   2.348
   98SAPC  H15C 9652   5.536   2.129   2.449
   98SAPC   C11 9653   5.804   1.820   2.344
   98SAPC  H11A 9654   5.797   1.774   2.446
   98SAPC  H11B 9655   5.912   1.841   2.336
   98SAPC     P 9656   5.808   1.581   2.226
   98SAPC   O13 9657   5.702   1.477   2.211
   98SAPC   O14 9658   5.917   1.579   2.125
   98SAPC   O12 9659   5.751   1.732   2.238
   98SAPC   O11 9660   5.879   1.553   2.364
   98SAPC    C1 9661   5.953   1.428   2.371
   98SAPC    HA 9662   5.939   1.361   2.283
   98SAPC    HB 9663   6.063   1.444   2.365
   98SAPC    C2 9664   5.935   1.341   2.501
   98SAPC    HS 9665   5.832   1.300   2.490
   98SAPC   O21 9666   5.960   1.426   2.619
   98SAPC   C21 9667   5.856   1.495   2.668
   98SAPC   O22 9668   5.740   1.476   2.638
   98SAPC   C22 9669   5.900   1.602   2.769
   98SAPC   H2R 9670   5.966   1.558   2.846
   98SAPC   H2S 9671   5.961   1.671   2.706
   98SAPC    C3 9672   6.032   1.216   2.507
   98SAPC    HX 9673   6.137   1.254   2.503
   98SAPC    HY 9674   6.022   1.155   2.414
   98SAPC   O31 9675   5.996   1.133   2.619
   98SAPC   C31 9676   5.899   1.041   2.598
   98SAPC   O32 9677   5.831   1.033   2.497
   98SAPC   C32 9678   5.879   0.954   2.715
   98SAPC   H2X 9679   5.942   0.997   2.796
   98SAPC   H2Y 9680   5.937   0.862   2.689
   98SAPC   C23 9681   5.783   1.669   2.832
   98SAPC   H3R 9682   5.723   1.593   2.886
   98SAPC   H3S 9683   5.718   1.716   2.755
   98SAPC   C24 9684   5.822   1.779   2.932
   98SAPC   H4R 9685   5.729   1.786   2.993
   98SAPC   H4S 9686   5.829   1.873   2.873
   98SAPC   C25 9687   5.944   1.749   3.009
   98SAPC   H5R 9688   6.034   1.785   2.956
   98SAPC   C26 9689   5.943   1.688   3.130
   98SAPC   H6R 9690   6.034   1.679   3.192
   98SAPC   C27 9691   5.827   1.633   3.208
   98SAPC   H7R 9692   5.852   1.531   3.242
   98SAPC   H7S 9693   5.751   1.628   3.127
   98SAPC   C28 9694   5.775   1.730   3.314
   98SAPC   H8R 9695   5.771   1.838   3.295
   98SAPC   C29 9696   5.749   1.693   3.442
   98SAPC   H9R 9697   5.695   1.760   3.510
   98SAPC  C210 9698   5.749   1.550   3.502
   98SAPC  H10R 9699   5.798   1.477   3.434
   98SAPC  H10S 9700   5.651   1.512   3.536
   98SAPC  C211 9701   5.816   1.561   3.627
   98SAPC  H11R 9702   5.783   1.641   3.695
   98SAPC  C212 9703   5.913   1.479   3.674
   98SAPC  H12R 9704   5.969   1.510   3.764
   98SAPC  C213 9705   5.972   1.349   3.620
   98SAPC  H13R 9706   5.927   1.326   3.521
   98SAPC  H13S 9707   5.941   1.272   3.694
   98SAPC  C214 9708   6.126   1.348   3.613
   98SAPC  H14R 9709   6.170   1.426   3.677
   98SAPC  C215 9710   6.194   1.288   3.520
   98SAPC  H15R 9711   6.301   1.310   3.517
   98SAPC  C216 9712   6.144   1.205   3.403
   98SAPC  H16R 9713   6.037   1.178   3.417
   98SAPC  H16S 9714   6.189   1.104   3.390
   98SAPC  C217 9715   6.170   1.287   3.281
   98SAPC  H17R 9716   6.275   1.322   3.269
   98SAPC  H17S 9717   6.117   1.384   3.291
   98SAPC  C218 9718   6.119   1.221   3.153
   98SAPC  H18R 9719   6.016   1.192   3.183
   98SAPC  H18S 9720   6.171   1.127   3.122
   98SAPC  C219 9721   6.143   1.312   3.035
   98SAPC  H19R 9722   6.253   1.322   3.022
   98SAPC  H19S 9723   6.099   1.408   3.071
   98SAPC  C220 9724   6.097   1.273   2.895
   98SAPC  H20R 9725   6.145   1.176   2.870
   98SAPC  H20S 9726   6.116   1.352   2.819
   98SAPC  H20T 9727   5.989   1.251   2.880
   98SAPC   C33 9728   5.732   0.930   2.749
   98SAPC   H3X 9729   5.736   0.869   2.842
   98SAPC   H3Y 9730   5.683   0.877   2.665
   98SAPC   C34 9731   5.649   1.047   2.810
   98SAPC   H4X 9732   5.553   1.006   2.847
   98SAPC   H4Y 9733   5.617   1.112   2.726
   98SAPC   C35 9734   5.714   1.120   2.925
   98SAPC   H5X 9735   5.818   1.157   2.915
   98SAPC   H5Y 9736   5.709   1.049   3.010
   98SAPC   C36 9737   5.642   1.250   2.970
   98SAPC   H6X 9738   5.540   1.226   3.006
   98SAPC   H6Y 9739   5.631   1.330   2.894
   98SAPC   C37 9740   5.709   1.328   3.089
   98SAPC   H7X 9741   5.656   1.425   3.106
   98SAPC   H7Y 9742   5.810   1.367   3.065
   98SAPC   C38 9743   5.724   1.245   3.212
   98SAPC   H8X 9744   5.796   1.304   3.274
   98SAPC   H8Y 9745   5.773   1.146   3.198
   98SAPC   C39 9746   5.599   1.227   3.295
   98SAPC   H9X 9747   5.518   1.168   3.247
   98SAPC   H9Y 9748   5.559   1.328   3.318
   98SAPC  C310 9749   5.638   1.170   3.430
   98SAPC  H10X 9750   5.683   1.258   3.482
   98SAPC  H10Y 9751   5.722   1.100   3.415
   98SAPC  C311 9752   5.515   1.106   3.498
   98SAPC  H11X 9753   5.487   1.010   3.450
   98SAPC  H11Y 9754   5.422   1.166   3.486
   98SAPC  C312 9755   5.526   1.101   3.650
   98SAPC  H12X 9756   5.540   1.204   3.688
   98SAPC  H12Y 9757   5.611   1.032   3.669
   98SAPC  C313 9758   5.396   1.065   3.720
   98SAPC  H13X 9759   5.384   0.957   3.695
   98SAPC  H13Y 9760   5.320   1.138   3.684
   98SAPC  C314 9761   5.415   1.065   3.871
   98SAPC  H14X 9762   5.392   1.170   3.901
   98SAPC  H14Y 9763   5.516   1.029   3.903
   98SAPC  C315 9764   5.306   0.977   3.933
   98SAPC  H15X 9765   5.330   0.870   3.915
   98SAPC  H15Y 9766   5.206   0.999   3.891
   98SAPC  C316 9767   5.285   0.999   4.085
   98SAPC  H16X 9768   5.235   1.097   4.097
   98SAPC  H16Y 9769   5.378   1.005   4.147
   98SAPC  C317 9770   5.191   0.895   4.156
   98SAPC  H17X 9771   5.224   0.788   4.154
   98SAPC  H17Y 9772   5.094   0.894   4.101
   98SAPC  C318 9773   5.150   0.927   4.303
   98SAPC  H18X 9774   5.228   0.910   4.380
   98SAPC  H18Y 9775   5.066   0.857   4.322
   98SAPC  H18Z 9776   5.114   1.032   4.302
   99SAPC     N 9777   2.401   5.668   1.594
   99SAPC   C12 9778   2.382   5.621   1.740
   99SAPC  H12A 9779   2.284   5.576   1.742
   99SAPC  H12B 9780   2.372   5.703   1.808
   99SAPC   C13 9781   2.269   5.734   1.552
   99SAPC  H13A 9782   2.219   5.807   1.614
   99SAPC  H13B 9783   2.283   5.794   1.464
   99SAPC  H13C 9784   2.198   5.659   1.520
   99SAPC   C14 9785   2.517   5.769   1.593
   99SAPC  H14A 9786   2.486   5.847   1.661
   99SAPC  H14B 9787   2.599   5.718   1.641
   99SAPC  H14C 9788   2.539   5.819   1.499
   99SAPC   C15 9789   2.419   5.552   1.507
   99SAPC  H15A 9790   2.326   5.499   1.518
   99SAPC  H15B 9791   2.423   5.574   1.401
   99SAPC  H15C 9792   2.495   5.483   1.542
   99SAPC   C11 9793   2.479   5.515   1.791
   99SAPC  H11A 9794   2.479   5.426   1.724
   99SAPC  H11B 9795   2.431   5.489   1.888
   99SAPC     P 9796   2.653   5.649   1.937
   99SAPC   O13 9797   2.799   5.680   1.936
   99SAPC   O14 9798   2.557   5.760   1.952
   99SAPC   O12 9799   2.614   5.568   1.811
   99SAPC   O11 9800   2.627   5.551   2.055
   99SAPC    C1 9801   2.686   5.418   2.049
   99SAPC    HA 9802   2.603   5.344   2.041
   99SAPC    HB 9803   2.742   5.407   1.954
   99SAPC    C2 9804   2.779   5.398   2.161
   99SAPC    HS 9805   2.840   5.309   2.137
   99SAPC   O21 9806   2.701   5.399   2.283
   99SAPC   C21 9807   2.642   5.284   2.303
   99SAPC   O22 9808   2.650   5.186   2.231
   99SAPC   C22 9809   2.573   5.279   2.441
   99SAPC   H2R 9810   2.496   5.357   2.427
   99SAPC   H2S 9811   2.526   5.179   2.457
   99SAPC    C3 9812   2.880   5.514   2.173
   99SAPC    HX 9813   2.830   5.612   2.190
   99SAPC    HY 9814   2.940   5.525   2.080
   99SAPC   O31 9815   2.975   5.477   2.274
   99SAPC   C31 9816   2.959   5.552   2.387
   99SAPC   O32 9817   2.884   5.643   2.396
   99SAPC   C32 9818   3.060   5.501   2.500
   99SAPC   H2X 9819   3.159   5.546   2.476
   99SAPC   H2Y 9820   3.053   5.390   2.499
   99SAPC   C23 9821   2.663   5.341   2.550
   99SAPC   H3R 9822   2.608   5.361   2.645
   99SAPC   H3S 9823   2.705   5.438   2.518
   99SAPC   C24 9824   2.767   5.232   2.605
   99SAPC   H4R 9825   2.850   5.277   2.663
   99SAPC   H4S 9826   2.806   5.198   2.506
   99SAPC   C25 9827   2.709   5.108   2.673
   99SAPC   H5R 9828   2.673   5.033   2.601
   99SAPC   C26 9829   2.723   5.089   2.812
   99SAPC   H6R 9830   2.683   5.001   2.864
   99SAPC   C27 9831   2.777   5.199   2.904
   99SAPC   H7R 9832   2.688   5.266   2.902
   99SAPC   H7S 9833   2.867   5.245   2.859
   99SAPC   C28 9834   2.805   5.155   3.045
   99SAPC   H8R 9835   2.827   5.048   3.050
   99SAPC   C29 9836   2.802   5.222   3.160
   99SAPC   H9R 9837   2.838   5.174   3.252
   99SAPC  C210 9838   2.787   5.373   3.150
   99SAPC  H10R 9839   2.702   5.401   3.217
   99SAPC  H10S 9840   2.758   5.401   3.047
   99SAPC  C211 9841   2.914   5.434   3.186
   99SAPC  H11R 9842   2.998   5.385   3.134
   99SAPC  C212 9843   2.938   5.515   3.289
   99SAPC  H12R 9844   3.038   5.560   3.287
   99SAPC  C213 9845   2.837   5.580   3.382
   99SAPC  H13R 9846   2.865   5.590   3.490
   99SAPC  H13S 9847   2.744   5.521   3.397
   99SAPC  C214 9848   2.796   5.723   3.341
   99SAPC  H14R 9849   2.770   5.734   3.234
   99SAPC  C215 9850   2.759   5.824   3.418
   99SAPC  H15R 9851   2.729   5.916   3.365
   99SAPC  C216 9852   2.760   5.832   3.571
   99SAPC  H16R 9853   2.821   5.748   3.611
   99SAPC  H16S 9854   2.661   5.818   3.618
   99SAPC  C217 9855   2.840   5.952   3.634
   99SAPC  H17R 9856   2.949   5.951   3.613
   99SAPC  H17S 9857   2.842   5.937   3.744
   99SAPC  C218 9858   2.792   6.097   3.613
   99SAPC  H18R 9859   2.706   6.111   3.681
   99SAPC  H18S 9860   2.741   6.099   3.514
   99SAPC  C219 9861   2.900   6.205   3.615
   99SAPC  H19R 9862   2.986   6.179   3.550
   99SAPC  H19S 9863   2.939   6.214   3.719
   99SAPC  C220 9864   2.842   6.332   3.563
   99SAPC  H20R 9865   2.766   6.367   3.635
   99SAPC  H20S 9866   2.794   6.324   3.463
   99SAPC  H20T 9867   2.919   6.411   3.551
   99SAPC   C33 9868   3.027   5.546   2.640
   99SAPC   H3X 9869   2.927   5.510   2.674
   99SAPC   H3Y 9870   3.015   5.656   2.637
   99SAPC   C34 9871   3.133   5.513   2.751
   99SAPC   H4X 9872   3.103   5.544   2.853
   99SAPC   H4Y 9873   3.232   5.560   2.731
   99SAPC   C35 9874   3.150   5.356   2.754
   99SAPC   H5X 9875   3.205   5.324   2.663
   99SAPC   H5Y 9876   3.053   5.302   2.743
   99SAPC   C36 9877   3.214   5.302   2.885
   99SAPC   H6X 9878   3.158   5.347   2.970
   99SAPC   H6Y 9879   3.317   5.343   2.886
   99SAPC   C37 9880   3.193   5.153   2.889
   99SAPC   H7X 9881   3.248   5.086   2.819
   99SAPC   H7Y 9882   3.085   5.130   2.876
   99SAPC   C38 9883   3.231   5.101   3.032
   99SAPC   H8X 9884   3.187   5.173   3.105
   99SAPC   H8Y 9885   3.341   5.114   3.044
   99SAPC   C39 9886   3.199   4.952   3.067
   99SAPC   H9X 9887   3.246   4.885   2.991
   99SAPC   H9Y 9888   3.090   4.932   3.053
   99SAPC  C310 9889   3.248   4.909   3.201
   99SAPC  H10X 9890   3.357   4.903   3.222
   99SAPC  H10Y 9891   3.228   4.801   3.219
   99SAPC  C311 9892   3.173   4.995   3.313
   99SAPC  H11X 9893   3.067   5.016   3.286
   99SAPC  H11Y 9894   3.219   5.095   3.316
   99SAPC  C312 9895   3.197   4.926   3.453
   99SAPC  H12X 9896   3.308   4.928   3.465
   99SAPC  H12Y 9897   3.169   4.819   3.450
   99SAPC  C313 9898   3.129   5.003   3.563
   99SAPC  H13X 9899   3.168   5.107   3.562
   99SAPC  H13Y 9900   3.156   4.944   3.653
   99SAPC  C314 9901   2.983   5.019   3.536
   99SAPC  H14X 9902   2.960   5.091   3.454
   99SAPC  H14Y 9903   2.943   5.080   3.620
   99SAPC  C315 9904   2.896   4.899   3.555
   99SAPC  H15X 9905   2.797   4.930   3.596
   99SAPC  H15Y 9906   2.957   4.832   3.619
   99SAPC  C316 9907   2.858   4.829   3.414
   99SAPC  H16X 9908   2.792   4.744   3.439
   99SAPC  H16Y 9909   2.952   4.794   3.366
   99SAPC  C317 9910   2.774   4.921   3.318
   99SAPC  H17X 9911   2.831   4.929   3.223
   99SAPC  H17Y 9912   2.767   5.019   3.369
   99SAPC  C318 9913   2.635   4.873   3.282
   99SAPC  H18X 9914   2.567   4.867   3.369
   99SAPC  H18Y 9915   2.632   4.767   3.248
   99SAPC  H18Z 9916   2.592   4.925   3.193
  100SAPC     N 9917   1.870   4.964   1.648
  100SAPC   C12 9918   1.855   4.876   1.777
  100SAPC  H12A 9919   1.894   4.932   1.861
  100SAPC  H12B 9920   1.915   4.788   1.761
  100SAPC   C13 9921   2.011   4.973   1.604
  100SAPC  H13A 9922   2.069   5.036   1.670
  100SAPC  H13B 9923   2.060   4.877   1.604
  100SAPC  H13C 9924   2.019   5.023   1.509
  100SAPC   C14 9925   1.781   4.908   1.540
  100SAPC  H14A 9926   1.793   4.956   1.444
  100SAPC  H14B 9927   1.789   4.801   1.526
  100SAPC  H14C 9928   1.679   4.934   1.565
  100SAPC   C15 9929   1.828   5.099   1.675
  100SAPC  H15A 9930   1.813   5.150   1.581
  100SAPC  H15B 9931   1.732   5.115   1.723
  100SAPC  H15C 9932   1.899   5.158   1.731
  100SAPC   C11 9933   1.718   4.823   1.820
  100SAPC  H11A 9934   1.641   4.897   1.787
  100SAPC  H11B 9935   1.714   4.807   1.930
  100SAPC     P 9936   1.591   4.598   1.773
  100SAPC   O13 9937   1.470   4.667   1.730
  100SAPC   O14 9938   1.614   4.471   1.712
  100SAPC   O12 9939   1.711   4.695   1.753
  100SAPC   O11 9940   1.576   4.577   1.924
  100SAPC    C1 9941   1.697   4.556   2.009
  100SAPC    HA 9942   1.782   4.556   1.938
  100SAPC    HB 9943   1.707   4.642   2.079
  100SAPC    C2 9944   1.699   4.425   2.092
  100SAPC    HS 9945   1.694   4.341   2.019
  100SAPC   O21 9946   1.588   4.431   2.181
  100SAPC   C21 9947   1.529   4.318   2.201
  100SAPC   O22 9948   1.568   4.204   2.153
  100SAPC   C22 9949   1.400   4.352   2.273
  100SAPC   H2R 9950   1.426   4.399   2.370
  100SAPC   H2S 9951   1.329   4.409   2.209
  100SAPC    C3 9952   1.836   4.411   2.174
  100SAPC    HX 9953   1.831   4.500   2.241
  100SAPC    HY 9954   1.925   4.416   2.108
  100SAPC   O31 9955   1.834   4.297   2.259
  100SAPC   C31 9956   1.860   4.176   2.217
  100SAPC   O32 9957   1.876   4.151   2.098
  100SAPC   C32 9958   1.865   4.075   2.328
  100SAPC   H2X 9959   1.824   4.126   2.417
  100SAPC   H2Y 9960   1.967   4.043   2.356
  100SAPC   C23 9961   1.320   4.223   2.320
  100SAPC   H3R 9962   1.342   4.145   2.244
  100SAPC   H3S 9963   1.213   4.254   2.320
  100SAPC   C24 9964   1.365   4.193   2.457
  100SAPC   H4R 9965   1.314   4.096   2.474
  100SAPC   H4S 9966   1.304   4.261   2.521
  100SAPC   C25 9967   1.513   4.194   2.490
  100SAPC   H5R 9968   1.559   4.104   2.444
  100SAPC   C26 9969   1.588   4.267   2.576
  100SAPC   H6R 9970   1.697   4.257   2.568
  100SAPC   C27 9971   1.533   4.369   2.675
  100SAPC   H7R 9972   1.460   4.321   2.743
  100SAPC   H7S 9973   1.468   4.442   2.624
  100SAPC   C28 9974   1.642   4.439   2.749
  100SAPC   H8R 9975   1.698   4.511   2.688
  100SAPC   C29 9976   1.667   4.442   2.881
  100SAPC   H9R 9977   1.755   4.498   2.913
  100SAPC  C210 9978   1.590   4.354   2.984
  100SAPC  H10R 9979   1.502   4.297   2.948
  100SAPC  H10S 9980   1.541   4.415   3.062
  100SAPC  C211 9981   1.688   4.265   3.051
  100SAPC  H11R 9982   1.768   4.237   2.981
  100SAPC  C212 9983   1.698   4.229   3.180
  100SAPC  H12R 9984   1.785   4.166   3.203
  100SAPC  C213 9985   1.611   4.262   3.295
  100SAPC  H13R 9986   1.594   4.165   3.346
  100SAPC  H13S 9987   1.510   4.290   3.258
  100SAPC  C214 9988   1.679   4.359   3.393
  100SAPC  H14R 9989   1.762   4.421   3.357
  100SAPC  C215 9990   1.650   4.368   3.526
  100SAPC  H15R 9991   1.708   4.435   3.592
  100SAPC  C216 9992   1.548   4.288   3.596
  100SAPC  H16R 9993   1.473   4.242   3.528
  100SAPC  H16S 9994   1.493   4.349   3.670
  100SAPC  C217 9995   1.615   4.166   3.659
  100SAPC  H17R 9996   1.679   4.108   3.589
  100SAPC  H17S 9997   1.529   4.101   3.685
  100SAPC  C218 9998   1.689   4.193   3.794
  100SAPC  H18R 9999   1.625   4.249   3.866
  100SAPC  H18S10000   1.770   4.270   3.784
  100SAPC  C21910001   1.756   4.073   3.864
  100SAPC  H19R10002   1.810   4.006   3.794
  100SAPC  H19S10003   1.683   4.012   3.922
  100SAPC  C22010004   1.855   4.122   3.978
  100SAPC  H20R10005   1.792   4.161   4.061
  100SAPC  H20S10006   1.930   4.193   3.939
  100SAPC  H20T10007   1.905   4.038   4.031
  100SAPC   C3310008   1.767   3.950   2.307
  100SAPC   H3X10009   1.794   3.899   2.212
  100SAPC   H3Y10010   1.663   3.987   2.291
  100SAPC   C3410011   1.779   3.836   2.419
  100SAPC   H4X10012   1.886   3.806   2.415
  100SAPC   H4Y10013   1.728   3.743   2.386
  100SAPC   C3510014   1.735   3.901   2.559
  100SAPC   H5X10015   1.629   3.934   2.551
  100SAPC   H5Y10016   1.789   3.997   2.576
  100SAPC   C3610017   1.763   3.820   2.683
  100SAPC   H6X10018   1.867   3.783   2.672
  100SAPC   H6Y10019   1.704   3.726   2.678
  100SAPC   C3710020   1.737   3.892   2.817
  100SAPC   H7X10021   1.647   3.956   2.799
  100SAPC   H7Y10022   1.821   3.962   2.837
  100SAPC   C3810023   1.725   3.794   2.935
  100SAPC   H8X10024   1.824   3.743   2.939
  100SAPC   H8Y10025   1.649   3.717   2.912
  100SAPC   C3910026   1.691   3.850   3.071
  100SAPC   H9X10027   1.591   3.899   3.076
  100SAPC   H9Y10028   1.753   3.937   3.103
  100SAPC  C31010029   1.700   3.746   3.190
  100SAPC  H10X10030   1.791   3.681   3.189
  100SAPC  H10Y10031   1.618   3.675   3.167
  100SAPC  C31110032   1.683   3.806   3.332
  100SAPC  H11X10033   1.590   3.865   3.335
  100SAPC  H11Y10034   1.763   3.882   3.344
  100SAPC  C31210035   1.701   3.696   3.437
  100SAPC  H12X10036   1.798   3.646   3.419
  100SAPC  H12Y10037   1.627   3.618   3.409
  100SAPC  C31310038   1.666   3.737   3.585
  100SAPC  H13X10039   1.557   3.757   3.595
  100SAPC  H13Y10040   1.721   3.831   3.606
  100SAPC  C31410041   1.701   3.628   3.680
  100SAPC  H14X10042   1.803   3.591   3.653
  100SAPC  H14Y10043   1.626   3.547   3.683
  100SAPC  C31510044   1.718   3.687   3.819
  100SAPC  H15X10045   1.627   3.741   3.851
  100SAPC  H15Y10046   1.797   3.765   3.817
  100SAPC  C31610047   1.748   3.586   3.930
  100SAPC  H16X10048   1.842   3.534   3.902
  100SAPC  H16Y10049   1.674   3.507   3.952
  100SAPC  C31710050   1.782   3.654   4.063
  100SAPC  H17X10051   1.693   3.714   4.092
  100SAPC  H17Y10052   1.870   3.721   4.055
  100SAPC  C31810053   1.805   3.563   4.173
  100SAPC  H18X10054   1.725   3.488   4.192
  100SAPC  H18Y10055   1.830   3.615   4.268
  100SAPC  H18Z10056   1.885   3.492   4.141
  101OSM      N10057   4.493   3.214   6.649
  101OSM    C1510058   4.608   3.253   6.738
  101OSM   H15A10059   4.603   3.244   6.845
  101OSM   H15B10060   4.637   3.356   6.724
  101OSM   H15C10061   4.697   3.199   6.709
  101OSM    C1410062   4.496   3.294   6.518
  101OSM   H14A10063   4.506   3.398   6.545
  101OSM   H14B10064   4.408   3.264   6.463
  101OSM   H14C10065   4.575   3.268   6.449
  101OSM    C1310066   4.514   3.072   6.622
  101OSM   H13A10067   4.503   3.015   6.713
  101OSM   H13B10068   4.613   3.054   6.583
  101OSM   H13C10069   4.448   3.028   6.549
  101OSM    C1210070   4.359   3.239   6.719
  101OSM   H12A10071   4.287   3.221   6.640
  101OSM   H12B10072   4.364   3.343   6.748
  101OSM    C1110073   4.317   3.169   6.846
  101OSM   H11A10074   4.224   3.216   6.886
  101OSM   H11B10075   4.399   3.196   6.916
  101OSM      P10076   4.180   2.946   6.825
  101OSM    O1310077   4.198   2.815   6.891
  101OSM    O1410078   4.070   3.033   6.870
  101OSM    O1110079   4.161   2.918   6.667
  101OSM    O1210080   4.317   3.024   6.834
  101OSM    C1S10081   4.117   3.021   6.580
  101OSM    H1S10082   4.206   3.068   6.533
  101OSM    H1T10083   4.053   3.098   6.628
  101OSM     NF10084   4.028   3.049   6.347
  101OSM    HNF10085   3.938   3.084   6.324
  101OSM    C2S10086   4.026   2.958   6.468
  101OSM    H2S10087   4.079   2.866   6.436
  101OSM    C3S10088   3.883   2.916   6.513
  101OSM    H3S10089   3.841   3.009   6.557
  101OSM     O310090   3.880   2.827   6.629
  101OSM    HO310091   3.972   2.822   6.656
  101OSM    C4S10092   3.807   2.868   6.396
  101OSM    H4S10093   3.874   2.806   6.334
  101OSM    C5S10094   3.683   2.895   6.362
  101OSM    H5S10095   3.627   2.953   6.436
  101OSM    C6S10096   3.603   2.842   6.243
  101OSM    H6S10097   3.504   2.798   6.268
  101OSM    H6T10098   3.655   2.760   6.189
  101OSM    C7S10099   3.577   2.964   6.145
  101OSM    H7S10100   3.675   3.013   6.126
  101OSM    H7T10101   3.515   3.038   6.199
  101OSM    C8S10102   3.519   2.934   6.004
  101OSM    H8S10103   3.417   2.894   6.019
  101OSM    H8T10104   3.590   2.865   5.953
  101OSM    C9S10105   3.521   3.061   5.925
  101OSM    H9S10106   3.620   3.081   5.879
  101OSM    H9T10107   3.523   3.141   6.003
  101OSM   C10S10108   3.407   3.081   5.823
  101OSM   H10S10109   3.405   3.188   5.791
  101OSM   H10T10110   3.308   3.062   5.871
  101OSM   C11S10111   3.417   2.983   5.705
  101OSM   H11S10112   3.340   3.008   5.629
  101OSM   H11T10113   3.409   2.881   5.748
  101OSM   C12S10114   3.553   2.977   5.634
  101OSM   H12S10115   3.615   2.913   5.702
  101OSM   H12T10116   3.603   3.072   5.608
  101OSM   C13S10117   3.546   2.892   5.504
  101OSM   H13S10118   3.473   2.809   5.506
  101OSM   H13T10119   3.646   2.843   5.505
  101OSM   C14S10120   3.529   2.971   5.374
  101OSM   H14S10121   3.578   3.070   5.389
  101OSM   H14T10122   3.423   2.990   5.348
  101OSM   C15S10123   3.596   2.906   5.250
  101OSM   H15S10124   3.554   2.805   5.228
  101OSM   H15T10125   3.706   2.894   5.261
  101OSM   C16S10126   3.558   2.977   5.122
  101OSM   H16S10127   3.586   3.084   5.121
  101OSM   H16T10128   3.447   2.983   5.124
  101OSM   C17S10129   3.611   2.903   4.997
  101OSM   H17S10130   3.577   2.799   5.011
  101OSM   H17T10131   3.720   2.897   4.979
  101OSM   C18S10132   3.545   2.952   4.868
  101OSM   H18S10133   3.554   3.062   4.856
  101OSM   H18T10134   3.435   2.938   4.881
  101OSM   H18U10135   3.575   2.903   4.773
  101OSM    C1F10136   4.130   3.083   6.264
  101OSM     OF10137   4.246   3.046   6.291
  101OSM    C2F10138   4.102   3.175   6.141
  101OSM    H2F10139   4.036   3.256   6.178
  101OSM    H2G10140   4.068   3.110   6.058
  101OSM    C3F10141   4.234   3.246   6.094
  101OSM    H3F10142   4.294   3.272   6.184
  101OSM    H3G10143   4.210   3.336   6.033
  101OSM    C4F10144   4.314   3.156   6.004
  101OSM    H4F10145   4.261   3.119   5.914
  101OSM    H4G10146   4.344   3.062   6.056
  101OSM    C5F10147   4.441   3.219   5.947
  101OSM    H5F10148   4.525   3.223   6.019
  101OSM    H5G10149   4.425   3.319   5.902
  101OSM    C6F10150   4.496   3.142   5.820
  101OSM    H6F10151   4.580   3.194   5.770
  101OSM    H6G10152   4.410   3.116   5.755
  101OSM    C7F10153   4.559   3.010   5.851
  101OSM    H7F10154   4.574   2.958   5.754
  101OSM    H7G10155   4.480   2.947   5.899
  101OSM    C8F10156   4.687   3.025   5.934
  101OSM    H8F10157   4.670   3.096   6.017
  101OSM    H8G10158   4.763   3.075   5.870
  101OSM    C9F10159   4.730   2.891   5.991
  101OSM    H9F10160   4.686   2.863   6.088
  101OSM   C10F10161   4.803   2.800   5.926
  101OSM   H10F10162   4.826   2.702   5.969
  101OSM   C11F10163   4.870   2.818   5.790
  101OSM   H11F10164   4.976   2.796   5.813
  101OSM   H11G10165   4.862   2.926   5.766
  101OSM   C12F10166   4.819   2.740   5.665
  101OSM   H12F10167   4.710   2.762   5.657
  101OSM   H12G10168   4.840   2.633   5.685
  101OSM   C13F10169   4.886   2.796   5.541
  101OSM   H13F10170   4.995   2.771   5.542
  101OSM   H13G10171   4.881   2.906   5.551
  101OSM   C14F10172   4.843   2.740   5.410
  101OSM   H14F10173   4.884   2.637   5.404
  101OSM   H14G10174   4.879   2.813   5.335
  101OSM   C15F10175   4.699   2.719   5.383
  101OSM   H15F10176   4.648   2.645   5.449
  101OSM   H15G10177   4.688   2.696   5.275
  101OSM   C16F10178   4.607   2.837   5.412
  101OSM   H16F10179   4.610   2.880   5.514
  101OSM   H16G10180   4.501   2.804   5.413
  101OSM   C17F10181   4.616   2.951   5.310
  101OSM   H17F10182   4.588   2.904   5.214
  101OSM   H17G10183   4.722   2.984   5.307
  101OSM   C18F10184   4.548   3.076   5.360
  101OSM   H18F10185   4.449   3.041   5.398
  101OSM   H18G10186   4.520   3.147   5.279
  101OSM   H18H10187   4.600   3.117   5.449
  102OSM      N10188   4.530   2.163   6.963
  102OSM    C1510189   4.492   2.192   7.099
  102OSM   H15A10190   4.438   2.286   7.098
  102OSM   H15B10191   4.584   2.188   7.155
  102OSM   H15C10192   4.430   2.114   7.140
  102OSM    C1410193   4.655   2.240   6.920
  102OSM   H14A10194   4.748   2.194   6.950
  102OSM   H14B10195   4.654   2.346   6.938
  102OSM   H14C10196   4.656   2.238   6.812
  102OSM    C1310197   4.555   2.010   6.956
  102OSM   H13A10198   4.653   1.972   6.981
  102OSM   H13B10199   4.559   1.987   6.850
  102OSM   H13C10200   4.472   1.958   7.000
  102OSM    C1210201   4.419   2.195   6.868
  102OSM   H12A10202   4.390   2.295   6.894
  102OSM   H12B10203   4.333   2.134   6.894
  102OSM    C1110204   4.448   2.172   6.717
  102OSM   H11A10205   4.527   2.223   6.657
  102OSM   H11B10206   4.365   2.220   6.661
  102OSM      P10207   4.332   1.956   6.627
  102OSM    O1310208   4.391   1.828   6.575
  102OSM    O1410209   4.216   1.957   6.715
  102OSM    O1110210   4.296   2.047   6.499
  102OSM    O1210211   4.448   2.031   6.698
  102OSM    C1S10212   4.367   2.047   6.381
  102OSM    H1S10213   4.373   1.948   6.331
  102OSM    H1T10214   4.473   2.078   6.400
  102OSM     NF10215   4.343   2.139   6.145
  102OSM    HNF10216   4.380   2.217   6.094
  102OSM    C2S10217   4.289   2.142   6.284
  102OSM    H2S10218   4.187   2.101   6.266
  102OSM    C3S10219   4.280   2.284   6.344
  102OSM    H3S10220   4.382   2.322   6.365
  102OSM     O310221   4.224   2.294   6.480
  102OSM    HO310222   4.209   2.200   6.494
  102OSM    C4S10223   4.216   2.388   6.261
  102OSM    H4S10224   4.280   2.447   6.194
  102OSM    C5S10225   4.086   2.422   6.265
  102OSM    H5S10226   4.016   2.358   6.320
  102OSM    C6S10227   4.006   2.536   6.191
  102OSM    H6S10228   3.940   2.600   6.252
  102OSM    H6T10229   3.936   2.482   6.124
  102OSM    C7S10230   4.101   2.621   6.100
  102OSM    H7S10231   4.142   2.554   6.022
  102OSM    H7T10232   4.185   2.663   6.160
  102OSM    C8S10233   4.029   2.738   6.033
  102OSM    H8S10234   4.005   2.819   6.105
  102OSM    H8T10235   3.940   2.691   5.986
  102OSM    C9S10236   4.103   2.793   5.908
  102OSM    H9S10237   4.154   2.716   5.846
  102OSM    H9T10238   4.179   2.864   5.946
  102OSM   C10S10239   4.018   2.885   5.810
  102OSM   H10S10240   3.989   2.973   5.873
  102OSM   H10T10241   3.923   2.831   5.788
  102OSM   C11S10242   4.080   2.932   5.674
  102OSM   H11S10243   4.116   2.840   5.622
  102OSM   H11T10244   4.163   2.998   5.707
  102OSM   C12S10245   3.962   2.998   5.599
  102OSM   H12S10246   3.913   3.082   5.653
  102OSM   H12T10247   3.878   2.927   5.585
  102OSM   C13S10248   3.986   3.053   5.462
  102OSM   H13S10249   3.894   3.075   5.404
  102OSM   H13T10250   4.029   2.971   5.402
  102OSM   C14S10251   4.073   3.178   5.464
  102OSM   H14S10252   4.146   3.163   5.546
  102OSM   H14T10253   4.010   3.264   5.495
  102OSM   C15S10254   4.148   3.210   5.330
  102OSM   H15S10255   4.182   3.119   5.275
  102OSM   H15T10256   4.242   3.268   5.340
  102OSM   C16S10257   4.051   3.282   5.236
  102OSM   H16S10258   4.010   3.373   5.286
  102OSM   H16T10259   3.965   3.219   5.205
  102OSM   C17S10260   4.110   3.337   5.095
  102OSM   H17S10261   4.028   3.396   5.051
  102OSM   H17T10262   4.129   3.246   5.034
  102OSM   C18S10263   4.222   3.432   5.115
  102OSM   H18S10264   4.319   3.394   5.154
  102OSM   H18T10265   4.193   3.516   5.182
  102OSM   H18U10266   4.244   3.473   5.014
  102OSM    C1F10267   4.358   2.022   6.082
  102OSM     OF10268   4.297   1.914   6.107
  102OSM    C2F10269   4.451   2.022   5.959
  102OSM    H2F10270   4.556   2.001   5.988
  102OSM    H2G10271   4.449   2.129   5.932
  102OSM    C3F10272   4.395   1.938   5.839
  102OSM    H3F10273   4.289   1.960   5.811
  102OSM    H3G10274   4.413   1.831   5.862
  102OSM    C4F10275   4.477   1.963   5.708
  102OSM    H4F10276   4.441   1.884   5.637
  102OSM    H4G10277   4.584   1.946   5.732
  102OSM    C5F10278   4.459   2.097   5.639
  102OSM    H5F10279   4.507   2.177   5.698
  102OSM    H5G10280   4.352   2.127   5.627
  102OSM    C6F10281   4.538   2.100   5.507
  102OSM    H6F10282   4.500   2.030   5.429
  102OSM    H6G10283   4.643   2.071   5.528
  102OSM    C7F10284   4.541   2.244   5.451
  102OSM    H7F10285   4.618   2.296   5.511
  102OSM    H7G10286   4.440   2.289   5.452
  102OSM    C8F10287   4.603   2.238   5.311
  102OSM    H8F10288   4.531   2.193   5.240
  102OSM    H8G10289   4.692   2.171   5.315
  102OSM    C9F10290   4.650   2.373   5.271
  102OSM    H9F10291   4.713   2.435   5.336
  102OSM   C10F10292   4.636   2.420   5.140
  102OSM   H10F10293   4.672   2.519   5.109
  102OSM   C11F10294   4.568   2.349   5.026
  102OSM   H11F10295   4.546   2.428   4.951
  102OSM   H11G10296   4.479   2.286   5.046
  102OSM   C12F10297   4.668   2.260   4.950
  102OSM   H12F10298   4.614   2.202   4.872
  102OSM   H12G10299   4.711   2.193   5.028
  102OSM   C13F10300   4.784   2.338   4.887
  102OSM   H13F10301   4.861   2.264   4.856
  102OSM   H13G10302   4.833   2.398   4.967
  102OSM   C14F10303   4.747   2.416   4.760
  102OSM   H14F10304   4.834   2.483   4.745
  102OSM   H14G10305   4.658   2.479   4.780
  102OSM   C15F10306   4.718   2.326   4.637
  102OSM   H15F10307   4.620   2.279   4.662
  102OSM   H15G10308   4.789   2.242   4.629
  102OSM   C16F10309   4.707   2.393   4.498
  102OSM   H16F10310   4.713   2.323   4.413
  102OSM   H16G10311   4.800   2.454   4.491
  102OSM   C17F10312   4.586   2.488   4.485
  102OSM   H17F10313   4.587   2.566   4.564
  102OSM   H17G10314   4.492   2.429   4.496
  102OSM   C18F10315   4.581   2.543   4.340
  102OSM   H18F10316   4.490   2.604   4.322
  102OSM   H18G10317   4.593   2.457   4.270
  102OSM   H18H10318   4.665   2.615   4.337
  103OSM      N10319   4.002   4.884   6.354
  103OSM    C1510320   4.054   4.815   6.471
  103OSM   H15A10321   4.060   4.873   6.562
  103OSM   H15B10322   4.156   4.782   6.456
  103OSM   H15C10323   4.011   4.718   6.487
  103OSM    C1410324   4.010   4.784   6.242
  103OSM   H14A10325   4.112   4.763   6.214
  103OSM   H14B10326   3.971   4.822   6.149
  103OSM   H14C10327   3.966   4.689   6.269
  103OSM    C1310328   3.853   4.915   6.384
  103OSM   H13A10329   3.803   4.825   6.418
  103OSM   H13B10330   3.806   4.964   6.300
  103OSM   H13C10331   3.845   4.982   6.467
  103OSM    C1210332   4.083   5.015   6.333
  103OSM   H12A10333   4.045   5.077   6.254
  103OSM   H12B10334   4.181   4.982   6.302
  103OSM    C1110335   4.111   5.106   6.452
  103OSM   H11A10336   4.030   5.106   6.528
  103OSM   H11B10337   4.102   5.210   6.412
  103OSM      P10338   4.370   5.117   6.430
  103OSM    O1310339   4.372   5.269   6.406
  103OSM    O1410340   4.479   5.057   6.511
  103OSM    O1110341   4.364   5.041   6.284
  103OSM    O1210342   4.238   5.078   6.510
  103OSM    C1S10343   4.415   4.908   6.277
  103OSM    H1S10344   4.336   4.838   6.314
  103OSM    H1T10345   4.506   4.894   6.339
  103OSM     NF10346   4.468   4.723   6.119
  103OSM    HNF10347   4.564   4.698   6.129
  103OSM    C2S10348   4.448   4.864   6.131
  103OSM    H2S10349   4.354   4.873   6.072
  103OSM    C3S10350   4.556   4.959   6.071
  103OSM    H3S10351   4.631   4.957   6.153
  103OSM     O310352   4.504   5.093   6.068
  103OSM    HO310353   4.455   5.099   6.150
  103OSM    C4S10354   4.601   4.914   5.934
  103OSM    H4S10355   4.688   4.848   5.936
  103OSM    C5S10356   4.571   4.949   5.804
  103OSM    H5S10357   4.498   5.029   5.788
  103OSM    C6S10358   4.617   4.878   5.676
  103OSM    H6S10359   4.538   4.872   5.599
  103OSM    H6T10360   4.647   4.773   5.700
  103OSM    C7S10361   4.737   4.951   5.619
  103OSM    H7S10362   4.812   4.966   5.699
  103OSM    H7T10363   4.696   5.049   5.586
  103OSM    C8S10364   4.809   4.881   5.503
  103OSM    H8S10365   4.827   4.776   5.534
  103OSM    H8T10366   4.904   4.938   5.495
  103OSM    C9S10367   4.744   4.892   5.366
  103OSM    H9S10368   4.703   4.995   5.361
  103OSM    H9T10369   4.658   4.821   5.370
  103OSM   C10S10370   4.824   4.846   5.244
  103OSM   H10S10371   4.874   4.750   5.270
  103OSM   H10T10372   4.902   4.924   5.232
  103OSM   C11S10373   4.744   4.840   5.116
  103OSM   H11S10374   4.665   4.763   5.102
  103OSM   H11T10375   4.820   4.828   5.036
  103OSM   C12S10376   4.681   4.973   5.095
  103OSM   H12S10377   4.757   5.053   5.083
  103OSM   H12T10378   4.618   5.011   5.179
  103OSM   C13S10379   4.601   4.973   4.963
  103OSM   H13S10380   4.512   4.911   4.986
  103OSM   H13T10381   4.665   4.928   4.884
  103OSM   C14S10382   4.552   5.116   4.923
  103OSM   H14S10383   4.636   5.180   4.960
  103OSM   H14T10384   4.458   5.133   4.980
  103OSM   C15S10385   4.529   5.134   4.770
  103OSM   H15S10386   4.457   5.056   4.739
  103OSM   H15T10387   4.621   5.100   4.717
  103OSM   C16S10388   4.489   5.271   4.722
  103OSM   H16S10389   4.568   5.347   4.739
  103OSM   H16T10390   4.396   5.302   4.774
  103OSM   C17S10391   4.465   5.292   4.567
  103OSM   H17S10392   4.429   5.197   4.523
  103OSM   H17T10393   4.566   5.296   4.520
  103OSM   C18S10394   4.374   5.406   4.527
  103OSM   H18S10395   4.438   5.492   4.556
  103OSM   H18T10396   4.275   5.414   4.578
  103OSM   H18U10397   4.362   5.415   4.417
  103OSM    C1F10398   4.381   4.629   6.136
  103OSM     OF10399   4.258   4.652   6.138
  103OSM    C2F10400   4.431   4.490   6.150
  103OSM    H2F10401   4.400   4.452   6.250
  103OSM    H2G10402   4.542   4.488   6.157
  103OSM    C3F10403   4.379   4.395   6.044
  103OSM    H3F10404   4.268   4.399   6.053
  103OSM    H3G10405   4.415   4.292   6.064
  103OSM    C4F10406   4.432   4.415   5.904
  103OSM    H4F10407   4.425   4.317   5.852
  103OSM    H4G10408   4.534   4.459   5.915
  103OSM    C5F10409   4.358   4.515   5.810
  103OSM    H5F10410   4.363   4.615   5.858
  103OSM    H5G10411   4.253   4.480   5.799
  103OSM    C6F10412   4.424   4.526   5.668
  103OSM    H6F10413   4.422   4.422   5.629
  103OSM    H6G10414   4.526   4.566   5.687
  103OSM    C7F10415   4.343   4.625   5.584
  103OSM    H7F10416   4.325   4.715   5.645
  103OSM    H7G10417   4.240   4.587   5.571
  103OSM    C8F10418   4.414   4.669   5.454
  103OSM    H8F10419   4.514   4.714   5.475
  103OSM    H8G10420   4.350   4.742   5.400
  103OSM    C9F10421   4.426   4.556   5.358
  103OSM    H9F10422   4.456   4.462   5.408
  103OSM   C10F10423   4.434   4.557   5.229
  103OSM   H10F10424   4.442   4.458   5.182
  103OSM   C11F10425   4.422   4.676   5.135
  103OSM   H11F10426   4.484   4.763   5.164
  103OSM   H11G10427   4.315   4.702   5.152
  103OSM   C12F10428   4.443   4.621   4.990
  103OSM   H12F10429   4.549   4.588   4.983
  103OSM   H12G10430   4.439   4.705   4.917
  103OSM   C13F10431   4.340   4.519   4.937
  103OSM   H13F10432   4.240   4.535   4.982
  103OSM   H13G10433   4.374   4.424   4.983
  103OSM   C14F10434   4.330   4.495   4.777
  103OSM   H14F10435   4.276   4.399   4.764
  103OSM   H14G10436   4.432   4.492   4.733
  103OSM   C15F10437   4.242   4.594   4.702
  103OSM   H15F10438   4.274   4.699   4.721
  103OSM   H15G10439   4.134   4.584   4.729
  103OSM   C16F10440   4.258   4.583   4.551
  103OSM   H16F10441   4.220   4.490   4.505
  103OSM   H16G10442   4.368   4.583   4.539
  103OSM   C17F10443   4.204   4.699   4.469
  103OSM   H17F10444   4.263   4.716   4.376
  103OSM   H17G10445   4.192   4.794   4.526
  103OSM   C18F10446   4.064   4.672   4.408
  103OSM   H18F10447   4.026   4.769   4.368
  103OSM   H18G10448   3.997   4.636   4.490
  103OSM   H18H10449   4.085   4.598   4.329
  104OSM      N10450   5.777   2.658   6.847
  104OSM    C1510451   5.722   2.550   6.934
  104OSM   H15A10452   5.754   2.559   7.036
  104OSM   H15B10453   5.756   2.450   6.911
  104OSM   H15C10454   5.614   2.551   6.935
  104OSM    C1410455   5.748   2.795   6.911
  104OSM   H14A10456   5.797   2.811   7.005
  104OSM   H14B10457   5.645   2.818   6.933
  104OSM   H14C10458   5.782   2.875   6.847
  104OSM    C1310459   5.926   2.651   6.842
  104OSM   H13A10460   5.968   2.657   6.942
  104OSM   H13B10461   5.965   2.737   6.790
  104OSM   H13C10462   5.964   2.555   6.808
  104OSM    C1210463   5.707   2.653   6.717
  104OSM   H12A10464   5.607   2.692   6.722
  104OSM   H12B10465   5.696   2.549   6.689
  104OSM    C1110466   5.780   2.732   6.593
  104OSM   H11A10467   5.732   2.684   6.505
  104OSM   H11B10468   5.890   2.723   6.600
  104OSM      P10469   5.611   2.930   6.551
  104OSM    O1310470   5.500   2.850   6.608
  104OSM    O1410471   5.611   3.068   6.594
  104OSM    O1110472   5.611   2.914   6.398
  104OSM    O1210473   5.756   2.870   6.598
  104OSM    C1S10474   5.493   2.943   6.326
  104OSM    H1S10475   5.437   3.032   6.360
  104OSM    H1T10476   5.420   2.862   6.349
  104OSM     NF10477   5.393   2.951   6.089
  104OSM    HNF10478   5.365   2.871   6.038
  104OSM    C2S10479   5.515   2.944   6.173
  104OSM    H2S10480   5.581   3.032   6.154
  104OSM    C3S10481   5.607   2.827   6.131
  104OSM    H3S10482   5.557   2.740   6.179
  104OSM     O310483   5.742   2.827   6.180
  104OSM    HO310484   5.738   2.866   6.268
  104OSM    C4S10485   5.617   2.813   5.984
  104OSM    H4S10486   5.549   2.740   5.937
  104OSM    C5S10487   5.701   2.881   5.900
  104OSM    H5S10488   5.769   2.956   5.944
  104OSM    C6S10489   5.701   2.878   5.747
  104OSM    H6S10490   5.695   2.979   5.702
  104OSM    H6T10491   5.613   2.817   5.715
  104OSM    C7S10492   5.825   2.815   5.678
  104OSM    H7S10493   5.804   2.706   5.671
  104OSM    H7T10494   5.919   2.816   5.738
  104OSM    C8S10495   5.856   2.865   5.540
  104OSM    H8S10496   5.844   2.976   5.542
  104OSM    H8T10497   5.778   2.835   5.467
  104OSM    C9S10498   5.984   2.819   5.477
  104OSM    H9S10499   5.990   2.710   5.499
  104OSM    H9T10500   6.074   2.849   5.535
  104OSM   C10S10501   5.995   2.844   5.329
  104OSM   H10S10502   6.099   2.832   5.292
  104OSM   H10T10503   5.967   2.948   5.302
  104OSM   C11S10504   5.899   2.755   5.248
  104OSM   H11S10505   5.794   2.789   5.266
  104OSM   H11T10506   5.909   2.649   5.279
  104OSM   C12S10507   5.907   2.762   5.090
  104OSM   H12S10508   5.822   2.706   5.045
  104OSM   H12T10509   5.991   2.703   5.049
  104OSM   C13S10510   5.918   2.903   5.032
  104OSM   H13S10511   6.024   2.934   5.044
  104OSM   H13T10512   5.855   2.981   5.080
  104OSM   C14S10513   5.889   2.900   4.877
  104OSM   H14S10514   5.955   2.822   4.832
  104OSM   H14T10515   5.914   2.994   4.822
  104OSM   C15S10516   5.754   2.841   4.832
  104OSM   H15S10517   5.671   2.884   4.891
  104OSM   H15T10518   5.753   2.733   4.859
  104OSM   C16S10519   5.716   2.855   4.687
  104OSM   H16S10520   5.767   2.941   4.638
  104OSM   H16T10521   5.607   2.873   4.681
  104OSM   C17S10522   5.738   2.723   4.612
  104OSM   H17S10523   5.698   2.636   4.669
  104OSM   H17T10524   5.848   2.716   4.621
  104OSM   C18S10525   5.709   2.726   4.463
  104OSM   H18S10526   5.718   2.623   4.424
  104OSM   H18T10527   5.787   2.788   4.415
  104OSM   H18U10528   5.609   2.770   4.444
  104OSM    C1F10529   5.322   3.060   6.096
  104OSM     OF10530   5.353   3.157   6.153
  104OSM    C2F10531   5.193   3.060   6.026
  104OSM    H2F10532   5.121   3.054   6.110
  104OSM    H2G10533   5.184   2.971   5.960
  104OSM    C3F10534   5.158   3.193   5.948
  104OSM    H3F10535   5.178   3.285   6.007
  104OSM    H3G10536   5.049   3.184   5.931
  104OSM    C4F10537   5.247   3.206   5.822
  104OSM    H4F10538   5.350   3.224   5.859
  104OSM    H4G10539   5.210   3.292   5.763
  104OSM    C5F10540   5.250   3.082   5.733
  104OSM    H5F10541   5.159   3.090   5.669
  104OSM    H5G10542   5.252   2.988   5.792
  104OSM    C6F10543   5.365   3.100   5.633
  104OSM    H6F10544   5.456   3.085   5.695
  104OSM    H6G10545   5.344   3.200   5.589
  104OSM    C7F10546   5.357   2.987   5.521
  104OSM    H7F10547   5.263   3.000   5.463
  104OSM    H7G10548   5.351   2.889   5.573
  104OSM    C8F10549   5.477   2.999   5.435
  104OSM    H8F10550   5.563   2.991   5.505
  104OSM    H8G10551   5.476   3.102   5.394
  104OSM    C9F10552   5.503   2.887   5.334
  104OSM    H9F10553   5.527   2.789   5.377
  104OSM   C10F10554   5.506   2.889   5.201
  104OSM   H10F10555   5.521   2.794   5.147
  104OSM   C11F10556   5.467   3.008   5.115
  104OSM   H11F10557   5.520   2.994   5.018
  104OSM   H11G10558   5.501   3.107   5.153
  104OSM   C12F10559   5.316   2.999   5.079
  104OSM   H12F10560   5.248   3.018   5.165
  104OSM   H12G10561   5.288   2.901   5.035
  104OSM   C13F10562   5.267   3.118   4.989
  104OSM   H13F10563   5.287   3.216   5.038
  104OSM   H13G10564   5.156   3.110   4.987
  104OSM   C14F10565   5.328   3.124   4.844
  104OSM   H14F10566   5.322   3.019   4.808
  104OSM   H14G10567   5.436   3.144   4.858
  104OSM   C15F10568   5.267   3.223   4.752
  104OSM   H15F10569   5.227   3.314   4.802
  104OSM   H15G10570   5.169   3.176   4.727
  104OSM   C16F10571   5.349   3.252   4.622
  104OSM   H16F10572   5.349   3.159   4.562
  104OSM   H16G10573   5.453   3.280   4.652
  104OSM   C17F10574   5.294   3.358   4.538
  104OSM   H17F10575   5.306   3.459   4.582
  104OSM   H17G10576   5.187   3.344   4.511
  104OSM   C18F10577   5.353   3.368   4.395
  104OSM   H18F10578   5.463   3.347   4.395
  104OSM   H18G10579   5.329   3.466   4.348
  104OSM   H18H10580   5.318   3.290   4.325
  105OSM      N10581   5.271   3.910   6.880
  105OSM    C1510582   5.204   3.801   6.794
  105OSM   H15A10583   5.215   3.819   6.689
  105OSM   H15B10584   5.097   3.811   6.808
  105OSM   H15C10585   5.223   3.701   6.831
  105OSM    C1410586   5.208   4.035   6.834
  105OSM   H14A10587   5.101   4.031   6.825
  105OSM   H14B10588   5.245   4.060   6.736
  105OSM   H14C10589   5.248   4.114   6.897
  105OSM    C1310590   5.226   3.871   7.020
  105OSM   H13A10591   5.134   3.913   7.056
  105OSM   H13B10592   5.312   3.882   7.085
  105OSM   H13C10593   5.209   3.765   7.012
  105OSM    C1210594   5.430   3.908   6.871
  105OSM   H12A10595   5.458   3.819   6.925
  105OSM   H12B10596   5.470   3.987   6.932
  105OSM    C1110597   5.501   3.913   6.731
  105OSM   H11A10598   5.454   3.839   6.663
  105OSM   H11B10599   5.604   3.877   6.753
  105OSM      P10600   5.595   4.150   6.711
  105OSM    O1310601   5.538   4.285   6.735
  105OSM    O1410602   5.679   4.094   6.822
  105OSM    O1110603   5.682   4.152   6.586
  105OSM    O1210604   5.484   4.046   6.680
  105OSM    C1S10605   5.755   4.042   6.535
  105OSM    H1S10606   5.692   3.951   6.544
  105OSM    H1T10607   5.856   4.028   6.580
  105OSM     NF10608   5.854   3.933   6.341
  105OSM    HNF10609   5.954   3.930   6.338
  105OSM    C2S10610   5.797   4.057   6.386
  105OSM    H2S10611   5.696   4.072   6.341
  105OSM    C3S10612   5.876   4.193   6.344
  105OSM    H3S10613   5.966   4.202   6.409
  105OSM     O310614   5.801   4.312   6.377
  105OSM    HO310615   5.734   4.278   6.436
  105OSM    C4S10616   5.910   4.196   6.194
  105OSM    H4S10617   5.984   4.117   6.174
  105OSM    C5S10618   5.859   4.270   6.096
  105OSM    H5S10619   5.772   4.331   6.123
  105OSM    C6S10620   5.905   4.276   5.953
  105OSM    H6S10621   6.009   4.314   5.944
  105OSM    H6T10622   5.858   4.362   5.901
  105OSM    C7S10623   5.910   4.142   5.876
  105OSM    H7S10624   5.806   4.105   5.872
  105OSM    H7T10625   5.972   4.065   5.928
  105OSM    C8S10626   5.967   4.153   5.729
  105OSM    H8S10627   6.015   4.056   5.703
  105OSM    H8T10628   6.052   4.223   5.724
  105OSM    C9S10629   5.860   4.173   5.621
  105OSM    H9S10630   5.813   4.268   5.652
  105OSM    H9T10631   5.779   4.097   5.631
  105OSM   C10S10632   5.912   4.182   5.477
  105OSM   H10S10633   5.975   4.094   5.456
  105OSM   H10T10634   5.984   4.266   5.469
  105OSM   C11S10635   5.808   4.193   5.370
  105OSM   H11S10636   5.753   4.289   5.375
  105OSM   H11T10637   5.738   4.112   5.399
  105OSM   C12S10638   5.874   4.186   5.228
  105OSM   H12S10639   5.945   4.101   5.226
  105OSM   H12T10640   5.928   4.281   5.208
  105OSM   C13S10641   5.768   4.174   5.118
  105OSM   H13S10642   5.705   4.265   5.127
  105OSM   H13T10643   5.712   4.083   5.148
  105OSM   C14S10644   5.826   4.148   4.977
  105OSM   H14S10645   5.907   4.072   4.971
  105OSM   H14T10646   5.859   4.246   4.937
  105OSM   C15S10647   5.720   4.091   4.876
  105OSM   H15S10648   5.663   4.183   4.850
  105OSM   H15T10649   5.640   4.035   4.929
  105OSM   C16S10650   5.777   4.017   4.757
  105OSM   H16S10651   5.866   3.958   4.786
  105OSM   H16T10652   5.825   4.089   4.688
  105OSM   C17S10653   5.681   3.931   4.674
  105OSM   H17S10654   5.671   3.836   4.731
  105OSM   H17T10655   5.733   3.898   4.582
  105OSM   C18S10656   5.544   3.998   4.650
  105OSM   H18S10657   5.555   4.101   4.610
  105OSM   H18T10658   5.488   4.005   4.746
  105OSM   H18U10659   5.482   3.949   4.572
  105OSM    C1F10660   5.788   3.815   6.331
  105OSM     OF10661   5.662   3.816   6.337
  105OSM    C2F10662   5.872   3.693   6.332
  105OSM    H2F10663   5.815   3.618   6.391
  105OSM    H2G10664   5.963   3.718   6.391
  105OSM    C3F10665   5.897   3.630   6.196
  105OSM    H3F10666   5.803   3.600   6.144
  105OSM    H3G10667   5.944   3.530   6.205
  105OSM    C4F10668   5.992   3.711   6.100
  105OSM    H4F10669   6.092   3.719   6.148
  105OSM    H4G10670   5.950   3.812   6.080
  105OSM    C5F10671   6.006   3.632   5.966
  105OSM    H5F10672   5.908   3.598   5.926
  105OSM    H5G10673   6.072   3.545   5.986
  105OSM    C6F10674   6.071   3.711   5.850
  105OSM    H6F10675   6.169   3.748   5.885
  105OSM    H6G10676   5.993   3.784   5.821
  105OSM    C7F10677   6.093   3.628   5.725
  105OSM    H7F10678   6.010   3.564   5.687
  105OSM    H7G10679   6.178   3.557   5.735
  105OSM    C8F10680   6.139   3.709   5.595
  105OSM    H8F10681   6.192   3.646   5.521
  105OSM    H8G10682   6.219   3.776   5.634
  105OSM    C9F10683   6.029   3.796   5.544
  105OSM    H9F10684   5.986   3.862   5.620
  105OSM   C10F10685   5.969   3.785   5.423
  105OSM   H10F10686   5.885   3.852   5.400
  105OSM   C11F10687   6.006   3.685   5.314
  105OSM   H11F10688   5.913   3.641   5.273
  105OSM   H11G10689   6.068   3.599   5.346
  105OSM   C12F10690   6.071   3.760   5.199
  105OSM   H12F10691   6.167   3.808   5.228
  105OSM   H12G10692   6.008   3.845   5.167
  105OSM   C13F10693   6.085   3.660   5.087
  105OSM   H13F10694   5.981   3.641   5.054
  105OSM   H13G10695   6.125   3.565   5.129
  105OSM   C14F10696   6.175   3.715   4.973
  105OSM   H14F10697   6.273   3.742   5.016
  105OSM   H14G10698   6.131   3.805   4.926
  105OSM   C15F10699   6.199   3.616   4.867
  105OSM   H15F10700   6.102   3.575   4.831
  105OSM   H15G10701   6.256   3.527   4.902
  105OSM   C16F10702   6.273   3.676   4.747
  105OSM   H16F10703   6.379   3.689   4.777
  105OSM   H16G10704   6.239   3.779   4.725
  105OSM   C17F10705   6.277   3.588   4.618
  105OSM   H17F10706   6.174   3.547   4.610
  105OSM   H17G10707   6.351   3.506   4.613
  105OSM   C18F10708   6.288   3.688   4.495
  105OSM   H18F10709   6.393   3.724   4.484
  105OSM   H18G10710   6.222   3.772   4.526
  105OSM   H18H10711   6.256   3.647   4.396
  106OSM      N10712   3.947   1.578   6.970
  106OSM    C1510713   3.989   1.703   7.047
  106OSM   H15A10714   4.084   1.734   7.007
  106OSM   H15B10715   4.003   1.677   7.151
  106OSM   H15C10716   3.916   1.782   7.043
  106OSM    C1410717   4.046   1.466   6.987
  106OSM   H14A10718   4.004   1.373   6.954
  106OSM   H14B10719   4.071   1.449   7.091
  106OSM   H14C10720   4.120   1.490   6.912
  106OSM    C1310721   3.822   1.531   7.032
  106OSM   H13A10722   3.841   1.500   7.134
  106OSM   H13B10723   3.786   1.442   6.982
  106OSM   H13C10724   3.743   1.603   7.042
  106OSM    C1210725   3.922   1.611   6.825
  106OSM   H12A10726   3.832   1.670   6.810
  106OSM   H12B10727   3.890   1.519   6.777
  106OSM    C1110728   4.033   1.663   6.731
  106OSM   H11A10729   4.075   1.743   6.795
  106OSM   H11B10730   3.994   1.695   6.632
  106OSM      P10731   4.097   1.444   6.623
  106OSM    O1310732   4.221   1.358   6.624
  106OSM    O1410733   3.976   1.370   6.660
  106OSM    O1110734   4.086   1.501   6.474
  106OSM    O1210735   4.129   1.567   6.719
  106OSM    C1S10736   4.185   1.595   6.425
  106OSM    H1S10737   4.284   1.551   6.448
  106OSM    H1T10738   4.169   1.698   6.463
  106OSM     NF10739   4.289   1.661   6.210
  106OSM    HNF10740   4.283   1.755   6.176
  106OSM    C2S10741   4.169   1.604   6.270
  106OSM    H2S10742   4.165   1.500   6.234
  106OSM    C3S10743   4.035   1.670   6.232
  106OSM    H3S10744   4.025   1.766   6.287
  106OSM     O310745   3.920   1.596   6.273
  106OSM    HO310746   3.949   1.558   6.357
  106OSM    C4S10747   4.023   1.684   6.079
  106OSM    H4S10748   4.069   1.778   6.047
  106OSM    C5S10749   3.989   1.589   5.984
  106OSM    H5S10750   3.962   1.485   6.010
  106OSM    C6S10751   3.998   1.607   5.834
  106OSM    H6S10752   3.898   1.603   5.785
  106OSM    H6T10753   4.057   1.525   5.789
  106OSM    C7S10754   4.056   1.738   5.783
  106OSM    H7S10755   4.165   1.747   5.806
  106OSM    H7T10756   4.011   1.827   5.833
  106OSM    C8S10757   4.051   1.751   5.627
  106OSM    H8S10758   3.965   1.817   5.603
  106OSM    H8T10759   4.031   1.646   5.595
  106OSM    C9S10760   4.180   1.798   5.559
  106OSM    H9S10761   4.274   1.754   5.599
  106OSM    H9T10762   4.183   1.907   5.578
  106OSM   C10S10763   4.171   1.762   5.406
  106OSM   H10S10764   4.075   1.810   5.379
  106OSM   H10T10765   4.174   1.652   5.388
  106OSM   C11S10766   4.276   1.838   5.317
  106OSM   H11S10767   4.378   1.800   5.338
  106OSM   H11T10768   4.280   1.946   5.344
  106OSM   C12S10769   4.251   1.821   5.173
  106OSM   H12S10770   4.150   1.862   5.156
  106OSM   H12T10771   4.252   1.711   5.159
  106OSM   C13S10772   4.351   1.882   5.086
  106OSM   H13S10773   4.454   1.839   5.089
  106OSM   H13T10774   4.363   1.989   5.114
  106OSM   C14S10775   4.296   1.892   4.943
  106OSM   H14S10776   4.194   1.935   4.943
  106OSM   H14T10777   4.288   1.788   4.904
  106OSM   C15S10778   4.383   1.967   4.848
  106OSM   H15S10779   4.478   1.918   4.818
  106OSM   H15T10780   4.410   2.058   4.907
  106OSM   C16S10781   4.314   2.025   4.714
  106OSM   H16S10782   4.205   2.034   4.735
  106OSM   H16T10783   4.309   1.951   4.632
  106OSM   C17S10784   4.367   2.160   4.673
  106OSM   H17S10785   4.471   2.145   4.638
  106OSM   H17T10786   4.360   2.238   4.753
  106OSM   C18S10787   4.296   2.204   4.541
  106OSM   H18S10788   4.342   2.165   4.447
  106OSM   H18T10789   4.275   2.313   4.539
  106OSM   H18U10790   4.194   2.159   4.538
  106OSM    C1F10791   4.397   1.593   6.197
  106OSM     OF10792   4.418   1.485   6.244
  106OSM    C2F10793   4.511   1.649   6.119
  106OSM    H2F10794   4.570   1.706   6.193
  106OSM    H2G10795   4.477   1.726   6.047
  106OSM    C3F10796   4.606   1.555   6.042
  106OSM    H3F10797   4.651   1.495   6.125
  106OSM    H3G10798   4.676   1.632   6.003
  106OSM    C4F10799   4.547   1.455   5.946
  106OSM    H4F10800   4.502   1.369   5.999
  106OSM    H4G10801   4.634   1.423   5.885
  106OSM    C5F10802   4.444   1.515   5.847
  106OSM    H5F10803   4.466   1.622   5.827
  106OSM    H5G10804   4.350   1.516   5.906
  106OSM    C6F10805   4.426   1.446   5.709
  106OSM    H6F10806   4.327   1.474   5.668
  106OSM    H6G10807   4.416   1.336   5.713
  106OSM    C7F10808   4.544   1.467   5.618
  106OSM    H7F10809   4.635   1.428   5.670
  106OSM    H7G10810   4.549   1.577   5.611
  106OSM    C8F10811   4.521   1.409   5.475
  106OSM    H8F10812   4.423   1.449   5.443
  106OSM    H8G10813   4.508   1.300   5.497
  106OSM    C9F10814   4.632   1.437   5.373
  106OSM    H9F10815   4.735   1.411   5.404
  106OSM   C10F10816   4.616   1.488   5.251
  106OSM   H10F10817   4.712   1.519   5.205
  106OSM   C11F10818   4.482   1.524   5.186
  106OSM   H11F10819   4.493   1.620   5.132
  106OSM   H11G10820   4.418   1.539   5.276
  106OSM   C12F10821   4.428   1.425   5.088
  106OSM   H12F10822   4.330   1.464   5.056
  106OSM   H12G10823   4.419   1.326   5.138
  106OSM   C13F10824   4.518   1.426   4.962
  106OSM   H13F10825   4.606   1.367   4.995
  106OSM   H13G10826   4.546   1.531   4.940
  106OSM   C14F10827   4.459   1.343   4.847
  106OSM   H14F10828   4.394   1.264   4.890
  106OSM   H14G10829   4.531   1.291   4.781
  106OSM   C15F10830   4.376   1.440   4.756
  106OSM   H15F10831   4.279   1.465   4.803
  106OSM   H15G10832   4.362   1.369   4.672
  106OSM   C16F10833   4.450   1.560   4.696
  106OSM   H16F10834   4.554   1.536   4.664
  106OSM   H16G10835   4.453   1.649   4.762
  106OSM   C17F10836   4.382   1.610   4.563
  106OSM   H17F10837   4.414   1.715   4.544
  106OSM   H17G10838   4.272   1.604   4.574
  106OSM   C18F10839   4.422   1.518   4.451
  106OSM   H18F10840   4.530   1.519   4.424
  106OSM   H18G10841   4.373   1.559   4.360
  106OSM   H18H10842   4.396   1.412   4.475
  107OSM      N10843   3.125   0.108   6.553
  107OSM    C1510844   3.156   0.012   6.667
  107OSM   H15A10845   3.231   0.052   6.733
  107OSM   H15B10846   3.199   6.836   6.624
  107OSM   H15C10847   3.065   6.895   6.718
  107OSM    C1410848   2.994   0.069   6.487
  107OSM   H14A10849   2.981   6.874   6.482
  107OSM   H14B10850   2.978   0.100   6.385
  107OSM   H14C10851   2.906   0.103   6.539
  107OSM    C1310852   3.117   0.240   6.617
  107OSM   H13A10853   3.065   0.309   6.552
  107OSM   H13B10854   3.213   0.285   6.639
  107OSM   H13C10855   3.057   0.240   6.706
  107OSM    C1210856   3.239   0.119   6.464
  107OSM   H12A10857   3.333   0.145   6.512
  107OSM   H12B10858   3.222   0.189   6.384
  107OSM    C1110859   3.284   6.893   6.409
  107OSM   H11A10860   3.334   6.908   6.311
  107OSM   H11B10861   3.193   6.831   6.389
  107OSM      P10862   3.508   6.864   6.538
  107OSM    O1310863   3.511   0.068   6.634
  107OSM    O1410864   3.585   6.745   6.582
  107OSM    O1110865   3.564   0.011   6.403
  107OSM    O1210866   3.365   6.831   6.507
  107OSM    C1S10867   3.585   6.824   6.307
  107OSM    H1S10868   3.493   6.770   6.275
  107OSM    H1T10869   3.660   6.749   6.340
  107OSM     NF10870   3.632   6.785   6.064
  107OSM    HNF10871   3.709   6.722   6.051
  107OSM    C2S10872   3.645   6.885   6.173
  107OSM    H2S10873   3.586   0.063   6.148
  107OSM    C3S10874   3.784   0.031   6.201
  107OSM    H3S10875   3.848   6.865   6.247
  107OSM     O310876   3.787   0.146   6.286
  107OSM    HO310877   3.705   0.137   6.335
  107OSM    C4S10878   3.832   0.070   6.056
  107OSM    H4S10879   3.787   0.158   6.007
  107OSM    C5S10880   3.930   0.002   5.988
  107OSM    H5S10881   3.980   6.830   6.037
  107OSM    C6S10882   3.983   0.030   5.850
  107OSM    H6S10883   4.091   0.051   5.868
  107OSM    H6T10884   3.928   0.115   5.806
  107OSM    C7S10885   3.950   6.821   5.763
  107OSM    H7S10886   3.840   6.804   5.759
  107OSM    H7T10887   4.005   6.734   5.806
  107OSM    C8S10888   3.995   6.834   5.614
  107OSM    H8S10889   3.963   0.024   5.584
  107OSM    H8T10890   3.945   6.753   5.558
  107OSM    C9S10891   4.143   6.823   5.594
  107OSM    H9S10892   4.186   6.723   5.617
  107OSM    H9T10893   4.202   6.895   5.655
  107OSM   C10S10894   4.172   6.865   5.443
  107OSM   H10S10895   4.121   0.051   5.432
  107OSM   H10T10896   4.118   6.793   5.378
  107OSM   C11S10897   4.320   6.875   5.417
  107OSM   H11S10898   4.361   6.773   5.433
  107OSM   H11T10899   4.367   0.039   5.482
  107OSM   C12S10900   4.337   0.012   5.272
  107OSM   H12S10901   4.288   0.111   5.280
  107OSM   H12T10902   4.266   6.867   5.209
  107OSM   C13S10903   4.482   0.013   5.217
  107OSM   H13S10904   4.461   0.011   5.107
  107OSM   H13T10905   4.532   6.829   5.243
  107OSM   C14S10906   4.570   0.122   5.278
  107OSM   H14S10907   4.564   0.099   5.386
  107OSM   H14T10908   4.517   0.218   5.260
  107OSM   C15S10909   4.716   0.135   5.227
  107OSM   H15S10910   4.772   0.042   5.249
  107OSM   H15T10911   4.765   0.213   5.289
  107OSM   C16S10912   4.734   0.184   5.084
  107OSM   H16S10913   4.727   0.295   5.089
  107OSM   H16T10914   4.654   0.144   5.019
  107OSM   C17S10915   4.870   0.142   5.015
  107OSM   H17S10916   4.873   0.176   4.909
  107OSM   H17T10917   4.893   0.034   5.002
  107OSM   C18S10918   5.000   0.191   5.082
  107OSM   H18S10919   5.076   0.159   5.008
  107OSM   H18T10920   5.023   0.145   5.181
  107OSM   H18U10921   4.993   0.302   5.090
  107OSM    C1F10922   3.511   6.754   6.015
  107OSM     OF10923   3.414   6.826   6.048
  107OSM    C2F10924   3.499   6.639   5.920
  107OSM    H2F10925   3.405   6.656   5.865
  107OSM    H2G10926   3.495   6.540   5.971
  107OSM    C3F10927   3.610   6.641   5.817
  107OSM    H3F10928   3.709   6.643   5.866
  107OSM    H3G10929   3.598   6.723   5.743
  107OSM    C4F10930   3.602   6.510   5.729
  107OSM    H4F10931   3.505   6.514   5.675
  107OSM    H4G10932   3.605   6.419   5.792
  107OSM    C5F10933   3.719   6.508   5.627
  107OSM    H5F10934   3.730   6.405   5.588
  107OSM    H5G10935   3.815   6.524   5.681
  107OSM    C6F10936   3.703   6.606   5.506
  107OSM    H6F10937   3.751   6.703   5.530
  107OSM    H6G10938   3.593   6.618   5.493
  107OSM    C7F10939   3.757   6.548   5.382
  107OSM    H7F10940   3.709   6.448   5.369
  107OSM    H7G10941   3.865   6.524   5.383
  107OSM    C8F10942   3.728   6.640   5.262
  107OSM    H8F10943   3.791   6.601   5.179
  107OSM    H8G10944   3.768   6.743   5.275
  107OSM    C9F10945   3.589   6.631   5.207
  107OSM    H9F10946   3.540   6.533   5.205
  107OSM   C10F10947   3.529   6.725   5.126
  107OSM   H10F10948   3.427   6.702   5.093
  107OSM   C11F10949   3.583   6.861   5.107
  107OSM   H11F10950   3.693   6.860   5.113
  107OSM   H11G10951   3.554   0.032   5.174
  107OSM   C12F10952   3.542   6.897   4.965
  107OSM   H12F10953   3.594   6.828   4.895
  107OSM   H12G10954   3.589   0.078   4.929
  107OSM   C13F10955   3.387   0.017   4.942
  107OSM   H13F10956   3.354   0.077   5.029
  107OSM   H13G10957   3.339   6.829   4.938
  107OSM   C14F10958   3.358   0.090   4.812
  107OSM   H14F10959   3.403   0.036   4.725
  107OSM   H14G10960   3.394   0.194   4.828
  107OSM   C15F10961   3.206   0.091   4.787
  107OSM   H15F10962   3.157   0.166   4.853
  107OSM   H15G10963   3.161   6.903   4.800
  107OSM   C16F10964   3.171   0.122   4.643
  107OSM   H16F10965   3.198   0.032   4.584
  107OSM   H16G10966   3.213   0.221   4.614
  107OSM   C17F10967   3.026   0.139   4.605
  107OSM   H17F10968   2.966   0.058   4.651
  107OSM   H17G10969   3.008   0.117   4.498
  107OSM   C18F10970   2.964   0.275   4.642
  107OSM   H18F10971   2.953   0.285   4.752
  107OSM   H18G10972   2.864   0.309   4.607
  107OSM   H18H10973   3.035   0.357   4.617
  108OSM      N10974   6.445   6.296   6.827
  108OSM    C1510975   6.565   6.390   6.833
  108OSM   H15A10976   6.557   6.466   6.756
  108OSM   H15B10977   6.660   6.343   6.813
  108OSM   H15C10978   6.571   6.433   6.932
  108OSM    C1410979   6.449   6.197   6.935
  108OSM   H14A10980   6.450   6.244   7.032
  108OSM   H14B10981   6.536   6.132   6.940
  108OSM   H14C10982   6.364   6.131   6.928
  108OSM    C1310983   6.316   6.370   6.840
  108OSM   H13A10984   6.228   6.309   6.854
  108OSM   H13B10985   6.291   6.409   6.742
  108OSM   H13C10986   6.320   6.442   6.921
  108OSM    C1210987   6.444   6.232   6.689
  108OSM   H12A10988   6.549   6.214   6.672
  108OSM   H12B10989   6.439   6.308   6.612
  108OSM    C1110990   6.344   6.121   6.650
  108OSM   H11A10991   6.339   6.045   6.732
  108OSM   H11B10992   6.384   6.078   6.556
  108OSM      P10993   6.170   6.274   6.522
  108OSM    O1310994   6.037   6.262   6.468
  108OSM    O1410995   6.208   6.408   6.571
  108OSM    O1110996   6.276   6.238   6.411
  108OSM    O1210997   6.208   6.166   6.625
  108OSM    C1S10998   6.281   6.312   6.284
  108OSM    H1S10999   6.315   6.417   6.296
  108OSM    H1T11000   6.176   6.325   6.249
  108OSM     NF11001   6.381   6.338   6.050
  108OSM    HNF11002   6.307   6.346   5.983
  108OSM    C2S11003   6.361   6.241   6.166
  108OSM    H2S11004   6.466   6.230   6.201
  108OSM    C3S11005   6.292   6.103   6.139
  108OSM    H3S11006   6.184   6.121   6.119
  108OSM     O311007   6.299   6.018   6.256
  108OSM    HO311008   6.308   6.083   6.326
  108OSM    C4S11009   6.357   6.023   6.030
  108OSM    H4S11010   6.465   6.012   6.041
  108OSM    C5S11011   6.277   5.980   5.922
  108OSM    H5S11012   6.171   6.010   5.923
  108OSM    C6S11013   6.321   5.905   5.795
  108OSM    H6S11014   6.269   5.953   5.709
  108OSM    H6T11015   6.275   5.804   5.802
  108OSM    C7S11016   6.474   5.899   5.775
  108OSM    H7S11017   6.519   5.848   5.862
  108OSM    H7T11018   6.505   6.006   5.774
  108OSM    C8S11019   6.526   5.821   5.652
  108OSM    H8S11020   6.491   5.716   5.664
  108OSM    H8T11021   6.636   5.818   5.645
  108OSM    C9S11022   6.474   5.878   5.510
  108OSM    H9S11023   6.461   5.987   5.526
  108OSM    H9T11024   6.379   5.829   5.479
  108OSM   C10S11025   6.570   5.844   5.394
  108OSM   H10S11026   6.590   5.734   5.390
  108OSM   H10T11027   6.671   5.889   5.409
  108OSM   C11S11028   6.506   5.892   5.261
  108OSM   H11S11029   6.507   6.002   5.248
  108OSM   H11T11030   6.401   5.859   5.247
  108OSM   C12S11031   6.587   5.832   5.142
  108OSM   H12S11032   6.583   5.722   5.157
  108OSM   H12T11033   6.694   5.858   5.127
  108OSM   C13S11034   6.519   5.861   5.002
  108OSM   H13S11035   6.534   5.966   4.968
  108OSM   H13T11036   6.409   5.854   5.013
  108OSM   C14S11037   6.573   5.778   4.888
  108OSM   H14S11038   6.683   5.787   4.871
  108OSM   H14T11039   6.522   5.811   4.795
  108OSM   C15S11040   6.539   5.628   4.899
  108OSM   H15S11041   6.433   5.611   4.928
  108OSM   H15T11042   6.602   5.581   4.976
  108OSM   C16S11043   6.551   5.571   4.760
  108OSM   H16S11044   6.532   5.462   4.778
  108OSM   H16T11045   6.652   5.572   4.714
  108OSM   C17S11046   6.443   5.612   4.657
  108OSM   H17S11047   6.472   5.696   4.590
  108OSM   H17T11048   6.353   5.651   4.710
  108OSM   C18S11049   6.387   5.491   4.572
  108OSM   H18S11050   6.310   5.521   4.498
  108OSM   H18T11051   6.360   5.409   4.643
  108OSM   H18U11052   6.472   5.447   4.515
  108OSM    C1F11053   6.476   6.428   6.040
  108OSM     OF11054   6.563   6.444   6.124
  108OSM    C2F11055   6.454   6.514   5.924
  108OSM    H2F11056   6.377   6.594   5.934
  108OSM    H2G11057   6.419   6.445   5.844
  108OSM    C3F11058   6.590   6.586   5.887
  108OSM    H3F11059   6.671   6.511   5.903
  108OSM    H3G11060   6.606   6.663   5.966
  108OSM    C4F11061   6.582   6.655   5.748
  108OSM    H4F11062   6.480   6.697   5.742
  108OSM    H4G11063   6.597   6.568   5.681
  108OSM    C5F11064   6.692   6.764   5.735
  108OSM    H5F11065   6.783   6.700   5.727
  108OSM    H5G11066   6.706   6.827   5.825
  108OSM    C6F11067   6.660   6.843   5.606
  108OSM    H6F11068   6.733   0.012   5.589
  108OSM    H6G11069   6.557   6.885   5.602
  108OSM    C7F11070   6.663   6.756   5.483
  108OSM    H7F11071   6.589   6.673   5.483
  108OSM    H7G11072   6.764   6.712   5.468
  108OSM    C8F11073   6.639   6.832   5.354
  108OSM    H8F11074   6.534   6.867   5.352
  108OSM    H8G11075   6.661   6.754   5.278
  108OSM    C9F11076   6.731   0.031   5.316
  108OSM    H9F11077   6.837   0.011   5.335
  108OSM   C10F11078   6.692   0.155   5.275
  108OSM   H10F11079   6.767   0.234   5.261
  108OSM   C11F11080   6.556   0.203   5.240
  108OSM   H11F11081   6.476   0.148   5.293
  108OSM   H11G11082   6.546   0.175   5.133
  108OSM   C12F11083   6.540   0.352   5.267
  108OSM   H12F11084   6.597   0.422   5.202
  108OSM   H12G11085   6.555   0.370   5.375
  108OSM   C13F11086   6.392   0.391   5.239
  108OSM   H13F11087   6.384   0.494   5.280
  108OSM   H13G11088   6.332   0.315   5.294
  108OSM   C14F11089   6.352   0.376   5.089
  108OSM   H14F11090   6.254   0.423   5.066
  108OSM   H14G11091   6.333   0.267   5.081
  108OSM   C15F11092   6.447   0.414   4.972
  108OSM   H15F11093   6.544   0.368   4.997
  108OSM   H15G11094   6.467   0.524   4.974
  108OSM   C16F11095   6.395   0.371   4.832
  108OSM   H16F11096   6.477   0.373   4.757
  108OSM   H16G11097   6.328   0.451   4.794
  108OSM   C17F11098   6.329   0.236   4.825
  108OSM   H17F11099   6.236   0.238   4.886
  108OSM   H17G11100   6.399   0.166   4.874
  108OSM   C18F11101   6.312   0.175   4.683
  108OSM   H18F11102   6.300   0.064   4.685
  108OSM   H18G11103   6.404   0.193   4.624
  108OSM   H18H11104   6.218   0.213   4.636
  109OSM      N11105   3.156   2.912   6.863
  109OSM    C1511106   3.122   3.058   6.908
  109OSM   H15A11107   3.182   3.131   6.854
  109OSM   H15B11108   3.128   3.067   7.015
  109OSM   H15C11109   3.019   3.084   6.886
  109OSM    C1411110   3.299   2.893   6.903
  109OSM   H14A11111   3.318   2.891   7.009
  109OSM   H14B11112   3.353   2.977   6.864
  109OSM   H14C11113   3.333   2.797   6.867
  109OSM    C1311114   3.068   2.815   6.925
  109OSM   H13A11115   2.965   2.833   6.898
  109OSM   H13B11116   3.085   2.817   7.032
  109OSM   H13C11117   3.092   2.717   6.886
  109OSM    C1211118   3.138   2.906   6.711
  109OSM   H12A11119   3.128   2.804   6.679
  109OSM   H12B11120   3.229   2.928   6.656
  109OSM    C1111121   3.024   2.986   6.641
  109OSM   H11A11122   3.034   2.981   6.530
  109OSM   H11B11123   3.027   3.093   6.668
  109OSM      P11124   2.822   2.817   6.626
  109OSM    O1311125   2.829   2.703   6.722
  109OSM    O1411126   2.685   2.860   6.595
  109OSM    O1111127   2.894   2.790   6.487
  109OSM    O1211128   2.898   2.942   6.692
  109OSM    C1S11129   2.904   2.652   6.449
  109OSM    H1S11130   2.811   2.594   6.469
  109OSM    H1T11131   2.988   2.599   6.499
  109OSM     NF11132   2.905   2.516   6.240
  109OSM    HNF11133   2.978   2.456   6.209
  109OSM    C2S11134   2.932   2.646   6.297
  109OSM    H2S11135   2.865   2.713   6.238
  109OSM    C3S11136   3.072   2.694   6.264
  109OSM    H3S11137   3.138   2.607   6.285
  109OSM     O311138   3.112   2.802   6.342
  109OSM    HO311139   3.033   2.813   6.396
  109OSM    C4S11140   3.096   2.727   6.114
  109OSM    H4S11141   3.044   2.815   6.074
  109OSM    C5S11142   3.190   2.673   6.032
  109OSM    H5S11143   3.260   2.591   6.053
  109OSM    C6S11144   3.207   2.725   5.889
  109OSM    H6S11145   3.316   2.725   5.870
  109OSM    H6T11146   3.175   2.831   5.878
  109OSM    C7S11147   3.140   2.646   5.780
  109OSM    H7S11148   3.030   2.643   5.799
  109OSM    H7T11149   3.178   2.543   5.791
  109OSM    C8S11150   3.157   2.711   5.643
  109OSM    H8S11151   3.262   2.743   5.626
  109OSM    H8T11152   3.087   2.797   5.638
  109OSM    C9S11153   3.155   2.617   5.522
  109OSM    H9S11154   3.062   2.561   5.501
  109OSM    H9T11155   3.242   2.550   5.536
  109OSM   C10S11156   3.197   2.693   5.393
  109OSM   H10S11157   3.270   2.775   5.410
  109OSM   H10T11158   3.108   2.742   5.347
  109OSM   C11S11159   3.248   2.601   5.283
  109OSM   H11S11160   3.175   2.519   5.269
  109OSM   H11T11161   3.348   2.557   5.303
  109OSM   C12S11162   3.265   2.681   5.154
  109OSM   H12S11163   3.352   2.750   5.158
  109OSM   H12T11164   3.167   2.730   5.135
  109OSM   C13S11165   3.289   2.579   5.035
  109OSM   H13S11166   3.194   2.521   5.034
  109OSM   H13T11167   3.375   2.514   5.063
  109OSM   C14S11168   3.314   2.643   4.892
  109OSM   H14S11169   3.326   2.570   4.809
  109OSM   H14T11170   3.406   2.704   4.902
  109OSM   C15S11171   3.189   2.732   4.842
  109OSM   H15S11172   3.167   2.804   4.924
  109OSM   H15T11173   3.101   2.665   4.832
  109OSM   C16S11174   3.218   2.795   4.706
  109OSM   H16S11175   3.238   2.721   4.626
  109OSM   H16T11176   3.314   2.849   4.718
  109OSM   C17S11177   3.101   2.894   4.669
  109OSM   H17S11178   3.134   2.959   4.585
  109OSM   H17T11179   3.093   2.971   4.749
  109OSM   C18S11180   2.963   2.844   4.641
  109OSM   H18S11181   2.970   2.815   4.535
  109OSM   H18T11182   2.889   2.927   4.651
  109OSM   H18U11183   2.941   2.760   4.711
  109OSM    C1F11184   2.777   2.470   6.233
  109OSM     OF11185   2.683   2.549   6.245
  109OSM    C2F11186   2.753   2.330   6.192
  109OSM    H2F11187   2.690   2.289   6.273
  109OSM    H2G11188   2.853   2.282   6.198
  109OSM    C3F11189   2.687   2.315   6.055
  109OSM    H3F11190   2.585   2.357   6.061
  109OSM    H3G11191   2.683   2.207   6.028
  109OSM    C4F11192   2.764   2.377   5.944
  109OSM    H4F11193   2.862   2.325   5.939
  109OSM    H4G11194   2.787   2.484   5.962
  109OSM    C5F11195   2.699   2.355   5.808
  109OSM    H5F11196   2.598   2.402   5.804
  109OSM    H5G11197   2.692   2.249   5.778
  109OSM    C6F11198   2.778   2.419   5.692
  109OSM    H6F11199   2.881   2.378   5.704
  109OSM    H6G11200   2.780   2.527   5.715
  109OSM    C7F11201   2.709   2.396   5.556
  109OSM    H7F11202   2.610   2.445   5.567
  109OSM    H7G11203   2.696   2.290   5.526
  109OSM    C8F11204   2.780   2.467   5.435
  109OSM    H8F11205   2.725   2.436   5.344
  109OSM    H8G11206   2.873   2.408   5.422
  109OSM    C9F11207   2.802   2.613   5.438
  109OSM    H9F11208   2.837   2.655   5.533
  109OSM   C10F11209   2.801   2.692   5.331
  109OSM   H10F11210   2.813   2.799   5.354
  109OSM   C11F11211   2.753   2.677   5.192
  109OSM   H11F11212   2.694   2.763   5.154
  109OSM   H11G11213   2.685   2.590   5.183
  109OSM   C12F11214   2.872   2.649   5.109
  109OSM   H12F11215   2.937   2.580   5.167
  109OSM   H12G11216   2.928   2.744   5.098
  109OSM   C13F11217   2.840   2.578   4.978
  109OSM   H13F11218   2.800   2.477   5.001
  109OSM   H13G11219   2.928   2.553   4.915
  109OSM   C14F11220   2.730   2.649   4.900
  109OSM   H14F11221   2.775   2.745   4.867
  109OSM   H14G11222   2.643   2.664   4.968
  109OSM   C15F11223   2.690   2.566   4.773
  109OSM   H15F11224   2.652   2.464   4.796
  109OSM   H15G11225   2.787   2.557   4.721
  109OSM   C16F11226   2.580   2.635   4.690
  109OSM   H16F11227   2.585   2.577   4.596
  109OSM   H16G11228   2.600   2.739   4.659
  109OSM   C17F11229   2.433   2.617   4.743
  109OSM   H17F11230   2.414   2.669   4.839
  109OSM   H17G11231   2.421   2.507   4.756
  109OSM   C18F11232   2.321   2.666   4.647
  109OSM   H18F11233   2.331   2.601   4.558
  109OSM   H18G11234   2.329   2.773   4.617
  109OSM   H18H11235   2.221   2.653   4.695
  110OSM      N11236   5.817   0.540   6.592
  110OSM    C1511237   5.960   0.550   6.632
  110OSM   H15A11238   6.014   0.457   6.620
  110OSM   H15B11239   5.965   0.562   6.739
  110OSM   H15C11240   5.992   0.644   6.588
  110OSM    C1411241   5.764   0.409   6.641
  110OSM   H14A11242   5.827   0.332   6.600
  110OSM   H14B11243   5.664   0.393   6.603
  110OSM   H14C11244   5.759   0.402   6.749
  110OSM    C1311245   5.737   0.651   6.638
  110OSM   H13A11246   5.787   0.743   6.611
  110OSM   H13B11247   5.734   0.659   6.746
  110OSM   H13C11248   5.635   0.655   6.604
  110OSM    C1211249   5.802   0.530   6.440
  110OSM   H12A11250   5.712   0.477   6.415
  110OSM   H12B11251   5.881   0.466   6.402
  110OSM    C1111252   5.798   0.660   6.354
  110OSM   H11A11253   5.775   0.621   6.253
  110OSM   H11B11254   5.896   0.713   6.350
  110OSM      P11255   5.544   0.714   6.365
  110OSM    O1311256   5.498   0.624   6.474
  110OSM    O1411257   5.460   0.840   6.358
  110OSM    O1111258   5.537   0.626   6.233
  110OSM    O1211259   5.695   0.754   6.387
  110OSM    C1S11260   5.508   0.674   6.111
  110OSM    H1S11261   5.553   0.775   6.105
  110OSM    H1T11262   5.398   0.679   6.096
  110OSM     NF11263   5.539   0.645   5.861
  110OSM    HNF11264   5.460   0.599   5.823
  110OSM    C2S11265   5.572   0.589   5.990
  110OSM    H2S11266   5.682   0.592   6.005
  110OSM    C3S11267   5.541   0.434   6.007
  110OSM    H3S11268   5.430   0.435   5.996
  110OSM     O311269   5.581   0.380   6.138
  110OSM    HO311270   5.573   0.459   6.192
  110OSM    C4S11271   5.588   0.345   5.895
  110OSM    H4S11272   5.693   0.365   5.869
  110OSM    C5S11273   5.509   0.281   5.808
  110OSM    H5S11274   5.402   0.288   5.831
  110OSM    C6S11275   5.548   0.213   5.675
  110OSM    H6S11276   5.536   0.102   5.685
  110OSM    H6T11277   5.655   0.234   5.654
  110OSM    C7S11278   5.454   0.252   5.555
  110OSM    H7S11279   5.461   0.362   5.547
  110OSM    H7T11280   5.349   0.245   5.590
  110OSM    C8S11281   5.496   0.163   5.428
  110OSM    H8S11282   5.473   0.055   5.443
  110OSM    H8T11283   5.606   0.173   5.426
  110OSM    C9S11284   5.452   0.211   5.290
  110OSM    H9S11285   5.513   0.303   5.280
  110OSM    H9T11286   5.344   0.236   5.297
  110OSM   C10S11287   5.479   0.122   5.172
  110OSM   H10S11288   5.399   0.047   5.192
  110OSM   H10T11289   5.581   0.077   5.173
  110OSM   C11S11290   5.463   0.191   5.039
  110OSM   H11S11291   5.545   0.265   5.027
  110OSM   H11T11292   5.368   0.248   5.050
  110OSM   C12S11293   5.450   0.092   4.928
  110OSM   H12S11294   5.549   0.042   4.921
  110OSM   H12T11295   5.435   0.138   4.828
  110OSM   C13S11296   5.344   6.895   4.947
  110OSM   H13S11297   5.251   0.035   4.976
  110OSM   H13T11298   5.374   6.814   5.017
  110OSM   C14S11299   5.322   6.817   4.819
  110OSM   H14S11300   5.250   6.743   4.861
  110OSM   H14T11301   5.418   6.773   4.786
  110OSM   C15S11302   5.247   6.886   4.696
  110OSM   H15S11303   5.237   6.802   4.624
  110OSM   H15T11304   5.316   0.051   4.657
  110OSM   C16S11305   5.111   0.030   4.741
  110OSM   H16S11306   5.131   0.112   4.813
  110OSM   H16T11307   5.061   6.867   4.805
  110OSM   C17S11308   5.032   0.085   4.623
  110OSM   H17S11309   4.935   0.130   4.651
  110OSM   H17T11310   5.012   0.008   4.545
  110OSM   C18S11311   5.097   0.190   4.534
  110OSM   H18S11312   5.198   0.160   4.499
  110OSM   H18T11313   5.120   0.281   4.593
  110OSM   H18U11314   5.032   0.222   4.449
  110OSM    C1F11315   5.592   0.760   5.816
  110OSM     OF11316   5.660   0.839   5.885
  110OSM    C2F11317   5.581   0.779   5.672
  110OSM    H2F11318   5.672   0.744   5.619
  110OSM    H2G11319   5.569   0.887   5.651
  110OSM    C3F11320   5.469   0.694   5.604
  110OSM    H3F11321   5.371   0.705   5.656
  110OSM    H3G11322   5.506   0.590   5.616
  110OSM    C4F11323   5.447   0.721   5.448
  110OSM    H4F11324   5.547   0.756   5.414
  110OSM    H4G11325   5.371   0.801   5.459
  110OSM    C5F11326   5.381   0.612   5.371
  110OSM    H5F11327   5.294   0.594   5.438
  110OSM    H5G11328   5.441   0.519   5.383
  110OSM    C6F11329   5.365   0.654   5.222
  110OSM    H6F11330   5.465   0.682   5.183
  110OSM    H6G11331   5.298   0.741   5.205
  110OSM    C7F11332   5.312   0.544   5.121
  110OSM    H7F11333   5.231   0.482   5.165
  110OSM    H7G11334   5.394   0.469   5.116
  110OSM    C8F11335   5.283   0.601   4.975
  110OSM    H8F11336   5.371   0.646   4.924
  110OSM    H8G11337   5.208   0.682   4.982
  110OSM    C9F11338   5.232   0.490   4.889
  110OSM    H9F11339   5.130   0.455   4.912
  110OSM   C10F11340   5.295   0.444   4.780
  110OSM   H10F11341   5.257   0.352   4.733
  110OSM   C11F11342   5.425   0.475   4.715
  110OSM   H11F11343   5.488   0.536   4.783
  110OSM   H11G11344   5.418   0.535   4.621
  110OSM   C12F11345   5.507   0.347   4.676
  110OSM   H12F11346   5.442   0.269   4.631
  110OSM   H12G11347   5.565   0.308   4.762
  110OSM   C13F11348   5.617   0.375   4.575
  110OSM   H13F11349   5.701   0.437   4.614
  110OSM   H13G11350   5.573   0.438   4.494
  110OSM   C14F11351   5.676   0.266   4.485
  110OSM   H14F11352   5.597   0.224   4.419
  110OSM   H14G11353   5.706   0.183   4.553
  110OSM   C15F11354   5.793   0.314   4.402
  110OSM   H15F11355   5.772   0.407   4.344
  110OSM   H15G11356   5.811   0.234   4.326
  110OSM   C16F11357   5.922   0.331   4.476
  110OSM   H16F11358   5.946   0.234   4.525
  110OSM   H16G11359   5.914   0.412   4.552
  110OSM   C17F11360   6.046   0.363   4.396
  110OSM   H17F11361   6.073   0.272   4.338
  110OSM   H17G11362   6.128   0.382   4.469
  110OSM   C18F11363   6.040   0.476   4.295
  110OSM   H18F11364   6.140   0.499   4.253
  110OSM   H18G11365   6.020   0.569   4.351
  110OSM   H18H11366   5.964   0.468   4.214
  111OSM      N11367   1.239   3.859   6.585
  111OSM    C1511368   1.306   3.904   6.708
  111OSM   H15A11369   1.259   3.994   6.746
  111OSM   H15B11370   1.411   3.928   6.695
  111OSM   H15C11371   1.295   3.832   6.787
  111OSM    C1411372   1.243   3.965   6.477
  111OSM   H14A11373   1.291   3.916   6.394
  111OSM   H14B11374   1.292   4.058   6.504
  111OSM   H14C11375   1.144   3.996   6.448
  111OSM    C1311376   1.317   3.740   6.534
  111OSM   H13A11377   1.257   3.699   6.454
  111OSM   H13B11378   1.341   3.673   6.615
  111OSM   H13C11379   1.414   3.767   6.496
  111OSM    C1211380   1.094   3.811   6.596
  111OSM   H12A11381   1.092   3.724   6.659
  111OSM   H12B11382   1.070   3.779   6.496
  111OSM    C1111383   0.988   3.911   6.653
  111OSM   H11A11384   1.035   3.951   6.745
  111OSM   H11B11385   0.902   3.844   6.676
  111OSM      P11386   0.849   4.006   6.460
  111OSM    O1311387   0.898   3.997   6.324
  111OSM    O1411388   0.750   3.905   6.499
  111OSM    O1111389   0.771   4.147   6.472
  111OSM    O1211390   0.965   4.018   6.563
  111OSM    C1S11391   0.826   4.269   6.424
  111OSM    H1S11392   0.936   4.274   6.435
  111OSM    H1T11393   0.796   4.362   6.476
  111OSM     NF11394   0.853   4.413   6.246
  111OSM    HNF11395   0.805   4.500   6.258
  111OSM    C2S11396   0.790   4.291   6.276
  111OSM    H2S11397   0.832   4.207   6.216
  111OSM    C3S11398   0.636   4.282   6.250
  111OSM    H3S11399   0.581   4.356   6.312
  111OSM     O311400   0.576   4.156   6.279
  111OSM    HO311401   0.649   4.118   6.329
  111OSM    C4S11402   0.618   4.308   6.105
  111OSM    H4S11403   0.657   4.227   6.043
  111OSM    C5S11404   0.555   4.415   6.056
  111OSM    H5S11405   0.507   4.487   6.124
  111OSM    C6S11406   0.551   4.455   5.914
  111OSM    H6S11407   0.594   4.555   5.897
  111OSM    H6T11408   0.444   4.470   5.885
  111OSM    C7S11409   0.636   4.364   5.821
  111OSM    H7S11410   0.616   4.256   5.841
  111OSM    H7T11411   0.740   4.377   5.856
  111OSM    C8S11412   0.617   4.396   5.671
  111OSM    H8S11413   0.704   4.357   5.614
  111OSM    H8T11414   0.616   4.506   5.657
  111OSM    C9S11415   0.482   4.347   5.618
  111OSM    H9S11416   0.397   4.388   5.677
  111OSM    H9T11417   0.480   4.236   5.621
  111OSM   C10S11418   0.464   4.373   5.473
  111OSM   H10S11419   0.364   4.340   5.439
  111OSM   H10T11420   0.532   4.308   5.413
  111OSM   C11S11421   0.481   4.518   5.434
  111OSM   H11S11422   0.589   4.541   5.450
  111OSM   H11T11423   0.417   4.577   5.503
  111OSM   C12S11424   0.453   4.547   5.285
  111OSM   H12S11425   0.347   4.579   5.277
  111OSM   H12T11426   0.478   4.461   5.218
  111OSM   C13S11427   0.527   4.666   5.214
  111OSM   H13S11428   0.633   4.635   5.200
  111OSM   H13T11429   0.532   4.751   5.285
  111OSM   C14S11430   0.472   4.709   5.077
  111OSM   H14S11431   0.537   4.797   5.057
  111OSM   H14T11432   0.367   4.743   5.062
  111OSM   C15S11433   0.510   4.606   4.974
  111OSM   H15S11434   0.424   4.536   4.964
  111OSM   H15T11435   0.607   4.564   5.010
  111OSM   C16S11436   0.548   4.669   4.839
  111OSM   H16S11437   0.580   4.579   4.783
  111OSM   H16T11438   0.631   4.742   4.853
  111OSM   C17S11439   0.431   4.740   4.785
  111OSM   H17S11440   0.382   4.816   4.850
  111OSM   H17T11441   0.352   4.670   4.749
  111OSM   C18S11442   0.474   4.818   4.662
  111OSM   H18S11443   0.393   4.842   4.590
  111OSM   H18T11444   0.551   4.762   4.605
  111OSM   H18U11445   0.522   4.909   4.705
  111OSM    C1F11446   0.983   4.414   6.217
  111OSM     OF11447   1.051   4.313   6.209
  111OSM    C2F11448   1.046   4.549   6.190
  111OSM    H2F11449   1.115   4.574   6.274
  111OSM    H2G11450   0.958   4.618   6.186
  111OSM    C3F11451   1.110   4.558   6.050
  111OSM    H3F11452   1.204   4.499   6.042
  111OSM    H3G11453   1.139   4.665   6.037
  111OSM    C4F11454   1.013   4.523   5.933
  111OSM    H4F11455   0.916   4.569   5.961
  111OSM    H4G11456   1.000   4.413   5.927
  111OSM    C5F11457   1.072   4.577   5.802
  111OSM    H5F11458   1.154   4.510   5.767
  111OSM    H5G11459   1.118   4.676   5.820
  111OSM    C6F11460   0.959   4.604   5.702
  111OSM    H6F11461   0.891   4.685   5.735
  111OSM    H6G11462   0.888   4.519   5.696
  111OSM    C7F11463   1.017   4.641   5.568
  111OSM    H7F11464   1.090   4.563   5.538
  111OSM    H7G11465   1.078   4.734   5.571
  111OSM    C8F11466   0.912   4.647   5.458
  111OSM    H8F11467   0.871   4.544   5.467
  111OSM    H8G11468   0.965   4.644   5.360
  111OSM    C9F11469   0.808   4.752   5.475
  111OSM    H9F11470   0.731   4.729   5.550
  111OSM   C10F11471   0.796   4.862   5.397
  111OSM   H10F11472   0.717   4.937   5.410
  111OSM   C11F11473   0.895   4.902   5.289
  111OSM   H11F11474   0.996   4.863   5.313
  111OSM   H11G11475   0.907   5.012   5.289
  111OSM   C12F11476   0.832   4.867   5.150
  111OSM   H12F11477   0.749   4.936   5.126
  111OSM   H12G11478   0.795   4.763   5.160
  111OSM   C13F11479   0.933   4.872   5.040
  111OSM   H13F11480   1.013   4.796   5.056
  111OSM   H13G11481   0.984   4.970   5.045
  111OSM   C14F11482   0.868   4.857   4.904
  111OSM   H14F11483   0.773   4.913   4.894
  111OSM   H14G11484   0.836   4.751   4.891
  111OSM   C15F11485   0.951   4.918   4.792
  111OSM   H15F11486   0.967   5.022   4.827
  111OSM   H15G11487   0.895   4.931   4.697
  111OSM   C16F11488   1.080   4.848   4.784
  111OSM   H16F11489   1.063   4.738   4.781
  111OSM   H16G11490   1.142   4.886   4.868
  111OSM   C17F11491   1.162   4.884   4.654
  111OSM   H17F11492   1.160   4.995   4.649
  111OSM   H17G11493   1.104   4.860   4.563
  111OSM   C18F11494   1.300   4.829   4.638
  111OSM   H18F11495   1.342   4.860   4.540
  111OSM   H18G11496   1.292   4.718   4.634
  111OSM   H18H11497   1.369   4.856   4.720
  112OSM      N11498   3.551   0.945   6.875
  112OSM    C1511499   3.558   0.801   6.910
  112OSM   H15A11500   3.511   0.780   7.005
  112OSM   H15B11501   3.662   0.772   6.912
  112OSM   H15C11502   3.515   0.736   6.835
  112OSM    C1411503   3.419   0.977   6.824
  112OSM   H14A11504   3.340   0.975   6.899
  112OSM   H14B11505   3.385   0.914   6.743
  112OSM   H14C11506   3.426   1.076   6.780
  112OSM    C1311507   3.594   1.018   6.998
  112OSM   H13A11508   3.688   0.988   7.041
  112OSM   H13B11509   3.530   1.002   7.083
  112OSM   H13C11510   3.608   1.121   6.971
  112OSM    C1211511   3.656   0.968   6.769
  112OSM   H12A11512   3.643   0.889   6.696
  112OSM   H12B11513   3.749   0.956   6.821
  112OSM    C1111514   3.647   1.111   6.696
  112OSM   H11A11515   3.561   1.106   6.627
  112OSM   H11B11516   3.736   1.116   6.629
  112OSM      P11517   3.524   1.335   6.814
  112OSM    O1311518   3.391   1.274   6.801
  112OSM    O1411519   3.550   1.401   6.946
  112OSM    O1111520   3.551   1.441   6.697
  112OSM    O1211521   3.637   1.224   6.792
  112OSM    C1S11522   3.590   1.403   6.563
  112OSM    H1S11523   3.516   1.335   6.516
  112OSM    H1T11524   3.679   1.338   6.558
  112OSM     NF11525   3.684   1.471   6.355
  112OSM    HNF11526   3.774   1.507   6.329
  112OSM    C2S11527   3.626   1.522   6.475
  112OSM    H2S11528   3.529   1.572   6.453
  112OSM    C3S11529   3.718   1.629   6.550
  112OSM    H3S11530   3.813   1.575   6.563
  112OSM     O311531   3.675   1.666   6.681
  112OSM    HO311532   3.614   1.599   6.715
  112OSM    C4S11533   3.743   1.747   6.465
  112OSM    H4S11534   3.845   1.759   6.424
  112OSM    C5S11535   3.668   1.857   6.468
  112OSM    H5S11536   3.585   1.860   6.540
  112OSM    C6S11537   3.700   1.980   6.394
  112OSM    H6S11538   3.731   2.060   6.465
  112OSM    H6T11539   3.612   2.005   6.332
  112OSM    C7S11540   3.806   1.966   6.284
  112OSM    H7S11541   3.790   1.881   6.214
  112OSM    H7T11542   3.906   1.944   6.327
  112OSM    C8S11543   3.813   2.086   6.185
  112OSM    H8S11544   3.850   2.167   6.251
  112OSM    H8T11545   3.705   2.109   6.169
  112OSM    C9S11546   3.893   2.059   6.056
  112OSM    H9S11547   3.854   1.962   6.019
  112OSM    H9T11548   3.997   2.036   6.087
  112OSM   C10S11549   3.899   2.172   5.944
  112OSM   H10S11550   3.952   2.260   5.985
  112OSM   H10T11551   3.797   2.197   5.907
  112OSM   C11S11552   3.976   2.131   5.822
  112OSM   H11S11553   3.924   2.040   5.784
  112OSM   H11T11554   4.082   2.101   5.834
  112OSM   C12S11555   3.974   2.245   5.720
  112OSM   H12S11556   4.026   2.331   5.768
  112OSM   H12T11557   3.873   2.275   5.686
  112OSM   C13S11558   4.059   2.210   5.592
  112OSM   H13S11559   4.059   2.099   5.578
  112OSM   H13T11560   4.163   2.244   5.609
  112OSM   C14S11561   3.994   2.262   5.459
  112OSM   H14S11562   3.992   2.372   5.466
  112OSM   H14T11563   3.894   2.220   5.435
  112OSM   C15S11564   4.086   2.223   5.347
  112OSM   H15S11565   4.074   2.114   5.333
  112OSM   H15T11566   4.194   2.243   5.365
  112OSM   C16S11567   4.048   2.290   5.213
  112OSM   H16S11568   4.068   2.399   5.215
  112OSM   H16T11569   3.939   2.283   5.191
  112OSM   C17S11570   4.116   2.227   5.090
  112OSM   H17S11571   4.104   2.117   5.094
  112OSM   H17T11572   4.225   2.239   5.112
  112OSM   C18S11573   4.093   2.297   4.955
  112OSM   H18S11574   4.096   2.408   4.962
  112OSM   H18T11575   3.988   2.278   4.924
  112OSM   H18U11576   4.164   2.262   4.878
  112OSM    C1F11577   3.612   1.386   6.271
  112OSM     OF11578   3.497   1.351   6.292
  112OSM    C2F11579   3.680   1.340   6.146
  112OSM    H2F11580   3.751   1.258   6.166
  112OSM    H2G11581   3.735   1.426   6.102
  112OSM    C3F11582   3.584   1.306   6.030
  112OSM    H3F11583   3.506   1.383   6.018
  112OSM    H3G11584   3.546   1.204   6.052
  112OSM    C4F11585   3.663   1.307   5.900
  112OSM    H4F11586   3.736   1.224   5.898
  112OSM    H4G11587   3.723   1.400   5.897
  112OSM    C5F11588   3.570   1.289   5.780
  112OSM    H5F11589   3.489   1.361   5.804
  112OSM    H5G11590   3.520   1.190   5.790
  112OSM    C6F11591   3.623   1.337   5.644
  112OSM    H6F11592   3.670   1.436   5.656
  112OSM    H6G11593   3.542   1.354   5.569
  112OSM    C7F11594   3.718   1.240   5.569
  112OSM    H7F11595   3.684   1.135   5.579
  112OSM    H7G11596   3.807   1.247   5.634
  112OSM    C8F11597   3.755   1.279   5.425
  112OSM    H8F11598   3.657   1.302   5.377
  112OSM    H8G11599   3.818   1.208   5.368
  112OSM    C9F11600   3.830   1.409   5.429
  112OSM    H9F11601   3.802   1.463   5.521
  112OSM   C10F11602   3.926   1.451   5.351
  112OSM   H10F11603   3.973   1.550   5.365
  112OSM   C11F11604   3.981   1.370   5.239
  112OSM   H11F11605   3.987   1.261   5.260
  112OSM   H11G11606   4.083   1.405   5.215
  112OSM   C12F11607   3.901   1.388   5.100
  112OSM   H12F11608   3.909   1.494   5.070
  112OSM   H12G11609   3.792   1.371   5.117
  112OSM   C13F11610   3.958   1.303   4.985
  112OSM   H13F11611   3.947   1.193   4.998
  112OSM   H13G11612   4.067   1.325   4.988
  112OSM   C14F11613   3.902   1.330   4.847
  112OSM   H14F11614   3.792   1.311   4.847
  112OSM   H14G11615   3.948   1.255   4.780
  112OSM   C15F11616   3.932   1.475   4.801
  112OSM   H15F11617   4.042   1.486   4.801
  112OSM   H15G11618   3.885   1.552   4.867
  112OSM   C16F11619   3.870   1.495   4.657
  112OSM   H16F11620   3.759   1.504   4.666
  112OSM   H16G11621   3.888   1.419   4.579
  112OSM   C17F11622   3.917   1.629   4.596
  112OSM   H17F11623   4.023   1.626   4.563
  112OSM   H17G11624   3.917   1.712   4.670
  112OSM   C18F11625   3.831   1.681   4.479
  112OSM   H18F11626   3.741   1.734   4.518
  112OSM   H18G11627   3.812   1.599   4.407
  112OSM   H18H11628   3.880   1.760   4.418
  113OSM      N11629   0.649   1.891   6.855
  113OSM    C1511630   0.558   1.963   6.768
  113OSM   H15A11631   0.585   2.065   6.745
  113OSM   H15B11632   0.456   1.972   6.803
  113OSM   H15C11633   0.541   1.911   6.675
  113OSM    C1411634   0.649   1.947   6.993
  113OSM   H14A11635   0.645   2.054   6.980
  113OSM   H14B11636   0.736   1.919   7.051
  113OSM   H14C11637   0.555   1.930   7.043
  113OSM    C1311638   0.623   1.751   6.859
  113OSM   H13A11639   0.628   1.708   6.760
  113OSM   H13B11640   0.526   1.718   6.892
  113OSM   H13C11641   0.688   1.695   6.925
  113OSM    C1211642   0.796   1.906   6.798
  113OSM   H12A11643   0.865   1.871   6.873
  113OSM   H12B11644   0.814   2.011   6.779
  113OSM    C1111645   0.829   1.836   6.658
  113OSM   H11A11646   0.928   1.882   6.638
  113OSM   H11B11647   0.753   1.860   6.581
  113OSM      P11648   0.965   1.611   6.683
  113OSM    O1311649   1.072   1.702   6.737
  113OSM    O1411650   0.936   1.489   6.759
  113OSM    O1111651   1.010   1.576   6.529
  113OSM    O1211652   0.831   1.691   6.666
  113OSM    C1S11653   0.923   1.506   6.448
  113OSM    H1S11654   0.880   1.414   6.492
  113OSM    H1T11655   0.981   1.472   6.360
  113OSM     NF11656   0.718   1.508   6.299
  113OSM    HNF11657   0.715   1.516   6.200
  113OSM    C2S11658   0.811   1.594   6.376
  113OSM    H2S11659   0.758   1.652   6.455
  113OSM    C3S11660   0.880   1.708   6.299
  113OSM    H3S11661   0.924   1.666   6.206
  113OSM     O311662   0.985   1.768   6.367
  113OSM    HO311663   1.002   1.728   6.452
  113OSM    C4S11664   0.781   1.802   6.244
  113OSM    H4S11665   0.737   1.764   6.151
  113OSM    C5S11666   0.749   1.925   6.293
  113OSM    H5S11667   0.795   1.965   6.385
  113OSM    C6S11668   0.663   2.035   6.220
  113OSM    H6S11669   0.703   2.137   6.240
  113OSM    H6T11670   0.561   2.023   6.263
  113OSM    C7S11671   0.650   2.032   6.075
  113OSM    H7S11672   0.585   1.951   6.036
  113OSM    H7T11673   0.751   2.016   6.032
  113OSM    C8S11674   0.592   2.164   6.018
  113OSM    H8S11675   0.634   2.249   6.076
  113OSM    H8T11676   0.483   2.168   6.041
  113OSM    C9S11677   0.612   2.182   5.869
  113OSM    H9S11678   0.551   2.103   5.819
  113OSM    H9T11679   0.719   2.155   5.853
  113OSM   C10S11680   0.569   2.316   5.801
  113OSM   H10S11681   0.632   2.398   5.843
  113OSM   H10T11682   0.462   2.345   5.811
  113OSM   C11S11683   0.587   2.306   5.648
  113OSM   H11S11684   0.522   2.226   5.609
  113OSM   H11T11685   0.694   2.277   5.637
  113OSM   C12S11686   0.548   2.433   5.575
  113OSM   H12S11687   0.619   2.515   5.598
  113OSM   H12T11688   0.449   2.475   5.599
  113OSM   C13S11689   0.544   2.413   5.419
  113OSM   H13S11690   0.644   2.380   5.384
  113OSM   H13T11691   0.512   2.504   5.363
  113OSM   C14S11692   0.441   2.312   5.364
  113OSM   H14S11693   0.352   2.314   5.430
  113OSM   H14T11694   0.470   2.205   5.369
  113OSM   C15S11695   0.374   2.342   5.230
  113OSM   H15S11696   0.318   2.438   5.235
  113OSM   H15T11697   0.318   2.252   5.196
  113OSM   C16S11698   0.483   2.362   5.129
  113OSM   H16S11699   0.561   2.283   5.125
  113OSM   H16T11700   0.535   2.459   5.146
  113OSM   C17S11701   0.428   2.372   4.987
  113OSM   H17S11702   0.341   2.441   4.985
  113OSM   H17T11703   0.404   2.268   4.957
  113OSM   C18S11704   0.533   2.440   4.893
  113OSM   H18S11705   0.494   2.415   4.792
  113OSM   H18T11706   0.633   2.394   4.907
  113OSM   H18U11707   0.529   2.551   4.900
  113OSM    C1F11708   0.625   1.426   6.356
  113OSM     OF11709   0.611   1.412   6.473
  113OSM    C2F11710   0.540   1.349   6.256
  113OSM    H2F11711   0.553   1.245   6.294
  113OSM    H2G11712   0.575   1.364   6.151
  113OSM    C3F11713   0.392   1.387   6.287
  113OSM    H3F11714   0.362   1.352   6.388
  113OSM    H3G11715   0.322   1.320   6.232
  113OSM    C4F11716   0.354   1.535   6.257
  113OSM    H4F11717   0.427   1.586   6.190
  113OSM    H4G11718   0.351   1.596   6.349
  113OSM    C5F11719   0.211   1.554   6.206
  113OSM    H5F11720   0.180   1.660   6.208
  113OSM    H5G11721   0.147   1.497   6.277
  113OSM    C6F11722   0.177   1.497   6.064
  113OSM    H6F11723   0.070   1.515   6.040
  113OSM    H6G11724   0.196   1.388   6.075
  113OSM    C7F11725   0.254   1.557   5.951
  113OSM    H7F11726   0.359   1.573   5.983
  113OSM    H7G11727   0.217   1.661   5.940
  113OSM    C8F11728   0.239   1.478   5.816
  113OSM    H8F11729   0.140   1.430   5.807
  113OSM    H8G11730   0.312   1.395   5.818
  113OSM    C9F11731   0.279   1.565   5.697
  113OSM    H9F11732   0.275   1.672   5.722
  113OSM   C10F11733   0.325   1.520   5.578
  113OSM   H10F11734   0.346   1.585   5.491
  113OSM   C11F11735   0.337   1.367   5.531
  113OSM   H11F11736   0.300   1.298   5.610
  113OSM   H11G11737   0.446   1.360   5.515
  113OSM   C12F11738   0.234   1.340   5.423
  113OSM   H12F11739   0.133   1.358   5.465
  113OSM   H12G11740   0.256   1.233   5.407
  113OSM   C13F11741   0.254   1.413   5.297
  113OSM   H13F11742   0.363   1.400   5.278
  113OSM   H13G11743   0.209   1.515   5.294
  113OSM   C14F11744   0.182   1.339   5.184
  113OSM   H14F11745   0.074   1.336   5.210
  113OSM   H14G11746   0.221   1.236   5.173
  113OSM   C15F11747   0.223   1.406   5.053
  113OSM   H15F11748   0.331   1.415   5.031
  113OSM   H15G11749   0.185   1.510   5.055
  113OSM   C16F11750   0.161   1.323   4.931
  113OSM   H16F11751   0.061   1.281   4.956
  113OSM   H16G11752   0.226   1.234   4.928
  113OSM   C17F11753   0.165   1.401   4.805
  113OSM   H17F11754   0.271   1.412   4.772
  113OSM   H17G11755   0.127   1.503   4.823
  113OSM   C18F11756   0.077   1.342   4.696
  113OSM   H18F11757   0.071   1.400   4.602
  113OSM   H18G11758   6.885   1.328   4.731
  113OSM   H18H11759   0.111   1.242   4.662
  114OSM      N11760   0.079   0.199   6.646
  114OSM    C1511761   0.156   0.287   6.554
  114OSM   H15A11762   0.228   0.350   6.605
  114OSM   H15B11763   0.098   0.338   6.478
  114OSM   H15C11764   0.208   0.220   6.487
  114OSM    C1411765   6.897   0.119   6.563
  114OSM   H14A11766   6.849   0.040   6.619
  114OSM   H14B11767   0.031   0.070   6.478
  114OSM   H14C11768   6.821   0.177   6.513
  114OSM    C1311769   0.170   0.106   6.724
  114OSM   H13A11770   0.247   0.167   6.770
  114OSM   H13B11771   0.221   0.033   6.664
  114OSM   H13C11772   0.108   0.067   6.803
  114OSM    C1211773   6.902   0.274   6.747
  114OSM   H12A11774   0.053   0.336   6.809
  114OSM   H12B11775   6.858   0.202   6.814
  114OSM    C1111776   6.788   0.363   6.690
  114OSM   H11A11777   6.839   0.437   6.624
  114OSM   H11B11778   6.755   0.422   6.779
  114OSM      P11779   6.566   0.386   6.560
  114OSM    O1311780   6.475   0.289   6.489
  114OSM    O1411781   6.498   0.466   6.665
  114OSM    O1111782   6.644   0.486   6.457
  114OSM    O1211783   6.677   0.298   6.626
  114OSM    C1S11784   6.750   0.435   6.379
  114OSM    H1S11785   6.766   0.325   6.375
  114OSM    H1T11786   6.846   0.477   6.417
  114OSM     NF11787   6.798   0.398   6.142
  114OSM    HNF11788   6.864   0.459   6.099
  114OSM    C2S11789   6.717   0.471   6.232
  114OSM    H2S11790   6.614   0.433   6.217
  114OSM    C3S11791   6.728   0.629   6.217
  114OSM    H3S11792   6.829   0.666   6.245
  114OSM     O311793   6.643   0.696   6.311
  114OSM    HO311794   6.598   0.627   6.361
  114OSM    C4S11795   6.682   0.687   6.080
  114OSM    H4S11796   6.591   0.633   6.051
  114OSM    C5S11797   6.744   0.780   6.000
  114OSM    H5S11798   6.843   0.817   6.031
  114OSM    C6S11799   6.706   0.817   5.862
  114OSM    H6S11800   6.715   0.927   5.852
  114OSM    H6T11801   6.598   0.812   5.834
  114OSM    C7S11802   6.797   0.753   5.751
  114OSM    H7S11803   6.808   0.647   5.784
  114OSM    H7T11804   6.899   0.797   5.758
  114OSM    C8S11805   6.730   0.775   5.615
  114OSM    H8S11806   6.732   0.883   5.592
  114OSM    H8T11807   6.625   0.738   5.620
  114OSM    C9S11808   6.812   0.699   5.499
  114OSM    H9S11809   6.814   0.592   5.529
  114OSM    H9T11810   6.912   0.748   5.495
  114OSM   C10S11811   6.746   0.701   5.362
  114OSM   H10S11812   6.727   0.804   5.326
  114OSM   H10T11813   6.650   0.645   5.362
  114OSM   C11S11814   6.826   0.628   5.253
  114OSM   H11S11815   6.816   0.518   5.265
  114OSM   H11T11816   0.022   0.649   5.253
  114OSM   C12S11817   6.780   0.652   5.112
  114OSM   H12S11818   6.801   0.755   5.075
  114OSM   H12T11819   6.670   0.642   5.117
  114OSM   C13S11820   6.825   0.552   5.002
  114OSM   H13S11821   6.784   0.455   5.040
  114OSM   H13T11822   0.024   0.548   4.990
  114OSM   C14S11823   6.768   0.581   4.859
  114OSM   H14S11824   6.787   0.689   4.845
  114OSM   H14T11825   6.659   0.556   4.862
  114OSM   C15S11826   6.853   0.499   4.752
  114OSM   H15S11827   6.822   0.392   4.758
  114OSM   H15T11828   0.047   0.515   4.780
  114OSM   C16S11829   6.835   0.548   4.610
  114OSM   H16S11830   6.911   0.504   4.542
  114OSM   H16T11831   6.871   0.653   4.615
  114OSM   C17S11832   6.696   0.540   4.543
  114OSM   H17S11833   6.681   0.615   4.463
  114OSM   H17T11834   6.614   0.561   4.615
  114OSM   C18S11835   6.668   0.404   4.483
  114OSM   H18S11836   6.678   0.322   4.557
  114OSM   H18T11837   6.730   0.382   4.393
  114OSM   H18U11838   6.568   0.406   4.434
  114OSM    C1F11839   6.780   0.273   6.109
  114OSM     OF11840   6.715   0.181   6.175
  114OSM    C2F11841   6.855   0.222   5.984
  114OSM    H2F11842   6.896   0.123   6.015
  114OSM    H2G11843   0.026   0.292   5.960
  114OSM    C3F11844   6.756   0.200   5.866
  114OSM    H3F11845   6.669   0.141   5.905
  114OSM    H3G11846   6.809   0.156   5.779
  114OSM    C4F11847   6.702   0.332   5.828
  114OSM    H4F11848   6.781   0.407   5.806
  114OSM    H4G11849   6.641   0.374   5.911
  114OSM    C5F11850   6.613   0.337   5.706
  114OSM    H5F11851   6.671   0.285   5.627
  114OSM    H5G11852   6.603   0.444   5.677
  114OSM    C6F11853   6.478   0.272   5.717
  114OSM    H6F11854   6.493   0.178   5.774
  114OSM    H6G11855   6.439   0.243   5.617
  114OSM    C7F11856   6.371   0.357   5.789
  114OSM    H7F11857   6.426   0.394   5.878
  114OSM    H7G11858   6.293   0.286   5.825
  114OSM    C8F11859   6.304   0.467   5.703
  114OSM    H8F11860   6.257   0.424   5.612
  114OSM    H8G11861   6.379   0.537   5.658
  114OSM    C9F11862   6.204   0.548   5.782
  114OSM    H9F11863   6.219   0.571   5.888
  114OSM   C10F11864   6.079   0.581   5.739
  114OSM   H10F11865   6.012   0.635   5.808
  114OSM   C11F11866   6.016   0.554   5.600
  114OSM   H11F11867   6.082   0.554   5.511
  114OSM   H11G11868   5.953   0.644   5.581
  114OSM   C12F11869   5.936   0.423   5.594
  114OSM   H12F11870   5.841   0.421   5.652
  114OSM   H12G11871   6.001   0.342   5.634
  114OSM   C13F11872   5.896   0.392   5.454
  114OSM   H13F11873   5.844   0.294   5.446
  114OSM   H13G11874   5.969   0.397   5.370
  114OSM   C14F11875   5.779   0.490   5.404
  114OSM   H14F11876   5.819   0.593   5.405
  114OSM   H14G11877   5.685   0.486   5.463
  114OSM   C15F11878   5.737   0.457   5.260
  114OSM   H15F11879   5.646   0.515   5.233
  114OSM   H15G11880   5.709   0.350   5.258
  114OSM   C16F11881   5.847   0.492   5.157
  114OSM   H16F11882   5.935   0.424   5.161
  114OSM   H16G11883   5.887   0.595   5.167
  114OSM   C17F11884   5.793   0.484   5.017
  114OSM   H17F11885   5.700   0.545   5.022
  114OSM   H17G11886   5.768   0.378   4.991
  114OSM   C18F11887   5.874   0.548   4.899
  114OSM   H18F11888   5.855   0.655   4.879
  114OSM   H18G11889   5.842   0.491   4.809
  114OSM   H18H11890   5.984   0.538   4.912
  115OSM      N11891   0.185   3.338   6.842
  115OSM    C1511892   0.093   3.244   6.908
  115OSM   H15A11893   0.032   3.196   6.833
  115OSM   H15B11894   0.026   3.290   6.978
  115OSM   H15C11895   0.145   3.159   6.948
  115OSM    C1411896   0.272   3.402   6.941
  115OSM   H14A11897   0.340   3.329   6.982
  115OSM   H14B11898   0.223   3.449   7.026
  115OSM   H14C11899   0.336   3.480   6.903
  115OSM    C1311900   0.271   3.259   6.746
  115OSM   H13A11901   0.214   3.197   6.678
  115OSM   H13B11902   0.340   3.188   6.790
  115OSM   H13C11903   0.324   3.338   6.694
  115OSM    C1211904   0.104   3.441   6.768
  115OSM   H12A11905   0.175   3.512   6.727
  115OSM   H12B11906   0.036   3.494   6.833
  115OSM    C1111907   0.023   3.387   6.641
  115OSM   H11A11908   0.105   3.361   6.571
  115OSM   H11B11909   6.882   3.474   6.597
  115OSM      P11910   6.704   3.291   6.712
  115OSM    O1311911   6.661   3.170   6.785
  115OSM    O1411912   6.691   3.423   6.775
  115OSM    O1111913   6.638   3.278   6.576
  115OSM    O1211914   6.859   3.278   6.669
  115OSM    C1S11915   6.694   3.262   6.444
  115OSM    H1S11916   6.688   3.153   6.421
  115OSM    H1T11917   6.798   3.301   6.441
  115OSM     NF11918   6.666   3.281   6.197
  115OSM    HNF11919   6.724   3.341   6.143
  115OSM    C2S11920   6.620   3.329   6.325
  115OSM    H2S11921   6.510   3.310   6.323
  115OSM    C3S11922   6.635   3.479   6.345
  115OSM    H3S11923   6.742   3.505   6.364
  115OSM     O311924   6.578   3.537   6.460
  115OSM    HO311925   6.563   3.461   6.517
  115OSM    C4S11926   6.587   3.547   6.226
  115OSM    H4S11927   6.667   3.572   6.155
  115OSM    C5S11928   6.459   3.583   6.203
  115OSM    H5S11929   6.383   3.562   6.280
  115OSM    C6S11930   6.404   3.654   6.078
  115OSM    H6S11931   6.454   3.753   6.076
  115OSM    H6T11932   6.297   3.683   6.091
  115OSM    C7S11933   6.427   3.584   5.943
  115OSM    H7S11934   6.340   3.516   5.932
  115OSM    H7T11935   6.507   3.508   5.948
  115OSM    C8S11936   6.465   3.675   5.821
  115OSM    H8S11937   6.558   3.712   5.868
  115OSM    H8T11938   6.384   3.751   5.812
  115OSM    C9S11939   6.492   3.598   5.692
  115OSM    H9S11940   6.482   3.672   5.610
  115OSM    H9T11941   6.419   3.514   5.690
  115OSM   C10S11942   6.630   3.544   5.702
  115OSM   H10S11943   6.635   3.473   5.787
  115OSM   H10T11944   6.704   3.625   5.714
  115OSM   C11S11945   6.666   3.455   5.574
  115OSM   H11S11946   6.583   3.386   5.545
  115OSM   H11T11947   6.759   3.400   5.599
  115OSM   C12S11948   6.686   3.536   5.446
  115OSM   H12S11949   6.771   3.605   5.463
  115OSM   H12T11950   6.601   3.607   5.431
  115OSM   C13S11951   6.684   3.449   5.324
  115OSM   H13S11952   6.583   3.413   5.295
  115OSM   H13T11953   6.751   3.364   5.348
  115OSM   C14S11954   6.723   3.524   5.195
  115OSM   H14S11955   6.711   3.456   5.107
  115OSM   H14T11956   6.814   3.586   5.206
  115OSM   C15S11957   6.618   3.635   5.151
  115OSM   H15S11958   6.612   3.705   5.237
  115OSM   H15T11959   6.517   3.591   5.139
  115OSM   C16S11960   6.670   3.717   5.035
  115OSM   H16S11961   6.779   3.734   5.051
  115OSM   H16T11962   6.609   3.809   5.025
  115OSM   C17S11963   6.660   3.629   4.907
  115OSM   H17S11964   6.560   3.581   4.912
  115OSM   H17T11965   6.734   3.546   4.897
  115OSM   C18S11966   6.666   3.720   4.787
  115OSM   H18S11967   6.612   3.816   4.799
  115OSM   H18T11968   6.632   3.667   4.695
  115OSM   H18U11969   6.771   3.755   4.776
  115OSM    C1F11970   6.621   3.168   6.140
  115OSM     OF11971   6.545   3.100   6.207
  115OSM    C2F11972   6.679   3.127   6.008
  115OSM    H2F11973   6.769   3.067   6.031
  115OSM    H2G11974   6.704   3.221   5.954
  115OSM    C3F11975   6.577   3.037   5.930
  115OSM    H3F11976   6.474   3.080   5.935
  115OSM    H3G11977   6.561   2.939   5.980
  115OSM    C4F11978   6.601   3.009   5.785
  115OSM    H4F11979   6.613   3.107   5.735
  115OSM    H4G11980   6.507   2.960   5.751
  115OSM    C5F11981   6.734   2.930   5.741
  115OSM    H5F11982   6.762   2.836   5.794
  115OSM    H5G11983   6.819   3.000   5.756
  115OSM    C6F11984   6.737   2.889   5.594
  115OSM    H6F11985   6.667   2.807   5.566
  115OSM    H6G11986   6.833   2.845   5.560
  115OSM    C7F11987   6.710   3.010   5.499
  115OSM    H7F11988   6.772   3.096   5.531
  115OSM    H7G11989   6.606   3.043   5.522
  115OSM    C8F11990   6.722   2.987   5.347
  115OSM    H8F11991   6.679   3.076   5.296
  115OSM    H8G11992   6.648   2.908   5.319
  115OSM    C9F11993   6.860   2.946   5.295
  115OSM    H9F11994   0.034   2.961   5.362
  115OSM   C10F11995   6.874   2.890   5.172
  115OSM   H10F11996   0.066   2.876   5.140
  115OSM   C11F11997   6.768   2.854   5.070
  115OSM   H11F11998   6.677   2.825   5.127
  115OSM   H11G11999   6.815   2.770   5.015
  115OSM   C12F12000   6.747   2.974   4.968
  115OSM   H12F12001   6.715   3.061   5.030
  115OSM   H12G12002   6.669   2.940   4.896
  115OSM   C13F12003   6.871   3.011   4.889
  115OSM   H13F12004   6.910   2.926   4.829
  115OSM   H13G12005   0.045   3.029   4.956
  115OSM   C14F12006   6.857   3.137   4.797
  115OSM   H14F12007   6.893   3.220   4.862
  115OSM   H14G12008   6.748   3.143   4.774
  115OSM   C15F12009   0.030   3.137   4.664
  115OSM   H15F12010   0.005   3.219   4.594
  115OSM   H15G12011   6.912   3.043   4.614
  115OSM   C16F12012   0.179   3.134   4.692
  115OSM   H16F12013   0.211   3.065   4.773
  115OSM   H16G12014   0.207   3.232   4.737
  115OSM   C17F12015   0.261   3.113   4.569
  115OSM   H17F12016   0.366   3.134   4.599
  115OSM   H17G12017   0.233   3.187   4.492
  115OSM   C18F12018   0.238   2.973   4.506
  115OSM   H18F12019   0.308   2.953   4.422
  115OSM   H18G12020   0.134   2.969   4.467
  115OSM   H18H12021   0.249   2.886   4.574
  116OSM      N12022   1.829   2.069   6.802
  116OSM    C1512023   1.742   2.186   6.846
  116OSM   H15A12024   1.752   2.272   6.781
  116OSM   H15B12025   1.762   2.211   6.949
  116OSM   H15C12026   1.638   2.155   6.842
  116OSM    C1412027   1.973   2.111   6.813
  116OSM   H14A12028   2.001   2.130   6.916
  116OSM   H14B12029   2.004   2.198   6.757
  116OSM   H14C12030   2.034   2.033   6.769
  116OSM    C1312031   1.802   1.961   6.894
  116OSM   H13A12032   1.831   1.985   6.995
  116OSM   H13B12033   1.866   1.877   6.872
  116OSM   H13C12034   1.701   1.923   6.888
  116OSM    C1212035   1.807   2.030   6.664
  116OSM   H12A12036   1.852   1.933   6.650
  116OSM   H12B12037   1.854   2.103   6.599
  116OSM    C1112038   1.660   2.000   6.617
  116OSM   H11A12039   1.653   1.970   6.510
  116OSM   H11B12040   1.607   2.098   6.613
  116OSM      P12041   1.608   1.749   6.652
  116OSM    O1312042   1.745   1.713   6.634
  116OSM    O1412043   1.530   1.671   6.747
  116OSM    O1112044   1.538   1.743   6.508
  116OSM    O1212045   1.601   1.900   6.697
  116OSM    C1S12046   1.421   1.814   6.476
  116OSM    H1S12047   1.438   1.924   6.487
  116OSM    H1T12048   1.336   1.791   6.544
  116OSM     NF12049   1.245   1.874   6.323
  116OSM    HNF12050   1.152   1.839   6.331
  116OSM    C2S12051   1.354   1.785   6.344
  116OSM    H2S12052   1.428   1.813   6.267
  116OSM    C3S12053   1.334   1.632   6.319
  116OSM    H3S12054   1.289   1.592   6.412
  116OSM     O312055   1.462   1.559   6.302
  116OSM    HO312056   1.526   1.624   6.330
  116OSM    C4S12057   1.249   1.612   6.197
  116OSM    H4S12058   1.148   1.584   6.231
  116OSM    C5S12059   1.284   1.614   6.069
  116OSM    H5S12060   1.389   1.632   6.042
  116OSM    C6S12061   1.192   1.578   5.951
  116OSM    H6S12062   1.186   1.664   5.881
  116OSM    H6T12063   1.088   1.562   5.985
  116OSM    C7S12064   1.255   1.456   5.875
  116OSM    H7S12065   1.255   1.368   5.944
  116OSM    H7T12066   1.362   1.483   5.864
  116OSM    C8S12067   1.172   1.418   5.759
  116OSM    H8S12068   1.070   1.379   5.782
  116OSM    H8T12069   1.234   1.332   5.727
  116OSM    C9S12070   1.166   1.526   5.655
  116OSM    H9S12071   1.268   1.564   5.635
  116OSM    H9T12072   1.105   1.613   5.685
  116OSM   C10S12073   1.106   1.464   5.528
  116OSM   H10S12074   1.001   1.449   5.559
  116OSM   H10T12075   1.141   1.359   5.516
  116OSM   C11S12076   1.116   1.528   5.390
  116OSM   H11S12077   1.215   1.506   5.347
  116OSM   H11T12078   1.097   1.638   5.397
  116OSM   C12S12079   1.020   1.488   5.280
  116OSM   H12S12080   0.917   1.512   5.314
  116OSM   H12T12081   1.017   1.378   5.287
  116OSM   C13S12082   1.048   1.545   5.137
  116OSM   H13S12083   1.158   1.538   5.125
  116OSM   H13T12084   1.014   1.650   5.145
  116OSM   C14S12085   0.967   1.467   5.035
  116OSM   H14S12086   0.859   1.462   5.059
  116OSM   H14T12087   1.005   1.363   5.030
  116OSM   C15S12088   0.982   1.522   4.895
  116OSM   H15S12089   1.090   1.525   4.870
  116OSM   H15T12090   0.954   1.628   4.909
  116OSM   C16S12091   0.918   1.451   4.776
  116OSM   H16S12092   0.808   1.445   4.787
  116OSM   H16T12093   0.957   1.348   4.757
  116OSM   C17S12094   0.952   1.529   4.649
  116OSM   H17S12095   1.062   1.517   4.632
  116OSM   H17T12096   0.930   1.638   4.658
  116OSM   C18S12097   0.871   1.478   4.532
  116OSM   H18S12098   0.762   1.486   4.553
  116OSM   H18T12099   0.888   1.374   4.497
  116OSM   H18U12100   0.892   1.545   4.446
  116OSM    C1F12101   1.260   2.005   6.321
  116OSM     OF12102   1.369   2.064   6.332
  116OSM    C2F12103   1.136   2.084   6.296
  116OSM    H2F12104   1.069   2.086   6.385
  116OSM    H2G12105   1.075   2.051   6.208
  116OSM    C3F12106   1.165   2.236   6.255
  116OSM    H3F12107   1.244   2.274   6.323
  116OSM    H3G12108   1.068   2.287   6.271
  116OSM    C4F12109   1.234   2.258   6.122
  116OSM    H4F12110   1.329   2.201   6.113
  116OSM    H4G12111   1.255   2.367   6.120
  116OSM    C5F12112   1.137   2.220   6.007
  116OSM    H5F12113   1.034   2.242   6.040
  116OSM    H5G12114   1.141   2.110   5.989
  116OSM    C6F12115   1.156   2.300   5.872
  116OSM    H6F12116   1.169   2.408   5.897
  116OSM    H6G12117   1.072   2.285   5.800
  116OSM    C7F12118   1.289   2.268   5.809
  116OSM    H7F12119   1.275   2.172   5.755
  116OSM    H7G12120   1.356   2.251   5.896
  116OSM    C8F12121   1.357   2.361   5.710
  116OSM    H8F12122   1.361   2.464   5.753
  116OSM    H8G12123   1.280   2.380   5.632
  116OSM    C9F12124   1.494   2.329   5.664
  116OSM    H9F12125   1.566   2.315   5.745
  116OSM   C10F12126   1.530   2.307   5.537
  116OSM   H10F12127   1.632   2.274   5.513
  116OSM   C11F12128   1.435   2.314   5.421
  116OSM   H11F12129   1.393   2.416   5.411
  116OSM   H11G12130   1.352   2.246   5.452
  116OSM   C12F12131   1.484   2.281   5.284
  116OSM   H12F12132   1.532   2.182   5.279
  116OSM   H12G12133   1.566   2.354   5.266
  116OSM   C13F12134   1.380   2.302   5.176
  116OSM   H13F12135   1.323   2.394   5.202
  116OSM   H13G12136   1.310   2.216   5.182
  116OSM   C14F12137   1.457   2.308   5.047
  116OSM   H14F12138   1.497   2.208   5.018
  116OSM   H14G12139   1.535   2.386   5.052
  116OSM   C15F12140   1.361   2.332   4.929
  116OSM   H15F12141   1.312   2.428   4.957
  116OSM   H15G12142   1.274   2.262   4.927
  116OSM   C16F12143   1.433   2.329   4.790
  116OSM   H16F12144   1.498   2.240   4.777
  116OSM   H16G12145   1.498   2.417   4.773
  116OSM   C17F12146   1.323   2.319   4.678
  116OSM   H17F12147   1.247   2.400   4.685
  116OSM   H17G12148   1.269   2.223   4.677
  116OSM   C18F12149   1.399   2.340   4.545
  116OSM   H18F12150   1.433   2.446   4.536
  116OSM   H18G12151   1.339   2.313   4.456
  116OSM   H18H12152   1.488   2.274   4.552
  117OSM      N12153   0.104   4.768   6.777
  117OSM    C1512154   0.234   4.826   6.823
  117OSM   H15A12155   0.317   4.768   6.785
  117OSM   H15B12156   0.243   4.833   6.930
  117OSM   H15C12157   0.248   4.925   6.782
  117OSM    C1412158   6.902   4.848   6.832
  117OSM   H14A12159   0.013   4.854   6.937
  117OSM   H14B12160   6.807   4.806   6.804
  117OSM   H14C12161   6.910   4.952   6.802
  117OSM    C1312162   0.097   4.786   6.633
  117OSM   H13A12163   0.003   4.765   6.584
  117OSM   H13B12164   0.160   4.711   6.587
  117OSM   H13C12165   0.129   4.884   6.599
  117OSM    C1212166   0.088   4.619   6.827
  117OSM   H12A12167   6.895   4.592   6.823
  117OSM   H12B12168   0.116   4.619   6.931
  117OSM    C1112169   0.158   4.501   6.748
  117OSM   H11A12170   0.127   4.517   6.643
  117OSM   H11B12171   0.118   4.403   6.781
  117OSM      P12172   0.404   4.515   6.644
  117OSM    O1312173   0.543   4.521   6.695
  117OSM    O1412174   0.375   4.396   6.558
  117OSM    O1112175   0.367   4.649   6.568
  117OSM    O1212176   0.300   4.515   6.758
  117OSM    C1S12177   0.458   4.704   6.475
  117OSM    H1S12178   0.564   4.689   6.505
  117OSM    H1T12179   0.448   4.814   6.485
  117OSM     NF12180   0.489   4.760   6.242
  117OSM    HNF12181   0.460   4.852   6.218
  117OSM    C2S12182   0.410   4.679   6.331
  117OSM    H2S12183   0.426   4.572   6.303
  117OSM    C3S12184   0.251   4.699   6.312
  117OSM    H3S12185   0.225   4.802   6.347
  117OSM     O312186   0.167   4.617   6.390
  117OSM    HO312187   0.236   4.580   6.446
  117OSM    C4S12188   0.211   4.699   6.169
  117OSM    H4S12189   0.194   4.796   6.120
  117OSM    C5S12190   0.185   4.582   6.100
  117OSM    H5S12191   0.179   4.485   6.151
  117OSM    C6S12192   0.122   4.578   5.962
  117OSM    H6S12193   0.077   4.481   5.933
  117OSM    H6T12194   0.194   4.589   5.877
  117OSM    C7S12195   0.016   4.674   5.936
  117OSM    H7S12196   0.042   4.779   5.961
  117OSM    H7T12197   6.843   4.661   6.006
  117OSM    C8S12198   6.880   4.662   5.789
  117OSM    H8S12199   6.782   4.713   5.798
  117OSM    H8T12200   6.856   4.557   5.762
  117OSM    C9S12201   0.050   4.749   5.688
  117OSM    H9S12202   0.158   4.723   5.691
  117OSM    H9T12203   0.043   4.856   5.717
  117OSM   C10S12204   6.908   4.743   5.547
  117OSM   H10S12205   6.797   4.753   5.546
  117OSM   H10T12206   0.011   4.638   5.512
  117OSM   C11S12207   0.083   4.824   5.447
  117OSM   H11S12208   0.187   4.787   5.457
  117OSM   H11T12209   0.078   4.934   5.466
  117OSM   C12S12210   0.039   4.806   5.303
  117OSM   H12S12211   6.842   4.824   5.306
  117OSM   H12T12212   0.059   4.700   5.277
  117OSM   C13S12213   0.092   4.909   5.205
  117OSM   H13S12214   0.201   4.912   5.225
  117OSM   H13T12215   0.057   5.008   5.243
  117OSM   C14S12216   0.069   4.880   5.061
  117OSM   H14S12217   6.873   4.864   5.041
  117OSM   H14T12218   0.125   4.786   5.039
  117OSM   C15S12219   0.131   4.982   4.960
  117OSM   H15S12220   0.152   4.941   4.859
  117OSM   H15T12221   0.227   5.023   4.996
  117OSM   C16S12222   0.043   5.105   4.944
  117OSM   H16S12223   0.050   5.165   5.037
  117OSM   H16T12224   6.860   5.053   4.923
  117OSM   C17S12225   0.078   5.211   4.830
  117OSM   H17S12226   0.010   5.298   4.826
  117OSM   H17T12227   0.079   5.157   4.733
  117OSM   C18S12228   0.212   5.273   4.848
  117OSM   H18S12229   0.288   5.193   4.859
  117OSM   H18T12230   0.207   5.327   4.945
  117OSM   H18U12231   0.233   5.348   4.769
  117OSM    C1F12232   0.613   4.729   6.213
  117OSM     OF12233   0.672   4.640   6.271
  117OSM    C2F12234   0.676   4.802   6.099
  117OSM    H2F12235   0.594   4.826   6.028
  117OSM    H2G12236   0.756   4.738   6.057
  117OSM    C3F12237   0.743   4.939   6.134
  117OSM    H3F12238   0.818   4.930   6.216
  117OSM    H3G12239   0.669   5.019   6.153
  117OSM    C4F12240   0.824   5.002   6.018
  117OSM    H4F12241   0.884   4.910   5.999
  117OSM    H4G12242   0.883   5.090   6.052
  117OSM    C5F12243   0.740   5.023   5.887
  117OSM    H5F12244   0.681   5.117   5.894
  117OSM    H5G12245   0.671   4.936   5.872
  117OSM    C6F12246   0.821   5.046   5.752
  117OSM    H6F12247   0.745   5.059   5.672
  117OSM    H6G12248   0.889   4.960   5.734
  117OSM    C7F12249   0.924   5.156   5.766
  117OSM    H7F12250   0.999   5.139   5.846
  117OSM    H7G12251   0.864   5.239   5.810
  117OSM    C8F12252   0.994   5.178   5.628
  117OSM    H8F12253   0.918   5.190   5.548
  117OSM    H8G12254   1.060   5.094   5.599
  117OSM    C9F12255   1.073   5.310   5.647
  117OSM    H9F12256   1.008   5.395   5.675
  117OSM   C10F12257   1.211   5.328   5.655
  117OSM   H10F12258   1.249   5.431   5.660
  117OSM   C11F12259   1.309   5.222   5.620
  117OSM   H11F12260   1.262   5.121   5.625
  117OSM   H11G12261   1.383   5.213   5.703
  117OSM   C12F12262   1.378   5.237   5.477
  117OSM   H12F12263   1.467   5.171   5.475
  117OSM   H12G12264   1.407   5.342   5.454
  117OSM   C13F12265   1.278   5.191   5.367
  117OSM   H13F12266   1.185   5.252   5.373
  117OSM   H13G12267   1.247   5.085   5.382
  117OSM   C14F12268   1.319   5.196   5.228
  117OSM   H14F12269   1.419   5.147   5.216
  117OSM   H14G12270   1.342   5.297   5.187
  117OSM   C15F12271   1.215   5.134   5.140
  117OSM   H15F12272   1.120   5.185   5.167
  117OSM   H15G12273   1.223   5.025   5.161
  117OSM   C16F12274   1.255   5.156   4.989
  117OSM   H16F12275   1.197   5.072   4.947
  117OSM   H16G12276   1.362   5.133   4.968
  117OSM   C17F12277   1.212   5.289   4.921
  117OSM   H17F12278   1.283   5.367   4.955
  117OSM   H17G12279   1.105   5.298   4.951
  117OSM   C18F12280   1.224   5.276   4.765
  117OSM   H18F12281   1.211   5.376   4.719
  117OSM   H18G12282   1.155   5.198   4.725
  117OSM   H18H12283   1.322   5.229   4.743
  118OSM      N12284   6.823   3.871   6.529
  118OSM    C1512285   6.689   3.919   6.564
  118OSM   H15A12286   6.682   4.013   6.511
  118OSM   H15B12287   6.682   3.930   6.672
  118OSM   H15C12288   6.604   3.858   6.535
  118OSM    C1412289   0.008   3.977   6.584
  118OSM   H14A12290   0.102   3.974   6.531
  118OSM   H14B12291   0.025   3.948   6.687
  118OSM   H14C12292   6.869   4.071   6.567
  118OSM    C1312293   6.857   3.745   6.594
  118OSM   H13A12294   6.784   3.666   6.584
  118OSM   H13B12295   6.897   3.759   6.693
  118OSM   H13C12296   0.037   3.713   6.547
  118OSM    C1212297   6.825   3.846   6.381
  118OSM   H12A12298   6.793   3.930   6.322
  118OSM   H12B12299   6.762   3.762   6.354
  118OSM    C1112300   0.049   3.812   6.319
  118OSM   H11A12301   0.126   3.890   6.339
  118OSM   H11B12302   0.032   3.818   6.210
  118OSM      P12303   0.205   3.587   6.346
  118OSM    O1312304   0.272   3.566   6.476
  118OSM    O1412305   0.165   3.469   6.262
  118OSM    O1112306   0.291   3.684   6.263
  118OSM    O1212307   0.078   3.677   6.360
  118OSM    C1S12308   0.430   3.662   6.229
  118OSM    H1S12309   0.457   3.555   6.245
  118OSM    H1T12310   0.494   3.719   6.299
  118OSM     NF12311   0.611   3.654   6.057
  118OSM    HNF12312   0.687   3.717   6.071
  118OSM    C2S12313   0.474   3.700   6.080
  118OSM    H2S12314   0.399   3.646   6.018
  118OSM    C3S12315   0.446   3.849   6.051
  118OSM    H3S12316   0.528   3.909   6.096
  118OSM     O312317   0.318   3.902   6.096
  118OSM    HO312318   0.286   3.836   6.158
  118OSM    C4S12319   0.433   3.864   5.901
  118OSM    H4S12320   0.337   3.828   5.861
  118OSM    C5S12321   0.529   3.909   5.822
  118OSM    H5S12322   0.627   3.940   5.863
  118OSM    C6S12323   0.502   3.910   5.668
  118OSM    H6S12324   0.506   4.014   5.628
  118OSM    H6T12325   0.406   3.862   5.638
  118OSM    C7S12326   0.610   3.836   5.590
  118OSM    H7S12327   0.625   3.733   5.630
  118OSM    H7T12328   0.707   3.888   5.596
  118OSM    C8S12329   0.575   3.816   5.446
  118OSM    H8S12330   0.465   3.796   5.444
  118OSM    H8T12331   0.637   3.732   5.410
  118OSM    C9S12332   0.608   3.937   5.364
  118OSM    H9S12333   0.718   3.943   5.350
  118OSM    H9T12334   0.595   4.025   5.431
  118OSM   C10S12335   0.535   3.956   5.230
  118OSM   H10S12336   0.425   3.954   5.247
  118OSM   H10T12337   0.562   3.868   5.168
  118OSM   C11S12338   0.573   4.073   5.138
  118OSM   H11S12339   0.681   4.054   5.121
  118OSM   H11T12340   0.567   4.164   5.201
  118OSM   C12S12341   0.481   4.080   5.016
  118OSM   H12S12342   0.376   4.074   5.050
  118OSM   H12T12343   0.500   3.989   4.955
  118OSM   C13S12344   0.498   4.208   4.936
  118OSM   H13S12345   0.607   4.222   4.918
  118OSM   H13T12346   0.464   4.298   4.991
  118OSM   C14S12347   0.439   4.200   4.793
  118OSM   H14S12348   0.338   4.155   4.802
  118OSM   H14T12349   0.495   4.123   4.735
  118OSM   C15S12350   0.445   4.339   4.729
  118OSM   H15S12351   0.556   4.342   4.731
  118OSM   H15T12352   0.398   4.418   4.791
  118OSM   C16S12353   0.400   4.347   4.587
  118OSM   H16S12354   0.447   4.263   4.531
  118OSM   H16T12355   0.448   4.432   4.534
  118OSM   C17S12356   0.248   4.347   4.565
  118OSM   H17S12357   0.213   4.255   4.617
  118OSM   H17T12358   0.239   4.348   4.454
  118OSM   C18S12359   0.177   4.465   4.622
  118OSM   H18S12360   0.071   4.450   4.591
  118OSM   H18T12361   0.215   4.557   4.573
  118OSM   H18U12362   0.186   4.472   4.732
  118OSM    C1F12363   0.624   3.531   6.022
  118OSM     OF12364   0.528   3.451   6.030
  118OSM    C2F12365   0.756   3.483   5.975
  118OSM    H2F12366   0.833   3.473   6.054
  118OSM    H2G12367   0.793   3.564   5.908
  118OSM    C3F12368   0.758   3.351   5.899
  118OSM    H3F12369   0.701   3.280   5.963
  118OSM    H3G12370   0.858   3.303   5.900
  118OSM    C4F12371   0.706   3.367   5.753
  118OSM    H4F12372   0.597   3.389   5.746
  118OSM    H4G12373   0.712   3.265   5.710
  118OSM    C5F12374   0.798   3.451   5.670
  118OSM    H5F12375   0.901   3.430   5.705
  118OSM    H5G12376   0.762   3.556   5.679
  118OSM    C6F12377   0.795   3.415   5.514
  118OSM    H6F12378   0.694   3.442   5.475
  118OSM    H6G12379   0.816   3.308   5.496
  118OSM    C7F12380   0.908   3.482   5.435
  118OSM    H7F12381   1.003   3.468   5.492
  118OSM    H7G12382   0.896   3.592   5.428
  118OSM    C8F12383   0.935   3.423   5.293
  118OSM    H8F12384   0.979   3.322   5.305
  118OSM    H8G12385   1.018   3.478   5.243
  118OSM    C9F12386   0.810   3.413   5.216
  118OSM    H9F12387   0.744   3.328   5.241
  118OSM   C10F12388   0.762   3.511   5.145
  118OSM   H10F12389   0.681   3.501   5.071
  118OSM   C11F12390   0.826   3.647   5.136
  118OSM   H11F12391   0.937   3.639   5.128
  118OSM   H11G12392   0.817   3.708   5.228
  118OSM   C12F12393   0.782   3.719   5.007
  118OSM   H12F12394   0.818   3.824   4.999
  118OSM   H12G12395   0.673   3.735   5.020
  118OSM   C13F12396   0.817   3.653   4.878
  118OSM   H13F12397   0.776   3.550   4.873
  118OSM   H13G12398   0.926   3.631   4.873
  118OSM   C14F12399   0.777   3.724   4.750
  118OSM   H14F12400   0.673   3.762   4.748
  118OSM   H14G12401   0.784   3.650   4.668
  118OSM   C15F12402   0.875   3.846   4.725
  118OSM   H15F12403   0.976   3.803   4.707
  118OSM   H15G12404   0.871   3.906   4.818
  118OSM   C16F12405   0.837   3.947   4.613
  118OSM   H16F12406   0.899   4.039   4.623
  118OSM   H16G12407   0.735   3.987   4.634
  118OSM   C17F12408   0.845   3.888   4.474
  118OSM   H17F12409   0.790   3.791   4.469
  118OSM   H17G12410   0.953   3.869   4.458
  118OSM   C18F12411   0.809   3.972   4.348
  118OSM   H18F12412   0.716   4.030   4.362
  118OSM   H18G12413   0.803   3.911   4.256
  118OSM   H18H12414   0.883   4.051   4.323
  119OSM      N12415   3.139   1.543   6.682
  119OSM    C1512416   3.026   1.629   6.669
  119OSM   H15A12417   3.059   1.729   6.692
  119OSM   H15B12418   2.953   1.609   6.745
  119OSM   H15C12419   2.984   1.623   6.569
  119OSM    C1412420   3.239   1.561   6.567
  119OSM   H14A12421   3.272   1.664   6.555
  119OSM   H14B12422   3.189   1.529   6.477
  119OSM   H14C12423   3.327   1.501   6.587
  119OSM    C1312424   3.202   1.575   6.814
  119OSM   H13A12425   3.225   1.681   6.809
  119OSM   H13B12426   3.297   1.522   6.814
  119OSM   H13C12427   3.144   1.559   6.904
  119OSM    C1212428   3.103   1.398   6.671
  119OSM   H12A12429   3.190   1.336   6.654
  119OSM   H12B12430   3.054   1.389   6.575
  119OSM    C1112431   3.006   1.330   6.771
  119OSM   H11A12432   3.041   1.323   6.876
  119OSM   H11B12433   2.986   1.226   6.737
  119OSM      P12434   2.760   1.345   6.688
  119OSM    O1312435   2.736   1.201   6.712
  119OSM    O1412436   2.645   1.439   6.720
  119OSM    O1112437   2.818   1.374   6.541
  119OSM    O1212438   2.879   1.391   6.774
  119OSM    C1S12439   2.826   1.265   6.450
  119OSM    H1S12440   2.754   1.183   6.466
  119OSM    H1T12441   2.924   1.214   6.463
  119OSM     NF12442   2.830   1.183   6.219
  119OSM    HNF12443   2.924   1.158   6.196
  119OSM    C2S12444   2.821   1.299   6.301
  119OSM    H2S12445   2.724   1.345   6.273
  119OSM    C3S12446   2.941   1.398   6.263
  119OSM    H3S12447   3.033   1.342   6.290
  119OSM     O312448   2.958   1.520   6.336
  119OSM    HO312449   2.915   1.497   6.419
  119OSM    C4S12450   2.930   1.447   6.118
  119OSM    H4S12451   2.853   1.523   6.099
  119OSM    C5S12452   3.026   1.415   6.028
  119OSM    H5S12453   3.115   1.354   6.050
  119OSM    C6S12454   3.053   1.481   5.896
  119OSM    H6S12455   3.112   1.575   5.903
  119OSM    H6T12456   2.955   1.505   5.850
  119OSM    C7S12457   3.123   1.378   5.805
  119OSM    H7S12458   3.064   1.285   5.792
  119OSM    H7T12459   3.223   1.352   5.845
  119OSM    C8S12460   3.158   1.440   5.671
  119OSM    H8S12461   3.227   1.367   5.622
  119OSM    H8T12462   3.213   1.536   5.681
  119OSM    C9S12463   3.032   1.459   5.585
  119OSM    H9S12464   2.966   1.539   5.627
  119OSM    H9T12465   2.980   1.361   5.578
  119OSM   C10S12466   3.060   1.508   5.439
  119OSM   H10S12467   2.972   1.491   5.373
  119OSM   H10T12468   3.137   1.435   5.406
  119OSM   C11S12469   3.106   1.652   5.425
  119OSM   H11S12470   3.199   1.665   5.484
  119OSM   H11T12471   3.035   1.713   5.485
  119OSM   C12S12472   3.119   1.712   5.283
  119OSM   H12S12473   3.161   1.814   5.297
  119OSM   H12T12474   3.019   1.706   5.234
  119OSM   C13S12475   3.217   1.632   5.201
  119OSM   H13S12476   3.180   1.530   5.178
  119OSM   H13T12477   3.311   1.612   5.257
  119OSM   C14S12478   3.242   1.707   5.073
  119OSM   H14S12479   3.280   1.807   5.101
  119OSM   H14T12480   3.144   1.733   5.027
  119OSM   C15S12481   3.319   1.630   4.967
  119OSM   H15S12482   3.280   1.538   4.919
  119OSM   H15T12483   3.418   1.598   5.007
  119OSM   C16S12484   3.337   1.732   4.852
  119OSM   H16S12485   3.427   1.795   4.866
  119OSM   H16T12486   3.255   1.805   4.839
  119OSM   C17S12487   3.347   1.676   4.713
  119OSM   H17S12488   3.341   1.754   4.635
  119OSM   H17T12489   3.253   1.616   4.707
  119OSM   C18S12490   3.464   1.574   4.692
  119OSM   H18S12491   3.555   1.638   4.689
  119OSM   H18T12492   3.447   1.532   4.591
  119OSM   H18U12493   3.462   1.494   4.769
  119OSM    C1F12494   2.731   1.104   6.190
  119OSM     OF12495   2.614   1.139   6.210
  119OSM    C2F12496   2.767   0.969   6.142
  119OSM    H2F12497   2.704   0.899   6.201
  119OSM    H2G12498   2.877   0.955   6.148
  119OSM    C3F12499   2.735   0.971   5.991
  119OSM    H3F12500   2.650   1.032   5.955
  119OSM    H3G12501   2.720   0.863   5.971
  119OSM    C4F12502   2.852   1.007   5.899
  119OSM    H4F12503   2.939   0.941   5.922
  119OSM    H4G12504   2.876   1.114   5.918
  119OSM    C5F12505   2.801   0.998   5.751
  119OSM    H5F12506   2.703   1.051   5.743
  119OSM    H5G12507   2.792   0.892   5.720
  119OSM    C6F12508   2.906   1.064   5.651
  119OSM    H6F12509   3.004   1.020   5.678
  119OSM    H6G12510   2.920   1.173   5.664
  119OSM    C7F12511   2.868   1.020   5.512
  119OSM    H7F12512   2.759   1.034   5.494
  119OSM    H7G12513   2.894   0.913   5.494
  119OSM    C8F12514   2.939   1.099   5.400
  119OSM    H8F12515   3.046   1.066   5.400
  119OSM    H8G12516   2.953   1.207   5.424
  119OSM    C9F12517   2.883   1.064   5.260
  119OSM    H9F12518   2.816   0.978   5.252
  119OSM   C10F12519   2.903   1.125   5.134
  119OSM   H10F12520   2.870   1.075   5.042
  119OSM   C11F12521   2.976   1.260   5.114
  119OSM   H11F12522   3.067   1.246   5.053
  119OSM   H11G12523   3.006   1.317   5.205
  119OSM   C12F12524   2.879   1.349   5.024
  119OSM   H12F12525   2.789   1.375   5.083
  119OSM   H12G12526   2.853   1.308   4.924
  119OSM   C13F12527   2.951   1.479   4.982
  119OSM   H13F12528   3.037   1.439   4.924
  119OSM   H13G12529   2.991   1.527   5.074
  119OSM   C14F12530   2.852   1.577   4.914
  119OSM   H14F12531   2.823   1.655   4.988
  119OSM   H14G12532   2.759   1.527   4.880
  119OSM   C15F12533   2.922   1.656   4.802
  119OSM   H15F12534   2.940   1.604   4.706
  119OSM   H15G12535   3.022   1.690   4.837
  119OSM   C16F12536   2.845   1.787   4.773
  119OSM   H16F12537   2.831   1.837   4.872
  119OSM   H16G12538   2.747   1.755   4.731
  119OSM   C17F12539   2.915   1.878   4.676
  119OSM   H17F12540   3.011   1.919   4.715
  119OSM   H17G12541   2.853   1.967   4.653
  119OSM   C18F12542   2.944   1.820   4.537
  119OSM   H18F12543   3.010   1.730   4.534
  119OSM   H18G12544   2.991   1.894   4.469
  119OSM   H18H12545   2.859   1.781   4.478
  120OSM      N12546   5.972   5.907   6.555
  120OSM    C1512547   5.909   5.763   6.547
  120OSM   H15A12548   5.854   5.746   6.455
  120OSM   H15B12549   5.832   5.762   6.623
  120OSM   H15C12550   5.977   5.685   6.578
  120OSM    C1412551   5.993   5.954   6.695
  120OSM   H14A12552   6.030   6.055   6.695
  120OSM   H14B12553   6.074   5.893   6.734
  120OSM   H14C12554   5.907   5.927   6.755
  120OSM    C1312555   6.110   5.900   6.495
  120OSM   H13A12556   6.166   5.992   6.489
  120OSM   H13B12557   6.092   5.866   6.394
  120OSM   H13C12558   6.168   5.820   6.540
  120OSM    C1212559   5.882   6.007   6.474
  120OSM   H12A12560   5.923   6.106   6.484
  120OSM   H12B12561   5.784   6.008   6.519
  120OSM    C1112562   5.852   5.984   6.327
  120OSM   H11A12563   5.939   5.969   6.259
  120OSM   H11B12564   5.805   6.073   6.279
  120OSM      P12565   5.619   5.867   6.338
  120OSM    O1312566   5.575   5.726   6.330
  120OSM    O1412567   5.605   5.912   6.475
  120OSM    O1112568   5.551   5.959   6.235
  120OSM    O1212569   5.773   5.874   6.310
  120OSM    C1S12570   5.611   5.999   6.111
  120OSM    H1S12571   5.722   6.003   6.100
  120OSM    H1T12572   5.584   6.103   6.084
  120OSM     NF12573   5.647   5.944   5.872
  120OSM    HNF12574   5.618   6.015   5.808
  120OSM    C2S12575   5.563   5.916   5.992
  120OSM    H2S12576   5.583   5.814   6.030
  120OSM    C3S12577   5.416   5.938   5.960
  120OSM    H3S12578   5.414   6.044   5.927
  120OSM     O312579   5.333   5.919   6.080
  120OSM    HO312580   5.396   5.908   6.151
  120OSM    C4S12581   5.359   5.850   5.859
  120OSM    H4S12582   5.370   5.743   5.884
  120OSM    C5S12583   5.289   5.888   5.749
  120OSM    H5S12584   5.269   5.995   5.735
  120OSM    C6S12585   5.236   5.791   5.646
  120OSM    H6S12586   5.289   5.818   5.552
  120OSM    H6T12587   5.125   5.802   5.645
  120OSM    C7S12588   5.276   5.645   5.664
  120OSM    H7S12589   5.230   5.616   5.760
  120OSM    H7T12590   5.385   5.640   5.684
  120OSM    C8S12591   5.238   5.559   5.544
  120OSM    H8S12592   5.178   5.624   5.477
  120OSM    H8T12593   5.170   5.475   5.569
  120OSM    C9S12594   5.369   5.516   5.470
  120OSM    H9S12595   5.398   5.442   5.548
  120OSM    H9T12596   5.454   5.586   5.451
  120OSM   C10S12597   5.336   5.447   5.336
  120OSM   H10S12598   5.426   5.387   5.309
  120OSM   H10T12599   5.320   5.536   5.271
  120OSM   C11S12600   5.210   5.359   5.327
  120OSM   H11S12601   5.114   5.407   5.355
  120OSM   H11T12602   5.232   5.279   5.401
  120OSM   C12S12603   5.197   5.309   5.180
  120OSM   H12S12604   5.286   5.257   5.138
  120OSM   H12T12605   5.176   5.389   5.107
  120OSM   C13S12606   5.071   5.214   5.172
  120OSM   H13S12607   4.979   5.272   5.196
  120OSM   H13T12608   5.084   5.131   5.245
  120OSM   C14S12609   5.048   5.153   5.031
  120OSM   H14S12610   4.986   5.062   5.049
  120OSM   H14T12611   5.138   5.130   4.972
  120OSM   C15S12612   4.962   5.255   4.948
  120OSM   H15S12613   5.026   5.344   4.934
  120OSM   H15T12614   4.866   5.276   5.000
  120OSM   C16S12615   4.928   5.191   4.807
  120OSM   H16S12616   4.828   5.142   4.810
  120OSM   H16T12617   5.005   5.115   4.780
  120OSM   C17S12618   4.924   5.295   4.692
  120OSM   H17S12619   5.023   5.340   4.672
  120OSM   H17T12620   4.851   5.369   4.732
  120OSM   C18S12621   4.858   5.250   4.555
  120OSM   H18S12622   4.854   5.334   4.483
  120OSM   H18T12623   4.755   5.213   4.575
  120OSM   H18U12624   4.909   5.168   4.500
  120OSM    C1F12625   5.778   5.919   5.875
  120OSM     OF12626   5.839   5.865   5.966
  120OSM    C2F12627   5.849   5.972   5.755
  120OSM    H2F12628   5.881   6.078   5.766
  120OSM    H2G12629   5.775   5.977   5.673
  120OSM    C3F12630   5.973   5.902   5.715
  120OSM    H3F12631   6.035   5.877   5.803
  120OSM    H3G12632   6.041   5.956   5.646
  120OSM    C4F12633   5.930   5.763   5.646
  120OSM    H4F12634   5.855   5.791   5.569
  120OSM    H4G12635   5.883   5.705   5.729
  120OSM    C5F12636   6.045   5.678   5.596
  120OSM    H5F12637   6.093   5.622   5.680
  120OSM    H5G12638   6.124   5.748   5.561
  120OSM    C6F12639   6.013   5.573   5.490
  120OSM    H6F12640   5.941   5.620   5.419
  120OSM    H6G12641   5.960   5.487   5.536
  120OSM    C7F12642   6.149   5.532   5.425
  120OSM    H7F12643   6.155   5.427   5.391
  120OSM    H7G12644   6.234   5.547   5.496
  120OSM    C8F12645   6.178   5.607   5.290
  120OSM    H8F12646   6.177   5.715   5.312
  120OSM    H8G12647   6.094   5.599   5.218
  120OSM    C9F12648   6.310   5.555   5.227
  120OSM    H9F12649   6.400   5.595   5.277
  120OSM   C10F12650   6.326   5.475   5.118
  120OSM   H10F12651   6.426   5.436   5.095
  120OSM   C11F12652   6.207   5.414   5.050
  120OSM   H11F12653   6.126   5.388   5.121
  120OSM   H11G12654   6.246   5.315   5.018
  120OSM   C12F12655   6.165   5.498   4.925
  120OSM   H12F12656   6.252   5.516   4.859
  120OSM   H12G12657   6.119   5.593   4.958
  120OSM   C13F12658   6.065   5.421   4.829
  120OSM   H13F12659   5.975   5.397   4.889
  120OSM   H13G12660   6.107   5.326   4.789
  120OSM   C14F12661   6.017   5.517   4.715
  120OSM   H14F12662   6.106   5.557   4.661
  120OSM   H14G12663   5.952   5.599   4.754
  120OSM   C15F12664   5.927   5.434   4.611
  120OSM   H15F12665   5.854   5.377   4.672
  120OSM   H15G12666   5.992   5.360   4.559
  120OSM   C16F12667   5.854   5.506   4.504
  120OSM   H16F12668   5.790   5.577   4.560
  120OSM   H16G12669   5.787   5.437   4.448
  120OSM   C17F12670   5.946   5.589   4.410
  120OSM   H17F12671   6.011   5.519   4.354
  120OSM   H17G12672   6.005   5.653   4.479
  120OSM   C18F12673   5.864   5.669   4.308
  120OSM   H18F12674   5.800   5.747   4.356
  120OSM   H18G12675   5.807   5.616   4.229
  120OSM   H18H12676   5.934   5.726   4.243
  121OSM      N12677   6.477   1.401   7.105
  121OSM    C1512678   6.511   1.396   7.251
  121OSM   H15A12679   6.617   1.382   7.266
  121OSM   H15B12680   6.452   1.320   7.301
  121OSM   H15C12681   6.487   1.489   7.299
  121OSM    C1412682   6.341   1.438   7.088
  121OSM   H14A12683   6.272   1.366   7.131
  121OSM   H14B12684   6.323   1.432   6.982
  121OSM   H14C12685   6.314   1.533   7.131
  121OSM    C1312686   6.562   1.511   7.047
  121OSM   H13A12687   6.542   1.597   7.109
  121OSM   H13B12688   6.551   1.514   6.939
  121OSM   H13C12689   6.668   1.492   7.055
  121OSM    C1212690   6.493   1.269   7.023
  121OSM   H12A12691   6.443   1.191   7.079
  121OSM   H12B12692   6.597   1.240   7.018
  121OSM    C1112693   6.444   1.258   6.882
  121OSM   H11A12694   6.342   1.300   6.875
  121OSM   H11B12695   6.438   1.155   6.841
  121OSM      P12696   6.665   1.292   6.738
  121OSM    O1312697   6.760   1.401   6.762
  121OSM    O1412698   6.699   1.162   6.798
  121OSM    O1112699   6.641   1.279   6.584
  121OSM    O1212700   6.523   1.338   6.791
  121OSM    C1S12701   6.606   1.385   6.496
  121OSM    H1S12702   6.633   1.485   6.537
  121OSM    H1T12703   6.495   1.393   6.491
  121OSM     NF12704   6.671   1.502   6.295
  121OSM    HNF12705   6.605   1.511   6.221
  121OSM    C2S12706   6.675   1.373   6.358
  121OSM    H2S12707   6.779   1.338   6.372
  121OSM    C3S12708   6.604   1.256   6.275
  121OSM    H3S12709   6.507   1.292   6.234
  121OSM     O312710   6.570   1.141   6.357
  121OSM    HO312711   6.581   1.172   6.447
  121OSM    C4S12712   6.691   1.216   6.157
  121OSM    H4S12713   6.760   1.134   6.178
  121OSM    C5S12714   6.690   1.274   6.037
  121OSM    H5S12715   6.622   1.360   6.030
  121OSM    C6S12716   6.776   1.241   5.914
  121OSM    H6S12717   6.836   1.153   5.946
  121OSM    H6T12718   6.828   1.338   5.896
  121OSM    C7S12719   6.695   1.224   5.783
  121OSM    H7S12720   6.619   1.305   5.769
  121OSM    H7T12721   6.633   1.136   5.809
  121OSM    C8S12722   6.777   1.209   5.658
  121OSM    H8S12723   6.844   1.121   5.668
  121OSM    H8T12724   6.842   1.297   5.637
  121OSM    C9S12725   6.698   1.200   5.534
  121OSM    H9S12726   6.626   1.284   5.520
  121OSM    H9T12727   6.642   1.104   5.543
  121OSM   C10S12728   6.773   1.181   5.396
  121OSM   H10S12729   6.833   1.088   5.406
  121OSM   H10T12730   6.845   1.265   5.391
  121OSM   C11S12731   6.674   1.165   5.282
  121OSM   H11S12732   6.620   1.260   5.261
  121OSM   H11T12733   6.590   1.094   5.296
  121OSM   C12S12734   6.741   1.130   5.144
  121OSM   H12S12735   6.796   1.034   5.138
  121OSM   H12T12736   6.815   1.207   5.113
  121OSM   C13S12737   6.641   1.133   5.027
  121OSM   H13S12738   6.595   1.233   5.013
  121OSM   H13T12739   6.560   1.059   5.047
  121OSM   C14S12740   6.706   1.087   4.900
  121OSM   H14S12741   6.770   0.999   4.924
  121OSM   H14T12742   6.787   1.154   4.866
  121OSM   C15S12743   6.615   1.040   4.783
  121OSM   H15S12744   6.567   1.130   4.739
  121OSM   H15T12745   6.546   0.961   4.819
  121OSM   C16S12746   6.706   0.981   4.678
  121OSM   H16S12747   6.778   0.909   4.723
  121OSM   H16T12748   6.772   1.058   4.634
  121OSM   C17S12749   6.635   0.909   4.563
  121OSM   H17S12750   6.592   0.814   4.600
  121OSM   H17T12751   6.708   0.878   4.485
  121OSM   C18S12752   6.528   0.998   4.495
  121OSM   H18S12753   6.572   1.080   4.434
  121OSM   H18T12754   6.454   1.050   4.560
  121OSM   H18U12755   6.469   0.933   4.426
  121OSM    C1F12756   6.757   1.598   6.335
  121OSM     OF12757   6.851   1.580   6.400
  121OSM    C2F12758   6.731   1.731   6.274
  121OSM    H2F12759   6.759   1.804   6.353
  121OSM    H2G12760   6.622   1.732   6.256
  121OSM    C3F12761   6.805   1.752   6.138
  121OSM    H3F12762   6.912   1.724   6.147
  121OSM    H3G12763   6.807   1.861   6.118
  121OSM    C4F12764   6.739   1.681   6.019
  121OSM    H4F12765   6.629   1.671   6.031
  121OSM    H4G12766   6.774   1.575   6.022
  121OSM    C5F12767   6.769   1.741   5.882
  121OSM    H5F12768   6.873   1.779   5.881
  121OSM    H5G12769   6.717   1.837   5.865
  121OSM    C6F12770   6.739   1.642   5.762
  121OSM    H6F12771   6.634   1.607   5.757
  121OSM    H6G12772   6.802   1.555   5.790
  121OSM    C7F12773   6.799   1.686   5.627
  121OSM    H7F12774   6.901   1.725   5.647
  121OSM    H7G12775   6.751   1.780   5.594
  121OSM    C8F12776   6.805   1.589   5.511
  121OSM    H8F12777   6.831   1.488   5.548
  121OSM    H8G12778   6.893   1.615   5.449
  121OSM    C9F12779   6.678   1.582   5.434
  121OSM    H9F12780   6.586   1.595   5.493
  121OSM   C10F12781   6.660   1.569   5.298
  121OSM   H10F12782   6.555   1.569   5.266
  121OSM   C11F12783   6.761   1.565   5.190
  121OSM   H11F12784   6.761   1.465   5.142
  121OSM   H11G12785   6.861   1.561   5.238
  121OSM   C12F12786   6.755   1.679   5.086
  121OSM   H12F12787   6.786   1.777   5.130
  121OSM   H12G12788   6.651   1.694   5.051
  121OSM   C13F12789   6.847   1.667   4.957
  121OSM   H13F12790   6.823   1.572   4.905
  121OSM   H13G12791   0.044   1.672   4.976
  121OSM   C14F12792   6.799   1.783   4.858
  121OSM   H14F12793   6.841   1.876   4.902
  121OSM   H14G12794   6.688   1.791   4.852
  121OSM   C15F12795   6.840   1.773   4.711
  121OSM   H15F12796   6.789   1.848   4.647
  121OSM   H15G12797   6.820   1.671   4.671
  121OSM   C16F12798   0.071   1.811   4.695
  121OSM   H16F12799   0.125   1.723   4.737
  121OSM   H16G12800   0.090   1.899   4.759
  121OSM   C17F12801   0.113   1.831   4.556
  121OSM   H17F12802   0.218   1.868   4.548
  121OSM   H17G12803   0.060   1.916   4.508
  121OSM   C18F12804   0.103   1.706   4.466
  121OSM   H18F12805   0.149   1.726   4.367
  121OSM   H18G12806   6.912   1.685   4.432
  121OSM   H18H12807   0.151   1.621   4.520
  122OSM      N12808   5.857   4.484   6.746
  122OSM    C1512809   5.769   4.542   6.854
  122OSM   H15A12810   5.830   4.585   6.933
  122OSM   H15B12811   5.705   4.469   6.899
  122OSM   H15C12812   5.704   4.622   6.821
  122OSM    C1412813   5.921   4.367   6.802
  122OSM   H14A12814   5.990   4.386   6.883
  122OSM   H14B12815   5.974   4.320   6.720
  122OSM   H14C12816   5.849   4.299   6.844
  122OSM    C1312817   5.776   4.451   6.631
  122OSM   H13A12818   5.709   4.377   6.673
  122OSM   H13B12819   5.827   4.409   6.546
  122OSM   H13C12820   5.719   4.535   6.596
  122OSM    C1212821   5.963   4.592   6.707
  122OSM   H12A12822   5.913   4.678   6.666
  122OSM   H12B12823   6.016   4.558   6.619
  122OSM    C1112824   6.071   4.629   6.812
  122OSM   H11A12825   6.021   4.647   6.909
  122OSM   H11B12826   6.125   4.718   6.774
  122OSM      P12827   6.282   4.500   6.738
  122OSM    O1312828   6.386   4.597   6.778
  122OSM    O1412829   6.324   4.354   6.750
  122OSM    O1112830   6.226   4.526   6.593
  122OSM    O1212831   6.161   4.517   6.827
  122OSM    C1S12832   6.296   4.476   6.479
  122OSM    H1S12833   6.333   4.373   6.496
  122OSM    H1T12834   6.386   4.532   6.449
  122OSM     NF12835   6.239   4.401   6.247
  122OSM    HNF12836   6.237   4.452   6.161
  122OSM    C2S12837   6.195   4.474   6.360
  122OSM    H2S12838   6.113   4.413   6.404
  122OSM    C3S12839   6.137   4.617   6.324
  122OSM    H3S12840   6.218   4.681   6.283
  122OSM     O312841   6.078   4.682   6.434
  122OSM    HO312842   6.123   4.632   6.503
  122OSM    C4S12843   6.023   4.601   6.224
  122OSM    H4S12844   5.945   4.534   6.264
  122OSM    C5S12845   6.007   4.663   6.107
  122OSM    H5S12846   6.097   4.719   6.077
  122OSM    C6S12847   5.893   4.649   6.008
  122OSM    H6S12848   5.812   4.725   6.015
  122OSM    H6T12849   5.848   4.547   6.007
  122OSM    C7S12850   5.939   4.664   5.853
  122OSM    H7S12851   6.015   4.586   5.833
  122OSM    H7T12852   5.987   4.764   5.847
  122OSM    C8S12853   5.826   4.639   5.760
  122OSM    H8S12854   5.736   4.698   5.788
  122OSM    H8T12855   5.801   4.531   5.773
  122OSM    C9S12856   5.859   4.671   5.612
  122OSM    H9S12857   5.942   4.604   5.584
  122OSM    H9T12858   5.894   4.776   5.608
  122OSM   C10S12859   5.746   4.642   5.511
  122OSM   H10S12860   5.664   4.716   5.510
  122OSM   H10T12861   5.698   4.543   5.525
  122OSM   C11S12862   5.803   4.636   5.363
  122OSM   H11S12863   5.898   4.580   5.365
  122OSM   H11T12864   5.834   4.741   5.347
  122OSM   C12S12865   5.706   4.591   5.256
  122OSM   H12S12866   5.617   4.656   5.271
  122OSM   H12T12867   5.677   4.484   5.271
  122OSM   C13S12868   5.758   4.599   5.114
  122OSM   H13S12869   5.843   4.530   5.096
  122OSM   H13T12870   5.801   4.701   5.110
  122OSM   C14S12871   5.650   4.598   5.006
  122OSM   H14S12872   5.577   4.677   5.035
  122OSM   H14T12873   5.601   4.499   5.011
  122OSM   C15S12874   5.698   4.622   4.864
  122OSM   H15S12875   5.779   4.699   4.871
  122OSM   H15T12876   5.608   4.658   4.809
  122OSM   C16S12877   5.756   4.510   4.782
  122OSM   H16S12878   5.718   4.408   4.805
  122OSM   H16T12879   5.865   4.510   4.805
  122OSM   C17S12880   5.752   4.526   4.624
  122OSM   H17S12881   5.803   4.623   4.605
  122OSM   H17T12882   5.645   4.538   4.599
  122OSM   C18S12883   5.814   4.412   4.540
  122OSM   H18S12884   5.793   4.435   4.433
  122OSM   H18T12885   5.753   4.323   4.569
  122OSM   H18U12886   5.919   4.388   4.568
  122OSM    C1F12887   6.286   4.274   6.226
  122OSM     OF12888   6.292   4.190   6.311
  122OSM    C2F12889   6.318   4.232   6.085
  122OSM    H2F12890   6.419   4.268   6.056
  122OSM    H2G12891   6.248   4.275   6.010
  122OSM    C3F12892   6.340   4.080   6.067
  122OSM    H3F12893   6.240   4.031   6.061
  122OSM    H3G12894   6.400   4.044   6.154
  122OSM    C4F12895   6.420   4.052   5.941
  122OSM    H4F12896   6.476   3.957   5.954
  122OSM    H4G12897   6.489   4.137   5.924
  122OSM    C5F12898   6.320   4.044   5.825
  122OSM    H5F12899   6.259   4.137   5.828
  122OSM    H5G12900   6.246   3.963   5.845
  122OSM    C6F12901   6.393   4.055   5.689
  122OSM    H6F12902   6.450   3.961   5.675
  122OSM    H6G12903   6.466   4.139   5.690
  122OSM    C7F12904   6.302   4.082   5.569
  122OSM    H7F12905   6.286   4.192   5.566
  122OSM    H7G12906   6.204   4.034   5.591
  122OSM    C8F12907   6.349   4.030   5.433
  122OSM    H8F12908   6.260   4.061   5.375
  122OSM    H8G12909   6.362   3.920   5.442
  122OSM    C9F12910   6.469   4.101   5.387
  122OSM    H9F12911   6.533   4.120   5.474
  122OSM   C10F12912   6.514   4.103   5.257
  122OSM   H10F12913   6.610   4.154   5.242
  122OSM   C11F12914   6.428   4.057   5.141
  122OSM   H11F12915   6.336   4.120   5.138
  122OSM   H11G12916   6.394   3.952   5.147
  122OSM   C12F12917   6.487   4.085   5.003
  122OSM   H12F12918   6.575   4.017   5.006
  122OSM   H12G12919   6.511   4.192   4.988
  122OSM   C13F12920   6.399   4.053   4.882
  122OSM   H13F12921   6.309   4.118   4.885
  122OSM   H13G12922   6.366   3.947   4.882
  122OSM   C14F12923   6.476   4.080   4.745
  122OSM   H14F12924   6.571   4.022   4.750
  122OSM   H14G12925   6.501   4.188   4.733
  122OSM   C15F12926   6.403   4.040   4.617
  122OSM   H15F12927   6.360   3.940   4.641
  122OSM   H15G12928   6.479   4.027   4.537
  122OSM   C16F12929   6.294   4.138   4.585
  122OSM   H16F12930   6.344   4.226   4.539
  122OSM   H16G12931   6.239   4.173   4.675
  122OSM   C17F12932   6.181   4.094   4.490
  122OSM   H17F12933   6.107   4.029   4.542
  122OSM   H17G12934   6.232   4.031   4.414
  122OSM   C18F12935   6.110   4.213   4.422
  122OSM   H18F12936   6.039   4.181   4.344
  122OSM   H18G12937   6.182   4.287   4.381
  122OSM   H18H12938   6.048   4.267   4.497
  123OSM      N12939   2.670   2.422   2.248
  123OSM    C1512940   2.740   2.341   2.346
  123OSM   H15A12941   2.740   2.234   2.330
  123OSM   H15B12942   2.701   2.352   2.446
  123OSM   H15C12943   2.842   2.377   2.354
  123OSM    C1412944   2.697   2.568   2.266
  123OSM   H14A12945   2.674   2.585   2.371
  123OSM   H14B12946   2.640   2.623   2.193
  123OSM   H14C12947   2.798   2.595   2.239
  123OSM    C1312948   2.718   2.373   2.114
  123OSM   H13A12949   2.825   2.375   2.113
  123OSM   H13B12950   2.697   2.436   2.028
  123OSM   H13C12951   2.688   2.271   2.097
  123OSM    C1212952   2.521   2.399   2.251
  123OSM   H12A12953   2.482   2.410   2.351
  123OSM   H12B12954   2.505   2.293   2.239
  123OSM    C1112955   2.422   2.479   2.162
  123OSM   H11A12956   2.332   2.417   2.144
  123OSM   H11B12957   2.470   2.474   2.062
  123OSM      P12958   2.392   2.738   2.125
  123OSM    O1312959   2.520   2.804   2.140
  123OSM    O1412960   2.352   2.708   1.989
  123OSM    O1112961   2.281   2.838   2.171
  123OSM    O1212962   2.382   2.611   2.216
  123OSM    C1S12963   2.147   2.793   2.202
  123OSM    H1S12964   2.116   2.690   2.175
  123OSM    H1T12965   2.076   2.860   2.149
  123OSM     NF12966   1.989   2.763   2.404
  123OSM    HNF12967   1.909   2.821   2.420
  123OSM    C2S12968   2.116   2.824   2.356
  123OSM    H2S12969   2.192   2.764   2.411
  123OSM    C3S12970   2.135   2.971   2.405
  123OSM    H3S12971   2.053   3.032   2.363
  123OSM     O312972   2.259   3.037   2.370
  123OSM    HO312973   2.323   2.971   2.343
  123OSM    C4S12974   2.114   2.999   2.546
  123OSM    H4S12975   2.178   2.943   2.616
  123OSM    C5S12976   2.019   3.070   2.601
  123OSM    H5S12977   1.940   3.112   2.537
  123OSM    C6S12978   1.988   3.095   2.741
  123OSM    H6S12979   1.881   3.123   2.755
  123OSM    H6T12980   2.037   3.192   2.766
  123OSM    C7S12981   2.022   2.993   2.850
  123OSM    H7S12982   2.124   2.951   2.839
  123OSM    H7T12983   1.948   2.910   2.851
  123OSM    C8S12984   2.008   3.057   2.989
  123OSM    H8S12985   1.911   3.110   2.998
  123OSM    H8T12986   2.080   3.138   3.013
  123OSM    C9S12987   2.029   2.953   3.099
  123OSM    H9S12988   2.140   2.943   3.105
  123OSM    H9T12989   1.992   2.853   3.065
  123OSM   C10S12990   1.973   3.007   3.235
  123OSM   H10S12991   1.862   3.011   3.229
  123OSM   H10T12992   1.996   3.114   3.252
  123OSM   C11S12993   2.027   2.921   3.352
  123OSM   H11S12994   2.137   2.932   3.349
  123OSM   H11T12995   1.992   2.817   3.336
  123OSM   C12S12996   1.981   2.976   3.491
  123OSM   H12S12997   1.871   2.986   3.485
  123OSM   H12T12998   2.019   3.075   3.524
  123OSM   C13S12999   2.012   2.869   3.598
  123OSM   H13S13000   2.121   2.849   3.594
  123OSM   H13T13001   1.972   2.778   3.549
  123OSM   C14S13002   1.958   2.901   3.737
  123OSM   H14S13003   1.849   2.922   3.735
  123OSM   H14T13004   2.014   2.993   3.763
  123OSM   C15S13005   1.977   2.784   3.824
  123OSM   H15S13006   2.070   2.727   3.804
  123OSM   H15T13007   1.895   2.717   3.789
  123OSM   C16S13008   1.962   2.818   3.971
  123OSM   H16S13009   1.854   2.845   3.976
  123OSM   H16T13010   2.028   2.907   3.985
  123OSM   C17S13011   2.010   2.708   4.067
  123OSM   H17S13012   2.119   2.688   4.061
  123OSM   H17T13013   1.972   2.610   4.031
  123OSM   C18S13014   1.981   2.738   4.207
  123OSM   H18S13015   1.973   2.646   4.268
  123OSM   H18T13016   1.881   2.785   4.215
  123OSM   H18U13017   2.053   2.792   4.272
  123OSM    C1F13018   1.964   2.629   2.388
  123OSM     OF13019   2.057   2.557   2.364
  123OSM    C2F13020   1.825   2.574   2.412
  123OSM    H2F13021   1.768   2.569   2.316
  123OSM    H2G13022   1.769   2.647   2.474
  123OSM    C3F13023   1.827   2.430   2.477
  123OSM    H3F13024   1.900   2.369   2.419
  123OSM    H3G13025   1.723   2.391   2.477
  123OSM    C4F13026   1.882   2.441   2.623
  123OSM    H4F13027   1.979   2.494   2.632
  123OSM    H4G13028   1.890   2.337   2.662
  123OSM    C5F13029   1.804   2.521   2.726
  123OSM    H5F13030   1.706   2.473   2.748
  123OSM    H5G13031   1.793   2.628   2.698
  123OSM    C6F13032   1.875   2.524   2.868
  123OSM    H6F13033   1.983   2.550   2.861
  123OSM    H6G13034   1.883   2.425   2.919
  123OSM    C7F13035   1.794   2.616   2.966
  123OSM    H7F13036   1.689   2.600   2.932
  123OSM    H7G13037   1.818   2.722   2.943
  123OSM    C8F13038   1.808   2.590   3.117
  123OSM    H8F13039   1.742   2.666   3.164
  123OSM    H8G13040   1.914   2.614   3.137
  123OSM    C9F13041   1.769   2.454   3.163
  123OSM    H9F13042   1.660   2.439   3.150
  123OSM   C10F13043   1.849   2.355   3.199
  123OSM   H10F13044   1.810   2.265   3.249
  123OSM   C11F13045   1.999   2.360   3.200
  123OSM   H11F13046   2.040   2.436   3.130
  123OSM   H11G13047   2.027   2.264   3.153
  123OSM   C12F13048   2.066   2.377   3.333
  123OSM   H12F13049   2.007   2.454   3.388
  123OSM   H12G13050   2.170   2.413   3.322
  123OSM   C13F13051   2.064   2.246   3.419
  123OSM   H13F13052   2.121   2.162   3.375
  123OSM   H13G13053   1.957   2.216   3.431
  123OSM   C14F13054   2.122   2.260   3.559
  123OSM   H14F13055   2.223   2.305   3.551
  123OSM   H14G13056   2.125   2.162   3.612
  123OSM   C15F13057   2.038   2.358   3.646
  123OSM   H15F13058   1.936   2.314   3.635
  123OSM   H15G13059   2.044   2.463   3.610
  123OSM   C16F13060   2.084   2.335   3.791
  123OSM   H16F13061   2.094   2.230   3.825
  123OSM   H16G13062   2.009   2.371   3.865
  123OSM   C17F13063   2.213   2.413   3.830
  123OSM   H17F13064   2.199   2.517   3.793
  123OSM   H17G13065   2.298   2.371   3.771
  123OSM   C18F13066   2.249   2.417   3.979
  123OSM   H18F13067   2.356   2.447   3.990
  123OSM   H18G13068   2.236   2.312   4.012
  123OSM   H18H13069   2.173   2.476   4.034
  124OSM      N13070   2.873   3.356   1.700
  124OSM    C1513071   3.015   3.385   1.703
  124OSM   H15A13072   3.077   3.311   1.751
  124OSM   H15B13073   3.007   3.476   1.762
  124OSM   H15C13074   3.051   3.410   1.604
  124OSM    C1413075   2.788   3.466   1.639
  124OSM   H14A13076   2.787   3.552   1.704
  124OSM   H14B13077   2.683   3.441   1.639
  124OSM   H14C13078   2.823   3.495   1.540
  124OSM    C1313079   2.858   3.227   1.616
  124OSM   H13A13080   2.753   3.202   1.618
  124OSM   H13B13081   2.911   3.148   1.666
  124OSM   H13C13082   2.907   3.256   1.524
  124OSM    C1213083   2.819   3.325   1.838
  124OSM   H12A13084   2.888   3.256   1.884
  124OSM   H12B13085   2.721   3.280   1.837
  124OSM    C1113086   2.798   3.449   1.931
  124OSM   H11A13087   2.890   3.511   1.943
  124OSM   H11B13088   2.782   3.405   2.031
  124OSM      P13089   2.540   3.481   1.908
  124OSM    O1313090   2.462   3.581   1.824
  124OSM    O1413091   2.530   3.339   1.867
  124OSM    O1113092   2.499   3.497   2.058
  124OSM    O1213093   2.687   3.533   1.902
  124OSM    C1S13094   2.583   3.528   2.168
  124OSM    H1S13095   2.681   3.569   2.138
  124OSM    H1T13096   2.599   3.436   2.229
  124OSM     NF13097   2.624   3.629   2.393
  124OSM    HNF13098   2.598   3.575   2.473
  124OSM    C2S13099   2.533   3.636   2.278
  124OSM    H2S13100   2.528   3.738   2.235
  124OSM    C3S13101   2.382   3.597   2.311
  124OSM    H3S13102   2.383   3.491   2.346
  124OSM     O313103   2.294   3.601   2.193
  124OSM    HO313104   2.361   3.600   2.124
  124OSM    C4S13105   2.330   3.674   2.433
  124OSM    H4S13106   2.316   3.608   2.521
  124OSM    C5S13107   2.273   3.792   2.448
  124OSM    H5S13108   2.272   3.866   2.367
  124OSM    C6S13109   2.206   3.847   2.569
  124OSM    H6S13110   2.099   3.866   2.543
  124OSM    H6T13111   2.254   3.945   2.591
  124OSM    C7S13112   2.205   3.775   2.709
  124OSM    H7S13113   2.309   3.748   2.736
  124OSM    H7T13114   2.141   3.686   2.692
  124OSM    C8S13115   2.167   3.862   2.830
  124OSM    H8S13116   2.066   3.904   2.812
  124OSM    H8T13117   2.238   3.942   2.859
  124OSM    C9S13118   2.150   3.759   2.948
  124OSM    H9S13119   2.242   3.703   2.974
  124OSM    H9T13120   2.082   3.679   2.911
  124OSM   C10S13121   2.093   3.817   3.075
  124OSM   H10S13122   1.987   3.844   3.054
  124OSM   H10T13123   2.139   3.917   3.090
  124OSM   C11S13124   2.109   3.719   3.191
  124OSM   H11S13125   2.215   3.687   3.188
  124OSM   H11T13126   2.053   3.624   3.205
  124OSM   C12S13127   2.094   3.790   3.321
  124OSM   H12S13128   1.985   3.811   3.325
  124OSM   H12T13129   2.144   3.889   3.320
  124OSM   C13S13130   2.125   3.711   3.448
  124OSM   H13S13131   2.230   3.677   3.453
  124OSM   H13T13132   2.063   3.619   3.437
  124OSM   C14S13133   2.096   3.803   3.572
  124OSM   H14S13134   1.986   3.820   3.576
  124OSM   H14T13135   2.161   3.893   3.563
  124OSM   C15S13136   2.118   3.731   3.706
  124OSM   H15S13137   2.218   3.683   3.707
  124OSM   H15T13138   2.039   3.653   3.712
  124OSM   C16S13139   2.107   3.822   3.826
  124OSM   H16S13140   2.003   3.855   3.848
  124OSM   H16T13141   2.167   3.915   3.816
  124OSM   C17S13142   2.149   3.737   3.947
  124OSM   H17S13143   2.241   3.682   3.916
  124OSM   H17T13144   2.073   3.659   3.967
  124OSM   C18S13145   2.172   3.816   4.072
  124OSM   H18S13146   2.193   3.749   4.158
  124OSM   H18T13147   2.087   3.884   4.095
  124OSM   H18U13148   2.263   3.878   4.057
  124OSM    C1F13149   2.752   3.679   2.392
  124OSM     OF13150   2.784   3.753   2.297
  124OSM    C2F13151   2.849   3.630   2.493
  124OSM    H2F13152   2.937   3.579   2.450
  124OSM    H2G13153   2.791   3.555   2.551
  124OSM    C3F13154   2.900   3.739   2.594
  124OSM    H3F13155   2.814   3.807   2.611
  124OSM    H3G13156   2.986   3.788   2.544
  124OSM    C4F13157   2.962   3.673   2.722
  124OSM    H4F13158   3.038   3.597   2.693
  124OSM    H4G13159   2.880   3.618   2.773
  124OSM    C5F13160   3.026   3.769   2.818
  124OSM    H5F13161   2.966   3.862   2.831
  124OSM    H5G13162   3.118   3.792   2.761
  124OSM    C6F13163   3.070   3.709   2.952
  124OSM    H6F13164   3.155   3.643   2.924
  124OSM    H6G13165   2.982   3.664   3.003
  124OSM    C7F13166   3.123   3.823   3.044
  124OSM    H7F13167   3.188   3.887   2.982
  124OSM    H7G13168   3.191   3.782   3.121
  124OSM    C8F13169   3.013   3.902   3.110
  124OSM    H8F13170   2.939   3.939   3.036
  124OSM    H8G13171   3.073   3.974   3.170
  124OSM    C9F13172   2.914   3.824   3.203
  124OSM    H9F13173   2.865   3.746   3.143
  124OSM   C10F13174   2.892   3.845   3.330
  124OSM   H10F13175   2.840   3.765   3.384
  124OSM   C11F13176   2.957   3.936   3.426
  124OSM   H11F13177   2.899   4.023   3.462
  124OSM   H11G13178   3.036   3.991   3.371
  124OSM   C12F13179   3.019   3.867   3.541
  124OSM   H12F13180   2.954   3.809   3.610
  124OSM   H12G13181   3.056   3.950   3.605
  124OSM   C13F13182   3.135   3.778   3.503
  124OSM   H13F13183   3.212   3.855   3.483
  124OSM   H13G13184   3.117   3.707   3.419
  124OSM   C14F13185   3.188   3.704   3.627
  124OSM   H14F13186   3.171   3.750   3.727
  124OSM   H14G13187   3.295   3.688   3.604
  124OSM   C15F13188   3.154   3.557   3.636
  124OSM   H15F13189   3.167   3.496   3.544
  124OSM   H15G13190   3.045   3.544   3.652
  124OSM   C16F13191   3.230   3.494   3.752
  124OSM   H16F13192   3.336   3.525   3.746
  124OSM   H16G13193   3.225   3.383   3.749
  124OSM   C17F13194   3.174   3.539   3.891
  124OSM   H17F13195   3.068   3.507   3.887
  124OSM   H17G13196   3.177   3.650   3.903
  124OSM   C18F13197   3.255   3.497   4.011
  124OSM   H18F13198   3.254   3.387   4.020
  124OSM   H18G13199   3.207   3.524   4.108
  124OSM   H18H13200   3.362   3.527   4.010
  125OSM      N13201   4.066   0.500   2.188
  125OSM    C1513202   4.155   0.607   2.130
  125OSM   H15A13203   4.221   0.564   2.057
  125OSM   H15B13204   4.199   0.671   2.205
  125OSM   H15C13205   4.100   0.670   2.062
  125OSM    C1413206   4.137   0.436   2.300
  125OSM   H14A13207   4.238   0.404   2.279
  125OSM   H14B13208   4.088   0.346   2.334
  125OSM   H14C13209   4.145   0.504   2.384
  125OSM    C1313210   3.936   0.565   2.230
  125OSM   H13A13211   3.885   0.620   2.152
  125OSM   H13B13212   3.961   0.642   2.302
  125OSM   H13C13213   3.868   0.488   2.262
  125OSM    C1213214   4.046   0.392   2.086
  125OSM   H12A13215   4.143   0.375   2.042
  125OSM   H12B13216   3.981   0.431   2.008
  125OSM    C1113217   3.977   0.263   2.142
  125OSM   H11A13218   3.946   0.203   2.054
  125OSM   H11B13219   3.879   0.284   2.191
  125OSM      P13220   3.991   0.094   2.341
  125OSM    O1313221   3.861   0.047   2.291
  125OSM    O1413222   4.090   6.911   2.396
  125OSM    O1113223   3.967   0.212   2.449
  125OSM    O1213224   4.060   0.182   2.225
  125OSM    C1S13225   3.848   0.198   2.523
  125OSM    H1S13226   3.805   0.096   2.534
  125OSM    H1T13227   3.764   0.251   2.474
  125OSM     NF13228   3.735   0.224   2.746
  125OSM    HNF13229   3.663   0.290   2.768
  125OSM    C2S13230   3.850   0.265   2.667
  125OSM    H2S13231   3.942   0.226   2.714
  125OSM    C3S13232   3.877   0.419   2.651
  125OSM    H3S13233   3.802   0.464   2.582
  125OSM     O313234   4.001   0.434   2.582
  125OSM    HO313235   4.024   0.345   2.556
  125OSM    C4S13236   3.873   0.479   2.783
  125OSM    H4S13237   3.968   0.462   2.835
  125OSM    C5S13238   3.780   0.554   2.847
  125OSM    H5S13239   3.679   0.575   2.807
  125OSM    C6S13240   3.813   0.624   2.980
  125OSM    H6S13241   3.767   0.725   2.975
  125OSM    H6T13242   3.921   0.621   3.003
  125OSM    C7S13243   3.743   0.556   3.100
  125OSM    H7S13244   3.777   0.451   3.109
  125OSM    H7T13245   3.633   0.562   3.091
  125OSM    C8S13246   3.768   0.633   3.231
  125OSM    H8S13247   3.749   0.742   3.220
  125OSM    H8T13248   3.879   0.638   3.243
  125OSM    C9S13249   3.700   0.566   3.349
  125OSM    H9S13250   3.720   0.459   3.325
  125OSM    H9T13251   3.590   0.578   3.337
  125OSM   C10S13252   3.745   0.611   3.491
  125OSM   H10S13253   3.727   0.720   3.507
  125OSM   H10T13254   3.855   0.598   3.498
  125OSM   C11S13255   3.668   0.533   3.594
  125OSM   H11S13256   3.695   0.426   3.596
  125OSM   H11T13257   3.562   0.535   3.560
  125OSM   C12S13258   3.672   0.595   3.720
  125OSM   H12S13259   3.643   0.702   3.720
  125OSM   H12T13260   3.775   0.578   3.760
  125OSM   C13S13261   3.590   0.519   3.831
  125OSM   H13S13262   3.626   0.414   3.837
  125OSM   H13T13263   3.485   0.516   3.797
  125OSM   C14S13264   3.588   0.583   3.976
  125OSM   H14S13265   3.541   0.684   3.969
  125OSM   H14T13266   3.690   0.608   4.010
  125OSM   C15S13267   3.507   0.499   4.084
  125OSM   H15S13268   3.528   0.553   4.179
  125OSM   H15T13269   3.535   0.392   4.093
  125OSM   C16S13270   3.359   0.509   4.050
  125OSM   H16S13271   3.347   0.449   3.958
  125OSM   H16T13272   3.323   0.611   4.024
  125OSM   C17S13273   3.263   0.443   4.152
  125OSM   H17S13274   3.162   0.437   4.107
  125OSM   H17T13275   3.241   0.500   4.245
  125OSM   C18S13276   3.302   0.300   4.195
  125OSM   H18S13277   3.304   0.232   4.107
  125OSM   H18T13278   3.227   0.251   4.261
  125OSM   H18U13279   3.402   0.293   4.244
  125OSM    C1F13280   3.736   0.098   2.792
  125OSM     OF13281   3.844   0.043   2.784
  125OSM    C2F13282   3.621   0.044   2.865
  125OSM    H2F13283   3.601   6.852   2.831
  125OSM    H2G13284   3.537   0.112   2.842
  125OSM    C3F13285   3.633   0.032   3.018
  125OSM    H3F13286   3.715   6.872   3.034
  125OSM    H3G13287   3.540   6.892   3.052
  125OSM    C4F13288   3.622   0.162   3.087
  125OSM    H4F13289   3.516   0.190   3.073
  125OSM    H4G13290   3.674   0.247   3.037
  125OSM    C5F13291   3.671   0.151   3.235
  125OSM    H5F13292   3.721   0.243   3.271
  125OSM    H5G13293   3.748   0.071   3.238
  125OSM    C6F13294   3.557   0.119   3.330
  125OSM    H6F13295   3.503   0.023   3.315
  125OSM    H6G13296   3.472   0.189   3.314
  125OSM    C7F13297   3.595   0.133   3.477
  125OSM    H7F13298   3.607   0.239   3.508
  125OSM    H7G13299   3.697   0.091   3.491
  125OSM    C8F13300   3.495   0.069   3.573
  125OSM    H8F13301   3.398   0.080   3.520
  125OSM    H8G13302   3.489   0.121   3.671
  125OSM    C9F13303   3.535   6.836   3.592
  125OSM    H9F13304   3.546   6.776   3.500
  125OSM   C10F13305   3.575   6.775   3.705
  125OSM   H10F13306   3.615   6.673   3.700
  125OSM   C11F13307   3.583   6.832   3.845
  125OSM   H11F13308   3.602   0.029   3.840
  125OSM   H11G13309   3.670   6.795   3.903
  125OSM   C12F13310   3.453   6.795   3.921
  125OSM   H12F13311   3.443   6.685   3.915
  125OSM   H12G13312   3.367   6.838   3.865
  125OSM   C13F13313   3.455   6.848   4.067
  125OSM   H13F13314   3.347   6.854   4.094
  125OSM   H13G13315   3.506   0.034   4.072
  125OSM   C14F13316   3.539   6.754   4.167
  125OSM   H14F13317   3.574   6.818   4.251
  125OSM   H14G13318   3.623   6.722   4.102
  125OSM   C15F13319   3.462   6.632   4.204
  125OSM   H15F13320   3.527   6.558   4.254
  125OSM   H15G13321   3.431   6.580   4.111
  125OSM   C16F13322   3.339   6.658   4.278
  125OSM   H16F13323   3.263   6.708   4.214
  125OSM   H16G13324   3.366   6.725   4.363
  125OSM   C17F13325   3.271   6.530   4.336
  125OSM   H17F13326   3.253   6.463   4.250
  125OSM   H17G13327   3.171   6.568   4.363
  125OSM   C18F13328   3.340   6.458   4.455
  125OSM   H18F13329   3.444   6.496   4.460
  125OSM   H18G13330   3.354   6.349   4.443
  125OSM   H18H13331   3.284   6.484   4.547
  126OSM      N13332   2.059   1.458   1.808
  126OSM    C1513333   1.973   1.568   1.756
  126OSM   H15A13334   2.012   1.596   1.659
  126OSM   H15B13335   1.979   1.662   1.809
  126OSM   H15C13336   1.870   1.541   1.739
  126OSM    C1413337   2.034   1.427   1.952
  126OSM   H14A13338   2.105   1.356   1.991
  126OSM   H14B13339   1.930   1.403   1.969
  126OSM   H14C13340   2.062   1.508   2.018
  126OSM    C1313341   2.048   1.336   1.730
  126OSM   H13A13342   2.058   1.347   1.623
  126OSM   H13B13343   1.952   1.296   1.762
  126OSM   H13C13344   2.123   1.264   1.758
  126OSM    C1213345   2.203   1.509   1.801
  126OSM   H12A13346   2.216   1.601   1.857
  126OSM   H12B13347   2.222   1.528   1.696
  126OSM    C1113348   2.320   1.412   1.852
  126OSM   H11A13349   2.415   1.452   1.808
  126OSM   H11B13350   2.308   1.313   1.803
  126OSM      P13351   2.377   1.529   2.077
  126OSM    O1313352   2.490   1.594   2.004
  126OSM    O1413353   2.255   1.608   2.099
  126OSM    O1113354   2.438   1.471   2.213
  126OSM    O1213355   2.336   1.406   1.990
  126OSM    C1S13356   2.576   1.441   2.219
  126OSM    H1S13357   2.642   1.513   2.165
  126OSM    H1T13358   2.591   1.341   2.171
  126OSM     NF13359   2.755   1.482   2.390
  126OSM    HNF13360   2.827   1.413   2.381
  126OSM    C2S13361   2.621   1.437   2.370
  126OSM    H2S13362   2.567   1.513   2.430
  126OSM    C3S13363   2.591   1.292   2.414
  126OSM    H3S13364   2.656   1.226   2.353
  126OSM     O313365   2.461   1.241   2.378
  126OSM    HO313366   2.428   1.299   2.309
  126OSM    C4S13367   2.632   1.258   2.557
  126OSM    H4S13368   2.610   1.326   2.641
  126OSM    C5S13369   2.704   1.148   2.588
  126OSM    H5S13370   2.744   1.087   2.506
  126OSM    C6S13371   2.753   1.105   2.721
  126OSM    H6S13372   2.861   1.079   2.720
  126OSM    H6T13373   2.702   1.010   2.748
  126OSM    C7S13374   2.732   1.193   2.845
  126OSM    H7S13375   2.626   1.227   2.847
  126OSM    H7T13376   2.786   1.290   2.851
  126OSM    C8S13377   2.761   1.122   2.976
  126OSM    H8S13378   2.866   1.090   2.964
  126OSM    H8T13379   2.691   1.036   2.987
  126OSM    C9S13380   2.751   1.214   3.095
  126OSM    H9S13381   2.649   1.256   3.106
  126OSM    H9T13382   2.817   1.302   3.084
  126OSM   C10S13383   2.802   1.144   3.225
  126OSM   H10S13384   2.912   1.136   3.224
  126OSM   H10T13385   2.762   1.041   3.231
  126OSM   C11S13386   2.772   1.225   3.347
  126OSM   H11S13387   2.665   1.256   3.348
  126OSM   H11T13388   2.841   1.313   3.353
  126OSM   C12S13389   2.783   1.151   3.474
  126OSM   H12S13390   2.886   1.108   3.481
  126OSM   H12T13391   2.709   1.069   3.484
  126OSM   C13S13392   2.759   1.239   3.595
  126OSM   H13S13393   2.664   1.289   3.566
  126OSM   H13T13394   2.837   1.318   3.603
  126OSM   C14S13395   2.743   1.170   3.738
  126OSM   H14S13396   2.720   1.246   3.816
  126OSM   H14T13397   2.842   1.122   3.756
  126OSM   C15S13398   2.635   1.063   3.746
  126OSM   H15S13399   2.661   0.988   3.669
  126OSM   H15T13400   2.538   1.112   3.723
  126OSM   C16S13401   2.620   1.010   3.889
  126OSM   H16S13402   2.636   1.095   3.959
  126OSM   H16T13403   2.703   0.938   3.904
  126OSM   C17S13404   2.477   0.946   3.894
  126OSM   H17S13405   2.444   0.882   3.810
  126OSM   H17T13406   2.416   1.037   3.877
  126OSM   C18S13407   2.441   0.877   4.030
  126OSM   H18S13408   2.450   0.934   4.125
  126OSM   H18T13409   2.501   0.787   4.055
  126OSM   H18U13410   2.333   0.850   4.033
  126OSM    C1F13411   2.792   1.609   2.383
  126OSM     OF13412   2.704   1.698   2.373
  126OSM    C2F13413   2.937   1.631   2.362
  126OSM    H2F13414   2.945   1.723   2.301
  126OSM    H2G13415   2.979   1.550   2.298
  126OSM    C3F13416   3.019   1.632   2.492
  126OSM    H3F13417   3.125   1.632   2.457
  126OSM    H3G13418   2.993   1.542   2.553
  126OSM    C4F13419   3.000   1.758   2.568
  126OSM    H4F13420   2.899   1.765   2.614
  126OSM    H4G13421   3.022   1.856   2.519
  126OSM    C5F13422   3.098   1.759   2.684
  126OSM    H5F13423   3.197   1.748   2.636
  126OSM    H5G13424   3.076   1.671   2.748
  126OSM    C6F13425   3.082   1.892   2.765
  126OSM    H6F13426   2.976   1.920   2.780
  126OSM    H6G13427   3.136   1.973   2.711
  126OSM    C7F13428   3.150   1.877   2.899
  126OSM    H7F13429   3.251   1.832   2.901
  126OSM    H7G13430   3.091   1.809   2.964
  126OSM    C8F13431   3.156   2.017   2.962
  126OSM    H8F13432   3.223   2.072   2.892
  126OSM    H8G13433   3.215   1.999   3.054
  126OSM    C9F13434   3.024   2.074   2.990
  126OSM    H9F13435   2.964   2.116   2.907
  126OSM   C10F13436   2.964   2.083   3.112
  126OSM   H10F13437   2.870   2.138   3.127
  126OSM   C11F13438   3.018   2.039   3.246
  126OSM   H11F13439   3.120   1.997   3.240
  126OSM   H11G13440   2.960   1.953   3.284
  126OSM   C12F13441   3.019   2.156   3.350
  126OSM   H12F13442   2.913   2.180   3.370
  126OSM   H12G13443   3.057   2.243   3.292
  126OSM   C13F13444   3.105   2.148   3.480
  126OSM   H13F13445   3.211   2.180   3.473
  126OSM   H13G13446   3.110   2.044   3.516
  126OSM   C14F13447   3.030   2.220   3.596
  126OSM   H14F13448   2.927   2.178   3.601
  126OSM   H14G13449   3.013   2.329   3.584
  126OSM   C15F13450   3.115   2.210   3.729
  126OSM   H15F13451   3.220   2.239   3.705
  126OSM   H15G13452   3.115   2.109   3.775
  126OSM   C16F13453   3.063   2.304   3.833
  126OSM   H16F13454   3.010   2.386   3.779
  126OSM   H16G13455   3.143   2.358   3.886
  126OSM   C17F13456   2.980   2.243   3.950
  126OSM   H17F13457   3.047   2.189   4.020
  126OSM   H17G13458   2.919   2.161   3.907
  126OSM   C18F13459   2.906   2.351   4.027
  126OSM   H18F13460   2.878   2.315   4.128
  126OSM   H18G13461   2.816   2.368   3.965
  126OSM   H18H13462   2.962   2.446   4.036
  127OSM      N13463   2.210   3.052   1.769
  127OSM    C1513464   2.339   3.076   1.841
  127OSM   H15A13465   2.417   3.004   1.818
  127OSM   H15B13466   2.340   3.048   1.946
  127OSM   H15C13467   2.375   3.176   1.825
  127OSM    C1413468   2.230   3.088   1.624
  127OSM   H14A13469   2.288   3.179   1.620
  127OSM   H14B13470   2.141   3.112   1.569
  127OSM   H14C13471   2.291   3.014   1.573
  127OSM    C1313472   2.183   2.907   1.779
  127OSM   H13A13473   2.166   2.882   1.882
  127OSM   H13B13474   2.254   2.834   1.742
  127OSM   H13C13475   2.092   2.879   1.729
  127OSM    C1213476   2.103   3.140   1.837
  127OSM   H12A13477   2.151   3.236   1.839
  127OSM   H12B13478   2.093   3.115   1.941
  127OSM    C1113479   1.963   3.147   1.763
  127OSM   H11A13480   1.973   3.175   1.656
  127OSM   H11B13481   1.901   3.227   1.810
  127OSM      P13482   1.792   2.977   1.874
  127OSM    O1313483   1.663   3.025   1.823
  127OSM    O1413484   1.812   2.832   1.911
  127OSM    O1113485   1.828   3.059   2.004
  127OSM    O1213486   1.899   3.025   1.772
  127OSM    C1S13487   1.738   3.063   2.112
  127OSM    H1S13488   1.722   2.959   2.147
  127OSM    H1T13489   1.646   3.115   2.077
  127OSM     NF13490   1.716   3.120   2.347
  127OSM    HNF13491   1.659   3.199   2.367
  127OSM    C2S13492   1.795   3.133   2.228
  127OSM    H2S13493   1.894   3.087   2.242
  127OSM    C3S13494   1.824   3.284   2.190
  127OSM    H3S13495   1.732   3.340   2.163
  127OSM     O313496   1.913   3.311   2.081
  127OSM    HO313497   1.927   3.227   2.037
  127OSM    C4S13498   1.888   3.348   2.313
  127OSM    H4S13499   1.994   3.326   2.327
  127OSM    C5S13500   1.832   3.436   2.401
  127OSM    H5S13501   1.729   3.461   2.371
  127OSM    C6S13502   1.884   3.488   2.530
  127OSM    H6S13503   1.899   3.598   2.528
  127OSM    H6T13504   1.988   3.448   2.533
  127OSM    C7S13505   1.794   3.444   2.651
  127OSM    H7S13506   1.791   3.334   2.665
  127OSM    H7T13507   1.688   3.470   2.633
  127OSM    C8S13508   1.843   3.479   2.791
  127OSM    H8S13509   1.812   3.580   2.825
  127OSM    H8T13510   1.954   3.473   2.784
  127OSM    C9S13511   1.791   3.379   2.892
  127OSM    H9S13512   1.842   3.282   2.876
  127OSM    H9T13513   1.684   3.363   2.866
  127OSM   C10S13514   1.792   3.431   3.033
  127OSM   H10S13515   1.723   3.517   3.045
  127OSM   H10T13516   1.899   3.457   3.047
  127OSM   C11S13517   1.742   3.319   3.129
  127OSM   H11S13518   1.802   3.231   3.100
  127OSM   H11T13519   1.632   3.308   3.113
  127OSM   C12S13520   1.766   3.357   3.277
  127OSM   H12S13521   1.711   3.447   3.311
  127OSM   H12T13522   1.874   3.354   3.306
  127OSM   C13S13523   1.695   3.247   3.369
  127OSM   H13S13524   1.755   3.153   3.370
  127OSM   H13T13525   1.595   3.237   3.321
  127OSM   C14S13526   1.711   3.282   3.526
  127OSM   H14S13527   1.678   3.388   3.530
  127OSM   H14T13528   1.821   3.285   3.542
  127OSM   C15S13529   1.644   3.188   3.625
  127OSM   H15S13530   1.651   3.081   3.596
  127OSM   H15T13531   1.536   3.211   3.636
  127OSM   C16S13532   1.705   3.207   3.760
  127OSM   H16S13533   1.718   3.315   3.784
  127OSM   H16T13534   1.810   3.173   3.766
  127OSM   C17S13535   1.633   3.137   3.880
  127OSM   H17S13536   1.634   3.030   3.851
  127OSM   H17T13537   1.526   3.166   3.880
  127OSM   C18S13538   1.705   3.144   4.014
  127OSM   H18S13539   1.812   3.118   3.998
  127OSM   H18T13540   1.643   3.075   4.076
  127OSM   H18U13541   1.695   3.249   4.047
  127OSM    C1F13542   1.692   3.011   2.412
  127OSM     OF13543   1.760   2.905   2.390
  127OSM    C2F13544   1.590   3.012   2.524
  127OSM    H2F13545   1.491   3.026   2.474
  127OSM    H2G13546   1.608   3.099   2.590
  127OSM    C3F13547   1.594   2.877   2.596
  127OSM    H3F13548   1.693   2.855   2.641
  127OSM    H3G13549   1.578   2.798   2.519
  127OSM    C4F13550   1.476   2.860   2.695
  127OSM    H4F13551   1.475   2.755   2.730
  127OSM    H4G13552   1.387   2.875   2.630
  127OSM    C5F13553   1.478   2.947   2.822
  127OSM    H5F13554   1.379   2.926   2.869
  127OSM    H5G13555   1.486   3.056   2.800
  127OSM    C6F13556   1.592   2.903   2.922
  127OSM    H6F13557   1.693   2.916   2.879
  127OSM    H6G13558   1.577   2.793   2.933
  127OSM    C7F13559   1.584   2.978   3.048
  127OSM    H7F13560   1.585   3.086   3.021
  127OSM    H7G13561   1.675   2.955   3.108
  127OSM    C8F13562   1.465   2.945   3.142
  127OSM    H8F13563   1.484   2.842   3.178
  127OSM    H8G13564   1.373   2.940   3.079
  127OSM    C9F13565   1.446   3.048   3.252
  127OSM    H9F13566   1.444   3.154   3.223
  127OSM   C10F13567   1.445   3.007   3.383
  127OSM   H10F13568   1.432   3.088   3.456
  127OSM   C11F13569   1.461   2.876   3.453
  127OSM   H11F13570   1.397   2.804   3.398
  127OSM   H11G13571   1.413   2.894   3.552
  127OSM   C12F13572   1.609   2.824   3.478
  127OSM   H12F13573   1.685   2.901   3.448
  127OSM   H12G13574   1.630   2.732   3.420
  127OSM   C13F13575   1.629   2.784   3.626
  127OSM   H13F13576   1.631   2.865   3.703
  127OSM   H13G13577   1.729   2.737   3.634
  127OSM   C14F13578   1.526   2.685   3.676
  127OSM   H14F13579   1.531   2.588   3.622
  127OSM   H14G13580   1.427   2.734   3.676
  127OSM   C15F13581   1.550   2.648   3.827
  127OSM   H15F13582   1.514   2.734   3.888
  127OSM   H15G13583   1.654   2.612   3.841
  127OSM   C16F13584   1.468   2.526   3.867
  127OSM   H16F13585   1.518   2.482   3.956
  127OSM   H16G13586   1.488   2.437   3.803
  127OSM   C17F13587   1.324   2.560   3.887
  127OSM   H17F13588   1.274   2.580   3.790
  127OSM   H17G13589   1.306   2.643   3.958
  127OSM   C18F13590   1.263   2.428   3.953
  127OSM   H18F13591   1.153   2.428   3.961
  127OSM   H18G13592   1.300   2.417   4.057
  127OSM   H18H13593   1.298   2.338   3.897
  128OSM      N13594   1.750   0.653   1.846
  128OSM    C1513595   1.696   0.668   1.984
  128OSM   H15A13596   1.766   0.623   2.053
  128OSM   H15B13597   1.597   0.626   1.990
  128OSM   H15C13598   1.685   0.771   2.013
  128OSM    C1413599   1.887   0.701   1.849
  128OSM   H14A13600   1.943   0.638   1.916
  128OSM   H14B13601   1.883   0.798   1.896
  128OSM   H14C13602   1.923   0.724   1.749
  128OSM    C1313603   1.761   0.506   1.813
  128OSM   H13A13604   1.804   0.450   1.895
  128OSM   H13B13605   1.817   0.504   1.721
  128OSM   H13C13606   1.662   0.466   1.797
  128OSM    C1213607   1.662   0.724   1.752
  128OSM   H12A13608   1.559   0.695   1.769
  128OSM   H12B13609   1.681   0.684   1.653
  128OSM    C1113610   1.650   0.884   1.749
  128OSM   H11A13611   1.566   0.903   1.679
  128OSM   H11B13612   1.740   0.940   1.716
  128OSM      P13613   1.512   1.053   1.904
  128OSM    O1313614   1.581   1.174   1.955
  128OSM    O1413615   1.434   1.072   1.778
  128OSM    O1113616   1.428   0.996   2.022
  128OSM    O1213617   1.618   0.936   1.876
  128OSM    C1S13618   1.485   0.927   2.139
  128OSM    H1S13619   1.592   0.904   2.122
  128OSM    H1T13620   1.442   0.827   2.158
  128OSM     NF13621   1.518   0.909   2.380
  128OSM    HNF13622   1.447   0.877   2.443
  128OSM    C2S13623   1.480   0.999   2.272
  128OSM    H2S13624   1.555   1.081   2.270
  128OSM    C3S13625   1.340   1.069   2.296
  128OSM    H3S13626   1.269   0.985   2.314
  128OSM     O313627   1.277   1.134   2.182
  128OSM    HO313628   1.306   1.085   2.105
  128OSM    C4S13629   1.335   1.159   2.416
  128OSM    H4S13630   1.342   1.109   2.513
  128OSM    C5S13631   1.343   1.292   2.404
  128OSM    H5S13632   1.344   1.333   2.302
  128OSM    C6S13633   1.346   1.384   2.520
  128OSM    H6S13634   1.278   1.352   2.601
  128OSM    H6T13635   1.306   1.484   2.491
  128OSM    C7S13636   1.485   1.402   2.578
  128OSM    H7S13637   1.477   1.470   2.666
  128OSM    H7T13638   1.553   1.453   2.507
  128OSM    C8S13639   1.556   1.275   2.626
  128OSM    H8S13640   1.602   1.240   2.531
  128OSM    H8T13641   1.492   1.205   2.683
  128OSM    C9S13642   1.670   1.306   2.720
  128OSM    H9S13643   1.623   1.342   2.814
  128OSM    H9T13644   1.727   1.381   2.662
  128OSM   C10S13645   1.763   1.183   2.754
  128OSM   H10S13646   1.806   1.151   2.657
  128OSM   H10T13647   1.707   1.092   2.786
  128OSM   C11S13648   1.877   1.217   2.849
  128OSM   H11S13649   1.913   1.322   2.836
  128OSM   H11T13650   1.954   1.138   2.837
  128OSM   C12S13651   1.819   1.203   2.996
  128OSM   H12S13652   1.804   1.096   3.023
  128OSM   H12T13653   1.719   1.251   2.991
  128OSM   C13S13654   1.897   1.271   3.109
  128OSM   H13S13655   1.928   1.373   3.079
  128OSM   H13T13656   1.979   1.203   3.142
  128OSM   C14S13657   1.810   1.291   3.228
  128OSM   H14S13658   1.727   1.361   3.205
  128OSM   H14T13659   1.874   1.339   3.305
  128OSM   C15S13660   1.749   1.159   3.293
  128OSM   H15S13661   1.676   1.113   3.222
  128OSM   H15T13662   1.696   1.189   3.386
  128OSM   C16S13663   1.863   1.062   3.329
  128OSM   H16S13664   1.947   1.123   3.369
  128OSM   H16T13665   1.898   1.001   3.242
  128OSM   C17S13666   1.825   0.974   3.451
  128OSM   H17S13667   1.721   0.941   3.429
  128OSM   H17T13668   1.819   1.039   3.541
  128OSM   C18S13669   1.915   0.855   3.476
  128OSM   H18S13670   1.917   0.794   3.383
  128OSM   H18T13671   1.883   0.790   3.559
  128OSM   H18U13672   2.020   0.886   3.497
  128OSM    C1F13673   1.639   0.861   2.408
  128OSM     OF13674   1.720   0.878   2.317
  128OSM    C2F13675   1.664   0.810   2.547
  128OSM    H2F13676   1.609   0.713   2.551
  128OSM    H2G13677   1.606   0.860   2.627
  128OSM    C3F13678   1.816   0.780   2.573
  128OSM    H3F13679   1.867   0.879   2.580
  128OSM    H3G13680   1.863   0.735   2.483
  128OSM    C4F13681   1.839   0.687   2.698
  128OSM    H4F13682   1.939   0.639   2.696
  128OSM    H4G13683   1.761   0.608   2.708
  128OSM    C5F13684   1.837   0.764   2.826
  128OSM    H5F13685   1.765   0.847   2.810
  128OSM    H5G13686   1.928   0.821   2.850
  128OSM    C6F13687   1.783   0.682   2.947
  128OSM    H6F13688   1.848   0.596   2.971
  128OSM    H6G13689   1.694   0.629   2.906
  128OSM    C7F13690   1.744   0.756   3.079
  128OSM    H7F13691   1.664   0.830   3.057
  128OSM    H7G13692   1.840   0.805   3.108
  128OSM    C8F13693   1.693   0.666   3.192
  128OSM    H8F13694   1.602   0.609   3.160
  128OSM    H8G13695   1.670   0.729   3.280
  128OSM    C9F13696   1.804   0.575   3.237
  128OSM    H9F13697   1.891   0.570   3.170
  128OSM   C10F13698   1.803   0.512   3.354
  128OSM   H10F13699   1.883   0.445   3.388
  128OSM   C11F13700   1.688   0.510   3.454
  128OSM   H11F13701   1.605   0.461   3.400
  128OSM   H11G13702   1.648   0.609   3.487
  128OSM   C12F13703   1.731   0.433   3.581
  128OSM   H12F13704   1.669   0.471   3.666
  128OSM   H12G13705   1.833   0.468   3.608
  128OSM   C13F13706   1.711   0.284   3.583
  128OSM   H13F13707   1.761   0.229   3.501
  128OSM   H13G13708   1.602   0.272   3.570
  128OSM   C14F13709   1.757   0.219   3.714
  128OSM   H14F13710   1.701   0.270   3.796
  128OSM   H14G13711   1.864   0.249   3.718
  128OSM   C15F13712   1.727   0.078   3.725
  128OSM   H15F13713   1.765   0.025   3.635
  128OSM   H15G13714   1.618   0.063   3.735
  128OSM   C16F13715   1.794   0.015   3.846
  128OSM   H16F13716   1.739   0.049   3.937
  128OSM   H16G13717   1.903   0.030   3.861
  128OSM   C17F13718   1.780   6.774   3.845
  128OSM   H17F13719   1.845   6.732   3.924
  128OSM   H17G13720   1.817   6.734   3.748
  128OSM   C18F13721   1.636   6.728   3.869
  128OSM   H18F13722   1.568   6.785   3.802
  128OSM   H18G13723   1.616   6.765   3.972
  128OSM   H18H13724   1.622   6.618   3.855
  129OSM      N13725   3.598   0.060   2.011
  129OSM    C1513726   3.703   6.912   1.920
  129OSM   H15A13727   3.659   6.852   1.842
  129OSM   H15B13728   3.776   6.851   1.971
  129OSM   H15C13729   3.761   0.085   1.887
  129OSM    C1413730   3.512   0.146   1.932
  129OSM   H14A13731   3.563   0.204   1.857
  129OSM   H14B13732   3.445   0.211   1.985
  129OSM   H14C13733   3.442   0.085   1.876
  129OSM    C1313734   3.507   6.862   2.070
  129OSM   H13A13735   3.563   6.789   2.126
  129OSM   H13B13736   3.450   6.806   1.997
  129OSM   H13C13737   3.434   6.906   2.137
  129OSM    C1213738   3.660   0.152   2.116
  129OSM   H12A13739   3.700   0.230   2.052
  129OSM   H12B13740   3.739   0.096   2.165
  129OSM    C1113741   3.577   0.214   2.224
  129OSM   H11A13742   3.647   0.273   2.287
  129OSM   H11B13743   3.543   0.128   2.285
  129OSM      P13744   3.458   0.435   2.166
  129OSM    O1313745   3.549   0.490   2.061
  129OSM    O1413746   3.319   0.484   2.168
  129OSM    O1113747   3.519   0.462   2.304
  129OSM    O1213748   3.458   0.275   2.172
  129OSM    C1S13749   3.449   0.461   2.422
  129OSM    H1S13750   3.443   0.358   2.464
  129OSM    H1T13751   3.345   0.499   2.406
  129OSM     NF13752   3.417   0.530   2.652
  129OSM    HNF13753   3.347   0.600   2.663
  129OSM    C2S13754   3.500   0.547   2.534
  129OSM    H2S13755   3.596   0.495   2.556
  129OSM    C3S13756   3.529   0.695   2.501
  129OSM    H3S13757   3.440   0.750   2.463
  129OSM     O313758   3.621   0.706   2.394
  129OSM    HO313759   3.627   0.619   2.353
  129OSM    C4S13760   3.572   0.771   2.625
  129OSM    H4S13761   3.662   0.743   2.680
  129OSM    C5S13762   3.499   0.873   2.678
  129OSM    H5S13763   3.417   0.921   2.623
  129OSM    C6S13764   3.532   0.948   2.808
  129OSM    H6S13765   3.509   1.057   2.813
  129OSM    H6T13766   3.640   0.936   2.829
  129OSM    C7S13767   3.446   0.902   2.924
  129OSM    H7S13768   3.465   0.797   2.956
  129OSM    H7T13769   3.339   0.917   2.897
  129OSM    C8S13770   3.481   0.977   3.054
  129OSM    H8S13771   3.439   1.079   3.042
  129OSM    H8T13772   3.591   0.985   3.056
  129OSM    C9S13773   3.426   0.910   3.179
  129OSM    H9S13774   3.439   0.800   3.169
  129OSM    H9T13775   3.316   0.918   3.192
  129OSM   C10S13776   3.488   0.978   3.306
  129OSM   H10S13777   3.491   1.087   3.287
  129OSM   H10T13778   3.590   0.935   3.310
  129OSM   C11S13779   3.406   0.945   3.434
  129OSM   H11S13780   3.403   0.836   3.456
  129OSM   H11T13781   3.300   0.978   3.427
  129OSM   C12S13782   3.472   1.030   3.542
  129OSM   H12S13783   3.440   1.135   3.529
  129OSM   H12T13784   3.583   1.031   3.528
  129OSM   C13S13785   3.443   0.975   3.685
  129OSM   H13S13786   3.499   0.880   3.695
  129OSM   H13T13787   3.333   0.964   3.670
  129OSM   C14S13788   3.464   1.064   3.807
  129OSM   H14S13789   3.403   1.155   3.791
  129OSM   H14T13790   3.569   1.096   3.821
  129OSM   C15S13791   3.434   0.991   3.941
  129OSM   H15S13792   3.489   0.895   3.950
  129OSM   H15T13793   3.325   0.972   3.938
  129OSM   C16S13794   3.483   1.066   4.063
  129OSM   H16S13795   3.433   1.163   4.080
  129OSM   H16T13796   3.591   1.075   4.041
  129OSM   C17S13797   3.476   0.978   4.195
  129OSM   H17S13798   3.540   1.026   4.271
  129OSM   H17T13799   3.511   0.876   4.167
  129OSM   C18S13800   3.337   0.947   4.252
  129OSM   H18S13801   3.349   0.890   4.347
  129OSM   H18T13802   3.281   0.883   4.180
  129OSM   H18U13803   3.279   1.040   4.271
  129OSM    C1F13804   3.407   0.421   2.733
  129OSM     OF13805   3.501   0.336   2.731
  129OSM    C2F13806   3.300   0.410   2.835
  129OSM    H2F13807   3.258   0.308   2.826
  129OSM    H2G13808   3.218   0.482   2.813
  129OSM    C3F13809   3.348   0.443   2.981
  129OSM    H3F13810   3.389   0.545   2.996
  129OSM    H3G13811   3.428   0.370   3.004
  129OSM    C4F13812   3.232   0.421   3.074
  129OSM    H4F13813   3.194   0.317   3.072
  129OSM    H4G13814   3.144   0.483   3.048
  129OSM    C5F13815   3.280   0.456   3.215
  129OSM    H5F13816   3.308   0.564   3.215
  129OSM    H5G13817   3.371   0.396   3.235
  129OSM    C6F13818   3.174   0.425   3.316
  129OSM    H6F13819   3.138   0.320   3.306
  129OSM    H6G13820   3.082   0.487   3.305
  129OSM    C7F13821   3.235   0.435   3.459
  129OSM    H7F13822   3.275   0.536   3.483
  129OSM    H7G13823   3.325   0.370   3.473
  129OSM    C8F13824   3.135   0.392   3.563
  129OSM    H8F13825   3.102   0.287   3.555
  129OSM    H8G13826   3.043   0.452   3.548
  129OSM    C9F13827   3.180   0.409   3.703
  129OSM    H9F13828   3.228   0.506   3.721
  129OSM   C10F13829   3.171   0.314   3.800
  129OSM   H10F13830   3.201   0.340   3.902
  129OSM   C11F13831   3.113   0.173   3.781
  129OSM   H11F13832   3.179   0.123   3.707
  129OSM   H11G13833   3.008   0.174   3.746
  129OSM   C12F13834   3.124   0.084   3.913
  129OSM   H12F13835   3.222   0.083   3.966
  129OSM   H12G13836   3.101   6.893   3.880
  129OSM   C13F13837   3.013   0.117   4.019
  129OSM   H13F13838   2.914   0.110   3.969
  129OSM   H13G13839   3.013   0.221   4.060
  129OSM   C14F13840   3.026   0.026   4.136
  129OSM   H14F13841   2.965   0.068   4.219
  129OSM   H14G13842   3.132   0.041   4.169
  129OSM   C15F13843   2.976   6.797   4.101
  129OSM   H15F13844   3.020   6.721   4.169
  129OSM   H15G13845   3.014   6.770   4.001
  129OSM   C16F13846   2.828   6.780   4.119
  129OSM   H16F13847   2.781   6.861   4.059
  129OSM   H16G13848   2.782   6.800   4.218
  129OSM   C17F13849   2.766   6.647   4.056
  129OSM   H17F13850   2.656   6.640   4.068
  129OSM   H17G13851   2.802   6.566   4.122
  129OSM   C18F13852   2.801   6.614   3.909
  129OSM   H18F13853   2.755   6.517   3.881
  129OSM   H18G13854   2.911   6.616   3.896
  129OSM   H18H13855   2.756   6.690   3.841
  130OSM      N13856   3.269   4.926   1.797
  130OSM    C1513857   3.191   4.847   1.705
  130OSM   H15A13858   3.229   4.747   1.714
  130OSM   H15B13859   3.207   4.873   1.601
  130OSM   H15C13860   3.086   4.849   1.729
  130OSM    C1413861   3.402   4.945   1.741
  130OSM   H14A13862   3.390   4.989   1.643
  130OSM   H14B13863   3.456   4.851   1.740
  130OSM   H14C13864   3.459   5.015   1.802
  130OSM    C1313865   3.202   5.065   1.793
  130OSM   H13A13866   3.205   5.103   1.692
  130OSM   H13B13867   3.251   5.132   1.862
  130OSM   H13C13868   3.097   5.059   1.817
  130OSM    C1213869   3.258   4.858   1.935
  130OSM   H12A13870   3.152   4.840   1.944
  130OSM   H12B13871   3.289   4.926   2.012
  130OSM    C1113872   3.300   4.711   1.950
  130OSM   H11A13873   3.243   4.649   1.878
  130OSM   H11B13874   3.273   4.684   2.054
  130OSM      P13875   3.508   4.550   1.921
  130OSM    O1313876   3.460   4.485   1.798
  130OSM    O1413877   3.653   4.573   1.924
  130OSM    O1113878   3.470   4.470   2.047
  130OSM    O1213879   3.444   4.696   1.942
  130OSM    C1S13880   3.499   4.512   2.183
  130OSM    H1S13881   3.462   4.614   2.206
  130OSM    H1T13882   3.610   4.509   2.196
  130OSM     NF13883   3.501   4.445   2.426
  130OSM    HNF13884   3.571   4.389   2.469
  130OSM    C2S13885   3.450   4.415   2.296
  130OSM    H2S13886   3.340   4.425   2.298
  130OSM    C3S13887   3.465   4.262   2.256
  130OSM    H3S13888   3.567   4.225   2.235
  130OSM     O313889   3.407   4.222   2.131
  130OSM    HO313890   3.375   4.304   2.093
  130OSM    C4S13891   3.423   4.171   2.368
  130OSM    H4S13892   3.502   4.142   2.439
  130OSM    C5S13893   3.293   4.143   2.397
  130OSM    H5S13894   3.219   4.192   2.333
  130OSM    C6S13895   3.239   4.066   2.514
  130OSM    H6S13896   3.320   3.997   2.546
  130OSM    H6T13897   3.155   4.002   2.477
  130OSM    C7S13898   3.189   4.157   2.629
  130OSM    H7S13899   3.131   4.083   2.688
  130OSM    H7T13900   3.114   4.228   2.588
  130OSM    C8S13901   3.299   4.239   2.703
  130OSM    H8S13902   3.253   4.328   2.752
  130OSM    H8T13903   3.365   4.263   2.617
  130OSM    C9S13904   3.362   4.145   2.810
  130OSM    H9S13905   3.407   4.055   2.764
  130OSM    H9T13906   3.272   4.130   2.872
  130OSM   C10S13907   3.475   4.222   2.887
  130OSM   H10S13908   3.432   4.306   2.946
  130OSM   H10T13909   3.538   4.267   2.808
  130OSM   C11S13910   3.553   4.125   2.980
  130OSM   H11S13911   3.643   4.174   3.023
  130OSM   H11T13912   3.594   4.040   2.922
  130OSM   C12S13913   3.468   4.055   3.086
  130OSM   H12S13914   3.534   3.986   3.144
  130OSM   H12T13915   3.401   3.982   3.037
  130OSM   C13S13916   3.387   4.142   3.185
  130OSM   H13S13917   3.295   4.185   3.140
  130OSM   H13T13918   3.449   4.230   3.212
  130OSM   C14S13919   3.364   4.070   3.313
  130OSM   H14S13920   3.443   3.995   3.337
  130OSM   H14T13921   3.276   4.005   3.296
  130OSM   C15S13922   3.342   4.165   3.438
  130OSM   H15S13923   3.264   4.116   3.501
  130OSM   H15T13924   3.293   4.261   3.413
  130OSM   C16S13925   3.471   4.194   3.520
  130OSM   H16S13926   3.451   4.291   3.570
  130OSM   H16T13927   3.557   4.198   3.450
  130OSM   C17S13928   3.509   4.088   3.621
  130OSM   H17S13929   3.611   4.103   3.662
  130OSM   H17T13930   3.517   3.992   3.564
  130OSM   C18S13931   3.407   4.057   3.738
  130OSM   H18S13932   3.330   3.983   3.710
  130OSM   H18T13933   3.373   4.162   3.749
  130OSM   H18U13934   3.457   4.040   3.836
  130OSM    C1F13935   3.466   4.554   2.497
  130OSM     OF13936   3.407   4.646   2.445
  130OSM    C2F13937   3.490   4.551   2.642
  130OSM    H2F13938   3.600   4.564   2.655
  130OSM    H2G13939   3.470   4.450   2.684
  130OSM    C3F13940   3.425   4.668   2.722
  130OSM    H3F13941   3.324   4.694   2.683
  130OSM    H3G13942   3.479   4.758   2.686
  130OSM    C4F13943   3.431   4.658   2.875
  130OSM    H4F13944   3.375   4.571   2.916
  130OSM    H4G13945   3.398   4.753   2.922
  130OSM    C5F13946   3.580   4.639   2.919
  130OSM    H5F13947   3.644   4.718   2.874
  130OSM    H5G13948   3.623   4.542   2.886
  130OSM    C6F13949   3.607   4.648   3.072
  130OSM    H6F13950   3.575   4.747   3.111
  130OSM    H6G13951   3.716   4.641   3.094
  130OSM    C7F13952   3.550   4.537   3.169
  130OSM    H7F13953   3.582   4.436   3.135
  130OSM    H7G13954   3.440   4.527   3.157
  130OSM    C8F13955   3.570   4.561   3.321
  130OSM    H8F13956   3.672   4.524   3.343
  130OSM    H8G13957   3.498   4.488   3.364
  130OSM    C9F13958   3.552   4.695   3.383
  130OSM    H9F13959   3.595   4.778   3.326
  130OSM   C10F13960   3.495   4.718   3.506
  130OSM   H10F13961   3.506   4.824   3.532
  130OSM   C11F13962   3.444   4.624   3.609
  130OSM   H11F13963   3.473   4.519   3.586
  130OSM   H11G13964   3.336   4.639   3.628
  130OSM   C12F13965   3.522   4.670   3.738
  130OSM   H12F13966   3.630   4.691   3.723
  130OSM   H12G13967   3.511   4.590   3.814
  130OSM   C13F13968   3.465   4.796   3.810
  130OSM   H13F13969   3.477   4.887   3.747
  130OSM   H13G13970   3.523   4.804   3.904
  130OSM   C14F13971   3.312   4.786   3.851
  130OSM   H14F13972   3.309   4.694   3.914
  130OSM   H14G13973   3.237   4.770   3.771
  130OSM   C15F13974   3.271   4.912   3.931
  130OSM   H15F13975   3.267   5.002   3.867
  130OSM   H15G13976   3.351   4.922   4.007
  130OSM   C16F13977   3.137   4.901   3.997
  130OSM   H16F13978   3.135   4.974   4.080
  130OSM   H16G13979   3.121   4.813   4.063
  130OSM   C17F13980   3.010   4.908   3.910
  130OSM   H17F13981   3.024   4.829   3.833
  130OSM   H17G13982   2.998   5.004   3.856
  130OSM   C18F13983   2.885   4.881   3.991
  130OSM   H18F13984   2.799   4.904   3.925
  130OSM   H18G13985   2.880   4.941   4.085
  130OSM   H18H13986   2.884   4.773   4.020
  131OSM      N13987   0.716   0.861   1.576
  131OSM    C1513988   0.673   0.999   1.557
  131OSM   H15A13989   0.717   1.050   1.473
  131OSM   H15B13990   0.685   1.061   1.644
  131OSM   H15C13991   0.566   1.005   1.548
  131OSM    C1413992   0.609   0.782   1.652
  131OSM   H14A13993   0.629   0.682   1.687
  131OSM   H14B13994   0.520   0.778   1.592
  131OSM   H14C13995   0.584   0.838   1.741
  131OSM    C1313996   0.719   0.793   1.440
  131OSM   H13A13997   0.749   0.690   1.448
  131OSM   H13B13998   0.786   0.854   1.380
  131OSM   H13C13999   0.618   0.789   1.401
  131OSM    C1214000   0.853   0.848   1.636
  131OSM   H12A14001   0.917   0.906   1.571
  131OSM   H12B14002   0.890   0.747   1.641
  131OSM    C1114003   0.862   0.900   1.779
  131OSM   H11A14004   0.781   0.865   1.846
  131OSM   H11B14005   0.844   1.009   1.776
  131OSM      P14006   1.050   0.745   1.879
  131OSM    O1314007   0.973   0.634   1.807
  131OSM    O1414008   1.195   0.744   1.872
  131OSM    O1114009   0.995   0.733   2.025
  131OSM    O1214010   0.993   0.888   1.834
  131OSM    C1S14011   1.041   0.804   2.143
  131OSM    H1S14012   1.014   0.911   2.136
  131OSM    H1T14013   1.152   0.804   2.145
  131OSM     NF14014   0.983   0.848   2.374
  131OSM    HNF14015   1.070   0.863   2.419
  131OSM    C2S14016   0.983   0.735   2.276
  131OSM    H2S14017   0.879   0.700   2.260
  131OSM    C3S14018   1.068   0.615   2.317
  131OSM    H3S14019   1.171   0.655   2.323
  131OSM     O314020   1.082   0.512   2.213
  131OSM    HO314021   1.034   0.553   2.140
  131OSM    C4S14022   1.033   0.542   2.450
  131OSM    H4S14023   1.087   0.581   2.537
  131OSM    C5S14024   0.965   0.426   2.459
  131OSM    H5S14025   0.929   0.375   2.369
  131OSM    C6S14026   0.940   0.348   2.583
  131OSM    H6S14027   0.992   0.250   2.578
  131OSM    H6T14028   0.832   0.323   2.595
  131OSM    C7S14029   1.005   0.419   2.714
  131OSM    H7S14030   0.979   0.527   2.721
  131OSM    H7T14031   1.114   0.408   2.693
  131OSM    C8S14032   0.963   0.337   2.834
  131OSM    H8S14033   1.011   0.238   2.816
  131OSM    H8T14034   0.852   0.330   2.834
  131OSM    C9S14035   1.005   0.404   2.964
  131OSM    H9S14036   0.931   0.483   2.987
  131OSM    H9T14037   1.113   0.431   2.961
  131OSM   C10S14038   0.982   0.293   3.082
  131OSM   H10S14039   1.047   0.205   3.063
  131OSM   H10T14040   0.877   0.258   3.085
  131OSM   C11S14041   1.010   0.354   3.223
  131OSM   H11S14042   0.978   0.461   3.227
  131OSM   H11T14043   1.120   0.371   3.225
  131OSM   C12S14044   0.952   0.273   3.342
  131OSM   H12S14045   1.009   0.178   3.347
  131OSM   H12T14046   0.845   0.252   3.317
  131OSM   C13S14047   0.964   0.344   3.476
  131OSM   H13S14048   0.866   0.327   3.525
  131OSM   H13T14049   0.988   0.451   3.463
  131OSM   C14S14050   1.070   0.277   3.558
  131OSM   H14S14051   1.155   0.239   3.497
  131OSM   H14T14052   1.030   0.176   3.582
  131OSM   C15S14053   1.124   0.355   3.676
  131OSM   H15S14054   1.036   0.395   3.731
  131OSM   H15T14055   1.183   0.435   3.627
  131OSM   C16S14056   1.214   0.272   3.771
  131OSM   H16S14057   1.211   0.169   3.731
  131OSM   H16T14058   1.178   0.268   3.876
  131OSM   C17S14059   1.366   0.306   3.758
  131OSM   H17S14060   1.396   0.314   3.652
  131OSM   H17T14061   1.424   0.226   3.809
  131OSM   C18S14062   1.418   0.432   3.829
  131OSM   H18S14063   1.393   0.442   3.936
  131OSM   H18T14064   1.360   0.517   3.787
  131OSM   H18U14065   1.528   0.447   3.817
  131OSM    C1F14066   0.899   0.951   2.381
  131OSM     OF14067   0.798   0.954   2.310
  131OSM    C2F14068   0.946   1.061   2.466
  131OSM    H2F14069   0.983   1.145   2.404
  131OSM    H2G14070   1.036   1.027   2.522
  131OSM    C3F14071   0.836   1.119   2.559
  131OSM    H3F14072   0.803   1.048   2.638
  131OSM    H3G14073   0.748   1.131   2.491
  131OSM    C4F14074   0.885   1.251   2.629
  131OSM    H4F14075   0.893   1.323   2.544
  131OSM    H4G14076   0.989   1.225   2.658
  131OSM    C5F14077   0.793   1.296   2.743
  131OSM    H5F14078   0.688   1.300   2.708
  131OSM    H5G14079   0.839   1.393   2.772
  131OSM    C6F14080   0.819   1.205   2.867
  131OSM    H6F14081   0.927   1.194   2.888
  131OSM    H6G14082   0.791   1.101   2.842
  131OSM    C7F14083   0.754   1.252   2.997
  131OSM    H7F14084   0.645   1.256   2.978
  131OSM    H7G14085   0.799   1.351   3.016
  131OSM    C8F14086   0.783   1.155   3.117
  131OSM    H8F14087   0.752   1.056   3.078
  131OSM    H8G14088   0.708   1.175   3.196
  131OSM    C9F14089   0.925   1.164   3.156
  131OSM    H9F14090   1.008   1.151   3.085
  131OSM   C10F14091   0.965   1.190   3.283
  131OSM   H10F14092   1.073   1.178   3.300
  131OSM   C11F14093   0.874   1.213   3.401
  131OSM   H11F14094   0.791   1.274   3.359
  131OSM   H11G14095   0.926   1.280   3.473
  131OSM   C12F14096   0.818   1.096   3.478
  131OSM   H12F14097   0.901   1.034   3.517
  131OSM   H12G14098   0.756   1.027   3.417
  131OSM   C13F14099   0.741   1.149   3.595
  131OSM   H13F14100   0.636   1.177   3.572
  131OSM   H13G14101   0.792   1.241   3.632
  131OSM   C14F14102   0.730   1.052   3.710
  131OSM   H14F14103   0.829   1.030   3.755
  131OSM   H14G14104   0.675   0.957   3.696
  131OSM   C15F14105   0.652   1.128   3.822
  131OSM   H15F14106   0.552   1.153   3.780
  131OSM   H15G14107   0.714   1.217   3.845
  131OSM   C16F14108   0.637   1.054   3.958
  131OSM   H16F14109   0.622   1.132   4.036
  131OSM   H16G14110   0.732   1.005   3.988
  131OSM   C17F14111   0.512   0.952   3.970
  131OSM   H17F14112   0.528   0.863   3.906
  131OSM   H17G14113   0.418   1.005   3.942
  131OSM   C18F14114   0.496   0.907   4.112
  131OSM   H18F14115   0.474   0.997   4.174
  131OSM   H18G14116   0.587   0.859   4.154
  131OSM   H18H14117   0.409   0.838   4.116
  132OSM      N14118   6.218   0.583   1.984
  132OSM    C1514119   6.357   0.532   2.018
  132OSM   H15A14120   6.353   0.438   2.070
  132OSM   H15B14121   6.415   0.602   2.076
  132OSM   H15C14122   6.413   0.532   1.925
  132OSM    C1414123   6.240   0.711   1.904
  132OSM   H14A14124   6.280   0.790   1.966
  132OSM   H14B14125   6.144   0.752   1.879
  132OSM   H14C14126   6.304   0.698   1.818
  132OSM    C1314127   6.141   0.486   1.901
  132OSM   H13A14128   6.196   0.479   1.809
  132OSM   H13B14129   6.046   0.523   1.866
  132OSM   H13C14130   6.134   0.395   1.959
  132OSM    C1214131   6.145   0.622   2.115
  132OSM   H12A14132   6.041   0.639   2.090
  132OSM   H12B14133   6.190   0.714   2.150
  132OSM    C1114134   6.147   0.520   2.232
  132OSM   H11A14135   6.093   0.572   2.314
  132OSM   H11B14136   6.249   0.491   2.267
  132OSM      P14137   5.916   0.389   2.177
  132OSM    O1314138   5.856   0.523   2.177
  132OSM    O1414139   5.901   0.300   2.059
  132OSM    O1114140   5.869   0.306   2.303
  132OSM    O1214141   6.072   0.406   2.194
  132OSM    C1S14142   5.921   0.174   2.327
  132OSM    H1S14143   5.981   0.130   2.244
  132OSM    H1T14144   5.837   0.102   2.333
  132OSM     NF14145   6.061   0.041   2.476
  132OSM    HNF14146   6.019   6.907   2.554
  132OSM    C2S14147   6.011   0.178   2.453
  132OSM    H2S14148   6.094   0.243   2.417
  132OSM    C3S14149   5.942   0.245   2.573
  132OSM    H3S14150   5.853   0.186   2.605
  132OSM     O314151   5.906   0.378   2.557
  132OSM    HO314152   5.904   0.390   2.462
  132OSM    C4S14153   6.026   0.240   2.696
  132OSM    H4S14154   6.120   0.293   2.679
  132OSM    C5S14155   6.002   0.190   2.818
  132OSM    H5S14156   5.908   0.138   2.842
  132OSM    C6S14157   6.103   0.201   2.929
  132OSM    H6S14158   6.179   0.282   2.926
  132OSM    H6T14159   6.159   0.105   2.931
  132OSM    C7S14160   6.025   0.226   3.060
  132OSM    H7S14161   5.953   0.141   3.072
  132OSM    H7T14162   5.968   0.318   3.036
  132OSM    C8S14163   6.113   0.242   3.178
  132OSM    H8S14164   6.188   0.322   3.166
  132OSM    H8T14165   6.170   0.150   3.203
  132OSM    C9S14166   6.016   0.272   3.302
  132OSM    H9S14167   5.955   0.179   3.306
  132OSM    H9T14168   5.956   0.362   3.275
  132OSM   C10S14169   6.094   0.296   3.433
  132OSM   H10S14170   6.189   0.351   3.415
  132OSM   H10T14171   6.133   0.203   3.480
  132OSM   C11S14172   6.011   0.367   3.544
  132OSM   H11S14173   5.916   0.312   3.557
  132OSM   H11T14174   5.993   0.470   3.507
  132OSM   C12S14175   6.084   0.359   3.690
  132OSM   H12S14176   6.188   0.391   3.669
  132OSM   H12T14177   6.092   0.257   3.734
  132OSM   C13S14178   6.032   0.464   3.780
  132OSM   H13S14179   5.922   0.472   3.789
  132OSM   H13T14180   6.070   0.563   3.744
  132OSM   C14S14181   6.067   0.445   3.925
  132OSM   H14S14182   6.004   0.360   3.960
  132OSM   H14T14183   6.036   0.539   3.975
  132OSM   C15S14184   6.208   0.408   3.964
  132OSM   H15S14185   6.239   0.330   3.891
  132OSM   H15T14186   6.210   0.356   4.062
  132OSM   C16S14187   6.306   0.526   3.960
  132OSM   H16S14188   6.276   0.604   4.033
  132OSM   H16T14189   6.313   0.552   3.852
  132OSM   C17S14190   6.454   0.484   3.985
  132OSM   H17S14191   6.523   0.567   3.955
  132OSM   H17T14192   6.483   0.397   3.923
  132OSM   C18S14193   6.491   0.454   4.129
  132OSM   H18S14194   6.454   0.536   4.195
  132OSM   H18T14195   6.601   0.444   4.139
  132OSM   H18U14196   6.441   0.356   4.144
  132OSM    C1F14197   6.163   6.909   2.407
  132OSM     OF14198   6.224   0.076   2.335
  132OSM    C2F14199   6.204   6.763   2.432
  132OSM    H2F14200   6.296   6.743   2.373
  132OSM    H2G14201   6.124   6.705   2.383
  132OSM    C3F14202   6.230   6.725   2.583
  132OSM    H3F14203   6.136   6.712   2.641
  132OSM    H3G14204   6.290   6.807   2.628
  132OSM    C4F14205   6.320   6.602   2.593
  132OSM    H4F14206   6.362   6.610   2.696
  132OSM    H4G14207   6.406   6.617   2.524
  132OSM    C5F14208   6.263   6.456   2.585
  132OSM    H5F14209   6.340   6.376   2.591
  132OSM    H5G14210   6.210   6.450   2.488
  132OSM    C6F14211   6.156   6.434   2.696
  132OSM    H6F14212   6.061   6.469   2.651
  132OSM    H6G14213   6.191   6.485   2.788
  132OSM    C7F14214   6.135   6.280   2.720
  132OSM    H7F14215   6.137   6.224   2.624
  132OSM    H7G14216   6.031   6.265   2.755
  132OSM    C8F14217   6.230   6.209   2.817
  132OSM    H8F14218   6.327   6.207   2.763
  132OSM    H8G14219   6.214   6.099   2.820
  132OSM    C9F14220   6.240   6.265   2.957
  132OSM    H9F14221   6.139   6.273   3.001
  132OSM   C10F14222   6.346   6.313   3.027
  132OSM   H10F14223   6.336   6.372   3.119
  132OSM   C11F14224   6.487   6.290   2.985
  132OSM   H11F14225   6.501   6.181   2.966
  132OSM   H11G14226   6.561   6.319   3.063
  132OSM   C12F14227   6.535   6.358   2.853
  132OSM   H12F14228   6.531   6.469   2.849
  132OSM   H12G14229   6.470   6.324   2.770
  132OSM   C13F14230   6.685   6.328   2.825
  132OSM   H13F14231   6.702   6.362   2.720
  132OSM   H13G14232   6.702   6.219   2.823
  132OSM   C14F14233   6.786   6.398   2.911
  132OSM   H14F14234   6.836   6.317   2.968
  132OSM   H14G14235   6.756   6.481   2.978
  132OSM   C15F14236   6.893   6.468   2.827
  132OSM   H15F14237   6.848   6.548   2.764
  132OSM   H15G14238   0.040   6.397   2.765
  132OSM   C16F14239   0.083   6.532   2.926
  132OSM   H16F14240   0.126   6.448   2.983
  132OSM   H16G14241   0.022   6.595   2.995
  132OSM   C17F14242   0.193   6.611   2.858
  132OSM   H17F14243   0.147   6.670   2.776
  132OSM   H17G14244   0.276   6.544   2.827
  132OSM   C18F14245   0.259   6.717   2.948
  132OSM   H18F14246   0.338   6.776   2.897
  132OSM   H18G14247   0.278   6.684   3.052
  132OSM   H18H14248   0.174   6.789   2.955
  133OSM      N14249   4.502   3.303   1.909
  133OSM    C1514250   4.520   3.425   1.815
  133OSM   H15A14251   4.506   3.397   1.712
  133OSM   H15B14252   4.621   3.465   1.819
  133OSM   H15C14253   4.467   3.516   1.839
  133OSM    C1414254   4.359   3.261   1.919
  133OSM   H14A14255   4.326   3.231   1.821
  133OSM   H14B14256   4.289   3.331   1.963
  133OSM   H14C14257   4.350   3.165   1.969
  133OSM    C1314258   4.591   3.197   1.859
  133OSM   H13A14259   4.556   3.136   1.776
  133OSM   H13B14260   4.608   3.126   1.938
  133OSM   H13C14261   4.687   3.239   1.830
  133OSM    C1214262   4.555   3.337   2.045
  133OSM   H12A14263   4.500   3.420   2.087
  133OSM   H12B14264   4.655   3.378   2.033
  133OSM    C1114265   4.563   3.218   2.150
  133OSM   H11A14266   4.470   3.159   2.135
  133OSM   H11B14267   4.557   3.252   2.256
  133OSM      P14268   4.820   3.159   2.156
  133OSM    O1314269   4.896   3.037   2.151
  133OSM    O1414270   4.864   3.275   2.082
  133OSM    O1114271   4.802   3.198   2.302
  133OSM    O1214272   4.674   3.127   2.118
  133OSM    C1S14273   4.753   3.111   2.408
  133OSM    H1S14274   4.820   3.024   2.423
  133OSM    H1T14275   4.646   3.093   2.386
  133OSM     NF14276   4.735   3.105   2.655
  133OSM    HNF14277   4.645   3.095   2.695
  133OSM    C2S14278   4.750   3.196   2.539
  133OSM    H2S14279   4.853   3.239   2.535
  133OSM    C3S14280   4.658   3.314   2.524
  133OSM    H3S14281   4.556   3.285   2.491
  133OSM     O314282   4.703   3.403   2.416
  133OSM    HO314283   4.767   3.349   2.369
  133OSM    C4S14284   4.656   3.395   2.657
  133OSM    H4S14285   4.744   3.450   2.693
  133OSM    C5S14286   4.555   3.404   2.744
  133OSM    H5S14287   4.464   3.344   2.731
  133OSM    C6S14288   4.560   3.493   2.865
  133OSM    H6S14289   4.475   3.564   2.869
  133OSM    H6T14290   4.651   3.555   2.863
  133OSM    C7S14291   4.546   3.411   2.986
  133OSM    H7S14292   4.457   3.347   2.969
  133OSM    H7T14293   4.516   3.481   3.067
  133OSM    C8S14294   4.671   3.325   3.024
  133OSM    H8S14295   4.756   3.396   3.030
  133OSM    H8T14296   4.688   3.248   2.946
  133OSM    C9S14297   4.660   3.240   3.153
  133OSM    H9S14298   4.750   3.176   3.166
  133OSM    H9T14299   4.579   3.165   3.146
  133OSM   C10S14300   4.627   3.319   3.283
  133OSM   H10S14301   4.523   3.357   3.290
  133OSM   H10T14302   4.699   3.403   3.293
  133OSM   C11S14303   4.658   3.238   3.407
  133OSM   H11S14304   4.761   3.197   3.409
  133OSM   H11T14305   4.589   3.152   3.420
  133OSM   C12S14306   4.643   3.324   3.528
  133OSM   H12S14307   4.549   3.384   3.536
  133OSM   H12T14308   4.734   3.388   3.526
  133OSM   C13S14309   4.647   3.228   3.646
  133OSM   H13S14310   4.741   3.170   3.663
  133OSM   H13T14311   4.565   3.154   3.641
  133OSM   C14S14312   4.625   3.315   3.775
  133OSM   H14S14313   4.535   3.379   3.760
  133OSM   H14T14314   4.713   3.383   3.774
  133OSM   C15S14315   4.633   3.233   3.906
  133OSM   H15S14316   4.738   3.201   3.920
  133OSM   H15T14317   4.575   3.139   3.896
  133OSM   C16S14318   4.578   3.320   4.021
  133OSM   H16S14319   4.476   3.354   3.994
  133OSM   H16T14320   4.625   3.421   4.025
  133OSM   C17S14321   4.598   3.276   4.164
  133OSM   H17S14322   4.706   3.268   4.189
  133OSM   H17T14323   4.553   3.177   4.186
  133OSM   C18S14324   4.520   3.365   4.263
  133OSM   H18S14325   4.413   3.372   4.237
  133OSM   H18T14326   4.571   3.464   4.268
  133OSM   H18U14327   4.545   3.317   4.360
  133OSM    C1F14328   4.842   3.027   2.688
  133OSM     OF14329   4.955   3.060   2.654
  133OSM    C2F14330   4.811   2.906   2.771
  133OSM    H2F14331   4.763   2.820   2.718
  133OSM    H2G14332   4.738   2.940   2.848
  133OSM    C3F14333   4.939   2.858   2.840
  133OSM    H3F14334   4.973   2.941   2.905
  133OSM    H3G14335   5.020   2.831   2.769
  133OSM    C4F14336   4.902   2.739   2.929
  133OSM    H4F14337   4.996   2.686   2.957
  133OSM    H4G14338   4.844   2.670   2.865
  133OSM    C5F14339   4.821   2.782   3.053
  133OSM    H5F14340   4.772   2.687   3.082
  133OSM    H5G14341   4.753   2.868   3.036
  133OSM    C6F14342   4.902   2.828   3.167
  133OSM    H6F14343   4.954   2.922   3.137
  133OSM    H6G14344   4.979   2.755   3.199
  133OSM    C7F14345   4.803   2.867   3.286
  133OSM    H7F14346   4.734   2.939   3.238
  133OSM    H7G14347   4.860   2.917   3.367
  133OSM    C8F14348   4.721   2.756   3.342
  133OSM    H8F14349   4.660   2.718   3.257
  133OSM    H8G14350   4.646   2.805   3.408
  133OSM    C9F14351   4.789   2.643   3.413
  133OSM    H9F14352   4.851   2.582   3.345
  133OSM   C10F14353   4.796   2.636   3.548
  133OSM   H10F14354   4.833   2.543   3.593
  133OSM   C11F14355   4.740   2.731   3.650
  133OSM   H11F14356   4.636   2.702   3.676
  133OSM   H11G14357   4.733   2.835   3.611
  133OSM   C12F14358   4.824   2.730   3.783
  133OSM   H12F14359   4.921   2.777   3.758
  133OSM   H12G14360   4.827   2.624   3.814
  133OSM   C13F14361   4.746   2.826   3.880
  133OSM   H13F14362   4.647   2.786   3.911
  133OSM   H13G14363   4.720   2.924   3.835
  133OSM   C14F14364   4.837   2.852   4.001
  133OSM   H14F14365   4.886   2.951   3.993
  133OSM   H14G14366   4.927   2.787   4.006
  133OSM   C15F14367   4.762   2.855   4.125
  133OSM   H15F14368   4.718   2.757   4.153
  133OSM   H15G14369   4.678   2.927   4.115
  133OSM   C16F14370   4.862   2.900   4.234
  133OSM   H16F14371   4.856   3.008   4.258
  133OSM   H16G14372   4.967   2.876   4.203
  133OSM   C17F14373   4.835   2.827   4.373
  133OSM   H17F14374   4.885   2.728   4.364
  133OSM   H17G14375   4.726   2.813   4.391
  133OSM   C18F14376   4.884   2.914   4.483
  133OSM   H18F14377   4.879   2.881   4.589
  133OSM   H18G14378   4.831   3.011   4.487
  133OSM   H18H14379   4.992   2.938   4.474
  134OSM      N14380   4.624   5.451   2.227
  134OSM    C1514381   4.582   5.339   2.134
  134OSM   H15A14382   4.586   5.243   2.184
  134OSM   H15B14383   4.645   5.338   2.046
  134OSM   H15C14384   4.480   5.354   2.102
  134OSM    C1414385   4.615   5.589   2.155
  134OSM   H14A14386   4.687   5.598   2.075
  134OSM   H14B14387   4.660   5.661   2.221
  134OSM   H14C14388   4.515   5.609   2.122
  134OSM    C1314389   4.518   5.457   2.331
  134OSM   H13A14390   4.507   5.364   2.385
  134OSM   H13B14391   4.421   5.474   2.287
  134OSM   H13C14392   4.529   5.536   2.404
  134OSM    C1214393   4.758   5.420   2.290
  134OSM   H12A14394   4.833   5.396   2.216
  134OSM   H12B14395   4.755   5.329   2.348
  134OSM    C1114396   4.820   5.537   2.372
  134OSM   H11A14397   4.888   5.487   2.444
  134OSM   H11B14398   4.746   5.596   2.431
  134OSM      P14399   5.036   5.629   2.267
  134OSM    O1314400   5.102   5.506   2.318
  134OSM    O1414401   5.059   5.660   2.124
  134OSM    O1114402   5.082   5.759   2.347
  134OSM    O1214403   4.883   5.635   2.285
  134OSM    C1S14404   5.051   5.778   2.487
  134OSM    H1S14405   4.949   5.751   2.522
  134OSM    H1T14406   5.059   5.886   2.508
  134OSM     NF14407   5.123   5.703   2.718
  134OSM    HNF14408   5.193   5.752   2.770
  134OSM    C2S14409   5.157   5.705   2.575
  134OSM    H2S14410   5.149   5.598   2.546
  134OSM    C3S14411   5.298   5.753   2.545
  134OSM    H3S14412   5.306   5.849   2.599
  134OSM     O314413   5.331   5.783   2.407
  134OSM    HO314414   5.250   5.762   2.360
  134OSM    C4S14415   5.405   5.674   2.599
  134OSM    H4S14416   5.422   5.710   2.701
  134OSM    C5S14417   5.472   5.566   2.555
  134OSM    H5S14418   5.456   5.516   2.457
  134OSM    C6S14419   5.588   5.506   2.630
  134OSM    H6S14420   5.666   5.514   2.551
  134OSM    H6T14421   5.566   5.397   2.634
  134OSM    C7S14422   5.633   5.563   2.770
  134OSM    H7S14423   5.552   5.527   2.837
  134OSM    H7T14424   5.655   5.671   2.760
  134OSM    C8S14425   5.758   5.488   2.816
  134OSM    H8S14426   5.825   5.500   2.728
  134OSM    H8T14427   5.738   5.380   2.828
  134OSM    C9S14428   5.826   5.561   2.932
  134OSM    H9S14429   5.838   5.669   2.909
  134OSM    H9T14430   5.918   5.501   2.952
  134OSM   C10S14431   5.745   5.556   3.065
  134OSM   H10S14432   5.714   5.450   3.080
  134OSM   H10T14433   5.648   5.609   3.050
  134OSM   C11S14434   5.821   5.599   3.195
  134OSM   H11S14435   5.845   5.707   3.200
  134OSM   H11T14436   5.917   5.545   3.177
  134OSM   C12S14437   5.759   5.535   3.322
  134OSM   H12S14438   5.747   5.425   3.309
  134OSM   H12T14439   5.663   5.582   3.349
  134OSM   C13S14440   5.849   5.544   3.445
  134OSM   H13S14441   5.939   5.483   3.419
  134OSM   H13T14442   5.809   5.489   3.532
  134OSM   C14S14443   5.880   5.688   3.481
  134OSM   H14S14444   5.799   5.753   3.441
  134OSM   H14T14445   5.974   5.717   3.429
  134OSM   C15S14446   5.895   5.716   3.629
  134OSM   H15S14447   5.823   5.656   3.688
  134OSM   H15T14448   5.869   5.821   3.658
  134OSM   C16S14449   6.034   5.679   3.683
  134OSM   H16S14450   6.117   5.719   3.620
  134OSM   H16T14451   6.045   5.569   3.687
  134OSM   C17S14452   6.060   5.734   3.822
  134OSM   H17S14453   5.981   5.696   3.890
  134OSM   H17T14454   6.040   5.843   3.814
  134OSM   C18S14455   6.209   5.712   3.859
  134OSM   H18S14456   6.235   5.775   3.946
  134OSM   H18T14457   6.286   5.747   3.786
  134OSM   H18U14458   6.237   5.606   3.876
  134OSM    C1F14459   5.010   5.657   2.778
  134OSM     OF14460   4.922   5.600   2.724
  134OSM    C2F14461   5.000   5.696   2.920
  134OSM    H2F14462   5.000   5.807   2.917
  134OSM    H2G14463   5.083   5.654   2.980
  134OSM    C3F14464   4.878   5.632   3.000
  134OSM    H3F14465   4.890   5.528   3.037
  134OSM    H3G14466   4.787   5.652   2.940
  134OSM    C4F14467   4.827   5.718   3.118
  134OSM    H4F14468   4.907   5.733   3.194
  134OSM    H4G14469   4.746   5.659   3.165
  134OSM    C5F14470   4.766   5.857   3.082
  134OSM    H5F14471   4.684   5.843   3.009
  134OSM    H5G14472   4.842   5.924   3.037
  134OSM    C6F14473   4.735   5.944   3.205
  134OSM    H6F14474   4.697   6.046   3.181
  134OSM    H6G14475   4.827   5.967   3.263
  134OSM    C7F14476   4.633   5.885   3.303
  134OSM    H7F14477   4.644   5.953   3.390
  134OSM    H7G14478   4.655   5.779   3.327
  134OSM    C8F14479   4.484   5.887   3.251
  134OSM    H8F14480   4.429   5.813   3.313
  134OSM    H8G14481   4.484   5.846   3.148
  134OSM    C9F14482   4.420   6.020   3.254
  134OSM    H9F14483   4.482   6.108   3.230
  134OSM   C10F14484   4.308   6.053   3.320
  134OSM   H10F14485   4.279   6.159   3.319
  134OSM   C11F14486   4.199   5.960   3.376
  134OSM   H11F14487   4.219   5.853   3.356
  134OSM   H11G14488   4.101   5.976   3.326
  134OSM   C12F14489   4.185   5.997   3.528
  134OSM   H12F14490   4.156   6.104   3.534
  134OSM   H12G14491   4.282   5.981   3.581
  134OSM   C13F14492   4.098   5.901   3.602
  134OSM   H13F14493   4.145   5.804   3.630
  134OSM   H13G14494   4.011   5.868   3.541
  134OSM   C14F14495   4.062   5.950   3.746
  134OSM   H14F14496   3.990   6.035   3.743
  134OSM   H14G14497   4.152   5.999   3.790
  134OSM   C15F14498   4.013   5.843   3.847
  134OSM   H15F14499   4.013   5.888   3.949
  134OSM   H15G14500   4.081   5.756   3.839
  134OSM   C16F14501   3.872   5.800   3.822
  134OSM   H16F14502   3.819   5.885   3.775
  134OSM   H16G14503   3.820   5.785   3.920
  134OSM   C17F14504   3.856   5.680   3.735
  134OSM   H17F14505   3.902   5.594   3.789
  134OSM   H17G14506   3.915   5.699   3.643
  134OSM   C18F14507   3.713   5.644   3.709
  134OSM   H18F14508   3.652   5.646   3.802
  134OSM   H18G14509   3.703   5.542   3.667
  134OSM   H18H14510   3.663   5.722   3.647
  135OSM      N14511   6.785   2.059   1.818
  135OSM    C1514512   6.715   2.157   1.732
  135OSM   H15A14513   6.761   2.254   1.744
  135OSM   H15B14514   6.610   2.161   1.754
  135OSM   H15C14515   6.718   2.134   1.627
  135OSM    C1414516   6.786   2.112   1.957
  135OSM   H14A14517   6.824   2.032   2.018
  135OSM   H14B14518   6.686   2.127   1.996
  135OSM   H14C14519   6.843   2.202   1.974
  135OSM    C1314520   6.715   1.928   1.813
  135OSM   H13A14521   6.703   1.892   1.712
  135OSM   H13B14522   6.615   1.927   1.854
  135OSM   H13C14523   6.756   1.846   1.871
  135OSM    C1214524   0.014   2.040   1.770
  135OSM   H12A14525   0.063   2.134   1.753
  135OSM   H12B14526   0.011   2.007   1.667
  135OSM    C1114527   0.105   1.937   1.852
  135OSM   H11A14528   0.097   1.960   1.961
  135OSM   H11B14529   0.207   1.952   1.813
  135OSM      P14530   0.154   1.680   1.898
  135OSM    O1314531   0.080   1.557   1.868
  135OSM    O1414532   0.292   1.684   1.848
  135OSM    O1114533   0.153   1.711   2.051
  135OSM    O1214534   0.075   1.801   1.835
  135OSM    C1S14535   0.058   1.631   2.124
  135OSM    H1S14536   0.083   1.523   2.117
  135OSM    H1T14537   6.864   1.651   2.096
  135OSM     NF14538   6.903   1.561   2.362
  135OSM    HNF14539   6.807   1.582   2.379
  135OSM    C2S14540   0.064   1.660   2.283
  135OSM    H2S14541   0.169   1.645   2.314
  135OSM    C3S14542   0.008   1.804   2.314
  135OSM    H3S14543   6.810   1.799   2.302
  135OSM     O314544   0.054   1.905   2.225
  135OSM    HO314545   0.106   1.855   2.162
  135OSM    C4S14546   0.040   1.837   2.453
  135OSM    H4S14547   0.144   1.871   2.462
  135OSM    C5S14548   6.875   1.830   2.566
  135OSM    H5S14549   6.781   1.775   2.549
  135OSM    C6S14550   0.006   1.863   2.708
  135OSM    H6S14551   6.853   1.935   2.762
  135OSM    H6T14552   0.097   1.925   2.700
  135OSM    C7S14553   0.029   1.734   2.790
  135OSM    H7S14554   0.067   1.760   2.891
  135OSM    H7T14555   0.114   1.684   2.739
  135OSM    C8S14556   6.816   1.644   2.802
  135OSM    H8S14557   6.782   1.608   2.702
  135OSM    H8T14558   6.735   1.701   2.852
  135OSM    C9S14559   6.846   1.520   2.872
  135OSM    H9S14560   0.025   1.469   2.834
  135OSM    H9T14561   6.756   1.455   2.866
  135OSM   C10S14562   6.870   1.527   3.025
  135OSM   H10S14563   0.007   1.623   3.051
  135OSM   H10T14564   0.014   1.437   3.059
  135OSM   C11S14565   6.742   1.523   3.112
  135OSM   H11S14566   6.676   1.437   3.084
  135OSM   H11T14567   6.687   1.617   3.092
  135OSM   C12S14568   6.782   1.507   3.262
  135OSM   H12S14569   6.875   1.446   3.261
  135OSM   H12T14570   6.706   1.442   3.311
  135OSM   C13S14571   6.797   1.632   3.343
  135OSM   H13S14572   6.710   1.698   3.324
  135OSM   H13T14573   6.884   1.691   3.307
  135OSM   C14S14574   6.810   1.617   3.492
  135OSM   H14S14575   6.867   1.522   3.502
  135OSM   H14T14576   6.715   1.602   3.548
  135OSM   C15S14577   6.887   1.730   3.562
  135OSM   H15S14578   0.041   1.772   3.484
  135OSM   H15T14579   0.047   1.697   3.639
  135OSM   C16S14580   6.796   1.836   3.613
  135OSM   H16S14581   6.730   1.784   3.686
  135OSM   H16T14582   6.731   1.870   3.530
  135OSM   C17S14583   6.867   1.955   3.681
  135OSM   H17S14584   6.788   2.025   3.717
  135OSM   H17T14585   0.017   2.006   3.604
  135OSM   C18S14586   0.048   1.918   3.794
  135OSM   H18S14587   0.124   1.844   3.762
  135OSM   H18T14588   6.896   1.869   3.870
  135OSM   H18U14589   0.099   2.002   3.844
  135OSM    C1F14590   0.035   1.434   2.369
  135OSM     OF14591   0.142   1.390   2.321
  135OSM    C2F14592   6.849   1.338   2.436
  135OSM    H2F14593   6.780   1.300   2.358
  135OSM    H2G14594   6.798   1.395   2.516
  135OSM    C3F14595   0.008   1.213   2.484
  135OSM    H3F14596   0.097   1.244   2.543
  135OSM    H3G14597   0.040   1.143   2.404
  135OSM    C4F14598   6.844   1.123   2.585
  135OSM    H4F14599   6.891   1.022   2.593
  135OSM    H4G14600   6.738   1.111   2.554
  135OSM    C5F14601   6.841   1.190   2.718
  135OSM    H5F14602   6.769   1.274   2.708
  135OSM    H5G14603   0.030   1.234   2.734
  135OSM    C6F14604   6.800   1.095   2.832
  135OSM    H6F14605   6.874   1.014   2.849
  135OSM    H6G14606   6.698   1.055   2.815
  135OSM    C7F14607   6.785   1.180   2.962
  135OSM    H7F14608   6.690   1.236   2.947
  135OSM    H7G14609   6.875   1.245   2.966
  135OSM    C8F14610   6.785   1.106   3.101
  135OSM    H8F14611   6.789   1.188   3.176
  135OSM    H8G14612   6.868   1.032   3.099
  135OSM    C9F14613   6.663   1.018   3.126
  135OSM    H9F14614   6.650   0.932   3.058
  135OSM   C10F14615   6.575   1.038   3.223
  135OSM   H10F14616   6.480   0.984   3.226
  135OSM   C11F14617   6.575   1.152   3.327
  135OSM   H11F14618   6.471   1.151   3.368
  135OSM   H11G14619   6.591   1.251   3.279
  135OSM   C12F14620   6.656   1.131   3.450
  135OSM   H12F14621   6.767   1.136   3.436
  135OSM   H12G14622   6.631   1.032   3.495
  135OSM   C13F14623   6.622   1.226   3.561
  135OSM   H13F14624   6.527   1.203   3.615
  135OSM   H13G14625   6.610   1.329   3.522
  135OSM   C14F14626   6.722   1.221   3.672
  135OSM   H14F14627   6.826   1.191   3.646
  135OSM   H14G14628   6.690   1.135   3.735
  135OSM   C15F14629   6.729   1.345   3.760
  135OSM   H15F14630   6.716   1.441   3.705
  135OSM   H15G14631   6.828   1.361   3.808
  135OSM   C16F14632   6.640   1.357   3.891
  135OSM   H16F14633   6.674   1.453   3.936
  135OSM   H16G14634   6.660   1.264   3.949
  135OSM   C17F14635   6.488   1.351   3.865
  135OSM   H17F14636   6.465   1.253   3.818
  135OSM   H17G14637   6.457   1.435   3.799
  135OSM   C18F14638   6.410   1.363   3.997
  135OSM   H18F14639   6.445   1.294   4.076
  135OSM   H18G14640   6.302   1.339   3.991
  135OSM   H18H14641   6.422   1.465   4.040
  136OSM      N14642   2.037   4.478   1.564
  136OSM    C1514643   2.013   4.344   1.516
  136OSM   H15A14644   2.096   4.277   1.532
  136OSM   H15B14645   1.970   4.351   1.417
  136OSM   H15C14646   1.933   4.297   1.572
  136OSM    C1414647   2.141   4.549   1.472
  136OSM   H14A14648   2.229   4.486   1.480
  136OSM   H14B14649   2.171   4.645   1.511
  136OSM   H14C14650   2.110   4.567   1.370
  136OSM    C1314651   1.912   4.552   1.566
  136OSM   H13A14652   1.850   4.484   1.623
  136OSM   H13B14653   1.880   4.576   1.466
  136OSM   H13C14654   1.940   4.641   1.620
  136OSM    C1214655   2.101   4.469   1.699
  136OSM   H12A14656   2.207   4.456   1.682
  136OSM   H12B14657   2.056   4.387   1.754
  136OSM    C1114658   2.079   4.591   1.794
  136OSM   H11A14659   2.129   4.560   1.888
  136OSM   H11B14660   1.971   4.606   1.816
  136OSM      P14661   2.284   4.740   1.741
  136OSM    O1314662   2.360   4.613   1.729
  136OSM    O1414663   2.314   4.838   1.632
  136OSM    O1114664   2.299   4.790   1.890
  136OSM    O1214665   2.129   4.715   1.734
  136OSM    C1S14666   2.200   4.859   1.966
  136OSM    H1S14667   2.096   4.824   1.952
  136OSM    H1T14668   2.202   4.969   1.951
  136OSM     NF14669   2.112   4.880   2.203
  136OSM    HNF14670   2.117   4.974   2.234
  136OSM    C2S14671   2.226   4.842   2.126
  136OSM    H2S14672   2.251   4.738   2.153
  136OSM    C3S14673   2.349   4.917   2.162
  136OSM    H3S14674   2.324   5.025   2.150
  136OSM     O314675   2.466   4.882   2.084
  136OSM    HO314676   2.440   4.830   2.008
  136OSM    C4S14677   2.383   4.895   2.306
  136OSM    H4S14678   2.340   4.981   2.360
  136OSM    C5S14679   2.460   4.802   2.372
  136OSM    H5S14680   2.511   4.716   2.326
  136OSM    C6S14681   2.485   4.820   2.520
  136OSM    H6S14682   2.466   4.926   2.548
  136OSM    H6T14683   2.594   4.811   2.535
  136OSM    C7S14684   2.413   4.716   2.614
  136OSM    H7S14685   2.426   4.614   2.571
  136OSM    H7T14686   2.306   4.730   2.639
  136OSM    C8S14687   2.482   4.707   2.752
  136OSM    H8S14688   2.449   4.789   2.819
  136OSM    H8T14689   2.593   4.709   2.749
  136OSM    C9S14690   2.455   4.577   2.831
  136OSM    H9S14691   2.531   4.511   2.784
  136OSM    H9T14692   2.355   4.540   2.800
  136OSM   C10S14693   2.458   4.591   2.985
  136OSM   H10S14694   2.369   4.645   3.025
  136OSM   H10T14695   2.549   4.650   3.011
  136OSM   C11S14696   2.473   4.455   3.058
  136OSM   H11S14697   2.555   4.393   3.014
  136OSM   H11T14698   2.382   4.393   3.045
  136OSM   C12S14699   2.492   4.491   3.212
  136OSM   H12S14700   2.403   4.555   3.226
  136OSM   H12T14701   2.578   4.560   3.220
  136OSM   C13S14702   2.500   4.371   3.300
  136OSM   H13S14703   2.599   4.322   3.288
  136OSM   H13T14704   2.418   4.300   3.276
  136OSM   C14S14705   2.482   4.389   3.450
  136OSM   H14S14706   2.512   4.294   3.500
  136OSM   H14T14707   2.374   4.408   3.469
  136OSM   C15S14708   2.554   4.506   3.514
  136OSM   H15S14709   2.510   4.593   3.462
  136OSM   H15T14710   2.661   4.509   3.485
  136OSM   C16S14711   2.537   4.506   3.666
  136OSM   H16S14712   2.591   4.421   3.712
  136OSM   H16T14713   2.432   4.495   3.700
  136OSM   C17S14714   2.595   4.632   3.731
  136OSM   H17S14715   2.542   4.720   3.689
  136OSM   H17T14716   2.703   4.633   3.703
  136OSM   C18S14717   2.585   4.624   3.881
  136OSM   H18S14718   2.620   4.721   3.924
  136OSM   H18T14719   2.663   4.554   3.920
  136OSM   H18U14720   2.484   4.596   3.916
  136OSM    C1F14721   2.006   4.811   2.214
  136OSM     OF14722   2.004   4.688   2.187
  136OSM    C2F14723   1.891   4.878   2.272
  136OSM    H2F14724   1.812   4.881   2.194
  136OSM    H2G14725   1.921   4.981   2.302
  136OSM    C3F14726   1.833   4.796   2.391
  136OSM    H3F14727   1.833   4.691   2.352
  136OSM    H3G14728   1.732   4.836   2.410
  136OSM    C4F14729   1.924   4.789   2.513
  136OSM    H4F14730   1.935   4.887   2.564
  136OSM    H4G14731   2.029   4.769   2.483
  136OSM    C5F14732   1.870   4.687   2.610
  136OSM    H5F14733   1.861   4.595   2.548
  136OSM    H5G14734   1.770   4.717   2.648
  136OSM    C6F14735   1.963   4.629   2.715
  136OSM    H6F14736   2.050   4.586   2.660
  136OSM    H6G14737   1.916   4.546   2.772
  136OSM    C7F14738   2.018   4.744   2.805
  136OSM    H7F14739   1.927   4.786   2.853
  136OSM    H7G14740   2.087   4.816   2.756
  136OSM    C8F14741   2.105   4.679   2.919
  136OSM    H8F14742   2.191   4.630   2.869
  136OSM    H8G14743   2.044   4.599   2.967
  136OSM    C9F14744   2.137   4.782   3.027
  136OSM    H9F14745   2.184   4.876   2.995
  136OSM   C10F14746   2.113   4.770   3.157
  136OSM   H10F14747   2.147   4.852   3.222
  136OSM   C11F14748   2.057   4.654   3.237
  136OSM   H11F14749   2.137   4.585   3.271
  136OSM   H11G14750   1.991   4.598   3.167
  136OSM   C12F14751   1.985   4.692   3.368
  136OSM   H12F14752   1.909   4.613   3.384
  136OSM   H12G14753   1.927   4.786   3.354
  136OSM   C13F14754   2.089   4.714   3.482
  136OSM   H13F14755   2.119   4.821   3.483
  136OSM   H13G14756   2.183   4.655   3.477
  136OSM   C14F14757   2.038   4.679   3.621
  136OSM   H14F14758   2.005   4.573   3.615
  136OSM   H14G14759   1.947   4.741   3.637
  136OSM   C15F14760   2.138   4.695   3.735
  136OSM   H15F14761   2.175   4.799   3.741
  136OSM   H15G14762   2.229   4.636   3.710
  136OSM   C16F14763   2.094   4.661   3.880
  136OSM   H16F14764   2.162   4.710   3.954
  136OSM   H16G14765   2.105   4.553   3.904
  136OSM   C17F14766   1.953   4.703   3.924
  136OSM   H17F14767   1.935   4.811   3.904
  136OSM   H17G14768   1.952   4.707   4.035
  136OSM   C18F14769   1.841   4.613   3.877
  136OSM   H18F14770   1.739   4.655   3.894
  136OSM   H18G14771   1.846   4.516   3.930
  136OSM   H18H14772   1.852   4.593   3.768
  137OSM      N14773   0.939   2.541   2.000
  137OSM    C1514774   1.058   2.558   2.090
  137OSM   H15A14775   1.130   2.480   2.070
  137OSM   H15B14776   1.027   2.541   2.192
  137OSM   H15C14777   1.109   2.652   2.076
  137OSM    C1414778   0.840   2.646   2.049
  137OSM   H14A14779   0.807   2.621   2.149
  137OSM   H14B14780   0.753   2.646   1.986
  137OSM   H14C14781   0.889   2.741   2.063
  137OSM    C1314782   0.973   2.580   1.856
  137OSM   H13A14783   1.061   2.530   1.818
  137OSM   H13B14784   0.981   2.688   1.858
  137OSM   H13C14785   0.890   2.553   1.793
  137OSM    C1214786   0.873   2.402   2.009
  137OSM   H12A14787   0.831   2.382   2.106
  137OSM   H12B14788   0.945   2.322   1.999
  137OSM    C1114789   0.757   2.376   1.907
  137OSM   H11A14790   0.730   2.277   1.949
  137OSM   H11B14791   0.792   2.360   1.803
  137OSM      P14792   0.522   2.440   2.003
  137OSM    O1314793   0.426   2.555   1.990
  137OSM    O1414794   0.475   2.299   1.975
  137OSM    O1114795   0.592   2.447   2.150
  137OSM    O1214796   0.651   2.471   1.909
  137OSM    C1S14797   0.523   2.365   2.251
  137OSM    H1S14798   0.520   2.262   2.210
  137OSM    H1T14799   0.420   2.407   2.250
  137OSM     NF14800   0.495   2.286   2.475
  137OSM    HNF14801   0.427   2.329   2.534
  137OSM    C2S14802   0.581   2.370   2.394
  137OSM    H2S14803   0.679   2.319   2.380
  137OSM    C3S14804   0.629   2.511   2.441
  137OSM    H3S14805   0.542   2.581   2.444
  137OSM     O314806   0.711   2.582   2.346
  137OSM    HO314807   0.693   2.542   2.261
  137OSM    C4S14808   0.691   2.518   2.579
  137OSM    H4S14809   0.623   2.543   2.662
  137OSM    C5S14810   0.827   2.513   2.613
  137OSM    H5S14811   0.909   2.517   2.540
  137OSM    C6S14812   0.890   2.513   2.757
  137OSM    H6S14813   0.979   2.579   2.758
  137OSM    H6T14814   0.931   2.410   2.769
  137OSM    C7S14815   0.810   2.553   2.879
  137OSM    H7S14816   0.717   2.494   2.867
  137OSM    H7T14817   0.783   2.661   2.880
  137OSM    C8S14818   0.882   2.525   3.018
  137OSM    H8S14819   0.976   2.584   3.023
  137OSM    H8T14820   0.911   2.418   3.015
  137OSM    C9S14821   0.801   2.547   3.146
  137OSM    H9S14822   0.702   2.497   3.156
  137OSM    H9T14823   0.786   2.657   3.151
  137OSM   C10S14824   0.883   2.500   3.264
  137OSM   H10S14825   0.990   2.531   3.253
  137OSM   H10T14826   0.873   2.390   3.274
  137OSM   C11S14827   0.837   2.574   3.395
  137OSM   H11S14828   0.729   2.546   3.403
  137OSM   H11T14829   0.851   2.683   3.379
  137OSM   C12S14830   0.930   2.546   3.512
  137OSM   H12S14831   1.027   2.587   3.475
  137OSM   H12T14832   0.945   2.437   3.526
  137OSM   C13S14833   0.893   2.629   3.634
  137OSM   H13S14834   0.794   2.588   3.665
  137OSM   H13T14835   0.869   2.734   3.609
  137OSM   C14S14836   0.998   2.616   3.740
  137OSM   H14S14837   1.086   2.672   3.701
  137OSM   H14T14838   1.025   2.509   3.751
  137OSM   C15S14839   0.941   2.680   3.865
  137OSM   H15S14840   0.902   2.784   3.861
  137OSM   H15T14841   1.025   2.692   3.936
  137OSM   C16S14842   0.834   2.590   3.934
  137OSM   H16S14843   0.868   2.487   3.914
  137OSM   H16T14844   0.732   2.609   3.893
  137OSM   C17S14845   0.829   2.613   4.088
  137OSM   H17S14846   0.824   2.722   4.108
  137OSM   H17T14847   0.925   2.573   4.127
  137OSM   C18S14848   0.708   2.550   4.150
  137OSM   H18S14849   0.608   2.581   4.113
  137OSM   H18T14850   0.713   2.584   4.256
  137OSM   H18U14851   0.724   2.440   4.152
  137OSM    C1F14852   0.494   2.155   2.468
  137OSM     OF14853   0.575   2.097   2.400
  137OSM    C2F14854   0.387   2.082   2.548
  137OSM    H2F14855   0.341   2.005   2.483
  137OSM    H2G14856   0.304   2.156   2.557
  137OSM    C3F14857   0.430   2.020   2.677
  137OSM    H3F14858   0.524   1.963   2.656
  137OSM    H3G14859   0.358   1.940   2.704
  137OSM    C4F14860   0.451   2.110   2.792
  137OSM    H4F14861   0.543   2.170   2.778
  137OSM    H4G14862   0.461   2.039   2.877
  137OSM    C5F14863   0.331   2.197   2.829
  137OSM    H5F14864   0.230   2.150   2.827
  137OSM    H5G14865   0.314   2.286   2.764
  137OSM    C6F14866   0.339   2.244   2.975
  137OSM    H6F14867   0.334   2.159   3.047
  137OSM    H6G14868   0.246   2.298   3.006
  137OSM    C7F14869   0.460   2.325   3.009
  137OSM    H7F14870   0.550   2.291   2.954
  137OSM    H7G14871   0.475   2.324   3.119
  137OSM    C8F14872   0.434   2.471   2.975
  137OSM    H8F14873   0.435   2.464   2.865
  137OSM    H8G14874   0.523   2.524   3.016
  137OSM    C9F14875   0.318   2.550   3.030
  137OSM    H9F14876   0.246   2.576   2.950
  137OSM   C10F14877   0.291   2.587   3.157
  137OSM   H10F14878   0.221   2.669   3.179
  137OSM   C11F14879   0.369   2.545   3.283
  137OSM   H11F14880   0.396   2.638   3.337
  137OSM   H11G14881   0.466   2.500   3.251
  137OSM   C12F14882   0.289   2.450   3.364
  137OSM   H12F14883   0.247   2.360   3.315
  137OSM   H12G14884   0.212   2.507   3.422
  137OSM   C13F14885   0.378   2.392   3.476
  137OSM   H13F14886   0.429   2.483   3.516
  137OSM   H13G14887   0.451   2.326   3.425
  137OSM   C14F14888   0.300   2.311   3.590
  137OSM   H14F14889   0.238   2.230   3.546
  137OSM   H14G14890   0.218   2.376   3.627
  137OSM   C15F14891   0.383   2.263   3.711
  137OSM   H15F14892   0.455   2.184   3.681
  137OSM   H15G14893   0.320   2.209   3.785
  137OSM   C16F14894   0.468   2.369   3.789
  137OSM   H16F14895   0.398   2.452   3.814
  137OSM   H16G14896   0.546   2.409   3.721
  137OSM   C17F14897   0.547   2.317   3.911
  137OSM   H17F14898   0.620   2.396   3.935
  137OSM   H17G14899   0.588   2.216   3.889
  137OSM   C18F14900   0.464   2.295   4.039
  137OSM   H18F14901   0.516   2.304   4.137
  137OSM   H18G14902   0.429   2.189   4.039
  137OSM   H18H14903   0.373   2.358   4.042
  138OSM      N14904   5.352   0.146   2.302
  138OSM    C1514905   5.218   0.084   2.341
  138OSM   H15A14906   5.139   0.156   2.358
  138OSM   H15B14907   5.233   0.040   2.439
  138OSM   H15C14908   5.180   0.009   2.273
  138OSM    C1414909   5.329   0.254   2.190
  138OSM   H14A14910   5.288   0.197   2.108
  138OSM   H14B14911   5.422   0.301   2.160
  138OSM   H14C14912   5.259   0.331   2.220
  138OSM    C1314913   5.397   0.226   2.417
  138OSM   H13A14914   5.456   0.160   2.479
  138OSM   H13B14915   5.316   0.279   2.464
  138OSM   H13C14916   5.474   0.295   2.386
  138OSM    C1214917   5.453   0.035   2.257
  138OSM   H12A14918   5.526   0.075   2.188
  138OSM   H12B14919   5.395   6.878   2.198
  138OSM    C1114920   5.525   6.870   2.359
  138OSM   H11A14921   5.575   0.014   2.442
  138OSM   H11B14922   5.594   6.805   2.301
  138OSM      P14923   5.466   6.690   2.529
  138OSM    O1314924   5.351   6.601   2.568
  138OSM    O1414925   5.583   6.608   2.489
  138OSM    O1114926   5.501   6.783   2.655
  138OSM    O1214927   5.431   6.787   2.409
  138OSM    C1S14928   5.401   6.882   2.689
  138OSM    H1S14929   5.303   6.834   2.670
  138OSM    H1T14930   5.418   0.066   2.636
  138OSM     NF14931   5.309   0.071   2.900
  138OSM    HNF14932   5.309   0.171   2.903
  138OSM    C2S14933   5.426   0.015   2.841
  138OSM    H2S14934   5.446   6.834   2.899
  138OSM    C3S14935   5.549   0.105   2.850
  138OSM    H3S14936   5.525   0.199   2.797
  138OSM     O314937   5.670   0.049   2.793
  138OSM    HO314938   5.629   6.893   2.740
  138OSM    C4S14939   5.565   0.146   3.001
  138OSM    H4S14940   5.517   0.243   3.021
  138OSM    C5S14941   5.625   0.080   3.100
  138OSM    H5S14942   5.672   6.896   3.076
  138OSM    C6S14943   5.651   0.123   3.237
  138OSM    H6S14944   5.647   0.234   3.244
  138OSM    H6T14945   5.754   0.095   3.269
  138OSM    C7S14946   5.553   0.062   3.341
  138OSM    H7S14947   5.575   6.866   3.352
  138OSM    H7T14948   5.446   0.065   3.310
  138OSM    C8S14949   5.555   0.137   3.481
  138OSM    H8S14950   5.451   0.123   3.518
  138OSM    H8T14951   5.578   0.245   3.479
  138OSM    C9S14952   5.652   0.087   3.585
  138OSM    H9S14953   5.754   0.104   3.544
  138OSM    H9T14954   5.623   6.893   3.599
  138OSM   C10S14955   5.649   0.156   3.728
  138OSM   H10S14956   5.545   0.158   3.768
  138OSM   H10T14957   5.683   0.261   3.724
  138OSM   C11S14958   5.724   0.076   3.832
  138OSM   H11S14959   5.668   6.893   3.848
  138OSM   H11T14960   5.715   0.142   3.921
  138OSM   C12S14961   5.872   0.059   3.816
  138OSM   H12S14962   5.920   0.159   3.819
  138OSM   H12T14963   5.901   0.015   3.719
  138OSM   C13S14964   5.946   6.890   3.921
  138OSM   H13S14965   6.054   6.877   3.897
  138OSM   H13T14966   5.900   6.790   3.915
  138OSM   C14S14967   5.945   0.026   4.063
  138OSM   H14S14968   5.842   0.017   4.103
  138OSM   H14T14969   5.982   0.130   4.057
  138OSM   C15S14970   6.016   6.846   4.154
  138OSM   H15S14971   5.974   6.746   4.134
  138OSM   H15T14972   5.982   6.865   4.258
  138OSM   C16S14973   6.179   6.841   4.144
  138OSM   H16S14974   6.202   6.856   4.037
  138OSM   H16T14975   6.220   6.742   4.174
  138OSM   C17S14976   6.253   0.049   4.211
  138OSM   H17S14977   6.255   0.033   4.321
  138OSM   H17T14978   6.184   0.136   4.202
  138OSM   C18S14979   6.396   0.074   4.163
  138OSM   H18S14980   6.434   6.892   4.120
  138OSM   H18T14981   6.455   0.116   4.247
  138OSM   H18U14982   6.392   0.159   4.091
  138OSM    C1F14983   5.208   6.901   2.940
  138OSM     OF14984   5.215   6.785   2.918
  138OSM    C2F14985   5.083   0.046   2.995
  138OSM    H2F14986   5.013   0.054   2.909
  138OSM    H2G14987   5.101   0.148   3.033
  138OSM    C3F14988   5.019   6.881   3.113
  138OSM    H3F14989   4.969   6.787   3.080
  138OSM    H3G14990   4.945   0.032   3.166
  138OSM    C4F14991   5.115   6.835   3.226
  138OSM    H4F14992   5.183   0.006   3.252
  138OSM    H4G14993   5.188   6.759   3.192
  138OSM    C5F14994   5.047   6.799   3.362
  138OSM    H5F14995   4.984   6.708   3.350
  138OSM    H5G14996   4.983   6.886   3.390
  138OSM    C6F14997   5.147   6.750   3.471
  138OSM    H6F14998   5.227   6.827   3.472
  138OSM    H6G14999   5.207   6.662   3.440
  138OSM    C7F15000   5.074   6.729   3.606
  138OSM    H7F15001   4.991   6.657   3.589
  138OSM    H7G15002   5.033   6.825   3.645
  138OSM    C8F15003   5.164   6.663   3.712
  138OSM    H8F15004   5.203   6.570   3.665
  138OSM    H8G15005   5.109   6.636   3.805
  138OSM    C9F15006   5.270   6.751   3.760
  138OSM    H9F15007   5.233   6.842   3.810
  138OSM   C10F15008   5.403   6.726   3.774
  138OSM   H10F15009   5.463   6.804   3.823
  138OSM   C11F15010   5.471   6.600   3.721
  138OSM   H11F15011   5.569   6.622   3.675
  138OSM   H11G15012   5.415   6.537   3.650
  138OSM   C12F15013   5.491   6.503   3.842
  138OSM   H12F15014   5.499   6.398   3.807
  138OSM   H12G15015   5.395   6.498   3.898
  138OSM   C13F15016   5.608   6.534   3.938
  138OSM   H13F15017   5.609   6.639   3.975
  138OSM   H13G15018   5.697   6.519   3.873
  138OSM   C14F15019   5.632   6.443   4.057
  138OSM   H14F15020   5.619   6.340   4.018
  138OSM   H14G15021   5.568   6.471   4.143
  138OSM   C15F15022   5.773   6.457   4.124
  138OSM   H15F15023   5.780   6.567   4.137
  138OSM   H15G15024   5.851   6.419   4.054
  138OSM   C16F15025   5.772   6.379   4.258
  138OSM   H16F15026   5.751   6.270   4.251
  138OSM   H16G15027   5.690   6.422   4.319
  138OSM   C17F15028   5.903   6.409   4.340
  138OSM   H17F15029   5.983   6.350   4.291
  138OSM   H17G15030   5.902   6.354   4.437
  138OSM   C18F15031   5.955   6.550   4.351
  138OSM   H18F15032   6.011   6.566   4.256
  138OSM   H18G15033   6.035   6.561   4.427
  138OSM   H18H15034   5.879   6.627   4.372
  139OSM      N15035   0.751   1.592   1.488
  139OSM    C1515036   0.672   1.464   1.479
  139OSM   H15A15037   0.589   1.456   1.548
  139OSM   H15B15038   0.736   1.388   1.521
  139OSM   H15C15039   0.642   1.435   1.380
  139OSM    C1415040   0.877   1.578   1.404
  139OSM   H14A15041   0.943   1.516   1.462
  139OSM   H14B15042   0.924   1.676   1.396
  139OSM   H14C15043   0.865   1.540   1.304
  139OSM    C1315044   0.666   1.708   1.440
  139OSM   H13A15045   0.572   1.710   1.492
  139OSM   H13B15046   0.637   1.690   1.337
  139OSM   H13C15047   0.728   1.796   1.439
  139OSM    C1215048   0.783   1.625   1.630
  139OSM   H12A15049   0.688   1.616   1.679
  139OSM   H12B15050   0.785   1.732   1.644
  139OSM    C1115051   0.892   1.549   1.703
  139OSM   H11A15052   0.931   1.581   1.802
  139OSM   H11B15053   0.984   1.558   1.641
  139OSM      P15054   0.778   1.370   1.849
  139OSM    O1315055   0.634   1.400   1.837
  139OSM    O1415056   0.810   1.223   1.881
  139OSM    O1115057   0.837   1.455   1.963
  139OSM    O1215058   0.866   1.408   1.718
  139OSM    C1S15059   0.750   1.536   2.044
  139OSM    H1S15060   0.641   1.514   2.045
  139OSM    H1T15061   0.773   1.643   2.025
  139OSM     NF15062   0.670   1.534   2.273
  139OSM    HNF15063   0.655   1.629   2.296
  139OSM    C2S15064   0.793   1.511   2.197
  139OSM    H2S15065   0.813   1.402   2.206
  139OSM    C3S15066   0.932   1.578   2.227
  139OSM    H3S15067   0.925   1.688   2.210
  139OSM     O315068   1.046   1.530   2.159
  139OSM    HO315069   1.011   1.488   2.080
  139OSM    C4S15070   0.967   1.559   2.369
  139OSM    H4S15071   0.986   1.459   2.411
  139OSM    C5S15072   1.003   1.666   2.452
  139OSM    H5S15073   0.998   1.770   2.418
  139OSM    C6S15074   1.056   1.639   2.589
  139OSM    H6S15075   1.136   1.713   2.610
  139OSM    H6T15076   1.095   1.535   2.586
  139OSM    C7S15077   0.957   1.648   2.706
  139OSM    H7S15078   0.867   1.585   2.691
  139OSM    H7T15079   0.913   1.749   2.701
  139OSM    C8S15080   1.011   1.612   2.844
  139OSM    H8S15081   1.104   1.673   2.848
  139OSM    H8T15082   1.029   1.502   2.853
  139OSM    C9S15083   0.914   1.651   2.961
  139OSM    H9S15084   0.824   1.590   2.939
  139OSM    H9T15085   0.882   1.757   2.954
  139OSM   C10S15086   0.981   1.611   3.102
  139OSM   H10S15087   1.059   1.688   3.119
  139OSM   H10T15088   1.026   1.509   3.095
  139OSM   C11S15089   0.873   1.616   3.210
  139OSM   H11S15090   0.799   1.536   3.192
  139OSM   H11T15091   0.811   1.708   3.210
  139OSM   C12S15092   0.926   1.592   3.350
  139OSM   H12S15093   1.011   1.664   3.359
  139OSM   H12T15094   0.959   1.487   3.364
  139OSM   C13S15095   0.826   1.625   3.465
  139OSM   H13S15096   0.733   1.566   3.450
  139OSM   H13T15097   0.787   1.729   3.451
  139OSM   C14S15098   0.868   1.595   3.609
  139OSM   H14S15099   0.940   1.511   3.596
  139OSM   H14T15100   0.781   1.550   3.663
  139OSM   C15S15101   0.943   1.707   3.680
  139OSM   H15S15102   0.871   1.792   3.675
  139OSM   H15T15103   1.023   1.737   3.608
  139OSM   C16S15104   1.000   1.654   3.814
  139OSM   H16S15105   0.946   1.563   3.848
  139OSM   H16T15106   0.991   1.741   3.883
  139OSM   C17S15107   1.146   1.612   3.798
  139OSM   H17S15108   1.208   1.693   3.754
  139OSM   H17T15109   1.148   1.524   3.731
  139OSM   C18S15110   1.212   1.574   3.929
  139OSM   H18S15111   1.241   1.665   3.986
  139OSM   H18T15112   1.299   1.506   3.918
  139OSM   H18U15113   1.140   1.512   3.986
  139OSM    C1F15114   0.577   1.441   2.287
  139OSM     OF15115   0.577   1.334   2.223
  139OSM    C2F15116   0.471   1.458   2.392
  139OSM    H2F15117   0.429   1.356   2.410
  139OSM    H2G15118   0.403   1.533   2.346
  139OSM    C3F15119   0.505   1.529   2.516
  139OSM    H3F15120   0.541   1.630   2.489
  139OSM    H3G15121   0.589   1.474   2.565
  139OSM    C4F15122   0.386   1.548   2.607
  139OSM    H4F15123   0.348   1.447   2.634
  139OSM    H4G15124   0.302   1.604   2.560
  139OSM    C5F15125   0.422   1.617   2.739
  139OSM    H5F15126   0.364   1.710   2.758
  139OSM    H5G15127   0.524   1.659   2.724
  139OSM    C6F15128   0.422   1.518   2.861
  139OSM    H6F15129   0.499   1.441   2.842
  139OSM    H6G15130   0.319   1.478   2.869
  139OSM    C7F15131   0.453   1.587   2.992
  139OSM    H7F15132   0.376   1.664   3.015
  139OSM    H7G15133   0.555   1.626   2.971
  139OSM    C8F15134   0.465   1.484   3.118
  139OSM    H8F15135   0.533   1.532   3.192
  139OSM    H8G15136   0.512   1.395   3.071
  139OSM    C9F15137   0.333   1.428   3.174
  139OSM    H9F15138   0.273   1.364   3.108
  139OSM   C10F15139   0.286   1.443   3.300
  139OSM   H10F15140   0.191   1.398   3.331
  139OSM   C11F15141   0.348   1.524   3.413
  139OSM   H11F15142   0.275   1.580   3.475
  139OSM   H11G15143   0.432   1.588   3.376
  139OSM   C12F15144   0.413   1.422   3.509
  139OSM   H12F15145   0.507   1.467   3.549
  139OSM   H12G15146   0.446   1.330   3.456
  139OSM   C13F15147   0.322   1.389   3.629
  139OSM   H13F15148   0.373   1.303   3.679
  139OSM   H13G15149   0.227   1.356   3.582
  139OSM   C14F15150   0.298   1.502   3.734
  139OSM   H14F15151   0.267   1.601   3.693
  139OSM   H14G15152   0.384   1.509   3.803
  139OSM   C15F15153   0.180   1.457   3.817
  139OSM   H15F15154   0.204   1.373   3.886
  139OSM   H15G15155   0.100   1.432   3.745
  139OSM   C16F15156   0.137   1.558   3.926
  139OSM   H16F15157   0.060   1.507   3.989
  139OSM   H16G15158   0.078   1.631   3.867
  139OSM   C17F15159   0.248   1.604   4.017
  139OSM   H17F15160   0.193   1.679   4.079
  139OSM   H17G15161   0.336   1.649   3.966
  139OSM   C18F15162   0.308   1.492   4.104
  139OSM   H18F15163   0.381   1.539   4.174
  139OSM   H18G15164   0.372   1.430   4.039
  139OSM   H18H15165   0.232   1.432   4.158
  140OSM      N15166   4.692   0.839   2.175
  140OSM    C1515167   4.603   0.896   2.067
  140OSM   H15A15168   4.580   1.001   2.083
  140OSM   H15B15169   4.509   0.844   2.055
  140OSM   H15C15170   4.653   0.900   1.971
  140OSM    C1415171   4.739   0.704   2.150
  140OSM   H14A15172   4.817   0.701   2.075
  140OSM   H14B15173   4.664   0.642   2.102
  140OSM   H14C15174   4.775   0.667   2.244
  140OSM    C1315175   4.807   0.937   2.183
  140OSM   H13A15176   4.787   1.023   2.246
  140OSM   H13B15177   4.842   0.973   2.088
  140OSM   H13C15178   4.896   0.886   2.216
  140OSM    C1215179   4.621   0.840   2.311
  140OSM   H12A15180   4.597   0.944   2.324
  140OSM   H12B15181   4.684   0.816   2.396
  140OSM    C1115182   4.483   0.767   2.327
  140OSM   H11A15183   4.409   0.813   2.259
  140OSM   H11B15184   4.441   0.777   2.429
  140OSM      P15185   4.534   0.520   2.389
  140OSM    O1315186   4.531   0.392   2.320
  140OSM    O1415187   4.659   0.563   2.455
  140OSM    O1115188   4.414   0.519   2.487
  140OSM    O1215189   4.487   0.630   2.288
  140OSM    C1S15190   4.393   0.427   2.586
  140OSM    H1S15191   4.439   0.330   2.556
  140OSM    H1T15192   4.286   0.405   2.607
  140OSM     NF15193   4.486   0.367   2.810
  140OSM    HNF15194   4.415   0.342   2.875
  140OSM    C2S15195   4.445   0.474   2.723
  140OSM    H2S15196   4.545   0.522   2.710
  140OSM    C3S15197   4.369   0.588   2.782
  140OSM    H3S15198   4.263   0.555   2.775
  140OSM     O315199   4.370   0.698   2.692
  140OSM    HO315200   4.400   0.652   2.613
  140OSM    C4S15201   4.405   0.618   2.923
  140OSM    H4S15202   4.370   0.547   2.999
  140OSM    C5S15203   4.472   0.731   2.960
  140OSM    H5S15204   4.500   0.803   2.881
  140OSM    C6S15205   4.508   0.782   3.093
  140OSM    H6S15206   4.453   0.873   3.126
  140OSM    H6T15207   4.616   0.806   3.082
  140OSM    C7S15208   4.489   0.683   3.215
  140OSM    H7S15209   4.566   0.604   3.204
  140OSM    H7T15210   4.383   0.651   3.212
  140OSM    C8S15211   4.506   0.759   3.347
  140OSM    H8S15212   4.423   0.831   3.364
  140OSM    H8T15213   4.604   0.812   3.345
  140OSM    C9S15214   4.503   0.653   3.456
  140OSM    H9S15215   4.579   0.573   3.441
  140OSM    H9T15216   4.414   0.588   3.448
  140OSM   C10S15217   4.507   0.716   3.597
  140OSM   H10S15218   4.419   0.783   3.607
  140OSM   H10T15219   4.601   0.766   3.626
  140OSM   C11S15220   4.472   0.612   3.714
  140OSM   H11S15221   4.534   0.520   3.702
  140OSM   H11T15222   4.370   0.579   3.687
  140OSM   C12S15223   4.464   0.675   3.849
  140OSM   H12S15224   4.379   0.746   3.861
  140OSM   H12T15225   4.557   0.733   3.868
  140OSM   C13S15226   4.456   0.564   3.963
  140OSM   H13S15227   4.535   0.489   3.941
  140OSM   H13T15228   4.355   0.516   3.960
  140OSM   C14S15229   4.478   0.610   4.106
  140OSM   H14S15230   4.416   0.701   4.119
  140OSM   H14T15231   4.585   0.639   4.112
  140OSM   C15S15232   4.431   0.508   4.216
  140OSM   H15S15233   4.492   0.418   4.192
  140OSM   H15T15234   4.328   0.476   4.191
  140OSM   C16S15235   4.454   0.549   4.356
  140OSM   H16S15236   4.552   0.601   4.367
  140OSM   H16T15237   4.464   0.455   4.413
  140OSM   C17S15238   4.330   0.618   4.406
  140OSM   H17S15239   4.247   0.546   4.421
  140OSM   H17T15240   4.303   0.692   4.327
  140OSM   C18S15241   4.348   0.696   4.537
  140OSM   H18S15242   4.446   0.748   4.532
  140OSM   H18T15243   4.335   0.623   4.620
  140OSM   H18U15244   4.268   0.772   4.535
  140OSM    C1F15245   4.587   0.287   2.777
  140OSM     OF15246   4.658   0.305   2.678
  140OSM    C2F15247   4.608   0.168   2.863
  140OSM    H2F15248   4.572   0.081   2.804
  140OSM    H2G15249   4.553   0.176   2.959
  140OSM    C3F15250   4.754   0.164   2.904
  140OSM    H3F15251   4.817   0.135   2.817
  140OSM    H3G15252   4.767   0.079   2.974
  140OSM    C4F15253   4.802   0.302   2.966
  140OSM    H4F15254   4.795   0.386   2.893
  140OSM    H4G15255   4.910   0.298   2.992
  140OSM    C5F15256   4.740   0.342   3.108
  140OSM    H5F15257   4.630   0.327   3.101
  140OSM    H5G15258   4.744   0.450   3.130
  140OSM    C6F15259   4.797   0.256   3.228
  140OSM    H6F15260   4.908   0.261   3.228
  140OSM    H6G15261   4.774   0.148   3.217
  140OSM    C7F15262   4.735   0.299   3.361
  140OSM    H7F15263   4.632   0.259   3.345
  140OSM    H7G15264   4.739   0.409   3.368
  140OSM    C8F15265   4.800   0.251   3.494
  140OSM    H8F15266   4.900   0.253   3.445
  140OSM    H8G15267   4.783   0.142   3.511
  140OSM    C9F15268   4.782   0.336   3.616
  140OSM    H9F15269   4.813   0.440   3.604
  140OSM   C10F15270   4.748   0.291   3.741
  140OSM   H10F15271   4.716   0.368   3.812
  140OSM   C11F15272   4.713   0.147   3.777
  140OSM   H11F15273   4.803   0.098   3.819
  140OSM   H11G15274   4.692   0.088   3.685
  140OSM   C12F15275   4.608   0.124   3.882
  140OSM   H12F15276   4.568   0.021   3.884
  140OSM   H12G15277   4.525   0.193   3.858
  140OSM   C13F15278   4.652   0.164   4.020
  140OSM   H13F15279   4.676   0.273   4.019
  140OSM   H13G15280   4.738   0.105   4.057
  140OSM   C14F15281   4.537   0.151   4.123
  140OSM   H14F15282   4.489   0.051   4.119
  140OSM   H14G15283   4.466   0.235   4.105
  140OSM   C15F15284   4.585   0.161   4.271
  140OSM   H15F15285   4.643   0.255   4.285
  140OSM   H15G15286   4.661   0.083   4.289
  140OSM   C16F15287   4.474   0.164   4.375
  140OSM   H16F15288   4.416   0.072   4.352
  140OSM   H16G15289   4.410   0.255   4.374
  140OSM   C17F15290   4.532   0.145   4.512
  140OSM   H17F15291   4.577   0.044   4.503
  140OSM   H17G15292   4.456   0.130   4.591
  140OSM   C18F15293   4.636   0.248   4.559
  140OSM   H18F15294   4.601   0.354   4.560
  140OSM   H18G15295   4.715   0.247   4.480
  140OSM   H18H15296   4.668   0.215   4.659
  141OSM      N15297   0.293   3.893   1.793
  141OSM    C1515298   0.177   3.989   1.801
  141OSM   H15A15299   0.085   3.933   1.809
  141OSM   H15B15300   0.157   4.043   1.710
  141OSM   H15C15301   0.205   4.063   1.875
  141OSM    C1415302   0.276   3.800   1.683
  141OSM   H14A15303   0.270   3.861   1.595
  141OSM   H14B15304   0.184   3.745   1.697
  141OSM   H14C15305   0.367   3.740   1.678
  141OSM    C1315306   0.422   3.973   1.778
  141OSM   H13A15307   0.402   4.052   1.707
  141OSM   H13B15308   0.502   3.916   1.734
  141OSM   H13C15309   0.461   4.006   1.872
  141OSM    C1215310   0.313   3.818   1.927
  141OSM   H12A15311   0.406   3.764   1.919
  141OSM   H12B15312   0.235   3.743   1.932
  141OSM    C1115313   0.294   3.898   2.063
  141OSM   H11A15314   0.320   3.830   2.146
  141OSM   H11B15315   0.186   3.921   2.075
  141OSM      P15316   0.317   4.153   2.120
  141OSM    O1315317   0.430   4.246   2.142
  141OSM    O1415318   0.212   4.197   2.024
  141OSM    O1115319   0.250   4.121   2.263
  141OSM    O1215320   0.373   4.016   2.066
  141OSM    C1S15321   0.319   4.054   2.368
  141OSM    H1S15322   0.381   3.972   2.328
  141OSM    H1T15323   0.242   4.002   2.429
  141OSM     NF15324   0.497   4.064   2.547
  141OSM    HNF15325   0.461   4.032   2.635
  141OSM    C2S15326   0.397   4.145   2.468
  141OSM    H2S15327   0.465   4.209   2.407
  141OSM    C3S15328   0.300   4.223   2.559
  141OSM    H3S15329   0.253   4.141   2.617
  141OSM     O315330   0.199   4.283   2.481
  141OSM    HO315331   0.183   4.227   2.405
  141OSM    C4S15332   0.379   4.301   2.657
  141OSM    H4S15333   0.397   4.240   2.747
  141OSM    C5S15334   0.424   4.431   2.658
  141OSM    H5S15335   0.393   4.502   2.580
  141OSM    C6S15336   0.505   4.498   2.773
  141OSM    H6S15337   0.480   4.606   2.782
  141OSM    H6T15338   0.613   4.500   2.746
  141OSM    C7S15339   0.484   4.444   2.915
  141OSM    H7S15340   0.546   4.351   2.922
  141OSM    H7T15341   0.378   4.417   2.929
  141OSM    C8S15342   0.540   4.543   3.024
  141OSM    H8S15343   0.483   4.638   3.025
  141OSM    H8T15344   0.643   4.558   2.984
  141OSM    C9S15345   0.538   4.483   3.160
  141OSM    H9S15346   0.627   4.517   3.217
  141OSM    H9T15347   0.532   4.372   3.161
  141OSM   C10S15348   0.426   4.536   3.244
  141OSM   H10S15349   0.333   4.528   3.184
  141OSM   H10T15350   0.442   4.641   3.277
  141OSM   C11S15351   0.385   4.453   3.366
  141OSM   H11S15352   0.470   4.388   3.395
  141OSM   H11T15353   0.301   4.384   3.343
  141OSM   C12S15354   0.347   4.533   3.491
  141OSM   H12S15355   0.262   4.601   3.470
  141OSM   H12T15356   0.427   4.608   3.504
  141OSM   C13S15357   0.324   4.455   3.621
  141OSM   H13S15358   0.400   4.374   3.631
  141OSM   H13T15359   0.229   4.399   3.604
  141OSM   C14S15360   0.331   4.537   3.744
  141OSM   H14S15361   0.436   4.556   3.774
  141OSM   H14T15362   0.289   4.484   3.831
  141OSM   C15S15363   0.262   4.674   3.724
  141OSM   H15S15364   0.170   4.652   3.666
  141OSM   H15T15365   0.331   4.746   3.674
  141OSM   C16S15366   0.225   4.731   3.865
  141OSM   H16S15367   0.163   4.650   3.908
  141OSM   H16T15368   0.152   4.814   3.854
  141OSM   C17S15369   0.338   4.751   3.967
  141OSM   H17S15370   0.402   4.840   3.948
  141OSM   H17T15371   0.408   4.666   3.951
  141OSM   C18S15372   0.284   4.763   4.110
  141OSM   H18S15373   0.233   4.861   4.126
  141OSM   H18T15374   0.367   4.762   4.184
  141OSM   H18U15375   0.211   4.680   4.117
  141OSM    C1F15376   0.593   4.003   2.488
  141OSM     OF15377   0.624   4.021   2.373
  141OSM    C2F15378   0.646   3.887   2.564
  141OSM    H2F15379   0.628   3.798   2.500
  141OSM    H2G15380   0.588   3.876   2.658
  141OSM    C3F15381   0.788   3.918   2.598
  141OSM    H3F15382   0.858   3.946   2.516
  141OSM    H3G15383   0.839   3.825   2.630
  141OSM    C4F15384   0.795   4.013   2.718
  141OSM    H4F15385   0.738   4.106   2.701
  141OSM    H4G15386   0.904   4.033   2.730
  141OSM    C5F15387   0.760   3.938   2.852
  141OSM    H5F15388   0.824   3.848   2.851
  141OSM    H5G15389   0.654   3.904   2.858
  141OSM    C6F15390   0.818   4.010   2.964
  141OSM    H6F15391   0.772   4.110   2.982
  141OSM    H6G15392   0.927   4.028   2.958
  141OSM    C7F15393   0.787   3.938   3.098
  141OSM    H7F15394   0.825   3.833   3.105
  141OSM    H7G15395   0.678   3.926   3.115
  141OSM    C8F15396   0.850   4.014   3.215
  141OSM    H8F15397   0.945   4.065   3.188
  141OSM    H8G15398   0.868   3.939   3.296
  141OSM    C9F15399   0.750   4.117   3.255
  141OSM    H9F15400   0.727   4.186   3.173
  141OSM   C10F15401   0.700   4.136   3.383
  141OSM   H10F15402   0.615   4.203   3.404
  141OSM   C11F15403   0.749   4.058   3.507
  141OSM   H11F15404   0.849   4.101   3.530
  141OSM   H11G15405   0.753   3.951   3.478
  141OSM   C12F15406   0.667   4.069   3.634
  141OSM   H12F15407   0.640   4.176   3.644
  141OSM   H12G15408   0.719   4.046   3.729
  141OSM   C13F15409   0.543   3.986   3.625
  141OSM   H13F15410   0.575   3.880   3.618
  141OSM   H13G15411   0.488   4.018   3.534
  141OSM   C14F15412   0.448   4.009   3.745
  141OSM   H14F15413   0.420   4.116   3.756
  141OSM   H14G15414   0.481   3.975   3.845
  141OSM   C15F15415   0.311   3.937   3.722
  141OSM   H15F15416   0.342   3.838   3.683
  141OSM   H15G15417   0.246   3.989   3.649
  141OSM   C16F15418   0.232   3.907   3.851
  141OSM   H16F15419   0.168   3.994   3.877
  141OSM   H16G15420   0.308   3.911   3.932
  141OSM   C17F15421   0.155   3.769   3.859
  141OSM   H17F15422   0.092   3.767   3.950
  141OSM   H17G15423   0.227   3.686   3.878
  141OSM   C18F15424   0.070   3.726   3.738
  141OSM   H18F15425   0.131   3.696   3.651
  141OSM   H18G15426   0.009   3.813   3.705
  141OSM   H18H15427   0.004   3.644   3.773
  142OSM      N15428   1.745   5.561   2.084
  142OSM    C1515429   1.684   5.606   2.217
  142OSM   H15A15430   1.731   5.702   2.237
  142OSM   H15B15431   1.716   5.535   2.293
  142OSM   H15C15432   1.578   5.619   2.204
  142OSM    C1415433   1.886   5.518   2.106
  142OSM   H14A15434   1.943   5.593   2.158
  142OSM   H14B15435   1.941   5.497   2.015
  142OSM   H14C15436   1.885   5.432   2.172
  142OSM    C1315437   1.675   5.439   2.038
  142OSM   H13A15438   1.717   5.417   1.940
  142OSM   H13B15439   1.570   5.453   2.017
  142OSM   H13C15440   1.708   5.360   2.104
  142OSM    C1215441   1.739   5.680   1.980
  142OSM   H12A15442   1.633   5.696   1.969
  142OSM   H12B15443   1.766   5.643   1.882
  142OSM    C1115444   1.797   5.815   2.023
  142OSM   H11A15445   1.794   5.869   1.926
  142OSM   H11B15446   1.906   5.811   2.043
  142OSM      P15447   1.609   5.971   2.105
  142OSM    O1315448   1.669   6.101   2.074
  142OSM    O1415449   1.519   5.919   1.998
  142OSM    O1115450   1.536   5.979   2.240
  142OSM    O1215451   1.724   5.871   2.132
  142OSM    C1S15452   1.618   6.011   2.358
  142OSM    H1S15453   1.671   6.108   2.352
  142OSM    H1T15454   1.702   5.941   2.380
  142OSM     NF15455   1.636   6.060   2.600
  142OSM    HNF15456   1.669   5.987   2.659
  142OSM    C2S15457   1.541   6.017   2.492
  142OSM    H2S15458   1.459   6.091   2.503
  142OSM    C3S15459   1.485   5.870   2.515
  142OSM    H3S15460   1.569   5.797   2.508
  142OSM     O315461   1.400   5.823   2.409
  142OSM    HO315462   1.418   5.884   2.337
  142OSM    C4S15463   1.424   5.850   2.648
  142OSM    H4S15464   1.507   5.844   2.720
  142OSM    C5S15465   1.301   5.857   2.695
  142OSM    H5S15466   1.214   5.866   2.629
  142OSM    C6S15467   1.264   5.851   2.845
  142OSM    H6S15468   1.216   5.754   2.871
  142OSM    H6T15469   1.177   5.918   2.860
  142OSM    C7S15470   1.377   5.880   2.952
  142OSM    H7S15471   1.416   5.984   2.946
  142OSM    H7T15472   1.455   5.802   2.946
  142OSM    C8S15473   1.314   5.858   3.094
  142OSM    H8S15474   1.285   5.751   3.101
  142OSM    H8T15475   1.218   5.914   3.103
  142OSM    C9S15476   1.398   5.882   3.216
  142OSM    H9S15477   1.423   5.989   3.235
  142OSM    H9T15478   1.498   5.834   3.207
  142OSM   C10S15479   1.334   5.819   3.344
  142OSM   H10S15480   1.310   5.714   3.316
  142OSM   H10T15481   1.243   5.872   3.378
  142OSM   C11S15482   1.445   5.813   3.454
  142OSM   H11S15483   1.472   5.917   3.481
  142OSM   H11T15484   1.538   5.765   3.416
  142OSM   C12S15485   1.389   5.736   3.577
  142OSM   H12S15486   1.362   5.632   3.551
  142OSM   H12T15487   1.294   5.790   3.595
  142OSM   C13S15488   1.479   5.738   3.699
  142OSM   H13S15489   1.496   5.843   3.734
  142OSM   H13T15490   1.574   5.689   3.669
  142OSM   C14S15491   1.432   5.649   3.814
  142OSM   H14S15492   1.421   5.553   3.760
  142OSM   H14T15493   1.336   5.689   3.855
  142OSM   C15S15494   1.515   5.631   3.935
  142OSM   H15S15495   1.607   5.570   3.926
  142OSM   H15T15496   1.442   5.584   4.005
  142OSM   C16S15497   1.563   5.763   3.989
  142OSM   H16S15498   1.478   5.835   3.996
  142OSM   H16T15499   1.630   5.811   3.914
  142OSM   C17S15500   1.634   5.741   4.127
  142OSM   H17S15501   1.706   5.821   4.155
  142OSM   H17T15502   1.694   5.649   4.110
  142OSM   C18S15503   1.551   5.724   4.250
  142OSM   H18S15504   1.595   5.687   4.345
  142OSM   H18T15505   1.465   5.655   4.233
  142OSM   H18U15506   1.499   5.815   4.286
  142OSM    C1F15507   1.669   6.186   2.625
  142OSM     OF15508   1.622   6.273   2.552
  142OSM    C2F15509   1.772   6.216   2.733
  142OSM    H2F15510   1.792   6.326   2.731
  142OSM    H2G15511   1.863   6.155   2.712
  142OSM    C3F15512   1.715   6.162   2.862
  142OSM    H3F15513   1.682   6.056   2.853
  142OSM    H3G15514   1.626   6.222   2.891
  142OSM    C4F15515   1.824   6.173   2.978
  142OSM    H4F15516   1.875   6.271   2.985
  142OSM    H4G15517   1.912   6.110   2.954
  142OSM    C5F15518   1.765   6.140   3.112
  142OSM    H5F15519   1.699   6.051   3.102
  142OSM    H5G15520   1.709   6.228   3.150
  142OSM    C6F15521   1.880   6.117   3.214
  142OSM    H6F15522   1.962   6.190   3.197
  142OSM    H6G15523   1.906   6.011   3.195
  142OSM    C7F15524   1.820   6.128   3.355
  142OSM    H7F15525   1.730   6.064   3.350
  142OSM    H7G15526   1.791   6.234   3.371
  142OSM    C8F15527   1.934   6.099   3.457
  142OSM    H8F15528   1.992   6.194   3.456
  142OSM    H8G15529   1.994   6.011   3.424
  142OSM    C9F15530   1.886   6.070   3.597
  142OSM    H9F15531   1.820   5.982   3.603
  142OSM   C10F15532   1.886   6.158   3.700
  142OSM   H10F15533   1.841   6.121   3.793
  142OSM   C11F15534   1.945   6.294   3.703
  142OSM   H11F15535   1.864   6.359   3.662
  142OSM   H11G15536   2.031   6.303   3.633
  142OSM   C12F15537   2.002   6.338   3.840
  142OSM   H12F15538   2.045   6.439   3.823
  142OSM   H12G15539   2.079   6.268   3.878
  142OSM   C13F15540   1.888   6.352   3.950
  142OSM   H13F15541   1.849   6.248   3.954
  142OSM   H13G15542   1.810   6.421   3.913
  142OSM   C14F15543   1.953   6.395   4.084
  142OSM   H14F15544   2.038   6.459   4.053
  142OSM   H14G15545   1.983   6.299   4.132
  142OSM   C15F15546   1.856   6.473   4.166
  142OSM   H15F15547   1.825   6.556   4.099
  142OSM   H15G15548   1.888   6.503   4.268
  142OSM   C16F15549   1.725   6.398   4.190
  142OSM   H16F15550   1.746   6.304   4.244
  142OSM   H16G15551   1.688   6.364   4.091
  142OSM   C17F15552   1.631   6.482   4.275
  142OSM   H17F15553   1.598   6.574   4.222
  142OSM   H17G15554   1.691   6.517   4.362
  142OSM   C18F15555   1.507   6.401   4.323
  142OSM   H18F15556   1.447   6.471   4.385
  142OSM   H18G15557   1.535   6.328   4.401
  142OSM   H18H15558   1.456   6.353   4.236
  143OSM      N15559   0.623   4.783   1.704
  143OSM    C1515560   0.660   4.918   1.653
  143OSM   H15A15561   0.654   4.991   1.733
  143OSM   H15B15562   0.586   4.944   1.579
  143OSM   H15C15563   0.759   4.926   1.611
  143OSM    C1415564   0.482   4.770   1.726
  143OSM   H14A15565   0.427   4.782   1.634
  143OSM   H14B15566   0.446   4.838   1.802
  143OSM   H14C15567   0.456   4.673   1.764
  143OSM    C1315568   0.671   4.690   1.587
  143OSM   H13A15569   0.634   4.590   1.605
  143OSM   H13B15570   0.779   4.689   1.580
  143OSM   H13C15571   0.630   4.728   1.494
  143OSM    C1215572   0.697   4.746   1.831
  143OSM   H12A15573   0.795   4.720   1.796
  143OSM   H12B15574   0.646   4.658   1.868
  143OSM    C1115575   0.709   4.854   1.943
  143OSM   H11A15576   0.716   4.804   2.041
  143OSM   H11B15577   0.624   4.924   1.954
  143OSM      P15578   0.977   4.883   1.916
  143OSM    O1315579   0.982   4.779   1.810
  143OSM    O1415580   1.067   4.996   1.888
  143OSM    O1115581   1.014   4.809   2.057
  143OSM    O1215582   0.833   4.940   1.929
  143OSM    C1S15583   0.966   4.882   2.173
  143OSM    H1S15584   0.867   4.838   2.199
  143OSM    H1T15585   0.949   4.991   2.162
  143OSM     NF15586   0.982   4.939   2.409
  143OSM    HNF15587   1.009   5.030   2.438
  143OSM    C2S15588   1.053   4.864   2.302
  143OSM    H2S15589   1.051   4.755   2.324
  143OSM    C3S15590   1.194   4.909   2.280
  143OSM    H3S15591   1.187   5.012   2.238
  143OSM     O315592   1.256   4.828   2.179
  143OSM    HO315593   1.184   4.799   2.124
  143OSM    C4S15594   1.282   4.909   2.401
  143OSM    H4S15595   1.334   5.004   2.420
  143OSM    C5S15596   1.338   4.804   2.465
  143OSM    H5S15597   1.320   4.705   2.422
  143OSM    C6S15598   1.453   4.815   2.563
  143OSM    H6S15599   1.520   4.902   2.548
  143OSM    H6T15600   1.518   4.725   2.555
  143OSM    C7S15601   1.411   4.817   2.710
  143OSM    H7S15602   1.400   4.709   2.733
  143OSM    H7T15603   1.319   4.879   2.719
  143OSM    C8S15604   1.515   4.869   2.805
  143OSM    H8S15605   1.539   4.977   2.798
  143OSM    H8T15606   1.611   4.821   2.776
  143OSM    C9S15607   1.478   4.854   2.952
  143OSM    H9S15608   1.375   4.815   2.961
  143OSM    H9T15609   1.483   4.958   2.992
  143OSM   C10S15610   1.567   4.752   3.027
  143OSM   H10S15611   1.669   4.743   2.985
  143OSM   H10T15612   1.534   4.647   3.019
  143OSM   C11S15613   1.564   4.781   3.173
  143OSM   H11S15614   1.458   4.759   3.197
  143OSM   H11T15615   1.596   4.884   3.198
  143OSM   C12S15616   1.645   4.683   3.251
  143OSM   H12S15617   1.749   4.690   3.212
  143OSM   H12T15618   1.606   4.581   3.233
  143OSM   C13S15619   1.639   4.719   3.400
  143OSM   H13S15620   1.675   4.824   3.407
  143OSM   H13T15621   1.701   4.650   3.460
  143OSM   C14S15622   1.495   4.715   3.463
  143OSM   H14S15623   1.483   4.606   3.449
  143OSM   H14T15624   1.420   4.769   3.402
  143OSM   C15S15625   1.489   4.778   3.602
  143OSM   H15S15626   1.511   4.885   3.585
  143OSM   H15T15627   1.574   4.739   3.662
  143OSM   C16S15628   1.362   4.749   3.677
  143OSM   H16S15629   1.358   4.645   3.717
  143OSM   H16T15630   1.276   4.763   3.607
  143OSM   C17S15631   1.342   4.841   3.799
  143OSM   H17S15632   1.334   4.948   3.769
  143OSM   H17T15633   1.437   4.833   3.857
  143OSM   C18S15634   1.220   4.820   3.895
  143OSM   H18S15635   1.245   4.864   3.994
  143OSM   H18T15636   1.200   4.710   3.895
  143OSM   H18U15637   1.132   4.861   3.842
  143OSM    C1F15638   0.877   4.896   2.476
  143OSM     OF15639   0.823   4.799   2.430
  143OSM    C2F15640   0.835   4.950   2.611
  143OSM    H2F15641   0.799   5.053   2.592
  143OSM    H2G15642   0.929   4.956   2.670
  143OSM    C3F15643   0.725   4.868   2.686
  143OSM    H3F15644   0.760   4.763   2.691
  143OSM    H3G15645   0.637   4.870   2.618
  143OSM    C4F15646   0.679   4.924   2.824
  143OSM    H4F15647   0.628   4.835   2.867
  143OSM    H4G15648   0.596   4.997   2.820
  143OSM    C5F15649   0.796   4.964   2.916
  143OSM    H5F15650   0.838   5.066   2.908
  143OSM    H5G15651   0.880   4.904   2.873
  143OSM    C6F15652   0.777   4.930   3.067
  143OSM    H6F15653   0.876   4.936   3.117
  143OSM    H6G15654   0.741   4.825   3.078
  143OSM    C7F15655   0.680   5.028   3.140
  143OSM    H7F15656   0.582   4.994   3.100
  143OSM    H7G15657   0.700   5.132   3.107
  143OSM    C8F15658   0.673   5.030   3.300
  143OSM    H8F15659   0.591   5.100   3.328
  143OSM    H8G15660   0.768   5.078   3.331
  143OSM    C9F15661   0.642   4.890   3.355
  143OSM    H9F15662   0.558   4.833   3.311
  143OSM   C10F15663   0.714   4.827   3.446
  143OSM   H10F15664   0.681   4.725   3.472
  143OSM   C11F15665   0.804   4.900   3.541
  143OSM   H11F15666   0.852   4.997   3.515
  143OSM   H11G15667   0.891   4.835   3.564
  143OSM   C12F15668   0.729   4.925   3.673
  143OSM   H12F15669   0.690   4.824   3.700
  143OSM   H12G15670   0.638   4.989   3.670
  143OSM   C13F15671   0.811   4.967   3.796
  143OSM   H13F15672   0.878   5.053   3.773
  143OSM   H13G15673   0.875   4.878   3.809
  143OSM   C14F15674   0.724   4.981   3.923
  143OSM   H14F15675   0.675   4.886   3.953
  143OSM   H14G15676   0.647   5.060   3.906
  143OSM   C15F15677   0.807   5.030   4.043
  143OSM   H15F15678   0.868   5.120   4.018
  143OSM   H15G15679   0.878   4.950   4.073
  143OSM   C16F15680   0.720   5.066   4.161
  143OSM   H16F15681   0.625   5.113   4.126
  143OSM   H16G15682   0.767   5.139   4.230
  143OSM   C17F15683   0.675   4.947   4.237
  143OSM   H17F15684   0.769   4.899   4.271
  143OSM   H17G15685   0.627   4.875   4.167
  143OSM   C18F15686   0.583   4.979   4.353
  143OSM   H18F15687   0.548   4.879   4.386
  143OSM   H18G15688   0.496   5.043   4.328
  143OSM   H18H15689   0.639   5.025   4.437
  144OSM      N15690   0.648   5.556   1.849
  144OSM    C1515691   0.543   5.642   1.807
  144OSM   H15A15692   0.463   5.656   1.878
  144OSM   H15B15693   0.491   5.606   1.719
  144OSM   H15C15694   0.590   5.735   1.778
  144OSM    C1415695   0.736   5.515   1.729
  144OSM   H14A15696   0.684   5.470   1.646
  144OSM   H14B15697   0.810   5.445   1.763
  144OSM   H14C15698   0.786   5.601   1.687
  144OSM    C1315699   0.728   5.627   1.960
  144OSM   H13A15700   0.737   5.732   1.937
  144OSM   H13B15701   0.824   5.579   1.971
  144OSM   H13C15702   0.684   5.607   2.057
  144OSM    C1215703   0.600   5.426   1.907
  144OSM   H12A15704   0.676   5.362   1.950
  144OSM   H12B15705   0.564   5.376   1.818
  144OSM    C1115706   0.483   5.420   2.001
  144OSM   H11A15707   0.468   5.314   2.033
  144OSM   H11B15708   0.392   5.453   1.947
  144OSM      P15709   0.519   5.457   2.263
  144OSM    O1315710   0.419   5.353   2.285
  144OSM    O1415711   0.661   5.420   2.292
  144OSM    O1115712   0.486   5.584   2.343
  144OSM    O1215713   0.505   5.503   2.115
  144OSM    C1S15714   0.526   5.717   2.294
  144OSM    H1S15715   0.447   5.753   2.225
  144OSM    H1T15716   0.624   5.716   2.242
  144OSM     NF15717   0.546   5.963   2.374
  144OSM    HNF15718   0.639   5.999   2.386
  144OSM    C2S15719   0.539   5.819   2.413
  144OSM    H2S15720   0.444   5.805   2.469
  144OSM    C3S15721   0.655   5.774   2.510
  144OSM    H3S15722   0.747   5.789   2.451
  144OSM     O315723   0.644   5.637   2.536
  144OSM    HO315724   0.581   5.602   2.472
  144OSM    C4S15725   0.662   5.842   2.644
  144OSM    H4S15726   0.578   5.830   2.714
  144OSM    C5S15727   0.764   5.923   2.683
  144OSM    H5S15728   0.857   5.941   2.627
  144OSM    C6S15729   0.775   5.986   2.823
  144OSM    H6S15730   0.674   6.023   2.849
  144OSM    H6T15731   0.842   6.074   2.830
  144OSM    C7S15732   0.819   5.884   2.931
  144OSM    H7S15733   0.924   5.851   2.911
  144OSM    H7T15734   0.758   5.791   2.930
  144OSM    C8S15735   0.821   5.923   3.080
  144OSM    H8S15736   0.720   5.934   3.123
  144OSM    H8T15737   0.866   6.024   3.081
  144OSM    C9S15738   0.899   5.823   3.168
  144OSM    H9S15739   1.006   5.826   3.138
  144OSM    H9T15740   0.860   5.726   3.133
  144OSM   C10S15741   0.884   5.844   3.320
  144OSM   H10S15742   0.778   5.849   3.351
  144OSM   H10T15743   0.926   5.947   3.326
  144OSM   C11S15744   0.955   5.751   3.411
  144OSM   H11S15745   1.050   5.710   3.370
  144OSM   H11T15746   0.899   5.655   3.420
  144OSM   C12S15747   0.995   5.812   3.550
  144OSM   H12S15748   1.075   5.888   3.539
  144OSM   H12T15749   1.040   5.730   3.610
  144OSM   C13S15750   0.887   5.872   3.637
  144OSM   H13S15751   0.822   5.783   3.651
  144OSM   H13T15752   0.828   5.949   3.582
  144OSM   C14S15753   0.949   5.938   3.761
  144OSM   H14S15754   1.019   6.012   3.717
  144OSM   H14T15755   1.012   5.860   3.810
  144OSM   C15S15756   0.841   5.992   3.859
  144OSM   H15S15757   0.766   5.915   3.886
  144OSM   H15T15758   0.785   6.076   3.813
  144OSM   C16S15759   0.894   6.040   3.996
  144OSM   H16S15760   0.987   6.095   3.973
  144OSM   H16T15761   0.931   5.950   4.050
  144OSM   C17S15762   0.791   6.135   4.062
  144OSM   H17S15763   0.699   6.075   4.082
  144OSM   H17T15764   0.761   6.219   3.995
  144OSM   C18S15765   0.851   6.209   4.187
  144OSM   H18S15766   0.776   6.285   4.216
  144OSM   H18T15767   0.932   6.277   4.155
  144OSM   H18U15768   0.870   6.138   4.270
  144OSM    C1F15769   0.447   6.034   2.326
  144OSM     OF15770   0.342   5.981   2.311
  144OSM    C2F15771   0.465   6.177   2.284
  144OSM    H2F15772   0.441   6.186   2.176
  144OSM    H2G15773   0.573   6.206   2.280
  144OSM    C3F15774   0.392   6.279   2.375
  144OSM    H3F15775   0.438   6.262   2.475
  144OSM    H3G15776   0.284   6.257   2.371
  144OSM    C4F15777   0.417   6.434   2.350
  144OSM    H4F15778   0.348   6.476   2.273
  144OSM    H4G15779   0.512   6.453   2.295
  144OSM    C5F15780   0.397   6.516   2.476
  144OSM    H5F15781   0.453   6.475   2.562
  144OSM    H5G15782   0.289   6.513   2.502
  144OSM    C6F15783   0.435   6.665   2.470
  144OSM    H6F15784   0.394   6.720   2.382
  144OSM    H6G15785   0.543   6.668   2.445
  144OSM    C7F15786   0.414   6.735   2.602
  144OSM    H7F15787   0.453   6.672   2.685
  144OSM    H7G15788   0.308   6.745   2.631
  144OSM    C8F15789   0.471   6.882   2.604
  144OSM    H8F15790   0.430   0.013   2.699
  144OSM    H8G15791   0.424   0.012   2.513
  144OSM    C9F15792   0.624   6.886   2.588
  144OSM    H9F15793   0.649   6.879   2.481
  144OSM   C10F15794   0.721   0.002   2.668
  144OSM   H10F15795   0.814   6.895   2.613
  144OSM   C11F15796   0.737   0.041   2.811
  144OSM   H11F15797   0.789   0.139   2.818
  144OSM   H11G15798   0.792   6.866   2.852
  144OSM   C12F15799   0.602   0.046   2.890
  144OSM   H12F15800   0.551   6.860   2.888
  144OSM   H12G15801   0.540   0.127   2.847
  144OSM   C13F15802   0.623   0.090   3.034
  144OSM   H13F15803   0.684   0.183   3.035
  144OSM   H13G15804   0.684   0.009   3.079
  144OSM   C14F15805   0.493   0.096   3.110
  144OSM   H14F15806   0.441   6.910   3.111
  144OSM   H14G15807   0.418   0.172   3.077
  144OSM   C15F15808   0.526   0.129   3.250
  144OSM   H15F15809   0.440   0.180   3.298
  144OSM   H15G15810   0.615   0.195   3.257
  144OSM   C16F15811   0.555   6.911   3.334
  144OSM   H16F15812   0.614   0.032   3.422
  144OSM   H16G15813   0.617   6.848   3.267
  144OSM   C17F15814   0.423   6.835   3.365
  144OSM   H17F15815   0.376   6.786   3.276
  144OSM   H17G15816   0.356   0.000   3.408
  144OSM   C18F15817   0.429   6.724   3.475
  144OSM   H18F15818   0.324   6.689   3.487
  144OSM   H18G15819   0.464   6.773   3.568
  144OSM   H18H15820   0.504   6.648   3.444
  145SAPE     N15821   1.423   1.434   6.834
  145SAPE   HN115822   1.353   1.417   6.909
  145SAPE   HN215823   1.487   1.352   6.836
  145SAPE   HN315824   1.473   1.522   6.858
  145SAPE   C1215825   1.343   1.445   6.703
  145SAPE  H12A15826   1.351   1.553   6.676
  145SAPE  H12B15827   1.241   1.408   6.727
  145SAPE   C1115828   1.399   1.365   6.584
  145SAPE  H11A15829   1.502   1.406   6.572
  145SAPE  H11B15830   1.344   1.391   6.492
  145SAPE     P15831   1.304   1.130   6.551
  145SAPE   O1315832   1.361   0.995   6.541
  145SAPE   O1415833   1.187   1.138   6.645
  145SAPE   O1215834   1.414   1.226   6.613
  145SAPE   O1115835   1.260   1.191   6.410
  145SAPE    C115836   1.130   1.241   6.374
  145SAPE    HA15837   1.075   1.273   6.464
  145SAPE    HB15838   1.150   1.329   6.310
  145SAPE    C215839   1.048   1.141   6.290
  145SAPE    HS15840   1.041   1.054   6.358
  145SAPE   O2115841   1.116   1.118   6.163
  145SAPE   C2115842   1.089   0.991   6.115
  145SAPE   O2215843   1.019   0.914   6.176
  145SAPE   C2215844   1.152   0.966   5.980
  145SAPE   H2R15845   1.233   1.041   5.968
  145SAPE   H2S15846   1.193   0.863   5.985
  145SAPE    C315847   0.905   1.198   6.268
  145SAPE    HX15848   0.918   1.303   6.235
  145SAPE    HY15849   0.851   1.194   6.365
  145SAPE   O3115850   0.828   1.122   6.171
  145SAPE   C3115851   0.803   1.175   6.051
  145SAPE   O3215852   0.862   1.274   6.010
  145SAPE   C3215853   0.700   1.098   5.969
  145SAPE   H2X15854   0.610   1.072   6.029
  145SAPE   H2Y15855   0.741   1.002   5.931
  145SAPE   C2315856   1.046   0.986   5.865
  145SAPE   H3R15857   0.993   1.083   5.876
  145SAPE   H3S15858   0.968   0.908   5.871
  145SAPE   C2415859   1.094   0.973   5.719
  145SAPE   H4R15860   1.153   1.065   5.700
  145SAPE   H4S15861   1.008   0.969   5.649
  145SAPE   C2515862   1.183   0.851   5.685
  145SAPE   H5R15863   1.250   0.825   5.768
  145SAPE   C2615864   1.193   0.769   5.573
  145SAPE   H6R15865   1.274   0.695   5.576
  145SAPE   C2715866   1.125   0.783   5.440
  145SAPE   H7R15867   1.017   0.773   5.463
  145SAPE   H7S15868   1.160   0.690   5.388
  145SAPE   C2815869   1.155   0.908   5.354
  145SAPE   H8R15870   1.175   1.003   5.406
  145SAPE   C2915871   1.159   0.912   5.218
  145SAPE   H9R15872   1.179   1.011   5.174
  145SAPE  C21015873   1.148   0.797   5.114
  145SAPE  H10R15874   1.089   0.715   5.160
  145SAPE  H10S15875   1.250   0.756   5.096
  145SAPE  C21115876   1.089   0.851   4.985
  145SAPE  H11R15877   1.008   0.924   4.999
  145SAPE  C21215878   1.128   0.824   4.860
  145SAPE  H12R15879   1.072   0.874   4.780
  145SAPE  C21315880   1.243   0.733   4.820
  145SAPE  H13R15881   1.326   0.746   4.892
  145SAPE  H13S15882   1.274   0.762   4.717
  145SAPE  C21415883   1.205   0.587   4.831
  145SAPE  H14R15884   1.169   0.571   4.934
  145SAPE  C21515885   1.197   0.494   4.733
  145SAPE  H15R15886   1.176   0.388   4.755
  145SAPE  C21615887   1.227   0.512   4.588
  145SAPE  H16R15888   1.254   0.615   4.555
  145SAPE  H16S15889   1.137   0.480   4.531
  145SAPE  C21715890   1.346   0.429   4.544
  145SAPE  H17R15891   1.327   0.323   4.568
  145SAPE  H17S15892   1.434   0.465   4.602
  145SAPE  C21815893   1.381   0.439   4.392
  145SAPE  H18R15894   1.288   0.411   4.339
  145SAPE  H18S15895   1.448   0.356   4.360
  145SAPE  C21915896   1.450   0.570   4.348
  145SAPE  H19R15897   1.543   0.577   4.408
  145SAPE  H19S15898   1.396   0.665   4.367
  145SAPE  C22015899   1.486   0.558   4.198
  145SAPE  H20R15900   1.535   0.465   4.163
  145SAPE  H20S15901   1.551   0.640   4.164
  145SAPE  H20T15902   1.387   0.566   4.148
  145SAPE   C3315903   0.653   1.179   5.849
  145SAPE   H3X15904   0.616   1.278   5.884
  145SAPE   H3Y15905   0.568   1.129   5.798
  145SAPE   C3415906   0.750   1.187   5.728
  145SAPE   H4X15907   0.809   1.093   5.715
  145SAPE   H4Y15908   0.826   1.268   5.736
  145SAPE   C3515909   0.665   1.207   5.602
  145SAPE   H5X15910   0.625   1.310   5.613
  145SAPE   H5Y15911   0.578   1.138   5.595
  145SAPE   C3615912   0.740   1.181   5.467
  145SAPE   H6X15913   0.773   1.075   5.459
  145SAPE   H6Y15914   0.831   1.245   5.466
  145SAPE   C3715915   0.654   1.199   5.342
  145SAPE   H7X15916   0.604   1.298   5.343
  145SAPE   H7Y15917   0.577   1.120   5.348
  145SAPE   C3815918   0.740   1.179   5.215
  145SAPE   H8X15919   0.781   1.076   5.219
  145SAPE   H8Y15920   0.829   1.244   5.222
  145SAPE   C3915921   0.663   1.180   5.080
  145SAPE   H9X15922   0.610   1.277   5.073
  145SAPE   H9Y15923   0.581   1.107   5.094
  145SAPE  C31015924   0.741   1.154   4.950
  145SAPE  H10X15925   0.777   1.049   4.963
  145SAPE  H10Y15926   0.824   1.222   4.922
  145SAPE  C31115927   0.643   1.146   4.836
  145SAPE  H11X15928   0.601   1.248   4.830
  145SAPE  H11Y15929   0.564   1.072   4.864
  145SAPE  C31215930   0.705   1.119   4.702
  145SAPE  H12X15931   0.794   1.185   4.690
  145SAPE  H12Y15932   0.630   1.140   4.623
  145SAPE  C31315933   0.755   0.969   4.692
  145SAPE  H13X15934   0.668   0.901   4.686
  145SAPE  H13Y15935   0.811   0.938   4.782
  145SAPE  C31415936   0.850   0.944   4.566
  145SAPE  H14X15937   0.949   0.982   4.598
  145SAPE  H14Y15938   0.823   1.005   4.477
  145SAPE  C31515939   0.855   0.793   4.545
  145SAPE  H15X15940   0.750   0.766   4.520
  145SAPE  H15Y15941   0.875   0.749   4.645
  145SAPE  C31615942   0.948   0.744   4.434
  145SAPE  H16X15943   0.942   0.633   4.441
  145SAPE  H16Y15944   1.055   0.772   4.444
  145SAPE  C31715945   0.904   0.793   4.296
  145SAPE  H17X15946   0.919   0.903   4.290
  145SAPE  H17Y15947   0.799   0.774   4.266
  145SAPE  C31815948   0.993   0.729   4.181
  145SAPE  H18X15949   0.959   0.764   4.081
  145SAPE  H18Y15950   0.987   0.618   4.188
  145SAPE  H18Z15951   1.097   0.761   4.204
  146SAPE     N15952   4.496   0.311   6.922
  146SAPE   HN115953   4.581   0.360   6.956
  146SAPE   HN215954   4.437   0.378   6.867
  146SAPE   HN315955   4.436   0.266   6.994
  146SAPE   C1215956   4.532   0.202   6.826
  146SAPE  H12A15957   4.459   0.119   6.820
  146SAPE  H12B15958   4.623   0.149   6.861
  146SAPE   C1115959   4.556   0.264   6.685
  146SAPE  H11A15960   4.584   0.188   6.610
  146SAPE  H11B15961   4.641   0.335   6.692
  146SAPE     P15962   4.401   0.422   6.541
  146SAPE   O1315963   4.339   0.541   6.603
  146SAPE   O1415964   4.530   0.440   6.463
  146SAPE   O1215965   4.426   0.318   6.654
  146SAPE   O1115966   4.285   0.358   6.455
  146SAPE    C115967   4.282   0.224   6.404
  146SAPE    HA15968   4.370   0.167   6.442
  146SAPE    HB15969   4.192   0.173   6.443
  146SAPE    C215970   4.297   0.221   6.254
  146SAPE    HS15971   4.393   0.264   6.219
  146SAPE   O2115972   4.196   0.304   6.190
  146SAPE   C2115973   4.209   0.331   6.057
  146SAPE   O2215974   4.301   0.298   5.984
  146SAPE   C2215975   4.087   0.403   6.014
  146SAPE   H2R15976   3.997   0.355   6.058
  146SAPE   H2S15977   4.101   0.508   6.046
  146SAPE    C315978   4.282   0.073   6.207
  146SAPE    HX15979   4.183   0.041   6.243
  146SAPE    HY15980   4.348   0.008   6.268
  146SAPE   O3115981   4.296   0.051   6.063
  146SAPE   C3115982   4.409   6.907   6.025
  146SAPE   O3215983   4.491   6.851   6.099
  146SAPE   C3215984   4.415   6.898   5.871
  146SAPE   H2X15985   4.376   0.081   5.826
  146SAPE   H2Y15986   4.351   6.812   5.844
  146SAPE   C2315987   4.058   0.411   5.867
  146SAPE   H3R15988   4.042   0.319   5.807
  146SAPE   H3S15989   4.138   0.472   5.820
  146SAPE   C2415990   3.917   0.477   5.848
  146SAPE   H4R15991   3.849   0.427   5.920
  146SAPE   H4S15992   3.883   0.457   5.745
  146SAPE   C2515993   3.910   0.624   5.878
  146SAPE   H5R15994   3.931   0.648   5.983
  146SAPE   C2615995   3.876   0.730   5.798
  146SAPE   H6R15996   3.876   0.836   5.829
  146SAPE   C2715997   3.829   0.724   5.653
  146SAPE   H7R15998   3.814   0.619   5.619
  146SAPE   H7S15999   3.912   0.771   5.597
  146SAPE   C2816000   3.701   0.801   5.622
  146SAPE   H8R16001   3.654   0.854   5.706
  146SAPE   C2916002   3.661   0.838   5.499
  146SAPE   H9R16003   3.577   0.908   5.483
  146SAPE  C21016004   3.723   0.802   5.370
  146SAPE  H10R16005   3.647   0.764   5.298
  146SAPE  H10S16006   3.804   0.726   5.381
  146SAPE  C21116007   3.797   0.920   5.314
  146SAPE  H11R16008   3.815   1.008   5.378
  146SAPE  C21216009   3.845   0.933   5.188
  146SAPE  H12R16010   3.889   1.026   5.149
  146SAPE  C21316011   3.839   0.830   5.080
  146SAPE  H13R16012   3.838   0.883   4.983
  146SAPE  H13S16013   3.750   0.766   5.058
  146SAPE  C21416014   3.959   0.743   5.073
  146SAPE  H14R16015   3.965   0.653   5.136
  146SAPE  C21516016   4.079   0.774   5.015
  146SAPE  H15R16017   4.166   0.707   5.012
  146SAPE  C21616018   4.104   0.909   4.942
  146SAPE  H16R16019   4.150   0.973   5.020
  146SAPE  H16S16020   4.015   0.961   4.901
  146SAPE  C21716021   4.219   0.894   4.851
  146SAPE  H17R16022   4.196   0.814   4.778
  146SAPE  H17S16023   4.318   0.868   4.894
  146SAPE  C21816024   4.244   1.031   4.775
  146SAPE  H18R16025   4.343   1.019   4.724
  146SAPE  H18S16026   4.256   1.120   4.840
  146SAPE  C21916027   4.144   1.055   4.654
  146SAPE  H19R16028   4.036   1.063   4.675
  146SAPE  H19S16029   4.160   0.967   4.588
  146SAPE  C22016030   4.172   1.187   4.569
  146SAPE  H20R16031   4.271   1.184   4.518
  146SAPE  H20S16032   4.168   1.272   4.639
  146SAPE  H20T16033   4.090   1.204   4.495
  146SAPE   C3316034   4.562   6.878   5.820
  146SAPE   H3X16035   4.621   6.799   5.872
  146SAPE   H3Y16036   4.612   0.065   5.813
  146SAPE   C3416037   4.570   6.832   5.673
  146SAPE   H4X16038   4.492   6.889   5.620
  146SAPE   H4Y16039   4.532   6.728   5.683
  146SAPE   C3516040   4.717   6.851   5.627
  146SAPE   H5X16041   4.789   6.815   5.703
  146SAPE   H5Y16042   4.717   0.049   5.610
  146SAPE   C3616043   4.730   6.769   5.498
  146SAPE   H6X16044   4.836   6.771   5.467
  146SAPE   H6Y16045   4.665   6.826   5.427
  146SAPE   C3716046   4.675   6.631   5.501
  146SAPE   H7X16047   4.564   6.631   5.509
  146SAPE   H7Y16048   4.708   6.582   5.595
  146SAPE   C3816049   4.735   6.546   5.393
  146SAPE   H8X16050   4.845   6.538   5.402
  146SAPE   H8Y16051   4.695   6.580   5.295
  146SAPE   C3916052   4.686   6.404   5.400
  146SAPE   H9X16053   4.576   6.414   5.416
  146SAPE   H9Y16054   4.738   6.358   5.487
  146SAPE  C31016055   4.704   6.319   5.270
  146SAPE  H10X16056   4.813   6.298   5.277
  146SAPE  H10Y16057   4.698   6.382   5.179
  146SAPE  C31116058   4.613   6.191   5.258
  146SAPE  H11X16059   4.507   6.224   5.248
  146SAPE  H11Y16060   4.631   6.135   5.353
  146SAPE  C31216061   4.650   6.104   5.141
  146SAPE  H12X16062   4.569   6.028   5.148
  146SAPE  H12Y16063   4.752   6.062   5.149
  146SAPE  C31316064   4.630   6.172   4.998
  146SAPE  H13X16065   4.633   6.091   4.922
  146SAPE  H13Y16066   4.717   6.241   4.992
  146SAPE  C31416067   4.504   6.257   4.985
  146SAPE  H14X16068   4.484   6.334   5.062
  146SAPE  H14Y16069   4.421   6.184   5.001
  146SAPE  C31516070   4.491   6.329   4.855
  146SAPE  H15X16071   4.589   6.381   4.848
  146SAPE  H15Y16072   4.412   6.407   4.862
  146SAPE  C31616073   4.464   6.241   4.735
  146SAPE  H16X16074   4.518   6.144   4.743
  146SAPE  H16Y16075   4.510   6.289   4.646
  146SAPE  C31716076   4.321   6.223   4.688
  146SAPE  H17X16077   4.275   6.319   4.658
  146SAPE  H17Y16078   4.264   6.179   4.772
  146SAPE  C31816079   4.315   6.129   4.562
  146SAPE  H18X16080   4.378   6.169   4.480
  146SAPE  H18Y16081   4.211   6.120   4.525
  146SAPE  H18Z16082   4.366   6.034   4.589
  147SAPE     N16083   4.448   5.448   6.218
  147SAPE   HN116084   4.452   5.372   6.289
  147SAPE   HN216085   4.350   5.476   6.194
  147SAPE   HN316086   4.486   5.410   6.129
  147SAPE   C1216087   4.526   5.569   6.267
  147SAPE  H12A16088   4.463   5.643   6.321
  147SAPE  H12B16089   4.562   5.615   6.173
  147SAPE   C1116090   4.638   5.518   6.364
  147SAPE  H11A16091   4.692   5.431   6.322
  147SAPE  H11B16092   4.595   5.487   6.462
  147SAPE     P16093   4.878   5.631   6.346
  147SAPE   O1316094   4.923   5.770   6.365
  147SAPE   O1416095   4.959   5.529   6.416
  147SAPE   O1216096   4.724   5.627   6.389
  147SAPE   O1116097   4.878   5.593   6.194
  147SAPE    C116098   5.005   5.604   6.126
  147SAPE    HA16099   5.043   5.709   6.125
  147SAPE    HB16100   5.085   5.547   6.177
  147SAPE    C216101   4.991   5.533   5.988
  147SAPE    HS16102   5.086   5.545   5.930
  147SAPE   O2116103   4.875   5.586   5.914
  147SAPE   C2116104   4.875   5.712   5.888
  147SAPE   O2216105   4.974   5.785   5.879
  147SAPE   C2216106   4.738   5.759   5.857
  147SAPE   H2R16107   4.685   5.686   5.792
  147SAPE   H2S16108   4.682   5.777   5.952
  147SAPE    C316109   4.982   5.376   6.005
  147SAPE    HX16110   4.895   5.356   6.070
  147SAPE    HY16111   5.074   5.341   6.057
  147SAPE   O3116112   4.983   5.329   5.870
  147SAPE   C3116113   4.858   5.322   5.818
  147SAPE   O3216114   4.756   5.329   5.880
  147SAPE   C3216115   4.866   5.303   5.664
  147SAPE   H2X16116   4.895   5.196   5.654
  147SAPE   H2Y16117   4.945   5.371   5.625
  147SAPE   C2316118   4.728   5.906   5.798
  147SAPE   H3R16119   4.796   5.978   5.849
  147SAPE   H3S16120   4.625   5.940   5.818
  147SAPE   C2416121   4.757   5.918   5.646
  147SAPE   H4R16122   4.862   5.881   5.649
  147SAPE   H4S16123   4.764   6.026   5.621
  147SAPE   C2516124   4.665   5.842   5.550
  147SAPE   H5R16125   4.558   5.840   5.576
  147SAPE   C2616126   4.703   5.769   5.443
  147SAPE   H6R16127   4.627   5.723   5.378
  147SAPE   C2716128   4.841   5.745   5.386
  147SAPE   H7R16129   4.871   5.638   5.391
  147SAPE   H7S16130   4.921   5.787   5.451
  147SAPE   C2816131   4.858   5.809   5.249
  147SAPE   H8R16132   4.778   5.873   5.212
  147SAPE   C2916133   4.974   5.803   5.174
  147SAPE   H9R16134   4.977   5.855   5.077
  147SAPE  C21016135   5.103   5.726   5.198
  147SAPE  H10R16136   5.085   5.623   5.162
  147SAPE  H10S16137   5.121   5.708   5.306
  147SAPE  C21116138   5.226   5.780   5.145
  147SAPE  H11R16139   5.279   5.851   5.211
  147SAPE  C21216140   5.284   5.771   5.025
  147SAPE  H12R16141   5.377   5.825   5.007
  147SAPE  C21316142   5.233   5.691   4.909
  147SAPE  H13R16143   5.167   5.611   4.950
  147SAPE  H13S16144   5.317   5.635   4.863
  147SAPE  C21416145   5.143   5.753   4.808
  147SAPE  H14R16146   5.055   5.809   4.845
  147SAPE  C21516147   5.150   5.728   4.680
  147SAPE  H15R16148   5.079   5.772   4.609
  147SAPE  C21616149   5.256   5.651   4.603
  147SAPE  H16R16150   5.237   5.542   4.612
  147SAPE  H16S16151   5.358   5.672   4.642
  147SAPE  C21716152   5.256   5.687   4.449
  147SAPE  H17R16153   5.357   5.655   4.414
  147SAPE  H17S16154   5.250   5.797   4.432
  147SAPE  C21816155   5.129   5.616   4.379
  147SAPE  H18R16156   5.049   5.616   4.456
  147SAPE  H18S16157   5.152   5.508   4.364
  147SAPE  C21916158   5.090   5.673   4.242
  147SAPE  H19R16159   5.002   5.612   4.213
  147SAPE  H19S16160   5.159   5.656   4.156
  147SAPE  C22016161   5.066   5.816   4.238
  147SAPE  H20R16162   5.014   5.865   4.323
  147SAPE  H20S16163   5.008   5.851   4.150
  147SAPE  H20T16164   5.161   5.872   4.229
  147SAPE   C3316165   4.735   5.339   5.596
  147SAPE   H3X16166   4.708   5.442   5.627
  147SAPE   H3Y16167   4.653   5.266   5.615
  147SAPE   C3416168   4.747   5.347   5.447
  147SAPE   H4X16169   4.780   5.245   5.418
  147SAPE   H4Y16170   4.826   5.413   5.407
  147SAPE   C3516171   4.620   5.374   5.369
  147SAPE   H5X16172   4.574   5.467   5.410
  147SAPE   H5Y16173   4.556   5.289   5.399
  147SAPE   C3616174   4.640   5.361   5.215
  147SAPE   H6X16175   4.534   5.346   5.187
  147SAPE   H6Y16176   4.701   5.271   5.190
  147SAPE   C3716177   4.684   5.499   5.157
  147SAPE   H7X16178   4.790   5.526   5.178
  147SAPE   H7Y16179   4.627   5.576   5.215
  147SAPE   C3816180   4.650   5.514   5.015
  147SAPE   H8X16181   4.539   5.519   5.006
  147SAPE   H8Y16182   4.691   5.430   4.955
  147SAPE   C3916183   4.706   5.646   4.954
  147SAPE   H9X16184   4.816   5.638   4.969
  147SAPE   H9Y16185   4.665   5.730   5.014
  147SAPE  C31016186   4.677   5.667   4.808
  147SAPE  H10X16187   4.568   5.656   4.794
  147SAPE  H10Y16188   4.727   5.577   4.766
  147SAPE  C31116189   4.738   5.799   4.756
  147SAPE  H11X16190   4.849   5.786   4.749
  147SAPE  H11Y16191   4.725   5.878   4.833
  147SAPE  C31216192   4.686   5.839   4.622
  147SAPE  H12X16193   4.728   5.936   4.586
  147SAPE  H12Y16194   4.578   5.860   4.639
  147SAPE  C31316195   4.694   5.724   4.514
  147SAPE  H13X16196   4.637   5.638   4.555
  147SAPE  H13Y16197   4.801   5.695   4.508
  147SAPE  C31416198   4.633   5.763   4.374
  147SAPE  H14X16199   4.638   5.674   4.308
  147SAPE  H14Y16200   4.692   5.843   4.325
  147SAPE  C31516201   4.488   5.811   4.380
  147SAPE  H15X16202   4.493   5.908   4.436
  147SAPE  H15Y16203   4.423   5.741   4.436
  147SAPE  C31616204   4.419   5.837   4.245
  147SAPE  H16X16205   4.470   5.919   4.191
  147SAPE  H16Y16206   4.310   5.858   4.253
  147SAPE  C31716207   4.429   5.723   4.148
  147SAPE  H17X16208   4.384   5.631   4.193
  147SAPE  H17Y16209   4.535   5.714   4.119
  147SAPE  C31816210   4.363   5.740   4.012
  147SAPE  H18X16211   4.395   5.830   3.956
  147SAPE  H18Y16212   4.253   5.731   4.022
  147SAPE  H18Z16213   4.398   5.654   3.951
  148SAPE     N16214   1.627   0.597   6.090
  148SAPE   HN116215   1.556   0.557   6.155
  148SAPE   HN216216   1.658   0.685   6.136
  148SAPE   HN316217   1.581   0.617   5.999
  148SAPE   C1216218   1.752   0.512   6.072
  148SAPE  H12A16219   1.825   0.559   6.004
  148SAPE  H12B16220   1.711   0.417   6.030
  148SAPE   C1116221   1.829   0.481   6.202
  148SAPE  H11A16222   1.841   0.580   6.251
  148SAPE  H11B16223   1.928   0.445   6.170
  148SAPE     P16224   1.830   0.267   6.343
  148SAPE   O1316225   1.940   0.319   6.425
  148SAPE   O1416226   1.736   0.178   6.414
  148SAPE   O1216227   1.756   0.394   6.288
  148SAPE   O1116228   1.879   0.191   6.213
  148SAPE    C116229   1.784   0.133   6.124
  148SAPE    HA16230   1.750   0.036   6.166
  148SAPE    HB16231   1.707   0.211   6.105
  148SAPE    C216232   1.828   0.102   5.973
  148SAPE    HS16233   1.910   0.028   5.979
  148SAPE   O2116234   1.867   0.228   5.921
  148SAPE   C2116235   1.994   0.234   5.883
  148SAPE   O2216236   2.075   0.146   5.913
  148SAPE   C2216237   2.024   0.347   5.789
  148SAPE   H2R16238   1.964   0.324   5.698
  148SAPE   H2S16239   1.976   0.431   5.843
  148SAPE    C316240   1.717   0.041   5.889
  148SAPE    HX16241   1.636   0.113   5.914
  148SAPE    HY16242   1.677   6.859   5.933
  148SAPE   O3116243   1.740   0.046   5.752
  148SAPE   C3116244   1.810   6.855   5.711
  148SAPE   O3216245   1.859   6.773   5.782
  148SAPE   C3216246   1.825   6.859   5.561
  148SAPE   H2X16247   1.920   6.910   5.532
  148SAPE   H2Y16248   1.737   0.003   5.523
  148SAPE   C2316249   2.175   0.368   5.745
  148SAPE   H3R16250   2.210   0.271   5.704
  148SAPE   H3S16251   2.239   0.389   5.833
  148SAPE   C2416252   2.170   0.480   5.630
  148SAPE   H4R16253   2.145   0.579   5.675
  148SAPE   H4S16254   2.090   0.456   5.556
  148SAPE   C2516255   2.304   0.473   5.568
  148SAPE   H5R16256   2.377   0.543   5.609
  148SAPE   C2616257   2.347   0.387   5.473
  148SAPE   H6R16258   2.455   0.378   5.455
  148SAPE   C2716259   2.248   0.292   5.400
  148SAPE   H7R16260   2.190   0.352   5.327
  148SAPE   H7S16261   2.170   0.257   5.471
  148SAPE   C2816262   2.304   0.166   5.337
  148SAPE   H8R16263   2.300   0.078   5.403
  148SAPE   C2916264   2.334   0.130   5.214
  148SAPE   H9R16265   2.384   0.032   5.206
  148SAPE  C21016266   2.322   0.215   5.094
  148SAPE  H10R16267   2.286   0.317   5.121
  148SAPE  H10S16268   2.257   0.166   5.018
  148SAPE  C21116269   2.450   0.246   5.028
  148SAPE  H11R16270   2.531   0.258   5.102
  148SAPE  C21216271   2.482   0.257   4.898
  148SAPE  H12R16272   2.585   0.276   4.867
  148SAPE  C21316273   2.383   0.220   4.791
  148SAPE  H13R16274   2.283   0.252   4.828
  148SAPE  H13S16275   2.378   0.109   4.780
  148SAPE  C21416276   2.429   0.290   4.666
  148SAPE  H14R16277   2.421   0.400   4.669
  148SAPE  C21516278   2.467   0.235   4.554
  148SAPE  H15R16279   2.498   0.300   4.470
  148SAPE  C21616280   2.490   0.089   4.539
  148SAPE  H16R16281   2.455   0.028   4.625
  148SAPE  H16S16282   2.601   0.081   4.528
  148SAPE  C21716283   2.426   0.037   4.414
  148SAPE  H17R16284   2.315   0.031   4.420
  148SAPE  H17S16285   2.447   6.841   4.407
  148SAPE  C21816286   2.468   0.109   4.283
  148SAPE  H18R16287   2.579   0.113   4.277
  148SAPE  H18S16288   2.421   0.210   4.291
  148SAPE  C21916289   2.419   0.036   4.155
  148SAPE  H19R16290   2.321   6.902   4.180
  148SAPE  H19S16291   2.497   6.870   4.140
  148SAPE  C22016292   2.391   0.128   4.041
  148SAPE  H20R16293   2.327   0.215   4.069
  148SAPE  H20S16294   2.344   0.071   3.958
  148SAPE  H20T16295   2.488   0.170   4.006
  148SAPE   C3316296   1.829   6.711   5.506
  148SAPE   H3X16297   1.746   6.645   5.540
  148SAPE   H3Y16298   1.925   6.670   5.543
  148SAPE   C3416299   1.817   6.710   5.354
  148SAPE   H4X16300   1.856   6.615   5.311
  148SAPE   H4Y16301   1.876   6.790   5.305
  148SAPE   C3516302   1.672   6.732   5.307
  148SAPE   H5X16303   1.624   6.821   5.354
  148SAPE   H5Y16304   1.625   6.642   5.351
  148SAPE   C3616305   1.659   6.740   5.154
  148SAPE   H6X16306   1.739   6.805   5.113
  148SAPE   H6Y16307   1.559   6.782   5.134
  148SAPE   C3716308   1.659   6.607   5.081
  148SAPE   H7X16309   1.579   6.547   5.128
  148SAPE   H7Y16310   1.759   6.567   5.108
  148SAPE   C3816311   1.641   6.626   4.934
  148SAPE   H8X16312   1.699   6.709   4.888
  148SAPE   H8Y16313   1.532   6.636   4.918
  148SAPE   C3916314   1.706   6.501   4.869
  148SAPE   H9X16315   1.640   6.415   4.895
  148SAPE   H9Y16316   1.804   6.474   4.913
  148SAPE  C31016317   1.715   6.513   4.715
  148SAPE  H10X16318   1.778   6.599   4.684
  148SAPE  H10Y16319   1.611   6.515   4.676
  148SAPE  C31116320   1.776   6.387   4.657
  148SAPE  H11X16321   1.783   6.387   4.546
  148SAPE  H11Y16322   1.708   6.303   4.683
  148SAPE  C31216323   1.923   6.355   4.698
  148SAPE  H12X16324   1.920   6.322   4.804
  148SAPE  H12Y16325   1.982   6.448   4.686
  148SAPE  C31316326   1.970   6.231   4.616
  148SAPE  H13X16327   1.984   6.263   4.511
  148SAPE  H13Y16328   1.900   6.147   4.635
  148SAPE  C31416329   2.110   6.190   4.670
  148SAPE  H14X16330   2.147   6.097   4.622
  148SAPE  H14Y16331   2.109   6.171   4.780
  148SAPE  C31516332   2.226   6.295   4.644
  148SAPE  H15X16333   2.298   6.276   4.727
  148SAPE  H15Y16334   2.185   6.397   4.662
  148SAPE  C31616335   2.295   6.288   4.503
  148SAPE  H16X16336   2.211   6.279   4.431
  148SAPE  H16Y16337   2.360   6.198   4.509
  148SAPE  C31716338   2.379   6.406   4.458
  148SAPE  H17X16339   2.424   6.393   4.358
  148SAPE  H17Y16340   2.457   6.417   4.537
  148SAPE  C31816341   2.299   6.534   4.451
  148SAPE  H18X16342   2.215   6.523   4.379
  148SAPE  H18Y16343   2.370   6.617   4.430
  148SAPE  H18Z16344   2.258   6.552   4.552
  149SAPE     N16345   2.156   2.353   6.154
  149SAPE   HN116346   2.081   2.344   6.225
  149SAPE   HN216347   2.235   2.341   6.220
  149SAPE   HN316348   2.154   2.454   6.129
  149SAPE   C1216349   2.156   2.248   6.045
  149SAPE  H12A16350   2.262   2.222   6.027
  149SAPE  H12B16351   2.108   2.287   5.952
  149SAPE   C1116352   2.064   2.135   6.092
  149SAPE  H11A16353   2.066   2.058   6.012
  149SAPE  H11B16354   1.965   2.184   6.085
  149SAPE     P16355   1.978   2.039   6.316
  149SAPE   O1316356   2.012   1.916   6.386
  149SAPE   O1416357   1.922   2.140   6.407
  149SAPE   O1216358   2.094   2.092   6.225
  149SAPE   O1116359   1.871   1.997   6.206
  149SAPE    C116360   1.746   1.940   6.259
  149SAPE    HA16361   1.751   1.858   6.334
  149SAPE    HB16362   1.684   2.018   6.307
  149SAPE    C216363   1.674   1.883   6.139
  149SAPE    HS16364   1.608   1.796   6.159
  149SAPE   O2116365   1.761   1.834   6.029
  149SAPE   C2116366   1.842   1.729   6.062
  149SAPE   O2216367   1.840   1.662   6.166
  149SAPE   C2216368   1.940   1.715   5.934
  149SAPE   H2R16369   1.885   1.728   5.838
  149SAPE   H2S16370   2.006   1.802   5.953
  149SAPE    C316371   1.586   1.995   6.076
  149SAPE    HX16372   1.641   2.087   6.046
  149SAPE    HY16373   1.530   2.033   6.164
  149SAPE   O3116374   1.495   1.938   5.984
  149SAPE   C3116375   1.517   1.978   5.857
  149SAPE   O3216376   1.591   2.070   5.820
  149SAPE   C3216377   1.430   1.902   5.761
  149SAPE   H2X16378   1.334   1.887   5.814
  149SAPE   H2Y16379   1.471   1.799   5.763
  149SAPE   C2316380   2.046   1.602   5.935
  149SAPE   H3R16381   2.070   1.563   6.036
  149SAPE   H3S16382   2.142   1.639   5.892
  149SAPE   C2416383   2.005   1.485   5.843
  149SAPE   H4R16384   1.989   1.528   5.742
  149SAPE   H4S16385   1.906   1.444   5.871
  149SAPE   C2516386   2.102   1.373   5.824
  149SAPE   H5R16387   2.120   1.310   5.913
  149SAPE   C2616388   2.153   1.318   5.710
  149SAPE   H6R16389   2.223   1.234   5.722
  149SAPE   C2716390   2.116   1.362   5.565
  149SAPE   H7R16391   2.136   1.471   5.572
  149SAPE   H7S16392   2.009   1.340   5.543
  149SAPE   C2816393   2.197   1.297   5.458
  149SAPE   H8R16394   2.306   1.312   5.464
  149SAPE   C2916395   2.153   1.250   5.342
  149SAPE   H9R16396   2.225   1.190   5.284
  149SAPE  C21016397   2.009   1.235   5.307
  149SAPE  H10R16398   1.945   1.226   5.397
  149SAPE  H10S16399   1.991   1.143   5.248
  149SAPE  C21116400   1.959   1.361   5.235
  149SAPE  H11R16401   1.975   1.453   5.292
  149SAPE  C21216402   1.904   1.363   5.110
  149SAPE  H12R16403   1.868   1.454   5.061
  149SAPE  C21316404   1.883   1.244   5.027
  149SAPE  H13R16405   1.802   1.263   4.953
  149SAPE  H13S16406   1.842   1.161   5.089
  149SAPE  C21416407   2.011   1.192   4.957
  149SAPE  H14R16408   2.107   1.214   5.005
  149SAPE  C21516409   2.016   1.146   4.829
  149SAPE  H15R16410   2.118   1.116   4.801
  149SAPE  C21616411   1.910   1.104   4.731
  149SAPE  H16R16412   1.809   1.112   4.777
  149SAPE  H16S16413   1.933   0.999   4.702
  149SAPE  C21716414   1.902   1.184   4.595
  149SAPE  H17R16415   1.813   1.160   4.533
  149SAPE  H17S16416   1.994   1.147   4.545
  149SAPE  C21816417   1.914   1.338   4.597
  149SAPE  H18R16418   1.918   1.380   4.494
  149SAPE  H18S16419   2.008   1.368   4.649
  149SAPE  C21916420   1.795   1.398   4.672
  149SAPE  H19R16421   1.792   1.354   4.774
  149SAPE  H19S16422   1.700   1.369   4.624
  149SAPE  C22016423   1.792   1.549   4.678
  149SAPE  H20R16424   1.876   1.599   4.732
  149SAPE  H20S16425   1.699   1.580   4.731
  149SAPE  H20T16426   1.787   1.598   4.579
  149SAPE   C3316427   1.418   1.957   5.614
  149SAPE   H3X16428   1.521   1.981   5.579
  149SAPE   H3Y16429   1.355   2.047   5.599
  149SAPE   C3416430   1.367   1.853   5.518
  149SAPE   H4X16431   1.257   1.856   5.530
  149SAPE   H4Y16432   1.403   1.749   5.533
  149SAPE   C3516433   1.402   1.901   5.375
  149SAPE   H5X16434   1.508   1.872   5.359
  149SAPE   H5Y16435   1.385   2.011   5.375
  149SAPE   C3616436   1.312   1.831   5.272
  149SAPE   H6X16437   1.204   1.847   5.293
  149SAPE   H6Y16438   1.317   1.720   5.267
  149SAPE   C3716439   1.336   1.897   5.140
  149SAPE   H7X16440   1.444   1.883   5.116
  149SAPE   H7Y16441   1.321   2.007   5.145
  149SAPE   C3816442   1.248   1.844   5.029
  149SAPE   H8X16443   1.143   1.843   5.064
  149SAPE   H8Y16444   1.269   1.737   5.009
  149SAPE   C3916445   1.255   1.921   4.892
  149SAPE   H9X16446   1.361   1.936   4.862
  149SAPE   H9Y16447   1.225   2.026   4.909
  149SAPE  C31016448   1.175   1.847   4.780
  149SAPE  H10X16449   1.071   1.838   4.817
  149SAPE  H10Y16450   1.213   1.743   4.781
  149SAPE  C31116451   1.186   1.917   4.645
  149SAPE  H11X16452   1.293   1.930   4.618
  149SAPE  H11Y16453   1.153   2.022   4.658
  149SAPE  C31216454   1.119   1.841   4.524
  149SAPE  H12X16455   1.021   1.798   4.552
  149SAPE  H12Y16456   1.179   1.753   4.490
  149SAPE  C31316457   1.082   1.939   4.411
  149SAPE  H13X16458   1.171   2.003   4.392
  149SAPE  H13Y16459   1.007   2.008   4.456
  149SAPE  C31416460   1.039   1.866   4.282
  149SAPE  H14X16461   0.955   1.797   4.304
  149SAPE  H14Y16462   1.121   1.803   4.243
  149SAPE  C31516463   1.000   1.967   4.171
  149SAPE  H15X16464   0.952   1.899   4.097
  149SAPE  H15Y16465   1.090   2.005   4.117
  149SAPE  C31616466   0.908   2.082   4.211
  149SAPE  H16X16467   0.961   2.153   4.277
  149SAPE  H16Y16468   0.824   2.039   4.269
  149SAPE  C31716469   0.830   2.146   4.094
  149SAPE  H17X16470   0.767   2.222   4.145
  149SAPE  H17Y16471   0.767   2.068   4.045
  149SAPE  C31816472   0.925   2.219   3.995
  149SAPE  H18X16473   0.989   2.137   3.956
  149SAPE  H18Y16474   0.988   2.294   4.048
  149SAPE  H18Z16475   0.866   2.267   3.914
  150SAPE     N16476   4.377   2.637   6.751
  150SAPE   HN116477   4.287   2.616   6.703
  150SAPE   HN216478   4.422   2.548   6.781
  150SAPE   HN316479   4.355   2.692   6.836
  150SAPE   C1216480   4.479   2.701   6.663
  150SAPE  H12A16481   4.559   2.723   6.737
  150SAPE  H12B16482   4.427   2.784   6.610
  150SAPE   C1116483   4.540   2.604   6.561
  150SAPE  H11A16484   4.610   2.664   6.499
  150SAPE  H11B16485   4.467   2.559   6.490
  150SAPE     P16486   4.762   2.469   6.607
  150SAPE   O1316487   4.825   2.606   6.604
  150SAPE   O1416488   4.810   2.378   6.714
  150SAPE   O1216489   4.608   2.495   6.622
  150SAPE   O1116490   4.784   2.401   6.470
  150SAPE    C116491   4.691   2.326   6.397
  150SAPE    HA16492   4.695   2.216   6.404
  150SAPE    HB16493   4.587   2.352   6.427
  150SAPE    C216494   4.704   2.351   6.240
  150SAPE    HS16495   4.654   2.266   6.189
  150SAPE   O2116496   4.838   2.365   6.192
  150SAPE   C2116497   4.910   2.262   6.213
  150SAPE   O2216498   4.873   2.153   6.261
  150SAPE   C2216499   5.048   2.276   6.147
  150SAPE   H2R16500   5.071   2.384   6.135
  150SAPE   H2S16501   5.126   2.237   6.216
  150SAPE    C316502   4.630   2.482   6.203
  150SAPE    HX16503   4.664   2.569   6.263
  150SAPE    HY16504   4.526   2.472   6.243
  150SAPE   O3116505   4.636   2.521   6.067
  150SAPE   C3116506   4.542   2.451   5.999
  150SAPE   O3216507   4.465   2.374   6.052
  150SAPE   C3216508   4.546   2.492   5.857
  150SAPE   H2X16509   4.631   2.449   5.800
  150SAPE   H2Y16510   4.563   2.601   5.867
  150SAPE   C2316511   5.052   2.193   6.008
  150SAPE   H3R16512   5.012   2.090   6.016
  150SAPE   H3S16513   5.157   2.170   5.981
  150SAPE   C2416514   4.980   2.255   5.889
  150SAPE   H4R16515   4.880   2.296   5.915
  150SAPE   H4S16516   4.951   2.174   5.819
  150SAPE   C2516517   5.059   2.377   5.828
  150SAPE   H5R16518   5.112   2.428   5.910
  150SAPE   C2616519   5.078   2.411   5.702
  150SAPE   H6R16520   5.120   2.511   5.684
  150SAPE   C2716521   5.023   2.332   5.585
  150SAPE   H7R16522   4.949   2.397   5.533
  150SAPE   H7S16523   4.959   2.246   5.615
  150SAPE   C2816524   5.132   2.278   5.491
  150SAPE   H8R16525   5.201   2.214   5.548
  150SAPE   C2916526   5.151   2.317   5.366
  150SAPE   H9R16527   5.218   2.260   5.299
  150SAPE  C21016528   5.081   2.428   5.289
  150SAPE  H10R16529   4.986   2.451   5.340
  150SAPE  H10S16530   5.066   2.408   5.180
  150SAPE  C21116531   5.162   2.554   5.299
  150SAPE  H11R16532   5.224   2.565   5.390
  150SAPE  C21216533   5.155   2.659   5.216
  150SAPE  H12R16534   5.219   2.741   5.252
  150SAPE  C21316535   5.082   2.668   5.081
  150SAPE  H13R16536   5.013   2.582   5.061
  150SAPE  H13S16537   5.153   2.662   4.996
  150SAPE  C21416538   5.009   2.804   5.073
  150SAPE  H14R16539   5.043   2.876   5.148
  150SAPE  C21516540   4.916   2.846   4.988
  150SAPE  H15R16541   4.883   2.951   4.981
  150SAPE  C21616542   4.842   2.761   4.884
  150SAPE  H16R16543   4.885   2.660   4.865
  150SAPE  H16S16544   4.832   2.812   4.786
  150SAPE  C21716545   4.696   2.755   4.948
  150SAPE  H17R16546   4.701   2.750   5.059
  150SAPE  H17S16547   4.653   2.662   4.904
  150SAPE  C21816548   4.612   2.872   4.893
  150SAPE  H18R16549   4.633   2.886   4.785
  150SAPE  H18S16550   4.637   2.968   4.944
  150SAPE  C21916551   4.467   2.845   4.926
  150SAPE  H19R16552   4.460   2.828   5.036
  150SAPE  H19S16553   4.435   2.749   4.880
  150SAPE  C22016554   4.373   2.952   4.871
  150SAPE  H20R16555   4.273   2.907   4.857
  150SAPE  H20S16556   4.412   2.986   4.773
  150SAPE  H20T16557   4.368   3.044   4.933
  150SAPE   C3316558   4.410   2.487   5.773
  150SAPE   H3X16559   4.323   2.514   5.837
  150SAPE   H3Y16560   4.394   2.377   5.764
  150SAPE   C3416561   4.412   2.570   5.647
  150SAPE   H4X16562   4.501   2.545   5.585
  150SAPE   H4Y16563   4.417   2.679   5.671
  150SAPE   C3516564   4.276   2.567   5.562
  150SAPE   H5X16565   4.196   2.600   5.632
  150SAPE   H5Y16566   4.256   2.462   5.531
  150SAPE   C3616567   4.264   2.668   5.439
  150SAPE   H6X16568   4.339   2.640   5.363
  150SAPE   H6Y16569   4.285   2.771   5.474
  150SAPE   C3716570   4.129   2.656   5.373
  150SAPE   H7X16571   4.054   2.706   5.438
  150SAPE   H7Y16572   4.095   2.552   5.351
  150SAPE   C3816573   4.111   2.725   5.236
  150SAPE   H8X16574   4.192   2.689   5.169
  150SAPE   H8Y16575   4.141   2.831   5.251
  150SAPE   C3916576   3.977   2.692   5.162
  150SAPE   H9X16577   3.886   2.736   5.207
  150SAPE   H9Y16578   3.970   2.581   5.168
  150SAPE  C31016579   3.976   2.732   5.014
  150SAPE  H10X16580   3.878   2.694   4.979
  150SAPE  H10Y16581   4.052   2.683   4.949
  150SAPE  C31116582   3.998   2.888   4.998
  150SAPE  H11X16583   4.107   2.897   5.020
  150SAPE  H11Y16584   3.943   2.950   5.072
  150SAPE  C31216585   3.970   2.940   4.862
  150SAPE  H12X16586   3.861   2.959   4.856
  150SAPE  H12Y16587   3.992   2.861   4.787
  150SAPE  C31316588   4.025   3.074   4.820
  150SAPE  H13X16589   4.135   3.064   4.812
  150SAPE  H13Y16590   4.001   3.146   4.902
  150SAPE  C31416591   3.972   3.111   4.679
  150SAPE  H14X16592   3.864   3.131   4.694
  150SAPE  H14Y16593   4.000   3.029   4.609
  150SAPE  C31516594   4.054   3.238   4.633
  150SAPE  H15X16595   4.163   3.218   4.640
  150SAPE  H15Y16596   4.026   3.322   4.700
  150SAPE  C31616597   4.013   3.283   4.493
  150SAPE  H16X16598   4.013   3.394   4.489
  150SAPE  H16Y16599   3.907   3.257   4.476
  150SAPE  C31716600   4.093   3.236   4.372
  150SAPE  H17X16601   4.041   3.152   4.321
  150SAPE  H17Y16602   4.194   3.198   4.397
  150SAPE  C31816603   4.100   3.337   4.255
  150SAPE  H18X16604   4.138   3.284   4.165
  150SAPE  H18Y16605   4.168   3.421   4.283
  150SAPE  H18Z16606   4.000   3.379   4.232
  151SAPE     N16607   5.417   6.796   6.243
  151SAPE   HN116608   5.493   6.859   6.275
  151SAPE   HN216609   5.467   6.715   6.202
  151SAPE   HN316610   5.359   6.838   6.168
  151SAPE   C1216611   5.315   6.771   6.347
  151SAPE  H12A16612   5.305   6.872   6.392
  151SAPE  H12B16613   5.367   6.710   6.424
  151SAPE   C1116614   5.175   6.734   6.296
  151SAPE  H11A16615   5.097   6.727   6.374
  151SAPE  H11B16616   5.176   6.639   6.239
  151SAPE     P16617   5.048   0.049   6.244
  151SAPE   O1316618   5.009   0.043   6.385
  151SAPE   O1416619   5.119   0.172   6.210
  151SAPE   O1216620   5.141   6.838   6.203
  151SAPE   O1116621   4.919   0.024   6.154
  151SAPE    C116622   4.892   0.108   6.043
  151SAPE    HA16623   4.792   0.076   6.007
  151SAPE    HB16624   4.886   0.214   6.076
  151SAPE    C216625   4.996   0.107   5.928
  151SAPE    HS16626   5.087   0.160   5.964
  151SAPE   O2116627   4.934   0.182   5.827
  151SAPE   C2116628   5.019   0.241   5.749
  151SAPE   O2216629   5.139   0.232   5.757
  151SAPE   C2216630   4.948   0.347   5.657
  151SAPE   H2R16631   4.855   0.304   5.615
  151SAPE   H2S16632   4.911   0.431   5.721
  151SAPE    C316633   5.034   6.872   5.885
  151SAPE    HX16634   4.941   6.814   5.902
  151SAPE    HY16635   5.114   6.835   5.953
  151SAPE   O3116636   5.071   6.853   5.748
  151SAPE   C3116637   5.203   6.847   5.721
  151SAPE   O3216638   5.297   6.844   5.798
  151SAPE   C3216639   5.227   6.839   5.572
  151SAPE   H2X16640   5.326   6.793   5.556
  151SAPE   H2Y16641   5.249   0.028   5.530
  151SAPE   C2316642   5.044   0.391   5.549
  151SAPE   H3R16643   5.073   0.305   5.484
  151SAPE   H3S16644   5.145   0.426   5.579
  151SAPE   C2416645   4.978   0.498   5.459
  151SAPE   H4R16646   4.875   0.468   5.430
  151SAPE   H4S16647   5.025   0.519   5.361
  151SAPE   C2516648   4.949   0.631   5.523
  151SAPE   H5R16649   5.038   0.694   5.538
  151SAPE   C2616650   4.829   0.680   5.571
  151SAPE   H6R16651   4.832   0.782   5.611
  151SAPE   C2716652   4.702   0.598   5.573
  151SAPE   H7R16653   4.644   0.625   5.663
  151SAPE   H7S16654   4.731   0.491   5.580
  151SAPE   C2816655   4.619   0.627   5.452
  151SAPE   H8R16656   4.674   0.633   5.357
  151SAPE   C2916657   4.491   0.652   5.448
  151SAPE   H9R16658   4.460   0.649   5.342
  151SAPE  C21016659   4.388   0.651   5.563
  151SAPE  H10R16660   4.286   0.679   5.530
  151SAPE  H10S16661   4.398   0.735   5.636
  151SAPE  C21116662   4.384   0.544   5.667
  151SAPE  H11R16663   4.416   0.568   5.769
  151SAPE  C21216664   4.337   0.423   5.644
  151SAPE  H12R16665   4.351   0.339   5.713
  151SAPE  C21316666   4.295   0.381   5.507
  151SAPE  H13R16667   4.354   0.289   5.487
  151SAPE  H13S16668   4.326   0.458   5.433
  151SAPE  C21416669   4.147   0.356   5.497
  151SAPE  H14R16670   4.110   0.327   5.597
  151SAPE  C21516671   4.064   0.357   5.384
  151SAPE  H15R16672   3.957   0.335   5.400
  151SAPE  C21616673   4.110   0.380   5.245
  151SAPE  H16R16674   4.192   0.307   5.226
  151SAPE  H16S16675   4.158   0.480   5.245
  151SAPE  C21716676   3.994   0.361   5.138
  151SAPE  H17R16677   4.050   0.398   5.049
  151SAPE  H17S16678   3.910   0.428   5.166
  151SAPE  C21816679   3.952   0.213   5.126
  151SAPE  H18R16680   3.852   0.212   5.076
  151SAPE  H18S16681   3.936   0.172   5.228
  151SAPE  C21916682   4.045   0.144   5.036
  151SAPE  H19R16683   4.146   0.132   5.080
  151SAPE  H19S16684   4.068   0.196   4.940
  151SAPE  C22016685   3.987   0.002   5.008
  151SAPE  H20R16686   3.947   6.863   5.098
  151SAPE  H20S16687   4.068   6.849   4.968
  151SAPE  H20T16688   3.900   0.019   4.941
  151SAPE   C3316689   5.116   6.764   5.500
  151SAPE   H3X16690   5.021   6.822   5.499
  151SAPE   H3Y16691   5.096   6.671   5.558
  151SAPE   C3416692   5.149   6.753   5.345
  151SAPE   H4X16693   5.253   6.717   5.329
  151SAPE   H4Y16694   5.155   6.852   5.295
  151SAPE   C3516695   5.044   6.675   5.258
  151SAPE   H5X16696   4.943   6.721   5.265
  151SAPE   H5Y16697   5.026   6.572   5.297
  151SAPE   C3616698   5.065   6.669   5.108
  151SAPE   H6X16699   5.160   6.614   5.092
  151SAPE   H6Y16700   5.085   6.764   5.054
  151SAPE   C3716701   4.951   6.605   5.030
  151SAPE   H7X16702   4.864   6.668   5.059
  151SAPE   H7Y16703   4.936   6.503   5.072
  151SAPE   C3816704   4.966   6.595   4.881
  151SAPE   H8X16705   5.062   6.542   4.863
  151SAPE   H8Y16706   4.978   6.686   4.819
  151SAPE   C3916707   4.850   6.523   4.812
  151SAPE   H9X16708   4.759   6.583   4.833
  151SAPE   H9Y16709   4.828   6.430   4.869
  151SAPE  C31016710   4.867   6.482   4.668
  151SAPE  H10X16711   4.772   6.441   4.628
  151SAPE  H10Y16712   4.929   6.391   4.668
  151SAPE  C31116713   4.907   6.602   4.578
  151SAPE  H11X16714   5.012   6.633   4.599
  151SAPE  H11Y16715   4.840   6.686   4.605
  151SAPE  C31216716   4.900   6.568   4.422
  151SAPE  H12X16717   4.802   6.521   4.401
  151SAPE  H12Y16718   4.967   6.483   4.396
  151SAPE  C31316719   4.921   6.693   4.339
  151SAPE  H13X16720   5.007   6.749   4.383
  151SAPE  H13Y16721   4.831   6.754   4.361
  151SAPE  C31416722   4.947   6.667   4.186
  151SAPE  H14X16723   4.863   6.601   4.158
  151SAPE  H14Y16724   5.046   6.621   4.166
  151SAPE  C31516725   4.943   6.789   4.096
  151SAPE  H15X16726   4.848   6.843   4.119
  151SAPE  H15Y16727   4.945   6.766   3.987
  151SAPE  C31616728   5.061   6.875   4.142
  151SAPE  H16X16729   5.156   6.818   4.135
  151SAPE  H16Y16730   5.045   6.905   4.248
  151SAPE  C31716731   5.068   0.093   4.052
  151SAPE  H17X16732   4.979   0.160   4.051
  151SAPE  H17Y16733   5.069   0.052   3.948
  151SAPE  C31816734   5.195   0.171   4.075
  151SAPE  H18X16735   5.205   0.256   4.004
  151SAPE  H18Y16736   5.282   0.103   4.066
  151SAPE  H18Z16737   5.208   0.205   4.180
  152SAPE     N16738   0.023   2.772   6.570
  152SAPE   HN116739   0.102   2.732   6.625
  152SAPE   HN216740   0.014   2.875   6.564
  152SAPE   HN316741   6.850   2.722   6.604
  152SAPE   C1216742   0.072   2.727   6.439
  152SAPE  H12A16743   0.181   2.747   6.433
  152SAPE  H12B16744   0.011   2.789   6.370
  152SAPE   C1116745   0.051   2.570   6.420
  152SAPE  H11A16746   0.053   2.545   6.312
  152SAPE  H11B16747   6.863   2.538   6.456
  152SAPE     P16748   0.173   2.357   6.511
  152SAPE   O1316749   0.224   2.337   6.646
  152SAPE   O1416750   0.040   2.301   6.476
  152SAPE   O1216751   0.155   2.507   6.494
  152SAPE   O1116752   0.274   2.314   6.409
  152SAPE    C116753   0.315   2.375   6.287
  152SAPE    HA16754   0.330   2.483   6.309
  152SAPE    HB16755   0.411   2.324   6.266
  152SAPE    C216756   0.211   2.344   6.176
  152SAPE    HS16757   0.112   2.386   6.204
  152SAPE   O2116758   0.214   2.199   6.152
  152SAPE   C2116759   0.099   2.158   6.094
  152SAPE   O2216760   6.902   2.215   6.093
  152SAPE   C2216761   0.122   2.021   6.026
  152SAPE   H2R16762   0.154   1.949   6.104
  152SAPE   H2S16763   0.033   1.981   5.971
  152SAPE    C316764   0.247   2.416   6.041
  152SAPE    HX16765   0.341   2.367   6.006
  152SAPE    HY16766   0.284   2.521   6.042
  152SAPE   O3116767   0.138   2.396   5.939
  152SAPE   C3116768   0.053   2.494   5.965
  152SAPE   O3216769   0.066   2.586   6.044
  152SAPE   C3216770   6.843   2.472   5.873
  152SAPE   H2X16771   6.765   2.545   5.905
  152SAPE   H2Y16772   6.792   2.378   5.902
  152SAPE   C2316773   0.242   2.015   5.924
  152SAPE   H3R16774   0.248   1.914   5.878
  152SAPE   H3S16775   0.343   2.030   5.968
  152SAPE   C2416776   0.227   2.113   5.797
  152SAPE   H4R16777   0.315   2.081   5.737
  152SAPE   H4S16778   0.242   2.215   5.839
  152SAPE   C2516779   0.108   2.120   5.704
  152SAPE   H5R16780   0.035   2.195   5.738
  152SAPE   C2616781   0.098   2.076   5.574
  152SAPE   H6R16782   0.014   2.115   5.514
  152SAPE   C2716783   0.202   1.991   5.506
  152SAPE   H7R16784   0.262   1.930   5.578
  152SAPE   H7S16785   0.272   2.057   5.450
  152SAPE   C2816786   0.130   1.904   5.407
  152SAPE   H8R16787   0.027   1.880   5.437
  152SAPE   C2916788   0.184   1.868   5.292
  152SAPE   H9R16789   0.128   1.809   5.218
  152SAPE  C21016790   0.325   1.895   5.246
  152SAPE  H10R16791   0.386   1.807   5.277
  152SAPE  H10S16792   0.366   1.981   5.303
  152SAPE  C21116793   0.321   1.946   5.107
  152SAPE  H11R16794   0.320   2.056   5.106
  152SAPE  C21216795   0.331   1.870   4.992
  152SAPE  H12R16796   0.342   1.931   4.902
  152SAPE  C21316797   0.350   1.728   4.979
  152SAPE  H13R16798   0.286   1.684   4.900
  152SAPE  H13S16799   0.311   1.677   5.070
  152SAPE  C21416800   0.498   1.689   4.952
  152SAPE  H14R16801   0.561   1.700   5.041
  152SAPE  C21516802   0.546   1.673   4.830
  152SAPE  H15R16803   0.650   1.641   4.814
  152SAPE  C21616804   0.468   1.665   4.700
  152SAPE  H16R16805   0.361   1.646   4.725
  152SAPE  H16S16806   0.501   1.591   4.624
  152SAPE  C21716807   0.470   1.804   4.628
  152SAPE  H17R16808   0.438   1.887   4.695
  152SAPE  H17S16809   0.394   1.792   4.548
  152SAPE  C21816810   0.609   1.833   4.575
  152SAPE  H18R16811   0.641   1.753   4.505
  152SAPE  H18S16812   0.687   1.844   4.654
  152SAPE  C21916813   0.628   1.968   4.496
  152SAPE  H19R16814   0.737   1.986   4.481
  152SAPE  H19S16815   0.595   2.053   4.560
  152SAPE  C22016816   0.571   1.975   4.357
  152SAPE  H20R16817   0.594   2.070   4.304
  152SAPE  H20S16818   0.462   1.955   4.350
  152SAPE  H20T16819   0.618   1.894   4.298
  152SAPE   C3316820   6.883   2.495   5.725
  152SAPE   H3X16821   0.024   2.404   5.689
  152SAPE   H3Y16822   0.034   2.582   5.697
  152SAPE   C3416823   6.762   2.506   5.629
  152SAPE   H4X16824   6.718   2.606   5.649
  152SAPE   H4Y16825   6.682   2.433   5.651
  152SAPE   C3516826   6.810   2.507   5.483
  152SAPE   H5X16827   6.878   2.594   5.467
  152SAPE   H5Y16828   6.720   2.539   5.428
  152SAPE   C3616829   6.848   2.372   5.419
  152SAPE   H6X16830   6.795   2.288   5.468
  152SAPE   H6Y16831   0.045   2.366   5.442
  152SAPE   C3716832   6.822   2.374   5.264
  152SAPE   H7X16833   6.865   2.471   5.233
  152SAPE   H7Y16834   6.715   2.363   5.239
  152SAPE   C3816835   6.879   2.244   5.194
  152SAPE   H8X16836   6.826   2.156   5.235
  152SAPE   H8Y16837   0.071   2.238   5.233
  152SAPE   C3916838   6.876   2.262   5.037
  152SAPE   H9X16839   0.010   2.359   5.011
  152SAPE   H9Y16840   6.772   2.253   4.999
  152SAPE  C31016841   0.045   2.139   4.964
  152SAPE  H10X16842   6.893   2.050   4.951
  152SAPE  H10Y16843   0.113   2.106   5.046
  152SAPE  C31116844   0.107   2.184   4.829
  152SAPE  H11X16845   0.194   2.124   4.795
  152SAPE  H11Y16846   0.141   2.290   4.830
  152SAPE  C31216847   6.902   2.174   4.722
  152SAPE  H12X16848   6.821   2.244   4.749
  152SAPE  H12Y16849   6.865   2.070   4.716
  152SAPE  C31316850   0.045   2.220   4.585
  152SAPE  H13X16851   0.133   2.156   4.559
  152SAPE  H13Y16852   0.082   2.324   4.585
  152SAPE  C31416853   6.852   2.181   4.482
  152SAPE  H14X16854   6.756   2.223   4.517
  152SAPE  H14Y16855   6.845   2.070   4.484
  152SAPE  C31516856   6.869   2.240   4.344
  152SAPE  H15X16857   0.063   2.257   4.315
  152SAPE  H15Y16858   6.828   2.343   4.342
  152SAPE  C31616859   6.800   2.164   4.232
  152SAPE  H16X16860   6.798   2.230   4.142
  152SAPE  H16Y16861   6.695   2.139   4.255
  152SAPE  C31716862   6.881   2.028   4.211
  152SAPE  H17X16863   6.836   1.974   4.126
  152SAPE  H17Y16864   6.858   1.965   4.299
  152SAPE  C31816865   0.123   2.024   4.187
  152SAPE  H18X16866   0.149   1.919   4.164
  152SAPE  H18Y16867   0.174   2.060   4.279
  152SAPE  H18Z16868   0.157   2.087   4.102
  153SAPE     N16869   6.829   1.790   6.843
  153SAPE   HN116870   6.845   1.892   6.850
  153SAPE   HN216871   6.753   1.768   6.911
  153SAPE   HN316872   6.907   1.734   6.882
  153SAPE   C1216873   6.798   1.756   6.703
  153SAPE  H12A16874   6.765   1.650   6.704
  153SAPE  H12B16875   6.894   1.780   6.653
  153SAPE   C1116876   6.681   1.842   6.658
  153SAPE  H11A16877   6.674   1.816   6.551
  153SAPE  H11B16878   6.706   1.949   6.675
  153SAPE     P16879   6.431   1.889   6.687
  153SAPE   O1316880   6.308   1.847   6.759
  153SAPE   O1416881   6.461   2.034   6.681
  153SAPE   O1216882   6.557   1.809   6.734
  153SAPE   O1116883   6.423   1.841   6.534
  153SAPE    C116884   6.398   1.706   6.492
  153SAPE    HA16885   6.497   1.658   6.476
  153SAPE    HB16886   6.336   1.645   6.561
  153SAPE    C216887   6.319   1.698   6.361
  153SAPE    HS16888   6.387   1.732   6.280
  153SAPE   O2116889   6.188   1.771   6.366
  153SAPE   C2116890   6.160   1.834   6.249
  153SAPE   O2216891   6.233   1.826   6.153
  153SAPE   C2216892   6.040   1.931   6.272
  153SAPE   H2R16893   5.952   1.875   6.311
  153SAPE   H2S16894   6.076   1.993   6.358
  153SAPE    C316895   6.281   1.549   6.332
  153SAPE    HX16896   6.211   1.505   6.406
  153SAPE    HY16897   6.370   1.483   6.344
  153SAPE   O3116898   6.222   1.529   6.204
  153SAPE   C3116899   6.315   1.529   6.103
  153SAPE   O3216900   6.436   1.548   6.117
  153SAPE   C3216901   6.243   1.479   5.970
  153SAPE   H2X16902   6.161   1.552   5.955
  153SAPE   H2Y16903   6.212   1.376   5.997
  153SAPE   C2316904   5.996   2.024   6.149
  153SAPE   H3R16905   6.083   2.067   6.095
  153SAPE   H3S16906   5.941   2.108   6.197
  153SAPE   C2416907   5.900   1.958   6.053
  153SAPE   H4R16908   5.825   2.029   6.013
  153SAPE   H4S16909   5.847   1.879   6.111
  153SAPE   C2516910   5.979   1.887   5.943
  153SAPE   H5R16911   6.053   1.813   5.976
  153SAPE   C2616912   5.948   1.889   5.810
  153SAPE   H6R16913   6.026   1.837   5.752
  153SAPE   C2716914   5.854   1.974   5.738
  153SAPE   H7R16915   5.754   1.970   5.784
  153SAPE   H7S16916   5.847   1.936   5.634
  153SAPE   C2816917   5.895   2.119   5.733
  153SAPE   H8R16918   5.893   2.155   5.837
  153SAPE   C2916919   5.927   2.188   5.617
  153SAPE   H9R16920   5.939   2.297   5.627
  153SAPE  C21016921   5.936   2.122   5.475
  153SAPE  H10R16922   5.838   2.151   5.432
  153SAPE  H10S16923   5.939   2.011   5.467
  153SAPE  C21116924   6.059   2.173   5.401
  153SAPE  H11R16925   6.146   2.186   5.467
  153SAPE  C21216926   6.073   2.201   5.270
  153SAPE  H12R16927   6.170   2.239   5.233
  153SAPE  C21316928   5.967   2.203   5.166
  153SAPE  H13R16929   5.944   2.311   5.155
  153SAPE  H13S16930   5.870   2.159   5.200
  153SAPE  C21416931   6.009   2.136   5.037
  153SAPE  H14R16932   6.021   2.028   5.053
  153SAPE  C21516933   6.036   2.200   4.925
  153SAPE  H15R16934   6.073   2.137   4.843
  153SAPE  C21616935   6.030   2.344   4.900
  153SAPE  H16R16936   5.987   2.395   4.988
  153SAPE  H16S16937   5.969   2.365   4.809
  153SAPE  C21716938   6.166   2.403   4.864
  153SAPE  H17R16939   6.237   2.342   4.803
  153SAPE  H17S16940   6.224   2.399   4.959
  153SAPE  C21816941   6.148   2.543   4.800
  153SAPE  H18R16942   6.245   2.597   4.805
  153SAPE  H18S16943   6.061   2.586   4.855
  153SAPE  C21916944   6.120   2.526   4.650
  153SAPE  H19R16945   6.017   2.491   4.629
  153SAPE  H19S16946   6.194   2.451   4.614
  153SAPE  C22016947   6.154   2.661   4.580
  153SAPE  H20R16948   6.133   2.656   4.471
  153SAPE  H20S16949   6.262   2.684   4.584
  153SAPE  H20T16950   6.103   2.750   4.622
  153SAPE   C3316951   6.336   1.460   5.841
  153SAPE   H3X16952   6.432   1.418   5.875
  153SAPE   H3Y16953   6.355   1.561   5.798
  153SAPE   C3416954   6.259   1.366   5.743
  153SAPE   H4X16955   6.164   1.417   5.716
  153SAPE   H4Y16956   6.234   1.270   5.793
  153SAPE   C3516957   6.332   1.333   5.610
  153SAPE   H5X16958   6.419   1.270   5.640
  153SAPE   H5Y16959   6.374   1.426   5.567
  153SAPE   C3616960   6.244   1.260   5.510
  153SAPE   H6X16961   6.144   1.308   5.512
  153SAPE   H6Y16962   6.217   1.158   5.543
  153SAPE   C3716963   6.299   1.251   5.370
  153SAPE   H7X16964   6.268   1.157   5.320
  153SAPE   H7Y16965   6.410   1.248   5.366
  153SAPE   C3816966   6.257   1.373   5.291
  153SAPE   H8X16967   6.291   1.468   5.339
  153SAPE   H8Y16968   6.146   1.379   5.289
  153SAPE   C3916969   6.302   1.366   5.145
  153SAPE   H9X16970   6.247   1.284   5.095
  153SAPE   H9Y16971   6.411   1.352   5.128
  153SAPE  C31016972   6.260   1.502   5.077
  153SAPE  H10X16973   6.309   1.595   5.114
  153SAPE  H10Y16974   6.153   1.517   5.101
  153SAPE  C31116975   6.279   1.496   4.923
  153SAPE  H11X16976   6.211   1.570   4.873
  153SAPE  H11Y16977   6.232   1.401   4.891
  153SAPE  C31216978   6.428   1.504   4.876
  153SAPE  H12X16979   6.496   1.459   4.952
  153SAPE  H12Y16980   6.451   1.612   4.866
  153SAPE  C31316981   6.451   1.430   4.742
  153SAPE  H13X16982   6.362   1.443   4.677
  153SAPE  H13Y16983   6.443   1.324   4.776
  153SAPE  C31416984   6.578   1.464   4.664
  153SAPE  H14X16985   6.672   1.460   4.723
  153SAPE  H14Y16986   6.580   1.569   4.627
  153SAPE  C31516987   6.580   1.378   4.533
  153SAPE  H15X16988   6.478   1.363   4.491
  153SAPE  H15Y16989   6.615   1.276   4.560
  153SAPE  C31616990   6.679   1.433   4.424
  153SAPE  H16X16991   6.765   1.474   4.481
  153SAPE  H16Y16992   6.638   1.520   4.369
  153SAPE  C31716993   6.720   1.337   4.318
  153SAPE  H17X16994   6.632   1.280   4.280
  153SAPE  H17Y16995   6.785   1.264   4.371
  153SAPE  C31816996   6.801   1.403   4.208
  153SAPE  H18X16997   6.880   1.470   4.247
  153SAPE  H18Y16998   6.745   1.478   4.148
  153SAPE  H18Z16999   6.852   1.331   4.142
  154SAPE     N17000   4.009   0.449   6.397
  154SAPE   HN117001   3.915   0.455   6.353
  154SAPE   HN217002   4.076   0.430   6.320
  154SAPE   HN317003   4.006   0.358   6.448
  154SAPE   C1217004   4.030   0.557   6.502
  154SAPE  H12A17005   4.134   0.593   6.491
  154SAPE  H12B17006   4.016   0.514   6.604
  154SAPE   C1117007   3.912   0.663   6.502
  154SAPE  H11A17008   3.908   0.720   6.407
  154SAPE  H11B17009   3.934   0.740   6.579
  154SAPE     P17010   3.642   0.647   6.500
  154SAPE   O1317011   3.552   0.544   6.558
  154SAPE   O1417012   3.625   0.792   6.538
  154SAPE   O1217013   3.792   0.597   6.525
  154SAPE   O1117014   3.650   0.640   6.346
  154SAPE    C117015   3.556   0.701   6.259
  154SAPE    HA17016   3.524   0.805   6.279
  154SAPE    HB17017   3.600   0.702   6.156
  154SAPE    C217018   3.424   0.619   6.260
  154SAPE    HS17019   3.387   0.606   6.364
  154SAPE   O2117020   3.456   0.494   6.193
  154SAPE   C2117021   3.370   0.395   6.221
  154SAPE   O2217022   3.262   0.410   6.281
  154SAPE   C2217023   3.420   0.268   6.155
  154SAPE   H2R17024   3.530   0.273   6.168
  154SAPE   H2S17025   3.383   0.181   6.214
  154SAPE    C317026   3.313   0.701   6.185
  154SAPE    HX17027   3.299   0.797   6.239
  154SAPE    HY17028   3.219   0.643   6.181
  154SAPE   O3117029   3.344   0.725   6.044
  154SAPE   C3117030   3.296   0.834   5.991
  154SAPE   O3217031   3.214   0.908   6.037
  154SAPE   C3217032   3.355   0.845   5.848
  154SAPE   H2X17033   3.339   0.753   5.789
  154SAPE   H2Y17034   3.464   0.859   5.864
  154SAPE   C2317035   3.368   0.253   6.006
  154SAPE   H3R17036   3.258   0.265   6.010
  154SAPE   H3S17037   3.395   0.149   5.976
  154SAPE   C2417038   3.419   0.362   5.905
  154SAPE   H4R17039   3.399   0.463   5.946
  154SAPE   H4S17040   3.360   0.341   5.812
  154SAPE   C2517041   3.571   0.345   5.887
  154SAPE   H5R17042   3.628   0.413   5.953
  154SAPE   C2617043   3.632   0.261   5.804
  154SAPE   H6R17044   3.742   0.248   5.807
  154SAPE   C2717045   3.561   0.158   5.718
  154SAPE   H7R17046   3.471   0.202   5.671
  154SAPE   H7S17047   3.529   0.082   5.793
  154SAPE   C2817048   3.649   0.096   5.611
  154SAPE   H8R17049   3.719   0.030   5.664
  154SAPE   C2917050   3.660   0.125   5.479
  154SAPE   H9R17051   3.749   0.090   5.424
  154SAPE  C21017052   3.574   0.225   5.400
  154SAPE  H10R17053   3.464   0.212   5.415
  154SAPE  H10S17054   3.600   0.193   5.296
  154SAPE  C21117055   3.611   0.367   5.424
  154SAPE  H11R17056   3.621   0.406   5.526
  154SAPE  C21217057   3.621   0.457   5.325
  154SAPE  H12R17058   3.645   0.562   5.347
  154SAPE  C21317059   3.602   0.425   5.175
  154SAPE  H13R17060   3.511   0.361   5.174
  154SAPE  H13S17061   3.682   0.357   5.140
  154SAPE  C21417062   3.582   0.541   5.077
  154SAPE  H14R17063   3.528   0.630   5.111
  154SAPE  C21517064   3.611   0.542   4.947
  154SAPE  H15R17065   3.599   0.634   4.889
  154SAPE  C21617066   3.671   0.428   4.868
  154SAPE  H16R17067   3.663   0.330   4.920
  154SAPE  H16S17068   3.782   0.425   4.858
  154SAPE  C21717069   3.606   0.433   4.727
  154SAPE  H17R17070   3.616   0.531   4.677
  154SAPE  H17S17071   3.497   0.423   4.744
  154SAPE  C21817072   3.633   0.299   4.655
  154SAPE  H18R17073   3.624   0.218   4.730
  154SAPE  H18S17074   3.734   0.297   4.608
  154SAPE  C21917075   3.542   0.280   4.529
  154SAPE  H19R17076   3.567   0.369   4.467
  154SAPE  H19S17077   3.434   0.295   4.550
  154SAPE  C22017078   3.558   0.146   4.456
  154SAPE  H20R17079   3.494   0.141   4.365
  154SAPE  H20S17080   3.533   0.063   4.526
  154SAPE  H20T17081   3.664   0.132   4.425
  154SAPE   C3317082   3.285   0.957   5.773
  154SAPE   H3X17083   3.298   1.048   5.835
  154SAPE   H3Y17084   3.175   0.939   5.769
  154SAPE   C3417085   3.319   0.968   5.619
  154SAPE   H4X17086   3.251   0.900   5.563
  154SAPE   H4Y17087   3.421   0.928   5.599
  154SAPE   C3517088   3.306   1.103   5.550
  154SAPE   H5X17089   3.373   1.174   5.603
  154SAPE   H5Y17090   3.201   1.136   5.565
  154SAPE   C3617091   3.333   1.095   5.400
  154SAPE   H6X17092   3.285   1.007   5.352
  154SAPE   H6Y17093   3.441   1.069   5.401
  154SAPE   C3717094   3.319   1.224   5.328
  154SAPE   H7X17095   3.342   1.302   5.404
  154SAPE   H7Y17096   3.214   1.250   5.304
  154SAPE   C3817097   3.410   1.234   5.210
  154SAPE   H8X17098   3.512   1.203   5.240
  154SAPE   H8Y17099   3.429   1.341   5.187
  154SAPE   C3917100   3.363   1.158   5.076
  154SAPE   H9X17101   3.268   1.196   5.034
  154SAPE   H9Y17102   3.358   1.051   5.107
  154SAPE  C31017103   3.465   1.168   4.958
  154SAPE  H10X17104   3.558   1.154   5.018
  154SAPE  H10Y17105   3.478   1.271   4.918
  154SAPE  C31117106   3.459   1.063   4.847
  154SAPE  H11X17107   3.466   0.966   4.900
  154SAPE  H11Y17108   3.543   1.072   4.774
  154SAPE  C31217109   3.327   1.078   4.773
  154SAPE  H12X17110   3.236   1.046   4.828
  154SAPE  H12Y17111   3.335   1.009   4.687
  154SAPE  C31317112   3.298   1.217   4.706
  154SAPE  H13X17113   3.384   1.241   4.640
  154SAPE  H13Y17114   3.287   1.289   4.790
  154SAPE  C31417115   3.175   1.211   4.615
  154SAPE  H14X17116   3.084   1.191   4.676
  154SAPE  H14Y17117   3.180   1.145   4.527
  154SAPE  C31517118   3.135   1.343   4.553
  154SAPE  H15X17119   3.213   1.377   4.481
  154SAPE  H15Y17120   3.133   1.422   4.631
  154SAPE  C31617121   2.997   1.337   4.487
  154SAPE  H16X17122   2.976   1.438   4.446
  154SAPE  H16Y17123   2.917   1.326   4.563
  154SAPE  C31717124   2.982   1.237   4.366
  154SAPE  H17X17125   2.979   1.136   4.412
  154SAPE  H17Y17126   3.070   1.239   4.297
  154SAPE  C31817127   2.862   1.271   4.288
  154SAPE  H18X17128   2.870   1.371   4.241
  154SAPE  H18Y17129   2.771   1.289   4.349
  154SAPE  H18Z17130   2.835   1.187   4.220
  155SAPE     N17131   5.409   6.154   6.514
  155SAPE   HN117132   5.307   6.149   6.494
  155SAPE   HN217133   5.453   6.061   6.499
  155SAPE   HN317134   5.430   6.190   6.609
  155SAPE   C1217135   5.461   6.237   6.406
  155SAPE  H12A17136   5.429   6.199   6.307
  155SAPE  H12B17137   5.570   6.220   6.410
  155SAPE   C1117138   5.421   6.385   6.430
  155SAPE  H11A17139   5.477   6.426   6.517
  155SAPE  H11B17140   5.312   6.397   6.447
  155SAPE     P17141   5.599   6.476   6.259
  155SAPE   O1317142   5.620   6.607   6.199
  155SAPE   O1417143   5.704   6.443   6.355
  155SAPE   O1217144   5.452   6.467   6.317
  155SAPE   O1117145   5.603   6.375   6.145
  155SAPE    C117146   5.485   6.357   6.063
  155SAPE    HA17147   5.431   6.260   6.073
  155SAPE    HB17148   5.410   6.438   6.076
  155SAPE    C217149   5.518   6.363   5.913
  155SAPE    HS17150   5.590   6.284   5.883
  155SAPE   O2117151   5.571   6.501   5.890
  155SAPE   C2117152   5.697   6.506   5.845
  155SAPE   O2217153   5.764   6.404   5.815
  155SAPE   C2217154   5.747   6.654   5.832
  155SAPE   H2R17155   5.728   6.694   5.933
  155SAPE   H2S17156   5.857   6.646   5.820
  155SAPE    C317157   5.398   6.340   5.824
  155SAPE    HX17158   5.321   6.420   5.831
  155SAPE    HY17159   5.336   6.251   5.848
  155SAPE   O3117160   5.431   6.339   5.682
  155SAPE   C3117161   5.483   6.229   5.637
  155SAPE   O3217162   5.495   6.127   5.700
  155SAPE   C3217163   5.504   6.240   5.491
  155SAPE   H2X17164   5.602   6.289   5.479
  155SAPE   H2Y17165   5.434   6.318   5.453
  155SAPE   C2317166   5.681   6.741   5.726
  155SAPE   H3R17167   5.715   6.847   5.732
  155SAPE   H3S17168   5.570   6.741   5.737
  155SAPE   C2417169   5.714   6.678   5.588
  155SAPE   H4R17170   5.672   6.575   5.586
  155SAPE   H4S17171   5.825   6.679   5.584
  155SAPE   C2517172   5.670   6.774   5.476
  155SAPE   H5R17173   5.693   6.881   5.492
  155SAPE   C2617174   5.618   6.729   5.357
  155SAPE   H6R17175   5.587   6.794   5.274
  155SAPE   C2717176   5.584   6.588   5.320
  155SAPE   H7R17177   5.484   6.581   5.273
  155SAPE   H7S17178   5.564   6.530   5.413
  155SAPE   C2817179   5.686   6.503   5.244
  155SAPE   H8R17180   5.783   6.489   5.294
  155SAPE   C2917181   5.668   6.422   5.139
  155SAPE   H9R17182   5.756   6.372   5.096
  155SAPE  C21017183   5.541   6.417   5.057
  155SAPE  H10R17184   5.520   6.519   5.020
  155SAPE  H10S17185   5.453   6.380   5.114
  155SAPE  C21117186   5.563   6.328   4.939
  155SAPE  H11R17187   5.588   6.225   4.966
  155SAPE  C21217188   5.522   6.349   4.807
  155SAPE  H12R17189   5.548   6.273   4.732
  155SAPE  C21317190   5.469   6.474   4.758
  155SAPE  H13R17191   5.548   6.506   4.688
  155SAPE  H13S17192   5.470   6.557   4.832
  155SAPE  C21417193   5.334   6.457   4.690
  155SAPE  H14R17194   5.266   6.414   4.765
  155SAPE  C21517195   5.299   6.481   4.566
  155SAPE  H15R17196   5.201   6.460   4.521
  155SAPE  C21617197   5.394   6.537   4.459
  155SAPE  H16R17198   5.376   6.479   4.365
  155SAPE  H16S17199   5.503   6.525   4.479
  155SAPE  C21717200   5.375   6.690   4.422
  155SAPE  H17R17201   5.396   6.751   4.512
  155SAPE  H17S17202   5.269   6.706   4.393
  155SAPE  C21817203   5.464   6.733   4.298
  155SAPE  H18R17204   5.419   6.666   4.222
  155SAPE  H18S17205   5.568   6.696   4.309
  155SAPE  C21917206   5.447   6.877   4.262
  155SAPE  H19R17207   5.447   0.031   4.351
  155SAPE  H19S17208   5.342   6.895   4.230
  155SAPE  C22017209   5.544   0.028   4.157
  155SAPE  H20R17210   5.523   6.895   4.058
  155SAPE  H20S17211   5.638   6.884   4.178
  155SAPE  H20T17212   5.549   0.139   4.150
  155SAPE   C3317213   5.490   6.111   5.405
  155SAPE   H3X17214   5.500   6.145   5.300
  155SAPE   H3Y17215   5.389   6.067   5.422
  155SAPE   C3417216   5.599   6.004   5.433
  155SAPE   H4X17217   5.567   5.956   5.529
  155SAPE   H4Y17218   5.698   6.051   5.417
  155SAPE   C3517219   5.585   5.885   5.335
  155SAPE   H5X17220   5.589   5.927   5.232
  155SAPE   H5Y17221   5.488   5.832   5.345
  155SAPE   C3617222   5.687   5.768   5.342
  155SAPE   H6X17223   5.671   5.725   5.444
  155SAPE   H6Y17224   5.790   5.807   5.334
  155SAPE   C3717225   5.661   5.662   5.227
  155SAPE   H7X17226   5.553   5.644   5.208
  155SAPE   H7Y17227   5.720   5.572   5.253
  155SAPE   C3817228   5.721   5.723   5.093
  155SAPE   H8X17229   5.820   5.767   5.117
  155SAPE   H8Y17230   5.660   5.809   5.058
  155SAPE   C3917231   5.733   5.628   4.981
  155SAPE   H9X17232   5.823   5.564   4.988
  155SAPE   H9Y17233   5.750   5.686   4.888
  155SAPE  C31017234   5.603   5.542   4.952
  155SAPE  H10X17235   5.505   5.593   4.966
  155SAPE  H10Y17236   5.610   5.454   5.019
  155SAPE  C31117237   5.603   5.481   4.817
  155SAPE  H11X17238   5.688   5.412   4.801
  155SAPE  H11Y17239   5.610   5.559   4.738
  155SAPE  C31217240   5.475   5.401   4.791
  155SAPE  H12X17241   5.394   5.476   4.781
  155SAPE  H12Y17242   5.446   5.338   4.878
  155SAPE  C31317243   5.476   5.319   4.662
  155SAPE  H13X17244   5.566   5.254   4.669
  155SAPE  H13Y17245   5.491   5.383   4.572
  155SAPE  C31417246   5.339   5.257   4.627
  155SAPE  H14X17247   5.258   5.332   4.619
  155SAPE  H14Y17248   5.302   5.185   4.703
  155SAPE  C31517249   5.334   5.177   4.500
  155SAPE  H15X17250   5.397   5.235   4.429
  155SAPE  H15Y17251   5.229   5.178   4.461
  155SAPE  C31617252   5.383   5.035   4.510
  155SAPE  H16X17253   5.309   4.971   4.562
  155SAPE  H16Y17254   5.479   5.031   4.566
  155SAPE  C31717255   5.414   4.964   4.375
  155SAPE  H17X17256   5.512   4.997   4.333
  155SAPE  H17Y17257   5.328   4.994   4.312
  155SAPE  C31817258   5.411   4.810   4.393
  155SAPE  H18X17259   5.309   4.788   4.431
  155SAPE  H18Y17260   5.480   4.767   4.469
  155SAPE  H18Z17261   5.414   4.756   4.296
  156SAPE     N17262   6.746   0.907   6.747
  156SAPE   HN117263   6.665   0.844   6.729
  156SAPE   HN217264   6.796   0.863   6.827
  156SAPE   HN317265   6.716   1.001   6.782
  156SAPE   C1217266   6.833   0.901   6.622
  156SAPE  H12A17267   0.007   0.970   6.630
  156SAPE  H12B17268   6.764   0.950   6.550
  156SAPE   C1117269   6.860   0.752   6.582
  156SAPE  H11A17270   6.865   0.750   6.471
  156SAPE  H11B17271   6.771   0.686   6.597
  156SAPE     P17272   0.210   0.710   6.619
  156SAPE   O1317273   0.270   0.832   6.683
  156SAPE   O1417274   0.274   0.582   6.651
  156SAPE   O1217275   0.055   0.697   6.645
  156SAPE   O1117276   0.210   0.730   6.465
  156SAPE    C117277   0.332   0.775   6.400
  156SAPE    HA17278   0.358   0.878   6.434
  156SAPE    HB17279   0.413   0.710   6.439
  156SAPE    C217280   0.322   0.760   6.243
  156SAPE    HS17281   0.424   0.757   6.199
  156SAPE   O2117282   0.235   0.857   6.178
  156SAPE   C2117283   0.284   0.979   6.159
  156SAPE   O2217284   0.396   1.019   6.182
  156SAPE   C2217285   0.185   1.074   6.100
  156SAPE   H2R17286   0.091   1.020   6.077
  156SAPE   H2S17287   0.160   1.147   6.179
  156SAPE    C317288   0.263   0.616   6.225
  156SAPE    HX17289   0.154   0.609   6.246
  156SAPE    HY17290   0.308   0.548   6.300
  156SAPE   O3117291   0.298   0.570   6.092
  156SAPE   C3117292   0.207   0.552   6.003
  156SAPE   O3217293   0.086   0.562   6.015
  156SAPE   C3217294   0.279   0.501   5.876
  156SAPE   H2X17295   0.331   0.408   5.907
  156SAPE   H2Y17296   0.352   0.582   5.857
  156SAPE   C2317297   0.237   1.143   5.963
  156SAPE   H3R17298   0.347   1.157   5.961
  156SAPE   H3S17299   0.183   1.240   5.969
  156SAPE   C2417300   0.184   1.071   5.837
  156SAPE   H4R17301   0.214   1.130   5.747
  156SAPE   H4S17302   0.074   1.075   5.822
  156SAPE   C2517303   0.228   0.925   5.833
  156SAPE   H5R17304   0.184   0.861   5.910
  156SAPE   C2617305   0.304   0.869   5.733
  156SAPE   H6R17306   0.319   0.760   5.734
  156SAPE   C2717307   0.363   0.941   5.616
  156SAPE   H7R17308   0.447   0.882   5.574
  156SAPE   H7S17309   0.412   1.029   5.661
  156SAPE   C2817310   0.257   0.964   5.508
  156SAPE   H8R17311   0.165   1.009   5.548
  156SAPE   C2917312   0.252   0.925   5.379
  156SAPE   H9R17313   0.159   0.953   5.326
  156SAPE  C21017314   0.352   0.846   5.304
  156SAPE  H10R17315   0.436   0.814   5.369
  156SAPE  H10S17316   0.402   0.922   5.239
  156SAPE  C21117317   0.299   0.732   5.215
  156SAPE  H11R17318   0.319   0.631   5.252
  156SAPE  C21217319   0.244   0.745   5.094
  156SAPE  H12R17320   0.223   0.653   5.038
  156SAPE  C21317321   0.194   0.872   5.030
  156SAPE  H13R17322   0.283   0.935   5.007
  156SAPE  H13S17323   0.130   0.926   5.103
  156SAPE  C21417324   0.134   0.848   4.897
  156SAPE  H14R17325   0.024   0.841   4.898
  156SAPE  C21517326   0.185   0.828   4.777
  156SAPE  H15R17327   0.113   0.816   4.695
  156SAPE  C21617328   0.340   0.819   4.755
  156SAPE  H16R17329   0.385   0.718   4.749
  156SAPE  H16S17330   0.395   0.869   4.838
  156SAPE  C21717331   0.375   0.900   4.628
  156SAPE  H17R17332   0.322   0.852   4.544
  156SAPE  H17S17333   0.482   0.897   4.598
  156SAPE  C21817334   0.340   1.052   4.631
  156SAPE  H18R17335   0.416   1.097   4.698
  156SAPE  H18S17336   0.244   1.071   4.685
  156SAPE  C21917337   0.364   1.137   4.501
  156SAPE  H19R17338   0.461   1.102   4.457
  156SAPE  H19S17339   0.374   1.240   4.541
  156SAPE  C22017340   0.251   1.119   4.395
  156SAPE  H20R17341   0.262   1.189   4.309
  156SAPE  H20S17342   0.150   1.140   4.437
  156SAPE  H20T17343   0.236   1.018   4.352
  156SAPE   C3317344   0.190   0.490   5.750
  156SAPE   H3X17345   0.131   0.584   5.751
  156SAPE   H3Y17346   0.111   0.413   5.767
  156SAPE   C3417347   0.273   0.463   5.620
  156SAPE   H4X17348   0.335   0.372   5.635
  156SAPE   H4Y17349   0.345   0.546   5.602
  156SAPE   C3517350   0.185   0.438   5.495
  156SAPE   H5X17351   0.133   0.533   5.472
  156SAPE   H5Y17352   0.113   0.361   5.529
  156SAPE   C3617353   0.250   0.360   5.381
  156SAPE   H6X17354   0.269   0.260   5.424
  156SAPE   H6Y17355   0.349   0.406   5.362
  156SAPE   C3717356   0.160   0.338   5.262
  156SAPE   H7X17357   0.147   0.437   5.213
  156SAPE   H7Y17358   0.062   0.299   5.294
  156SAPE   C3817359   0.218   0.242   5.166
  156SAPE   H8X17360   0.225   0.142   5.215
  156SAPE   H8Y17361   0.317   0.281   5.133
  156SAPE   C3917362   0.123   0.216   5.044
  156SAPE   H9X17363   0.093   0.318   5.011
  156SAPE   H9Y17364   0.029   0.164   5.074
  156SAPE  C31017365   0.187   0.141   4.926
  156SAPE  H10X17366   0.223   0.041   4.958
  156SAPE  H10Y17367   0.282   0.187   4.892
  156SAPE  C31117368   0.093   0.133   4.800
  156SAPE  H11X17369   0.037   0.229   4.793
  156SAPE  H11Y17370   0.021   0.049   4.803
  156SAPE  C31217371   0.172   0.116   4.672
  156SAPE  H12X17372   0.238   0.028   4.683
  156SAPE  H12Y17373   0.240   0.203   4.660
  156SAPE  C31317374   0.085   0.093   4.541
  156SAPE  H13X17375   0.042   0.193   4.519
  156SAPE  H13Y17376   0.010   0.016   4.566
  156SAPE  C31417377   0.165   0.035   4.418
  156SAPE  H14X17378   0.185   6.838   4.420
  156SAPE  H14Y17379   0.262   0.089   4.410
  156SAPE  C31517380   0.104   0.083   4.287
  156SAPE  H15X17381   0.180   0.074   4.206
  156SAPE  H15Y17382   0.090   0.193   4.299
  156SAPE  C31617383   6.888   0.020   4.246
  156SAPE  H16X17384   6.816   0.025   4.330
  156SAPE  H16Y17385   6.906   6.828   4.213
  156SAPE  C31717386   6.826   0.101   4.122
  156SAPE  H17X17387   6.757   0.030   4.072
  156SAPE  H17Y17388   6.903   0.127   4.045
  156SAPE  C31817389   6.747   0.225   4.159
  156SAPE  H18X17390   6.811   0.294   4.218
  156SAPE  H18Y17391   6.667   0.185   4.225
  156SAPE  H18Z17392   6.716   0.271   4.063
  157SAPE     N17393   1.220   6.367   6.218
  157SAPE   HN117394   1.244   6.391   6.316
  157SAPE   HN217395   1.190   6.267   6.217
  157SAPE   HN317396   1.302   6.370   6.153
  157SAPE   C1217397   1.108   6.438   6.147
  157SAPE  H12A17398   1.102   6.403   6.042
  157SAPE  H12B17399   1.144   6.543   6.140
  157SAPE   C1117400   0.979   6.426   6.229
  157SAPE  H11A17401   0.954   6.322   6.256
  157SAPE  H11B17402   0.906   6.464   6.154
  157SAPE     P17403   0.847   6.538   6.418
  157SAPE   O1317404   0.760   6.418   6.411
  157SAPE   O1417405   0.865   6.599   6.551
  157SAPE   O1217406   0.986   6.503   6.345
  157SAPE   O1117407   0.790   6.653   6.328
  157SAPE    C117408   0.882   6.752   6.282
  157SAPE    HA17409   0.954   6.775   6.363
  157SAPE    HB17410   0.926   6.727   6.183
  157SAPE    C217411   0.797   6.881   6.260
  157SAPE    HS17412   0.732   6.903   6.347
  157SAPE   O2117413   0.716   6.860   6.146
  157SAPE   C2117414   0.625   0.030   6.126
  157SAPE   O2217415   0.590   0.114   6.204
  157SAPE   C2217416   0.559   0.007   5.985
  157SAPE   H2R17417   0.644   0.013   5.913
  157SAPE   H2S17418   0.504   6.824   5.998
  157SAPE    C317419   0.894   0.099   6.249
  157SAPE    HX17420   0.951   0.097   6.344
  157SAPE    HY17421   0.832   0.191   6.264
  157SAPE   O3117422   0.969   0.107   6.127
  157SAPE   C3117423   0.916   0.177   6.029
  157SAPE   O3217424   0.813   0.243   6.028
  157SAPE   C3217425   0.999   0.159   5.899
  157SAPE   H2X17426   1.088   0.223   5.915
  157SAPE   H2Y17427   0.935   0.202   5.819
  157SAPE   C2317428   0.461   0.125   5.952
  157SAPE   H3R17429   0.503   0.227   5.969
  157SAPE   H3S17430   0.372   0.109   6.016
  157SAPE   C2417431   0.403   0.118   5.810
  157SAPE   H4R17432   0.331   0.197   5.782
  157SAPE   H4S17433   0.346   0.023   5.812
  157SAPE   C2517434   0.504   0.106   5.707
  157SAPE   H5R17435   0.588   0.176   5.705
  157SAPE   C2617436   0.508   0.038   5.592
  157SAPE   H6R17437   0.586   0.063   5.520
  157SAPE   C2717438   0.413   6.847   5.540
  157SAPE   H7R17439   0.315   6.858   5.590
  157SAPE   H7S17440   0.457   6.746   5.559
  157SAPE   C2817441   0.376   6.860   5.393
  157SAPE   H8R17442   0.403   0.043   5.345
  157SAPE   C2917443   0.327   6.761   5.312
  157SAPE   H9R17444   0.305   6.783   5.207
  157SAPE  C21017445   0.300   6.612   5.352
  157SAPE  H10R17446   0.363   6.588   5.441
  157SAPE  H10S17447   0.342   6.546   5.274
  157SAPE  C21117448   0.156   6.596   5.393
  157SAPE  H11R17449   0.125   6.630   5.493
  157SAPE  C21217450   0.066   6.547   5.311
  157SAPE  H12R17451   6.872   6.554   5.341
  157SAPE  C21317452   0.099   6.516   5.168
  157SAPE  H13R17453   0.158   6.423   5.158
  157SAPE  H13S17454   0.153   6.601   5.122
  157SAPE  C21417455   6.895   6.486   5.076
  157SAPE  H14R17456   6.811   6.428   5.117
  157SAPE  C21517457   6.890   6.500   4.947
  157SAPE  H15R17458   6.803   6.468   4.887
  157SAPE  C21617459   0.068   6.582   4.854
  157SAPE  H16R17460   0.130   6.517   4.789
  157SAPE  H16S17461   0.128   6.645   4.923
  157SAPE  C21717462   6.905   6.684   4.763
  157SAPE  H17R17463   0.076   6.744   4.721
  157SAPE  H17S17464   6.835   6.744   4.824
  157SAPE  C21817465   6.821   6.614   4.649
  157SAPE  H18R17466   6.737   6.682   4.623
  157SAPE  H18S17467   6.773   6.523   4.691
  157SAPE  C21917468   6.899   6.581   4.527
  157SAPE  H19R17469   0.060   6.499   4.539
  157SAPE  H19S17470   0.033   6.681   4.512
  157SAPE  C22017471   6.810   6.546   4.406
  157SAPE  H20R17472   6.751   6.638   4.385
  157SAPE  H20S17473   6.732   6.470   4.425
  157SAPE  H20T17474   6.878   6.520   4.321
  157SAPE   C3317475   1.047   0.016   5.850
  157SAPE   H3X17476   1.098   6.882   5.938
  157SAPE   H3Y17477   1.110   0.033   5.760
  157SAPE   C3417478   0.927   6.854   5.801
  157SAPE   H4X17479   0.847   6.844   5.878
  157SAPE   H4Y17480   0.961   6.753   5.771
  157SAPE   C3517481   0.877   6.903   5.660
  157SAPE   H5X17482   0.956   0.061   5.625
  157SAPE   H5Y17483   0.787   0.052   5.680
  157SAPE   C3617484   0.846   6.803   5.544
  157SAPE   H6X17485   0.747   6.753   5.554
  157SAPE   H6Y17486   0.923   6.724   5.546
  157SAPE   C3717487   0.845   6.877   5.407
  157SAPE   H7X17488   0.948   6.888   5.369
  157SAPE   H7Y17489   0.794   0.063   5.424
  157SAPE   C3817490   0.761   6.798   5.304
  157SAPE   H8X17491   0.677   6.745   5.352
  157SAPE   H8Y17492   0.826   6.714   5.271
  157SAPE   C3917493   0.706   6.874   5.188
  157SAPE   H9X17494   0.792   0.010   5.137
  157SAPE   H9Y17495   0.646   0.053   5.210
  157SAPE  C31017496   0.616   6.790   5.086
  157SAPE  H10X17497   0.547   6.733   5.152
  157SAPE  H10Y17498   0.685   6.729   5.024
  157SAPE  C31117499   0.525   6.880   4.999
  157SAPE  H11X17500   0.574   0.064   4.972
  157SAPE  H11Y17501   0.432   6.909   5.053
  157SAPE  C31217502   0.502   6.804   4.867
  157SAPE  H12X17503   0.397   6.819   4.834
  157SAPE  H12Y17504   0.529   6.698   4.888
  157SAPE  C31317505   0.587   6.851   4.753
  157SAPE  H13X17506   0.693   6.869   4.781
  157SAPE  H13Y17507   0.558   0.042   4.727
  157SAPE  C31417508   0.575   6.754   4.630
  157SAPE  H14X17509   0.484   6.773   4.570
  157SAPE  H14Y17510   0.569   6.648   4.663
  157SAPE  C31517511   0.690   6.760   4.527
  157SAPE  H15X17512   0.783   6.726   4.577
  157SAPE  H15Y17513   0.704   6.866   4.496
  157SAPE  C31617514   0.670   6.670   4.404
  157SAPE  H16X17515   0.574   6.701   4.359
  157SAPE  H16Y17516   0.686   6.563   4.433
  157SAPE  C31717517   0.776   6.694   4.295
  157SAPE  H17X17518   0.880   6.685   4.333
  157SAPE  H17Y17519   0.764   6.797   4.255
  157SAPE  C31817520   0.760   6.594   4.184
  157SAPE  H18X17521   0.678   6.614   4.112
  157SAPE  H18Y17522   0.736   6.495   4.228
  157SAPE  H18Z17523   0.852   6.579   4.124
  158SAPE     N17524   2.976   5.144   6.534
  158SAPE   HN117525   3.060   5.093   6.569
  158SAPE   HN217526   2.992   5.245   6.554
  158SAPE   HN317527   2.887   5.104   6.569
  158SAPE   C1217528   2.969   5.139   6.385
  158SAPE  H12A17529   2.874   5.188   6.355
  158SAPE  H12B17530   2.961   5.034   6.349
  158SAPE   C1117531   3.090   5.202   6.319
  158SAPE  H11A17532   3.096   5.164   6.215
  158SAPE  H11B17533   3.183   5.159   6.361
  158SAPE     P17534   3.219   5.432   6.321
  158SAPE   O1317535   3.237   5.531   6.430
  158SAPE   O1417536   3.335   5.347   6.294
  158SAPE   O1217537   3.090   5.347   6.336
  158SAPE   O1117538   3.193   5.509   6.185
  158SAPE    C117539   3.119   5.456   6.079
  158SAPE    HA17540   3.143   5.348   6.067
  158SAPE    HB17541   3.010   5.446   6.102
  158SAPE    C217542   3.149   5.537   5.947
  158SAPE    HS17543   3.259   5.551   5.948
  158SAPE   O2117544   3.075   5.656   5.963
  158SAPE   C2117545   3.136   5.764   5.920
  158SAPE   O2217546   3.255   5.771   5.877
  158SAPE   C2217547   3.033   5.878   5.920
  158SAPE   H2R17548   2.936   5.835   5.886
  158SAPE   H2S17549   3.027   5.929   6.019
  158SAPE    C317550   3.103   5.460   5.822
  158SAPE    HX17551   2.993   5.451   5.831
  158SAPE    HY17552   3.145   5.358   5.828
  158SAPE   O3117553   3.144   5.522   5.701
  158SAPE   C3117554   3.268   5.486   5.664
  158SAPE   O3217555   3.349   5.421   5.726
  158SAPE   C3217556   3.299   5.538   5.525
  158SAPE   H2X17557   3.410   5.530   5.518
  158SAPE   H2Y17558   3.271   5.646   5.523
  158SAPE   C2317559   3.072   6.004   5.823
  158SAPE   H3R17560   3.180   6.006   5.797
  158SAPE   H3S17561   3.059   6.093   5.888
  158SAPE   C2417562   2.989   6.020   5.696
  158SAPE   H4R17563   3.005   5.936   5.624
  158SAPE   H4S17564   3.014   6.114   5.644
  158SAPE   C2517565   2.838   6.029   5.717
  158SAPE   H5R17566   2.812   5.956   5.795
  158SAPE   C2617567   2.745   6.103   5.652
  158SAPE   H6R17568   2.642   6.103   5.690
  158SAPE   C2717569   2.766   6.189   5.531
  158SAPE   H7R17570   2.680   6.177   5.462
  158SAPE   H7S17571   2.854   6.140   5.483
  158SAPE   C2817572   2.802   6.335   5.544
  158SAPE   H8R17573   2.904   6.345   5.583
  158SAPE   C2917574   2.736   6.435   5.493
  158SAPE   H9R17575   2.774   6.535   5.516
  158SAPE  C21017576   2.601   6.432   5.416
  158SAPE  H10R17577   2.564   6.332   5.383
  158SAPE  H10S17578   2.606   6.498   5.327
  158SAPE  C21117579   2.494   6.482   5.505
  158SAPE  H11R17580   2.512   6.478   5.613
  158SAPE  C21217581   2.391   6.556   5.467
  158SAPE  H12R17582   2.324   6.584   5.550
  158SAPE  C21317583   2.348   6.583   5.326
  158SAPE  H13R17584   2.312   6.489   5.277
  158SAPE  H13S17585   2.439   6.618   5.273
  158SAPE  C21417586   2.242   6.698   5.318
  158SAPE  H14R17587   2.255   6.781   5.389
  158SAPE  C21517588   2.142   6.704   5.231
  158SAPE  H15R17589   2.073   6.789   5.231
  158SAPE  C21617590   2.108   6.605   5.120
  158SAPE  H16R17591   2.045   6.522   5.160
  158SAPE  H16S17592   2.200   6.544   5.108
  158SAPE  C21717593   2.051   6.642   4.975
  158SAPE  H17R17594   1.952   6.686   4.998
  158SAPE  H17S17595   2.026   6.548   4.922
  158SAPE  C21817596   2.134   6.738   4.893
  158SAPE  H18R17597   2.221   6.678   4.858
  158SAPE  H18S17598   2.170   6.821   4.958
  158SAPE  C21917599   2.055   6.788   4.768
  158SAPE  H19R17600   1.989   6.874   4.794
  158SAPE  H19S17601   1.995   6.699   4.740
  158SAPE  C22017602   2.134   6.836   4.648
  158SAPE  H20R17603   2.202   6.754   4.618
  158SAPE  H20S17604   2.187   0.018   4.675
  158SAPE  H20T17605   2.072   6.857   4.557
  158SAPE   C3317606   3.232   5.463   5.412
  158SAPE   H3X17607   3.124   5.486   5.405
  158SAPE   H3Y17608   3.235   5.355   5.435
  158SAPE   C3417609   3.308   5.471   5.282
  158SAPE   H4X17610   3.407   5.427   5.307
  158SAPE   H4Y17611   3.309   5.576   5.246
  158SAPE   C3517612   3.239   5.391   5.167
  158SAPE   H5X17613   3.129   5.409   5.175
  158SAPE   H5Y17614   3.250   5.282   5.180
  158SAPE   C3617615   3.307   5.427   5.030
  158SAPE   H6X17616   3.415   5.406   5.043
  158SAPE   H6Y17617   3.287   5.535   5.016
  158SAPE   C3717618   3.244   5.352   4.925
  158SAPE   H7X17619   3.248   5.245   4.956
  158SAPE   H7Y17620   3.295   5.356   4.827
  158SAPE   C3817621   3.096   5.392   4.895
  158SAPE   H8X17622   3.108   5.498   4.864
  158SAPE   H8Y17623   3.030   5.410   4.983
  158SAPE   C3917624   3.020   5.308   4.798
  158SAPE   H9X17625   2.991   5.207   4.834
  158SAPE   H9Y17626   3.086   5.299   4.709
  158SAPE  C31017627   2.889   5.388   4.774
  158SAPE  H10X17628   2.917   5.482   4.721
  158SAPE  H10Y17629   2.851   5.408   4.876
  158SAPE  C31117630   2.797   5.308   4.688
  158SAPE  H11X17631   2.785   5.201   4.714
  158SAPE  H11Y17632   2.853   5.297   4.593
  158SAPE  C31217633   2.655   5.366   4.661
  158SAPE  H12X17634   2.669   5.472   4.632
  158SAPE  H12Y17635   2.594   5.362   4.753
  158SAPE  C31317636   2.594   5.310   4.532
  158SAPE  H13X17637   2.574   5.201   4.544
  158SAPE  H13Y17638   2.675   5.323   4.457
  158SAPE  C31417639   2.458   5.383   4.489
  158SAPE  H14X17640   2.473   5.492   4.505
  158SAPE  H14Y17641   2.387   5.351   4.570
  158SAPE  C31517642   2.411   5.344   4.352
  158SAPE  H15X17643   2.396   5.234   4.349
  158SAPE  H15Y17644   2.489   5.356   4.274
  158SAPE  C31617645   2.272   5.399   4.309
  158SAPE  H16X17646   2.261   5.372   4.202
  158SAPE  H16Y17647   2.291   5.509   4.307
  158SAPE  C31717648   2.163   5.357   4.400
  158SAPE  H17X17649   2.176   5.411   4.497
  158SAPE  H17Y17650   2.164   5.247   4.418
  158SAPE  C31817651   2.025   5.396   4.343
  158SAPE  H18X17652   2.018   5.502   4.309
  158SAPE  H18Y17653   1.949   5.402   4.423
  158SAPE  H18Z17654   1.989   5.332   4.260
  159SAPE     N17655   5.168   3.043   2.519
  159SAPE   HN117656   5.173   2.942   2.541
  159SAPE   HN217657   5.255   3.086   2.555
  159SAPE   HN317658   5.078   3.077   2.559
  159SAPE   C1217659   5.177   3.066   2.369
  159SAPE  H12A17660   5.081   3.027   2.331
  159SAPE  H12B17661   5.266   3.009   2.335
  159SAPE   C1117662   5.201   3.217   2.349
  159SAPE  H11A17663   5.112   3.265   2.395
  159SAPE  H11B17664   5.187   3.240   2.241
  159SAPE     P17665   5.444   3.285   2.272
  159SAPE   O1317666   5.446   3.153   2.206
  159SAPE   O1417667   5.423   3.409   2.195
  159SAPE   O1217668   5.328   3.272   2.382
  159SAPE   O1117669   5.573   3.302   2.365
  159SAPE    C117670   5.594   3.222   2.483
  159SAPE    HA17671   5.533   3.130   2.486
  159SAPE    HB17672   5.693   3.174   2.469
  159SAPE    C217673   5.608   3.287   2.624
  159SAPE    HS17674   5.635   3.211   2.701
  159SAPE   O2117675   5.487   3.348   2.659
  159SAPE   C2117676   5.374   3.279   2.682
  159SAPE   O2217677   5.356   3.157   2.670
  159SAPE   C2217678   5.260   3.368   2.720
  159SAPE   H2R17679   5.293   3.470   2.750
  159SAPE   H2S17680   5.190   3.374   2.634
  159SAPE    C317681   5.720   3.395   2.608
  159SAPE    HX17682   5.675   3.478   2.549
  159SAPE    HY17683   5.803   3.354   2.546
  159SAPE   O3117684   5.750   3.448   2.745
  159SAPE   C3117685   5.854   3.388   2.804
  159SAPE   O3217686   5.917   3.293   2.758
  159SAPE   C3217687   5.889   3.456   2.937
  159SAPE   H2X17688   5.998   3.477   2.929
  159SAPE   H2Y17689   5.864   3.380   3.013
  159SAPE   C2317690   5.180   3.299   2.833
  159SAPE   H3R17691   5.156   3.196   2.799
  159SAPE   H3S17692   5.083   3.351   2.850
  159SAPE   C2417693   5.251   3.291   2.974
  159SAPE   H4R17694   5.277   3.388   3.021
  159SAPE   H4S17695   5.348   3.246   2.947
  159SAPE   C2517696   5.162   3.203   3.053
  159SAPE   H5R17697   5.135   3.103   3.016
  159SAPE   C2617698   5.112   3.224   3.173
  159SAPE   H6R17699   5.038   3.161   3.225
  159SAPE   C2717700   5.125   3.348   3.256
  159SAPE   H7R17701   5.030   3.375   3.307
  159SAPE   H7S17702   5.154   3.431   3.188
  159SAPE   C2817703   5.242   3.311   3.347
  159SAPE   H8R17704   5.336   3.306   3.290
  159SAPE   C2917705   5.242   3.285   3.479
  159SAPE   H9R17706   5.331   3.285   3.544
  159SAPE  C21017707   5.117   3.299   3.555
  159SAPE  H10R17708   5.116   3.211   3.622
  159SAPE  H10S17709   5.024   3.280   3.497
  159SAPE  C21117710   5.105   3.430   3.633
  159SAPE  H11R17711   5.132   3.524   3.581
  159SAPE  C21217712   5.060   3.452   3.757
  159SAPE  H12R17713   5.066   3.554   3.799
  159SAPE  C21317714   5.015   3.343   3.853
  159SAPE  H13R17715   5.000   3.245   3.802
  159SAPE  H13S17716   4.917   3.382   3.887
  159SAPE  C21417717   5.119   3.309   3.958
  159SAPE  H14R17718   5.206   3.274   3.901
  159SAPE  C21517719   5.104   3.301   4.092
  159SAPE  H15R17720   5.191   3.288   4.158
  159SAPE  C21617721   4.976   3.329   4.171
  159SAPE  H16R17722   4.963   3.251   4.250
  159SAPE  H16S17723   4.889   3.344   4.104
  159SAPE  C21717724   4.998   3.460   4.250
  159SAPE  H17R17725   5.038   3.543   4.188
  159SAPE  H17S17726   5.069   3.434   4.332
  159SAPE  C21817727   4.874   3.519   4.321
  159SAPE  H18R17728   4.823   3.445   4.386
  159SAPE  H18S17729   4.794   3.546   4.249
  159SAPE  C21917730   4.903   3.636   4.420
  159SAPE  H19R17731   4.982   3.707   4.388
  159SAPE  H19S17732   4.943   3.597   4.516
  159SAPE  C22017733   4.774   3.724   4.444
  159SAPE  H20R17734   4.791   3.808   4.515
  159SAPE  H20S17735   4.692   3.664   4.489
  159SAPE  H20T17736   4.738   3.760   4.346
  159SAPE   C3317737   5.802   3.589   2.956
  159SAPE   H3X17738   5.697   3.555   2.971
  159SAPE   H3Y17739   5.798   3.647   2.861
  159SAPE   C3417740   5.840   3.672   3.077
  159SAPE   H4X17741   5.766   3.752   3.096
  159SAPE   H4Y17742   5.938   3.720   3.058
  159SAPE   C3517743   5.850   3.588   3.209
  159SAPE   H5X17744   5.931   3.516   3.183
  159SAPE   H5Y17745   5.756   3.531   3.222
  159SAPE   C3617746   5.886   3.675   3.325
  159SAPE   H6X17747   5.902   3.604   3.409
  159SAPE   H6Y17748   5.803   3.745   3.351
  159SAPE   C3717749   6.015   3.763   3.301
  159SAPE   H7X17750   5.993   3.856   3.244
  159SAPE   H7Y17751   6.089   3.702   3.245
  159SAPE   C3817752   6.075   3.821   3.435
  159SAPE   H8X17753   6.099   3.731   3.496
  159SAPE   H8Y17754   5.990   3.869   3.488
  159SAPE   C3917755   6.208   3.904   3.411
  159SAPE   H9X17756   6.164   3.983   3.345
  159SAPE   H9Y17757   6.280   3.841   3.355
  159SAPE  C31017758   6.261   3.968   3.536
  159SAPE  H10X17759   6.174   4.005   3.595
  159SAPE  H10Y17760   6.329   4.052   3.509
  159SAPE  C31117761   6.339   3.873   3.630
  159SAPE  H11X17762   6.303   3.768   3.625
  159SAPE  H11Y17763   6.309   3.900   3.734
  159SAPE  C31217764   6.491   3.889   3.622
  159SAPE  H12X17765   6.531   3.815   3.694
  159SAPE  H12Y17766   6.524   3.985   3.666
  159SAPE  C31317767   6.550   3.879   3.482
  159SAPE  H13X17768   6.513   3.959   3.413
  159SAPE  H13Y17769   6.496   3.792   3.440
  159SAPE  C31417770   6.700   3.843   3.480
  159SAPE  H14X17771   6.722   3.755   3.544
  159SAPE  H14Y17772   6.764   3.928   3.511
  159SAPE  C31517773   6.745   3.789   3.344
  159SAPE  H15X17774   6.758   3.881   3.283
  159SAPE  H15Y17775   6.667   3.725   3.297
  159SAPE  C31617776   6.872   3.705   3.351
  159SAPE  H16X17777   6.828   3.618   3.405
  159SAPE  H16Y17778   0.035   3.741   3.424
  159SAPE  C31717779   0.020   3.681   3.214
  159SAPE  H17X17780   0.047   3.781   3.175
  159SAPE  H17Y17781   6.867   3.631   3.139
  159SAPE  C31817782   0.163   3.609   3.218
  159SAPE  H18X17783   0.224   3.654   3.300
  159SAPE  H18Y17784   0.212   3.604   3.119
  159SAPE  H18Z17785   0.162   3.504   3.253
  160SAPE     N17786   5.396   2.420   2.152
  160SAPE   HN117787   5.450   2.470   2.225
  160SAPE   HN217788   5.459   2.391   2.074
  160SAPE   HN317789   5.316   2.470   2.108
  160SAPE   C1217790   5.319   2.296   2.200
  160SAPE  H12A17791   5.386   2.224   2.252
  160SAPE  H12B17792   5.268   2.243   2.117
  160SAPE   C1117793   5.207   2.348   2.291
  160SAPE  H11A17794   5.256   2.373   2.388
  160SAPE  H11B17795   5.140   2.263   2.315
  160SAPE     P17796   5.005   2.451   2.166
  160SAPE   O1317797   4.949   2.586   2.141
  160SAPE   O1417798   5.023   2.355   2.052
  160SAPE   O1217799   5.141   2.467   2.243
  160SAPE   O1117800   4.905   2.383   2.271
  160SAPE    C117801   4.861   2.459   2.382
  160SAPE    HA17802   4.930   2.540   2.414
  160SAPE    HB17803   4.761   2.497   2.353
  160SAPE    C217804   4.833   2.367   2.502
  160SAPE    HS17805   4.774   2.432   2.569
  160SAPE   O2117806   4.952   2.332   2.573
  160SAPE   C2117807   5.007   2.426   2.647
  160SAPE   O2217808   4.971   2.542   2.655
  160SAPE   C2217809   5.130   2.368   2.710
  160SAPE   H2R17810   5.129   2.256   2.709
  160SAPE   H2S17811   5.224   2.414   2.674
  160SAPE    C317812   4.757   2.244   2.479
  160SAPE    HX17813   4.799   2.180   2.399
  160SAPE    HY17814   4.653   2.265   2.446
  160SAPE   O3117815   4.742   2.170   2.605
  160SAPE   C3117816   4.718   2.045   2.603
  160SAPE   O3217817   4.729   1.967   2.512
  160SAPE   C3217818   4.682   1.998   2.744
  160SAPE   H2X17819   4.687   2.082   2.817
  160SAPE   H2Y17820   4.765   1.929   2.772
  160SAPE   C2317821   5.134   2.404   2.866
  160SAPE   H3R17822   5.145   2.514   2.872
  160SAPE   H3S17823   5.228   2.364   2.909
  160SAPE   C2417824   5.014   2.353   2.949
  160SAPE   H4R17825   4.983   2.249   2.925
  160SAPE   H4S17826   4.933   2.418   2.909
  160SAPE   C2517827   5.027   2.376   3.105
  160SAPE   H5R17828   5.021   2.482   3.135
  160SAPE   C2617829   5.046   2.277   3.200
  160SAPE   H6R17830   5.022   2.303   3.304
  160SAPE   C2717831   5.054   2.126   3.172
  160SAPE   H7R17832   5.134   2.082   3.236
  160SAPE   H7S17833   5.094   2.109   3.070
  160SAPE   C2817834   4.926   2.048   3.188
  160SAPE   H8R17835   4.921   1.981   3.102
  160SAPE   C2917836   4.846   2.036   3.297
  160SAPE   H9R17837   4.773   1.955   3.283
  160SAPE  C21017838   4.869   2.103   3.431
  160SAPE  H10R17839   4.832   2.208   3.429
  160SAPE  H10S17840   4.976   2.118   3.456
  160SAPE  C21117841   4.799   2.019   3.536
  160SAPE  H11R17842   4.736   1.936   3.500
  160SAPE  C21217843   4.805   2.043   3.665
  160SAPE  H12R17844   4.750   1.981   3.738
  160SAPE  C21317845   4.882   2.162   3.722
  160SAPE  H13R17846   4.831   2.193   3.815
  160SAPE  H13S17847   4.866   2.251   3.657
  160SAPE  C21417848   5.028   2.132   3.748
  160SAPE  H14R17849   5.070   2.033   3.730
  160SAPE  C21517850   5.114   2.225   3.793
  160SAPE  H15R17851   5.218   2.191   3.806
  160SAPE  C21617852   5.084   2.370   3.827
  160SAPE  H16R17853   4.986   2.397   3.784
  160SAPE  H16S17854   5.168   2.431   3.788
  160SAPE  C21717855   5.066   2.413   3.976
  160SAPE  H17R17856   5.064   2.524   3.989
  160SAPE  H17S17857   5.152   2.377   4.037
  160SAPE  C21817858   4.939   2.356   4.038
  160SAPE  H18R17859   4.950   2.249   4.066
  160SAPE  H18S17860   4.864   2.363   3.956
  160SAPE  C21917861   4.904   2.430   4.163
  160SAPE  H19R17862   4.805   2.391   4.193
  160SAPE  H19S17863   4.890   2.537   4.138
  160SAPE  C22017864   5.004   2.399   4.273
  160SAPE  H20R17865   5.105   2.427   4.236
  160SAPE  H20S17866   5.012   2.292   4.305
  160SAPE  H20T17867   4.975   2.456   4.364
  160SAPE   C3317868   4.534   1.941   2.762
  160SAPE   H3X17869   4.508   1.886   2.669
  160SAPE   H3Y17870   4.455   2.018   2.780
  160SAPE   C3417871   4.522   1.825   2.865
  160SAPE   H4X17872   4.521   1.873   2.965
  160SAPE   H4Y17873   4.613   1.761   2.857
  160SAPE   C3517874   4.400   1.745   2.842
  160SAPE   H5X17875   4.388   1.717   2.736
  160SAPE   H5Y17876   4.302   1.788   2.872
  160SAPE   C3617877   4.417   1.604   2.922
  160SAPE   H6X17878   4.486   1.544   2.859
  160SAPE   H6Y17879   4.318   1.554   2.910
  160SAPE   C3717880   4.462   1.595   3.066
  160SAPE   H7X17881   4.567   1.629   3.072
  160SAPE   H7Y17882   4.464   1.486   3.089
  160SAPE   C3817883   4.371   1.663   3.163
  160SAPE   H8X17884   4.266   1.638   3.137
  160SAPE   H8Y17885   4.381   1.773   3.157
  160SAPE   C3917886   4.392   1.634   3.314
  160SAPE   H9X17887   4.476   1.695   3.354
  160SAPE   H9Y17888   4.421   1.527   3.319
  160SAPE  C31017889   4.276   1.663   3.405
  160SAPE  H10X17890   4.200   1.588   3.375
  160SAPE  H10Y17891   4.226   1.762   3.396
  160SAPE  C31117892   4.316   1.662   3.553
  160SAPE  H11X17893   4.394   1.742   3.562
  160SAPE  H11Y17894   4.382   1.577   3.579
  160SAPE  C31217895   4.203   1.697   3.651
  160SAPE  H12X17896   4.112   1.633   3.649
  160SAPE  H12Y17897   4.170   1.800   3.625
  160SAPE  C31317898   4.243   1.698   3.793
  160SAPE  H13X17899   4.329   1.767   3.806
  160SAPE  H13Y17900   4.257   1.604   3.850
  160SAPE  C31417901   4.135   1.779   3.872
  160SAPE  H14X17902   4.042   1.725   3.897
  160SAPE  H14Y17903   4.106   1.876   3.826
  160SAPE  C31517904   4.190   1.817   4.016
  160SAPE  H15X17905   4.254   1.907   4.002
  160SAPE  H15Y17906   4.248   1.742   4.073
  160SAPE  C31617907   4.075   1.878   4.098
  160SAPE  H16X17908   4.013   1.792   4.131
  160SAPE  H16Y17909   4.015   1.952   4.041
  160SAPE  C31717910   4.132   1.951   4.219
  160SAPE  H17X17911   4.051   2.012   4.264
  160SAPE  H17Y17912   4.214   2.022   4.195
  160SAPE  C31817913   4.186   1.864   4.339
  160SAPE  H18X17914   4.110   1.793   4.377
  160SAPE  H18Y17915   4.231   1.926   4.420
  160SAPE  H18Z17916   4.263   1.802   4.289
  161SAPE     N17917   2.225   3.703   1.805
  161SAPE   HN117918   2.212   3.777   1.877
  161SAPE   HN217919   2.175   3.615   1.830
  161SAPE   HN317920   2.328   3.697   1.791
  161SAPE   C1217921   2.180   3.752   1.669
  161SAPE  H12A17922   2.069   3.753   1.666
  161SAPE  H12B17923   2.203   3.678   1.590
  161SAPE   C1117924   2.246   3.892   1.647
  161SAPE  H11A17925   2.219   3.933   1.547
  161SAPE  H11B17926   2.357   3.883   1.654
  161SAPE     P17927   2.272   4.097   1.804
  161SAPE   O1317928   2.391   4.036   1.849
  161SAPE   O1417929   2.284   4.214   1.713
  161SAPE   O1217930   2.185   3.980   1.742
  161SAPE   O1117931   2.176   4.140   1.927
  161SAPE    C117932   2.195   4.271   1.981
  161SAPE    HA17933   2.178   4.349   1.905
  161SAPE    HB17934   2.115   4.285   2.057
  161SAPE    C217935   2.337   4.298   2.036
  161SAPE    HS17936   2.402   4.301   1.945
  161SAPE   O2117937   2.382   4.204   2.136
  161SAPE   C2117938   2.517   4.194   2.146
  161SAPE   O2217939   2.594   4.270   2.094
  161SAPE   C2217940   2.555   4.090   2.255
  161SAPE   H2R17941   2.464   4.027   2.265
  161SAPE   H2S17942   2.638   4.028   2.215
  161SAPE    C317943   2.346   4.446   2.093
  161SAPE    HX17944   2.321   4.517   2.011
  161SAPE    HY17945   2.446   4.475   2.131
  161SAPE   O3117946   2.237   4.458   2.192
  161SAPE   C3117947   2.272   4.433   2.316
  161SAPE   O3217948   2.385   4.440   2.361
  161SAPE   C3217949   2.146   4.413   2.396
  161SAPE   H2X17950   2.066   4.368   2.333
  161SAPE   H2Y17951   2.107   4.513   2.428
  161SAPE   C2317952   2.623   4.154   2.373
  161SAPE   H3R17953   2.546   4.216   2.423
  161SAPE   H3S17954   2.701   4.226   2.341
  161SAPE   C2417955   2.690   4.054   2.466
  161SAPE   H4R17956   2.759   4.106   2.536
  161SAPE   H4S17957   2.762   3.989   2.412
  161SAPE   C2517958   2.591   3.968   2.536
  161SAPE   H5R17959   2.545   3.900   2.463
  161SAPE   C2617960   2.559   3.968   2.667
  161SAPE   H6R17961   2.485   3.899   2.710
  161SAPE   C2717962   2.631   4.049   2.773
  161SAPE   H7R17963   2.699   4.122   2.724
  161SAPE   H7S17964   2.695   3.976   2.828
  161SAPE   C2817965   2.533   4.117   2.869
  161SAPE   H8R17966   2.452   4.168   2.815
  161SAPE   C2917967   2.525   4.101   3.000
  161SAPE   H9R17968   2.444   4.148   3.057
  161SAPE  C21017969   2.616   4.008   3.080
  161SAPE  H10R17970   2.680   4.068   3.149
  161SAPE  H10S17971   2.681   3.942   3.018
  161SAPE  C21117972   2.524   3.909   3.153
  161SAPE  H11R17973   2.486   3.836   3.080
  161SAPE  C21217974   2.501   3.902   3.280
  161SAPE  H12R17975   2.441   3.820   3.324
  161SAPE  C21317976   2.551   3.997   3.387
  161SAPE  H13R17977   2.554   4.100   3.348
  161SAPE  H13S17978   2.655   3.966   3.413
  161SAPE  C21417979   2.480   3.996   3.517
  161SAPE  H14R17980   2.378   3.954   3.515
  161SAPE  C21517981   2.528   4.015   3.641
  161SAPE  H15R17982   2.456   3.981   3.716
  161SAPE  C21617983   2.662   4.047   3.697
  161SAPE  H16R17984   2.646   4.139   3.757
  161SAPE  H16S17985   2.733   4.077   3.616
  161SAPE  C21717986   2.720   3.935   3.796
  161SAPE  H17R17987   2.739   3.851   3.726
  161SAPE  H17S17988   2.639   3.901   3.863
  161SAPE  C21817989   2.848   3.981   3.876
  161SAPE  H18R17990   2.810   4.052   3.953
  161SAPE  H18S17991   2.921   4.027   3.807
  161SAPE  C21917992   2.920   3.871   3.944
  161SAPE  H19R17993   2.958   3.794   3.873
  161SAPE  H19S17994   2.848   3.809   4.003
  161SAPE  C22017995   3.036   3.910   4.028
  161SAPE  H20R17996   3.127   3.926   3.967
  161SAPE  H20S17997   3.061   3.825   4.094
  161SAPE  H20T17998   3.012   4.002   4.087
  161SAPE   C3317999   2.172   4.319   2.512
  161SAPE   H3X18000   2.241   4.372   2.581
  161SAPE   H3Y18001   2.221   4.228   2.472
  161SAPE   C3418002   2.038   4.288   2.587
  161SAPE   H4X18003   1.984   4.225   2.513
  161SAPE   H4Y18004   1.982   4.383   2.600
  161SAPE   C3518005   2.046   4.213   2.722
  161SAPE   H5X18006   2.122   4.132   2.726
  161SAPE   H5Y18007   1.960   4.144   2.737
  161SAPE   C3618008   2.077   4.301   2.839
  161SAPE   H6X18009   1.992   4.373   2.844
  161SAPE   H6Y18010   2.163   4.367   2.814
  161SAPE   C3718011   2.098   4.210   2.961
  161SAPE   H7X18012   2.193   4.153   2.957
  161SAPE   H7Y18013   2.025   4.127   2.955
  161SAPE   C3818014   2.088   4.270   3.098
  161SAPE   H8X18015   2.002   4.340   3.097
  161SAPE   H8Y18016   2.180   4.331   3.108
  161SAPE   C3918017   2.088   4.173   3.218
  161SAPE   H9X18018   2.190   4.129   3.223
  161SAPE   H9Y18019   2.016   4.088   3.214
  161SAPE  C31018020   2.069   4.266   3.336
  161SAPE  H10X18021   1.980   4.332   3.337
  161SAPE  H10Y18022   2.162   4.327   3.337
  161SAPE  C31118023   2.072   4.186   3.467
  161SAPE  H11X18024   2.167   4.130   3.481
  161SAPE  H11Y18025   1.998   4.103   3.476
  161SAPE  C31218026   2.076   4.283   3.589
  161SAPE  H12X18027   1.978   4.330   3.615
  161SAPE  H12Y18028   2.143   4.370   3.573
  161SAPE  C31318029   2.135   4.206   3.708
  161SAPE  H13X18030   2.226   4.150   3.679
  161SAPE  H13Y18031   2.064   4.135   3.755
  161SAPE  C31418032   2.166   4.299   3.828
  161SAPE  H14X18033   2.074   4.335   3.878
  161SAPE  H14Y18034   2.216   4.387   3.782
  161SAPE  C31518035   2.265   4.251   3.938
  161SAPE  H15X18036   2.360   4.216   3.893
  161SAPE  H15Y18037   2.219   4.167   3.995
  161SAPE  C31618038   2.300   4.353   4.050
  161SAPE  H16X18039   2.204   4.368   4.104
  161SAPE  H16Y18040   2.325   4.453   4.006
  161SAPE  C31718041   2.419   4.321   4.143
  161SAPE  H17X18042   2.376   4.250   4.217
  161SAPE  H17Y18043   2.447   4.400   4.215
  161SAPE  C31818044   2.545   4.270   4.077
  161SAPE  H18X18045   2.623   4.259   4.156
  161SAPE  H18Y18046   2.575   4.352   4.009
  161SAPE  H18Z18047   2.535   4.182   4.010
  162SAPE     N18048   2.485   0.129   1.845
  162SAPE   HN118049   2.424   0.046   1.848
  162SAPE   HN218050   2.579   0.121   1.802
  162SAPE   HN318051   2.497   0.151   1.946
  162SAPE   C1218052   2.420   0.253   1.783
  162SAPE  H12A18053   2.394   0.221   1.680
  162SAPE  H12B18054   2.498   0.331   1.771
  162SAPE   C1118055   2.296   0.291   1.859
  162SAPE  H11A18056   2.255   0.389   1.825
  162SAPE  H11B18057   2.335   0.328   1.956
  162SAPE     P18058   2.049   0.207   1.847
  162SAPE   O1318059   2.014   0.350   1.819
  162SAPE   O1418060   1.987   0.097   1.768
  162SAPE   O1218061   2.197   0.181   1.863
  162SAPE   O1118062   2.004   0.187   1.997
  162SAPE    C118063   2.030   0.065   2.069
  162SAPE    HA18064   1.929   0.028   2.099
  162SAPE    HB18065   2.081   6.899   2.009
  162SAPE    C218066   2.111   0.086   2.201
  162SAPE    HS18067   2.074   6.909   2.256
  162SAPE   O2118068   2.078   0.208   2.262
  162SAPE   C2118069   1.975   0.216   2.354
  162SAPE   O2218070   1.903   0.118   2.378
  162SAPE   C2218071   1.977   0.352   2.423
  162SAPE   H2R18072   2.079   0.358   2.467
  162SAPE   H2S18073   1.960   0.434   2.349
  162SAPE    C318074   2.261   0.087   2.188
  162SAPE    HX18075   2.297   0.180   2.138
  162SAPE    HY18076   2.290   0.009   2.115
  162SAPE   O3118077   2.317   0.061   2.315
  162SAPE   C3118078   2.346   0.169   2.390
  162SAPE   O3218079   2.337   0.285   2.361
  162SAPE   C3218080   2.378   0.120   2.532
  162SAPE   H2X18081   2.482   0.079   2.531
  162SAPE   H2Y18082   2.307   0.037   2.551
  162SAPE   C2318083   1.866   0.370   2.529
  162SAPE   H3R18084   1.778   0.312   2.497
  162SAPE   H3S18085   1.841   0.477   2.512
  162SAPE   C2418086   1.906   0.350   2.671
  162SAPE   H4R18087   1.806   0.357   2.718
  162SAPE   H4S18088   1.963   0.438   2.708
  162SAPE   C2518089   1.955   0.212   2.711
  162SAPE   H5R18090   1.971   0.136   2.633
  162SAPE   C2618091   1.948   0.168   2.837
  162SAPE   H6R18092   1.976   0.064   2.860
  162SAPE   C2718093   1.916   0.252   2.957
  162SAPE   H7R18094   1.854   0.189   3.024
  162SAPE   H7S18095   1.843   0.330   2.927
  162SAPE   C2818096   2.032   0.333   3.011
  162SAPE   H8R18097   2.052   0.428   2.959
  162SAPE   C2918098   2.096   0.302   3.126
  162SAPE   H9R18099   2.180   0.363   3.161
  162SAPE  C21018100   2.073   0.194   3.220
  162SAPE  H10R18101   2.056   0.099   3.164
  162SAPE  H10S18102   1.982   0.215   3.280
  162SAPE  C21118103   2.203   0.171   3.295
  162SAPE  H11R18104   2.288   0.140   3.233
  162SAPE  C21218105   2.214   0.185   3.429
  162SAPE  H12R18106   2.303   0.159   3.488
  162SAPE  C21318107   2.092   0.221   3.510
  162SAPE  H13R18108   2.007   0.151   3.495
  162SAPE  H13S18109   2.052   0.323   3.488
  162SAPE  C21418110   2.133   0.209   3.651
  162SAPE  H14R18111   2.166   0.107   3.676
  162SAPE  C21518112   2.139   0.302   3.746
  162SAPE  H15R18113   2.190   0.265   3.836
  162SAPE  C21618114   2.117   0.449   3.749
  162SAPE  H16R18115   2.073   0.474   3.650
  162SAPE  H16S18116   2.217   0.492   3.769
  162SAPE  C21718117   2.012   0.469   3.858
  162SAPE  H17R18118   2.024   0.412   3.952
  162SAPE  H17S18119   1.909   0.453   3.819
  162SAPE  C21818120   2.014   0.623   3.906
  162SAPE  H18R18121   2.013   0.687   3.815
  162SAPE  H18S18122   2.111   0.642   3.957
  162SAPE  C21918123   1.894   0.650   4.000
  162SAPE  H19R18124   1.887   0.571   4.078
  162SAPE  H19S18125   1.803   0.644   3.936
  162SAPE  C22018126   1.907   0.788   4.073
  162SAPE  H20R18127   2.007   0.800   4.119
  162SAPE  H20S18128   1.823   0.808   4.143
  162SAPE  H20T18129   1.896   0.871   4.000
  162SAPE   C3318130   2.367   0.235   2.634
  162SAPE   H3X18131   2.260   0.259   2.654
  162SAPE   H3Y18132   2.424   0.323   2.596
  162SAPE   C3418133   2.418   0.200   2.769
  162SAPE   H4X18134   2.408   0.290   2.835
  162SAPE   H4Y18135   2.525   0.177   2.753
  162SAPE   C3518136   2.338   0.091   2.824
  162SAPE   H5X18137   2.340   0.005   2.753
  162SAPE   H5Y18138   2.231   0.122   2.825
  162SAPE   C3618139   2.382   0.044   2.959
  162SAPE   H6X18140   2.356   0.123   3.032
  162SAPE   H6Y18141   2.491   0.028   2.963
  162SAPE   C3718142   2.314   6.838   3.013
  162SAPE   H7X18143   2.204   6.844   2.999
  162SAPE   H7Y18144   2.345   6.836   3.119
  162SAPE   C3818145   2.338   6.705   2.935
  162SAPE   H8X18146   2.445   6.681   2.947
  162SAPE   H8Y18147   2.324   6.721   2.826
  162SAPE   C3918148   2.246   6.596   2.997
  162SAPE   H9X18149   2.139   6.625   2.987
  162SAPE   H9Y18150   2.266   6.600   3.106
  162SAPE  C31018151   2.287   6.455   2.939
  162SAPE  H10X18152   2.389   6.430   2.974
  162SAPE  H10Y18153   2.300   6.477   2.831
  162SAPE  C31118154   2.183   6.353   2.964
  162SAPE  H11X18155   2.079   6.381   2.938
  162SAPE  H11Y18156   2.185   6.336   3.074
  162SAPE  C31218157   2.219   6.226   2.892
  162SAPE  H12X18158   2.248   6.244   2.786
  162SAPE  H12Y18159   2.134   6.155   2.886
  162SAPE  C31318160   2.337   6.146   2.955
  162SAPE  H13X18161   2.410   6.214   3.006
  162SAPE  H13Y18162   2.394   6.096   2.874
  162SAPE  C31418163   2.285   6.039   3.043
  162SAPE  H14X18164   2.209   5.989   2.978
  162SAPE  H14Y18165   2.220   6.081   3.122
  162SAPE  C31518166   2.386   5.935   3.092
  162SAPE  H15X18167   2.467   6.003   3.125
  162SAPE  H15Y18168   2.419   5.863   3.014
  162SAPE  C31618169   2.338   5.865   3.215
  162SAPE  H16X18170   2.252   5.806   3.179
  162SAPE  H16Y18171   2.306   5.939   3.292
  162SAPE  C31718172   2.442   5.770   3.275
  162SAPE  H17X18173   2.540   5.822   3.285
  162SAPE  H17Y18174   2.459   5.686   3.204
  162SAPE  C31818175   2.398   5.709   3.412
  162SAPE  H18X18176   2.290   5.683   3.413
  162SAPE  H18Y18177   2.406   5.783   3.494
  162SAPE  H18Z18178   2.468   5.629   3.445
  163SAPE     N18179   1.569   3.181   1.639
  163SAPE   HN118180   1.578   3.130   1.549
  163SAPE   HN218181   1.607   3.130   1.721
  163SAPE   HN318182   1.471   3.206   1.666
  163SAPE   C1218183   1.646   3.314   1.623
  163SAPE  H12A18184   1.632   3.346   1.518
  163SAPE  H12B18185   1.754   3.295   1.642
  163SAPE   C1118186   1.589   3.410   1.726
  163SAPE  H11A18187   1.640   3.508   1.715
  163SAPE  H11B18188   1.614   3.381   1.831
  163SAPE     P18189   1.385   3.542   1.806
  163SAPE   O1318190   1.396   3.662   1.726
  163SAPE   O1418191   1.250   3.501   1.844
  163SAPE   O1218192   1.450   3.427   1.717
  163SAPE   O1118193   1.473   3.552   1.935
  163SAPE    C118194   1.494   3.436   2.016
  163SAPE    HA18195   1.484   3.338   1.965
  163SAPE    HB18196   1.594   3.431   2.063
  163SAPE    C218197   1.386   3.435   2.134
  163SAPE    HS18198   1.286   3.464   2.094
  163SAPE   O2118199   1.429   3.523   2.240
  163SAPE   C2118200   1.388   3.644   2.233
  163SAPE   O2218201   1.297   3.679   2.157
  163SAPE   C2218202   1.452   3.733   2.330
  163SAPE   H2R18203   1.547   3.766   2.283
  163SAPE   H2S18204   1.383   3.820   2.333
  163SAPE    C318205   1.369   3.289   2.184
  163SAPE    HX18206   1.466   3.235   2.187
  163SAPE    HY18207   1.323   3.235   2.099
  163SAPE   O3118208   1.305   3.279   2.315
  163SAPE   C3118209   1.384   3.299   2.426
  163SAPE   O3218210   1.502   3.313   2.421
  163SAPE   C3218211   1.303   3.299   2.554
  163SAPE   H2X18212   1.240   3.207   2.560
  163SAPE   H2Y18213   1.238   3.388   2.566
  163SAPE   C2318214   1.450   3.678   2.469
  163SAPE   H3R18215   1.506   3.744   2.539
  163SAPE   H3S18216   1.502   3.580   2.469
  163SAPE   C2418217   1.311   3.656   2.528
  163SAPE   H4R18218   1.323   3.603   2.625
  163SAPE   H4S18219   1.239   3.596   2.470
  163SAPE   C2518220   1.227   3.774   2.557
  163SAPE   H5R18221   1.169   3.803   2.468
  163SAPE   C2618222   1.211   3.839   2.676
  163SAPE   H6R18223   1.136   3.920   2.671
  163SAPE   C2718224   1.272   3.815   2.810
  163SAPE   H7R18225   1.351   3.737   2.800
  163SAPE   H7S18226   1.202   3.777   2.887
  163SAPE   C2818227   1.339   3.945   2.852
  163SAPE   H8R18228   1.394   3.994   2.770
  163SAPE   C2918229   1.349   3.997   2.970
  163SAPE   H9R18230   1.403   4.092   2.981
  163SAPE  C21018231   1.283   3.945   3.092
  163SAPE  H10R18232   1.284   3.834   3.086
  163SAPE  H10S18233   1.176   3.974   3.100
  163SAPE  C21118234   1.352   3.993   3.223
  163SAPE  H11R18235   1.457   4.025   3.221
  163SAPE  C21218236   1.297   3.982   3.346
  163SAPE  H12R18237   1.357   4.027   3.427
  163SAPE  C21318238   1.157   3.937   3.384
  163SAPE  H13R18239   1.103   3.913   3.290
  163SAPE  H13S18240   1.103   4.023   3.429
  163SAPE  C21418241   1.166   3.815   3.474
  163SAPE  H14R18242   1.181   3.724   3.413
  163SAPE  C21518243   1.143   3.805   3.606
  163SAPE  H15R18244   1.138   3.706   3.653
  163SAPE  C21618245   1.095   3.914   3.689
  163SAPE  H16R18246   0.989   3.889   3.707
  163SAPE  H16S18247   1.088   4.013   3.639
  163SAPE  C21718248   1.164   3.928   3.822
  163SAPE  H17R18249   1.190   3.827   3.860
  163SAPE  H17S18250   1.105   3.979   3.901
  163SAPE  C21818251   1.300   3.991   3.810
  163SAPE  H18R18252   1.305   4.076   3.739
  163SAPE  H18S18253   1.367   3.914   3.765
  163SAPE  C21918254   1.352   4.060   3.932
  163SAPE  H19R18255   1.277   4.136   3.959
  163SAPE  H19S18256   1.443   4.117   3.902
  163SAPE  C22018257   1.374   3.976   4.059
  163SAPE  H20R18258   1.475   3.929   4.063
  163SAPE  H20S18259   1.290   3.904   4.073
  163SAPE  H20T18260   1.368   4.046   4.145
  163SAPE   C3318261   1.394   3.321   2.685
  163SAPE   H3X18262   1.441   3.419   2.661
  163SAPE   H3Y18263   1.479   3.249   2.685
  163SAPE   C3418264   1.317   3.303   2.816
  163SAPE   H4X18265   1.277   3.200   2.821
  163SAPE   H4Y18266   1.234   3.378   2.807
  163SAPE   C3518267   1.389   3.344   2.946
  163SAPE   H5X18268   1.433   3.444   2.925
  163SAPE   H5Y18269   1.463   3.265   2.972
  163SAPE   C3618270   1.290   3.355   3.054
  163SAPE   H6X18271   1.248   3.256   3.079
  163SAPE   H6Y18272   1.207   3.424   3.027
  163SAPE   C3718273   1.360   3.419   3.184
  163SAPE   H7X18274   1.396   3.523   3.165
  163SAPE   H7Y18275   1.454   3.372   3.220
  163SAPE   C3818276   1.267   3.424   3.301
  163SAPE   H8X18277   1.216   3.326   3.293
  163SAPE   H8Y18278   1.199   3.511   3.296
  163SAPE   C3918279   1.326   3.411   3.438
  163SAPE   H9X18280   1.395   3.497   3.448
  163SAPE   H9Y18281   1.381   3.315   3.442
  163SAPE  C31018282   1.235   3.430   3.557
  163SAPE  H10X18283   1.166   3.344   3.566
  163SAPE  H10Y18284   1.170   3.518   3.536
  163SAPE  C31118285   1.315   3.441   3.685
  163SAPE  H11X18286   1.397   3.517   3.679
  163SAPE  H11Y18287   1.367   3.344   3.697
  163SAPE  C31218288   1.222   3.455   3.805
  163SAPE  H12X18289   1.149   3.375   3.781
  163SAPE  H12Y18290   1.154   3.542   3.806
  163SAPE  C31318291   1.281   3.420   3.943
  163SAPE  H13X18292   1.386   3.385   3.935
  163SAPE  H13Y18293   1.215   3.345   3.993
  163SAPE  C31418294   1.301   3.548   4.023
  163SAPE  H14X18295   1.212   3.614   4.025
  163SAPE  H14Y18296   1.379   3.614   3.979
  163SAPE  C31518297   1.342   3.518   4.170
  163SAPE  H15X18298   1.426   3.446   4.175
  163SAPE  H15Y18299   1.263   3.469   4.231
  163SAPE  C31618300   1.399   3.640   4.246
  163SAPE  H16X18301   1.317   3.714   4.264
  163SAPE  H16Y18302   1.477   3.689   4.183
  163SAPE  C31718303   1.477   3.615   4.378
  163SAPE  H17X18304   1.543   3.529   4.352
  163SAPE  H17Y18305   1.405   3.590   4.459
  163SAPE  C31818306   1.560   3.736   4.415
  163SAPE  H18X18307   1.623   3.779   4.334
  163SAPE  H18Y18308   1.612   3.714   4.510
  163SAPE  H18Z18309   1.487   3.817   4.437
  164SAPE     N18310   5.960   3.749   1.968
  164SAPE   HN118311   5.987   3.835   1.917
  164SAPE   HN218312   5.934   3.672   1.903
  164SAPE   HN318313   5.875   3.770   2.025
  164SAPE   C1218314   6.067   3.711   2.066
  164SAPE  H12A18315   6.160   3.693   2.009
  164SAPE  H12B18316   6.043   3.615   2.116
  164SAPE   C1118317   6.068   3.825   2.179
  164SAPE  H11A18318   6.150   3.796   2.249
  164SAPE  H11B18319   5.973   3.831   2.236
  164SAPE     P18320   6.237   4.007   2.084
  164SAPE   O1318321   6.325   3.903   2.017
  164SAPE   O1418322   6.237   4.139   2.015
  164SAPE   O1218323   6.092   3.950   2.112
  164SAPE   O1118324   6.284   4.019   2.231
  164SAPE    C118325   6.291   4.143   2.310
  164SAPE    HA18326   6.219   4.218   2.271
  164SAPE    HB18327   6.250   4.112   2.409
  164SAPE    C218328   6.433   4.212   2.328
  164SAPE    HS18329   6.475   4.194   2.227
  164SAPE   O2118330   6.511   4.138   2.426
  164SAPE   C2118331   6.643   4.160   2.439
  164SAPE   O2218332   6.711   4.229   2.368
  164SAPE   C2218333   6.696   4.074   2.557
  164SAPE   H2R18334   6.692   4.142   2.645
  164SAPE   H2S18335   6.646   3.975   2.560
  164SAPE    C318336   6.430   4.363   2.353
  164SAPE    HX18337   6.370   4.410   2.272
  164SAPE    HY18338   6.529   4.411   2.342
  164SAPE   O3118339   6.378   4.386   2.483
  164SAPE   C3118340   6.255   4.432   2.482
  164SAPE   O3218341   6.181   4.442   2.383
  164SAPE   C3218342   6.221   4.450   2.633
  164SAPE   H2X18343   6.275   4.534   2.681
  164SAPE   H2Y18344   6.238   4.350   2.679
  164SAPE   C2318345   6.847   4.038   2.543
  164SAPE   H3R18346   6.898   4.134   2.521
  164SAPE   H3S18347   6.861   3.974   2.453
  164SAPE   C2418348   6.899   3.976   2.667
  164SAPE   H4R18349   6.879   4.049   2.748
  164SAPE   H4S18350   0.097   3.965   2.659
  164SAPE   C2518351   6.842   3.840   2.696
  164SAPE   H5R18352   6.853   3.772   2.611
  164SAPE   C2618353   6.802   3.795   2.819
  164SAPE   H6R18354   6.753   3.697   2.821
  164SAPE   C2718355   6.785   3.870   2.955
  164SAPE   H7R18356   6.882   3.917   2.984
  164SAPE   H7S18357   6.766   3.790   3.029
  164SAPE   C2818358   6.668   3.966   2.940
  164SAPE   H8R18359   6.585   3.934   2.874
  164SAPE   C2918360   6.657   4.095   2.994
  164SAPE   H9R18361   6.566   4.155   2.974
  164SAPE  C21018362   6.762   4.161   3.081
  164SAPE  H10R18363   6.827   4.081   3.123
  164SAPE  H10S18364   6.707   4.194   3.171
  164SAPE  C21118365   6.846   4.268   3.019
  164SAPE  H11R18366   0.003   4.225   2.945
  164SAPE  C21218367   6.842   4.400   3.049
  164SAPE  H12R18368   6.895   4.475   2.988
  164SAPE  C21318369   6.772   4.477   3.166
  164SAPE  H13R18370   6.709   4.407   3.226
  164SAPE  H13S18371   6.702   4.549   3.119
  164SAPE  C21418372   6.875   4.531   3.262
  164SAPE  H14R18373   0.062   4.483   3.261
  164SAPE  C21518374   6.857   4.627   3.357
  164SAPE  H15R18375   0.028   4.653   3.424
  164SAPE  C21618376   6.721   4.690   3.392
  164SAPE  H16R18377   6.642   4.670   3.317
  164SAPE  H16S18378   6.739   4.799   3.380
  164SAPE  C21718379   6.672   4.645   3.526
  164SAPE  H17R18380   6.690   4.538   3.549
  164SAPE  H17S18381   6.563   4.663   3.541
  164SAPE  C21818382   6.741   4.713   3.644
  164SAPE  H18R18383   6.753   4.819   3.610
  164SAPE  H18S18384   6.849   4.685   3.649
  164SAPE  C21918385   6.672   4.711   3.778
  164SAPE  H19R18386   6.692   4.610   3.819
  164SAPE  H19S18387   6.561   4.715   3.774
  164SAPE  C22018388   6.717   4.813   3.878
  164SAPE  H20R18389   6.701   4.917   3.843
  164SAPE  H20S18390   6.826   4.807   3.900
  164SAPE  H20T18391   6.662   4.810   3.975
  164SAPE   C3318392   6.082   4.499   2.672
  164SAPE   H3X18393   6.011   4.421   2.638
  164SAPE   H3Y18394   6.056   4.594   2.620
  164SAPE   C3418395   6.062   4.517   2.825
  164SAPE   H4X18396   6.133   4.583   2.878
  164SAPE   H4Y18397   6.076   4.413   2.863
  164SAPE   C3518398   5.925   4.562   2.859
  164SAPE   H5X18399   5.854   4.510   2.792
  164SAPE   H5Y18400   5.912   4.672   2.855
  164SAPE   C3618401   5.885   4.537   3.007
  164SAPE   H6X18402   5.888   4.430   3.034
  164SAPE   H6Y18403   5.783   4.573   3.030
  164SAPE   C3718404   5.986   4.602   3.104
  164SAPE   H7X18405   6.009   4.701   3.060
  164SAPE   H7Y18406   6.085   4.551   3.105
  164SAPE   C3818407   5.938   4.627   3.248
  164SAPE   H8X18408   5.834   4.664   3.258
  164SAPE   H8Y18409   6.003   4.705   3.293
  164SAPE   C3918410   5.948   4.507   3.345
  164SAPE   H9X18411   6.046   4.454   3.343
  164SAPE   H9Y18412   5.871   4.435   3.310
  164SAPE  C31018413   5.890   4.528   3.491
  164SAPE  H10X18414   5.886   4.425   3.534
  164SAPE  H10Y18415   5.793   4.580   3.480
  164SAPE  C31118416   5.985   4.614   3.579
  164SAPE  H11X18417   6.016   4.705   3.523
  164SAPE  H11Y18418   6.080   4.560   3.601
  164SAPE  C31218419   5.920   4.668   3.707
  164SAPE  H12X18420   5.845   4.740   3.667
  164SAPE  H12Y18421   5.996   4.718   3.771
  164SAPE  C31318422   5.840   4.567   3.785
  164SAPE  H13X18423   5.889   4.468   3.798
  164SAPE  H13Y18424   5.754   4.553   3.716
  164SAPE  C31418425   5.788   4.624   3.921
  164SAPE  H14X18426   5.872   4.608   3.993
  164SAPE  H14Y18427   5.707   4.552   3.943
  164SAPE  C31518428   5.741   4.777   3.915
  164SAPE  H15X18429   5.684   4.792   3.822
  164SAPE  H15Y18430   5.824   4.851   3.926
  164SAPE  C31618431   5.656   4.816   4.033
  164SAPE  H16X18432   5.567   4.751   4.037
  164SAPE  H16Y18433   5.612   4.918   4.023
  164SAPE  C31718434   5.731   4.818   4.164
  164SAPE  H17X18435   5.789   4.725   4.176
  164SAPE  H17Y18436   5.648   4.829   4.238
  164SAPE  C31818437   5.817   4.940   4.166
  164SAPE  H18X18438   5.919   4.931   4.123
  164SAPE  H18Y18439   5.841   4.969   4.271
  164SAPE  H18Z18440   5.770   5.032   4.126
  165SAPE     N18441   5.226   0.956   2.535
  165SAPE   HN118442   5.151   0.896   2.495
  165SAPE   HN218443   5.173   1.035   2.577
  165SAPE   HN318444   5.291   0.989   2.461
  165SAPE   C1218445   5.312   0.885   2.634
  165SAPE  H12A18446   5.413   0.930   2.631
  165SAPE  H12B18447   5.328   0.784   2.591
  165SAPE   C1118448   5.249   0.867   2.768
  165SAPE  H11A18449   5.231   0.961   2.825
  165SAPE  H11B18450   5.322   0.812   2.831
  165SAPE     P18451   5.106   0.640   2.766
  165SAPE   O1318452   4.986   0.602   2.693
  165SAPE   O1418453   5.232   0.574   2.721
  165SAPE   O1218454   5.126   0.797   2.757
  165SAPE   O1118455   5.086   0.603   2.916
  165SAPE    C118456   4.988   0.671   2.999
  165SAPE    HA18457   4.894   0.697   2.946
  165SAPE    HB18458   4.962   0.591   3.072
  165SAPE    C218459   5.053   0.789   3.073
  165SAPE    HS18460   5.064   0.859   2.987
  165SAPE   O2118461   5.189   0.753   3.118
  165SAPE   C2118462   5.263   0.853   3.148
  165SAPE   O2218463   5.232   0.969   3.144
  165SAPE   C2218464   5.396   0.807   3.194
  165SAPE   H2R18465   5.439   0.899   3.237
  165SAPE   H2S18466   5.383   0.735   3.278
  165SAPE    C318467   4.956   0.854   3.174
  165SAPE    HX18468   4.863   0.879   3.118
  165SAPE    HY18469   4.990   0.956   3.201
  165SAPE   O3118470   4.924   0.768   3.288
  165SAPE   C3118471   4.970   0.805   3.403
  165SAPE   O3218472   5.053   0.889   3.426
  165SAPE   C3218473   4.895   0.745   3.523
  165SAPE   H2X18474   4.873   0.637   3.503
  165SAPE   H2Y18475   4.798   0.799   3.524
  165SAPE   C2318476   5.500   0.747   3.094
  165SAPE   H3R18477   5.586   0.760   3.162
  165SAPE   H3S18478   5.512   0.806   3.000
  165SAPE   C2418479   5.484   0.597   3.063
  165SAPE   H4R18480   5.569   0.579   2.993
  165SAPE   H4S18481   5.392   0.580   3.003
  165SAPE   C2518482   5.498   0.491   3.174
  165SAPE   H5R18483   5.600   0.472   3.211
  165SAPE   C2618484   5.397   0.424   3.235
  165SAPE   H6R18485   5.423   0.352   3.314
  165SAPE   C2718486   5.250   0.425   3.206
  165SAPE   H7R18487   5.227   0.321   3.175
  165SAPE   H7S18488   5.231   0.475   3.108
  165SAPE   C2818489   5.150   0.472   3.308
  165SAPE   H8R18490   5.085   0.544   3.255
  165SAPE   C2918491   5.132   0.452   3.440
  165SAPE   H9R18492   5.058   0.512   3.494
  165SAPE  C21018493   5.216   0.360   3.526
  165SAPE  H10R18494   5.313   0.341   3.474
  165SAPE  H10S18495   5.169   0.260   3.535
  165SAPE  C21118496   5.235   0.414   3.665
  165SAPE  H11R18497   5.156   0.391   3.738
  165SAPE  C21218498   5.343   0.484   3.710
  165SAPE  H12R18499   5.344   0.518   3.815
  165SAPE  C21318500   5.464   0.530   3.630
  165SAPE  H13R18501   5.438   0.524   3.523
  165SAPE  H13S18502   5.551   0.463   3.646
  165SAPE  C21418503   5.500   0.673   3.671
  165SAPE  H14R18504   5.433   0.748   3.625
  165SAPE  C21518505   5.593   0.719   3.762
  165SAPE  H15R18506   5.599   0.829   3.772
  165SAPE  C21618507   5.697   0.648   3.852
  165SAPE  H16R18508   5.798   0.685   3.824
  165SAPE  H16S18509   5.697   0.538   3.837
  165SAPE  C21718510   5.666   0.680   3.998
  165SAPE  H17R18511   5.693   0.784   4.025
  165SAPE  H17S18512   5.744   0.624   4.054
  165SAPE  C21818513   5.531   0.628   4.057
  165SAPE  H18R18514   5.453   0.652   3.982
  165SAPE  H18S18515   5.508   0.698   4.141
  165SAPE  C21918516   5.542   0.481   4.109
  165SAPE  H19R18517   5.642   0.465   4.155
  165SAPE  H19S18518   5.522   0.409   4.027
  165SAPE  C22018519   5.445   0.443   4.219
  165SAPE  H20R18520   5.449   0.499   4.315
  165SAPE  H20S18521   5.443   0.333   4.236
  165SAPE  H20T18522   5.345   0.478   4.185
  165SAPE   C3318523   4.980   0.751   3.651
  165SAPE   H3X18524   4.979   0.851   3.700
  165SAPE   H3Y18525   5.085   0.732   3.620
  165SAPE   C3418526   4.939   0.657   3.764
  165SAPE   H4X18527   4.939   0.552   3.728
  165SAPE   H4Y18528   4.834   0.676   3.795
  165SAPE   C3518529   5.022   0.682   3.897
  165SAPE   H5X18530   4.989   0.779   3.939
  165SAPE   H5Y18531   5.133   0.687   3.884
  165SAPE   C3618532   5.003   0.593   4.019
  165SAPE   H6X18533   5.070   0.627   4.100
  165SAPE   H6Y18534   5.028   0.486   4.004
  165SAPE   C3718535   4.854   0.593   4.071
  165SAPE   H7X18536   4.787   0.552   3.992
  165SAPE   H7Y18537   4.822   0.698   4.087
  165SAPE   C3818538   4.833   0.510   4.199
  165SAPE   H8X18539   4.854   0.405   4.169
  165SAPE   H8Y18540   4.727   0.514   4.233
  165SAPE   C3918541   4.915   0.561   4.316
  165SAPE   H9X18542   4.882   0.667   4.328
  165SAPE   H9Y18543   5.024   0.560   4.297
  165SAPE  C31018544   4.885   0.496   4.452
  165SAPE  H10X18545   4.915   0.389   4.450
  165SAPE  H10Y18546   4.777   0.490   4.477
  165SAPE  C31118547   4.969   0.565   4.568
  165SAPE  H11X18548   4.955   0.675   4.568
  165SAPE  H11Y18549   5.077   0.549   4.549
  165SAPE  C31218550   4.909   0.520   4.696
  165SAPE  H12X18551   4.983   0.530   4.779
  165SAPE  H12Y18552   4.871   0.416   4.696
  165SAPE  C31318553   4.774   0.595   4.725
  165SAPE  H13X18554   4.697   0.585   4.647
  165SAPE  H13Y18555   4.793   0.703   4.743
  165SAPE  C31418556   4.713   0.531   4.846
  165SAPE  H14X18557   4.795   0.533   4.921
  165SAPE  H14Y18558   4.701   0.420   4.847
  165SAPE  C31518559   4.589   0.603   4.901
  165SAPE  H15X18560   4.507   0.611   4.827
  165SAPE  H15Y18561   4.623   0.707   4.916
  165SAPE  C31618562   4.537   0.537   5.034
  165SAPE  H16X18563   4.483   0.618   5.089
  165SAPE  H16Y18564   4.627   0.509   5.091
  165SAPE  C31718565   4.449   0.405   5.020
  165SAPE  H17X18566   4.404   0.377   5.117
  165SAPE  H17Y18567   4.510   0.318   4.986
  165SAPE  C31818568   4.338   0.416   4.915
  165SAPE  H18X18569   4.288   0.317   4.904
  165SAPE  H18Y18570   4.386   0.434   4.817
  165SAPE  H18Z18571   4.262   0.492   4.939
  166SAPE     N18572   0.160   5.464   2.320
  166SAPE   HN118573   0.077   5.418   2.277
  166SAPE   HN218574   0.249   5.427   2.279
  166SAPE   HN318575   0.165   5.441   2.421
  166SAPE   C1218576   0.142   5.611   2.303
  166SAPE  H12A18577   0.134   5.634   2.194
  166SAPE  H12B18578   0.238   5.652   2.343
  166SAPE   C1118579   0.024   5.666   2.383
  166SAPE  H11A18580   0.038   5.775   2.396
  166SAPE  H11B18581   0.019   5.618   2.483
  166SAPE     P18582   6.731   5.503   2.299
  166SAPE   O1318583   6.617   5.522   2.202
  166SAPE   O1418584   6.816   5.386   2.268
  166SAPE   O1218585   6.817   5.638   2.308
  166SAPE   O1118586   6.686   5.491   2.441
  166SAPE    C118587   6.552   5.536   2.483
  166SAPE    HA18588   6.474   5.482   2.426
  166SAPE    HB18589   6.535   5.514   2.591
  166SAPE    C218590   6.528   5.691   2.475
  166SAPE    HS18591   6.519   5.716   2.367
  166SAPE   O2118592   6.633   5.766   2.531
  166SAPE   C2118593   6.670   5.876   2.465
  166SAPE   O2218594   6.625   5.918   2.362
  166SAPE   C2218595   6.777   5.942   2.552
  166SAPE   H2R18596   6.733   5.956   2.654
  166SAPE   H2S18597   6.864   5.878   2.573
  166SAPE    C318598   6.386   5.719   2.542
  166SAPE    HX18599   6.319   5.649   2.487
  166SAPE    HY18600   6.340   5.818   2.522
  166SAPE   O3118601   6.379   5.684   2.679
  166SAPE   C3118602   6.388   5.784   2.763
  166SAPE   O3218603   6.403   5.904   2.732
  166SAPE   C3218604   6.372   5.733   2.903
  166SAPE   H2X18605   6.434   5.793   2.973
  166SAPE   H2Y18606   6.414   5.630   2.905
  166SAPE   C2318607   6.834   6.077   2.510
  166SAPE   H3R18608   6.767   6.166   2.509
  166SAPE   H3S18609   6.879   6.056   2.410
  166SAPE   C2418610   0.036   6.123   2.603
  166SAPE   H4R18611   0.002   6.138   2.707
  166SAPE   H4S18612   0.062   6.225   2.566
  166SAPE   C2518613   0.166   6.047   2.591
  166SAPE   H5R18614   0.229   6.079   2.506
  166SAPE   C2618615   0.217   5.949   2.674
  166SAPE   H6R18616   0.304   5.889   2.643
  166SAPE   C2718617   0.154   5.878   2.796
  166SAPE   H7R18618   0.211   5.790   2.832
  166SAPE   H7S18619   0.054   5.836   2.769
  166SAPE   C2818620   0.143   5.982   2.909
  166SAPE   H8R18621   0.086   6.068   2.873
  166SAPE   C2918622   0.196   5.993   3.034
  166SAPE   H9R18623   0.163   6.080   3.091
  166SAPE  C21018624   0.278   5.894   3.116
  166SAPE  H10R18625   0.304   5.800   3.065
  166SAPE  H10S18626   0.207   5.870   3.199
  166SAPE  C21118627   0.404   5.960   3.153
  166SAPE  H11R18628   0.450   6.000   3.061
  166SAPE  C21218629   0.470   5.947   3.267
  166SAPE  H12R18630   0.558   6.012   3.277
  166SAPE  C21318631   0.411   5.883   3.387
  166SAPE  H13R18632   0.401   5.774   3.370
  166SAPE  H13S18633   0.311   5.926   3.409
  166SAPE  C21418634   0.492   5.887   3.510
  166SAPE  H14R18635   0.594   5.851   3.486
  166SAPE  C21518636   0.456   5.907   3.640
  166SAPE  H15R18637   0.544   5.919   3.705
  166SAPE  C21618638   0.323   5.949   3.699
  166SAPE  H16R18639   0.258   5.859   3.690
  166SAPE  H16S18640   0.271   6.026   3.639
  166SAPE  C21718641   0.331   5.996   3.846
  166SAPE  H17R18642   0.230   6.028   3.880
  166SAPE  H17S18643   0.401   6.081   3.855
  166SAPE  C21818644   0.386   5.890   3.941
  166SAPE  H18R18645   0.477   5.843   3.898
  166SAPE  H18S18646   0.308   5.810   3.940
  166SAPE  C21918647   0.416   5.949   4.078
  166SAPE  H19R18648   0.326   5.991   4.127
  166SAPE  H19S18649   0.489   6.033   4.071
  166SAPE  C22018650   0.472   5.849   4.175
  166SAPE  H20R18651   0.417   5.753   4.178
  166SAPE  H20S18652   0.475   5.889   4.279
  166SAPE  H20T18653   0.575   5.817   4.149
  166SAPE   C3318654   6.219   5.742   2.938
  166SAPE   H3X18655   6.172   5.666   2.872
  166SAPE   H3Y18656   6.173   5.842   2.922
  166SAPE   C3418657   6.205   5.688   3.085
  166SAPE   H4X18658   6.248   5.586   3.082
  166SAPE   H4Y18659   6.099   5.662   3.104
  166SAPE   C3518660   6.253   5.772   3.209
  166SAPE   H5X18661   6.189   5.860   3.233
  166SAPE   H5Y18662   6.350   5.816   3.175
  166SAPE   C3618663   6.251   5.690   3.343
  166SAPE   H6X18664   6.194   5.598   3.320
  166SAPE   H6Y18665   6.182   5.752   3.403
  166SAPE   C3718666   6.396   5.671   3.384
  166SAPE   H7X18667   6.447   5.769   3.393
  166SAPE   H7Y18668   6.456   5.614   3.310
  166SAPE   C3818669   6.393   5.596   3.516
  166SAPE   H8X18670   6.341   5.498   3.510
  166SAPE   H8Y18671   6.331   5.652   3.589
  166SAPE   C3918672   6.539   5.560   3.563
  166SAPE   H9X18673   6.586   5.661   3.575
  166SAPE   H9Y18674   6.584   5.497   3.483
  166SAPE  C31018675   6.542   5.474   3.687
  166SAPE  H10X18676   6.438   5.473   3.726
  166SAPE  H10Y18677   6.609   5.519   3.764
  166SAPE  C31118678   6.591   5.327   3.671
  166SAPE  H11X18679   6.685   5.327   3.613
  166SAPE  H11Y18680   6.509   5.302   3.600
  166SAPE  C31218681   6.590   5.242   3.795
  166SAPE  H12X18682   6.595   5.135   3.768
  166SAPE  H12Y18683   6.490   5.268   3.837
  166SAPE  C31318684   6.711   5.268   3.881
  166SAPE  H13X18685   6.732   5.375   3.905
  166SAPE  H13Y18686   6.796   5.244   3.814
  166SAPE  C31418687   6.703   5.190   4.010
  166SAPE  H14X18688   6.796   5.207   4.069
  166SAPE  H14Y18689   6.682   5.088   3.972
  166SAPE  C31518690   6.596   5.235   4.107
  166SAPE  H15X18691   6.586   5.170   4.196
  166SAPE  H15Y18692   6.504   5.206   4.053
  166SAPE  C31618693   6.597   5.392   4.140
  166SAPE  H16X18694   6.491   5.426   4.145
  166SAPE  H16Y18695   6.651   5.457   4.068
  166SAPE  C31718696   6.683   5.413   4.261
  166SAPE  H17X18697   6.780   5.365   4.240
  166SAPE  H17Y18698   6.635   5.358   4.346
  166SAPE  C31818699   6.695   5.556   4.305
  166SAPE  H18X18700   6.756   5.567   4.396
  166SAPE  H18Y18701   6.591   5.593   4.318
  166SAPE  H18Z18702   6.737   5.621   4.225
  167SAPE     N18703   6.597   3.156   2.056
  167SAPE   HN118704   6.641   3.105   2.135
  167SAPE   HN218705   6.495   3.138   2.069
  167SAPE   HN318706   6.630   3.124   1.963
  167SAPE   C1218707   6.621   3.299   2.079
  167SAPE  H12A18708   6.565   3.363   2.008
  167SAPE  H12B18709   6.730   3.320   2.082
  167SAPE   C1118710   6.553   3.334   2.212
  167SAPE  H11A18711   6.559   3.441   2.241
  167SAPE  H11B18712   6.608   3.281   2.293
  167SAPE     P18713   6.299   3.386   2.188
  167SAPE   O1318714   6.345   3.480   2.086
  167SAPE   O1418715   6.167   3.322   2.154
  167SAPE   O1218716   6.418   3.285   2.218
  167SAPE   O1118717   6.288   3.471   2.315
  167SAPE    C118718   6.310   3.408   2.448
  167SAPE    HA18719   6.274   3.303   2.448
  167SAPE    HB18720   6.420   3.410   2.466
  167SAPE    C218721   6.224   3.469   2.562
  167SAPE    HS18722   6.119   3.454   2.529
  167SAPE   O2118723   6.266   3.605   2.581
  167SAPE   C2118724   6.173   3.702   2.546
  167SAPE   O2218725   6.068   3.670   2.490
  167SAPE   C2218726   6.208   3.833   2.612
  167SAPE   H2R18727   6.225   3.824   2.722
  167SAPE   H2S18728   6.302   3.875   2.570
  167SAPE    C318729   6.242   3.397   2.700
  167SAPE    HX18730   6.344   3.353   2.701
  167SAPE    HY18731   6.169   3.313   2.700
  167SAPE   O3118732   6.212   3.483   2.815
  167SAPE   C3118733   6.312   3.550   2.869
  167SAPE   O3218734   6.422   3.550   2.822
  167SAPE   C3218735   6.266   3.624   2.997
  167SAPE   H2X18736   6.173   3.579   3.037
  167SAPE   H2Y18737   6.239   3.722   2.953
  167SAPE   C2318738   6.100   3.937   2.575
  167SAPE   H3R18739   5.999   3.899   2.601
  167SAPE   H3S18740   6.110   3.951   2.465
  167SAPE   C2418741   6.110   4.071   2.651
  167SAPE   H4R18742   6.050   4.150   2.601
  167SAPE   H4S18743   6.215   4.106   2.644
  167SAPE   C2518744   6.061   4.059   2.797
  167SAPE   H5R18745   5.954   4.033   2.800
  167SAPE   C2618746   6.116   4.067   2.921
  167SAPE   H6R18747   6.045   4.049   3.004
  167SAPE   C2718748   6.261   4.105   2.950
  167SAPE   H7R18749   6.328   4.064   2.871
  167SAPE   H7S18750   6.280   4.052   3.046
  167SAPE   C2818751   6.287   4.255   2.974
  167SAPE   H8R18752   6.298   4.324   2.889
  167SAPE   C2918753   6.312   4.321   3.086
  167SAPE   H9R18754   6.342   4.425   3.068
  167SAPE  C21018755   6.312   4.263   3.228
  167SAPE  H10R18756   6.305   4.152   3.225
  167SAPE  H10S18757   6.218   4.302   3.273
  167SAPE  C21118758   6.438   4.302   3.310
  167SAPE  H11R18759   6.535   4.281   3.263
  167SAPE  C21218760   6.432   4.358   3.433
  167SAPE  H12R18761   6.524   4.400   3.477
  167SAPE  C21318762   6.304   4.398   3.496
  167SAPE  H13R18763   6.254   4.461   3.419
  167SAPE  H13S18764   6.327   4.477   3.571
  167SAPE  C21418765   6.224   4.297   3.563
  167SAPE  H14R18766   6.178   4.222   3.496
  167SAPE  C21518767   6.193   4.286   3.694
  167SAPE  H15R18768   6.128   4.199   3.706
  167SAPE  C21618769   6.233   4.375   3.812
  167SAPE  H16R18770   6.155   4.362   3.890
  167SAPE  H16S18771   6.233   4.483   3.789
  167SAPE  C21718772   6.365   4.324   3.879
  167SAPE  H17R18773   6.368   4.380   3.975
  167SAPE  H17S18774   6.447   4.347   3.808
  167SAPE  C21818775   6.348   4.180   3.909
  167SAPE  H18R18776   6.346   4.111   3.822
  167SAPE  H18S18777   6.250   4.157   3.957
  167SAPE  C21918778   6.460   4.122   3.996
  167SAPE  H19R18779   6.466   4.188   4.085
  167SAPE  H19S18780   6.564   4.133   3.957
  167SAPE  C22018781   6.429   3.982   4.056
  167SAPE  H20R18782   6.456   3.906   3.979
  167SAPE  H20S18783   6.322   3.967   4.080
  167SAPE  H20T18784   6.493   3.954   4.142
  167SAPE   C3318785   6.380   3.636   3.098
  167SAPE   H3X18786   6.363   3.714   3.176
  167SAPE   H3Y18787   6.470   3.671   3.043
  167SAPE   C3418788   6.401   3.509   3.181
  167SAPE   H4X18789   6.497   3.531   3.232
  167SAPE   H4Y18790   6.414   3.423   3.112
  167SAPE   C3518791   6.290   3.463   3.279
  167SAPE   H5X18792   6.206   3.421   3.220
  167SAPE   H5Y18793   6.247   3.548   3.336
  167SAPE   C3618794   6.339   3.364   3.381
  167SAPE   H6X18795   6.427   3.411   3.430
  167SAPE   H6Y18796   6.381   3.272   3.336
  167SAPE   C3718797   6.234   3.331   3.491
  167SAPE   H7X18798   6.138   3.291   3.450
  167SAPE   H7Y18799   6.228   3.411   3.567
  167SAPE   C3818800   6.289   3.206   3.569
  167SAPE   H8X18801   6.347   3.139   3.502
  167SAPE   H8Y18802   6.205   3.150   3.616
  167SAPE   C3918803   6.377   3.256   3.683
  167SAPE   H9X18804   6.412   3.356   3.650
  167SAPE   H9Y18805   6.459   3.182   3.694
  167SAPE  C31018806   6.301   3.270   3.813
  167SAPE  H10X18807   6.265   3.176   3.860
  167SAPE  H10Y18808   6.218   3.343   3.799
  167SAPE  C31118809   6.401   3.331   3.917
  167SAPE  H11X18810   6.428   3.432   3.882
  167SAPE  H11Y18811   6.494   3.270   3.909
  167SAPE  C31218812   6.353   3.332   4.062
  167SAPE  H12X18813   6.325   3.228   4.087
  167SAPE  H12Y18814   6.268   3.404   4.061
  167SAPE  C31318815   6.451   3.370   4.170
  167SAPE  H13X18816   6.538   3.304   4.148
  167SAPE  H13Y18817   6.411   3.326   4.263
  167SAPE  C31418818   6.488   3.522   4.190
  167SAPE  H14X18819   6.399   3.582   4.219
  167SAPE  H14Y18820   6.513   3.571   4.094
  167SAPE  C31518821   6.584   3.544   4.305
  167SAPE  H15X18822   6.550   3.486   4.393
  167SAPE  H15Y18823   6.585   3.649   4.340
  167SAPE  C31618824   6.733   3.505   4.279
  167SAPE  H16X18825   6.776   3.554   4.188
  167SAPE  H16Y18826   6.732   3.395   4.263
  167SAPE  C31718827   6.823   3.527   4.408
  167SAPE  H17X18828   6.776   3.509   4.507
  167SAPE  H17Y18829   6.849   3.635   4.415
  167SAPE  C31818830   0.024   3.429   4.402
  167SAPE  H18X18831   0.080   3.434   4.306
  167SAPE  H18Y18832   6.888   3.329   4.407
  167SAPE  H18Z18833   0.092   3.443   4.488
  168SAPE     N18834   2.443   5.815   2.194
  168SAPE   HN118835   2.352   5.766   2.190
  168SAPE   HN218836   2.427   5.918   2.193
  168SAPE   HN318837   2.481   5.789   2.101
  168SAPE   C1218838   2.534   5.764   2.302
  168SAPE  H12A18839   2.527   5.839   2.383
  168SAPE  H12B18840   2.639   5.772   2.266
  168SAPE   C1118841   2.483   5.634   2.349
  168SAPE  H11A18842   2.553   5.607   2.431
  168SAPE  H11B18843   2.497   5.554   2.273
  168SAPE     P18844   2.230   5.563   2.341
  168SAPE   O1318845   2.218   5.626   2.205
  168SAPE   O1418846   2.244   5.417   2.356
  168SAPE   O1218847   2.354   5.644   2.399
  168SAPE   O1118848   2.119   5.612   2.433
  168SAPE    C118849   2.097   5.748   2.465
  168SAPE    HA18850   2.183   5.815   2.444
  168SAPE    HB18851   2.009   5.777   2.404
  168SAPE    C218852   2.062   5.770   2.619
  168SAPE    HS18853   2.034   5.877   2.635
  168SAPE   O2118854   2.166   5.719   2.702
  168SAPE   C2118855   2.278   5.783   2.691
  168SAPE   O2218856   2.295   5.896   2.644
  168SAPE   C2218857   2.386   5.706   2.764
  168SAPE   H2R18858   2.359   5.702   2.871
  168SAPE   H2S18859   2.380   5.606   2.715
  168SAPE    C318860   1.929   5.688   2.652
  168SAPE    HX18861   1.952   5.583   2.624
  168SAPE    HY18862   1.844   5.727   2.592
  168SAPE   O3118863   1.890   5.699   2.788
  168SAPE   C3118864   1.800   5.793   2.813
  168SAPE   O3218865   1.749   5.867   2.735
  168SAPE   C3218866   1.757   5.791   2.965
  168SAPE   H2X18867   1.663   5.733   2.975
  168SAPE   H2Y18868   1.740   5.895   3.001
  168SAPE   C2318869   2.525   5.767   2.733
  168SAPE   H3R18870   2.524   5.869   2.776
  168SAPE   H3S18871   2.542   5.783   2.624
  168SAPE   C2418872   2.644   5.705   2.806
  168SAPE   H4R18873   2.650   5.594   2.809
  168SAPE   H4S18874   2.638   5.726   2.915
  168SAPE   C2518875   2.777   5.763   2.756
  168SAPE   H5R18876   2.806   5.737   2.653
  168SAPE   C2618877   2.845   5.855   2.829
  168SAPE   H6R18878   2.938   5.894   2.785
  168SAPE   C2718879   2.825   5.905   2.974
  168SAPE   H7R18880   2.923   5.937   3.013
  168SAPE   H7S18881   2.792   5.821   3.039
  168SAPE   C2818882   2.730   6.022   2.984
  168SAPE   H8R18883   2.631   5.996   2.944
  168SAPE   C2918884   2.747   6.145   3.042
  168SAPE   H9R18885   2.676   6.228   3.027
  168SAPE  C21018886   2.880   6.180   3.101
  168SAPE  H10R18887   2.876   6.287   3.130
  168SAPE  H10S18888   2.955   6.162   3.021
  168SAPE  C21118889   2.908   6.104   3.233
  168SAPE  H11R18890   2.825   6.106   3.305
  168SAPE  C21218891   3.027   6.058   3.268
  168SAPE  H12R18892   3.035   6.010   3.367
  168SAPE  C21318893   3.154   6.082   3.188
  168SAPE  H13R18894   3.202   6.166   3.243
  168SAPE  H13S18895   3.128   6.121   3.087
  168SAPE  C21418896   3.240   5.955   3.197
  168SAPE  H14R18897   3.218   5.887   3.281
  168SAPE  C21518898   3.305   5.897   3.101
  168SAPE  H15R18899   3.364   5.808   3.128
  168SAPE  C21618900   3.340   5.956   2.969
  168SAPE  H16R18901   3.265   6.031   2.937
  168SAPE  H16S18902   3.339   5.881   2.887
  168SAPE  C21718903   3.481   6.017   2.976
  168SAPE  H17R18904   3.554   5.935   2.993
  168SAPE  H17S18905   3.495   6.086   3.061
  168SAPE  C21818906   3.525   6.090   2.846
  168SAPE  H18R18907   3.630   6.124   2.859
  168SAPE  H18S18908   3.455   6.176   2.831
  168SAPE  C21918909   3.536   6.007   2.714
  168SAPE  H19R18910   3.434   5.966   2.694
  168SAPE  H19S18911   3.600   5.920   2.741
  168SAPE  C22018912   3.587   6.072   2.595
  168SAPE  H20R18913   3.681   6.130   2.608
  168SAPE  H20S18914   3.509   6.145   2.563
  168SAPE  H20T18915   3.585   6.002   2.509
  168SAPE   C3318916   1.866   5.732   3.058
  168SAPE   H3X18917   1.953   5.801   3.057
  168SAPE   H3Y18918   1.897   5.631   3.021
  168SAPE   C3418919   1.806   5.721   3.203
  168SAPE   H4X18920   1.732   5.640   3.215
  168SAPE   H4Y18921   1.753   5.815   3.228
  168SAPE   C3518922   1.924   5.718   3.304
  168SAPE   H5X18923   1.982   5.810   3.284
  168SAPE   H5Y18924   1.981   5.630   3.266
  168SAPE   C3618925   1.890   5.688   3.450
  168SAPE   H6X18926   1.858   5.582   3.460
  168SAPE   H6Y18927   1.814   5.761   3.483
  168SAPE   C3718928   2.022   5.693   3.539
  168SAPE   H7X18929   2.065   5.795   3.534
  168SAPE   H7Y18930   2.106   5.625   3.513
  168SAPE   C3818931   1.990   5.674   3.692
  168SAPE   H8X18932   2.045   5.580   3.715
  168SAPE   H8Y18933   1.881   5.667   3.711
  168SAPE   C3918934   2.046   5.788   3.789
  168SAPE   H9X18935   1.975   5.872   3.772
  168SAPE   H9Y18936   2.150   5.806   3.752
  168SAPE  C31018937   2.043   5.754   3.941
  168SAPE  H10X18938   1.937   5.749   3.974
  168SAPE  H10Y18939   2.099   5.836   3.991
  168SAPE  C31118940   2.116   5.626   3.992
  168SAPE  H11X18941   2.062   5.537   3.955
  168SAPE  H11Y18942   2.109   5.620   4.103
  168SAPE  C31218943   2.268   5.615   3.950
  168SAPE  H12X18944   2.284   5.621   3.840
  168SAPE  H12Y18945   2.283   5.506   3.967
  168SAPE  C31318946   2.367   5.699   4.033
  168SAPE  H13X18947   2.343   5.712   4.141
  168SAPE  H13Y18948   2.367   5.799   3.985
  168SAPE  C31418949   2.507   5.631   4.032
  168SAPE  H14X18950   2.494   5.542   4.097
  168SAPE  H14Y18951   2.588   5.683   4.087
  168SAPE  C31518952   2.561   5.579   3.899
  168SAPE  H15X18953   2.581   5.672   3.842
  168SAPE  H15Y18954   2.480   5.522   3.848
  168SAPE  C31618955   2.689   5.493   3.900
  168SAPE  H16X18956   2.671   5.387   3.926
  168SAPE  H16Y18957   2.753   5.544   3.976
  168SAPE  C31718958   2.747   5.500   3.763
  168SAPE  H17X18959   2.780   5.605   3.747
  168SAPE  H17Y18960   2.666   5.472   3.692
  168SAPE  C31818961   2.877   5.418   3.753
  168SAPE  H18X18962   2.852   5.310   3.746
  168SAPE  H18Y18963   2.941   5.430   3.844
  168SAPE  H18Z18964   2.939   5.458   3.670
  169SAPE     N18965   5.951   3.288   1.991
  169SAPE   HN118966   6.022   3.278   2.067
  169SAPE   HN218967   5.999   3.337   1.913
  169SAPE   HN318968   5.868   3.342   2.025
  169SAPE   C1218969   5.912   3.152   1.949
  169SAPE  H12A18970   5.863   3.164   1.851
  169SAPE  H12B18971   5.845   3.109   2.026
  169SAPE   C1118972   6.036   3.058   1.947
  169SAPE  H11A18973   6.109   3.110   1.881
  169SAPE  H11B18974   6.002   2.962   1.904
  169SAPE     P18975   6.235   2.980   2.086
  169SAPE   O1318976   6.215   2.841   2.042
  169SAPE   O1418977   6.330   3.063   2.007
  169SAPE   O1218978   6.090   3.030   2.077
  169SAPE   O1118979   6.248   2.992   2.241
  169SAPE    C118980   6.373   2.990   2.302
  169SAPE    HA18981   6.455   2.958   2.235
  169SAPE    HB18982   6.392   3.094   2.338
  169SAPE    C218983   6.361   2.907   2.428
  169SAPE    HS18984   6.329   2.801   2.419
  169SAPE   O2118985   6.289   2.977   2.526
  169SAPE   C2118986   6.219   2.917   2.614
  169SAPE   O2218987   6.177   2.801   2.612
  169SAPE   C2218988   6.193   3.002   2.734
  169SAPE   H2R18989   6.295   3.030   2.766
  169SAPE   H2S18990   6.137   3.091   2.699
  169SAPE    C318991   6.508   2.891   2.480
  169SAPE    HX18992   6.564   2.986   2.475
  169SAPE    HY18993   6.564   2.827   2.409
  169SAPE   O3118994   6.525   2.855   2.619
  169SAPE   C3118995   6.529   2.724   2.645
  169SAPE   O3218996   6.527   2.631   2.566
  169SAPE   C3218997   6.517   2.702   2.796
  169SAPE   H2X18998   6.432   2.760   2.838
  169SAPE   H2Y18999   6.608   2.749   2.840
  169SAPE   C2319000   6.110   2.938   2.845
  169SAPE   H3R19001   6.166   2.857   2.896
  169SAPE   H3S19002   6.021   2.895   2.794
  169SAPE   C2419003   6.060   3.038   2.942
  169SAPE   H4R19004   6.013   2.982   3.026
  169SAPE   H4S19005   5.984   3.101   2.891
  169SAPE   C2519006   6.161   3.132   3.004
  169SAPE   H5R19007   6.172   3.226   2.949
  169SAPE   C2619008   6.239   3.102   3.107
  169SAPE   H6R19009   6.314   3.178   3.136
  169SAPE   C2719010   6.253   2.970   3.181
  169SAPE   H7R19011   6.167   2.908   3.147
  169SAPE   H7S19012   6.235   2.992   3.288
  169SAPE   C2819013   6.389   2.914   3.152
  169SAPE   H8R19014   6.406   2.896   3.045
  169SAPE   C2919015   6.482   2.871   3.236
  169SAPE   H9R19016   6.555   2.815   3.176
  169SAPE  C21019017   6.488   2.863   3.388
  169SAPE  H10R19018   6.469   2.968   3.422
  169SAPE  H10S19019   6.589   2.832   3.419
  169SAPE  C21119020   6.382   2.777   3.455
  169SAPE  H11R19021   6.288   2.777   3.398
  169SAPE  C21219022   6.389   2.717   3.573
  169SAPE  H12R19023   6.299   2.662   3.604
  169SAPE  C21319024   6.502   2.726   3.669
  169SAPE  H13R19025   6.593   2.683   3.622
  169SAPE  H13S19026   6.475   2.661   3.755
  169SAPE  C21419027   6.526   2.872   3.715
  169SAPE  H14R19028   6.508   2.956   3.647
  169SAPE  C21519029   6.551   2.906   3.839
  169SAPE  H15R19030   6.555   3.013   3.866
  169SAPE  C21619031   6.583   2.805   3.950
  169SAPE  H16R19032   6.676   2.842   3.997
  169SAPE  H16S19033   6.601   2.700   3.919
  169SAPE  C21719034   6.479   2.790   4.061
  169SAPE  H17R19035   6.468   2.890   4.108
  169SAPE  H17S19036   6.512   2.705   4.125
  169SAPE  C21819037   6.336   2.752   4.015
  169SAPE  H18R19038   6.332   2.680   3.930
  169SAPE  H18S19039   6.272   2.840   3.993
  169SAPE  C21919040   6.257   2.688   4.129
  169SAPE  H19R19041   6.280   2.737   4.226
  169SAPE  H19S19042   6.272   2.578   4.141
  169SAPE  C22019043   6.107   2.709   4.107
  169SAPE  H20R19044   6.084   2.818   4.100
  169SAPE  H20S19045   6.054   2.671   4.197
  169SAPE  H20T19046   6.063   2.665   4.015
  169SAPE   C3319047   6.487   2.559   2.829
  169SAPE   H3X19048   6.568   2.494   2.792
  169SAPE   H3Y19049   6.392   2.527   2.782
  169SAPE   C3419050   6.463   2.537   2.975
  169SAPE   H4X19051   6.424   2.434   2.990
  169SAPE   H4Y19052   6.397   2.619   3.011
  169SAPE   C3519053   6.589   2.533   3.067
  169SAPE   H5X19054   6.641   2.630   3.081
  169SAPE   H5Y19055   6.665   2.464   3.027
  169SAPE   C3619056   6.549   2.482   3.205
  169SAPE   H6X19057   6.506   2.380   3.202
  169SAPE   H6Y19058   6.468   2.550   3.240
  169SAPE   C3719059   6.672   2.487   3.312
  169SAPE   H7X19060   6.624   2.534   3.400
  169SAPE   H7Y19061   6.757   2.551   3.278
  169SAPE   C3819062   6.722   2.342   3.333
  169SAPE   H8X19063   6.764   2.294   3.243
  169SAPE   H8Y19064   6.633   2.283   3.363
  169SAPE   C3919065   6.839   2.334   3.433
  169SAPE   H9X19066   0.005   2.407   3.402
  169SAPE   H9Y19067   6.872   2.228   3.439
  169SAPE  C31019068   6.801   2.370   3.575
  169SAPE  H10X19069   6.774   2.478   3.582
  169SAPE  H10Y19070   6.889   2.356   3.642
  169SAPE  C31119071   6.681   2.299   3.630
  169SAPE  H11X19072   6.690   2.190   3.608
  169SAPE  H11Y19073   6.597   2.338   3.568
  169SAPE  C31219074   6.653   2.335   3.773
  169SAPE  H12X19075   6.706   2.431   3.788
  169SAPE  H12Y19076   6.703   2.259   3.837
  169SAPE  C31319077   6.506   2.355   3.799
  169SAPE  H13X19078   6.454   2.262   3.765
  169SAPE  H13Y19079   6.473   2.439   3.734
  169SAPE  C31419080   6.472   2.391   3.944
  169SAPE  H14X19081   6.362   2.391   3.959
  169SAPE  H14Y19082   6.508   2.495   3.962
  169SAPE  C31519083   6.546   2.305   4.051
  169SAPE  H15X19084   6.652   2.321   4.024
  169SAPE  H15Y19085   6.524   2.197   4.036
  169SAPE  C31619086   6.508   2.352   4.193
  169SAPE  H16X19087   6.472   2.457   4.202
  169SAPE  H16Y19088   6.607   2.353   4.243
  169SAPE  C31719089   6.423   2.255   4.271
  169SAPE  H17X19090   6.489   2.171   4.301
  169SAPE  H17Y19091   6.334   2.220   4.214
  169SAPE  C31819092   6.375   2.312   4.401
  169SAPE  H18X19093   6.457   2.356   4.462
  169SAPE  H18Y19094   6.311   2.243   4.459
  169SAPE  H18Z19095   6.316   2.403   4.380
  170SAPE     N19096   0.632   3.421   1.969
  170SAPE   HN119097   0.634   3.523   1.950
  170SAPE   HN219098   0.698   3.370   1.907
  170SAPE   HN319099   0.542   3.385   1.931
  170SAPE   C1219100   0.644   3.397   2.118
  170SAPE  H12A19101   0.721   3.466   2.158
  170SAPE  H12B19102   0.678   3.291   2.125
  170SAPE   C1119103   0.497   3.410   2.184
  170SAPE  H11A19104   0.508   3.426   2.293
  170SAPE  H11B19105   0.444   3.314   2.163
  170SAPE     P19106   0.253   3.493   2.165
  170SAPE   O1319107   0.175   3.606   2.121
  170SAPE   O1419108   0.204   3.361   2.120
  170SAPE   O1219109   0.412   3.507   2.124
  170SAPE   O1119110   0.250   3.490   2.325
  170SAPE    C119111   0.269   3.616   2.389
  170SAPE    HA19112   0.370   3.653   2.360
  170SAPE    HB19113   0.199   3.697   2.361
  170SAPE    C219114   0.272   3.609   2.546
  170SAPE    HS19115   0.351   3.536   2.575
  170SAPE   O2119116   0.141   3.581   2.600
  170SAPE   C2119117   0.108   3.455   2.633
  170SAPE   O2219118   0.186   3.362   2.642
  170SAPE   C2219119   6.869   3.448   2.661
  170SAPE   H2R19120   6.857   3.512   2.751
  170SAPE   H2S19121   6.822   3.506   2.579
  170SAPE    C319122   0.316   3.741   2.609
  170SAPE    HX19123   0.251   3.820   2.566
  170SAPE    HY19124   0.419   3.760   2.572
  170SAPE   O3119125   0.306   3.740   2.760
  170SAPE   C3119126   0.318   3.863   2.810
  170SAPE   O3219127   0.346   3.964   2.753
  170SAPE   C3219128   0.296   3.852   2.961
  170SAPE   H2X19129   0.356   3.767   3.000
  170SAPE   H2Y19130   0.190   3.821   2.971
  170SAPE   C2319131   6.801   3.309   2.675
  170SAPE   H3R19132   6.850   3.267   2.765
  170SAPE   H3S19133   6.821   3.245   2.587
  170SAPE   C2419134   6.647   3.298   2.699
  170SAPE   H4R19135   6.592   3.313   2.603
  170SAPE   H4S19136   6.617   3.388   2.756
  170SAPE   C2519137   6.613   3.164   2.765
  170SAPE   H5R19138   6.597   3.075   2.702
  170SAPE   C2619139   6.588   3.149   2.900
  170SAPE   H6R19140   6.558   3.052   2.942
  170SAPE   C2719141   6.596   3.258   3.001
  170SAPE   H7R19142   6.514   3.231   3.071
  170SAPE   H7S19143   6.562   3.353   2.954
  170SAPE   C2819144   6.737   3.279   3.052
  170SAPE   H8R19145   6.809   3.289   2.970
  170SAPE   C2919146   6.777   3.308   3.179
  170SAPE   H9R19147   6.884   3.317   3.201
  170SAPE  C21019148   6.695   3.319   3.307
  170SAPE  H10R19149   6.597   3.357   3.271
  170SAPE  H10S19150   6.739   3.396   3.373
  170SAPE  C21119151   6.690   3.186   3.373
  170SAPE  H11R19152   6.636   3.113   3.312
  170SAPE  C21219153   6.757   3.149   3.486
  170SAPE  H12R19154   6.741   3.050   3.531
  170SAPE  C21319155   6.855   3.231   3.565
  170SAPE  H13R19156   6.880   3.326   3.513
  170SAPE  H13S19157   0.038   3.176   3.586
  170SAPE  C21419158   6.800   3.282   3.696
  170SAPE  H14R19159   6.749   3.379   3.689
  170SAPE  C21519160   6.810   3.228   3.814
  170SAPE  H15R19161   6.749   3.263   3.899
  170SAPE  C21619162   6.881   3.089   3.838
  170SAPE  H16R19163   6.884   3.027   3.746
  170SAPE  H16S19164   6.814   3.034   3.908
  170SAPE  C21719165   0.108   3.104   3.909
  170SAPE  H17R19166   0.152   3.202   3.880
  170SAPE  H17S19167   0.176   3.024   3.875
  170SAPE  C21819168   0.081   3.101   4.060
  170SAPE  H18R19169   0.022   3.010   4.085
  170SAPE  H18S19170   0.034   3.197   4.092
  170SAPE  C21919171   0.216   3.090   4.130
  170SAPE  H19R19172   0.270   3.004   4.085
  170SAPE  H19S19173   0.196   3.080   4.239
  170SAPE  C22019174   0.297   3.222   4.110
  170SAPE  H20R19175   0.334   3.223   4.005
  170SAPE  H20S19176   0.387   3.228   4.174
  170SAPE  H20T19177   0.226   3.307   4.124
  170SAPE   C3319178   0.333   3.987   3.027
  170SAPE   H3X19179   0.282   4.070   2.973
  170SAPE   H3Y19180   0.442   4.005   3.012
  170SAPE   C3419181   0.288   3.984   3.175
  170SAPE   H4X19182   0.327   3.898   3.233
  170SAPE   H4Y19183   0.180   3.957   3.166
  170SAPE   C3519184   0.290   4.115   3.245
  170SAPE   H5X19185   0.223   4.189   3.196
  170SAPE   H5Y19186   0.391   4.160   3.254
  170SAPE   C3619187   0.225   4.102   3.382
  170SAPE   H6X19188   0.289   4.172   3.441
  170SAPE   H6Y19189   0.257   4.003   3.421
  170SAPE   C3719190   0.078   4.128   3.386
  170SAPE   H7X19191   0.024   4.046   3.335
  170SAPE   H7Y19192   0.048   4.214   3.322
  170SAPE   C3819193   0.035   4.158   3.524
  170SAPE   H8X19194   0.101   4.233   3.573
  170SAPE   H8Y19195   0.031   4.065   3.585
  170SAPE   C3919196   6.799   4.201   3.511
  170SAPE   H9X19197   6.749   4.137   3.435
  170SAPE   H9Y19198   6.774   4.304   3.479
  170SAPE  C31019199   6.712   4.179   3.644
  170SAPE  H10X19200   6.754   4.081   3.675
  170SAPE  H10Y19201   6.608   4.176   3.605
  170SAPE  C31119202   6.730   4.286   3.754
  170SAPE  H11X19203   6.665   4.275   3.843
  170SAPE  H11Y19204   6.703   4.380   3.701
  170SAPE  C31219205   6.869   4.297   3.813
  170SAPE  H12X19206   0.014   4.359   3.741
  170SAPE  H12Y19207   0.006   4.198   3.813
  170SAPE  C31319208   6.851   4.350   3.954
  170SAPE  H13X19209   6.784   4.287   4.017
  170SAPE  H13Y19210   6.792   4.442   3.936
  170SAPE  C31419211   0.066   4.393   4.029
  170SAPE  H14X19212   0.037   4.445   4.123
  170SAPE  H14Y19213   0.116   4.468   3.964
  170SAPE  C31519214   0.160   4.276   4.055
  170SAPE  H15X19215   0.160   4.214   3.964
  170SAPE  H15Y19216   0.116   4.214   4.136
  170SAPE  C31619217   0.293   4.324   4.109
  170SAPE  H16X19218   0.273   4.409   4.177
  170SAPE  H16Y19219   0.362   4.376   4.039
  170SAPE  C31719220   0.364   4.225   4.199
  170SAPE  H17X19221   0.379   4.138   4.132
  170SAPE  H17Y19222   0.301   4.192   4.284
  170SAPE  C31819223   0.498   4.283   4.254
  170SAPE  H18X19224   0.481   4.381   4.305
  170SAPE  H18Y19225   0.561   4.304   4.166
  170SAPE  H18Z19226   0.556   4.217   4.322
  171SAPE     N19227   0.449   2.812   2.087
  171SAPE   HN119228   0.371   2.865   2.044
  171SAPE   HN219229   0.531   2.844   2.031
  171SAPE   HN319230   0.449   2.711   2.064
  171SAPE   C1219231   0.471   2.833   2.237
  171SAPE  H12A19232   0.481   2.942   2.252
  171SAPE  H12B19233   0.571   2.792   2.263
  171SAPE   C1119234   0.361   2.768   2.321
  171SAPE  H11A19235   0.385   2.775   2.429
  171SAPE  H11B19236   0.384   2.660   2.308
  171SAPE     P19237   0.094   2.751   2.313
  171SAPE   O1319238   6.903   2.834   2.245
  171SAPE   O1419239   0.118   2.608   2.268
  171SAPE   O1219240   0.227   2.822   2.287
  171SAPE   O1119241   0.081   2.744   2.471
  171SAPE    C119242   0.071   2.865   2.544
  171SAPE    HA19243   0.159   2.928   2.520
  171SAPE    HB19244   6.894   2.917   2.505
  171SAPE    C219245   0.077   2.840   2.701
  171SAPE    HS19246   0.184   2.828   2.727
  171SAPE   O2119247   0.005   2.728   2.727
  171SAPE   C2119248   0.064   2.609   2.711
  171SAPE   O2219249   0.185   2.584   2.697
  171SAPE   C2219250   6.869   2.502   2.709
  171SAPE   H2R19251   6.779   2.534   2.767
  171SAPE   H2S19252   6.827   2.498   2.606
  171SAPE    C319253   0.026   2.969   2.780
  171SAPE    HX19254   6.830   2.985   2.764
  171SAPE    HY19255   0.064   3.059   2.728
  171SAPE   O3119256   0.083   2.970   2.912
  171SAPE   C3119257   0.005   2.916   3.000
  171SAPE   O3219258   6.818   2.853   2.980
  171SAPE   C3219259   0.059   2.958   3.136
  171SAPE   H2X19260   0.070   3.068   3.145
  171SAPE   H2Y19261   0.160   2.911   3.144
  171SAPE   C2319262   0.006   2.360   2.757
  171SAPE   H3R19263   0.040   2.377   2.861
  171SAPE   H3S19264   0.099   2.338   2.700
  171SAPE   C2419265   6.828   2.242   2.733
  171SAPE   H4R19266   6.888   2.148   2.737
  171SAPE   H4S19267   6.787   2.249   2.631
  171SAPE   C2519268   6.727   2.245   2.841
  171SAPE   H5R19269   6.634   2.301   2.824
  171SAPE   C2619270   6.737   2.190   2.961
  171SAPE   H6R19271   6.664   2.219   3.038
  171SAPE   C2719272   6.855   2.109   3.008
  171SAPE   H7R19273   0.028   2.168   3.047
  171SAPE   H7S19274   6.901   2.039   2.935
  171SAPE   C2819275   6.801   2.029   3.130
  171SAPE   H8R19276   6.696   2.002   3.114
  171SAPE   C2919277   6.869   1.988   3.240
  171SAPE   H9R19278   6.817   1.930   3.317
  171SAPE  C21019279   0.103   2.016   3.261
  171SAPE  H10R19280   0.116   2.040   3.369
  171SAPE  H10S19281   0.135   2.108   3.208
  171SAPE  C21119282   0.197   1.901   3.231
  171SAPE  H11R19283   0.188   1.850   3.134
  171SAPE  C21219284   0.291   1.850   3.309
  171SAPE  H12R19285   0.347   1.764   3.270
  171SAPE  C21319286   0.327   1.904   3.444
  171SAPE  H13R19287   0.255   1.868   3.521
  171SAPE  H13S19288   0.315   2.014   3.435
  171SAPE  C21419289   0.465   1.885   3.495
  171SAPE  H14R19290   0.543   1.866   3.420
  171SAPE  C21519291   0.514   1.860   3.620
  171SAPE  H15R19292   0.623   1.859   3.625
  171SAPE  C21619293   0.444   1.864   3.757
  171SAPE  H16R19294   0.398   1.763   3.771
  171SAPE  H16S19295   0.361   1.938   3.761
  171SAPE  C21719296   0.532   1.879   3.884
  171SAPE  H17R19297   0.468   1.902   3.971
  171SAPE  H17S19298   0.603   1.964   3.871
  171SAPE  C21819299   0.613   1.747   3.908
  171SAPE  H18R19300   0.695   1.718   3.839
  171SAPE  H18S19301   0.544   1.660   3.903
  171SAPE  C21919302   0.673   1.751   4.054
  171SAPE  H19R19303   0.597   1.774   4.132
  171SAPE  H19S19304   0.739   1.840   4.067
  171SAPE  C22019305   0.746   1.622   4.098
  171SAPE  H20R19306   0.668   1.543   4.089
  171SAPE  H20S19307   0.770   1.631   4.206
  171SAPE  H20T19308   0.835   1.609   4.033
  171SAPE   C3319309   6.877   2.899   3.245
  171SAPE   H3X19310   6.849   2.793   3.228
  171SAPE   H3Y19311   6.780   2.953   3.248
  171SAPE   C3419312   0.038   2.886   3.383
  171SAPE   H4X19313   0.017   2.969   3.453
  171SAPE   H4Y19314   0.147   2.877   3.365
  171SAPE   C3519315   0.008   2.755   3.456
  171SAPE   H5X19316   0.034   2.656   3.411
  171SAPE   H5Y19317   6.813   2.744   3.483
  171SAPE   C3619318   0.080   2.767   3.587
  171SAPE   H6X19319   0.050   2.859   3.642
  171SAPE   H6Y19320   0.191   2.763   3.584
  171SAPE   C3719321   0.040   2.660   3.688
  171SAPE   H7X19322   0.068   2.559   3.652
  171SAPE   H7Y19323   6.843   2.644   3.703
  171SAPE   C3819324   0.086   2.683   3.838
  171SAPE   H8X19325   0.043   2.776   3.879
  171SAPE   H8Y19326   0.197   2.679   3.833
  171SAPE   C3919327   0.037   2.566   3.926
  171SAPE   H9X19328   0.082   2.469   3.898
  171SAPE   H9Y19329   6.839   2.564   3.915
  171SAPE  C31019330   0.063   2.599   4.071
  171SAPE  H10X19331   0.027   2.510   4.128
  171SAPE  H10Y19332   6.903   2.675   4.108
  171SAPE  C31119333   0.200   2.639   4.113
  171SAPE  H11X19334   0.232   2.733   4.063
  171SAPE  H11Y19335   0.280   2.563   4.105
  171SAPE  C31219336   0.197   2.690   4.260
  171SAPE  H12X19337   0.131   2.778   4.280
  171SAPE  H12Y19338   0.300   2.731   4.273
  171SAPE  C31319339   0.168   2.589   4.375
  171SAPE  H13X19340   0.072   2.538   4.351
  171SAPE  H13Y19341   0.152   2.640   4.472
  171SAPE  C31419342   0.280   2.482   4.396
  171SAPE  H14X19343   0.289   2.425   4.302
  171SAPE  H14Y19344   0.239   2.410   4.470
  171SAPE  C31519345   0.408   2.528   4.445
  171SAPE  H15X19346   0.463   2.552   4.351
  171SAPE  H15Y19347   0.467   2.436   4.466
  171SAPE  C31619348   0.413   2.633   4.561
  171SAPE  H16X19349   0.372   2.597   4.657
  171SAPE  H16Y19350   0.332   2.705   4.533
  171SAPE  C31719351   0.544   2.698   4.584
  171SAPE  H17X19352   0.578   2.733   4.484
  171SAPE  H17Y19353   0.607   2.615   4.623
  171SAPE  C31819354   0.549   2.813   4.691
  171SAPE  H18X19355   0.541   2.912   4.642
  171SAPE  H18Y19356   0.646   2.804   4.744
  171SAPE  H18Z19357   0.468   2.804   4.766
  172SAPE     N19358   0.434   4.665   2.229
  172SAPE   HN119359   0.339   4.649   2.267
  172SAPE   HN219360   0.425   4.697   2.130
  172SAPE   HN319361   0.490   4.578   2.242
  172SAPE   C1219362   0.511   4.766   2.312
  172SAPE  H12A19363   0.567   4.823   2.235
  172SAPE  H12B19364   0.596   4.718   2.366
  172SAPE   C1119365   0.429   4.858   2.412
  172SAPE  H11A19366   0.506   4.918   2.465
  172SAPE  H11B19367   0.398   4.795   2.498
  172SAPE     P19368   0.190   4.967   2.435
  172SAPE   O1319369   0.113   5.047   2.342
  172SAPE   O1419370   0.132   4.835   2.476
  172SAPE   O1219371   0.328   4.938   2.360
  172SAPE   O1119372   0.231   5.053   2.564
  172SAPE    C119373   0.333   5.156   2.542
  172SAPE    HA19374   0.427   5.111   2.504
  172SAPE    HB19375   0.303   5.232   2.467
  172SAPE    C219376   0.373   5.224   2.671
  172SAPE    HS19377   0.414   5.145   2.737
  172SAPE   O2119378   0.259   5.269   2.746
  172SAPE   C2119379   0.165   5.341   2.693
  172SAPE   O2219380   0.158   5.390   2.586
  172SAPE   C2219381   0.068   5.376   2.812
  172SAPE   H2R19382   0.093   5.307   2.895
  172SAPE   H2S19383   0.090   5.481   2.838
  172SAPE    C319384   0.488   5.331   2.649
  172SAPE    HX19385   0.454   5.403   2.571
  172SAPE    HY19386   0.580   5.275   2.619
  172SAPE   O3119387   0.520   5.401   2.775
  172SAPE   C3119388   0.453   5.514   2.799
  172SAPE   O3219389   0.371   5.560   2.724
  172SAPE   C3219390   0.499   5.583   2.924
  172SAPE   H2X19391   0.434   5.671   2.944
  172SAPE   H2Y19392   0.606   5.609   2.912
  172SAPE   C2319393   6.829   5.356   2.777
  172SAPE   H3R19394   6.802   5.251   2.755
  172SAPE   H3S19395   6.808   5.409   2.682
  172SAPE   C2419396   6.735   5.418   2.886
  172SAPE   H4R19397   6.757   5.360   2.978
  172SAPE   H4S19398   6.632   5.386   2.860
  172SAPE   C2519399   6.735   5.567   2.911
  172SAPE   H5R19400   6.718   5.632   2.824
  172SAPE   C2619401   6.766   5.633   3.025
  172SAPE   H6R19402   6.755   5.742   3.027
  172SAPE   C2719403   6.809   5.583   3.155
  172SAPE   H7R19404   6.761   5.486   3.179
  172SAPE   H7S19405   6.775   5.662   3.226
  172SAPE   C2819406   0.051   5.581   3.173
  172SAPE   H8R19407   0.101   5.547   3.081
  172SAPE   C2919408   0.124   5.619   3.275
  172SAPE   H9R19409   0.233   5.608   3.260
  172SAPE  C21019410   0.084   5.660   3.414
  172SAPE  H10R19411   6.887   5.643   3.421
  172SAPE  H10S19412   0.102   5.769   3.430
  172SAPE  C21119413   0.160   5.595   3.526
  172SAPE  H11R19414   0.258   5.551   3.505
  172SAPE  C21219415   0.133   5.616   3.660
  172SAPE  H12R19416   0.211   5.598   3.736
  172SAPE  C21319417   0.028   5.712   3.704
  172SAPE  H13R19418   6.843   5.688   3.655
  172SAPE  H13S19419   0.052   5.814   3.666
  172SAPE  C21419420   0.038   5.722   3.856
  172SAPE  H14R19421   0.134   5.694   3.901
  172SAPE  C21519422   6.850   5.744   3.936
  172SAPE  H15R19423   6.867   5.756   4.044
  172SAPE  C21619424   6.712   5.787   3.891
  172SAPE  H16R19425   6.650   5.806   3.981
  172SAPE  H16S19426   6.660   5.697   3.854
  172SAPE  C21719427   6.686   5.899   3.785
  172SAPE  H17R19428   6.714   5.852   3.688
  172SAPE  H17S19429   6.745   5.991   3.804
  172SAPE  C21819430   6.543   5.938   3.773
  172SAPE  H18R19431   6.515   6.001   3.860
  172SAPE  H18S19432   6.480   5.847   3.767
  172SAPE  C21919433   6.525   6.004   3.641
  172SAPE  H19R19434   6.538   5.935   3.555
  172SAPE  H19S19435   6.596   6.089   3.629
  172SAPE  C22019436   6.381   6.049   3.613
  172SAPE  H20R19437   6.382   6.097   3.513
  172SAPE  H20S19438   6.353   6.121   3.692
  172SAPE  H20T19439   6.312   5.961   3.611
  172SAPE   C3319440   0.470   5.486   3.037
  172SAPE   H3X19441   0.527   5.393   3.016
  172SAPE   H3Y19442   0.360   5.473   3.048
  172SAPE   C3419443   0.530   5.551   3.163
  172SAPE   H4X19444   0.479   5.650   3.162
  172SAPE   H4Y19445   0.639   5.556   3.145
  172SAPE   C3519446   0.497   5.472   3.297
  172SAPE   H5X19447   0.528   5.366   3.287
  172SAPE   H5Y19448   0.387   5.475   3.313
  172SAPE   C3619449   0.568   5.507   3.429
  172SAPE   H6X19450   0.546   5.612   3.459
  172SAPE   H6Y19451   0.677   5.487   3.414
  172SAPE   C3719452   0.535   5.412   3.545
  172SAPE   H7X19453   0.581   5.316   3.515
  172SAPE   H7Y19454   0.425   5.400   3.561
  172SAPE   C3819455   0.599   5.460   3.684
  172SAPE   H8X19456   0.550   5.549   3.728
  172SAPE   H8Y19457   0.706   5.490   3.675
  172SAPE   C3919458   0.590   5.345   3.790
  172SAPE   H9X19459   0.666   5.271   3.758
  172SAPE   H9Y19460   0.492   5.295   3.774
  172SAPE  C31019461   0.592   5.386   3.934
  172SAPE  H10X19462   0.562   5.313   4.012
  172SAPE  H10Y19463   0.508   5.458   3.936
  172SAPE  C31119464   0.727   5.438   3.978
  172SAPE  H11X19465   0.758   5.521   3.910
  172SAPE  H11Y19466   0.814   5.371   3.965
  172SAPE  C31219467   0.722   5.501   4.119
  172SAPE  H12X19468   0.722   5.424   4.199
  172SAPE  H12Y19469   0.624   5.555   4.119
  172SAPE  C31319470   0.827   5.612   4.150
  172SAPE  H13X19471   0.788   5.679   4.229
  172SAPE  H13Y19472   0.848   5.673   4.059
  172SAPE  C31419473   0.959   5.550   4.196
  172SAPE  H14X19474   0.994   5.465   4.133
  172SAPE  H14Y19475   0.942   5.497   4.292
  172SAPE  C31519476   1.075   5.650   4.217
  172SAPE  H15X19477   1.083   5.722   4.133
  172SAPE  H15Y19478   1.166   5.586   4.223
  172SAPE  C31619479   1.045   5.737   4.340
  172SAPE  H16X19480   1.021   5.677   4.430
  172SAPE  H16Y19481   0.966   5.811   4.314
  172SAPE  C31719482   1.173   5.808   4.377
  172SAPE  H17X19483   1.231   5.834   4.286
  172SAPE  H17Y19484   1.238   5.730   4.422
  172SAPE  C31819485   1.168   5.925   4.474
  172SAPE  H18X19486   1.112   6.010   4.430
  172SAPE  H18Y19487   1.261   5.968   4.518
  172SAPE  H18Z19488   1.095   5.901   4.554
  173SLPC     N19489   6.172   6.895   6.791
  173SLPC   C1319490   6.213   0.078   6.897
  173SLPC  H13A19491   6.161   0.060   6.990
  173SLPC  H13B19492   6.319   0.078   6.918
  173SLPC  H13C19493   6.188   0.177   6.861
  173SLPC   C1419494   6.221   6.762   6.851
  173SLPC  H14A19495   6.159   6.731   6.934
  173SLPC  H14B19496   6.220   6.687   6.773
  173SLPC  H14C19497   6.328   6.772   6.866
  173SLPC   C1519498   6.238   0.008   6.668
  173SLPC  H15A19499   6.198   0.090   6.610
  173SLPC  H15B19500   6.341   0.034   6.689
  173SLPC  H15C19501   6.239   6.830   6.608
  173SLPC   C1219502   6.022   6.886   6.775
  173SLPC  H12A19503   5.976   6.899   6.872
  173SLPC  H12B19504   5.994   6.789   6.736
  173SLPC   C1119505   5.950   0.079   6.682
  173SLPC  H11A19506   5.981   0.181   6.715
  173SLPC  H11B19507   5.839   0.079   6.692
  173SLPC     P19508   5.933   0.139   6.436
  173SLPC   O1319509   5.970   0.066   6.313
  173SLPC   O1419510   5.786   0.155   6.465
  173SLPC   O1219511   5.991   0.052   6.552
  173SLPC   O1119512   6.007   0.273   6.450
  173SLPC    C119513   6.144   0.292   6.402
  173SLPC    HA19514   6.209   0.325   6.487
  173SLPC    HB19515   6.187   0.196   6.366
  173SLPC    C219516   6.154   0.405   6.290
  173SLPC    HS19517   6.089   0.490   6.321
  173SLPC   O2119518   6.102   0.343   6.174
  173SLPC   C2119519   6.000   0.400   6.115
  173SLPC   O2219520   5.961   0.506   6.152
  173SLPC   C2219521   5.934   0.302   6.001
  173SLPC   H2R19522   5.851   0.264   6.064
  173SLPC   H2S19523   5.904   0.359   5.910
  173SLPC    C319524   6.302   0.449   6.250
  173SLPC    HX19525   6.344   0.364   6.191
  173SLPC    HY19526   6.365   0.451   6.341
  173SLPC   O3119527   6.307   0.563   6.164
  173SLPC   C3119528   6.286   0.677   6.223
  173SLPC   O3219529   6.258   0.697   6.340
  173SLPC   C3219530   6.335   0.785   6.123
  173SLPC   H2X19531   6.350   0.738   6.024
  173SLPC   H2Y19532   6.426   0.824   6.173
  173SLPC   C2319533   6.031   0.188   5.970
  173SLPC   H3R19534   6.073   0.131   6.056
  173SLPC   H3S19535   6.123   0.229   5.924
  173SLPC   C2419536   5.955   0.089   5.880
  173SLPC   H4R19537   5.910   0.133   5.788
  173SLPC   H4S19538   5.867   0.049   5.935
  173SLPC   C2519539   6.025   6.879   5.838
  173SLPC   H5R19540   5.964   6.821   5.767
  173SLPC   H5S19541   6.042   6.814   5.926
  173SLPC   C2619542   6.160   6.900   5.761
  173SLPC   H6R19543   6.191   6.798   5.730
  173SLPC   H6S19544   6.232   0.023   5.837
  173SLPC   C2719545   6.153   0.065   5.630
  173SLPC   H7R19546   6.168   0.168   5.669
  173SLPC   H7S19547   6.056   0.055   5.576
  173SLPC   C2819548   6.270   0.018   5.540
  173SLPC   H8R19549   6.366   0.024   5.595
  173SLPC   H8S19550   6.275   0.103   5.468
  173SLPC   C2919551   6.267   6.791   5.468
  173SLPC   H9R19552   6.269   6.705   5.537
  173SLPC  C21019553   6.237   6.778   5.336
  173SLPC  H10R19554   6.229   6.679   5.289
  173SLPC  C21119555   6.212   6.893   5.239
  173SLPC  H11R19556   6.218   6.850   5.137
  173SLPC  H11S19557   6.296   0.051   5.258
  173SLPC  C21219558   6.078   0.046   5.260
  173SLPC  H12R19559   6.052   0.093   5.356
  173SLPC  C21319560   5.993   0.068   5.155
  173SLPC  H13R19561   5.898   0.100   5.199
  173SLPC  C21419562   5.997   0.036   5.009
  173SLPC  H14R19563   6.101   0.064   4.982
  173SLPC  H14S19564   5.935   0.103   4.945
  173SLPC  C21519565   5.973   6.797   4.981
  173SLPC  H15R19566   5.865   6.772   4.980
  173SLPC  H15S19567   6.017   6.731   5.058
  173SLPC  C21619568   6.019   6.767   4.840
  173SLPC  H16R19569   5.976   6.664   4.829
  173SLPC  H16S19570   6.128   6.754   4.826
  173SLPC  C21719571   5.964   6.856   4.720
  173SLPC  H17R19572   5.998   6.826   4.619
  173SLPC  H17S19573   6.001   0.047   4.736
  173SLPC  C21819574   5.809   6.865   4.713
  173SLPC  H18R19575   5.770   6.761   4.717
  173SLPC  H18S19576   5.774   0.012   4.626
  173SLPC  H18T19577   5.778   0.005   4.807
  173SLPC   C3319578   6.241   0.910   6.132
  173SLPC   H3X19579   6.200   0.933   6.232
  173SLPC   H3Y19580   6.150   0.894   6.071
  173SLPC   C3419581   6.314   1.039   6.086
  173SLPC   H4X19582   6.368   1.075   6.176
  173SLPC   H4Y19583   6.238   1.118   6.066
  173SLPC   C3519584   6.410   1.021   5.971
  173SLPC   H5X19585   6.495   0.951   5.986
  173SLPC   H5Y19586   6.458   1.120   5.953
  173SLPC   C3619587   6.340   0.971   5.843
  173SLPC   H6X19588   6.260   1.047   5.824
  173SLPC   H6Y19589   6.287   0.873   5.847
  173SLPC   C3719590   6.410   0.965   5.707
  173SLPC   H7X19591   6.515   0.933   5.721
  173SLPC   H7Y19592   6.428   1.068   5.670
  173SLPC   C3819593   6.346   0.880   5.597
  173SLPC   H8X19594   6.240   0.909   5.578
  173SLPC   H8Y19595   6.338   0.776   5.633
  173SLPC   C3919596   6.423   0.876   5.458
  173SLPC   H9X19597   6.533   0.862   5.470
  173SLPC   H9Y19598   6.400   0.972   5.407
  173SLPC  C31019599   6.377   0.756   5.374
  173SLPC  H10X19600   6.373   0.667   5.441
  173SLPC  H10Y19601   6.460   0.742   5.302
  173SLPC  C31119602   6.241   0.791   5.323
  173SLPC  H11X19603   6.244   0.896   5.286
  173SLPC  H11Y19604   6.157   0.771   5.393
  173SLPC  C31219605   6.204   0.715   5.197
  173SLPC  H12X19606   6.149   0.622   5.224
  173SLPC  H12Y19607   6.302   0.674   5.163
  173SLPC  C31319608   6.132   0.782   5.084
  173SLPC  H13X19609   6.035   0.825   5.115
  173SLPC  H13Y19610   6.126   0.710   5.000
  173SLPC  C31419611   6.214   0.899   5.029
  173SLPC  H14X19612   6.319   0.866   5.015
  173SLPC  H14Y19613   6.225   0.980   5.104
  173SLPC  C31519614   6.159   0.958   4.902
  173SLPC  H15X19615   6.224   1.045   4.882
  173SLPC  H15Y19616   6.059   1.003   4.924
  173SLPC  C31619617   6.174   0.868   4.776
  173SLPC  H16X19618   6.148   0.930   4.687
  173SLPC  H16Y19619   6.096   0.789   4.783
  173SLPC  C31719620   6.313   0.799   4.755
  173SLPC  H17X19621   6.325   0.730   4.841
  173SLPC  H17Y19622   6.384   0.882   4.778
  173SLPC  C31819623   6.328   0.716   4.634
  173SLPC  H18X19624   6.428   0.672   4.613
  173SLPC  H18Y19625   6.315   0.783   4.546
  173SLPC  H18Z19626   6.261   0.628   4.628
  174SLPC     N19627   2.709   2.286   6.758
  174SLPC   C1319628   2.652   2.167   6.683
  174SLPC  H13A19629   2.547   2.169   6.658
  174SLPC  H13B19630   2.697   2.165   6.585
  174SLPC  H13C19631   2.679   2.076   6.735
  174SLPC   C1419632   2.680   2.278   6.908
  174SLPC  H14A19633   2.573   2.272   6.923
  174SLPC  H14B19634   2.724   2.194   6.960
  174SLPC  H14C19635   2.707   2.367   6.962
  174SLPC   C1519636   2.646   2.407   6.708
  174SLPC  H15A19637   2.692   2.502   6.728
  174SLPC  H15B19638   2.626   2.394   6.603
  174SLPC  H15C19639   2.555   2.420   6.766
  174SLPC   C1219640   2.858   2.290   6.740
  174SLPC  H12A19641   2.898   2.207   6.796
  174SLPC  H12B19642   2.896   2.375   6.795
  174SLPC   C1119643   2.917   2.278   6.597
  174SLPC  H11A19644   3.023   2.309   6.592
  174SLPC  H11B19645   2.864   2.356   6.540
  174SLPC     P19646   2.986   2.038   6.552
  174SLPC   O1319647   3.027   2.037   6.694
  174SLPC   O1419648   2.922   1.916   6.506
  174SLPC   O1219649   2.890   2.155   6.530
  174SLPC   O1119650   3.117   2.075   6.477
  174SLPC    C119651   3.113   2.110   6.337
  174SLPC    HA19652   3.128   2.015   6.282
  174SLPC    HB19653   3.021   2.163   6.304
  174SLPC    C219654   3.237   2.203   6.298
  174SLPC    HS19655   3.204   2.304   6.332
  174SLPC   O2119656   3.264   2.194   6.158
  174SLPC   C2119657   3.194   2.279   6.083
  174SLPC   O2219658   3.099   2.352   6.117
  174SLPC   C2219659   3.231   2.259   5.936
  174SLPC   H2R19660   3.241   2.362   5.894
  174SLPC   H2S19661   3.334   2.222   5.921
  174SLPC    C319662   3.359   2.161   6.382
  174SLPC    HX19663   3.362   2.053   6.358
  174SLPC    HY19664   3.335   2.176   6.490
  174SLPC   O3119665   3.476   2.221   6.335
  174SLPC   C3119666   3.493   2.348   6.378
  174SLPC   O3219667   3.416   2.403   6.455
  174SLPC   C3219668   3.619   2.403   6.318
  174SLPC   H2X19669   3.706   2.345   6.356
  174SLPC   H2Y19670   3.632   2.506   6.357
  174SLPC   C2319671   3.123   2.172   5.862
  174SLPC   H3R19672   3.028   2.227   5.877
  174SLPC   H3S19673   3.107   2.070   5.905
  174SLPC   C2419674   3.177   2.153   5.720
  174SLPC   H4R19675   3.135   2.057   5.683
  174SLPC   H4S19676   3.288   2.156   5.715
  174SLPC   C2519677   3.129   2.264   5.617
  174SLPC   H5R19678   3.162   2.365   5.648
  174SLPC   H5S19679   3.019   2.275   5.616
  174SLPC   C2619680   3.186   2.232   5.476
  174SLPC   H6R19681   3.291   2.203   5.497
  174SLPC   H6S19682   3.171   2.315   5.403
  174SLPC   C2719683   3.107   2.129   5.387
  174SLPC   H7R19684   2.999   2.151   5.404
  174SLPC   H7S19685   3.134   2.026   5.419
  174SLPC   C2819686   3.121   2.155   5.229
  174SLPC   H8R19687   3.101   2.264   5.222
  174SLPC   H8S19688   3.052   2.101   5.161
  174SLPC   C2919689   3.263   2.129   5.185
  174SLPC   H9R19690   3.334   2.150   5.267
  174SLPC  C21019691   3.315   2.113   5.062
  174SLPC  H10R19692   3.424   2.097   5.055
  174SLPC  C21119693   3.234   2.109   4.934
  174SLPC  H11R19694   3.167   2.021   4.925
  174SLPC  H11S19695   3.306   2.104   4.850
  174SLPC  C21219696   3.148   2.233   4.915
  174SLPC  H12R19697   3.071   2.227   4.992
  174SLPC  C21319698   3.150   2.319   4.810
  174SLPC  H13R19699   3.079   2.403   4.819
  174SLPC  C21419700   3.236   2.326   4.685
  174SLPC  H14R19701   3.323   2.257   4.686
  174SLPC  H14S19702   3.272   2.430   4.666
  174SLPC  C21519703   3.150   2.302   4.562
  174SLPC  H15R19704   3.109   2.199   4.554
  174SLPC  H15S19705   3.218   2.314   4.475
  174SLPC  C21619706   3.035   2.396   4.541
  174SLPC  H16R19707   3.069   2.502   4.539
  174SLPC  H16S19708   2.958   2.376   4.618
  174SLPC  C21719709   2.965   2.380   4.401
  174SLPC  H17R19710   2.958   2.273   4.371
  174SLPC  H17S19711   3.032   2.425   4.325
  174SLPC  C21819712   2.833   2.452   4.384
  174SLPC  H18R19713   2.762   2.414   4.461
  174SLPC  H18S19714   2.791   2.445   4.281
  174SLPC  H18T19715   2.851   2.558   4.413
  174SLPC   C3319716   3.616   2.390   6.165
  174SLPC   H3X19717   3.603   2.289   6.120
  174SLPC   H3Y19718   3.708   2.433   6.121
  174SLPC   C3419719   3.517   2.491   6.103
  174SLPC   H4X19720   3.515   2.573   6.178
  174SLPC   H4Y19721   3.417   2.442   6.096
  174SLPC   C3519722   3.547   2.548   5.969
  174SLPC   H5X19723   3.635   2.615   5.971
  174SLPC   H5Y19724   3.466   2.621   5.945
  174SLPC   C3619725   3.558   2.444   5.855
  174SLPC   H6X19726   3.470   2.377   5.860
  174SLPC   H6Y19727   3.655   2.392   5.871
  174SLPC   C3719728   3.547   2.512   5.720
  174SLPC   H7X19729   3.639   2.574   5.720
  174SLPC   H7Y19730   3.455   2.573   5.716
  174SLPC   C3819731   3.557   2.412   5.605
  174SLPC   H8X19732   3.472   2.341   5.591
  174SLPC   H8Y19733   3.651   2.353   5.617
  174SLPC   C3919734   3.583   2.484   5.470
  174SLPC   H9X19735   3.667   2.557   5.477
  174SLPC   H9Y19736   3.500   2.554   5.448
  174SLPC  C31019737   3.597   2.397   5.342
  174SLPC  H10X19738   3.499   2.349   5.323
  174SLPC  H10Y19739   3.667   2.312   5.360
  174SLPC  C31119740   3.650   2.468   5.208
  174SLPC  H11X19741   3.754   2.506   5.223
  174SLPC  H11Y19742   3.589   2.560   5.202
  174SLPC  C31219743   3.622   2.388   5.076
  174SLPC  H12X19744   3.526   2.333   5.086
  174SLPC  H12Y19745   3.696   2.309   5.053
  174SLPC  C31319746   3.603   2.483   4.950
  174SLPC  H13X19747   3.584   2.587   4.985
  174SLPC  H13Y19748   3.514   2.444   4.895
  174SLPC  C31419749   3.724   2.469   4.855
  174SLPC  H14X19750   3.735   2.363   4.824
  174SLPC  H14Y19751   3.809   2.504   4.917
  174SLPC  C31519752   3.708   2.561   4.735
  174SLPC  H15X19753   3.680   2.665   4.764
  174SLPC  H15Y19754   3.622   2.521   4.678
  174SLPC  C31619755   3.824   2.540   4.636
  174SLPC  H16X19756   3.921   2.559   4.687
  174SLPC  H16Y19757   3.825   2.611   4.550
  174SLPC  C31719758   3.813   2.401   4.569
  174SLPC  H17X19759   3.707   2.370   4.562
  174SLPC  H17Y19760   3.865   2.332   4.639
  174SLPC  C31819761   3.903   2.380   4.449
  174SLPC  H18X19762   4.000   2.434   4.446
  174SLPC  H18Y19763   3.849   2.416   4.359
  174SLPC  H18Z19764   3.920   2.272   4.431
  175SLPC     N19765   6.294   3.405   6.840
  175SLPC   C1319766   6.403   3.507   6.814
  175SLPC  H13A19767   6.473   3.509   6.896
  175SLPC  H13B19768   6.455   3.488   6.721
  175SLPC  H13C19769   6.361   3.606   6.810
  175SLPC   C1419770   6.338   3.317   6.956
  175SLPC  H14A19771   6.356   3.364   7.052
  175SLPC  H14B19772   6.253   3.257   6.987
  175SLPC  H14C19773   6.428   3.257   6.944
  175SLPC   C1519774   6.280   3.320   6.717
  175SLPC  H15A19775   6.285   3.383   6.629
  175SLPC  H15B19776   6.352   3.240   6.728
  175SLPC  H15C19777   6.178   3.286   6.723
  175SLPC   C1219778   6.162   3.475   6.878
  175SLPC  H12A19779   6.125   3.534   6.796
  175SLPC  H12B19780   6.165   3.539   6.965
  175SLPC   C1119781   6.046   3.375   6.891
  175SLPC  H11A19782   5.964   3.426   6.945
  175SLPC  H11B19783   6.073   3.289   6.956
  175SLPC     P19784   5.921   3.434   6.671
  175SLPC   O1319785   5.781   3.453   6.714
  175SLPC   O1419786   6.001   3.559   6.656
  175SLPC   O1219787   6.001   3.335   6.767
  175SLPC   O1119788   5.920   3.376   6.526
  175SLPC    C119789   5.896   3.237   6.496
  175SLPC    HA19790   5.984   3.173   6.518
  175SLPC    HB19791   5.809   3.195   6.552
  175SLPC    C219792   5.873   3.224   6.343
  175SLPC    HS19793   5.837   3.120   6.329
  175SLPC   O2119794   5.997   3.258   6.275
  175SLPC   C2119795   6.031   3.169   6.189
  175SLPC   O2219796   5.989   3.052   6.183
  175SLPC   C2219797   6.141   3.225   6.095
  175SLPC   H2R19798   6.110   3.326   6.061
  175SLPC   H2S19799   6.240   3.230   6.147
  175SLPC    C319800   5.760   3.316   6.301
  175SLPC    HX19801   5.783   3.420   6.334
  175SLPC    HY19802   5.669   3.284   6.356
  175SLPC   O3119803   5.744   3.302   6.153
  175SLPC   C3119804   5.649   3.381   6.102
  175SLPC   O3219805   5.578   3.460   6.158
  175SLPC   C3219806   5.640   3.352   5.949
  175SLPC   H2X19807   5.596   3.432   5.887
  175SLPC   H2Y19808   5.572   3.265   5.931
  175SLPC   C2319809   6.151   3.147   5.966
  175SLPC   H3R19810   6.049   3.113   5.937
  175SLPC   H3S19811   6.202   3.056   6.006
  175SLPC   C2419812   6.233   3.212   5.859
  175SLPC   H4R19813   6.332   3.238   5.903
  175SLPC   H4S19814   6.201   3.315   5.831
  175SLPC   C2519815   6.252   3.125   5.732
  175SLPC   H5R19816   6.151   3.118   5.685
  175SLPC   H5S19817   6.285   3.021   5.752
  175SLPC   C2619818   6.337   3.185   5.614
  175SLPC   H6R19819   6.445   3.182   5.643
  175SLPC   H6S19820   6.319   3.291   5.585
  175SLPC   C2719821   6.322   3.095   5.492
  175SLPC   H7R19822   6.220   3.073   5.454
  175SLPC   H7S19823   6.376   3.001   5.517
  175SLPC   C2819824   6.405   3.154   5.368
  175SLPC   H8R19825   6.414   3.057   5.314
  175SLPC   H8S19826   6.504   3.182   5.409
  175SLPC   C2919827   6.324   3.259   5.303
  175SLPC   H9R19828   6.246   3.305   5.366
  175SLPC  C21019829   6.333   3.277   5.171
  175SLPC  H10R19830   6.277   3.360   5.124
  175SLPC  C21119831   6.415   3.204   5.068
  175SLPC  H11R19832   6.343   3.124   5.038
  175SLPC  H11S19833   6.506   3.161   5.115
  175SLPC  C21219834   6.470   3.282   4.952
  175SLPC  H12R19835   6.523   3.372   4.988
  175SLPC  C21319836   6.460   3.257   4.816
  175SLPC  H13R19837   6.519   3.322   4.750
  175SLPC  C21419838   6.382   3.148   4.750
  175SLPC  H14R19839   6.362   3.063   4.819
  175SLPC  H14S19840   6.448   3.113   4.668
  175SLPC  C21519841   6.241   3.184   4.701
  175SLPC  H15R19842   6.254   3.267   4.629
  175SLPC  H15S19843   6.185   3.218   4.790
  175SLPC  C21619844   6.171   3.065   4.639
  175SLPC  H16R19845   6.150   2.987   4.716
  175SLPC  H16S19846   6.234   3.027   4.555
  175SLPC  C21719847   6.037   3.103   4.564
  175SLPC  H17R19848   6.040   3.203   4.516
  175SLPC  H17S19849   5.953   3.108   4.636
  175SLPC  C21819850   5.987   2.987   4.468
  175SLPC  H18R19851   5.968   2.893   4.525
  175SLPC  H18S19852   6.060   2.972   4.386
  175SLPC  H18T19853   5.896   3.017   4.411
  175SLPC   C3319854   5.773   3.306   5.885
  175SLPC   H3X19855   5.796   3.203   5.921
  175SLPC   H3Y19856   5.856   3.378   5.905
  175SLPC   C3419857   5.771   3.315   5.723
  175SLPC   H4X19858   5.787   3.421   5.694
  175SLPC   H4Y19859   5.680   3.269   5.679
  175SLPC   C3519860   5.898   3.247   5.661
  175SLPC   H5X19861   5.900   3.146   5.708
  175SLPC   H5Y19862   5.985   3.308   5.693
  175SLPC   C3619863   5.907   3.227   5.513
  175SLPC   H6X19864   5.808   3.191   5.478
  175SLPC   H6Y19865   5.990   3.157   5.490
  175SLPC   C3719866   5.934   3.354   5.435
  175SLPC   H7X19867   6.034   3.397   5.455
  175SLPC   H7Y19868   5.866   3.436   5.466
  175SLPC   C3819869   5.923   3.328   5.279
  175SLPC   H8X19870   6.021   3.295   5.238
  175SLPC   H8Y19871   5.899   3.425   5.230
  175SLPC   C3919872   5.807   3.234   5.234
  175SLPC   H9X19873   5.714   3.257   5.290
  175SLPC   H9Y19874   5.819   3.126   5.258
  175SLPC  C31019875   5.759   3.254   5.083
  175SLPC  H10X19876   5.689   3.340   5.088
  175SLPC  H10Y19877   5.694   3.172   5.045
  175SLPC  C31119878   5.868   3.278   4.989
  175SLPC  H11X19879   5.934   3.189   4.991
  175SLPC  H11Y19880   5.922   3.370   5.020
  175SLPC  C31219881   5.837   3.300   4.839
  175SLPC  H12X19882   5.774   3.212   4.812
  175SLPC  H12Y19883   5.931   3.299   4.781
  175SLPC  C31319884   5.751   3.427   4.810
  175SLPC  H13X19885   5.810   3.515   4.843
  175SLPC  H13Y19886   5.657   3.422   4.870
  175SLPC  C31419887   5.724   3.467   4.664
  175SLPC  H14X19888   5.641   3.541   4.664
  175SLPC  H14Y19889   5.687   3.391   4.591
  175SLPC  C31519890   5.854   3.535   4.599
  175SLPC  H15X19891   5.938   3.463   4.613
  175SLPC  H15Y19892   5.864   3.627   4.660
  175SLPC  C31619893   5.847   3.576   4.450
  175SLPC  H16X19894   5.927   3.649   4.424
  175SLPC  H16Y19895   5.748   3.625   4.438
  175SLPC  C31719896   5.868   3.468   4.349
  175SLPC  H17X19897   5.800   3.479   4.262
  175SLPC  H17Y19898   5.851   3.369   4.396
  175SLPC  C31819899   6.006   3.456   4.288
  175SLPC  H18X19900   6.017   3.374   4.215
  175SLPC  H18Y19901   6.080   3.443   4.370
  175SLPC  H18Z19902   6.049   3.549   4.246
  176SLPC     N19903   5.507   1.758   6.750
  176SLPC   C1319904   5.354   1.768   6.749
  176SLPC  H13A19905   5.320   1.839   6.823
  176SLPC  H13B19906   5.324   1.812   6.655
  176SLPC  H13C19907   5.302   1.675   6.762
  176SLPC   C1419908   5.541   1.677   6.872
  176SLPC  H14A19909   5.512   1.723   6.965
  176SLPC  H14B19910   5.487   1.585   6.856
  176SLPC  H14C19911   5.648   1.659   6.874
  176SLPC   C1519912   5.569   1.897   6.752
  176SLPC  H15A19913   5.529   1.955   6.671
  176SLPC  H15B19914   5.543   1.950   6.842
  176SLPC  H15C19915   5.676   1.902   6.736
  176SLPC   C1219916   5.544   1.684   6.616
  176SLPC  H12A19917   5.504   1.737   6.531
  176SLPC  H12B19918   5.494   1.590   6.601
  176SLPC   C1119919   5.696   1.661   6.591
  176SLPC  H11A19920   5.755   1.754   6.605
  176SLPC  H11B19921   5.710   1.641   6.482
  176SLPC     P19922   5.711   1.403   6.615
  176SLPC   O1319923   5.797   1.306   6.688
  176SLPC   O1419924   5.566   1.382   6.628
  176SLPC   O1219925   5.755   1.550   6.660
  176SLPC   O1119926   5.741   1.395   6.460
  176SLPC    C119927   5.879   1.425   6.427
  176SLPC    HA19928   5.895   1.532   6.454
  176SLPC    HB19929   5.948   1.360   6.484
  176SLPC    C219930   5.912   1.398   6.281
  176SLPC    HS19931   6.002   1.456   6.252
  176SLPC   O2119932   5.811   1.435   6.187
  176SLPC   C2119933   5.791   1.569   6.171
  176SLPC   O2219934   5.866   1.655   6.219
  176SLPC   C2219935   5.670   1.597   6.090
  176SLPC   H2R19936   5.576   1.557   6.135
  176SLPC   H2S19937   5.665   1.706   6.067
  176SLPC    C319938   5.955   1.250   6.254
  176SLPC    HX19939   5.878   1.179   6.291
  176SLPC    HY19940   6.046   1.224   6.313
  176SLPC   O3119941   5.995   1.237   6.117
  176SLPC   C3119942   5.899   1.201   6.034
  176SLPC   O3219943   5.784   1.168   6.064
  176SLPC   C3219944   5.953   1.199   5.884
  176SLPC   H2X19945   6.061   1.174   5.891
  176SLPC   H2Y19946   5.930   1.300   5.843
  176SLPC   C2319947   5.674   1.529   5.950
  176SLPC   H3R19948   5.568   1.530   5.917
  176SLPC   H3S19949   5.712   1.425   5.951
  176SLPC   C2419950   5.768   1.609   5.862
  176SLPC   H4R19951   5.875   1.595   5.887
  176SLPC   H4S19952   5.747   1.718   5.865
  176SLPC   C2519953   5.745   1.555   5.720
  176SLPC   H5R19954   5.641   1.558   5.680
  176SLPC   H5S19955   5.768   1.446   5.723
  176SLPC   C2619956   5.843   1.613   5.613
  176SLPC   H6R19957   5.940   1.602   5.666
  176SLPC   H6S19958   5.826   1.722   5.607
  176SLPC   C2719959   5.842   1.545   5.479
  176SLPC   H7R19960   5.749   1.567   5.422
  176SLPC   H7S19961   5.829   1.438   5.506
  176SLPC   C2819962   5.962   1.578   5.386
  176SLPC   H8R19963   5.964   1.493   5.315
  176SLPC   H8S19964   6.059   1.558   5.438
  176SLPC   C2919965   5.960   1.721   5.330
  176SLPC   H9R19966   5.993   1.789   5.409
  176SLPC  C21019967   5.934   1.769   5.211
  176SLPC  H10R19968   5.933   1.878   5.197
  176SLPC  C21119969   5.886   1.681   5.097
  176SLPC  H11R19970   5.778   1.710   5.100
  176SLPC  H11S19971   5.904   1.572   5.108
  176SLPC  C21219972   5.956   1.729   4.973
  176SLPC  H12R19973   6.065   1.711   4.967
  176SLPC  C21319974   5.900   1.789   4.864
  176SLPC  H13R19975   5.969   1.816   4.783
  176SLPC  C21419976   5.751   1.817   4.832
  176SLPC  H14R19977   5.731   1.925   4.816
  176SLPC  H14S19978   5.683   1.781   4.913
  176SLPC  C21519979   5.709   1.748   4.702
  176SLPC  H15R19980   5.688   1.640   4.718
  176SLPC  H15S19981   5.798   1.755   4.636
  176SLPC  C21619982   5.586   1.807   4.628
  176SLPC  H16R19983   5.594   1.918   4.630
  176SLPC  H16S19984   5.497   1.801   4.695
  176SLPC  C21719985   5.550   1.754   4.489
  176SLPC  H17R19986   5.642   1.760   4.427
  176SLPC  H17S19987   5.478   1.813   4.429
  176SLPC  C21819988   5.493   1.611   4.496
  176SLPC  H18R19989   5.575   1.547   4.533
  176SLPC  H18S19990   5.464   1.573   4.396
  176SLPC  H18T19991   5.406   1.594   4.564
  176SLPC   C3319992   5.873   1.107   5.785
  176SLPC   H3X19993   5.768   1.143   5.789
  176SLPC   H3Y19994   5.868   1.000   5.815
  176SLPC   C3419995   5.935   1.102   5.641
  176SLPC   H4X19996   6.038   1.060   5.640
  176SLPC   H4Y19997   5.956   1.207   5.609
  176SLPC   C3519998   5.845   1.051   5.537
  176SLPC   H5X19999   5.755   1.115   5.534
  176SLPC   H5Y20000   5.809   0.948   5.559
  176SLPC   C3620001   5.910   1.046   5.397
  176SLPC   H6X20002   5.852   0.974   5.335
  176SLPC   H6Y20003   6.016   1.017   5.413
  176SLPC   C3720004   5.897   1.170   5.316
  176SLPC   H7X20005   5.970   1.245   5.355
  176SLPC   H7Y20006   5.797   1.216   5.330
  176SLPC   C3820007   5.915   1.152   5.166
  176SLPC   H8X20008   5.856   1.066   5.130
  176SLPC   H8Y20009   6.024   1.135   5.151
  176SLPC   C3920010   5.871   1.273   5.073
  176SLPC   H9X20011   5.916   1.365   5.115
  176SLPC   H9Y20012   5.763   1.291   5.059
  176SLPC  C31020013   5.922   1.251   4.925
  176SLPC  H10X20014   5.862   1.168   4.882
  176SLPC  H10Y20015   6.026   1.214   4.930
  176SLPC  C31120016   5.930   1.384   4.853
  176SLPC  H11X20017   5.990   1.458   4.911
  176SLPC  H11Y20018   5.827   1.427   4.857
  176SLPC  C31220019   5.984   1.360   4.712
  176SLPC  H12X20020   5.948   1.268   4.663
  176SLPC  H12Y20021   6.093   1.342   4.717
  176SLPC  C31320022   5.959   1.478   4.617
  176SLPC  H13X20023   6.008   1.570   4.657
  176SLPC  H13Y20024   5.856   1.518   4.616
  176SLPC  C31420025   6.005   1.453   4.468
  176SLPC  H14X20026   5.976   1.537   4.402
  176SLPC  H14Y20027   5.951   1.360   4.440
  176SLPC  C31520028   6.152   1.433   4.442
  176SLPC  H15X20029   6.200   1.351   4.500
  176SLPC  H15Y20030   6.213   1.525   4.455
  176SLPC  C31620031   6.179   1.388   4.303
  176SLPC  H16X20032   6.148   1.283   4.285
  176SLPC  H16Y20033   6.288   1.397   4.283
  176SLPC  C31720034   6.098   1.451   4.188
  176SLPC  H17X20035   5.991   1.421   4.197
  176SLPC  H17Y20036   6.131   1.408   4.091
  176SLPC  C31820037   6.120   1.601   4.181
  176SLPC  H18X20038   6.085   1.651   4.088
  176SLPC  H18Y20039   6.231   1.606   4.179
  176SLPC  H18Z20040   6.099   1.659   4.274
  177SLPC     N20041   5.210   2.271   6.567
  177SLPC   C1320042   5.237   2.241   6.714
  177SLPC  H13A20043   5.145   2.221   6.766
  177SLPC  H13B20044   5.294   2.149   6.714
  177SLPC  H13C20045   5.284   2.321   6.770
  177SLPC   C1420046   5.128   2.395   6.551
  177SLPC  H14A20047   5.051   2.393   6.626
  177SLPC  H14B20048   5.196   2.477   6.571
  177SLPC  H14C20049   5.082   2.424   6.457
  177SLPC   C1520050   5.117   2.162   6.516
  177SLPC  H15A20051   5.084   2.190   6.418
  177SLPC  H15B20052   5.165   2.066   6.503
  177SLPC  H15C20053   5.033   2.146   6.582
  177SLPC   C1220054   5.348   2.279   6.495
  177SLPC  H12A20055   5.397   2.368   6.533
  177SLPC  H12B20056   5.335   2.284   6.388
  177SLPC   C1120057   5.439   2.156   6.516
  177SLPC  H11A20058   5.503   2.149   6.425
  177SLPC  H11B20059   5.376   2.065   6.508
  177SLPC     P20060   5.625   2.285   6.639
  177SLPC   O1320061   5.566   2.421   6.617
  177SLPC   O1420062   5.705   2.277   6.759
  177SLPC   O1220063   5.515   2.168   6.635
  177SLPC   O1120064   5.711   2.239   6.514
  177SLPC    C120065   5.781   2.338   6.432
  177SLPC    HA20066   5.819   2.422   6.494
  177SLPC    HB20067   5.864   2.284   6.382
  177SLPC    C220068   5.684   2.383   6.318
  177SLPC    HS20069   5.589   2.422   6.361
  177SLPC   O2120070   5.659   2.263   6.234
  177SLPC   C2120071   5.547   2.237   6.179
  177SLPC   O2220072   5.448   2.309   6.199
  177SLPC   C2220073   5.542   2.122   6.081
  177SLPC   H2R20074   5.530   2.170   5.981
  177SLPC   H2S20075   5.631   2.055   6.083
  177SLPC    C320076   5.739   2.499   6.241
  177SLPC    HX20077   5.763   2.578   6.315
  177SLPC    HY20078   5.676   2.552   6.166
  177SLPC   O3120079   5.868   2.476   6.173
  177SLPC   C3120080   5.867   2.470   6.039
  177SLPC   O3220081   5.771   2.508   5.970
  177SLPC   C3220082   5.997   2.422   5.978
  177SLPC   H2X20083   5.997   2.312   5.960
  177SLPC   H2Y20084   6.077   2.460   6.045
  177SLPC   C2320085   5.420   2.030   6.117
  177SLPC   H3R20086   5.339   2.057   6.047
  177SLPC   H3S20087   5.375   2.049   6.217
  177SLPC   C2420088   5.448   1.880   6.093
  177SLPC   H4R20089   5.361   1.825   6.135
  177SLPC   H4S20090   5.535   1.854   6.157
  177SLPC   C2520091   5.462   1.839   5.943
  177SLPC   H5R20092   5.507   1.738   5.932
  177SLPC   H5S20093   5.526   1.911   5.887
  177SLPC   C2620094   5.324   1.825   5.869
  177SLPC   H6R20095   5.249   1.873   5.935
  177SLPC   H6S20096   5.287   1.720   5.860
  177SLPC   C2720097   5.323   1.889   5.727
  177SLPC   H7R20098   5.376   1.986   5.737
  177SLPC   H7S20099   5.218   1.914   5.699
  177SLPC   C2820100   5.397   1.806   5.622
  177SLPC   H8R20101   5.493   1.773   5.668
  177SLPC   H8S20102   5.429   1.866   5.534
  177SLPC   C2920103   5.333   1.678   5.577
  177SLPC   H9R20104   5.285   1.622   5.658
  177SLPC  C21020105   5.338   1.623   5.456
  177SLPC  H10R20106   5.264   1.543   5.440
  177SLPC  C21120107   5.395   1.680   5.331
  177SLPC  H11R20108   5.450   1.598   5.279
  177SLPC  H11S20109   5.478   1.750   5.351
  177SLPC  C21220110   5.299   1.756   5.249
  177SLPC  H12R20111   5.222   1.803   5.312
  177SLPC  C21320112   5.304   1.772   5.114
  177SLPC  H13R20113   5.238   1.844   5.064
  177SLPC  C21420114   5.405   1.707   5.019
  177SLPC  H14R20115   5.513   1.701   5.044
  177SLPC  H14S20116   5.398   1.766   4.926
  177SLPC  C21520117   5.374   1.569   4.972
  177SLPC  H15R20118   5.273   1.575   4.926
  177SLPC  H15S20119   5.359   1.507   5.063
  177SLPC  C21620120   5.485   1.515   4.883
  177SLPC  H16R20121   5.580   1.520   4.939
  177SLPC  H16S20122   5.487   1.579   4.791
  177SLPC  C21720123   5.444   1.382   4.838
  177SLPC  H17R20124   5.346   1.404   4.790
  177SLPC  H17S20125   5.429   1.308   4.920
  177SLPC  C21820126   5.546   1.318   4.736
  177SLPC  H18R20127   5.632   1.279   4.794
  177SLPC  H18S20128   5.586   1.396   4.668
  177SLPC  H18T20129   5.502   1.232   4.680
  177SLPC   C3320130   6.036   2.488   5.841
  177SLPC   H3X20131   6.038   2.599   5.848
  177SLPC   H3Y20132   5.959   2.464   5.764
  177SLPC   C3420133   6.174   2.459   5.782
  177SLPC   H4X20134   6.192   2.350   5.771
  177SLPC   H4Y20135   6.252   2.499   5.851
  177SLPC   C3520136   6.200   2.522   5.645
  177SLPC   H5X20137   6.171   2.629   5.650
  177SLPC   H5Y20138   6.139   2.465   5.572
  177SLPC   C3620139   6.344   2.503   5.598
  177SLPC   H6X20140   6.378   2.406   5.642
  177SLPC   H6Y20141   6.401   2.586   5.643
  177SLPC   C3720142   6.366   2.491   5.446
  177SLPC   H7X20143   6.304   2.405   5.412
  177SLPC   H7Y20144   6.473   2.471   5.428
  177SLPC   C3820145   6.317   2.616   5.365
  177SLPC   H8X20146   6.356   2.711   5.409
  177SLPC   H8Y20147   6.207   2.626   5.357
  177SLPC   C3920148   6.347   2.610   5.217
  177SLPC   H9X20149   6.309   2.707   5.178
  177SLPC   H9Y20150   6.276   2.534   5.178
  177SLPC  C31020151   6.489   2.580   5.178
  177SLPC  H10X20152   6.508   2.471   5.193
  177SLPC  H10Y20153   6.573   2.632   5.229
  177SLPC  C31120154   6.502   2.600   5.030
  177SLPC  H11X20155   6.498   2.708   5.004
  177SLPC  H11Y20156   6.416   2.542   4.987
  177SLPC  C31220157   6.629   2.531   4.970
  177SLPC  H12X20158   6.631   2.429   5.012
  177SLPC  H12Y20159   6.722   2.581   5.003
  177SLPC  C31320160   6.630   2.521   4.814
  177SLPC  H13X20161   6.568   2.442   4.767
  177SLPC  H13Y20162   6.735   2.511   4.778
  177SLPC  C31420163   6.583   2.656   4.745
  177SLPC  H14X20164   6.635   2.736   4.802
  177SLPC  H14Y20165   6.475   2.674   4.759
  177SLPC  C31520166   6.608   2.668   4.598
  177SLPC  H15X20167   6.519   2.631   4.544
  177SLPC  H15Y20168   6.698   2.607   4.573
  177SLPC  C31620169   6.617   2.819   4.553
  177SLPC  H16X20170   6.706   2.868   4.597
  177SLPC  H16Y20171   6.526   2.876   4.583
  177SLPC  C31720172   6.603   2.831   4.400
  177SLPC  H17X20173   6.497   2.821   4.368
  177SLPC  H17Y20174   6.664   2.748   4.358
  177SLPC  C31820175   6.664   2.973   4.362
  177SLPC  H18X20176   6.769   2.990   4.393
  177SLPC  H18Y20177   6.604   3.058   4.401
  177SLPC  H18Z20178   6.656   2.992   4.253
  178SLPC     N20179   2.205   6.858   6.333
  178SLPC   C1320180   2.214   0.088   6.287
  178SLPC  H13A20181   2.136   0.153   6.323
  178SLPC  H13B20182   2.310   0.131   6.311
  178SLPC  H13C20183   2.208   0.094   6.179
  178SLPC   C1420184   2.062   6.820   6.304
  178SLPC  H14A20185   2.035   6.824   6.199
  178SLPC  H14B20186   2.040   6.722   6.343
  178SLPC  H14C20187   1.989   6.882   6.354
  178SLPC   C1520188   2.226   6.853   6.478
  178SLPC  H15A20189   2.314   6.904   6.513
  178SLPC  H15B20190   2.140   6.894   6.530
  178SLPC  H15C20191   2.233   6.750   6.509
  178SLPC   C1220192   2.304   6.779   6.243
  178SLPC  H12A20193   2.405   6.804   6.274
  178SLPC  H12B20194   2.297   6.814   6.141
  178SLPC   C1120195   2.300   6.629   6.247
  178SLPC  H11A20196   2.371   6.606   6.165
  178SLPC  H11B20197   2.202   6.587   6.217
  178SLPC     P20198   2.479   6.593   6.444
  178SLPC   O1320199   2.469   6.696   6.545
  178SLPC   O1420200   2.542   6.467   6.492
  178SLPC   O1220201   2.337   6.571   6.375
  178SLPC   O1120202   2.567   6.662   6.329
  178SLPC    C120203   2.709   6.641   6.327
  178SLPC    HA20204   2.756   6.690   6.415
  178SLPC    HB20205   2.733   6.533   6.325
  178SLPC    C220206   2.760   6.715   6.203
  178SLPC    HS20207   2.745   6.824   6.220
  178SLPC   O2120208   2.699   6.656   6.092
  178SLPC   C2120209   2.681   6.743   5.994
  178SLPC   O2220210   2.668   6.865   6.007
  178SLPC   C2220211   2.657   6.660   5.870
  178SLPC   H2R20212   2.749   6.601   5.851
  178SLPC   H2S20213   2.575   6.588   5.888
  178SLPC    C320214   2.914   6.700   6.187
  178SLPC    HX20215   2.936   6.592   6.178
  178SLPC    HY20216   2.966   6.741   6.277
  178SLPC   O3120217   2.969   6.761   6.075
  178SLPC   C3120218   2.978   6.902   6.083
  178SLPC   O3220219   2.946   0.058   6.177
  178SLPC   C3220220   3.036   0.045   5.952
  178SLPC   H2X20221   3.107   0.129   5.969
  178SLPC   H2Y20222   2.955   0.087   5.888
  178SLPC   C2320223   2.607   6.745   5.757
  178SLPC   H3R20224   2.534   6.820   5.792
  178SLPC   H3S20225   2.543   6.681   5.692
  178SLPC   C2420226   2.716   6.814   5.673
  178SLPC   H4R20227   2.776   6.730   5.632
  178SLPC   H4S20228   2.778   6.866   5.749
  178SLPC   C2520229   2.675   6.907   5.563
  178SLPC   H5R20230   2.610   6.853   5.491
  178SLPC   H5S20231   2.767   0.020   5.505
  178SLPC   C2620232   2.596   0.117   5.608
  178SLPC   H6R20233   2.494   0.084   5.638
  178SLPC   H6S20234   2.579   0.194   5.529
  178SLPC   C2720235   2.636   0.207   5.733
  178SLPC   H7R20236   2.677   0.141   5.813
  178SLPC   H7S20237   2.545   0.256   5.774
  178SLPC   C2820238   2.744   0.316   5.698
  178SLPC   H8R20239   2.811   0.256   5.632
  178SLPC   H8S20240   2.794   0.348   5.792
  178SLPC   C2920241   2.684   0.435   5.634
  178SLPC   H9R20242   2.618   0.496   5.697
  178SLPC  C21020243   2.707   0.467   5.505
  178SLPC  H10R20244   2.659   0.559   5.469
  178SLPC  C21120245   2.789   0.392   5.399
  178SLPC  H11R20246   2.833   0.298   5.440
  178SLPC  H11S20247   2.889   0.437   5.381
  178SLPC  C21220248   2.701   0.363   5.280
  178SLPC  H12R20249   2.650   0.266   5.267
  178SLPC  C21320250   2.695   0.449   5.174
  178SLPC  H13R20251   2.617   0.429   5.100
  178SLPC  C21420252   2.767   0.579   5.149
  178SLPC  H14R20253   2.875   0.562   5.172
  178SLPC  H14S20254   2.716   0.654   5.213
  178SLPC  C21520255   2.751   0.619   5.002
  178SLPC  H15R20256   2.640   0.618   4.991
  178SLPC  H15S20257   2.789   0.541   4.933
  178SLPC  C21620258   2.807   0.760   4.962
  178SLPC  H16R20259   2.918   0.758   4.974
  178SLPC  H16S20260   2.757   0.843   5.017
  178SLPC  C21720261   2.787   0.793   4.817
  178SLPC  H17R20262   2.861   0.875   4.804
  178SLPC  H17S20263   2.686   0.832   4.790
  178SLPC  C21820264   2.808   0.686   4.705
  178SLPC  H18R20265   2.902   0.630   4.726
  178SLPC  H18S20266   2.821   0.720   4.600
  178SLPC  H18T20267   2.720   0.619   4.707
  178SLPC   C3320268   3.123   6.850   5.877
  178SLPC   H3X20269   3.049   6.771   5.851
  178SLPC   H3Y20270   3.196   6.799   5.943
  178SLPC   C3420271   3.187   6.908   5.748
  178SLPC   H4X20272   3.271   6.839   5.728
  178SLPC   H4Y20273   3.228   0.095   5.777
  178SLPC   C3520274   3.092   6.909   5.635
  178SLPC   H5X20275   3.011   0.073   5.635
  178SLPC   H5Y20276   3.050   6.806   5.639
  178SLPC   C3620277   3.166   6.907   5.495
  178SLPC   H6X20278   3.229   6.816   5.484
  178SLPC   H6Y20279   3.244   0.075   5.498
  178SLPC   C3720280   3.063   0.005   5.379
  178SLPC   H7X20281   3.010   0.102   5.392
  178SLPC   H7Y20282   2.980   6.843   5.388
  178SLPC   C3820283   3.124   6.901   5.239
  178SLPC   H8X20284   3.153   6.796   5.220
  178SLPC   H8Y20285   3.217   0.049   5.246
  178SLPC   C3920286   3.027   0.039   5.141
  178SLPC   H9X20287   3.075   0.010   5.045
  178SLPC   H9Y20288   3.009   0.147   5.154
  178SLPC  C31020289   2.890   6.883   5.140
  178SLPC  H10X20290   2.839   0.002   5.233
  178SLPC  H10Y20291   2.896   6.772   5.138
  178SLPC  C31120292   2.803   0.029   5.022
  178SLPC  H11X20293   2.838   6.899   4.925
  178SLPC  H11Y20294   2.815   0.139   5.020
  178SLPC  C31220295   2.659   6.896   5.037
  178SLPC  H12X20296   2.607   0.019   4.946
  178SLPC  H12Y20297   2.621   0.030   5.131
  178SLPC  C31320298   2.627   6.744   5.046
  178SLPC  H13X20299   2.518   6.739   5.067
  178SLPC  H13Y20300   2.663   6.699   5.140
  178SLPC  C31420301   2.683   6.657   4.934
  178SLPC  H14X20302   2.661   6.550   4.955
  178SLPC  H14Y20303   2.793   6.668   4.943
  178SLPC  C31520304   2.637   6.694   4.792
  178SLPC  H15X20305   2.653   6.800   4.765
  178SLPC  H15Y20306   2.527   6.679   4.793
  178SLPC  C31620307   2.701   6.604   4.681
  178SLPC  H16X20308   2.633   6.587   4.595
  178SLPC  H16Y20309   2.722   6.501   4.718
  178SLPC  C31720310   2.835   6.665   4.626
  178SLPC  H17X20311   2.903   6.677   4.713
  178SLPC  H17Y20312   2.820   6.770   4.594
  178SLPC  C31820313   2.907   6.587   4.519
  178SLPC  H18X20314   3.007   6.633   4.509
  178SLPC  H18Y20315   2.843   6.594   4.428
  178SLPC  H18Z20316   2.921   6.485   4.560
  179SLPC     N20317   4.327   2.031   2.217
  179SLPC   C1320318   4.378   2.064   2.353
  179SLPC  H13A20319   4.462   1.999   2.373
  179SLPC  H13B20320   4.401   2.167   2.375
  179SLPC  H13C20321   4.309   2.028   2.428
  179SLPC   C1420322   4.434   2.070   2.114
  179SLPC  H14A20323   4.401   2.044   2.015
  179SLPC  H14B20324   4.461   2.174   2.109
  179SLPC  H14C20325   4.527   2.018   2.131
  179SLPC   C1520326   4.209   2.110   2.194
  179SLPC  H15A20327   4.166   2.082   2.099
  179SLPC  H15B20328   4.132   2.086   2.265
  179SLPC  H15C20329   4.232   2.215   2.200
  179SLPC   C1220330   4.302   1.880   2.196
  179SLPC  H12A20331   4.397   1.836   2.220
  179SLPC  H12B20332   4.277   1.884   2.091
  179SLPC   C1120333   4.182   1.827   2.277
  179SLPC  H11A20334   4.205   1.837   2.385
  179SLPC  H11B20335   4.183   1.719   2.253
  179SLPC     P20336   3.934   1.905   2.333
  179SLPC   O1320337   3.983   1.953   2.461
  179SLPC   O1420338   3.835   1.991   2.261
  179SLPC   O1220339   4.054   1.879   2.236
  179SLPC   O1120340   3.886   1.754   2.359
  179SLPC    C120341   3.941   1.676   2.465
  179SLPC    HA20342   4.050   1.687   2.481
  179SLPC    HB20343   3.889   1.714   2.555
  179SLPC    C220344   3.904   1.526   2.447
  179SLPC    HS20345   3.919   1.512   2.338
  179SLPC   O2120346   3.765   1.513   2.482
  179SLPC   C2120347   3.714   1.394   2.431
  179SLPC   O2220348   3.774   1.311   2.375
  179SLPC   C2220349   3.567   1.392   2.491
  179SLPC   H2R20350   3.587   1.375   2.598
  179SLPC   H2S20351   3.516   1.490   2.475
  179SLPC    C320352   4.007   1.435   2.522
  179SLPC    HX20353   4.112   1.461   2.493
  179SLPC    HY20354   3.982   1.335   2.479
  179SLPC   O3120355   3.996   1.450   2.663
  179SLPC   C3120356   3.910   1.383   2.738
  179SLPC   O3220357   3.829   1.304   2.693
  179SLPC   C3220358   3.903   1.421   2.878
  179SLPC   H2X20359   3.889   1.530   2.893
  179SLPC   H2Y20360   4.002   1.404   2.924
  179SLPC   C2320361   3.469   1.278   2.431
  179SLPC   H3R20362   3.530   1.185   2.426
  179SLPC   H3S20363   3.432   1.302   2.329
  179SLPC   C2420364   3.341   1.250   2.510
  179SLPC   H4R20365   3.366   1.184   2.596
  179SLPC   H4S20366   3.267   1.199   2.443
  179SLPC   C2520367   3.278   1.364   2.586
  179SLPC   H5R20368   3.231   1.433   2.512
  179SLPC   H5S20369   3.351   1.432   2.635
  179SLPC   C2620370   3.167   1.319   2.695
  179SLPC   H6R20371   3.112   1.235   2.647
  179SLPC   H6S20372   3.083   1.392   2.701
  179SLPC   C2720373   3.220   1.261   2.825
  179SLPC   H7R20374   3.310   1.317   2.857
  179SLPC   H7S20375   3.265   1.162   2.800
  179SLPC   C2820376   3.106   1.256   2.932
  179SLPC   H8R20377   3.147   1.210   3.024
  179SLPC   H8S20378   3.019   1.204   2.886
  179SLPC   C2920379   3.066   1.395   2.968
  179SLPC   H9R20380   2.983   1.438   2.910
  179SLPC  C21020381   3.127   1.462   3.065
  179SLPC  H10R20382   3.096   1.565   3.090
  179SLPC  C21120383   3.226   1.419   3.172
  179SLPC  H11R20384   3.252   1.516   3.220
  179SLPC  H11S20385   3.322   1.400   3.119
  179SLPC  C21220386   3.191   1.313   3.270
  179SLPC  H12R20387   3.191   1.212   3.226
  179SLPC  C21320388   3.199   1.323   3.402
  179SLPC  H13R20389   3.194   1.230   3.461
  179SLPC  C21420390   3.211   1.450   3.480
  179SLPC  H14R20391   3.180   1.538   3.420
  179SLPC  H14S20392   3.315   1.477   3.510
  179SLPC  C21520393   3.126   1.429   3.599
  179SLPC  H15R20394   3.022   1.401   3.573
  179SLPC  H15S20395   3.115   1.534   3.635
  179SLPC  C21620396   3.186   1.353   3.719
  179SLPC  H16R20397   3.289   1.389   3.742
  179SLPC  H16S20398   3.189   1.244   3.695
  179SLPC  C21720399   3.110   1.374   3.852
  179SLPC  H17R20400   3.012   1.324   3.835
  179SLPC  H17S20401   3.105   1.485   3.859
  179SLPC  C21820402   3.179   1.324   3.983
  179SLPC  H18R20403   3.125   1.360   4.073
  179SLPC  H18S20404   3.283   1.364   3.989
  179SLPC  H18T20405   3.181   1.213   3.990
  179SLPC   C3320406   3.788   1.362   2.967
  179SLPC   H3X20407   3.802   1.252   2.972
  179SLPC   H3Y20408   3.700   1.393   2.908
  179SLPC   C3420409   3.772   1.426   3.105
  179SLPC   H4X20410   3.761   1.536   3.090
  179SLPC   H4Y20411   3.851   1.417   3.182
  179SLPC   C3520412   3.649   1.362   3.179
  179SLPC   H5X20413   3.556   1.373   3.120
  179SLPC   H5Y20414   3.687   1.260   3.204
  179SLPC   C3620415   3.617   1.440   3.314
  179SLPC   H6X20416   3.510   1.422   3.337
  179SLPC   H6Y20417   3.631   1.550   3.306
  179SLPC   C3720418   3.700   1.389   3.438
  179SLPC   H7X20419   3.803   1.411   3.404
  179SLPC   H7Y20420   3.688   1.280   3.453
  179SLPC   C3820421   3.663   1.469   3.561
  179SLPC   H8X20422   3.557   1.444   3.581
  179SLPC   H8Y20423   3.653   1.575   3.531
  179SLPC   C3920424   3.769   1.452   3.679
  179SLPC   H9X20425   3.864   1.491   3.637
  179SLPC   H9Y20426   3.768   1.346   3.711
  179SLPC  C31020427   3.740   1.529   3.804
  179SLPC  H10X20428   3.743   1.638   3.783
  179SLPC  H10Y20429   3.827   1.509   3.871
  179SLPC  C31120430   3.604   1.482   3.877
  179SLPC  H11X20431   3.614   1.373   3.896
  179SLPC  H11Y20432   3.515   1.499   3.812
  179SLPC  C31220433   3.580   1.562   4.004
  179SLPC  H12X20434   3.567   1.668   3.971
  179SLPC  H12Y20435   3.680   1.573   4.050
  179SLPC  C31320436   3.473   1.511   4.101
  179SLPC  H13X20437   3.482   1.400   4.094
  179SLPC  H13Y20438   3.377   1.549   4.060
  179SLPC  C31420439   3.480   1.549   4.249
  179SLPC  H14X20440   3.382   1.528   4.296
  179SLPC  H14Y20441   3.489   1.659   4.254
  179SLPC  C31520442   3.584   1.466   4.323
  179SLPC  H15X20443   3.582   1.514   4.423
  179SLPC  H15Y20444   3.680   1.478   4.269
  179SLPC  C31620445   3.569   1.313   4.337
  179SLPC  H16X20446   3.572   1.278   4.232
  179SLPC  H16Y20447   3.471   1.299   4.388
  179SLPC  C31720448   3.685   1.254   4.408
  179SLPC  H17X20449   3.776   1.318   4.419
  179SLPC  H17Y20450   3.722   1.172   4.343
  179SLPC  C31820451   3.653   1.195   4.546
  179SLPC  H18X20452   3.608   1.279   4.601
  179SLPC  H18Y20453   3.744   1.161   4.599
  179SLPC  H18Z20454   3.583   1.108   4.536
  180SLPC     N20455   1.333   1.514   1.958
  180SLPC   C1320456   1.364   1.365   1.977
  180SLPC  H13A20457   1.393   1.317   1.885
  180SLPC  H13B20458   1.455   1.356   2.034
  180SLPC  H13C20459   1.291   1.302   2.026
  180SLPC   C1420460   1.205   1.525   1.881
  180SLPC  H14A20461   1.118   1.481   1.927
  180SLPC  H14B20462   1.185   1.627   1.850
  180SLPC  H14C20463   1.218   1.469   1.790
  180SLPC   C1520464   1.442   1.572   1.874
  180SLPC  H15A20465   1.532   1.561   1.934
  180SLPC  H15B20466   1.450   1.527   1.776
  180SLPC  H15C20467   1.431   1.675   1.844
  180SLPC   C1220468   1.323   1.583   2.093
  180SLPC  H12A20469   1.238   1.539   2.145
  180SLPC  H12B20470   1.302   1.686   2.072
  180SLPC   C1120471   1.444   1.580   2.190
  180SLPC  H11A20472   1.476   1.480   2.224
  180SLPC  H11B20473   1.414   1.626   2.286
  180SLPC     P20474   1.701   1.616   2.150
  180SLPC   O1320475   1.732   1.495   2.072
  180SLPC   O1420476   1.770   1.741   2.112
  180SLPC   O1220477   1.553   1.653   2.128
  180SLPC   O1120478   1.720   1.590   2.305
  180SLPC    C120479   1.741   1.696   2.391
  180SLPC    HA20480   1.702   1.795   2.358
  180SLPC    HB20481   1.692   1.666   2.486
  180SLPC    C220482   1.891   1.722   2.425
  180SLPC    HS20483   1.933   1.775   2.337
  180SLPC   O2120484   1.961   1.593   2.450
  180SLPC   C2120485   2.090   1.603   2.421
  180SLPC   O2220486   2.146   1.699   2.378
  180SLPC   C2220487   2.160   1.477   2.468
  180SLPC   H2R20488   2.139   1.392   2.400
  180SLPC   H2S20489   2.266   1.499   2.444
  180SLPC    C320490   1.903   1.822   2.546
  180SLPC    HX20491   1.876   1.916   2.493
  180SLPC    HY20492   2.009   1.830   2.579
  180SLPC   O3120493   1.813   1.810   2.653
  180SLPC   C3120494   1.863   1.745   2.755
  180SLPC   O3220495   1.977   1.715   2.779
  180SLPC   C3220496   1.741   1.714   2.844
  180SLPC   H2X20497   1.712   1.610   2.820
  180SLPC   H2Y20498   1.658   1.784   2.823
  180SLPC   C2320499   2.152   1.456   2.623
  180SLPC   H3R20500   2.062   1.396   2.647
  180SLPC   H3S20501   2.148   1.554   2.675
  180SLPC   C2420502   2.272   1.378   2.685
  180SLPC   H4R20503   2.375   1.416   2.672
  180SLPC   H4S20504   2.282   1.291   2.617
  180SLPC   C2520505   2.265   1.318   2.822
  180SLPC   H5R20506   2.367   1.277   2.837
  180SLPC   H5S20507   2.197   1.232   2.807
  180SLPC   C2620508   2.220   1.403   2.938
  180SLPC   H6R20509   2.109   1.401   2.936
  180SLPC   H6S20510   2.254   1.509   2.932
  180SLPC   C2720511   2.274   1.349   3.073
  180SLPC   H7R20512   2.382   1.323   3.068
  180SLPC   H7S20513   2.215   1.255   3.079
  180SLPC   C2820514   2.235   1.424   3.198
  180SLPC   H8R20515   2.257   1.347   3.274
  180SLPC   H8S20516   2.126   1.440   3.209
  180SLPC   C2920517   2.312   1.558   3.211
  180SLPC   H9R20518   2.272   1.636   3.144
  180SLPC  C21020519   2.415   1.592   3.293
  180SLPC  H10R20520   2.465   1.690   3.287
  180SLPC  C21120521   2.483   1.504   3.398
  180SLPC  H11R20522   2.591   1.514   3.376
  180SLPC  H11S20523   2.469   1.393   3.391
  180SLPC  C21220524   2.454   1.565   3.538
  180SLPC  H12R20525   2.462   1.675   3.545
  180SLPC  C21320526   2.416   1.498   3.641
  180SLPC  H13R20527   2.401   1.566   3.726
  180SLPC  C21420528   2.385   1.354   3.656
  180SLPC  H14R20529   2.437   1.311   3.744
  180SLPC  H14S20530   2.412   1.287   3.572
  180SLPC  C21520531   2.236   1.343   3.682
  180SLPC  H15R20532   2.173   1.387   3.602
  180SLPC  H15S20533   2.211   1.405   3.771
  180SLPC  C21620534   2.194   1.199   3.717
  180SLPC  H16R20535   2.282   1.166   3.775
  180SLPC  H16S20536   2.186   1.155   3.615
  180SLPC  C21720537   2.070   1.191   3.802
  180SLPC  H17R20538   1.991   1.234   3.737
  180SLPC  H17S20539   2.091   1.254   3.891
  180SLPC  C21820540   2.024   1.051   3.845
  180SLPC  H18R20541   2.104   0.976   3.860
  180SLPC  H18S20542   1.970   1.007   3.758
  180SLPC  H18T20543   1.953   1.045   3.930
  180SLPC   C3320544   1.770   1.729   2.997
  180SLPC   H3X20545   1.858   1.666   3.021
  180SLPC   H3Y20546   1.683   1.708   3.063
  180SLPC   C3420547   1.789   1.877   3.041
  180SLPC   H4X20548   1.704   1.939   3.005
  180SLPC   H4Y20549   1.874   1.926   2.988
  180SLPC   C3520550   1.797   1.910   3.194
  180SLPC   H5X20551   1.738   1.840   3.257
  180SLPC   H5Y20552   1.763   2.015   3.212
  180SLPC   C3620553   1.949   1.906   3.239
  180SLPC   H6X20554   1.975   1.954   3.336
  180SLPC   H6Y20555   2.010   1.959   3.163
  180SLPC   C3720556   2.010   1.762   3.248
  180SLPC   H7X20557   2.108   1.762   3.300
  180SLPC   H7Y20558   2.025   1.738   3.140
  180SLPC   C3820559   1.936   1.651   3.318
  180SLPC   H8X20560   1.985   1.552   3.324
  180SLPC   H8Y20561   1.845   1.627   3.259
  180SLPC   C3920562   1.893   1.690   3.460
  180SLPC   H9X20563   1.845   1.790   3.464
  180SLPC   H9Y20564   1.983   1.691   3.526
  180SLPC  C31020565   1.797   1.589   3.524
  180SLPC  H10X20566   1.716   1.570   3.451
  180SLPC  H10Y20567   1.752   1.648   3.606
  180SLPC  C31120568   1.860   1.466   3.585
  180SLPC  H11X20569   1.935   1.480   3.666
  180SLPC  H11Y20570   1.916   1.413   3.505
  180SLPC  C31220571   1.755   1.366   3.632
  180SLPC  H12X20572   1.802   1.267   3.652
  180SLPC  H12Y20573   1.680   1.344   3.554
  180SLPC  C31320574   1.673   1.408   3.759
  180SLPC  H13X20575   1.627   1.505   3.730
  180SLPC  H13Y20576   1.736   1.409   3.850
  180SLPC  C31420577   1.568   1.298   3.801
  180SLPC  H14X20578   1.516   1.258   3.711
  180SLPC  H14Y20579   1.496   1.348   3.870
  180SLPC  C31520580   1.621   1.176   3.880
  180SLPC  H15X20581   1.703   1.216   3.944
  180SLPC  H15Y20582   1.674   1.095   3.825
  180SLPC  C31620583   1.504   1.109   3.957
  180SLPC  H16X20584   1.420   1.072   3.895
  180SLPC  H16Y20585   1.464   1.191   4.020
  180SLPC  C31720586   1.562   0.997   4.048
  180SLPC  H17X20587   1.637   1.046   4.114
  180SLPC  H17Y20588   1.608   0.921   3.982
  180SLPC  C31820589   1.462   0.935   4.141
  180SLPC  H18X20590   1.373   0.904   4.082
  180SLPC  H18Y20591   1.425   1.013   4.210
  180SLPC  H18Z20592   1.505   0.852   4.201
  181SLPC     N20593   0.612   0.185   1.897
  181SLPC   C1320594   0.583   0.037   1.897
  181SLPC  H13A20595   0.634   6.910   1.984
  181SLPC  H13B20596   0.479   0.010   1.902
  181SLPC  H13C20597   0.626   6.901   1.810
  181SLPC   C1420598   0.520   0.253   1.994
  181SLPC  H14A20599   0.529   0.206   2.092
  181SLPC  H14B20600   0.532   0.360   1.996
  181SLPC  H14C20601   0.415   0.229   1.983
  181SLPC   C1520602   0.566   0.229   1.768
  181SLPC  H15A20603   0.461   0.244   1.748
  181SLPC  H15B20604   0.611   0.326   1.753
  181SLPC  H15C20605   0.603   0.161   1.693
  181SLPC   C1220606   0.761   0.213   1.923
  181SLPC  H12A20607   0.766   0.320   1.908
  181SLPC  H12B20608   0.814   0.171   1.839
  181SLPC   C1120609   0.809   0.172   2.065
  181SLPC  H11A20610   0.750   0.226   2.143
  181SLPC  H11B20611   0.915   0.200   2.083
  181SLPC     P20612   0.916   6.845   2.058
  181SLPC   O1320613   0.864   6.711   2.084
  181SLPC   O1420614   0.967   6.867   1.922
  181SLPC   O1220615   0.800   0.029   2.087
  181SLPC   O1120616   1.024   6.893   2.165
  181SLPC    C120617   0.989   0.018   2.302
  181SLPC    HA20618   0.945   0.120   2.309
  181SLPC    HB20619   0.920   6.852   2.342
  181SLPC    C220620   1.112   0.014   2.392
  181SLPC    HS20621   1.180   6.840   2.371
  181SLPC   O2120622   1.069   0.014   2.526
  181SLPC   C2120623   1.140   6.851   2.609
  181SLPC   O2220624   1.226   6.771   2.579
  181SLPC   C2220625   1.091   6.860   2.751
  181SLPC   H2R20626   1.073   0.050   2.789
  181SLPC   H2S20627   0.994   6.805   2.749
  181SLPC    C320628   1.206   0.135   2.370
  181SLPC    HX20629   1.150   0.226   2.399
  181SLPC    HY20630   1.224   0.154   2.262
  181SLPC   O3120631   1.335   0.110   2.438
  181SLPC   C3120632   1.362   0.195   2.537
  181SLPC   O3220633   1.312   0.303   2.554
  181SLPC   C3220634   1.494   0.150   2.608
  181SLPC   H2X20635   1.570   0.129   2.530
  181SLPC   H2Y20636   1.473   0.052   2.657
  181SLPC   C2320637   1.188   6.800   2.847
  181SLPC   H3R20638   1.284   6.854   2.857
  181SLPC   H3S20639   1.212   6.693   2.830
  181SLPC   C2420640   1.124   6.801   2.995
  181SLPC   H4R20641   1.086   6.902   3.020
  181SLPC   H4S20642   1.217   6.783   3.052
  181SLPC   C2520643   1.025   6.692   3.028
  181SLPC   H5R20644   1.074   6.600   2.990
  181SLPC   H5S20645   0.922   6.704   2.990
  181SLPC   C2620646   1.010   6.680   3.181
  181SLPC   H6R20647   1.108   6.691   3.232
  181SLPC   H6S20648   0.978   6.576   3.206
  181SLPC   C2720649   0.915   6.780   3.248
  181SLPC   H7R20650   0.812   6.770   3.209
  181SLPC   H7S20651   0.939   6.885   3.221
  181SLPC   C2820652   0.891   6.743   3.400
  181SLPC   H8R20653   0.863   6.637   3.416
  181SLPC   H8S20654   0.800   6.802   3.425
  181SLPC   C2920655   1.013   6.798   3.463
  181SLPC   H9R20656   1.052   6.892   3.422
  181SLPC  C21020657   1.060   6.755   3.582
  181SLPC  H10R20658   1.144   6.810   3.627
  181SLPC  C21120659   1.004   6.644   3.676
  181SLPC  H11R20660   0.920   6.588   3.629
  181SLPC  H11S20661   0.959   6.688   3.767
  181SLPC  C21220662   1.108   6.534   3.701
  181SLPC  H12R20663   1.124   6.477   3.608
  181SLPC  C21320664   1.161   6.497   3.815
  181SLPC  H13R20665   1.243   6.425   3.803
  181SLPC  C21420666   1.147   6.556   3.956
  181SLPC  H14R20667   1.105   6.478   4.024
  181SLPC  H14S20668   1.072   6.637   3.958
  181SLPC  C21520669   1.282   6.610   4.001
  181SLPC  H15R20670   1.323   6.692   3.938
  181SLPC  H15S20671   1.365   6.537   3.995
  181SLPC  C21620672   1.278   6.673   4.146
  181SLPC  H16R20673   1.382   6.706   4.170
  181SLPC  H16S20674   1.249   6.591   4.216
  181SLPC  C21720675   1.180   6.789   4.155
  181SLPC  H17R20676   1.170   6.815   4.263
  181SLPC  H17S20677   1.078   6.752   4.130
  181SLPC  C21820678   1.217   6.910   4.070
  181SLPC  H18R20679   1.140   0.076   4.083
  181SLPC  H18S20680   1.219   6.887   3.962
  181SLPC  H18T20681   1.314   0.042   4.101
  181SLPC   C3320682   1.535   0.247   2.714
  181SLPC   H3X20683   1.544   0.350   2.676
  181SLPC   H3Y20684   1.638   0.221   2.746
  181SLPC   C3420685   1.449   0.243   2.839
  181SLPC   H4X20686   1.454   0.137   2.871
  181SLPC   H4Y20687   1.345   0.277   2.817
  181SLPC   C3520688   1.505   0.337   2.944
  181SLPC   H5X20689   1.509   0.443   2.908
  181SLPC   H5Y20690   1.606   0.314   2.984
  181SLPC   C3620691   1.429   0.346   3.076
  181SLPC   H6X20692   1.324   0.366   3.047
  181SLPC   H6Y20693   1.476   0.420   3.144
  181SLPC   C3720694   1.446   0.213   3.151
  181SLPC   H7X20695   1.548   0.182   3.183
  181SLPC   H7Y20696   1.383   0.138   3.099
  181SLPC   C3820697   1.391   0.220   3.290
  181SLPC   H8X20698   1.304   0.288   3.296
  181SLPC   H8Y20699   1.470   0.262   3.357
  181SLPC   C3920700   1.359   0.079   3.360
  181SLPC   H9X20701   1.264   0.037   3.320
  181SLPC   H9Y20702   1.336   0.097   3.467
  181SLPC  C31020703   1.464   6.884   3.356
  181SLPC  H10X20704   1.565   0.009   3.382
  181SLPC  H10Y20705   1.472   6.849   3.251
  181SLPC  C31120706   1.421   6.762   3.441
  181SLPC  H11X20707   1.325   6.724   3.401
  181SLPC  H11Y20708   1.402   6.801   3.543
  181SLPC  C31220709   1.523   6.652   3.448
  181SLPC  H12X20710   1.617   6.678   3.502
  181SLPC  H12Y20711   1.538   6.633   3.339
  181SLPC  C31320712   1.484   6.519   3.508
  181SLPC  H13X20713   1.383   6.502   3.466
  181SLPC  H13Y20714   1.479   6.532   3.618
  181SLPC  C31420715   1.582   6.404   3.474
  181SLPC  H14X20716   1.680   6.433   3.518
  181SLPC  H14Y20717   1.588   6.403   3.363
  181SLPC  C31520718   1.530   6.266   3.517
  181SLPC  H15X20719   1.600   6.189   3.479
  181SLPC  H15Y20720   1.432   6.245   3.468
  181SLPC  C31620721   1.508   6.248   3.667
  181SLPC  H16X20722   1.437   6.321   3.712
  181SLPC  H16Y20723   1.604   6.271   3.718
  181SLPC  C31720724   1.455   6.106   3.703
  181SLPC  H17X20725   1.536   6.030   3.697
  181SLPC  H17Y20726   1.369   6.089   3.634
  181SLPC  C31820727   1.387   6.089   3.842
  181SLPC  H18X20728   1.334   6.184   3.861
  181SLPC  H18Y20729   1.466   6.090   3.920
  181SLPC  H18Z20730   1.325   5.997   3.838
  182SLPC     N20731   2.238   6.314   1.995
  182SLPC   C1320732   2.126   6.278   2.091
  182SLPC  H13A20733   2.114   6.351   2.170
  182SLPC  H13B20734   2.035   6.284   2.034
  182SLPC  H13C20735   2.123   6.174   2.121
  182SLPC   C1420736   2.241   6.208   1.889
  182SLPC  H14A20737   2.266   6.114   1.936
  182SLPC  H14B20738   2.143   6.185   1.849
  182SLPC  H14C20739   2.320   6.222   1.817
  182SLPC   C1520740   2.367   6.333   2.065
  182SLPC  H15A20741   2.383   6.248   2.130
  182SLPC  H15B20742   2.447   6.343   1.993
  182SLPC  H15C20743   2.363   6.428   2.115
  182SLPC   C1220744   2.191   6.454   1.925
  182SLPC  H12A20745   2.089   6.431   1.895
  182SLPC  H12B20746   2.264   6.477   1.849
  182SLPC   C1120747   2.181   6.582   2.009
  182SLPC  H11A20748   2.113   6.556   2.092
  182SLPC  H11B20749   2.122   6.656   1.951
  182SLPC     P20750   2.405   6.687   1.951
  182SLPC   O1320751   2.428   6.585   1.849
  182SLPC   O1420752   2.352   6.817   1.895
  182SLPC   O1220753   2.310   6.623   2.061
  182SLPC   O1120754   2.542   6.720   2.028
  182SLPC    C120755   2.622   6.618   2.085
  182SLPC    HA20756   2.576   6.518   2.095
  182SLPC    HB20757   2.707   6.605   2.015
  182SLPC    C220758   2.674   6.668   2.224
  182SLPC    HS20759   2.744   6.593   2.267
  182SLPC   O2120760   2.570   6.708   2.317
  182SLPC   C2120761   2.495   6.607   2.354
  182SLPC   O2220762   2.523   6.487   2.352
  182SLPC   C2220763   2.357   6.656   2.406
  182SLPC   H2R20764   2.367   6.754   2.458
  182SLPC   H2S20765   2.296   6.671   2.314
  182SLPC    C320766   2.764   6.792   2.193
  182SLPC    HX20767   2.700   6.872   2.151
  182SLPC    HY20768   2.842   6.760   2.120
  182SLPC   O3120769   2.822   6.844   2.314
  182SLPC   C3120770   2.775   0.038   2.380
  182SLPC   O3220771   2.677   0.101   2.345
  182SLPC   C3220772   2.866   0.082   2.494
  182SLPC   H2X20773   2.796   0.121   2.571
  182SLPC   H2Y20774   2.935   0.158   2.453
  182SLPC   C2320775   2.274   6.563   2.491
  182SLPC   H3R20776   2.333   6.534   2.580
  182SLPC   H3S20777   2.270   6.457   2.457
  182SLPC   C2420778   2.140   6.613   2.531
  182SLPC   H4R20779   2.076   6.645   2.446
  182SLPC   H4S20780   2.156   6.710   2.585
  182SLPC   C2520781   2.050   6.528   2.621
  182SLPC   H5R20782   2.110   6.490   2.706
  182SLPC   H5S20783   1.993   6.457   2.557
  182SLPC   C2620784   1.934   6.608   2.687
  182SLPC   H6R20785   1.980   6.666   2.770
  182SLPC   H6S20786   1.851   6.547   2.729
  182SLPC   C2720787   1.872   6.725   2.594
  182SLPC   H7R20788   1.837   6.684   2.497
  182SLPC   H7S20789   1.938   6.814   2.586
  182SLPC   C2820790   1.751   6.788   2.661
  182SLPC   H8R20791   1.736   6.893   2.628
  182SLPC   H8S20792   1.779   6.787   2.769
  182SLPC   C2920793   1.619   6.715   2.651
  182SLPC   H9R20794   1.569   6.724   2.553
  182SLPC  C21020795   1.549   6.656   2.751
  182SLPC  H10R20796   1.454   6.602   2.738
  182SLPC  C21120797   1.603   6.648   2.891
  182SLPC  H11R20798   1.712   6.634   2.875
  182SLPC  H11S20799   1.563   6.558   2.942
  182SLPC  C21220800   1.588   6.756   2.994
  182SLPC  H12R20801   1.483   6.783   3.013
  182SLPC  C21320802   1.685   6.812   3.066
  182SLPC  H13R20803   1.653   6.879   3.147
  182SLPC  C21420804   1.832   6.792   3.063
  182SLPC  H14R20805   1.874   6.882   3.012
  182SLPC  H14S20806   1.861   6.699   3.009
  182SLPC  C21520807   1.899   6.781   3.202
  182SLPC  H15R20808   1.892   6.879   3.253
  182SLPC  H15S20809   2.009   6.774   3.190
  182SLPC  C21620810   1.857   6.664   3.288
  182SLPC  H16R20811   1.868   6.567   3.235
  182SLPC  H16S20812   1.750   6.678   3.311
  182SLPC  C21720813   1.929   6.653   3.428
  182SLPC  H17R20814   2.022   6.594   3.423
  182SLPC  H17S20815   1.859   6.599   3.494
  182SLPC  C21820816   1.968   6.782   3.493
  182SLPC  H18R20817   2.017   6.851   3.422
  182SLPC  H18S20818   2.041   6.752   3.571
  182SLPC  H18T20819   1.883   6.841   3.534
  182SLPC   C3320820   2.948   6.879   2.547
  182SLPC   H3X20821   3.013   0.004   2.629
  182SLPC   H3Y20822   3.020   6.832   2.477
  182SLPC   C3420823   2.861   6.771   2.618
  182SLPC   H4X20824   2.939   6.698   2.648
  182SLPC   H4Y20825   2.787   6.726   2.549
  182SLPC   C3520826   2.788   6.829   2.737
  182SLPC   H5X20827   2.704   6.889   2.695
  182SLPC   H5Y20828   2.863   6.888   2.794
  182SLPC   C3620829   2.722   6.724   2.830
  182SLPC   H6X20830   2.642   6.667   2.778
  182SLPC   H6Y20831   2.686   6.792   2.911
  182SLPC   C3720832   2.816   6.609   2.890
  182SLPC   H7X20833   2.906   6.656   2.934
  182SLPC   H7Y20834   2.854   6.554   2.801
  182SLPC   C3820835   2.743   6.520   2.987
  182SLPC   H8X20836   2.805   6.429   2.999
  182SLPC   H8Y20837   2.641   6.490   2.954
  182SLPC   C3920838   2.712   6.592   3.125
  182SLPC   H9X20839   2.620   6.653   3.110
  182SLPC   H9Y20840   2.803   6.652   3.145
  182SLPC  C31020841   2.686   6.497   3.241
  182SLPC  H10X20842   2.691   6.555   3.335
  182SLPC  H10Y20843   2.756   6.411   3.239
  182SLPC  C31120844   2.543   6.428   3.238
  182SLPC  H11X20845   2.544   6.359   3.151
  182SLPC  H11Y20846   2.470   6.504   3.203
  182SLPC  C31220847   2.511   6.357   3.365
  182SLPC  H12X20848   2.523   6.408   3.463
  182SLPC  H12Y20849   2.570   6.263   3.367
  182SLPC  C31320850   2.367   6.298   3.363
  182SLPC  H13X20851   2.337   6.267   3.261
  182SLPC  H13Y20852   2.294   6.371   3.403
  182SLPC  C31420853   2.349   6.165   3.441
  182SLPC  H14X20854   2.418   6.084   3.411
  182SLPC  H14Y20855   2.246   6.130   3.416
  182SLPC  C31520856   2.355   6.188   3.594
  182SLPC  H15X20857   2.277   6.265   3.611
  182SLPC  H15Y20858   2.457   6.216   3.627
  182SLPC  C31620859   2.314   6.066   3.687
  182SLPC  H16X20860   2.388   5.985   3.670
  182SLPC  H16Y20861   2.212   6.030   3.659
  182SLPC  C31720862   2.326   6.095   3.837
  182SLPC  H17X20863   2.256   6.024   3.885
  182SLPC  H17Y20864   2.288   6.198   3.854
  182SLPC  C31820865   2.456   6.074   3.900
  182SLPC  H18X20866   2.484   5.968   3.919
  182SLPC  H18Y20867   2.456   6.114   4.003
  182SLPC  H18Z20868   2.542   6.132   3.860
  183SLPC     N20869   5.848   2.761   2.345
  183SLPC   C1320870   5.978   2.702   2.391
  183SLPC  H13A20871   5.961   2.616   2.455
  183SLPC  H13B20872   6.033   2.673   2.303
  183SLPC  H13C20873   6.043   2.769   2.445
  183SLPC   C1420874   5.769   2.646   2.272
  183SLPC  H14A20875   5.665   2.675   2.261
  183SLPC  H14B20876   5.803   2.638   2.170
  183SLPC  H14C20877   5.764   2.549   2.321
  183SLPC   C1520878   5.877   2.877   2.256
  183SLPC  H15A20879   5.914   2.842   2.161
  183SLPC  H15B20880   5.785   2.929   2.235
  183SLPC  H15C20881   5.954   2.943   2.293
  183SLPC   C1220882   5.772   2.808   2.468
  183SLPC  H12A20883   5.833   2.884   2.516
  183SLPC  H12B20884   5.759   2.726   2.537
  183SLPC   C1120885   5.624   2.862   2.456
  183SLPC  H11A20886   5.626   2.954   2.395
  183SLPC  H11B20887   5.589   2.898   2.554
  183SLPC     P20888   5.446   2.660   2.451
  183SLPC   O1320889   5.299   2.694   2.446
  183SLPC   O1420890   5.484   2.533   2.389
  183SLPC   O1220891   5.533   2.783   2.390
  183SLPC   O1120892   5.488   2.660   2.601
  183SLPC    C120893   5.515   2.538   2.669
  183SLPC    HA20894   5.455   2.541   2.762
  183SLPC    HB20895   5.503   2.444   2.612
  183SLPC    C220896   5.657   2.541   2.728
  183SLPC    HS20897   5.673   2.477   2.817
  183SLPC   O2120898   5.705   2.674   2.759
  183SLPC   C2120899   5.629   2.742   2.842
  183SLPC   O2220900   5.528   2.694   2.893
  183SLPC   C2220901   5.689   2.880   2.870
  183SLPC   H2R20902   5.797   2.873   2.896
  183SLPC   H2S20903   5.691   2.938   2.776
  183SLPC    C320904   5.760   2.485   2.618
  183SLPC    HX20905   5.735   2.527   2.519
  183SLPC    HY20906   5.741   2.375   2.618
  183SLPC   O3120907   5.893   2.517   2.658
  183SLPC   C3120908   5.983   2.415   2.691
  183SLPC   O3220909   5.953   2.298   2.680
  183SLPC   C3220910   6.118   2.468   2.734
  183SLPC   H2X20911   6.171   2.521   2.652
  183SLPC   H2Y20912   6.168   2.377   2.772
  183SLPC   C2320913   5.636   2.949   2.999
  183SLPC   H3R20914   5.675   2.894   3.087
  183SLPC   H3S20915   5.530   2.937   3.029
  183SLPC   C2420916   5.689   3.095   3.011
  183SLPC   H4R20917   5.669   3.160   2.923
  183SLPC   H4S20918   5.798   3.116   3.013
  183SLPC   C2520919   5.612   3.159   3.130
  183SLPC   H5R20920   5.508   3.125   3.113
  183SLPC   H5S20921   5.612   3.270   3.128
  183SLPC   C2620922   5.674   3.109   3.264
  183SLPC   H6R20923   5.776   3.153   3.262
  183SLPC   H6S20924   5.697   3.001   3.259
  183SLPC   C2720925   5.611   3.162   3.390
  183SLPC   H7R20926   5.510   3.116   3.399
  183SLPC   H7S20927   5.612   3.272   3.379
  183SLPC   C2820928   5.690   3.124   3.520
  183SLPC   H8R20929   5.788   3.174   3.538
  183SLPC   H8S20930   5.701   3.013   3.523
  183SLPC   C2920931   5.607   3.168   3.643
  183SLPC   H9R20932   5.512   3.113   3.653
  183SLPC  C21020933   5.636   3.271   3.732
  183SLPC  H10R20934   5.566   3.280   3.817
  183SLPC  C21120935   5.749   3.368   3.728
  183SLPC  H11R20936   5.838   3.318   3.686
  183SLPC  H11S20937   5.776   3.398   3.832
  183SLPC  C21220938   5.714   3.483   3.633
  183SLPC  H12R20939   5.691   3.459   3.528
  183SLPC  C21320940   5.729   3.605   3.671
  183SLPC  H13R20941   5.697   3.679   3.596
  183SLPC  C21420942   5.762   3.662   3.811
  183SLPC  H14R20943   5.710   3.606   3.892
  183SLPC  H14S20944   5.736   3.769   3.824
  183SLPC  C21520945   5.912   3.664   3.851
  183SLPC  H15R20946   5.970   3.699   3.762
  183SLPC  H15S20947   5.937   3.558   3.875
  183SLPC  C21620948   5.945   3.746   3.977
  183SLPC  H16R20949   5.884   3.705   4.060
  183SLPC  H16S20950   5.917   3.853   3.962
  183SLPC  C21720951   6.095   3.739   4.007
  183SLPC  H17R20952   6.153   3.792   3.929
  183SLPC  H17S20953   6.132   3.634   4.003
  183SLPC  C21820954   6.126   3.790   4.149
  183SLPC  H18R20955   6.056   3.739   4.219
  183SLPC  H18S20956   6.121   3.898   4.173
  183SLPC  H18T20957   6.232   3.768   4.175
  183SLPC   C3320958   6.094   2.565   2.848
  183SLPC   H3X20959   6.017   2.641   2.825
  183SLPC   H3Y20960   6.189   2.617   2.868
  183SLPC   C3420961   6.079   2.489   2.975
  183SLPC   H4X20962   6.177   2.443   2.999
  183SLPC   H4Y20963   5.999   2.412   2.983
  183SLPC   C3520964   6.059   2.591   3.094
  183SLPC   H5X20965   6.133   2.674   3.101
  183SLPC   H5Y20966   6.068   2.528   3.185
  183SLPC   C3620967   5.920   2.656   3.097
  183SLPC   H6X20968   5.840   2.589   3.057
  183SLPC   H6Y20969   5.926   2.751   3.039
  183SLPC   C3720970   5.864   2.679   3.243
  183SLPC   H7X20971   5.863   2.587   3.305
  183SLPC   H7Y20972   5.758   2.711   3.230
  183SLPC   C3820973   5.935   2.802   3.319
  183SLPC   H8X20974   5.902   2.902   3.283
  183SLPC   H8Y20975   6.044   2.780   3.310
  183SLPC   C3920976   5.918   2.796   3.470
  183SLPC   H9X20977   5.949   2.695   3.505
  183SLPC   H9Y20978   5.811   2.796   3.501
  183SLPC  C31020979   5.993   2.912   3.537
  183SLPC  H10X20980   5.937   3.008   3.526
  183SLPC  H10Y20981   6.076   2.931   3.465
  183SLPC  C31120982   6.060   2.889   3.673
  183SLPC  H11X20983   6.120   2.977   3.706
  183SLPC  H11Y20984   6.136   2.810   3.655
  183SLPC  C31220985   5.973   2.848   3.791
  183SLPC  H12X20986   6.037   2.807   3.872
  183SLPC  H12Y20987   5.902   2.770   3.757
  183SLPC  C31320988   5.882   2.962   3.838
  183SLPC  H13X20989   5.773   2.946   3.846
  183SLPC  H13Y20990   5.907   3.054   3.779
  183SLPC  C31420991   5.917   3.000   3.984
  183SLPC  H14X20992   6.027   3.016   3.989
  183SLPC  H14Y20993   5.901   2.918   4.058
  183SLPC  C31520994   5.849   3.126   4.044
  183SLPC  H15X20995   5.861   3.205   3.967
  183SLPC  H15Y20996   5.906   3.162   4.132
  183SLPC  C31620997   5.698   3.106   4.074
  183SLPC  H16X20998   5.685   3.022   4.145
  183SLPC  H16Y20999   5.651   3.062   3.984
  183SLPC  C31721000   5.611   3.224   4.111
  183SLPC  H17X21001   5.638   3.297   4.031
  183SLPC  H17Y21002   5.643   3.264   4.209
  183SLPC  C31821003   5.457   3.209   4.089
  183SLPC  H18X21004   5.436   3.150   3.997
  183SLPC  H18Y21005   5.412   3.309   4.080
  183SLPC  H18Z21006   5.417   3.141   4.167
  184SLPC     N21007   6.228   1.767   1.867
  184SLPC   C1321008   6.338   1.674   1.905
  184SLPC  H13A21009   6.313   1.570   1.916
  184SLPC  H13B21010   6.413   1.675   1.828
  184SLPC  H13C21011   6.382   1.703   1.999
  184SLPC   C1421012   6.152   1.710   1.756
  184SLPC  H14A21013   6.219   1.703   1.672
  184SLPC  H14B21014   6.108   1.614   1.779
  184SLPC  H14C21015   6.072   1.770   1.715
  184SLPC   C1521016   6.283   1.904   1.827
  184SLPC  H15A21017   6.346   1.902   1.740
  184SLPC  H15B21018   6.208   1.978   1.804
  184SLPC  H15C21019   6.341   1.935   1.913
  184SLPC   C1221020   6.139   1.781   1.992
  184SLPC  H12A21021   6.097   1.682   2.001
  184SLPC  H12B21022   6.049   1.834   1.967
  184SLPC   C1121023   6.187   1.821   2.129
  184SLPC  H11A21024   6.279   1.764   2.155
  184SLPC  H11B21025   6.108   1.797   2.204
  184SLPC     P21026   6.140   2.078   2.181
  184SLPC   O1321027   6.197   2.201   2.119
  184SLPC   O1421028   5.991   2.056   2.164
  184SLPC   O1221029   6.223   1.958   2.121
  184SLPC   O1121030   6.179   2.078   2.329
  184SLPC    C121031   6.318   2.095   2.372
  184SLPC    HA21032   6.389   2.034   2.312
  184SLPC    HB21033   6.340   2.204   2.376
  184SLPC    C221034   6.331   2.058   2.521
  184SLPC    HS21035   6.439   2.071   2.545
  184SLPC   O2121036   6.297   1.917   2.545
  184SLPC   C2121037   6.351   1.820   2.481
  184SLPC   O2221038   6.452   1.821   2.412
  184SLPC   C2221039   6.257   1.707   2.512
  184SLPC   H2R21040   6.156   1.742   2.542
  184SLPC   H2S21041   6.244   1.653   2.416
  184SLPC    C321042   6.244   2.144   2.619
  184SLPC    HX21043   6.142   2.111   2.589
  184SLPC    HY21044   6.262   2.250   2.592
  184SLPC   O3121045   6.276   2.131   2.755
  184SLPC   C3121046   6.192   2.046   2.820
  184SLPC   O3221047   6.102   1.984   2.769
  184SLPC   C3221048   6.242   2.045   2.966
  184SLPC   H2X21049   6.351   2.034   2.983
  184SLPC   H2Y21050   6.206   1.948   3.007
  184SLPC   C2321051   6.306   1.607   2.625
  184SLPC   H3R21052   6.395   1.544   2.601
  184SLPC   H3S21053   6.225   1.531   2.627
  184SLPC   C2421054   6.314   1.681   2.759
  184SLPC   H4R21055   6.223   1.743   2.780
  184SLPC   H4S21056   6.399   1.752   2.757
  184SLPC   C2521057   6.331   1.596   2.883
  184SLPC   H5R21058   6.429   1.544   2.877
  184SLPC   H5S21059   6.246   1.525   2.887
  184SLPC   C2621060   6.349   1.690   3.012
  184SLPC   H6R21061   6.259   1.755   3.012
  184SLPC   H6S21062   6.447   1.742   3.016
  184SLPC   C2721063   6.343   1.607   3.135
  184SLPC   H7R21064   6.406   1.516   3.134
  184SLPC   H7S21065   6.237   1.577   3.145
  184SLPC   C2821066   6.399   1.688   3.256
  184SLPC   H8R21067   6.342   1.784   3.253
  184SLPC   H8S21068   6.508   1.699   3.244
  184SLPC   C2921069   6.383   1.622   3.383
  184SLPC   H9R21070   6.426   1.521   3.382
  184SLPC  C21021071   6.337   1.672   3.498
  184SLPC  H10R21072   6.341   1.599   3.580
  184SLPC  C21121073   6.292   1.812   3.528
  184SLPC  H11R21074   6.204   1.820   3.595
  184SLPC  H11S21075   6.268   1.868   3.435
  184SLPC  C21221076   6.404   1.883   3.600
  184SLPC  H12R21077   6.503   1.887   3.552
  184SLPC  C21321078   6.385   1.950   3.714
  184SLPC  H13R21079   6.465   2.015   3.754
  184SLPC  C21421080   6.260   1.956   3.794
  184SLPC  H14R21081   6.211   1.858   3.811
  184SLPC  H14S21082   6.187   2.025   3.747
  184SLPC  C21521083   6.299   2.019   3.929
  184SLPC  H15R21084   6.204   2.013   3.986
  184SLPC  H15S21085   6.332   2.123   3.906
  184SLPC  C21621086   6.423   1.958   4.002
  184SLPC  H16R21087   6.447   2.023   4.089
  184SLPC  H16S21088   6.514   1.966   3.939
  184SLPC  C21721089   6.400   1.819   4.054
  184SLPC  H17R21090   6.407   1.737   3.979
  184SLPC  H17S21091   6.297   1.817   4.096
  184SLPC  C21821092   6.504   1.770   4.161
  184SLPC  H18R21093   6.611   1.782   4.135
  184SLPC  H18S21094   6.507   1.660   4.172
  184SLPC  H18T21095   6.486   1.819   4.259
  184SLPC   C3321096   6.178   2.164   3.047
  184SLPC   H3X21097   6.070   2.178   3.022
  184SLPC   H3Y21098   6.233   2.252   3.007
  184SLPC   C3421099   6.191   2.139   3.201
  184SLPC   H4X21100   6.295   2.107   3.224
  184SLPC   H4Y21101   6.132   2.049   3.230
  184SLPC   C3521102   6.172   2.263   3.293
  184SLPC   H5X21103   6.066   2.288   3.313
  184SLPC   H5Y21104   6.207   2.354   3.239
  184SLPC   C3621105   6.245   2.252   3.427
  184SLPC   H6X21106   6.355   2.240   3.419
  184SLPC   H6Y21107   6.212   2.160   3.479
  184SLPC   C3721108   6.227   2.382   3.517
  184SLPC   H7X21109   6.210   2.469   3.449
  184SLPC   H7Y21110   6.323   2.391   3.572
  184SLPC   C3821111   6.113   2.364   3.624
  184SLPC   H8X21112   6.130   2.274   3.687
  184SLPC   H8Y21113   6.021   2.349   3.564
  184SLPC   C3921114   6.100   2.483   3.723
  184SLPC   H9X21115   6.080   2.576   3.666
  184SLPC   H9Y21116   6.187   2.501   3.790
  184SLPC  C31021117   5.982   2.466   3.825
  184SLPC  H10X21118   5.886   2.430   3.781
  184SLPC  H10Y21119   5.959   2.564   3.873
  184SLPC  C31121120   6.017   2.370   3.940
  184SLPC  H11X21121   6.104   2.409   3.998
  184SLPC  H11Y21122   6.054   2.278   3.890
  184SLPC  C31221123   5.891   2.335   4.022
  184SLPC  H12X21124   5.811   2.292   3.957
  184SLPC  H12Y21125   5.849   2.422   4.076
  184SLPC  C31321126   5.913   2.217   4.122
  184SLPC  H13X21127   5.944   2.128   4.064
  184SLPC  H13Y21128   5.812   2.200   4.168
  184SLPC  C31421129   6.021   2.239   4.230
  184SLPC  H14X21130   5.984   2.314   4.303
  184SLPC  H14Y21131   6.106   2.294   4.185
  184SLPC  C31521132   6.072   2.108   4.304
  184SLPC  H15X21133   6.146   2.152   4.375
  184SLPC  H15Y21134   6.120   2.044   4.226
  184SLPC  C31621135   5.968   2.026   4.387
  184SLPC  H16X21136   6.022   1.951   4.449
  184SLPC  H16Y21137   5.905   1.958   4.327
  184SLPC  C31721138   5.870   2.095   4.479
  184SLPC  H17X21139   5.799   2.020   4.520
  184SLPC  H17Y21140   5.808   2.169   4.425
  184SLPC  C31821141   5.936   2.180   4.590
  184SLPC  H18X21142   5.994   2.260   4.541
  184SLPC  H18Y21143   6.013   2.114   4.635
  184SLPC  H18Z21144   5.869   2.226   4.665
  185POPC     N21145   2.305   6.133   6.255
  185POPC   C1221146   2.237   5.997   6.238
  185POPC  H12A21147   2.158   5.984   6.310
  185POPC  H12B21148   2.308   5.926   6.277
  185POPC   C1321149   2.219   6.250   6.232
  185POPC  H13A21150   2.276   6.341   6.233
  185POPC  H13B21151   2.153   6.257   6.146
  185POPC  H13C21152   2.156   6.258   6.320
  185POPC   C1421153   2.352   6.137   6.398
  185POPC  H14A21154   2.391   6.232   6.430
  185POPC  H14B21155   2.279   6.110   6.473
  185POPC  H14C21156   2.429   6.061   6.400
  185POPC   C1521157   2.434   6.149   6.177
  185POPC  H15A21158   2.420   6.142   6.070
  185POPC  H15B21159   2.506   6.074   6.204
  185POPC  H15C21160   2.472   6.249   6.190
  185POPC   C1121161   2.206   5.943   6.100
  185POPC  H11A21162   2.165   5.840   6.100
  185POPC  H11B21163   2.301   5.931   6.043
  185POPC     P21164   1.971   6.067   6.084
  185POPC   O1321165   1.941   6.206   6.041
  185POPC   O1421166   1.950   6.027   6.224
  185POPC   O1221167   2.120   6.032   6.033
  185POPC   O1121168   1.886   5.971   5.995
  185POPC    C121169   1.906   5.979   5.853
  185POPC    HA21170   1.971   5.890   5.837
  185POPC    HB21171   1.969   6.064   5.817
  185POPC    C221172   1.767   5.974   5.793
  185POPC    HS21173   1.704   6.057   5.832
  185POPC   O2121174   1.705   5.846   5.828
  185POPC   C2121175   1.572   5.843   5.820
  185POPC   O2221176   1.501   5.940   5.805
  185POPC   C2221177   1.524   5.700   5.825
  185POPC   H2R21178   1.439   5.705   5.896
  185POPC   H2S21179   1.601   5.624   5.851
  185POPC    C321180   1.775   5.977   5.641
  185POPC    HX21181   1.672   5.966   5.602
  185POPC    HY21182   1.834   5.887   5.615
  185POPC   O3121183   1.834   6.102   5.587
  185POPC   C3121184   1.764   6.218   5.596
  185POPC   O3221185   1.642   6.224   5.622
  185POPC   C3221186   1.853   6.330   5.537
  185POPC   H2X21187   1.941   6.333   5.604
  185POPC   H2Y21188   1.793   6.423   5.548
  185POPC   C2321189   1.463   5.662   5.692
  185POPC   H3R21190   1.366   5.715   5.676
  185POPC   H3S21191   1.422   5.558   5.692
  185POPC   C2421192   1.554   5.663   5.568
  185POPC   H4R21193   1.601   5.563   5.570
  185POPC   H4S21194   1.633   5.738   5.588
  185POPC   C2521195   1.494   5.694   5.437
  185POPC   H5R21196   1.411   5.621   5.423
  185POPC   H5S21197   1.572   5.677   5.360
  185POPC   C2621198   1.422   5.831   5.429
  185POPC   H6R21199   1.500   5.908   5.446
  185POPC   H6S21200   1.355   5.840   5.518
  185POPC   C2721201   1.340   5.859   5.301
  185POPC   H7R21202   1.266   5.778   5.281
  185POPC   H7S21203   1.410   5.869   5.215
  185POPC   C2821204   1.247   5.991   5.307
  185POPC   H8R21205   1.184   5.976   5.397
  185POPC   H8S21206   1.176   5.981   5.223
  185POPC   C2921207   1.318   6.123   5.305
  185POPC   H9121208   1.403   6.125   5.375
  185POPC  C21021209   1.300   6.222   5.215
  185POPC  H10121210   1.367   6.309   5.213
  185POPC  C21121211   1.188   6.221   5.115
  185POPC  H11R21212   1.151   6.325   5.106
  185POPC  H11S21213   1.102   6.153   5.133
  185POPC  C21221214   1.250   6.183   4.979
  185POPC  H12R21215   1.170   6.159   4.905
  185POPC  H12S21216   1.303   6.086   4.988
  185POPC  C21321217   1.353   6.289   4.912
  185POPC  H13R21218   1.396   6.244   4.820
  185POPC  H13S21219   1.442   6.298   4.978
  185POPC  C21421220   1.306   6.426   4.880
  185POPC  H14R21221   1.385   6.477   4.820
  185POPC  H14S21222   1.290   6.487   4.971
  185POPC  C21521223   1.173   6.429   4.809
  185POPC  H15R21224   1.156   6.535   4.782
  185POPC  H15S21225   1.098   6.377   4.873
  185POPC  C21621226   1.182   6.362   4.672
  185POPC  H16R21227   1.243   6.269   4.664
  185POPC  H16S21228   1.248   6.419   4.604
  185POPC  C21721229   1.049   6.337   4.602
  185POPC  H17R21230   0.998   6.250   4.647
  185POPC  H17S21231   1.084   6.302   4.502
  185POPC  C21821232   0.954   6.456   4.593
  185POPC  H18R21233   1.007   6.542   4.546
  185POPC  H18S21234   0.914   6.492   4.690
  185POPC  H18T21235   0.873   6.418   4.527
  185POPC   C3321236   1.894   6.301   5.390
  185POPC   H3X21237   1.957   6.209   5.389
  185POPC   H3Y21238   1.956   6.389   5.362
  185POPC   C3421239   1.767   6.300   5.303
  185POPC   H4X21240   1.788   6.353   5.207
  185POPC   H4Y21241   1.694   6.372   5.345
  185POPC   C3521242   1.704   6.161   5.282
  185POPC   H5X21243   1.601   6.177   5.243
  185POPC   H5Y21244   1.695   6.103   5.376
  185POPC   C3621245   1.777   6.069   5.187
  185POPC   H6X21246   1.874   6.033   5.226
  185POPC   H6Y21247   1.790   6.131   5.096
  185POPC   C3721248   1.692   5.948   5.151
  185POPC   H7X21249   1.599   5.972   5.094
  185POPC   H7Y21250   1.656   5.898   5.243
  185POPC   C3821251   1.792   5.847   5.080
  185POPC   H8X21252   1.725   5.759   5.072
  185POPC   H8Y21253   1.868   5.821   5.156
  185POPC   C3921254   1.854   5.903   4.945
  185POPC   H9X21255   1.927   5.983   4.970
  185POPC   H9Y21256   1.774   5.967   4.901
  185POPC  C31021257   1.901   5.792   4.837
  185POPC  H10X21258   1.808   5.747   4.796
  185POPC  H10Y21259   1.937   5.707   4.899
  185POPC  C31121260   1.981   5.844   4.719
  185POPC  H11X21261   2.072   5.900   4.748
  185POPC  H11Y21262   1.924   5.919   4.660
  185POPC  C31221263   2.025   5.732   4.618
  185POPC  H12X21264   1.951   5.664   4.572
  185POPC  H12Y21265   2.091   5.664   4.676
  185POPC  C31321266   2.112   5.793   4.507
  185POPC  H13X21267   2.157   5.710   4.449
  185POPC  H13Y21268   2.192   5.854   4.555
  185POPC  C31421269   2.032   5.885   4.415
  185POPC  H14X21270   1.983   5.969   4.469
  185POPC  H14Y21271   1.943   5.823   4.393
  185POPC  C31521272   2.116   5.935   4.289
  185POPC  H15X21273   2.146   5.847   4.228
  185POPC  H15Y21274   2.215   5.973   4.320
  185POPC  C31621275   2.031   6.030   4.210
  185POPC  H16X21276   1.962   5.978   4.140
  185POPC  H16Y21277   2.102   6.089   4.149
  185POPC  H16Z21278   1.973   6.106   4.266
  186POPC     N21279   3.676   5.548   6.359
  186POPC   C1221280   3.753   5.427   6.329
  186POPC  H12A21281   3.708   5.383   6.241
  186POPC  H12B21282   3.758   5.349   6.404
  186POPC   C1321283   3.618   5.605   6.230
  186POPC  H13A21284   3.539   5.546   6.185
  186POPC  H13B21285   3.574   5.703   6.236
  186POPC  H13C21286   3.698   5.630   6.161
  186POPC   C1421287   3.565   5.502   6.443
  186POPC  H14A21288   3.598   5.480   6.543
  186POPC  H14B21289   3.485   5.574   6.450
  186POPC  H14C21290   3.524   5.412   6.400
  186POPC   C1521291   3.759   5.650   6.429
  186POPC  H15A21292   3.840   5.675   6.362
  186POPC  H15B21293   3.784   5.616   6.528
  186POPC  H15C21294   3.706   5.742   6.451
  186POPC   C1121295   3.907   5.447   6.303
  186POPC  H11A21296   3.952   5.352   6.268
  186POPC  H11B21297   3.950   5.471   6.402
  186POPC     P21298   4.074   5.599   6.187
  186POPC   O1321299   4.175   5.497   6.161
  186POPC   O1421300   4.093   5.696   6.298
  186POPC   O1221301   3.932   5.540   6.197
  186POPC   O1121302   4.079   5.688   6.058
  186POPC    C121303   4.011   5.811   6.047
  186POPC    HA21304   4.060   5.875   5.970
  186POPC    HB21305   4.016   5.866   6.143
  186POPC    C221306   3.867   5.800   5.985
  186POPC    HS21307   3.805   5.763   6.069
  186POPC   O2121308   3.869   5.700   5.877
  186POPC   C2121309   3.747   5.681   5.827
  186POPC   O2221310   3.644   5.695   5.883
  186POPC   C2221311   3.755   5.625   5.682
  186POPC   H2R21312   3.715   5.522   5.696
  186POPC   H2S21313   3.861   5.625   5.650
  186POPC    C321314   3.809   5.932   5.934
  186POPC    HX21315   3.822   6.017   6.005
  186POPC    HY21316   3.699   5.926   5.929
  186POPC   O3121317   3.850   5.965   5.800
  186POPC   C3121318   3.953   6.044   5.784
  186POPC   O3221319   4.020   6.093   5.873
  186POPC   C3221320   3.958   6.075   5.634
  186POPC   H2X21321   3.981   5.979   5.583
  186POPC   H2Y21322   4.041   6.148   5.628
  186POPC   C2321323   3.649   5.692   5.591
  186POPC   H3R21324   3.674   5.794   5.554
  186POPC   H3S21325   3.546   5.687   5.630
  186POPC   C2421326   3.653   5.611   5.459
  186POPC   H4R21327   3.580   5.662   5.392
  186POPC   H4S21328   3.610   5.511   5.480
  186POPC   C2521329   3.784   5.602   5.384
  186POPC   H5R21330   3.856   5.526   5.422
  186POPC   H5S21331   3.836   5.700   5.386
  186POPC   C2621332   3.761   5.567   5.237
  186POPC   H6R21333   3.685   5.486   5.235
  186POPC   H6S21334   3.856   5.534   5.189
  186POPC   C2721335   3.703   5.679   5.147
  186POPC   H7R21336   3.778   5.757   5.124
  186POPC   H7S21337   3.609   5.721   5.189
  186POPC   C2821338   3.647   5.628   5.007
  186POPC   H8R21339   3.613   5.724   4.963
  186POPC   H8S21340   3.551   5.573   5.016
  186POPC   C2921341   3.762   5.567   4.925
  186POPC   H9121342   3.858   5.546   4.974
  186POPC  C21021343   3.764   5.536   4.793
  186POPC  H10121344   3.855   5.491   4.751
  186POPC  C21121345   3.656   5.546   4.693
  186POPC  H11R21346   3.677   5.616   4.609
  186POPC  H11S21347   3.571   5.595   4.746
  186POPC  C21221348   3.604   5.404   4.644
  186POPC  H12R21349   3.537   5.356   4.719
  186POPC  H12S21350   3.694   5.339   4.635
  186POPC  C21321351   3.544   5.434   4.506
  186POPC  H13R21352   3.615   5.471   4.429
  186POPC  H13S21353   3.461   5.506   4.518
  186POPC  C21421354   3.483   5.298   4.451
  186POPC  H14R21355   3.565   5.223   4.445
  186POPC  H14S21356   3.458   5.313   4.344
  186POPC  C21521357   3.375   5.237   4.533
  186POPC  H15R21358   3.316   5.325   4.567
  186POPC  H15S21359   3.424   5.196   4.623
  186POPC  C21621360   3.308   5.128   4.447
  186POPC  H16R21361   3.387   5.052   4.429
  186POPC  H16S21362   3.298   5.169   4.344
  186POPC  C21721363   3.169   5.090   4.491
  186POPC  H17R21364   3.115   5.185   4.506
  186POPC  H17S21365   3.159   5.040   4.590
  186POPC  C21821366   3.094   5.009   4.379
  186POPC  H18R21367   3.160   4.925   4.348
  186POPC  H18S21368   3.075   5.070   4.289
  186POPC  H18T21369   3.002   4.961   4.421
  186POPC   C3321370   3.821   6.124   5.586
  186POPC   H3X21371   3.785   6.213   5.642
  186POPC   H3Y21372   3.755   6.035   5.585
  186POPC   C3421373   3.820   6.184   5.442
  186POPC   H4X21374   3.909   6.246   5.418
  186POPC   H4Y21375   3.731   6.245   5.417
  186POPC   C3521376   3.823   6.084   5.329
  186POPC   H5X21377   3.743   6.011   5.355
  186POPC   H5Y21378   3.915   6.022   5.329
  186POPC   C3621379   3.791   6.139   5.187
  186POPC   H6X21380   3.836   6.073   5.109
  186POPC   H6Y21381   3.823   6.245   5.174
  186POPC   C3721382   3.635   6.144   5.173
  186POPC   H7X21383   3.576   6.182   5.259
  186POPC   H7Y21384   3.601   6.039   5.172
  186POPC   C3821385   3.581   6.204   5.043
  186POPC   H8X21386   3.602   6.313   5.048
  186POPC   H8Y21387   3.472   6.190   5.054
  186POPC   C3921388   3.628   6.130   4.915
  186POPC   H9X21389   3.606   6.022   4.933
  186POPC   H9Y21390   3.735   6.133   4.886
  186POPC  C31021391   3.555   6.169   4.788
  186POPC  H10X21392   3.583   6.272   4.756
  186POPC  H10Y21393   3.445   6.172   4.792
  186POPC  C31121394   3.598   6.078   4.670
  186POPC  H11X21395   3.556   5.976   4.679
  186POPC  H11Y21396   3.708   6.059   4.666
  186POPC  C31221397   3.543   6.130   4.539
  186POPC  H12X21398   3.587   6.230   4.519
  186POPC  H12Y21399   3.433   6.149   4.543
  186POPC  C31321400   3.578   6.056   4.407
  186POPC  H13X21401   3.597   5.950   4.434
  186POPC  H13Y21402   3.678   6.086   4.370
  186POPC  C31421403   3.476   6.058   4.293
  186POPC  H14X21404   3.484   6.154   4.238
  186POPC  H14Y21405   3.379   6.052   4.347
  186POPC  C31521406   3.477   5.940   4.201
  186POPC  H15X21407   3.368   5.920   4.185
  186POPC  H15Y21408   3.505   5.841   4.245
  186POPC  C31621409   3.542   5.968   4.069
  186POPC  H16X21410   3.549   6.076   4.047
  186POPC  H16Y21411   3.480   5.915   3.993
  186POPC  H16Z21412   3.642   5.919   4.074
  187POPC     N21413   6.630   5.092   2.534
  187POPC   C1221414   6.567   5.037   2.410
  187POPC  H12A21415   6.498   4.958   2.438
  187POPC  H12B21416   6.642   4.976   2.360
  187POPC   C1321417   6.771   5.149   2.505
  187POPC  H13A21418   6.763   5.227   2.431
  187POPC  H13B21419   6.818   5.198   2.589
  187POPC  H13C21420   6.838   5.075   2.465
  187POPC   C1421421   6.548   5.193   2.604
  187POPC  H14A21422   6.456   5.145   2.635
  187POPC  H14B21423   6.601   5.228   2.692
  187POPC  H14C21424   6.530   5.272   2.532
  187POPC   C1521425   6.652   4.977   2.634
  187POPC  H15A21426   6.560   4.925   2.653
  187POPC  H15B21427   6.679   5.025   2.726
  187POPC  H15C21428   6.723   4.903   2.600
  187POPC   C1121429   6.512   5.136   2.301
  187POPC  H11A21430   6.483   5.077   2.212
  187POPC  H11B21431   6.595   5.199   2.263
  187POPC     P21432   6.265   5.143   2.369
  187POPC   O1321433   6.289   5.010   2.427
  187POPC   O1421434   6.179   5.135   2.248
  187POPC   O1221435   6.404   5.215   2.343
  187POPC   O1121436   6.198   5.228   2.484
  187POPC    C121437   6.147   5.360   2.448
  187POPC    HA21438   6.101   5.357   2.346
  187POPC    HB21439   6.228   5.436   2.447
  187POPC    C221440   6.029   5.419   2.547
  187POPC    HS21441   6.085   5.451   2.637
  187POPC   O2121442   5.927   5.318   2.580
  187POPC   C2121443   5.972   5.234   2.672
  187POPC   O2221444   6.073   5.242   2.735
  187POPC   C2221445   5.873   5.121   2.692
  187POPC   H2R21446   5.887   5.053   2.605
  187POPC   H2S21447   5.772   5.166   2.688
  187POPC    C321448   5.978   5.555   2.492
  187POPC    HX21449   5.877   5.534   2.452
  187POPC    HY21450   6.028   5.578   2.396
  187POPC   O3121451   5.972   5.666   2.581
  187POPC   C3121452   5.894   5.772   2.563
  187POPC   O3221453   5.823   5.802   2.469
  187POPC   C3221454   5.923   5.863   2.675
  187POPC   H2X21455   6.015   5.919   2.649
  187POPC   H2Y21456   5.947   5.806   2.767
  187POPC   C2321457   5.900   5.042   2.828
  187POPC   H3R21458   6.006   5.051   2.859
  187POPC   H3S21459   5.872   4.936   2.810
  187POPC   C2421460   5.819   5.091   2.953
  187POPC   H4R21461   5.716   5.081   2.912
  187POPC   H4S21462   5.855   5.191   2.987
  187POPC   C2521463   5.822   4.992   3.071
  187POPC   H5R21464   5.920   4.961   3.113
  187POPC   H5S21465   5.767   4.899   3.044
  187POPC   C2621466   5.736   5.056   3.182
  187POPC   H6R21467   5.640   5.074   3.128
  187POPC   H6S21468   5.784   5.153   3.205
  187POPC   C2721469   5.717   4.967   3.302
  187POPC   H7R21470   5.819   4.928   3.324
  187POPC   H7S21471   5.661   4.878   3.266
  187POPC   C2821472   5.656   5.035   3.423
  187POPC   H8R21473   5.715   5.128   3.438
  187POPC   H8S21474   5.664   4.963   3.507
  187POPC   C2921475   5.507   5.064   3.403
  187POPC   H9121476   5.435   4.986   3.377
  187POPC  C21021477   5.446   5.179   3.441
  187POPC  H10121478   5.338   5.187   3.423
  187POPC  C21121479   5.517   5.302   3.501
  187POPC  H11R21480   5.483   5.397   3.454
  187POPC  H11S21481   5.628   5.298   3.489
  187POPC  C21221482   5.488   5.319   3.650
  187POPC  H12R21483   5.396   5.272   3.690
  187POPC  H12S21484   5.464   5.425   3.675
  187POPC  C21321485   5.607   5.270   3.734
  187POPC  H13R21486   5.707   5.299   3.695
  187POPC  H13S21487   5.600   5.159   3.737
  187POPC  C21421488   5.593   5.304   3.885
  187POPC  H14R21489   5.668   5.242   3.938
  187POPC  H14S21490   5.494   5.273   3.925
  187POPC  C21521491   5.609   5.446   3.929
  187POPC  H15R21492   5.513   5.500   3.910
  187POPC  H15S21493   5.697   5.485   3.873
  187POPC  C21621494   5.642   5.461   4.081
  187POPC  H16R21495   5.636   5.570   4.103
  187POPC  H16S21496   5.744   5.431   4.111
  187POPC  C21721497   5.545   5.399   4.180
  187POPC  H17R21498   5.563   5.439   4.282
  187POPC  H17S21499   5.552   5.288   4.189
  187POPC  C21821500   5.394   5.426   4.150
  187POPC  H18R21501   5.370   5.534   4.144
  187POPC  H18S21502   5.341   5.383   4.238
  187POPC  H18T21503   5.353   5.377   4.059
  187POPC   C3321504   5.807   5.954   2.714
  187POPC   H3X21505   5.708   5.907   2.732
  187POPC   H3Y21506   5.792   6.027   2.632
  187POPC   C3421507   5.833   6.045   2.838
  187POPC   H4X21508   5.735   6.097   2.849
  187POPC   H4Y21509   5.914   6.119   2.822
  187POPC   C3521510   5.852   5.980   2.973
  187POPC   H5X21511   5.920   5.893   2.965
  187POPC   H5Y21512   5.750   5.947   3.001
  187POPC   C3621513   5.893   6.079   3.083
  187POPC   H6X21514   5.814   6.157   3.090
  187POPC   H6Y21515   5.987   6.125   3.046
  187POPC   C3721516   5.923   5.997   3.212
  187POPC   H7X21517   5.997   5.918   3.186
  187POPC   H7Y21518   5.832   5.941   3.242
  187POPC   C3821519   5.976   6.080   3.328
  187POPC   H8X21520   6.054   6.152   3.294
  187POPC   H8Y21521   6.039   6.013   3.390
  187POPC   C3921522   5.881   6.140   3.426
  187POPC   H9X21523   5.798   6.069   3.449
  187POPC   H9Y21524   5.841   6.228   3.371
  187POPC  C31021525   5.944   6.186   3.558
  187POPC  H10X21526   6.027   6.253   3.526
  187POPC  H10Y21527   5.989   6.096   3.604
  187POPC  C31121528   5.858   6.261   3.655
  187POPC  H11X21529   5.771   6.198   3.682
  187POPC  H11Y21530   5.819   6.355   3.609
  187POPC  C31221531   5.925   6.295   3.790
  187POPC  H12X21532   5.961   6.208   3.849
  187POPC  H12Y21533   5.842   6.341   3.848
  187POPC  C31321534   6.045   6.392   3.790
  187POPC  H13X21535   6.019   6.486   3.737
  187POPC  H13Y21536   6.125   6.337   3.736
  187POPC  C31421537   6.104   6.427   3.925
  187POPC  H14X21538   6.040   6.509   3.964
  187POPC  H14Y21539   6.210   6.459   3.910
  187POPC  C31521540   6.115   6.315   4.025
  187POPC  H15X21541   6.162   6.230   3.972
  187POPC  H15Y21542   6.018   6.276   4.063
  187POPC  C31621543   6.204   6.352   4.139
  187POPC  H16X21544   6.310   6.369   4.112
  187POPC  H16Y21545   6.205   6.266   4.210
  187POPC  H16Z21546   6.156   6.437   4.193
  188POPC     N21547   5.148   4.821   1.459
  188POPC   C1221548   5.221   4.809   1.586
  188POPC  H12A21549   5.265   4.903   1.614
  188POPC  H12B21550   5.306   4.745   1.567
  188POPC   C1321551   5.074   4.693   1.434
  188POPC  H13A21552   5.001   4.674   1.511
  188POPC  H13B21553   5.024   4.692   1.338
  188POPC  H13C21554   5.132   4.602   1.441
  188POPC   C1421555   5.051   4.936   1.455
  188POPC  H14A21556   4.993   4.945   1.364
  188POPC  H14B21557   4.968   4.921   1.523
  188POPC  H14C21558   5.102   5.029   1.478
  188POPC   C1521559   5.254   4.844   1.353
  188POPC  H15A21560   5.311   4.754   1.336
  188POPC  H15B21561   5.323   4.921   1.386
  188POPC  H15C21562   5.210   4.865   1.256
  188POPC   C1121563   5.145   4.753   1.712
  188POPC  H11A21564   5.218   4.735   1.794
  188POPC  H11B21565   5.091   4.659   1.687
  188POPC     P21566   5.068   4.968   1.840
  188POPC   O1321567   4.948   5.058   1.847
  188POPC   O1421568   5.191   5.042   1.807
  188POPC   O1221569   5.043   4.847   1.746
  188POPC   O1121570   5.098   4.893   1.977
  188POPC    C121571   5.019   4.834   2.069
  188POPC    HA21572   5.056   4.731   2.088
  188POPC    HB21573   4.916   4.822   2.027
  188POPC    C221574   5.009   4.909   2.202
  188POPC    HS21575   4.954   5.002   2.177
  188POPC   O2121576   5.140   4.929   2.260
  188POPC   C2121577   5.199   5.038   2.228
  188POPC   O2221578   5.150   5.137   2.175
  188POPC   C2221579   5.345   5.027   2.284
  188POPC   H2R21580   5.408   5.080   2.210
  188POPC   H2S21581   5.368   4.920   2.299
  188POPC    C321582   4.917   4.832   2.306
  188POPC    HX21583   4.953   4.727   2.307
  188POPC    HY21584   4.817   4.825   2.258
  188POPC   O3121585   4.909   4.893   2.435
  188POPC   C3121586   4.835   5.002   2.444
  188POPC   O3221587   4.756   5.037   2.358
  188POPC   C3221588   4.837   5.067   2.577
  188POPC   H2X21589   4.923   5.138   2.574
  188POPC   H2Y21590   4.865   4.989   2.651
  188POPC   C2321591   5.346   5.099   2.420
  188POPC   H3R21592   5.306   5.201   2.402
  188POPC   H3S21593   5.453   5.107   2.448
  188POPC   C2421594   5.264   5.037   2.534
  188POPC   H4R21595   5.259   4.927   2.542
  188POPC   H4S21596   5.161   5.078   2.522
  188POPC   C2521597   5.320   5.073   2.670
  188POPC   H5R21598   5.344   5.182   2.668
  188POPC   H5S21599   5.421   5.028   2.680
  188POPC   C2621600   5.225   5.036   2.783
  188POPC   H6R21601   5.210   4.926   2.785
  188POPC   H6S21602   5.130   5.091   2.762
  188POPC   C2721603   5.254   5.082   2.928
  188POPC   H7R21604   5.283   4.988   2.978
  188POPC   H7S21605   5.159   5.118   2.974
  188POPC   C2821606   5.362   5.193   2.951
  188POPC   H8R21607   5.454   5.162   2.898
  188POPC   H8S21608   5.386   5.202   3.059
  188POPC   C2921609   5.312   5.327   2.907
  188POPC   H9121610   5.281   5.334   2.802
  188POPC  C21021611   5.290   5.439   2.971
  188POPC  H10121612   5.254   5.524   2.912
  188POPC  C21121613   5.301   5.458   3.126
  188POPC  H11R21614   5.363   5.546   3.155
  188POPC  H11S21615   5.350   5.380   3.188
  188POPC  C21221616   5.172   5.472   3.209
  188POPC  H12R21617   5.107   5.383   3.189
  188POPC  H12S21618   5.125   5.564   3.168
  188POPC  C21321619   5.185   5.492   3.364
  188POPC  H13R21620   5.259   5.571   3.387
  188POPC  H13S21621   5.229   5.401   3.409
  188POPC  C21421622   5.045   5.532   3.420
  188POPC  H14R21623   4.970   5.460   3.381
  188POPC  H14S21624   5.016   5.624   3.366
  188POPC  C21521625   5.042   5.562   3.568
  188POPC  H15R21626   4.960   5.630   3.600
  188POPC  H15S21627   5.137   5.614   3.589
  188POPC  C21621628   5.039   5.427   3.648
  188POPC  H16R21629   5.129   5.365   3.628
  188POPC  H16S21630   4.946   5.376   3.617
  188POPC  C21721631   5.037   5.451   3.799
  188POPC  H17R21632   5.016   5.349   3.839
  188POPC  H17S21633   4.946   5.511   3.817
  188POPC  C21821634   5.171   5.506   3.849
  188POPC  H18R21635   5.259   5.437   3.849
  188POPC  H18S21636   5.159   5.522   3.958
  188POPC  H18T21637   5.195   5.603   3.802
  188POPC   C3321638   4.705   5.126   2.623
  188POPC   H3X21639   4.629   5.048   2.602
  188POPC   H3Y21640   4.678   5.215   2.562
  188POPC   C3421641   4.704   5.164   2.772
  188POPC   H4X21642   4.807   5.166   2.812
  188POPC   H4Y21643   4.643   5.090   2.827
  188POPC   C3521644   4.624   5.292   2.808
  188POPC   H5X21645   4.517   5.264   2.798
  188POPC   H5Y21646   4.641   5.369   2.730
  188POPC   C3621647   4.658   5.341   2.942
  188POPC   H6X21648   4.605   5.436   2.968
  188POPC   H6Y21649   4.768   5.359   2.942
  188POPC   C3721650   4.619   5.254   3.055
  188POPC   H7X21651   4.643   5.147   3.038
  188POPC   H7Y21652   4.508   5.250   3.056
  188POPC   C3821653   4.682   5.303   3.195
  188POPC   H8X21654   4.779   5.357   3.183
  188POPC   H8Y21655   4.697   5.213   3.260
  188POPC   C3921656   4.584   5.403   3.264
  188POPC   H9X21657   4.491   5.358   3.304
  188POPC   H9Y21658   4.557   5.483   3.191
  188POPC  C31021659   4.643   5.471   3.388
  188POPC  H10X21660   4.725   5.540   3.359
  188POPC  H10Y21661   4.689   5.384   3.439
  188POPC  C31121662   4.544   5.547   3.482
  188POPC  H11X21663   4.455   5.491   3.517
  188POPC  H11Y21664   4.497   5.623   3.416
  188POPC  C31221665   4.617   5.627   3.594
  188POPC  H12X21666   4.707   5.682   3.559
  188POPC  H12Y21667   4.650   5.557   3.673
  188POPC  C31321668   4.533   5.734   3.659
  188POPC  H13X21669   4.470   5.672   3.726
  188POPC  H13Y21670   4.468   5.780   3.582
  188POPC  C31421671   4.608   5.841   3.737
  188POPC  H14X21672   4.533   5.912   3.778
  188POPC  H14Y21673   4.672   5.897   3.665
  188POPC  C31521674   4.697   5.782   3.848
  188POPC  H15X21675   4.793   5.739   3.813
  188POPC  H15Y21676   4.652   5.696   3.904
  188POPC  C31621677   4.730   5.893   3.951
  188POPC  H16X21678   4.815   5.866   4.018
  188POPC  H16Y21679   4.636   5.915   4.006
  188POPC  H16Z21680   4.751   5.991   3.903
  189SAPI   C1221681   2.657   5.520   6.900
  189SAPI    H221682   2.572   5.520   6.971
  189SAPI    O221683   2.661   5.650   6.846
  189SAPI   HO221684   2.578   5.695   6.863
  189SAPI   C1321685   2.781   5.493   6.989
  189SAPI    H321686   2.759   5.391   7.026
  189SAPI    O321687   2.796   5.589   7.096
  189SAPI   HO321688   2.831   5.669   7.056
  189SAPI   C1421689   2.901   5.484   6.887
  189SAPI    H421690   2.904   5.587   6.844
  189SAPI    O421691   3.025   5.464   6.955
  189SAPI   HO421692   3.068   5.546   6.979
  189SAPI   C1521693   2.873   5.392   6.769
  189SAPI    H521694   2.869   5.286   6.803
  189SAPI    O521695   2.981   5.402   6.677
  189SAPI   HO521696   3.049   5.465   6.704
  189SAPI   C1621697   2.742   5.413   6.704
  189SAPI    H621698   2.743   5.511   6.653
  189SAPI    O621699   2.728   5.313   6.605
  189SAPI   HO621700   2.639   5.318   6.570
  189SAPI   C1121701   2.626   5.413   6.797
  189SAPI    H121702   2.621   5.315   6.850
  189SAPI     P21703   2.389   5.317   6.700
  189SAPI   O1321704   2.268   5.386   6.653
  189SAPI   O1421705   2.377   5.232   6.822
  189SAPI   O1221706   2.503   5.434   6.732
  189SAPI   O1121707   2.464   5.239   6.588
  189SAPI    C121708   2.439   5.109   6.545
  189SAPI    HA21709   2.496   5.047   6.617
  189SAPI    HB21710   2.330   5.090   6.556
  189SAPI    C221711   2.485   5.075   6.399
  189SAPI    HS21712   2.592   5.104   6.390
  189SAPI   O2121713   2.395   5.140   6.306
  189SAPI   C2121714   2.425   5.272   6.283
  189SAPI   O2221715   2.529   5.327   6.327
  189SAPI   C2221716   2.303   5.332   6.205
  189SAPI   H2R21717   2.248   5.247   6.160
  189SAPI   H2S21718   2.234   5.379   6.278
  189SAPI    C321719   2.493   4.927   6.359
  189SAPI    HX21720   2.397   4.871   6.366
  189SAPI    HY21721   2.544   4.873   6.441
  189SAPI   O3121722   2.541   4.900   6.229
  189SAPI   C3121723   2.674   4.923   6.225
  189SAPI   O3221724   2.744   4.926   6.325
  189SAPI   C3221725   2.719   4.926   6.078
  189SAPI   H2X21726   2.639   4.949   6.004
  189SAPI   H2Y21727   2.749   4.823   6.049
  189SAPI   C2321728   2.352   5.440   6.112
  189SAPI   H3R21729   2.406   5.415   6.018
  189SAPI   H3S21730   2.423   5.511   6.160
  189SAPI   C2421731   2.234   5.538   6.072
  189SAPI   H4R21732   2.269   5.611   5.995
  189SAPI   H4S21733   2.217   5.603   6.160
  189SAPI   C2521734   2.109   5.465   6.039
  189SAPI   H5R21735   2.037   5.487   6.119
  189SAPI   C2621736   2.091   5.379   5.932
  189SAPI   H6R21737   1.988   5.342   5.919
  189SAPI   C2721738   2.167   5.333   5.809
  189SAPI   H7R21739   2.106   5.276   5.735
  189SAPI   H7S21740   2.252   5.270   5.843
  189SAPI   C2821741   2.223   5.455   5.734
  189SAPI   H8R21742   2.307   5.501   5.788
  189SAPI   C2921743   2.176   5.507   5.625
  189SAPI   H9R21744   2.225   5.596   5.583
  189SAPI  C21021745   2.062   5.456   5.541
  189SAPI  H10R21746   2.027   5.352   5.560
  189SAPI  H10S21747   2.099   5.457   5.437
  189SAPI  C21121748   1.947   5.559   5.547
  189SAPI  H11R21749   1.902   5.577   5.646
  189SAPI  C21221750   1.876   5.597   5.441
  189SAPI  H12R21751   1.787   5.659   5.459
  189SAPI  C21321752   1.883   5.551   5.299
  189SAPI  H13R21753   1.984   5.563   5.253
  189SAPI  H13S21754   1.825   5.635   5.254
  189SAPI  C21421755   1.838   5.409   5.265
  189SAPI  H14R21756   1.903   5.338   5.318
  189SAPI  C21521757   1.728   5.364   5.209
  189SAPI  H15R21758   1.711   5.255   5.205
  189SAPI  C21621759   1.625   5.441   5.144
  189SAPI  H16R21760   1.638   5.551   5.138
  189SAPI  H16S21761   1.544   5.424   5.217
  189SAPI  C21721762   1.586   5.391   5.000
  189SAPI  H17R21763   1.502   5.458   4.974
  189SAPI  H17S21764   1.550   5.285   5.002
  189SAPI  C21821765   1.692   5.417   4.890
  189SAPI  H18R21766   1.764   5.333   4.900
  189SAPI  H18S21767   1.756   5.505   4.910
  189SAPI  C21921768   1.635   5.435   4.745
  189SAPI  H19R21769   1.566   5.522   4.754
  189SAPI  H19S21770   1.582   5.338   4.737
  189SAPI  C22021771   1.739   5.447   4.634
  189SAPI  H20R21772   1.708   5.442   4.527
  189SAPI  H20S21773   1.819   5.373   4.653
  189SAPI  H20T21774   1.781   5.550   4.632
  189SAPI   C3321775   2.851   5.012   6.049
  189SAPI   H3X21776   2.881   4.986   5.945
  189SAPI   H3Y21777   2.938   4.976   6.108
  189SAPI   C3421778   2.829   5.166   6.059
  189SAPI   H4X21779   2.930   5.213   6.057
  189SAPI   H4Y21780   2.775   5.195   6.152
  189SAPI   C3521781   2.748   5.221   5.941
  189SAPI   H5X21782   2.656   5.161   5.922
  189SAPI   H5Y21783   2.817   5.194   5.858
  189SAPI   C3621784   2.739   5.374   5.941
  189SAPI   H6X21785   2.841   5.413   5.964
  189SAPI   H6Y21786   2.669   5.415   6.016
  189SAPI   C3721787   2.690   5.422   5.806
  189SAPI   H7X21788   2.600   5.365   5.774
  189SAPI   H7Y21789   2.768   5.406   5.729
  189SAPI   C3821790   2.645   5.567   5.801
  189SAPI   H8X21791   2.701   5.637   5.867
  189SAPI   H8Y21792   2.543   5.546   5.840
  189SAPI   C3921793   2.628   5.619   5.653
  189SAPI   H9X21794   2.558   5.705   5.656
  189SAPI   H9Y21795   2.562   5.546   5.603
  189SAPI  C31021796   2.756   5.658   5.576
  189SAPI  H10X21797   2.801   5.561   5.543
  189SAPI  H10Y21798   2.826   5.716   5.639
  189SAPI  C31121799   2.739   5.755   5.458
  189SAPI  H11X21800   2.691   5.852   5.484
  189SAPI  H11Y21801   2.671   5.712   5.383
  189SAPI  C31221802   2.878   5.780   5.398
  189SAPI  H12X21803   2.951   5.700   5.426
  189SAPI  H12Y21804   2.911   5.876   5.443
  189SAPI  C31321805   2.878   5.795   5.243
  189SAPI  H13X21806   2.851   5.697   5.198
  189SAPI  H13Y21807   2.983   5.812   5.209
  189SAPI  C31421808   2.785   5.893   5.180
  189SAPI  H14X21809   2.680   5.894   5.218
  189SAPI  H14Y21810   2.776   5.882   5.070
  189SAPI  C31521811   2.827   6.036   5.185
  189SAPI  H15X21812   2.913   6.058   5.117
  189SAPI  H15Y21813   2.860   6.050   5.290
  189SAPI  C31621814   2.716   6.133   5.158
  189SAPI  H16X21815   2.761   6.233   5.179
  189SAPI  H16Y21816   2.637   6.106   5.231
  189SAPI  C31721817   2.665   6.140   5.009
  189SAPI  H17X21818   2.607   6.050   4.981
  189SAPI  H17Y21819   2.754   6.157   4.945
  189SAPI  C31821820   2.556   6.256   4.994
  189SAPI  H18X21821   2.473   6.216   5.057
  189SAPI  H18Y21822   2.528   6.255   4.887
  189SAPI  H18Z21823   2.585   6.358   5.026
  190SAPI   C1221824   0.803   3.500   6.814
  190SAPI    H221825   0.765   3.425   6.742
  190SAPI    O221826   0.762   3.626   6.767
  190SAPI   HO221827   0.768   3.632   6.672
  190SAPI   C1321828   0.750   3.466   6.950
  190SAPI    H321829   0.788   3.364   6.975
  190SAPI    O321830   0.609   3.466   6.955
  190SAPI   HO321831   0.599   3.552   6.912
  190SAPI   C1421832   0.803   3.556   7.053
  190SAPI    H421833   0.758   3.656   7.034
  190SAPI    O421834   0.759   3.527   7.186
  190SAPI   HO421835   0.671   3.563   7.202
  190SAPI   C1521836   0.958   3.584   7.056
  190SAPI    H521837   1.005   3.504   7.118
  190SAPI    O521838   0.989   3.704   7.131
  190SAPI   HO521839   1.008   3.674   7.220
  190SAPI   C1621840   1.028   3.574   6.920
  190SAPI    H621841   1.012   3.677   6.883
  190SAPI    O621842   1.168   3.554   6.927
  190SAPI   HO621843   1.202   3.637   6.961
  190SAPI   C1121844   0.955   3.488   6.817
  190SAPI    H121845   0.985   3.394   6.869
  190SAPI     P21846   1.039   3.392   6.585
  190SAPI   O1321847   1.007   3.267   6.654
  190SAPI   O1421848   1.176   3.403   6.532
  190SAPI   O1221849   1.020   3.507   6.690
  190SAPI   O1121850   0.940   3.439   6.471
  190SAPI    C121851   0.829   3.355   6.429
  190SAPI    HA21852   0.768   3.311   6.511
  190SAPI    HB21853   0.765   3.411   6.358
  190SAPI    C221854   0.865   3.234   6.350
  190SAPI    HS21855   0.901   3.155   6.419
  190SAPI   O2121856   0.962   3.274   6.257
  190SAPI   C2121857   1.047   3.175   6.223
  190SAPI   O2221858   1.070   3.072   6.278
  190SAPI   C2221859   1.136   3.222   6.095
  190SAPI   H2R21860   1.068   3.275   6.024
  190SAPI   H2S21861   1.200   3.300   6.142
  190SAPI    C321862   0.738   3.180   6.281
  190SAPI    HX21863   0.716   3.260   6.207
  190SAPI    HY21864   0.663   3.181   6.363
  190SAPI   O3121865   0.760   3.046   6.225
  190SAPI   C3121866   0.737   2.940   6.306
  190SAPI   O3221867   0.709   2.954   6.425
  190SAPI   C3221868   0.750   2.806   6.249
  190SAPI   H2X21869   0.710   2.789   6.147
  190SAPI   H2Y21870   0.686   2.738   6.310
  190SAPI   C2321871   1.191   3.093   6.026
  190SAPI   H3R21872   1.105   3.039   5.983
  190SAPI   H3S21873   1.236   3.020   6.097
  190SAPI   C2421874   1.290   3.128   5.916
  190SAPI   H4R21875   1.323   3.036   5.862
  190SAPI   H4S21876   1.381   3.169   5.965
  190SAPI   C2521877   1.241   3.237   5.820
  190SAPI   H5R21878   1.222   3.337   5.861
  190SAPI   C2621879   1.233   3.235   5.690
  190SAPI   H6R21880   1.191   3.321   5.636
  190SAPI   C2721881   1.273   3.114   5.602
  190SAPI   H7R21882   1.174   3.063   5.596
  190SAPI   H7S21883   1.343   3.037   5.642
  190SAPI   C2821884   1.328   3.157   5.466
  190SAPI   H8R21885   1.405   3.236   5.466
  190SAPI   C2921886   1.292   3.122   5.341
  190SAPI   H9R21887   1.338   3.176   5.257
  190SAPI  C21021888   1.181   3.024   5.313
  190SAPI  H10R21889   1.088   3.085   5.323
  190SAPI  H10S21890   1.180   2.949   5.395
  190SAPI  C21121891   1.191   2.960   5.178
  190SAPI  H11R21892   1.205   2.851   5.175
  190SAPI  C21221893   1.184   3.019   5.064
  190SAPI  H12R21894   1.189   2.945   4.983
  190SAPI  C21321895   1.180   3.164   5.028
  190SAPI  H13R21896   1.192   3.214   5.127
  190SAPI  H13S21897   1.075   3.189   5.001
  190SAPI  C21421898   1.299   3.199   4.933
  190SAPI  H14R21899   1.398   3.187   4.980
  190SAPI  C21521900   1.287   3.256   4.807
  190SAPI  H15R21901   1.371   3.282   4.741
  190SAPI  C21621902   1.164   3.295   4.732
  190SAPI  H16R21903   1.124   3.394   4.759
  190SAPI  H16S21904   1.097   3.208   4.750
  190SAPI  C21721905   1.193   3.296   4.589
  190SAPI  H17R21906   1.222   3.195   4.552
  190SAPI  H17S21907   1.287   3.352   4.566
  190SAPI  C21821908   1.077   3.338   4.502
  190SAPI  H18R21909   0.976   3.298   4.527
  190SAPI  H18S21910   1.091   3.285   4.405
  190SAPI  C21921911   1.069   3.491   4.488
  190SAPI  H19R21912   1.166   3.508   4.435
  190SAPI  H19S21913   1.066   3.533   4.590
  190SAPI  C22021914   0.960   3.533   4.401
  190SAPI  H20R21915   0.931   3.640   4.401
  190SAPI  H20S21916   0.865   3.477   4.421
  190SAPI  H20T21917   0.979   3.526   4.292
  190SAPI   C3321918   0.900   2.760   6.243
  190SAPI   H3X21919   0.938   2.729   6.343
  190SAPI   H3Y21920   0.968   2.840   6.209
  190SAPI   C3421921   0.922   2.632   6.162
  190SAPI   H4X21922   0.843   2.561   6.194
  190SAPI   H4Y21923   1.018   2.581   6.184
  190SAPI   C3521924   0.908   2.651   6.004
  190SAPI   H5X21925   0.802   2.671   5.977
  190SAPI   H5Y21926   0.930   2.548   5.969
  190SAPI   C3621927   1.004   2.755   5.948
  190SAPI   H6X21928   1.112   2.741   5.969
  190SAPI   H6Y21929   0.969   2.849   5.996
  190SAPI   C3721930   0.990   2.766   5.794
  190SAPI   H7X21931   1.075   2.826   5.755
  190SAPI   H7Y21932   0.891   2.814   5.777
  190SAPI   C3821933   0.994   2.632   5.710
  190SAPI   H8X21934   0.891   2.590   5.706
  190SAPI   H8Y21935   1.055   2.546   5.746
  190SAPI   C3921936   1.032   2.663   5.563
  190SAPI   H9X21937   1.142   2.663   5.573
  190SAPI   H9Y21938   0.984   2.760   5.538
  190SAPI  C31021939   0.965   2.569   5.465
  190SAPI  H10X21940   0.857   2.561   5.491
  190SAPI  H10Y21941   1.010   2.467   5.477
  190SAPI  C31121942   0.981   2.609   5.316
  190SAPI  H11X21943   1.085   2.590   5.281
  190SAPI  H11Y21944   0.960   2.718   5.314
  190SAPI  C31221945   0.888   2.530   5.220
  190SAPI  H12X21946   0.784   2.568   5.228
  190SAPI  H12Y21947   0.891   2.420   5.238
  190SAPI  C31321948   0.923   2.531   5.067
  190SAPI  H13X21949   0.841   2.476   5.015
  190SAPI  H13Y21950   1.021   2.480   5.058
  190SAPI  C31421951   0.918   2.671   4.998
  190SAPI  H14X21952   0.988   2.736   5.055
  190SAPI  H14Y21953   0.819   2.722   4.994
  190SAPI  C31521954   0.969   2.665   4.859
  190SAPI  H15X21955   0.896   2.601   4.805
  190SAPI  H15Y21956   1.069   2.618   4.849
  190SAPI  C31621957   0.977   2.795   4.788
  190SAPI  H16X21958   1.077   2.836   4.815
  190SAPI  H16Y21959   0.907   2.868   4.832
  190SAPI  C31721960   0.969   2.796   4.642
  190SAPI  H17X21961   0.871   2.750   4.615
  190SAPI  H17Y21962   1.050   2.735   4.595
  190SAPI  C31821963   0.967   2.942   4.588
  190SAPI  H18X21964   0.869   2.995   4.591
  190SAPI  H18Y21965   0.993   2.957   4.481
  190SAPI  H18Z21966   1.041   2.997   4.649
  191SAPI   C1221967   4.211   4.663   2.105
  191SAPI    H221968   4.298   4.594   2.106
  191SAPI    O221969   4.247   4.777   2.183
  191SAPI   HO221970   4.195   4.777   2.263
  191SAPI   C1321971   4.171   4.698   1.965
  191SAPI    H321972   4.175   4.601   1.910
  191SAPI    O321973   4.269   4.766   1.890
  191SAPI   HO321974   4.296   4.702   1.823
  191SAPI   C1421975   4.042   4.765   1.950
  191SAPI    H421976   4.050   4.869   1.988
  191SAPI    O421977   4.007   4.774   1.813
  191SAPI   HO421978   4.045   4.856   1.779
  191SAPI   C1521979   3.918   4.705   2.027
  191SAPI    H521980   3.888   4.615   1.969
  191SAPI    O521981   3.815   4.801   2.037
  191SAPI   HO521982   3.732   4.760   2.011
  191SAPI   C1621983   3.955   4.651   2.166
  191SAPI    H621984   3.958   4.740   2.232
  191SAPI    O621985   3.854   4.561   2.213
  191SAPI   HO621986   3.878   4.470   2.196
  191SAPI   C1121987   4.097   4.591   2.172
  191SAPI    H121988   4.087   4.496   2.115
  191SAPI     P21989   4.142   4.421   2.373
  191SAPI   O1321990   4.043   4.343   2.296
  191SAPI   O1421991   4.130   4.426   2.515
  191SAPI   O1221992   4.143   4.567   2.308
  191SAPI   O1121993   4.285   4.367   2.327
  191SAPI    C121994   4.406   4.434   2.361
  191SAPI    HA21995   4.419   4.525   2.297
  191SAPI    HB21996   4.409   4.465   2.467
  191SAPI    C221997   4.511   4.322   2.348
  191SAPI    HS21998   4.501   4.293   2.241
  191SAPI   O2121999   4.479   4.221   2.445
  191SAPI   C2122000   4.498   4.096   2.398
  191SAPI   O2222001   4.543   4.072   2.289
  191SAPI   C2222002   4.461   4.001   2.515
  191SAPI   H2R22003   4.533   4.029   2.594
  191SAPI   H2S22004   4.355   4.021   2.540
  191SAPI    C322005   4.662   4.372   2.359
  191SAPI    HX22006   4.664   4.458   2.289
  191SAPI    HY22007   4.726   4.289   2.322
  191SAPI   O3122008   4.684   4.436   2.484
  191SAPI   C3122009   4.735   4.345   2.572
  191SAPI   O3222010   4.760   4.229   2.551
  191SAPI   C3222011   4.743   4.410   2.719
  191SAPI   H2X22012   4.641   4.419   2.762
  191SAPI   H2Y22013   4.778   4.515   2.707
  191SAPI   C2322014   4.461   3.850   2.487
  191SAPI   H3R22015   4.559   3.822   2.443
  191SAPI   H3S22016   4.381   3.819   2.417
  191SAPI   C2422017   4.448   3.762   2.606
  191SAPI   H4R22018   4.539   3.766   2.669
  191SAPI   H4S22019   4.439   3.659   2.563
  191SAPI   C2522020   4.320   3.783   2.691
  191SAPI   H5R22021   4.228   3.762   2.633
  191SAPI   C2622022   4.334   3.836   2.815
  191SAPI   H6R22023   4.242   3.841   2.875
  191SAPI   C2722024   4.461   3.894   2.884
  191SAPI   H7R22025   4.560   3.879   2.837
  191SAPI   H7S22026   4.464   3.841   2.982
  191SAPI   C2822027   4.439   4.042   2.909
  191SAPI   H8R22028   4.498   4.108   2.843
  191SAPI   C2922029   4.397   4.099   3.020
  191SAPI   H9R22030   4.384   4.208   3.018
  191SAPI  C21022031   4.344   4.032   3.140
  191SAPI  H10R22032   4.303   3.930   3.129
  191SAPI  H10S22033   4.255   4.084   3.181
  191SAPI  C21122034   4.456   4.006   3.238
  191SAPI  H11R22035   4.535   3.937   3.205
  191SAPI  C21222036   4.456   4.054   3.361
  191SAPI  H12R22037   4.526   4.014   3.436
  191SAPI  C21322038   4.351   4.132   3.427
  191SAPI  H13R22039   4.310   4.058   3.498
  191SAPI  H13S22040   4.265   4.150   3.358
  191SAPI  C21422041   4.393   4.264   3.484
  191SAPI  H14R22042   4.382   4.344   3.410
  191SAPI  C21522043   4.440   4.286   3.612
  191SAPI  H15R22044   4.459   4.387   3.653
  191SAPI  C21622045   4.456   4.185   3.721
  191SAPI  H16R22046   4.567   4.180   3.730
  191SAPI  H16S22047   4.431   4.084   3.683
  191SAPI  C21722048   4.373   4.199   3.845
  191SAPI  H17R22049   4.385   4.098   3.889
  191SAPI  H17S22050   4.266   4.202   3.816
  191SAPI  C21822051   4.398   4.319   3.940
  191SAPI  H18R22052   4.372   4.413   3.888
  191SAPI  H18S22053   4.507   4.338   3.950
  191SAPI  C21922054   4.322   4.316   4.070
  191SAPI  H19R22055   4.351   4.230   4.134
  191SAPI  H19S22056   4.215   4.295   4.048
  191SAPI  C22022057   4.339   4.448   4.137
  191SAPI  H20R22058   4.291   4.525   4.072
  191SAPI  H20S22059   4.445   4.468   4.162
  191SAPI  H20T22060   4.286   4.454   4.234
  191SAPI   C3322061   4.831   4.332   2.814
  191SAPI   H3X22062   4.934   4.352   2.779
  191SAPI   H3Y22063   4.815   4.223   2.801
  191SAPI   C3422064   4.811   4.366   2.961
  191SAPI   H4X22065   4.886   4.444   2.988
  191SAPI   H4Y22066   4.834   4.273   3.018
  191SAPI   C3522067   4.667   4.404   3.004
  191SAPI   H5X22068   4.601   4.321   2.971
  191SAPI   H5Y22069   4.634   4.497   2.954
  191SAPI   C3622070   4.646   4.413   3.157
  191SAPI   H6X22071   4.679   4.311   3.188
  191SAPI   H6Y22072   4.538   4.428   3.176
  191SAPI   C3722073   4.719   4.524   3.225
  191SAPI   H7X22074   4.704   4.628   3.187
  191SAPI   H7Y22075   4.829   4.506   3.220
  191SAPI   C3822076   4.684   4.515   3.378
  191SAPI   H8X22077   4.742   4.427   3.413
  191SAPI   H8Y22078   4.576   4.487   3.375
  191SAPI   C3922079   4.709   4.643   3.462
  191SAPI   H9X22080   4.624   4.714   3.450
  191SAPI   H9Y22081   4.800   4.688   3.416
  191SAPI  C31022082   4.748   4.596   3.600
  191SAPI  H10X22083   4.840   4.533   3.597
  191SAPI  H10Y22084   4.678   4.516   3.631
  191SAPI  C31122085   4.750   4.693   3.713
  191SAPI  H11X22086   4.801   4.789   3.690
  191SAPI  H11Y22087   4.813   4.636   3.784
  191SAPI  C31222088   4.610   4.727   3.764
  191SAPI  H12X22089   4.580   4.635   3.819
  191SAPI  H12Y22090   4.536   4.743   3.682
  191SAPI  C31322091   4.594   4.842   3.869
  191SAPI  H13X22092   4.624   4.932   3.812
  191SAPI  H13Y22093   4.662   4.821   3.954
  191SAPI  C31422094   4.453   4.851   3.931
  191SAPI  H14X22095   4.427   4.753   3.976
  191SAPI  H14Y22096   4.379   4.881   3.853
  191SAPI  C31522097   4.437   4.949   4.052
  191SAPI  H15X22098   4.441   5.054   4.017
  191SAPI  H15Y22099   4.526   4.935   4.117
  191SAPI  C31622100   4.296   4.939   4.120
  191SAPI  H16X22101   4.266   4.836   4.148
  191SAPI  H16Y22102   4.225   4.963   4.038
  191SAPI  C31722103   4.282   5.026   4.243
  191SAPI  H17X22104   4.350   4.986   4.322
  191SAPI  H17Y22105   4.176   5.012   4.274
  191SAPI  C31822106   4.300   5.178   4.228
  191SAPI  H18X22107   4.408   5.199   4.209
  191SAPI  H18Y22108   4.273   5.224   4.325
  191SAPI  H18Z22109   4.237   5.220   4.147
  192SAPI   C1222110   0.194   0.095   1.639
  192SAPI    H222111   0.280   0.035   1.677
  192SAPI    O222112   0.225   0.231   1.626
  192SAPI   HO222113   0.210   0.275   1.710
  192SAPI   C1322114   0.163   0.028   1.501
  192SAPI    H322115   0.155   6.832   1.525
  192SAPI    O322116   0.269   0.045   1.411
  192SAPI   HO322117   0.247   6.908   1.332
  192SAPI   C1422118   0.033   0.077   1.442
  192SAPI    H422119   0.057   0.161   1.373
  192SAPI    O422120   6.887   6.885   1.368
  192SAPI   HO422121   6.838   0.006   1.293
  192SAPI   C1522122   6.843   0.145   1.537
  192SAPI    H522123   6.755   0.078   1.527
  192SAPI    O522124   6.797   0.275   1.487
  192SAPI   HO522125   6.716   0.260   1.438
  192SAPI   C1622126   6.871   0.151   1.687
  192SAPI    H622127   6.891   0.257   1.713
  192SAPI    O622128   6.760   0.125   1.767
  192SAPI   HO622129   6.755   0.187   1.840
  192SAPI   C1122130   0.079   0.071   1.739
  192SAPI    H122131   0.056   6.875   1.729
  192SAPI     P22132   0.203   0.025   1.977
  192SAPI   O1322133   0.274   0.113   2.070
  192SAPI   O1422134   0.287   6.841   1.905
  192SAPI   O1222135   0.120   0.119   1.871
  192SAPI   O1122136   0.072   6.873   2.051
  192SAPI    C122137   0.089   6.755   2.131
  192SAPI    HA22138   0.016   6.676   2.104
  192SAPI    HB22139   0.190   6.717   2.107
  192SAPI    C222140   0.062   6.781   2.278
  192SAPI    HS22141   0.076   6.683   2.327
  192SAPI   O2122142   6.838   6.831   2.285
  192SAPI   C2122143   6.749   6.727   2.284
  192SAPI   O2222144   6.782   6.611   2.271
  192SAPI   C2222145   6.607   6.795   2.287
  192SAPI   H2R22146   6.580   6.842   2.190
  192SAPI   H2S22147   6.531   6.715   2.303
  192SAPI    C322148   0.149   6.892   2.340
  192SAPI    HX22149   0.123   0.069   2.280
  192SAPI    HY22150   0.257   6.872   2.326
  192SAPI   O3122151   0.116   6.899   2.480
  192SAPI   C3122152   0.105   0.108   2.519
  192SAPI   O3222153   0.094   0.210   2.449
  192SAPI   C3222154   0.088   0.109   2.676
  192SAPI   H2X22155   0.190   0.088   2.715
  192SAPI   H2Y22156   0.026   0.019   2.696
  192SAPI   C2322157   6.590   6.905   2.391
  192SAPI   H3R22158   6.489   0.038   2.385
  192SAPI   H3S22159   6.659   0.072   2.354
  192SAPI   C2422160   6.634   6.866   2.525
  192SAPI   H4R22161   6.730   6.809   2.520
  192SAPI   H4S22162   6.560   6.793   2.564
  192SAPI   C2522163   6.652   0.075   2.621
  192SAPI   H5R22164   6.694   0.168   2.580
  192SAPI   C2622165   6.622   0.082   2.753
  192SAPI   H6R22166   6.631   0.181   2.799
  192SAPI   C2722167   6.588   6.885   2.855
  192SAPI   H7R22168   6.648   6.909   2.945
  192SAPI   H7S22169   6.621   6.784   2.820
  192SAPI   C2822170   6.441   6.863   2.889
  192SAPI   H8R22171   6.368   6.892   2.813
  192SAPI   C2922172   6.390   6.792   2.989
  192SAPI   H9R22173   6.283   6.777   3.007
  192SAPI  C21022174   6.489   6.728   3.088
  192SAPI  H10R22175   6.577   6.700   3.026
  192SAPI  H10S22176   6.441   6.634   3.120
  192SAPI  C21122177   6.524   6.805   3.209
  192SAPI  H11R22178   6.464   6.896   3.227
  192SAPI  C21222179   6.625   6.778   3.291
  192SAPI  H12R22180   6.658   6.853   3.365
  192SAPI  C21322181   6.720   6.661   3.276
  192SAPI  H13R22182   6.811   6.672   3.339
  192SAPI  H13S22183   6.754   6.643   3.172
  192SAPI  C21422184   6.658   6.538   3.339
  192SAPI  H14R22185   6.641   6.452   3.272
  192SAPI  C21522186   6.663   6.508   3.465
  192SAPI  H15R22187   6.618   6.412   3.493
  192SAPI  C21622188   6.707   6.605   3.576
  192SAPI  H16R22189   6.686   6.710   3.549
  192SAPI  H16S22190   6.815   6.594   3.596
  192SAPI  C21722191   6.635   6.572   3.709
  192SAPI  H17R22192   6.525   6.572   3.695
  192SAPI  H17S22193   6.663   6.648   3.785
  192SAPI  C21822194   6.668   6.440   3.776
  192SAPI  H18R22195   6.771   6.442   3.819
  192SAPI  H18S22196   6.684   6.357   3.704
  192SAPI  C21922197   6.566   6.391   3.880
  192SAPI  H19R22198   6.476   6.353   3.826
  192SAPI  H19S22199   6.540   6.468   3.955
  192SAPI  C22022200   6.619   6.266   3.943
  192SAPI  H20R22201   6.671   6.204   3.866
  192SAPI  H20S22202   6.538   6.193   3.964
  192SAPI  H20T22203   6.682   6.290   4.031
  192SAPI   C3322204   0.020   0.237   2.727
  192SAPI   H3X22205   6.822   0.227   2.722
  192SAPI   H3Y22206   0.054   0.326   2.669
  192SAPI   C3422207   0.063   0.283   2.867
  192SAPI   H4X22208   6.910   0.368   2.894
  192SAPI   H4Y22209   0.170   0.307   2.854
  192SAPI   C3522210   0.041   0.173   2.973
  192SAPI   H5X22211   0.099   0.078   2.973
  192SAPI   H5Y22212   6.844   0.155   2.965
  192SAPI   C3622213   0.055   0.226   3.113
  192SAPI   H6X22214   0.003   0.324   3.112
  192SAPI   H6Y22215   0.162   0.236   3.143
  192SAPI   C3722216   6.899   0.136   3.216
  192SAPI   H7X22217   0.012   0.029   3.199
  192SAPI   H7Y22218   6.789   0.149   3.210
  192SAPI   C3822219   0.015   0.178   3.359
  192SAPI   H8X22220   6.881   0.279   3.364
  192SAPI   H8Y22221   0.124   0.189   3.378
  192SAPI   C3922222   6.851   0.087   3.459
  192SAPI   H9X22223   6.878   6.897   3.424
  192SAPI   H9Y22224   6.742   0.107   3.457
  192SAPI  C31022225   0.000   0.114   3.596
  192SAPI  H10X22226   6.843   0.057   3.661
  192SAPI  H10Y22227   6.907   0.223   3.614
  192SAPI  C31122228   0.142   0.077   3.615
  192SAPI  H11X22229   0.218   0.128   3.553
  192SAPI  H11Y22230   0.145   6.883   3.580
  192SAPI  C31222231   0.185   0.085   3.763
  192SAPI  H12X22232   0.131   0.015   3.830
  192SAPI  H12Y22233   0.159   0.187   3.796
  192SAPI  C31322234   0.329   0.048   3.783
  192SAPI  H13X22235   0.347   6.852   3.762
  192SAPI  H13Y22236   0.356   0.053   3.890
  192SAPI  C31422237   0.436   0.140   3.709
  192SAPI  H14X22238   0.404   0.245   3.692
  192SAPI  H14Y22239   0.443   0.096   3.607
  192SAPI  C31522240   0.578   0.141   3.758
  192SAPI  H15X22241   0.586   0.169   3.865
  192SAPI  H15Y22242   0.617   0.214   3.684
  192SAPI  C31622243   0.664   0.018   3.720
  192SAPI  H16X22244   0.655   0.023   3.609
  192SAPI  H16Y22245   0.618   6.848   3.778
  192SAPI  C31722246   0.809   0.039   3.771
  192SAPI  H17X22247   0.818   0.150   3.777
  192SAPI  H17Y22248   0.891   0.003   3.705
  192SAPI  C31822249   0.835   6.892   3.915
  192SAPI  H18X22250   0.931   0.022   3.952
  192SAPI  H18Y22251   0.826   6.782   3.917
  192SAPI  H18Z22252   0.759   0.020   3.985
  193SOD    SOD22253   6.341   4.774   1.200
  194SOD    SOD22254   3.983   6.593   6.781
  195SOD    SOD22255   1.861   1.791   8.071
  196SOD    SOD22256   5.049   6.251   0.837
  197SOD    SOD22257   2.424   1.179   6.331
  198SOD    SOD22258   3.082   0.485   8.594
  199SOD    SOD22259   2.035   0.238   1.344
  200SOD    SOD22260   3.760   3.848   1.840
  201SOD    SOD22261   4.244   5.720   2.152
  202SOD    SOD22262   4.352   2.548   1.009
  203SOD    SOD22263   4.341   4.415   7.265
  204SOD    SOD22264   2.151   4.280   6.849
  205SOD    SOD22265   1.162   3.127   7.217
  206SOD    SOD22266   5.518   1.635   0.954
  207SOD    SOD22267   4.398   3.905   1.884
  208SOD    SOD22268   2.610   1.666   6.667
  209SOD    SOD22269   3.958   2.889   1.980
  210SOD    SOD22270   0.738   0.882   6.539
  211SOD    SOD22271   2.185   3.500   7.990
  212SOD    SOD22272   5.787   5.935   2.268
  213SOD    SOD22273   3.370   5.616   7.623
  214SOD    SOD22274   4.500   1.524   6.949
  215SOD    SOD22275   4.438   4.874   2.069
  216SOD    SOD22276   5.895   1.973   7.639
  217SOD    SOD22277   3.052   0.746   7.301
  218SOD    SOD22278   6.663   3.424   1.499
  219SOD    SOD22279   5.027   2.296   7.122
  220SOD    SOD22280   2.015   5.365   6.665
  221SOD    SOD22281   3.815   4.066   0.466
  222SOD    SOD22282   1.220   4.945   8.516
  223SOD    SOD22283   4.238   0.095   2.070
  224SOD    SOD22284   5.973   5.155   7.634
  225SOD    SOD22285   6.068   6.761   6.220
  226SOD    SOD22286   2.747   5.111   1.259
  227SOD    SOD22287   1.587   0.987   0.112
  228SOD    SOD22288   5.038   0.196   0.782
  229SOD    SOD22289   0.970   1.259   7.063
  230SOD    SOD22290   4.258   4.841   0.105
  231SOD    SOD22291   1.513   5.814   8.176
  232SOD    SOD22292   1.311   2.562   8.386
  233SOD    SOD22293   2.270   1.812   2.214
  234CLA    CLA22294   4.957   3.539   7.568
  235CLA    CLA22295   3.878   5.531   7.535
  236CLA    CLA22296   5.363   1.654   7.680
  237CLA    CLA22297   4.635   1.933   7.585
  238CLA    CLA22298   6.534   2.654   7.839
  239CLA    CLA22299   1.583   6.077   0.044
  240CLA    CLA22300   0.410   5.519   1.499
  241CLA    CLA22301   6.501   2.213   0.894
  242CLA    CLA22302   3.623   2.932   8.370
  243CLA    CLA22303   1.144   3.430   0.874
  244CLA    CLA22304   1.490   5.197   8.222
  245CLA    CLA22305   1.760   4.420   0.731
  246CLA    CLA22306   4.218   6.788   7.119
  247CLA    CLA22307   5.218   4.938   0.380
  248CLA    CLA22308   1.357   2.069   0.070
  249CLA    CLA22309   2.337   1.950   0.047
  250CLA    CLA22310   5.432   2.902   8.164
  251TIP3   OH222311   0.136   3.583   8.268
  251TIP3    H122312   0.114   3.490   8.272
  251TIP3    H222313   0.057   3.627   8.299
  252TIP3   OH222314   4.838   5.544   8.177
  252TIP3    H122315   4.800   5.458   8.188
  252TIP3    H222316   4.840   5.582   8.265
  253TIP3   OH222317   3.358   4.351   1.306
  253TIP3    H122318   3.295   4.301   1.358
  253TIP3    H222319   3.440   4.303   1.316
  254TIP3   OH222320   1.230   4.570   1.731
  254TIP3    H122321   1.323   4.593   1.733
  254TIP3    H222322   1.203   4.574   1.822
  255TIP3   OH222323   0.136   1.610   1.008
  255TIP3    H122324   0.124   1.648   1.096
  255TIP3    H222325   0.220   1.644   0.979
  256TIP3   OH222326   4.449   5.058   1.262
  256TIP3    H122327   4.499   4.995   1.211
  256TIP3    H222328   4.496   5.140   1.252
  257TIP3   OH222329   0.815   2.291   0.097
  257TIP3    H122330   0.877   2.219   0.098
  257TIP3    H222331   0.765   2.279   0.015
  258TIP3   OH222332   6.462   5.163   7.684
  258TIP3    H122333   6.421   5.176   7.769
  258TIP3    H222334   6.486   5.071   7.682
  259TIP3   OH222335   5.008   3.914   1.520
  259TIP3    H122336   4.956   3.878   1.592
  259TIP3    H222337   4.962   3.994   1.495
  260TIP3   OH222338   5.984   2.019   1.278
  260TIP3    H122339   6.047   1.992   1.210
  260TIP3    H222340   5.914   2.062   1.229
  261TIP3   OH222341   4.020   1.524   0.395
  261TIP3    H122342   3.950   1.521   0.329
  261TIP3    H222343   4.005   1.446   0.449
  262TIP3   OH222344   1.676   6.815   1.607
  262TIP3    H122345   1.598   6.868   1.596
  262TIP3    H222346   1.647   6.725   1.593
  263TIP3   OH222347   5.750   6.705   8.481
  263TIP3    H122348   5.752   6.610   8.465
  263TIP3    H222349   5.837   6.736   8.456
  264TIP3   OH222350   0.067   4.237   6.270
  264TIP3    H122351   0.075   4.261   6.362
  264TIP3    H222352   0.153   4.201   6.247
  265TIP3   OH222353   3.880   2.451   0.168
  265TIP3    H122354   3.959   2.487   0.128
  265TIP3    H222355   3.900   2.446   0.262
  266TIP3   OH222356   0.855   2.783   0.049
  266TIP3    H122357   0.847   2.688   0.061
  266TIP3    H222358   0.800   2.820   0.118
  267TIP3   OH222359   0.617   6.813   1.291
  267TIP3    H122360   0.523   6.801   1.279
  267TIP3    H222361   0.632   6.795   1.384
  268TIP3   OH222362   0.318   2.221   0.552
  268TIP3    H122363   0.226   2.195   0.545
  268TIP3    H222364   0.367   2.140   0.535
  269TIP3   OH222365   4.277   6.538   1.411
  269TIP3    H122366   4.254   6.493   1.329
  269TIP3    H222367   4.366   6.510   1.430
  270TIP3   OH222368   5.767   1.255   8.026
  270TIP3    H122369   5.699   1.240   8.091
  270TIP3    H222370   5.795   1.168   7.999
  271TIP3   OH222371   1.465   5.681   7.223
  271TIP3    H122372   1.507   5.686   7.137
  271TIP3    H222373   1.524   5.627   7.275
  272TIP3   OH222374   2.543   3.979   6.918
  272TIP3    H122375   2.604   4.048   6.894
  272TIP3    H222376   2.534   3.987   7.013
  273TIP3   OH222377   1.138   5.348   6.942
  273TIP3    H122378   1.097   5.324   6.859
  273TIP3    H222379   1.066   5.383   6.995
  274TIP3   OH222380   3.501   0.457   1.803
  274TIP3    H122381   3.515   0.451   1.898
  274TIP3    H222382   3.541   0.540   1.778
  275TIP3   OH222383   6.664   2.863   6.364
  275TIP3    H122384   6.676   2.802   6.292
  275TIP3    H222385   6.677   2.950   6.325
  276TIP3   OH222386   0.412   2.326   0.140
  276TIP3    H122387   0.390   2.366   0.057
  276TIP3    H222388   0.399   2.395   0.205
  277TIP3   OH222389   1.663   1.539   5.874
  277TIP3    H122390   1.614   1.517   5.953
  277TIP3    H222391   1.667   1.457   5.825
  278TIP3   OH222392   0.243   0.924   7.630
  278TIP3    H122393   0.237   0.846   7.575
  278TIP3    H222394   0.179   0.909   7.699
  279TIP3   OH222395   3.282   5.732   1.623
  279TIP3    H122396   3.332   5.812   1.642
  279TIP3    H222397   3.249   5.703   1.708
  280TIP3   OH222398   3.832   5.085   6.835
  280TIP3    H122399   3.908   5.085   6.894
  280TIP3    H222400   3.838   5.001   6.790
  281TIP3   OH222401   0.321   4.619   7.388
  281TIP3    H122402   0.264   4.695   7.401
  281TIP3    H222403   0.409   4.652   7.402
  282TIP3   OH222404   3.231   3.821   7.128
  282TIP3    H122405   3.138   3.830   7.108
  282TIP3    H222406   3.238   3.735   7.171
  283TIP3   OH222407   2.388   2.933   1.212
  283TIP3    H122408   2.389   2.911   1.119
  283TIP3    H222409   2.472   2.901   1.246
  284TIP3   OH222410   1.586   5.842   1.745
  284TIP3    H122411   1.559   5.873   1.832
  284TIP3    H222412   1.505   5.840   1.694
  285TIP3   OH222413   1.630   5.970   8.015
  285TIP3    H122414   1.626   6.062   7.988
  285TIP3    H222415   1.717   5.941   7.988
  286TIP3   OH222416   4.833   4.945   0.765
  286TIP3    H122417   4.857   4.875   0.705
  286TIP3    H222418   4.915   4.972   0.806
  287TIP3   OH222419   6.849   1.231   7.324
  287TIP3    H122420   6.839   1.198   7.235
  287TIP3    H222421   0.017   1.191   7.356
  288TIP3   OH222422   5.807   5.484   0.493
  288TIP3    H122423   5.818   5.537   0.573
  288TIP3    H222424   5.896   5.479   0.456
  289TIP3   OH222425   4.400   2.021   0.618
  289TIP3    H122426   4.418   2.065   0.535
  289TIP3    H222427   4.341   2.080   0.664
  290TIP3   OH222428   6.032   6.358   7.794
  290TIP3    H122429   6.122   6.352   7.761
  290TIP3    H222430   6.018   6.451   7.809
  291TIP3   OH222431   2.410   2.108   8.221
  291TIP3    H122432   2.440   2.198   8.209
  291TIP3    H222433   2.440   2.084   8.308
  292TIP3   OH222434   3.221   4.923   6.133
  292TIP3    H122435   3.313   4.928   6.109
  292TIP3    H222436   3.221   4.892   6.223
  293TIP3   OH222437   6.104   5.682   1.785
  293TIP3    H122438   6.198   5.695   1.772
  293TIP3    H222439   6.069   5.770   1.795
  294TIP3   OH222440   3.353   2.341   6.742
  294TIP3    H122441   3.363   2.364   6.650
  294TIP3    H222442   3.411   2.266   6.755
  295TIP3   OH222443   3.795   2.992   1.001
  295TIP3    H122444   3.723   2.996   0.937
  295TIP3    H222445   3.873   3.006   0.948
  296TIP3   OH222446   3.744   6.081   6.627
  296TIP3    H122447   3.686   6.143   6.672
  296TIP3    H222448   3.697   5.997   6.633
  297TIP3   OH222449   0.770   1.405   8.560
  297TIP3    H122450   0.771   1.406   0.052
  297TIP3    H222451   0.793   1.315   8.536
  298TIP3   OH222452   3.009   6.077   7.085
  298TIP3    H122453   2.999   6.094   7.179
  298TIP3    H222454   3.093   6.116   7.062
  299TIP3   OH222455   6.464   3.778   6.749
  299TIP3    H122456   6.416   3.784   6.667
  299TIP3    H222457   6.426   3.845   6.805
  300TIP3   OH222458   0.188   6.446   6.247
  300TIP3    H122459   0.236   6.373   6.286
  300TIP3    H222460   0.096   6.421   6.252
  301TIP3   OH222461   4.070   6.399   7.133
  301TIP3    H122462   4.113   6.435   7.056
  301TIP3    H222463   4.116   6.317   7.151
  302TIP3   OH222464   5.082   6.016   7.690
  302TIP3    H122465   5.115   6.055   7.771
  302TIP3    H222466   5.116   5.926   7.691
  303TIP3   OH222467   5.418   2.919   7.395
  303TIP3    H122468   5.479   2.899   7.466
  303TIP3    H222469   5.342   2.957   7.439
  304TIP3   OH222470   3.158   2.482   7.781
  304TIP3    H122471   3.169   2.485   7.686
  304TIP3    H222472   3.244   2.458   7.814
  305TIP3   OH222473   1.455   0.962   7.892
  305TIP3    H122474   1.385   0.970   7.827
  305TIP3    H222475   1.417   0.907   7.961
  306TIP3   OH222476   4.949   1.648   0.973
  306TIP3    H122477   4.929   1.739   0.952
  306TIP3    H222478   5.033   1.652   1.019
  307TIP3   OH222479   2.227   4.618   7.464
  307TIP3    H122480   2.216   4.712   7.452
  307TIP3    H222481   2.164   4.595   7.532
  308TIP3   OH222482   2.845   5.899   2.340
  308TIP3    H122483   2.845   5.805   2.355
  308TIP3    H222484   2.923   5.931   2.385
  309TIP3   OH222485   5.347   6.535   0.850
  309TIP3    H122486   5.426   6.568   0.807
  309TIP3    H222487   5.327   6.600   0.917
  310TIP3   OH222488   6.061   3.332   1.185
  310TIP3    H122489   6.016   3.380   1.116
  310TIP3    H222490   6.007   3.344   1.263
  311TIP3   OH222491   0.985   4.162   2.093
  311TIP3    H122492   0.962   4.253   2.077
  311TIP3    H222493   1.078   4.165   2.114
  312TIP3   OH222494   4.992   0.683   7.676
  312TIP3    H122495   4.962   0.701   7.587
  312TIP3    H222496   4.929   0.727   7.732
  313TIP3   OH222497   0.777   4.015   0.335
  313TIP3    H122498   0.708   4.059   0.286
  313TIP3    H222499   0.735   3.987   0.416
  314TIP3   OH222500   3.177   1.129   6.563
  314TIP3    H122501   3.212   1.198   6.508
  314TIP3    H222502   3.245   1.062   6.566
  315TIP3   OH222503   4.546   3.073   1.410
  315TIP3    H122504   4.618   3.042   1.465
  315TIP3    H222505   4.529   3.163   1.439
  316TIP3   OH222506   4.211   4.158   0.208
  316TIP3    H122507   4.191   4.144   0.300
  316TIP3    H222508   4.205   4.071   0.169
  317TIP3   OH222509   4.968   6.895   0.713
  317TIP3    H122510   4.938   6.892   0.622
  317TIP3    H222511   5.013   6.812   0.727
  318TIP3   OH222512   4.001   6.610   1.198
  318TIP3    H122513   4.043   6.630   1.282
  318TIP3    H222514   3.995   6.695   1.154
  319TIP3   OH222515   4.021   3.565   0.877
  319TIP3    H122516   4.097   3.515   0.848
  319TIP3    H222517   4.020   3.555   0.973
  320TIP3   OH222518   0.655   3.567   8.455
  320TIP3    H122519   0.572   3.552   8.410
  320TIP3    H222520   0.629   3.586   8.546
  321TIP3   OH222521   2.021   4.834   7.537
  321TIP3    H122522   2.014   4.891   7.613
  321TIP3    H222523   2.102   4.863   7.493
  322TIP3   OH222524   1.634   2.056   0.796
  322TIP3    H122525   1.569   2.091   0.858
  322TIP3    H222526   1.713   2.107   0.814
  323TIP3   OH222527   2.805   4.136   1.417
  323TIP3    H122528   2.731   4.196   1.400
  323TIP3    H222529   2.826   4.149   1.509
  324TIP3   OH222530   0.914   0.886   6.875
  324TIP3    H122531   0.875   0.973   6.867
  324TIP3    H222532   1.008   0.901   6.871
  325TIP3   OH222533   6.590   3.200   7.754
  325TIP3    H122534   6.502   3.234   7.771
  325TIP3    H222535   6.578   3.105   7.752
  326TIP3   OH222536   2.791   0.923   6.462
  326TIP3    H122537   2.880   0.925   6.428
  326TIP3    H222538   2.779   0.834   6.494
  327TIP3   OH222539   5.784   0.972   1.963
  327TIP3    H122540   5.720   1.015   2.020
  327TIP3    H222541   5.761   0.880   1.966
  328TIP3   OH222542   3.440   5.974   1.721
  328TIP3    H122543   3.531   5.950   1.707
  328TIP3    H222544   3.443   6.048   1.781
  329TIP3   OH222545   2.464   4.157   6.309
  329TIP3    H122546   2.516   4.153   6.389
  329TIP3    H222547   2.518   4.113   6.243
  330TIP3   OH222548   1.855   5.463   1.613
  330TIP3    H122549   1.769   5.425   1.599
  330TIP3    H222550   1.875   5.510   1.533
  331TIP3   OH222551   4.021   4.943   1.530
  331TIP3    H122552   4.071   4.941   1.449
  331TIP3    H222553   3.930   4.945   1.503
  332TIP3   OH222554   5.444   1.777   7.142
  332TIP3    H122555   5.414   1.781   7.233
  332TIP3    H222556   5.452   1.868   7.114
  333TIP3   OH222557   5.268   6.691   0.069
  333TIP3    H122558   5.211   6.744   0.013
  333TIP3    H222559   5.355   6.702   0.031
  334TIP3   OH222560   1.107   0.149   0.837
  334TIP3    H122561   1.140   0.108   0.917
  334TIP3    H222562   1.126   0.085   0.768
  335TIP3   OH222563   5.376   0.252   6.286
  335TIP3    H122564   5.447   0.275   6.226
  335TIP3    H222565   5.303   0.227   6.229
  336TIP3   OH222566   4.815   1.359   0.404
  336TIP3    H122567   4.720   1.371   0.404
  336TIP3    H222568   4.845   1.403   0.325
  337TIP3   OH222569   4.908   2.619   6.294
  337TIP3    H122570   4.834   2.678   6.311
  337TIP3    H222571   4.868   2.533   6.283
  338TIP3   OH222572   6.549   3.197   1.226
  338TIP3    H122573   6.572   3.181   1.318
  338TIP3    H222574   6.593   3.127   1.178
  339TIP3   OH222575   1.697   2.442   7.853
  339TIP3    H122576   1.626   2.449   7.917
  339TIP3    H222577   1.751   2.520   7.870
  340TIP3   OH222578   5.475   3.408   8.407
  340TIP3    H122579   5.540   3.410   8.478
  340TIP3    H222580   5.405   3.352   8.441
  341TIP3   OH222581   5.790   0.853   0.419
  341TIP3    H122582   5.724   0.903   0.371
  341TIP3    H222583   5.868   0.909   0.418
  342TIP3   OH222584   4.428   3.466   1.225
  342TIP3    H122585   4.386   3.551   1.240
  342TIP3    H222586   4.496   3.484   1.161
  343TIP3   OH222587   0.965   5.155   6.793
  343TIP3    H122588   0.935   5.068   6.818
  343TIP3    H222589   0.894   5.213   6.823
  344TIP3   OH222590   1.380   0.666   0.370
  344TIP3    H122591   1.453   0.645   0.311
  344TIP3    H222592   1.372   0.590   0.427
  345TIP3   OH222593   0.334   4.780   8.003
  345TIP3    H122594   0.362   4.827   8.082
  345TIP3    H222595   0.376   4.694   8.011
  346TIP3   OH222596   6.247   3.006   8.267
  346TIP3    H122597   6.280   2.917   8.272
  346TIP3    H222598   6.312   3.054   8.215
  347TIP3   OH222599   1.603   4.649   6.742
  347TIP3    H122600   1.684   4.695   6.717
  347TIP3    H222601   1.588   4.587   6.670
  348TIP3   OH222602   4.863   4.659   7.739
  348TIP3    H122603   4.929   4.690   7.802
  348TIP3    H222604   4.907   4.587   7.692
  349TIP3   OH222605   2.964   5.530   1.561
  349TIP3    H122606   3.033   5.529   1.628
  349TIP3    H222607   3.010   5.552   1.480
  350TIP3   OH222608   2.167   5.200   1.474
  350TIP3    H122609   2.222   5.194   1.552
  350TIP3    H222610   2.228   5.219   1.403
  351TIP3   OH222611   2.689   5.083   7.732
  351TIP3    H122612   2.654   5.029   7.803
  351TIP3    H222613   2.620   5.085   7.666
  352TIP3   OH222614   3.219   4.443   8.248
  352TIP3    H122615   3.299   4.396   8.272
  352TIP3    H222616   3.155   4.417   8.313
  353TIP3   OH222617   5.979   2.068   6.902
  353TIP3    H122618   5.929   2.049   6.823
  353TIP3    H222619   5.958   1.996   6.961
  354TIP3   OH222620   3.139   2.720   7.913
  354TIP3    H122621   3.159   2.636   7.873
  354TIP3    H222622   3.072   2.758   7.856
  355TIP3   OH222623   0.774   4.457   6.823
  355TIP3    H122624   0.703   4.468   6.760
  355TIP3    H222625   0.853   4.479   6.774
  356TIP3   OH222626   0.992   1.194   2.146
  356TIP3    H122627   0.997   1.193   2.050
  356TIP3    H222628   1.082   1.176   2.175
  357TIP3   OH222629   5.588   1.184   8.553
  357TIP3    H122630   5.662   1.210   0.005
  357TIP3    H222631   5.619   1.107   8.505
  358TIP3   OH222632   1.674   5.831   6.105
  358TIP3    H122633   1.736   5.871   6.044
  358TIP3    H222634   1.686   5.878   6.187
  359TIP3   OH222635   4.275   1.141   7.063
  359TIP3    H122636   4.221   1.063   7.045
  359TIP3    H222637   4.336   1.112   7.131
  360TIP3   OH222638   0.295   5.030   6.538
  360TIP3    H122639   0.317   5.063   6.451
  360TIP3    H222640   0.351   5.080   6.597
  361TIP3   OH222641   6.223   2.227   6.997
  361TIP3    H122642   6.136   2.189   6.985
  361TIP3    H222643   6.263   2.221   6.911
  362TIP3   OH222644   0.411   3.540   8.051
  362TIP3    H122645   0.497   3.508   8.022
  362TIP3    H222646   0.409   3.519   8.145
  363TIP3   OH222647   0.594   6.427   0.019
  363TIP3    H122648   0.648   6.422   0.098
  363TIP3    H222649   0.654   6.410   8.550
  364TIP3   OH222650   1.603   6.826   6.898
  364TIP3    H122651   1.639   6.852   6.813
  364TIP3    H222652   1.525   6.881   6.909
  365TIP3   OH222653   2.454   6.445   7.799
  365TIP3    H122654   2.486   6.529   7.830
  365TIP3    H222655   2.417   6.463   7.713
  366TIP3   OH222656   4.569   5.456   8.509
  366TIP3    H122657   4.527   5.375   8.479
  366TIP3    H222658   4.519   5.482   8.586
  367TIP3   OH222659   3.937   0.316   7.353
  367TIP3    H122660   3.901   0.300   7.440
  367TIP3    H222661   3.936   0.231   7.310
  368TIP3   OH222662   4.531   2.284   1.533
  368TIP3    H122663   4.581   2.207   1.510
  368TIP3    H222664   4.528   2.336   1.452
  369TIP3   OH222665   3.606   1.809   8.569
  369TIP3    H122666   3.657   1.824   8.489
  369TIP3    H222667   3.567   1.723   8.557
  370TIP3   OH222668   1.399   5.119   0.870
  370TIP3    H122669   1.425   5.124   0.778
  370TIP3    H222670   1.446   5.042   0.904
  371TIP3   OH222671   5.268   2.748   0.054
  371TIP3    H122672   5.336   2.793   0.003
  371TIP3    H222673   5.280   2.656   0.033
  372TIP3   OH222674   5.924   3.513   0.091
  372TIP3    H122675   5.871   3.552   0.022
  372TIP3    H222676   5.861   3.493   0.160
  373TIP3   OH222677   0.553   4.798   7.059
  373TIP3    H122678   0.607   4.738   7.111
  373TIP3    H222679   0.490   4.834   7.121
  374TIP3   OH222680   0.992   4.619   6.688
  374TIP3    H122681   1.064   4.570   6.648
  374TIP3    H222682   0.944   4.656   6.613
  375TIP3   OH222683   5.399   5.144   6.907
  375TIP3    H122684   5.348   5.076   6.862
  375TIP3    H222685   5.474   5.159   6.849
  376TIP3   OH222686   3.016   0.872   7.800
  376TIP3    H122687   2.981   0.906   7.883
  376TIP3    H222688   2.944   0.882   7.738
  377TIP3   OH222689   0.112   3.223   6.344
  377TIP3    H122690   0.108   3.312   6.310
  377TIP3    H222691   0.200   3.193   6.325
  378TIP3   OH222692   3.938   3.617   1.450
  378TIP3    H122693   3.925   3.538   1.502
  378TIP3    H222694   4.020   3.654   1.483
  379TIP3   OH222695   2.790   0.821   7.650
  379TIP3    H122696   2.727   0.751   7.669
  379TIP3    H222697   2.829   0.797   7.566
  380TIP3   OH222698   3.659   6.822   8.308
  380TIP3    H122699   3.691   6.912   8.310
  380TIP3    H222700   3.650   6.803   8.214
  381TIP3   OH222701   0.661   0.417   8.236
  381TIP3    H122702   0.633   0.471   8.309
  381TIP3    H222703   0.740   0.460   8.202
  382TIP3   OH222704   4.363   5.851   7.581
  382TIP3    H122705   4.383   5.826   7.491
  382TIP3    H222706   4.317   5.775   7.617
  383TIP3   OH222707   5.964   2.352   6.703
  383TIP3    H122708   5.876   2.321   6.727
  383TIP3    H222709   6.015   2.273   6.688
  384TIP3   OH222710   0.185   5.973   7.477
  384TIP3    H122711   0.203   5.972   7.383
  384TIP3    H222712   0.178   5.881   7.502
  385TIP3   OH222713   4.363   2.665   8.189
  385TIP3    H122714   4.441   2.610   8.184
  385TIP3    H222715   4.365   2.716   8.108
  386TIP3   OH222716   5.572   3.956   7.718
  386TIP3    H122717   5.620   4.019   7.771
  386TIP3    H222718   5.571   3.994   7.630
  387TIP3   OH222719   2.193   0.219   0.871
  387TIP3    H122720   2.252   0.206   0.797
  387TIP3    H222721   2.247   0.201   0.948
  388TIP3   OH222722   3.144   6.495   1.799
  388TIP3    H122723   3.056   6.525   1.776
  388TIP3    H222724   3.145   6.402   1.774
  389TIP3   OH222725   1.547   5.834   6.593
  389TIP3    H122726   1.579   5.772   6.529
  389TIP3    H222727   1.621   5.850   6.651
  390TIP3   OH222728   5.482   6.721   1.916
  390TIP3    H122729   5.474   6.634   1.876
  390TIP3    H222730   5.404   6.768   1.887
  391TIP3   OH222731   0.617   3.340   1.183
  391TIP3    H122732   0.616   3.406   1.114
  391TIP3    H222733   0.525   3.315   1.194
  392TIP3   OH222734   2.069   2.087   8.553
  392TIP3    H122735   2.101   2.086   8.463
  392TIP3    H222736   2.135   2.038   8.603
  393TIP3   OH222737   2.734   1.631   7.372
  393TIP3    H122738   2.669   1.683   7.418
  393TIP3    H222739   2.710   1.540   7.391
  394TIP3   OH222740   3.008   1.441   8.132
  394TIP3    H122741   3.021   1.360   8.082
  394TIP3    H222742   3.029   1.418   8.222
  395TIP3   OH222743   6.525   5.418   8.401
  395TIP3    H122744   6.473   5.478   8.349
  395TIP3    H222745   6.503   5.331   8.367
  396TIP3   OH222746   6.368   1.516   1.484
  396TIP3    H122747   6.414   1.553   1.560
  396TIP3    H222748   6.327   1.436   1.518
  397TIP3   OH222749   1.615   0.499   0.996
  397TIP3    H122750   1.670   0.429   0.960
  397TIP3    H222751   1.527   0.462   0.996
  398TIP3   OH222752   5.494   1.314   0.177
  398TIP3    H122753   5.535   1.279   0.098
  398TIP3    H222754   5.449   1.239   0.216
  399TIP3   OH222755   0.842   3.130   2.314
  399TIP3    H122756   0.826   3.218   2.347
  399TIP3    H222757   0.913   3.140   2.251
  400TIP3   OH222758   6.858   3.026   1.026
  400TIP3    H122759   6.769   3.012   0.994
  400TIP3    H222760   6.850   3.025   1.122
  401TIP3   OH222761   0.162   5.031   7.996
  401TIP3    H122762   0.072   5.011   8.022
  401TIP3    H222763   0.215   4.964   8.039
  402TIP3   OH222764   5.011   5.350   7.713
  402TIP3    H122765   5.088   5.397   7.746
  402TIP3    H222766   4.994   5.388   7.627
  403TIP3   OH222767   2.081   3.141   1.333
  403TIP3    H122768   2.164   3.144   1.285
  403TIP3    H222769   2.028   3.077   1.287
  404TIP3   OH222770   4.498   5.761   8.099
  404TIP3    H122771   4.423   5.709   8.069
  404TIP3    H222772   4.463   5.813   8.171
  405TIP3   OH222773   2.397   0.340   6.400
  405TIP3    H122774   2.467   0.383   6.449
  405TIP3    H222775   2.431   0.333   6.311
  406TIP3   OH222776   3.625   5.888   8.573
  406TIP3    H122777   3.641   5.982   8.573
  406TIP3    H222778   3.598   5.868   0.059
  407TIP3   OH222779   3.414   0.538   8.209
  407TIP3    H122780   3.481   0.518   8.274
  407TIP3    H222781   3.397   0.632   8.221
  408TIP3   OH222782   1.150   5.081   7.861
  408TIP3    H122783   1.180   5.162   7.821
  408TIP3    H222784   1.225   5.049   7.911
  409TIP3   OH222785   3.215   1.541   7.138
  409TIP3    H122786   3.260   1.606   7.192
  409TIP3    H222787   3.126   1.539   7.172
  410TIP3   OH222788   4.816   0.676   8.471
  410TIP3    H122789   4.821   0.590   8.513
  410TIP3    H222790   4.839   0.658   8.379
  411TIP3   OH222791   6.301   3.546   1.054
  411TIP3    H122792   6.254   3.468   1.083
  411TIP3    H222793   6.238   3.593   1.000
  412TIP3   OH222794   3.114   6.005   7.794
  412TIP3    H122795   3.149   6.087   7.760
  412TIP3    H222796   3.019   6.016   7.792
  413TIP3   OH222797   6.181   1.593   0.656
  413TIP3    H122798   6.166   1.574   0.564
  413TIP3    H222799   6.139   1.521   0.703
  414TIP3   OH222800   1.305   2.726   7.774
  414TIP3    H122801   1.300   2.786   7.849
  414TIP3    H222802   1.278   2.779   7.700
  415TIP3   OH222803   3.648   3.688   8.328
  415TIP3    H122804   3.664   3.691   8.423
  415TIP3    H222805   3.713   3.625   8.295
  416TIP3   OH222806   3.707   2.181   7.212
  416TIP3    H122807   3.698   2.208   7.121
  416TIP3    H222808   3.781   2.232   7.245
  417TIP3   OH222809   5.508   4.373   0.635
  417TIP3    H122810   5.478   4.303   0.692
  417TIP3    H222811   5.436   4.436   0.632
  418TIP3   OH222812   3.641   1.659   7.914
  418TIP3    H122813   3.735   1.649   7.898
  418TIP3    H222814   3.602   1.664   7.826
  419TIP3   OH222815   2.699   6.119   6.041
  419TIP3    H122816   2.763   6.140   6.110
  419TIP3    H222817   2.678   6.027   6.056
  420TIP3   OH222818   5.474   6.392   7.835
  420TIP3    H122819   5.405   6.336   7.799
  420TIP3    H222820   5.531   6.331   7.884
  421TIP3   OH222821   6.817   5.769   1.848
  421TIP3    H122822   6.912   5.761   1.838
  421TIP3    H222823   6.786   5.797   1.762
  422TIP3   OH222824   3.459   0.541   7.031
  422TIP3    H122825   3.465   0.567   7.123
  422TIP3    H222826   3.541   0.495   7.014
  423TIP3   OH222827   2.565   2.049   8.434
  423TIP3    H122828   2.510   2.020   8.506
  423TIP3    H222829   2.644   1.994   8.441
  424TIP3   OH222830   1.065   0.490   0.242
  424TIP3    H122831   1.091   0.558   0.180
  424TIP3    H222832   1.114   0.412   0.215
  425TIP3   OH222833   5.084   5.091   0.829
  425TIP3    H122834   5.082   5.028   0.901
  425TIP3    H222835   5.126   5.168   0.866
  426TIP3   OH222836   5.078   6.613   1.294
  426TIP3    H122837   5.002   6.565   1.327
  426TIP3    H222838   5.152   6.555   1.310
  427TIP3   OH222839   1.830   2.459   6.719
  427TIP3    H122840   1.811   2.393   6.652
  427TIP3    H222841   1.899   2.513   6.681
  428TIP3   OH222842   0.008   5.012   7.371
  428TIP3    H122843   6.837   4.996   7.416
  428TIP3    H222844   0.005   5.105   7.348
  429TIP3   OH222845   0.265   0.413   6.848
  429TIP3    H122846   0.251   0.476   6.777
  429TIP3    H222847   0.210   0.446   6.920
  430TIP3   OH222848   2.182   5.441   8.299
  430TIP3    H122849   2.157   5.381   8.369
  430TIP3    H222850   2.272   5.465   8.320
  431TIP3   OH222851   4.630   4.380   0.724
  431TIP3    H122852   4.561   4.434   0.763
  431TIP3    H222853   4.700   4.441   0.703
  432TIP3   OH222854   6.631   3.448   8.046
  432TIP3    H122855   6.681   3.509   7.992
  432TIP3    H222856   6.675   3.364   8.034
  433TIP3   OH222857   4.433   5.500   1.721
  433TIP3    H122858   4.467   5.415   1.693
  433TIP3    H222859   4.508   5.544   1.761
  434TIP3   OH222860   0.259   3.259   1.623
  434TIP3    H122861   0.197   3.263   1.696
  434TIP3    H222862   0.239   3.337   1.571
  435TIP3   OH222863   1.783   5.367   0.684
  435TIP3    H122864   1.817   5.384   0.772
  435TIP3    H222865   1.833   5.426   0.628
  436TIP3   OH222866   4.427   6.235   7.261
  436TIP3    H122867   4.512   6.277   7.253
  436TIP3    H222868   4.431   6.187   7.344
  437TIP3   OH222869   1.194   0.716   6.603
  437TIP3    H122870   1.277   0.756   6.578
  437TIP3    H222871   1.164   0.672   6.523
  438TIP3   OH222872   2.777   4.355   1.917
  438TIP3    H122873   2.836   4.291   1.957
  438TIP3    H222874   2.703   4.360   1.978
  439TIP3   OH222875   3.681   5.357   8.372
  439TIP3    H122876   3.658   5.388   8.285
  439TIP3    H222877   3.707   5.436   8.420
  440TIP3   OH222878   3.653   4.916   8.148
  440TIP3    H122879   3.614   4.831   8.128
  440TIP3    H222880   3.654   4.962   8.064
  441TIP3   OH222881   0.701   2.679   7.483
  441TIP3    H122882   0.761   2.605   7.488
  441TIP3    H222883   0.747   2.744   7.429
  442TIP3   OH222884   2.002   0.207   0.491
  442TIP3    H122885   1.922   0.253   0.515
  442TIP3    H222886   2.021   0.150   0.566
  443TIP3   OH222887   4.296   0.295   1.955
  443TIP3    H122888   4.313   0.290   1.861
  443TIP3    H222889   4.338   0.377   1.982
  444TIP3   OH222890   1.380   3.167   6.607
  444TIP3    H122891   1.463   3.120   6.615
  444TIP3    H222892   1.378   3.198   6.517
  445TIP3   OH222893   2.614   3.097   7.218
  445TIP3    H122894   2.695   3.109   7.169
  445TIP3    H222895   2.552   3.158   7.177
  446TIP3   OH222896   3.097   5.852   8.298
  446TIP3    H122897   3.017   5.879   8.253
  446TIP3    H222898   3.074   5.853   8.391
  447TIP3   OH222899   4.157   5.705   7.730
  447TIP3    H122900   4.069   5.688   7.763
  447TIP3    H222901   4.215   5.684   7.803
  448TIP3   OH222902   3.365   6.491   7.914
  448TIP3    H122903   3.430   6.448   7.970
  448TIP3    H222904   3.281   6.472   7.955
  449TIP3   OH222905   2.474   2.706   6.197
  449TIP3    H122906   2.515   2.792   6.208
  449TIP3    H222907   2.545   2.649   6.168
  450TIP3   OH222908   6.113   0.234   1.468
  450TIP3    H122909   6.163   0.232   1.549
  450TIP3    H222910   6.131   0.320   1.431
  451TIP3   OH222911   6.374   5.658   0.010
  451TIP3    H122912   6.333   5.709   0.080
  451TIP3    H222913   6.466   5.650   0.037
  452TIP3   OH222914   6.402   0.777   0.504
  452TIP3    H122915   6.312   0.758   0.478
  452TIP3    H222916   6.403   0.871   0.519
  453TIP3   OH222917   5.491   0.915   6.959
  453TIP3    H122918   5.459   0.841   6.908
  453TIP3    H222919   5.558   0.877   7.017
  454TIP3   OH222920   2.343   6.279   8.024
  454TIP3    H122921   2.373   6.344   8.087
  454TIP3    H222922   2.375   6.196   8.058
  455TIP3   OH222923   3.260   0.508   0.574
  455TIP3    H122924   3.256   0.603   0.563
  455TIP3    H222925   3.298   0.476   0.492
  456TIP3   OH222926   6.538   3.993   1.116
  456TIP3    H122927   6.497   3.941   1.048
  456TIP3    H222928   6.617   3.943   1.140
  457TIP3   OH222929   2.374   0.536   1.533
  457TIP3    H122930   2.320   0.521   1.611
  457TIP3    H222931   2.328   0.602   1.483
  458TIP3   OH222932   3.498   1.873   0.788
  458TIP3    H122933   3.517   1.950   0.735
  458TIP3    H222934   3.414   1.840   0.755
  459TIP3   OH222935   3.602   3.083   1.253
  459TIP3    H122936   3.627   3.048   1.168
  459TIP3    H222937   3.596   3.006   1.310
  460TIP3   OH222938   4.174   5.280   7.609
  460TIP3    H122939   4.179   5.375   7.595
  460TIP3    H222940   4.216   5.243   7.532
  461TIP3   OH222941   0.314   2.167   1.438
  461TIP3    H122942   0.381   2.099   1.445
  461TIP3    H222943   0.316   2.212   1.522
  462TIP3   OH222944   2.088   3.780   1.335
  462TIP3    H122945   2.021   3.769   1.403
  462TIP3    H222946   2.042   3.759   1.253
  463TIP3   OH222947   0.802   5.373   6.892
  463TIP3    H122948   0.810   5.360   6.986
  463TIP3    H222949   0.708   5.362   6.874
  464TIP3   OH222950   2.725   2.460   7.164
  464TIP3    H122951   2.733   2.396   7.235
  464TIP3    H222952   2.659   2.522   7.195
  465TIP3   OH222953   4.534   5.761   0.158
  465TIP3    H122954   4.553   5.781   0.250
  465TIP3    H222955   4.592   5.818   0.108
  466TIP3   OH222956   1.941   3.491   6.483
  466TIP3    H122957   1.939   3.487   6.388
  466TIP3    H222958   1.996   3.416   6.509
  467TIP3   OH222959   0.401   4.098   7.353
  467TIP3    H122960   0.366   4.139   7.274
  467TIP3    H222961   0.411   4.006   7.330
  468TIP3   OH222962   1.823   5.000   0.939
  468TIP3    H122963   1.893   5.048   0.982
  468TIP3    H222964   1.846   5.002   0.846
  469TIP3   OH222965   6.780   1.647   0.076
  469TIP3    H122966   6.686   1.666   0.074
  469TIP3    H222967   6.786   1.552   0.062
  470TIP3   OH222968   0.444   1.505   6.661
  470TIP3    H122969   0.396   1.567   6.607
  470TIP3    H222970   0.513   1.471   6.604
  471TIP3   OH222971   5.313   4.093   6.486
  471TIP3    H122972   5.381   4.073   6.550
  471TIP3    H222973   5.342   4.051   6.405
  472TIP3   OH222974   2.197   4.365   7.972
  472TIP3    H122975   2.203   4.458   7.993
  472TIP3    H222976   2.123   4.333   8.023
  473TIP3   OH222977   5.873   6.286   1.440
  473TIP3    H122978   5.928   6.273   1.364
  473TIP3    H222979   5.811   6.354   1.414
  474TIP3   OH222980   5.513   4.324   7.314
  474TIP3    H122981   5.434   4.335   7.262
  474TIP3    H222982   5.578   4.380   7.273
  475TIP3   OH222983   1.732   1.576   0.344
  475TIP3    H122984   1.807   1.634   0.355
  475TIP3    H222985   1.658   1.635   0.329
  476TIP3   OH222986   3.991   1.239   7.899
  476TIP3    H122987   4.068   1.269   7.947
  476TIP3    H222988   3.983   1.146   7.922
  477TIP3   OH222989   2.041   2.390   7.783
  477TIP3    H122990   1.976   2.372   7.715
  477TIP3    H222991   2.103   2.449   7.742
  478TIP3   OH222992   6.263   4.911   0.120
  478TIP3    H122993   6.353   4.884   0.107
  478TIP3    H222994   6.235   4.866   0.199
  479TIP3   OH222995   6.463   6.278   2.325
  479TIP3    H122996   6.447   6.233   2.408
  479TIP3    H222997   6.390   6.340   2.317
  480TIP3   OH222998   6.399   0.497   7.657
  480TIP3    H122999   6.409   0.592   7.669
  480TIP3    H223000   6.483   0.470   7.619
  481TIP3   OH223001   3.596   0.631   1.068
  481TIP3    H123002   3.522   0.620   1.009
  481TIP3    H223003   3.580   0.569   1.139
  482TIP3   OH223004   5.414   1.003   7.275
  482TIP3    H123005   5.493   1.007   7.221
  482TIP3    H223006   5.431   1.064   7.347
  483TIP3   OH223007   2.374   5.247   1.281
  483TIP3    H123008   2.418   5.328   1.254
  483TIP3    H223009   2.374   5.192   1.203
  484TIP3   OH223010   1.365   0.866   6.190
  484TIP3    H123011   1.388   0.841   6.279
  484TIP3    H223012   1.357   0.961   6.192
  485TIP3   OH223013   5.261   1.964   7.717
  485TIP3    H123014   5.197   1.951   7.787
  485TIP3    H223015   5.304   1.879   7.707
  486TIP3   OH223016   0.320   5.315   0.014
  486TIP3    H123017   0.317   5.233   0.063
  486TIP3    H223018   0.318   5.384   0.080
  487TIP3   OH223019   6.855   2.031   6.406
  487TIP3    H123020   6.899   2.109   6.438
  487TIP3    H223021   6.764   2.060   6.391
  488TIP3   OH223022   1.091   5.832   6.257
  488TIP3    H123023   1.048   5.837   6.343
  488TIP3    H223024   1.183   5.819   6.277
  489TIP3   OH223025   3.444   3.304   7.837
  489TIP3    H123026   3.478   3.218   7.814
  489TIP3    H223027   3.411   3.294   7.926
  490TIP3   OH223028   5.824   3.937   8.278
  490TIP3    H123029   5.795   3.846   8.276
  490TIP3    H223030   5.919   3.932   8.270
  491TIP3   OH223031   3.518   1.659   6.975
  491TIP3    H123032   3.547   1.568   6.966
  491TIP3    H223033   3.442   1.655   7.032
  492TIP3   OH223034   0.926   1.576   8.167
  492TIP3    H123035   1.000   1.516   8.180
  492TIP3    H223036   0.965   1.663   8.166
  493TIP3   OH223037   3.395   3.525   1.107
  493TIP3    H123038   3.373   3.607   1.152
  493TIP3    H223039   3.320   3.468   1.121
  494TIP3   OH223040   2.118   0.967   1.657
  494TIP3    H123041   2.197   0.976   1.603
  494TIP3    H223042   2.130   1.029   1.728
  495TIP3   OH223043   0.042   0.862   7.833
  495TIP3    H123044   6.897   0.818   7.771
  495TIP3    H223045   6.895   0.909   7.892
  496TIP3   OH223046   4.598   0.018   8.354
  496TIP3    H123047   4.524   6.881   8.317
  496TIP3    H223048   4.603   0.096   8.299
  497TIP3   OH223049   2.239   5.603   0.325
  497TIP3    H123050   2.308   5.643   0.378
  497TIP3    H223051   2.280   5.586   0.240
  498TIP3   OH223052   0.952   6.882   7.192
  498TIP3    H123053   0.995   0.005   7.115
  498TIP3    H223054   0.867   6.850   7.160
  499TIP3   OH223055   4.568   0.326   5.934
  499TIP3    H123056   4.473   0.333   5.924
  499TIP3    H223057   4.580   0.269   6.011
  500TIP3   OH223058   4.189   3.313   7.115
  500TIP3    H123059   4.258   3.320   7.182
  500TIP3    H223060   4.228   3.352   7.037
  501TIP3   OH223061   6.368   3.411   0.053
  501TIP3    H123062   6.286   3.447   0.086
  501TIP3    H223063   6.400   3.356   0.125
  502TIP3   OH223064   0.279   6.215   0.190
  502TIP3    H123065   0.363   6.180   0.219
  502TIP3    H223066   0.215   6.173   0.248
  503TIP3   OH223067   2.824   0.398   7.541
  503TIP3    H123068   2.875   0.363   7.615
  503TIP3    H223069   2.875   0.374   7.464
  504TIP3   OH223070   5.849   6.574   0.362
  504TIP3    H123071   5.824   6.508   0.298
  504TIP3    H223072   5.932   6.609   0.331
  505TIP3   OH223073   1.276   6.531   8.238
  505TIP3    H123074   1.343   6.473   8.273
  505TIP3    H223075   1.193   6.488   8.260
  506TIP3   OH223076   3.959   3.256   6.783
  506TIP3    H123077   3.973   3.315   6.857
  506TIP3    H223078   3.999   3.173   6.811
  507TIP3   OH223079   4.847   3.961   2.432
  507TIP3    H123080   4.903   4.002   2.366
  507TIP3    H223081   4.826   4.032   2.492
  508TIP3   OH223082   3.672   0.362   1.529
  508TIP3    H123083   3.648   0.384   1.619
  508TIP3    H223084   3.637   0.274   1.515
  509TIP3   OH223085   2.006   5.994   2.169
  509TIP3    H123086   1.913   5.984   2.150
  509TIP3    H223087   2.009   6.031   2.257
  510TIP3   OH223088   4.762   2.859   6.586
  510TIP3    H123089   4.767   2.898   6.674
  510TIP3    H223090   4.791   2.769   6.598
  511TIP3   OH223091   5.916   4.621   8.171
  511TIP3    H123092   5.826   4.637   8.140
  511TIP3    H223093   5.940   4.702   8.216
  512TIP3   OH223094   3.811   5.654   1.219
  512TIP3    H123095   3.892   5.648   1.167
  512TIP3    H223096   3.748   5.697   1.161
  513TIP3   OH223097   1.195   0.967   6.849
  513TIP3    H123098   1.273   0.911   6.847
  513TIP3    H223099   1.205   1.026   6.775
  514TIP3   OH223100   5.561   6.507   7.309
  514TIP3    H123101   5.496   6.446   7.272
  514TIP3    H223102   5.523   6.594   7.295
  515TIP3   OH223103   1.228   2.322   1.405
  515TIP3    H123104   1.166   2.290   1.470
  515TIP3    H223105   1.314   2.308   1.445
  516TIP3   OH223106   0.572   2.287   1.147
  516TIP3    H123107   0.505   2.350   1.120
  516TIP3    H223108   0.523   2.214   1.185
  517TIP3   OH223109   4.526   0.224   0.260
  517TIP3    H123110   4.573   0.195   0.338
  517TIP3    H223111   4.533   0.150   0.200
  518TIP3   OH223112   3.717   0.959   0.906
  518TIP3    H123113   3.768   1.009   0.970
  518TIP3    H223114   3.761   0.874   0.902
  519TIP3   OH223115   4.406   2.231   0.061
  519TIP3    H123116   4.332   2.272   0.016
  519TIP3    H223117   4.437   2.165   8.603
  520TIP3   OH223118   2.140   5.001   7.149
  520TIP3    H123119   2.145   4.984   7.243
  520TIP3    H223120   2.054   5.043   7.137
  521TIP3   OH223121   4.782   6.336   6.688
  521TIP3    H123122   4.753   6.247   6.708
  521TIP3    H223123   4.760   6.349   6.596
  522TIP3   OH223124   3.586   2.033   8.178
  522TIP3    H123125   3.624   2.120   8.165
  522TIP3    H223126   3.549   2.036   8.267
  523TIP3   OH223127   6.245   1.953   1.045
  523TIP3    H123128   6.325   1.977   1.093
  523TIP3    H223129   6.277   1.907   0.968
  524TIP3   OH223130   3.396   4.105   7.162
  524TIP3    H123131   3.471   4.068   7.117
  524TIP3    H223132   3.367   4.037   7.222
  525TIP3   OH223133   1.739   1.238   8.373
  525TIP3    H123134   1.717   1.290   8.450
  525TIP3    H223135   1.657   1.198   8.346
  526TIP3   OH223136   5.361   4.547   1.380
  526TIP3    H123137   5.413   4.588   1.311
  526TIP3    H223138   5.425   4.522   1.446
  527TIP3   OH223139   3.956   3.923   1.939
  527TIP3    H123140   3.971   3.900   2.030
  527TIP3    H223141   4.042   3.915   1.897
  528TIP3   OH223142   1.072   5.942   8.121
  528TIP3    H123143   1.011   5.869   8.116
  528TIP3    H223144   1.045   5.989   8.200
  529TIP3   OH223145   0.579   2.607   6.530
  529TIP3    H123146   0.514   2.598   6.600
  529TIP3    H223147   0.663   2.601   6.574
  530TIP3   OH223148   1.735   4.687   7.479
  530TIP3    H123149   1.826   4.706   7.501
  530TIP3    H223150   1.698   4.770   7.450
  531TIP3   OH223151   4.434   0.935   1.417
  531TIP3    H123152   4.389   0.893   1.344
  531TIP3    H223153   4.459   1.021   1.383
  532TIP3   OH223154   5.623   2.921   1.317
  532TIP3    H123155   5.541   2.968   1.331
  532TIP3    H223156   5.661   2.962   1.238
  533TIP3   OH223157   5.663   0.102   6.166
  533TIP3    H123158   5.629   0.186   6.134
  533TIP3    H223159   5.713   0.125   6.244
  534TIP3   OH223160   5.487   5.598   6.065
  534TIP3    H123161   5.492   5.644   6.149
  534TIP3    H223162   5.418   5.532   6.079
  535TIP3   OH223163   0.737   6.512   0.749
  535TIP3    H123164   0.832   6.508   0.754
  535TIP3    H223165   0.711   6.568   0.823
  536TIP3   OH223166   4.047   4.695   0.964
  536TIP3    H123167   4.048   4.721   0.871
  536TIP3    H223168   4.117   4.631   0.971
  537TIP3   OH223169   1.406   4.224   8.043
  537TIP3    H123170   1.361   4.196   8.123
  537TIP3    H223171   1.466   4.152   8.023
  538TIP3   OH223172   1.033   2.383   0.857
  538TIP3    H123173   1.059   2.370   0.766
  538TIP3    H223174   1.053   2.299   0.900
  539TIP3   OH223175   4.596   1.562   0.662
  539TIP3    H123176   4.658   1.521   0.722
  539TIP3    H223177   4.649   1.626   0.614
  540TIP3   OH223178   3.074   2.120   0.336
  540TIP3    H123179   3.126   2.058   0.283
  540TIP3    H223180   3.126   2.201   0.335
  541TIP3   OH223181   1.376   2.785   6.710
  541TIP3    H123182   1.431   2.860   6.732
  541TIP3    H223183   1.385   2.774   6.616
  542TIP3   OH223184   2.581   6.784   0.091
  542TIP3    H123185   2.634   6.849   0.046
  542TIP3    H223186   2.496   6.827   0.104
  543TIP3   OH223187   0.260   5.928   7.206
  543TIP3    H123188   0.246   5.834   7.216
  543TIP3    H223189   0.354   5.940   7.219
  544TIP3   OH223190   2.593   5.978   7.924
  544TIP3    H123191   2.520   5.995   7.865
  544TIP3    H223192   2.642   5.907   7.883
  545TIP3   OH223193   2.635   3.357   7.003
  545TIP3    H123194   2.687   3.413   6.946
  545TIP3    H223195   2.560   3.411   7.029
  546TIP3   OH223196   1.636   6.500   6.166
  546TIP3    H123197   1.676   6.572   6.214
  546TIP3    H223198   1.570   6.465   6.226
  547TIP3   OH223199   1.251   5.613   7.743
  547TIP3    H123200   1.216   5.570   7.821
  547TIP3    H223201   1.218   5.702   7.747
  548TIP3   OH223202   1.731   2.292   8.398
  548TIP3    H123203   1.710   2.254   8.313
  548TIP3    H223204   1.814   2.338   8.384
  549TIP3   OH223205   3.304   0.194   8.436
  549TIP3    H123206   3.299   0.105   8.471
  549TIP3    H223207   3.398   0.213   8.431
  550TIP3   OH223208   0.892   1.230   1.489
  550TIP3    H123209   0.979   1.195   1.473
  550TIP3    H223210   0.904   1.296   1.557
  551TIP3   OH223211   2.016   1.066   7.777
  551TIP3    H123212   1.989   1.120   7.704
  551TIP3    H223213   1.972   1.104   7.853
  552TIP3   OH223214   3.873   2.603   8.281
  552TIP3    H123215   3.873   2.513   8.314
  552TIP3    H223216   3.786   2.615   8.243
  553TIP3   OH223217   6.175   6.535   1.456
  553TIP3    H123218   6.228   6.529   1.535
  553TIP3    H223219   6.094   6.579   1.485
  554TIP3   OH223220   0.411   5.853   0.554
  554TIP3    H123221   0.462   5.929   0.582
  554TIP3    H223222   0.357   5.831   0.629
  555TIP3   OH223223   6.320   3.092   0.587
  555TIP3    H123224   6.395   3.150   0.601
  555TIP3    H223225   6.333   3.021   0.649
  556TIP3   OH223226   5.920   3.106   8.547
  556TIP3    H123227   5.943   3.030   8.601
  556TIP3    H223228   5.853   3.074   8.487
  557TIP3   OH223229   5.170   2.054   1.085
  557TIP3    H123230   5.231   2.055   1.159
  557TIP3    H223231   5.162   2.146   1.059
  558TIP3   OH223232   6.192   2.433   6.560
  558TIP3    H123233   6.240   2.379   6.624
  558TIP3    H223234   6.102   2.433   6.593
  559TIP3   OH223235   4.446   3.323   1.463
  559TIP3    H123236   4.356   3.311   1.495
  559TIP3    H223237   4.436   3.368   1.379
  560TIP3   OH223238   3.131   2.277   8.025
  560TIP3    H123239   3.150   2.183   8.019
  560TIP3    H223240   3.191   2.318   7.963
  561TIP3   OH223241   0.979   0.262   7.655
  561TIP3    H123242   0.995   0.220   7.570
  561TIP3    H223243   1.060   0.247   7.705
  562TIP3   OH223244   0.003   6.198   7.322
  562TIP3    H123245   0.052   6.278   7.308
  562TIP3    H223246   0.018   6.176   7.414
  563TIP3   OH223247   0.296   6.517   8.085
  563TIP3    H123248   0.291   6.507   8.180
  563TIP3    H223249   0.306   6.611   8.071
  564TIP3   OH223250   2.731   6.420   6.679
  564TIP3    H123251   2.720   6.505   6.721
  564TIP3    H223252   2.685   6.429   6.595
  565TIP3   OH223253   3.165   1.285   7.801
  565TIP3    H123254   3.186   1.209   7.746
  565TIP3    H223255   3.240   1.292   7.860
  566TIP3   OH223256   1.586   1.378   0.003
  566TIP3    H123257   1.567   1.463   0.042
  566TIP3    H223258   1.654   1.340   0.059
  567TIP3   OH223259   1.697   4.077   6.607
  567TIP3    H123260   1.698   3.984   6.581
  567TIP3    H223261   1.604   4.099   6.610
  568TIP3   OH223262   6.856   0.811   1.991
  568TIP3    H123263   6.850   0.825   1.896
  568TIP3    H223264   6.863   0.716   2.001
  569TIP3   OH223265   5.311   6.661   6.004
  569TIP3    H123266   5.398   6.623   5.989
  569TIP3    H223267   5.300   6.725   5.934
  570TIP3   OH223268   1.000   2.420   6.486
  570TIP3    H123269   1.037   2.500   6.523
  570TIP3    H223270   1.076   2.367   6.462
  571TIP3   OH223271   1.444   2.556   1.273
  571TIP3    H123272   1.411   2.620   1.210
  571TIP3    H223273   1.421   2.471   1.235
  572TIP3   OH223274   3.102   1.943   7.019
  572TIP3    H123275   3.134   1.966   6.932
  572TIP3    H223276   3.134   1.854   7.034
  573TIP3   OH223277   6.785   4.029   2.153
  573TIP3    H123278   6.775   4.098   2.219
  573TIP3    H223279   6.849   3.968   2.190
  574TIP3   OH223280   3.537   5.015   1.068
  574TIP3    H123281   3.551   4.928   1.030
  574TIP3    H223282   3.517   4.998   1.160
  575TIP3   OH223283   2.644   0.898   8.179
  575TIP3    H123284   2.560   0.935   8.204
  575TIP3    H223285   2.683   0.869   8.261
  576TIP3   OH223286   3.295   3.246   6.740
  576TIP3    H123287   3.211   3.285   6.717
  576TIP3    H223288   3.341   3.314   6.788
  577TIP3   OH223289   5.744   6.056   0.709
  577TIP3    H123290   5.662   6.067   0.758
  577TIP3    H223291   5.792   6.137   0.725
  578TIP3   OH223292   0.332   1.205   7.788
  578TIP3    H123293   0.416   1.228   7.748
  578TIP3    H223294   0.275   1.184   7.714
  579TIP3   OH223295   6.555   4.391   1.737
  579TIP3    H123296   6.584   4.306   1.705
  579TIP3    H223297   6.473   4.373   1.783
  580TIP3   OH223298   1.960   1.350   7.676
  580TIP3    H123299   2.036   1.389   7.719
  580TIP3    H223300   1.967   1.380   7.585
  581TIP3   OH223301   5.210   0.207   0.170
  581TIP3    H123302   5.203   0.270   0.099
  581TIP3    H223303   5.301   0.177   0.167
  582TIP3   OH223304   2.608   2.436   1.016
  582TIP3    H123305   2.587   2.418   1.108
  582TIP3    H223306   2.545   2.504   0.990
  583TIP3   OH223307   3.209   3.137   8.230
  583TIP3    H123308   3.176   3.137   8.320
  583TIP3    H223309   3.265   3.059   8.225
  584TIP3   OH223310   5.375   0.120   7.990
  584TIP3    H123311   5.469   0.136   7.994
  584TIP3    H223312   5.344   0.172   7.917
  585TIP3   OH223313   2.944   4.172   1.638
  585TIP3    H123314   3.007   4.107   1.606
  585TIP3    H223315   2.922   4.142   1.726
  586TIP3   OH223316   4.030   2.601   6.847
  586TIP3    H123317   4.066   2.690   6.854
  586TIP3    H223318   3.947   2.605   6.895
  587TIP3   OH223319   3.752   4.006   2.464
  587TIP3    H123320   3.843   3.978   2.471
  587TIP3    H223321   3.703   3.925   2.452
  588TIP3   OH223322   5.569   2.404   7.541
  588TIP3    H123323   5.529   2.337   7.598
  588TIP3    H223324   5.608   2.467   7.601
  589TIP3   OH223325   1.801   2.624   0.360
  589TIP3    H123326   1.751   2.668   0.428
  589TIP3    H223327   1.779   2.531   0.370
  590TIP3   OH223328   1.487   6.418   1.300
  590TIP3    H123329   1.493   6.360   1.224
  590TIP3    H223330   1.393   6.432   1.312
  591TIP3   OH223331   4.657   6.705   0.279
  591TIP3    H123332   4.674   6.781   0.334
  591TIP3    H223333   4.719   6.713   0.207
  592TIP3   OH223334   5.516   2.030   7.451
  592TIP3    H123335   5.432   1.985   7.451
  592TIP3    H223336   5.516   2.082   7.371
  593TIP3   OH223337   3.628   3.791   2.363
  593TIP3    H123338   3.565   3.768   2.295
  593TIP3    H223339   3.590   3.758   2.444
  594TIP3   OH223340   3.983   1.081   1.845
  594TIP3    H123341   4.062   1.128   1.818
  594TIP3    H223342   3.913   1.122   1.794
  595TIP3   OH223343   5.442   5.609   7.022
  595TIP3    H123344   5.419   5.620   6.929
  595TIP3    H223345   5.380   5.666   7.068
  596TIP3   OH223346   4.526   6.339   2.385
  596TIP3    H123347   4.553   6.410   2.327
  596TIP3    H223348   4.473   6.282   2.330
  597TIP3   OH223349   0.244   2.517   1.665
  597TIP3    H123350   0.219   2.554   1.580
  597TIP3    H223351   0.339   2.529   1.669
  598TIP3   OH223352   6.029   1.070   1.012
  598TIP3    H123353   6.041   0.993   1.068
  598TIP3    H223354   6.100   1.129   1.038
  599TIP3   OH223355   0.960   5.241   1.494
  599TIP3    H123356   1.006   5.305   1.548
  599TIP3    H223357   0.970   5.275   1.404
  600TIP3   OH223358   4.044   2.432   0.392
  600TIP3    H123359   4.073   2.341   0.388
  600TIP3    H223360   4.055   2.457   0.484
  601TIP3   OH223361   5.595   5.235   8.080
  601TIP3    H123362   5.548   5.162   8.119
  601TIP3    H223363   5.583   5.308   8.142
  602TIP3   OH223364   1.021   2.721   0.576
  602TIP3    H123365   0.981   2.675   0.651
  602TIP3    H223366   0.998   2.813   0.590
  603TIP3   OH223367   1.405   6.173   5.730
  603TIP3    H123368   1.418   6.079   5.720
  603TIP3    H223369   1.490   6.211   5.707
  604TIP3   OH223370   4.854   4.488   1.099
  604TIP3    H123371   4.910   4.553   1.056
  604TIP3    H223372   4.814   4.439   1.027
  605TIP3   OH223373   4.519   5.116   7.445
  605TIP3    H123374   4.512   5.205   7.410
  605TIP3    H223375   4.552   5.127   7.534
  606TIP3   OH223376   5.185   1.155   0.489
  606TIP3    H123377   5.200   1.075   0.540
  606TIP3    H223378   5.129   1.209   0.545
  607TIP3   OH223379   3.493   3.852   7.159
  607TIP3    H123380   3.528   3.765   7.138
  607TIP3    H223381   3.413   3.859   7.107
  608TIP3   OH223382   5.360   5.112   0.140
  608TIP3    H123383   5.324   5.068   0.217
  608TIP3    H223384   5.349   5.049   0.069
  609TIP3   OH223385   3.260   5.889   7.172
  609TIP3    H123386   3.278   5.795   7.166
  609TIP3    H223387   3.282   5.923   7.085
  610TIP3   OH223388   1.298   0.885   1.677
  610TIP3    H123389   1.263   0.851   1.760
  610TIP3    H223390   1.358   0.954   1.703
  611TIP3   OH223391   1.401   4.594   0.042
  611TIP3    H123392   1.389   4.501   0.059
  611TIP3    H223393   1.483   4.616   0.086
  612TIP3   OH223394   6.159   0.665   0.171
  612TIP3    H123395   6.170   0.627   0.259
  612TIP3    H223396   6.065   0.687   0.166
  613TIP3   OH223397   5.317   4.908   8.548
  613TIP3    H123398   5.334   4.873   8.461
  613TIP3    H223399   5.292   4.831   8.600
  614TIP3   OH223400   0.049   3.295   1.207
  614TIP3    H123401   0.143   3.278   1.210
  614TIP3    H223402   0.026   3.281   1.115
  615TIP3   OH223403   4.188   6.162   7.129
  615TIP3    H123404   4.189   6.066   7.131
  615TIP3    H223405   4.277   6.188   7.149
  616TIP3   OH223406   5.816   0.474   8.180
  616TIP3    H123407   5.725   0.449   8.162
  616TIP3    H223408   5.809   0.556   8.229
  617TIP3   OH223409   1.096   0.283   1.182
  617TIP3    H123410   1.037   0.308   1.111
  617TIP3    H223411   1.082   0.189   1.192
  618TIP3   OH223412   3.588   0.709   7.263
  618TIP3    H123413   3.620   0.655   7.335
  618TIP3    H223414   3.667   0.733   7.215
  619TIP3   OH223415   1.544   0.308   1.794
  619TIP3    H123416   1.619   0.249   1.800
  619TIP3    H223417   1.494   0.292   1.875
  620TIP3   OH223418   2.567   3.106   6.921
  620TIP3    H123419   2.589   3.193   6.954
  620TIP3    H223420   2.542   3.120   6.830
  621TIP3   OH223421   1.438   0.015   0.821
  621TIP3    H123422   1.402   0.020   0.910
  621TIP3    H223423   1.480   6.842   0.817
  622TIP3   OH223424   1.929   0.302   8.388
  622TIP3    H123425   1.994   0.360   8.349
  622TIP3    H223426   1.970   0.216   8.389
  623TIP3   OH223427   4.911   1.935   6.435
  623TIP3    H123428   4.926   1.982   6.353
  623TIP3    H223429   4.848   1.989   6.482
  624TIP3   OH223430   5.369   6.883   0.595
  624TIP3    H123431   5.453   6.845   0.621
  624TIP3    H223432   5.350   0.035   0.663
  625TIP3   OH223433   5.733   2.551   7.289
  625TIP3    H123434   5.654   2.603   7.303
  625TIP3    H223435   5.804   2.615   7.289
  626TIP3   OH223436   5.924   0.478   1.658
  626TIP3    H123437   5.891   0.408   1.715
  626TIP3    H223438   5.853   0.494   1.596
  627TIP3   OH223439   6.292   4.750   2.388
  627TIP3    H123440   6.289   4.840   2.419
  627TIP3    H223441   6.212   4.740   2.336
  628TIP3   OH223442   4.235   1.601   1.054
  628TIP3    H123443   4.247   1.522   1.106
  628TIP3    H223444   4.274   1.580   0.969
  629TIP3   OH223445   6.400   3.922   8.052
  629TIP3    H123446   6.313   3.895   8.021
  629TIP3    H223447   6.383   3.996   8.109
  630TIP3   OH223448   4.784   3.714   0.702
  630TIP3    H123449   4.809   3.781   0.639
  630TIP3    H223450   4.689   3.723   0.710
  631TIP3   OH223451   1.521   6.429   2.354
  631TIP3    H123452   1.556   6.359   2.408
  631TIP3    H223453   1.435   6.448   2.392
  632TIP3   OH223454   4.348   0.283   1.681
  632TIP3    H123455   4.368   0.361   1.630
  632TIP3    H223456   4.395   0.212   1.637
  633TIP3   OH223457   4.311   1.033   0.408
  633TIP3    H123458   4.225   1.012   0.372
  633TIP3    H223459   4.363   1.059   0.332
  634TIP3   OH223460   2.011   6.709   6.015
  634TIP3    H123461   2.010   6.613   6.019
  634TIP3    H223462   1.965   6.729   5.933
  635TIP3   OH223463   1.701   6.193   6.694
  635TIP3    H123464   1.629   6.253   6.674
  635TIP3    H223465   1.733   6.165   6.608
  636TIP3   OH223466   1.920   6.178   6.461
  636TIP3    H123467   1.999   6.161   6.513
  636TIP3    H223468   1.939   6.137   6.376
  637TIP3   OH223469   4.620   1.760   6.450
  637TIP3    H123470   4.611   1.666   6.435
  637TIP3    H223471   4.541   1.785   6.498
  638TIP3   OH223472   5.880   5.328   8.539
  638TIP3    H123473   5.880   5.280   8.456
  638TIP3    H223474   5.789   5.354   8.552
  639TIP3   OH223475   2.069   0.890   0.437
  639TIP3    H123476   2.043   0.950   0.367
  639TIP3    H223477   2.146   0.846   0.403
  640TIP3   OH223478   5.264   4.534   1.021
  640TIP3    H123479   5.350   4.511   1.057
  640TIP3    H223480   5.280   4.610   0.966
  641TIP3   OH223481   0.879   5.282   1.180
  641TIP3    H123482   0.902   5.257   1.090
  641TIP3    H223483   0.801   5.229   1.199
  642TIP3   OH223484   4.215   6.777   2.148
  642TIP3    H123485   4.174   6.768   2.233
  642TIP3    H223486   4.290   6.717   2.151
  643TIP3   OH223487   0.710   6.513   2.011
  643TIP3    H123488   0.772   6.582   2.034
  643TIP3    H223489   0.759   6.431   2.025
  644TIP3   OH223490   3.419   3.111   0.953
  644TIP3    H123491   3.473   3.033   0.941
  644TIP3    H223492   3.331   3.083   0.929
  645TIP3   OH223493   5.435   5.273   7.152
  645TIP3    H123494   5.349   5.300   7.183
  645TIP3    H223495   5.419   5.242   7.063
  646TIP3   OH223496   5.472   0.173   0.091
  646TIP3    H123497   5.565   0.152   0.097
  646TIP3    H223498   5.470   0.261   0.053
  647TIP3   OH223499   3.188   5.563   8.587
  647TIP3    H123500   3.234   5.633   8.541
  647TIP3    H223501   3.258   5.512   0.026
  648TIP3   OH223502   4.474   5.930   6.158
  648TIP3    H123503   4.393   5.899   6.116
  648TIP3    H223504   4.478   6.023   6.137
  649TIP3   OH223505   6.084   5.504   0.367
  649TIP3    H123506   6.087   5.600   0.376
  649TIP3    H223507   6.160   5.483   0.314
  650TIP3   OH223508   3.858   2.330   1.291
  650TIP3    H123509   3.939   2.286   1.265
  650TIP3    H223510   3.790   2.288   1.239
  651TIP3   OH223511   3.819   2.156   2.022
  651TIP3    H123512   3.809   2.108   2.104
  651TIP3    H223513   3.838   2.089   1.956
  652TIP3   OH223514   0.143   6.761   6.998
  652TIP3    H123515   0.161   6.676   6.959
  652TIP3    H223516   0.069   6.795   6.947
  653TIP3   OH223517   0.722   5.404   8.500
  653TIP3    H123518   0.712   5.388   8.594
  653TIP3    H223519   0.749   5.319   8.465
  654TIP3   OH223520   6.260   4.264   7.476
  654TIP3    H123521   6.312   4.184   7.485
  654TIP3    H223522   6.281   4.296   7.388
  655TIP3   OH223523   0.210   2.962   7.143
  655TIP3    H123524   0.178   2.902   7.211
  655TIP3    H223525   0.194   2.916   7.061
  656TIP3   OH223526   4.755   3.261   8.263
  656TIP3    H123527   4.807   3.315   8.322
  656TIP3    H223528   4.785   3.284   8.175
  657TIP3   OH223529   1.314   4.569   2.022
  657TIP3    H123530   1.409   4.564   2.029
  657TIP3    H223531   1.292   4.660   2.042
  658TIP3   OH223532   2.769   6.644   0.257
  658TIP3    H123533   2.731   6.710   0.200
  658TIP3    H223534   2.710   6.640   0.332
  659TIP3   OH223535   2.199   0.251   8.406
  659TIP3    H123536   2.169   0.239   8.496
  659TIP3    H223537   2.280   0.302   8.414
  660TIP3   OH223538   2.559   2.730   8.313
  660TIP3    H123539   2.609   2.758   8.236
  660TIP3    H223540   2.614   2.665   8.356
  661TIP3   OH223541   4.237   0.470   8.437
  661TIP3    H123542   4.223   0.482   8.344
  661TIP3    H223543   4.330   0.489   8.450
  662TIP3   OH223544   3.756   3.199   6.359
  662TIP3    H123545   3.660   3.201   6.352
  662TIP3    H223546   3.784   3.282   6.320
  663TIP3   OH223547   3.936   1.208   8.215
  663TIP3    H123548   3.874   1.230   8.284
  663TIP3    H223549   3.983   1.290   8.198
  664TIP3   OH223550   6.740   0.078   0.086
  664TIP3    H123551   6.703   0.154   0.040
  664TIP3    H223552   6.749   0.011   0.019
  665TIP3   OH223553   5.035   4.816   8.329
  665TIP3    H123554   5.081   4.831   8.412
  665TIP3    H223555   5.070   4.884   8.271
  666TIP3   OH223556   4.003   1.409   0.668
  666TIP3    H123557   3.984   1.316   0.681
  666TIP3    H223558   3.972   1.451   0.748
  667TIP3   OH223559   2.530   2.877   0.299
  667TIP3    H123560   2.494   2.791   0.324
  667TIP3    H223561   2.567   2.912   0.380
  668TIP3   OH223562   4.200   4.425   7.776
  668TIP3    H123563   4.218   4.485   7.705
  668TIP3    H223564   4.121   4.460   7.818
  669TIP3   OH223565   0.739   6.112   7.623
  669TIP3    H123566   0.829   6.120   7.591
  669TIP3    H223567   0.687   6.095   7.545
  670TIP3   OH223568   1.348   3.447   6.742
  670TIP3    H123569   1.292   3.421   6.669
  670TIP3    H223570   1.288   3.486   6.806
  671TIP3   OH223571   3.415   1.509   8.029
  671TIP3    H123572   3.473   1.585   8.030
  671TIP3    H223573   3.403   1.487   8.121
  672TIP3   OH223574   6.271   4.894   6.137
  672TIP3    H123575   6.344   4.953   6.159
  672TIP3    H223576   6.309   4.832   6.074
  673TIP3   OH223577   2.009   1.131   8.138
  673TIP3    H123578   2.069   1.175   8.199
  673TIP3    H223579   1.948   1.199   8.110
  674TIP3   OH223580   5.762   6.283   0.455
  674TIP3    H123581   5.788   6.312   0.543
  674TIP3    H223582   5.837   6.302   0.400
  675TIP3   OH223583   0.775   3.288   8.082
  675TIP3    H123584   0.860   3.331   8.074
  675TIP3    H223585   0.717   3.341   8.027
  676TIP3   OH223586   0.059   2.686   8.326
  676TIP3    H123587   6.909   2.740   8.375
  676TIP3    H223588   0.030   2.693   8.235
  677TIP3   OH223589   3.224   4.954   7.753
  677TIP3    H123590   3.169   5.032   7.762
  677TIP3    H223591   3.260   4.938   7.840
  678TIP3   OH223592   4.681   0.363   2.091
  678TIP3    H123593   4.659   0.293   2.029
  678TIP3    H223594   4.634   0.339   2.171
  679TIP3   OH223595   5.910   0.713   7.236
  679TIP3    H123596   5.906   0.712   7.140
  679TIP3    H223597   5.914   0.621   7.261
  680TIP3   OH223598   0.272   6.459   1.911
  680TIP3    H123599   0.263   6.389   1.976
  680TIP3    H223600   0.237   6.421   1.830
  681TIP3   OH223601   1.858   6.688   6.586
  681TIP3    H123602   1.939   6.641   6.606
  681TIP3    H223603   1.857   6.761   6.647
  682TIP3   OH223604   4.983   6.412   0.664
  682TIP3    H123605   5.042   6.487   0.658
  682TIP3    H223606   5.008   6.356   0.591
  683TIP3   OH223607   5.218   3.868   8.047
  683TIP3    H123608   5.143   3.810   8.058
  683TIP3    H223609   5.291   3.809   8.026
  684TIP3   OH223610   5.983   2.511   8.184
  684TIP3    H123611   6.078   2.515   8.195
  684TIP3    H223612   5.961   2.419   8.192
  685TIP3   OH223613   6.581   0.666   1.800
  685TIP3    H123614   6.667   0.623   1.799
  685TIP3    H223615   6.528   0.616   1.738
  686TIP3   OH223616   3.451   0.008   8.108
  686TIP3    H123617   3.370   0.016   8.058
  686TIP3    H223618   3.454   6.829   8.135
  687TIP3   OH223619   1.237   0.335   0.528
  687TIP3    H123620   1.198   0.423   0.532
  687TIP3    H223621   1.269   0.328   0.439
  688TIP3   OH223622   6.574   2.733   8.247
  688TIP3    H123623   6.531   2.742   8.162
  688TIP3    H223624   6.506   2.700   8.305
  689TIP3   OH223625   1.005   3.483   0.098
  689TIP3    H123626   0.981   3.427   0.172
  689TIP3    H223627   1.049   3.558   0.138
  690TIP3   OH223628   0.927   2.426   1.601
  690TIP3    H123629   0.950   2.333   1.607
  690TIP3    H223630   0.981   2.460   1.530
  691TIP3   OH223631   5.231   6.300   8.045
  691TIP3    H123632   5.151   6.331   8.088
  691TIP3    H223633   5.255   6.371   7.986
  692TIP3   OH223634   0.497   1.377   7.611
  692TIP3    H123635   0.404   1.393   7.629
  692TIP3    H223636   0.541   1.457   7.640
  693TIP3   OH223637   1.892   6.612   8.335
  693TIP3    H123638   1.925   6.583   8.251
  693TIP3    H223639   1.802   6.579   8.340
  694TIP3   OH223640   4.865   0.019   1.857
  694TIP3    H123641   4.878   6.871   1.929
  694TIP3    H223642   4.953   0.051   1.836
  695TIP3   OH223643   6.771   5.576   7.527
  695TIP3    H123644   6.693   5.553   7.578
  695TIP3    H223645   6.823   5.630   7.586
  696TIP3   OH223646   2.575   1.367   1.262
  696TIP3    H123647   2.649   1.426   1.271
  696TIP3    H223648   2.498   1.424   1.256
  697TIP3   OH223649   6.490   2.763   6.584
  697TIP3    H123650   6.399   2.790   6.599
  697TIP3    H223651   6.516   2.809   6.505
  698TIP3   OH223652   2.972   0.308   7.331
  698TIP3    H123653   2.985   0.214   7.340
  698TIP3    H223654   3.035   0.335   7.264
  699TIP3   OH223655   6.865   6.486   0.699
  699TIP3    H123656   0.026   6.537   0.663
  699TIP3    H223657   6.808   6.470   0.624
  700TIP3   OH223658   3.892   2.821   2.183
  700TIP3    H123659   3.826   2.821   2.252
  700TIP3    H223660   3.935   2.735   2.191
  701TIP3   OH223661   5.618   1.704   0.027
  701TIP3    H123662   5.590   1.698   8.539
  701TIP3    H223663   5.689   1.768   0.027
  702TIP3   OH223664   4.259   2.509   7.848
  702TIP3    H123665   4.255   2.595   7.807
  702TIP3    H223666   4.272   2.448   7.775
  703TIP3   OH223667   6.762   1.830   0.995
  703TIP3    H123668   6.846   1.787   1.012
  703TIP3    H223669   6.785   1.920   0.971
  704TIP3   OH223670   2.312   3.409   1.002
  704TIP3    H123671   2.247   3.402   1.072
  704TIP3    H223672   2.262   3.433   0.924
  705TIP3   OH223673   3.301   5.660   0.365
  705TIP3    H123674   3.284   5.672   0.458
  705TIP3    H223675   3.363   5.586   0.362
  706TIP3   OH223676   4.225   2.047   1.884
  706TIP3    H123677   4.257   2.078   1.800
  706TIP3    H223678   4.211   1.953   1.872
  707TIP3   OH223679   3.981   4.303   8.478
  707TIP3    H123680   3.898   4.348   8.492
  707TIP3    H223681   4.048   4.371   8.486
  708TIP3   OH223682   3.788   4.458   6.206
  708TIP3    H123683   3.730   4.448   6.282
  708TIP3    H223684   3.876   4.451   6.241
  709TIP3   OH223685   4.492   3.313   7.777
  709TIP3    H123686   4.527   3.259   7.706
  709TIP3    H223687   4.565   3.370   7.802
  710TIP3   OH223688   1.218   0.755   7.532
  710TIP3    H123689   1.290   0.695   7.512
  710TIP3    H223690   1.149   0.698   7.568
  711TIP3   OH223691   1.458   2.505   0.812
  711TIP3    H123692   1.471   2.600   0.812
  711TIP3    H223693   1.501   2.475   0.733
  712TIP3   OH223694   2.699   1.936   1.258
  712TIP3    H123695   2.755   1.879   1.310
  712TIP3    H223696   2.639   1.976   1.321
  713TIP3   OH223697   3.571   5.859   8.316
  713TIP3    H123698   3.596   5.898   8.400
  713TIP3    H223699   3.605   5.920   8.251
  714TIP3   OH223700   3.443   4.264   6.543
  714TIP3    H123701   3.495   4.222   6.474
  714TIP3    H223702   3.503   4.327   6.583
  715TIP3   OH223703   6.045   4.923   0.686
  715TIP3    H123704   6.139   4.909   0.684
  715TIP3    H223705   6.035   5.018   0.699
  716TIP3   OH223706   1.769   0.743   8.239
  716TIP3    H123707   1.737   0.804   8.173
  716TIP3    H223708   1.840   0.790   8.282
  717TIP3   OH223709   5.091   0.468   7.376
  717TIP3    H123710   5.145   0.439   7.450
  717TIP3    H223711   5.070   0.559   7.396
  718TIP3   OH223712   2.912   2.375   0.063
  718TIP3    H123713   2.874   2.358   0.149
  718TIP3    H223714   2.837   2.373   0.003
  719TIP3   OH223715   2.650   6.263   7.204
  719TIP3    H123716   2.745   6.255   7.213
  719TIP3    H223717   2.615   6.186   7.249
  720TIP3   OH223718   1.603   1.774   0.836
  720TIP3    H123719   1.632   1.865   0.835
  720TIP3    H223720   1.508   1.779   0.846
  721TIP3   OH223721   5.153   0.952   1.472
  721TIP3    H123722   5.077   1.002   1.442
  721TIP3    H223723   5.193   0.919   1.392
  722TIP3   OH223724   3.124   3.956   0.556
  722TIP3    H123725   3.219   3.948   0.568
  722TIP3    H223726   3.094   4.001   0.635
  723TIP3   OH223727   6.721   4.429   7.447
  723TIP3    H123728   6.687   4.504   7.496
  723TIP3    H223729   6.726   4.460   7.357
  724TIP3   OH223730   3.705   6.548   1.964
  724TIP3    H123731   3.634   6.519   2.021
  724TIP3    H223732   3.782   6.552   2.021
  725TIP3   OH223733   0.002   0.983   0.357
  725TIP3    H123734   0.082   0.970   0.408
  725TIP3    H223735   0.028   0.964   0.267
  726TIP3   OH223736   0.996   0.598   7.606
  726TIP3    H123737   1.014   0.512   7.569
  726TIP3    H223738   0.901   0.605   7.605
  727TIP3   OH223739   0.193   0.074   7.505
  727TIP3    H123740   0.244   6.906   7.501
  727TIP3    H223741   0.215   0.113   7.590
  728TIP3   OH223742   1.545   0.556   0.194
  728TIP3    H123743   1.637   0.571   0.215
  728TIP3    H223744   1.537   0.461   0.188
  729TIP3   OH223745   3.471   5.328   1.268
  729TIP3    H123746   3.560   5.346   1.299
  729TIP3    H223747   3.472   5.234   1.247
  730TIP3   OH223748   3.240   6.205   1.766
  730TIP3    H123749   3.309   6.205   1.833
  730TIP3    H223750   3.160   6.187   1.815
  731TIP3   OH223751   2.590   0.553   8.554
  731TIP3    H123752   2.524   0.568   0.019
  731TIP3    H223753   2.659   0.504   8.598
  732TIP3   OH223754   2.995   4.475   1.332
  732TIP3    H123755   3.048   4.397   1.348
  732TIP3    H223756   2.971   4.470   1.240
  733TIP3   OH223757   5.453   4.178   0.822
  733TIP3    H123758   5.450   4.083   0.827
  733TIP3    H223759   5.520   4.203   0.887
  734TIP3   OH223760   6.424   6.789   1.852
  734TIP3    H123761   6.474   6.774   1.771
  734TIP3    H223762   6.446   6.878   1.877
  735TIP3   OH223763   6.054   5.046   1.382
  735TIP3    H123764   6.057   5.121   1.323
  735TIP3    H223765   5.997   5.074   1.454
  736TIP3   OH223766   5.024   0.820   1.869
  736TIP3    H123767   5.008   0.911   1.842
  736TIP3    H223768   5.100   0.792   1.818
  737TIP3   OH223769   2.609   2.697   6.905
  737TIP3    H123770   2.692   2.688   6.859
  737TIP3    H223771   2.633   2.723   6.994
  738TIP3   OH223772   3.579   4.389   6.785
  738TIP3    H123773   3.661   4.341   6.767
  738TIP3    H223774   3.560   4.369   6.876
  739TIP3   OH223775   1.628   0.706   1.422
  739TIP3    H123776   1.538   0.730   1.403
  739TIP3    H223777   1.681   0.775   1.382
  740TIP3   OH223778   4.293   4.187   0.517
  740TIP3    H123779   4.229   4.255   0.500
  740TIP3    H223780   4.330   4.209   0.602
  741TIP3   OH223781   2.617   5.557   6.368
  741TIP3    H123782   2.578   5.472   6.349
  741TIP3    H223783   2.709   5.539   6.386
  742TIP3   OH223784   6.618   0.668   8.057
  742TIP3    H123785   6.536   0.626   8.029
  742TIP3    H223786   6.676   0.595   8.078
  743TIP3   OH223787   5.337   6.716   7.508
  743TIP3    H123788   5.378   6.674   7.583
  743TIP3    H223789   5.361   6.808   7.516
  744TIP3   OH223790   4.750   6.642   1.366
  744TIP3    H123791   4.738   6.688   1.283
  744TIP3    H223792   4.721   6.705   1.432
  745TIP3   OH223793   4.602   1.138   1.885
  745TIP3    H123794   4.692   1.105   1.886
  745TIP3    H223795   4.563   1.099   1.807
  746TIP3   OH223796   4.000   3.214   1.301
  746TIP3    H123797   4.046   3.240   1.382
  746TIP3    H223798   4.064   3.231   1.232
  747TIP3   OH223799   3.689   5.500   7.287
  747TIP3    H123800   3.646   5.585   7.299
  747TIP3    H223801   3.753   5.495   7.359
  748TIP3   OH223802   6.799   6.157   1.734
  748TIP3    H123803   6.802   6.191   1.823
  748TIP3    H223804   6.890   6.156   1.705
  749TIP3   OH223805   6.026   0.949   7.971
  749TIP3    H123806   6.048   0.888   7.901
  749TIP3    H223807   6.102   1.007   7.977
  750TIP3   OH223808   1.889   6.094   0.157
  750TIP3    H123809   1.817   6.141   0.115
  750TIP3    H223810   1.871   6.002   0.139
  751TIP3   OH223811   6.603   1.013   7.406
  751TIP3    H123812   6.604   1.061   7.489
  751TIP3    H223813   6.615   1.080   7.339
  752TIP3   OH223814   3.580   4.650   8.392
  752TIP3    H123815   3.527   4.713   8.441
  752TIP3    H223816   3.562   4.669   8.300
  753TIP3   OH223817   0.495   2.412   6.723
  753TIP3    H123818   0.403   2.409   6.694
  753TIP3    H223819   0.539   2.347   6.669
  754TIP3   OH223820   6.398   5.683   1.829
  754TIP3    H123821   6.474   5.627   1.844
  754TIP3    H223822   6.412   5.758   1.887
  755TIP3   OH223823   4.964   6.338   1.026
  755TIP3    H123824   4.893   6.402   1.035
  755TIP3    H223825   4.981   6.309   1.116
  756TIP3   OH223826   5.786   0.073   0.759
  756TIP3    H123827   5.858   0.090   0.819
  756TIP3    H223828   5.822   0.013   0.694
  757TIP3   OH223829   0.797   2.351   6.748
  757TIP3    H123830   0.795   2.447   6.749
  757TIP3    H223831   0.792   2.326   6.841
  758TIP3   OH223832   6.283   0.727   1.187
  758TIP3    H123833   6.315   0.797   1.131
  758TIP3    H223834   6.362   0.684   1.219
  759TIP3   OH223835   2.003   5.726   7.501
  759TIP3    H123836   1.953   5.807   7.517
  759TIP3    H223837   2.063   5.749   7.431
  760TIP3   OH223838   3.490   4.867   1.349
  760TIP3    H123839   3.496   4.780   1.389
  760TIP3    H223840   3.415   4.908   1.392
  761TIP3   OH223841   6.319   2.852   1.771
  761TIP3    H123842   6.322   2.822   1.862
  761TIP3    H223843   6.374   2.790   1.723
  762TIP3   OH223844   1.076   4.044   6.145
  762TIP3    H123845   1.017   4.015   6.215
  762TIP3    H223846   1.066   4.139   6.144
  763TIP3   OH223847   5.546   2.981   0.121
  763TIP3    H123848   5.509   2.970   0.034
  763TIP3    H223849   5.513   3.065   0.151
  764TIP3   OH223850   3.765   3.673   7.301
  764TIP3    H123851   3.742   3.644   7.212
  764TIP3    H223852   3.845   3.625   7.321
  765TIP3   OH223853   6.247   4.783   0.968
  765TIP3    H123854   6.152   4.783   0.985
  765TIP3    H223855   6.257   4.727   0.892
  766TIP3   OH223856   2.719   3.611   7.863
  766TIP3    H123857   2.778   3.686   7.863
  766TIP3    H223858   2.679   3.612   7.776
  767TIP3   OH223859   5.374   6.747   1.020
  767TIP3    H123860   5.425   6.813   0.973
  767TIP3    H223861   5.313   6.797   1.074
  768TIP3   OH223862   2.637   5.220   1.450
  768TIP3    H123863   2.678   5.227   1.536
  768TIP3    H223864   2.546   5.195   1.469
  769TIP3   OH223865   0.100   6.800   8.473
  769TIP3    H123866   0.131   6.737   8.407
  769TIP3    H223867   0.137   6.767   8.556
  770TIP3   OH223868   3.842   1.511   0.177
  770TIP3    H123869   3.840   1.416   0.188
  770TIP3    H223870   3.759   1.542   0.213
  771TIP3   OH223871   6.503   2.529   8.469
  771TIP3    H123872   6.530   2.583   8.543
  771TIP3    H223873   6.528   2.440   8.495
  772TIP3   OH223874   2.815   6.208   0.560
  772TIP3    H123875   2.733   6.171   0.593
  772TIP3    H223876   2.809   6.199   0.465
  773TIP3   OH223877   6.775   3.581   0.393
  773TIP3    H123878   6.818   3.609   0.475
  773TIP3    H223879   6.814   3.636   0.326
  774TIP3   OH223880   6.553   1.386   0.293
  774TIP3    H123881   6.487   1.353   0.232
  774TIP3    H223882   6.532   1.479   0.303
  775TIP3   OH223883   0.262   1.880   0.252
  775TIP3    H123884   0.256   1.920   0.339
  775TIP3    H223885   0.355   1.874   0.234
  776TIP3   OH223886   5.905   4.660   7.411
  776TIP3    H123887   5.831   4.602   7.399
  776TIP3    H223888   5.945   4.631   7.493
  777TIP3   OH223889   4.571   4.152   7.900
  777TIP3    H123890   4.506   4.212   7.936
  777TIP3    H223891   4.618   4.119   7.977
  778TIP3   OH223892   1.357   1.169   0.494
  778TIP3    H123893   1.444   1.196   0.465
  778TIP3    H223894   1.308   1.157   0.413
  779TIP3   OH223895   0.675   6.119   2.053
  779TIP3    H123896   0.728   6.195   2.075
  779TIP3    H223897   0.738   6.050   2.034
  780TIP3   OH223898   1.099   3.623   7.372
  780TIP3    H123899   1.075   3.694   7.431
  780TIP3    H223900   1.187   3.645   7.342
  781TIP3   OH223901   2.531   4.983   6.843
  781TIP3    H123902   2.473   4.906   6.844
  781TIP3    H223903   2.472   5.057   6.833
  782TIP3   OH223904   1.397   4.772   0.287
  782TIP3    H123905   1.465   4.774   0.353
  782TIP3    H223906   1.361   4.684   0.292
  783TIP3   OH223907   2.328   1.400   8.346
  783TIP3    H123908   2.327   1.376   8.438
  783TIP3    H223909   2.413   1.442   8.333
  784TIP3   OH223910   6.827   2.179   1.278
  784TIP3    H123911   6.770   2.129   1.336
  784TIP3    H223912   6.796   2.157   1.190
  785TIP3   OH223913   6.769   4.896   1.822
  785TIP3    H123914   6.688   4.879   1.774
  785TIP3    H223915   6.740   4.920   1.910
  786TIP3   OH223916   4.188   3.329   6.483
  786TIP3    H123917   4.121   3.366   6.426
  786TIP3    H223918   4.207   3.399   6.546
  787TIP3   OH223919   3.620   5.685   7.608
  787TIP3    H123920   3.654   5.732   7.684
  787TIP3    H223921   3.691   5.624   7.584
  788TIP3   OH223922   0.115   4.449   0.140
  788TIP3    H123923   0.042   4.512   0.141
  788TIP3    H223924   0.093   4.385   0.208
  789TIP3   OH223925   5.447   2.768   0.286
  789TIP3    H123926   5.476   2.834   0.224
  789TIP3    H223927   5.364   2.736   0.250
  790TIP3   OH223928   2.749   0.243   6.497
  790TIP3    H123929   2.689   0.173   6.473
  790TIP3    H223930   2.740   0.309   6.428
  791TIP3   OH223931   5.941   6.760   1.540
  791TIP3    H123932   5.885   6.710   1.598
  791TIP3    H223933   5.981   6.826   1.596
  792TIP3   OH223934   5.560   3.230   7.596
  792TIP3    H123935   5.473   3.198   7.617
  792TIP3    H223936   5.592   3.268   7.678
  793TIP3   OH223937   0.925   5.541   6.722
  793TIP3    H123938   0.977   5.482   6.668
  793TIP3    H223939   0.906   5.490   6.801
  794TIP3   OH223940   5.129   6.464   0.095
  794TIP3    H123941   5.103   6.477   0.187
  794TIP3    H223942   5.196   6.530   0.080
  795TIP3   OH223943   5.106   2.656   1.906
  795TIP3    H123944   5.102   2.725   1.840
  795TIP3    H223945   5.025   2.667   1.956
  796TIP3   OH223946   6.495   6.661   6.330
  796TIP3    H123947   6.555   6.733   6.314
  796TIP3    H223948   6.497   6.609   6.249
  797TIP3   OH223949   3.248   5.299   1.589
  797TIP3    H123950   3.321   5.282   1.649
  797TIP3    H223951   3.193   5.361   1.637
  798TIP3   OH223952   5.089   0.209   1.282
  798TIP3    H123953   5.095   0.301   1.309
  798TIP3    H223954   5.087   0.160   1.364
  799TIP3   OH223955   0.452   0.347   7.880
  799TIP3    H123956   0.468   0.340   7.786
  799TIP3    H223957   0.514   0.286   7.919
  800TIP3   OH223958   1.702   1.658   7.940
  800TIP3    H123959   1.635   1.708   7.893
  800TIP3    H223960   1.745   1.606   7.872
  801TIP3   OH223961   4.207   1.503   2.161
  801TIP3    H123962   4.243   1.538   2.080
  801TIP3    H223963   4.284   1.486   2.216
  802TIP3   OH223964   6.666   3.234   0.731
  802TIP3    H123965   6.657   3.145   0.695
  802TIP3    H223966   6.660   3.291   0.655
  803TIP3   OH223967   4.085   2.616   8.503
  803TIP3    H123968   4.148   2.665   8.557
  803TIP3    H223969   4.005   2.668   8.509
  804TIP3   OH223970   0.089   3.282   8.005
  804TIP3    H123971   0.042   3.244   8.079
  804TIP3    H223972   0.181   3.260   8.021
  805TIP3   OH223973   2.267   0.639   1.109
  805TIP3    H123974   2.315   0.566   1.070
  805TIP3    H223975   2.194   0.654   1.049
  806TIP3   OH223976   4.919   1.600   8.199
  806TIP3    H123977   4.856   1.673   8.204
  806TIP3    H223978   4.897   1.545   8.275
  807TIP3   OH223979   0.613   3.848   1.589
  807TIP3    H123980   0.611   3.902   1.510
  807TIP3    H223981   0.707   3.835   1.606
  808TIP3   OH223982   0.936   4.529   1.731
  808TIP3    H123983   0.986   4.492   1.658
  808TIP3    H223984   0.962   4.621   1.733
  809TIP3   OH223985   0.849   1.125   7.196
  809TIP3    H123986   0.920   1.088   7.248
  809TIP3    H223987   0.773   1.124   7.254
  810TIP3   OH223988   0.068   4.669   7.853
  810TIP3    H123989   6.885   4.657   7.848
  810TIP3    H223990   0.103   4.580   7.858
  811TIP3   OH223991   4.204   2.159   0.770
  811TIP3    H123992   4.146   2.130   0.840
  811TIP3    H223993   4.144   2.188   0.700
  812TIP3   OH223994   3.735   6.427   2.537
  812TIP3    H123995   3.789   6.480   2.596
  812TIP3    H223996   3.745   6.338   2.570
  813TIP3   OH223997   0.709   5.915   1.806
  813TIP3    H123998   0.750   5.932   1.891
  813TIP3    H223999   0.674   6.000   1.779
  814TIP3   OH224000   4.069   4.532   6.965
  814TIP3    H124001   4.140   4.509   7.025
  814TIP3    H224002   4.057   4.454   6.912
  815TIP3   OH224003   1.646   2.236   8.150
  815TIP3    H124004   1.710   2.212   8.083
  815TIP3    H224005   1.586   2.296   8.107
  816TIP3   OH224006   2.178   2.402   6.710
  816TIP3    H124007   2.151   2.477   6.658
  816TIP3    H224008   2.151   2.423   6.800
  817TIP3   OH224009   5.276   3.381   1.383
  817TIP3    H124010   5.364   3.378   1.344
  817TIP3    H224011   5.288   3.425   1.467
  818TIP3   OH224012   6.780   4.520   6.665
  818TIP3    H124013   6.766   4.425   6.667
  818TIP3    H224014   6.796   4.539   6.573
  819TIP3   OH224015   1.165   3.218   1.894
  819TIP3    H124016   1.243   3.168   1.871
  819TIP3    H224017   1.151   3.276   1.820
  820TIP3   OH224018   1.002   3.174   7.376
  820TIP3    H124019   1.019   3.133   7.461
  820TIP3    H224020   0.968   3.261   7.398
  821TIP3   OH224021   5.107   2.487   0.905
  821TIP3    H124022   5.130   2.421   0.839
  821TIP3    H224023   5.055   2.552   0.858
  822TIP3   OH224024   5.368   2.278   1.106
  822TIP3    H124025   5.324   2.362   1.117
  822TIP3    H224026   5.399   2.255   1.193
  823TIP3   OH224027   5.736   1.157   1.038
  823TIP3    H124028   5.747   1.222   1.107
  823TIP3    H224029   5.825   1.124   1.022
  824TIP3   OH224030   3.887   0.037   1.546
  824TIP3    H124031   3.863   0.130   1.542
  824TIP3    H224032   3.804   6.903   1.533
  825TIP3   OH224033   3.712   3.723   1.371
  825TIP3    H124034   3.795   3.690   1.405
  825TIP3    H224035   3.694   3.669   1.295
  826TIP3   OH224036   4.024   6.362   0.555
  826TIP3    H124037   3.996   6.445   0.596
  826TIP3    H224038   4.112   6.380   0.523
  827TIP3   OH224039   2.124   6.072   8.051
  827TIP3    H124040   2.217   6.074   8.075
  827TIP3    H224041   2.117   6.130   7.976
  828TIP3   OH224042   4.026   4.129   1.153
  828TIP3    H124043   4.087   4.165   1.217
  828TIP3    H224044   3.956   4.194   1.149
  829TIP3   OH224045   3.770   4.192   7.583
  829TIP3    H124046   3.765   4.109   7.630
  829TIP3    H224047   3.701   4.187   7.517
  830TIP3   OH224048   6.100   1.653   8.516
  830TIP3    H124049   6.119   1.709   8.440
  830TIP3    H224050   6.006   1.637   8.511
  831TIP3   OH224051   4.924   1.449   8.419
  831TIP3    H124052   4.858   1.419   8.482
  831TIP3    H224053   4.992   1.489   8.473
  832TIP3   OH224054   4.908   4.541   8.519
  832TIP3    H124055   4.917   4.622   8.570
  832TIP3    H224056   4.888   4.474   8.585
  833TIP3   OH224057   3.884   3.433   7.463
  833TIP3    H124058   3.979   3.426   7.475
  833TIP3    H224059   3.852   3.465   7.547
  834TIP3   OH224060   5.744   5.220   0.524
  834TIP3    H124061   5.653   5.188   0.518
  834TIP3    H224062   5.735   5.315   0.530
  835TIP3   OH224063   5.092   4.448   0.816
  835TIP3    H124064   5.157   4.480   0.878
  835TIP3    H224065   5.045   4.527   0.788
  836TIP3   OH224066   1.624   1.875   0.389
  836TIP3    H124067   1.652   1.912   0.305
  836TIP3    H224068   1.673   1.925   0.454
  837TIP3   OH224069   0.654   5.986   6.498
  837TIP3    H124070   0.592   6.011   6.568
  837TIP3    H224071   0.623   5.900   6.469
  838TIP3   OH224072   1.240   4.116   6.952
  838TIP3    H124073   1.196   4.189   6.994
  838TIP3    H224074   1.325   4.111   6.994
  839TIP3   OH224075   0.496   0.355   6.261
  839TIP3    H124076   0.503   0.403   6.343
  839TIP3    H224077   0.539   0.272   6.278
  840TIP3   OH224078   5.995   4.387   0.281
  840TIP3    H124079   6.078   4.346   0.307
  840TIP3    H224080   5.975   4.448   0.352
  841TIP3   OH224081   5.236   5.265   1.657
  841TIP3    H124082   5.268   5.333   1.716
  841TIP3    H224083   5.231   5.186   1.711
  842TIP3   OH224084   5.412   5.380   6.551
  842TIP3    H124085   5.351   5.427   6.494
  842TIP3    H224086   5.366   5.298   6.572
  843TIP3   OH224087   3.976   3.486   6.981
  843TIP3    H124088   4.004   3.419   7.043
  843TIP3    H224089   4.056   3.537   6.964
  844TIP3   OH224090   0.394   2.509   7.646
  844TIP3    H124091   0.455   2.473   7.710
  844TIP3    H224092   0.331   2.559   7.697
  845TIP3   OH224093   1.365   3.287   0.216
  845TIP3    H124094   1.434   3.261   0.155
  845TIP3    H224095   1.405   3.358   0.267
  846TIP3   OH224096   3.681   4.693   7.843
  846TIP3    H124097   3.612   4.697   7.777
  846TIP3    H224098   3.743   4.761   7.818
  847TIP3   OH224099   4.551   1.404   1.915
  847TIP3    H124100   4.608   1.426   1.989
  847TIP3    H224101   4.549   1.308   1.915
  848TIP3   OH224102   6.347   0.477   1.381
  848TIP3    H124103   6.262   0.519   1.372
  848TIP3    H224104   6.355   0.422   1.303
  849TIP3   OH224105   5.469   1.138   1.407
  849TIP3    H124106   5.495   1.219   1.451
  849TIP3    H224107   5.374   1.142   1.404
  850TIP3   OH224108   5.217   5.504   8.203
  850TIP3    H124109   5.191   5.440   8.137
  850TIP3    H224110   5.261   5.573   8.153
  851TIP3   OH224111   3.288   1.141   1.854
  851TIP3    H124112   3.371   1.095   1.873
  851TIP3    H224113   3.307   1.233   1.873
  852TIP3   OH224114   1.964   6.319   0.897
  852TIP3    H124115   2.046   6.356   0.932
  852TIP3    H224116   1.903   6.322   0.971
  853TIP3   OH224117   0.666   2.055   8.086
  853TIP3    H124118   0.705   1.970   8.066
  853TIP3    H224119   0.574   2.045   8.059
  854TIP3   OH224120   5.410   4.907   7.047
  854TIP3    H124121   5.337   4.867   7.000
  854TIP3    H224122   5.417   4.995   7.011
  855TIP3   OH224123   0.670   5.427   1.367
  855TIP3    H124124   0.634   5.416   1.279
  855TIP3    H224125   0.607   5.484   1.411
  856TIP3   OH224126   2.351   0.472   2.184
  856TIP3    H124127   2.437   0.513   2.188
  856TIP3    H224128   2.350   0.409   2.255
  857TIP3   OH224129   3.005   3.793   1.851
  857TIP3    H124130   2.991   3.874   1.899
  857TIP3    H224131   2.931   3.787   1.791
  858TIP3   OH224132   1.003   3.105   0.122
  858TIP3    H124133   1.076   3.159   0.091
  858TIP3    H224134   1.025   3.016   0.094
  859TIP3   OH224135   6.743   2.979   1.281
  859TIP3    H124136   6.803   2.905   1.296
  859TIP3    H224137   6.666   2.958   1.333
  860TIP3   OH224138   0.082   1.870   0.797
  860TIP3    H124139   0.136   1.931   0.846
  860TIP3    H224140   0.121   1.784   0.815
  861TIP3   OH224141   3.375   4.770   0.445
  861TIP3    H124142   3.406   4.824   0.372
  861TIP3    H224143   3.295   4.729   0.412
  862TIP3   OH224144   4.944   3.045   1.344
  862TIP3    H124145   4.933   3.099   1.422
  862TIP3    H224146   4.959   2.957   1.377
  863TIP3   OH224147   3.892   1.194   0.792
  863TIP3    H124148   3.841   1.246   0.854
  863TIP3    H224149   3.835   1.119   0.772
  864TIP3   OH224150   0.618   3.257   1.579
  864TIP3    H124151   0.712   3.265   1.567
  864TIP3    H224152   0.599   3.314   1.654
  865TIP3   OH224153   4.420   2.112   0.312
  865TIP3    H124154   4.503   2.065   0.326
  865TIP3    H224155   4.431   2.153   0.226
  866TIP3   OH224156   6.203   5.989   1.016
  866TIP3    H124157   6.128   5.942   0.980
  866TIP3    H224158   6.194   5.977   1.111
  867TIP3   OH224159   4.810   3.659   6.800
  867TIP3    H124160   4.793   3.576   6.755
  867TIP3    H224161   4.805   3.725   6.730
  868TIP3   OH224162   4.587   1.646   7.502
  868TIP3    H124163   4.651   1.714   7.520
  868TIP3    H224164   4.638   1.576   7.461
  869TIP3   OH224165   6.312   6.142   0.404
  869TIP3    H124166   6.362   6.208   0.358
  869TIP3    H224167   6.245   6.114   0.341
  870TIP3   OH224168   1.617   5.210   0.568
  870TIP3    H124169   1.644   5.232   0.478
  870TIP3    H224170   1.676   5.261   0.624
  871TIP3   OH224171   3.639   0.396   0.764
  871TIP3    H124172   3.595   0.471   0.804
  871TIP3    H224173   3.570   0.332   0.749
  872TIP3   OH224174   1.684   1.266   2.177
  872TIP3    H124175   1.679   1.358   2.153
  872TIP3    H224176   1.663   1.219   2.097
  873TIP3   OH224177   0.195   2.581   1.378
  873TIP3    H124178   0.287   2.558   1.391
  873TIP3    H224179   0.174   2.546   1.291
  874TIP3   OH224180   0.349   3.069   8.246
  874TIP3    H124181   0.352   3.087   8.152
  874TIP3    H224182   0.429   3.110   8.280
  875TIP3   OH224183   6.427   1.129   0.196
  875TIP3    H124184   6.521   1.121   0.183
  875TIP3    H224185   6.389   1.070   0.130
  876TIP3   OH224186   6.279   3.902   7.223
  876TIP3    H124187   6.280   3.892   7.128
  876TIP3    H224188   6.201   3.854   7.252
  877TIP3   OH224189   6.108   0.525   7.534
  877TIP3    H124190   6.049   0.488   7.468
  877TIP3    H224191   6.185   0.469   7.532
  878TIP3   OH224192   6.580   1.603   2.143
  878TIP3    H124193   6.505   1.577   2.196
  878TIP3    H224194   6.642   1.530   2.150
  879TIP3   OH224195   1.231   0.065   0.584
  879TIP3    H124196   1.310   0.067   0.638
  879TIP3    H224197   1.225   0.153   0.547
  880TIP3   OH224198   1.900   3.762   8.000
  880TIP3    H124199   1.863   3.812   7.927
  880TIP3    H224200   1.919   3.676   7.963
  881TIP3   OH224201   3.723   1.097   8.065
  881TIP3    H124202   3.794   1.131   8.119
  881TIP3    H224203   3.690   1.175   8.019
  882TIP3   OH224204   2.428   0.963   0.918
  882TIP3    H124205   2.431   1.029   0.987
  882TIP3    H224206   2.515   0.968   0.876
  883TIP3   OH224207   3.868   2.033   0.223
  883TIP3    H124208   3.930   2.004   0.290
  883TIP3    H224209   3.802   1.964   0.220
  884TIP3   OH224210   3.066   0.998   8.543
  884TIP3    H124211   3.037   0.957   8.461
  884TIP3    H224212   3.040   1.089   8.534
  885TIP3   OH224213   2.212   3.240   0.746
  885TIP3    H124214   2.198   3.169   0.809
  885TIP3    H224215   2.303   3.267   0.762
  886TIP3   OH224216   0.316   6.597   8.384
  886TIP3    H124217   0.298   6.526   8.446
  886TIP3    H224218   0.409   6.585   8.362
  887TIP3   OH224219   1.190   5.086   0.540
  887TIP3    H124220   1.264   5.042   0.582
  887TIP3    H224221   1.116   5.070   0.599
  888TIP3   OH224222   3.732   4.436   0.165
  888TIP3    H124223   3.797   4.491   0.121
  888TIP3    H224224   3.691   4.386   0.094
  889TIP3   OH224225   5.358   6.811   6.703
  889TIP3    H124226   5.351   6.751   6.778
  889TIP3    H224227   5.270   6.812   6.665
  890TIP3   OH224228   2.331   4.438   6.252
  890TIP3    H124229   2.373   4.353   6.238
  890TIP3    H224230   2.390   4.501   6.210
  891TIP3   OH224231   4.997   4.691   0.906
  891TIP3    H124232   4.910   4.730   0.910
  891TIP3    H224233   5.054   4.762   0.874
  892TIP3   OH224234   1.942   0.470   6.992
  892TIP3    H124235   1.923   0.381   7.020
  892TIP3    H224236   1.871   0.492   6.932
  893TIP3   OH224237   3.834   3.249   7.631
  893TIP3    H124238   3.914   3.206   7.660
  893TIP3    H224239   3.852   3.275   7.541
  894TIP3   OH224240   6.119   3.974   8.294
  894TIP3    H124241   6.160   3.989   8.209
  894TIP3    H224242   6.149   4.048   8.348
  895TIP3   OH224243   0.759   2.823   6.849
  895TIP3    H124244   0.845   2.860   6.870
  895TIP3    H224245   0.709   2.897   6.814
  896TIP3   OH224246   0.219   3.017   1.214
  896TIP3    H124247   0.152   3.071   1.172
  896TIP3    H224248   0.181   2.993   1.298
  897TIP3   OH224249   5.119   4.303   1.090
  897TIP3    H124250   5.039   4.332   1.047
  897TIP3    H224251   5.175   4.381   1.091
  898TIP3   OH224252   5.195   4.225   0.356
  898TIP3    H124253   5.285   4.192   0.366
  898TIP3    H224254   5.145   4.179   0.423
  899TIP3   OH224255   6.469   3.590   0.822
  899TIP3    H124256   6.423   3.567   0.902
  899TIP3    H224257   6.554   3.547   0.829
  900TIP3   OH224258   1.354   2.015   7.122
  900TIP3    H124259   1.371   2.009   7.028
  900TIP3    H224260   1.368   1.926   7.154
  901TIP3   OH224261   3.148   5.270   7.381
  901TIP3    H124262   3.085   5.319   7.328
  901TIP3    H224263   3.160   5.188   7.333
  902TIP3   OH224264   0.282   6.503   0.378
  902TIP3    H124265   0.190   6.523   0.396
  902TIP3    H224266   0.291   6.410   0.397
  903TIP3   OH224267   1.113   1.400   1.447
  903TIP3    H124268   1.158   1.454   1.383
  903TIP3    H224269   1.123   1.447   1.530
  904TIP3   OH224270   6.464   3.838   2.365
  904TIP3    H124271   6.493   3.796   2.284
  904TIP3    H224272   6.390   3.892   2.339
  905TIP3   OH224273   3.880   4.375   1.192
  905TIP3    H124274   3.831   4.456   1.208
  905TIP3    H224275   3.954   4.380   1.253
  906TIP3   OH224276   4.076   0.531   1.246
  906TIP3    H124277   3.984   0.516   1.270
  906TIP3    H224278   4.122   0.531   1.330
  907TIP3   OH224279   3.859   4.909   0.340
  907TIP3    H124280   3.817   4.978   0.392
  907TIP3    H224281   3.802   4.833   0.352
  908TIP3   OH224282   2.532   6.423   6.139
  908TIP3    H124283   2.513   6.411   6.046
  908TIP3    H224284   2.588   6.500   6.142
  909TIP3   OH224285   4.973   6.568   7.089
  909TIP3    H124286   4.958   6.656   7.123
  909TIP3    H224287   4.921   6.512   7.146
  910TIP3   OH224288   5.318   6.103   2.468
  910TIP3    H124289   5.306   6.009   2.455
  910TIP3    H224290   5.320   6.140   2.379
  911TIP3   OH224291   0.319   0.368   7.313
  911TIP3    H124292   0.243   0.396   7.262
  911TIP3    H224293   0.284   0.354   7.401
  912TIP3   OH224294   0.434   0.536   1.513
  912TIP3    H124295   0.397   0.620   1.488
  912TIP3    H224296   0.373   0.501   1.578
  913TIP3   OH224297   3.375   0.050   0.413
  913TIP3    H124298   3.418   6.890   0.459
  913TIP3    H224299   3.411   0.047   0.324
  914TIP3   OH224300   3.601   1.534   0.351
  914TIP3    H124301   3.617   1.457   0.296
  914TIP3    H224302   3.579   1.498   0.437
  915TIP3   OH224303   4.227   2.196   1.648
  915TIP3    H124304   4.132   2.208   1.640
  915TIP3    H224305   4.263   2.232   1.567
  916TIP3   OH224306   5.873   4.626   0.421
  916TIP3    H124307   5.888   4.701   0.363
  916TIP3    H224308   5.788   4.591   0.393
  917TIP3   OH224309   2.851   4.960   1.114
  917TIP3    H124310   2.925   4.912   1.151
  917TIP3    H224311   2.827   4.909   1.036
  918TIP3   OH224312   6.452   4.589   1.596
  918TIP3    H124313   6.427   4.665   1.649
  918TIP3    H224314   6.508   4.537   1.653
  919TIP3   OH224315   3.526   4.927   2.086
  919TIP3    H124316   3.489   4.846   2.051
  919TIP3    H224317   3.588   4.897   2.152
  920TIP3   OH224318   2.331   3.582   7.005
  920TIP3    H124319   2.317   3.676   7.014
  920TIP3    H224320   2.338   3.567   6.911
  921TIP3   OH224321   0.492   1.939   1.101
  921TIP3    H124322   0.469   1.950   1.193
  921TIP3    H224323   0.409   1.935   1.055
  922TIP3   OH224324   0.444   0.278   7.608
  922TIP3    H124325   0.475   0.193   7.638
  922TIP3    H224326   0.524   0.327   7.589
  923TIP3   OH224327   0.546   2.380   7.850
  923TIP3    H124328   0.612   2.431   7.897
  923TIP3    H224329   0.577   2.290   7.855
  924TIP3   OH224330   0.951   4.250   8.192
  924TIP3    H124331   1.045   4.268   8.189
  924TIP3    H224332   0.916   4.300   8.118
  925TIP3   OH224333   3.890   1.804   1.129
  925TIP3    H124334   3.830   1.733   1.107
  925TIP3    H224335   3.834   1.881   1.136
  926TIP3   OH224336   3.630   4.450   7.242
  926TIP3    H124337   3.720   4.424   7.223
  926TIP3    H224338   3.577   4.401   7.178
  927TIP3   OH224339   0.438   0.900   7.844
  927TIP3    H124340   0.394   0.946   7.772
  927TIP3    H224341   0.379   0.827   7.865
  928TIP3   OH224342   6.272   6.800   1.219
  928TIP3    H124343   6.249   6.844   1.137
  928TIP3    H224344   6.367   6.792   1.216
  929TIP3   OH224345   4.377   3.095   1.163
  929TIP3    H124346   4.406   3.079   1.253
  929TIP3    H224347   4.309   3.030   1.147
  930TIP3   OH224348   6.872   6.801   7.539
  930TIP3    H124349   6.908   6.724   7.583
  930TIP3    H224350   0.033   6.861   7.531
  931TIP3   OH224351   0.601   5.513   0.492
  931TIP3    H124352   0.549   5.482   0.566
  931TIP3    H224353   0.536   5.533   0.424
  932TIP3   OH224354   5.199   3.050   7.515
  932TIP3    H124355   5.147   3.108   7.460
  932TIP3    H224356   5.224   3.104   7.590
  933TIP3   OH224357   2.726   4.521   1.717
  933TIP3    H124358   2.642   4.484   1.690
  933TIP3    H224359   2.762   4.458   1.779
  934TIP3   OH224360   5.641   2.652   1.281
  934TIP3    H124361   5.637   2.748   1.287
  934TIP3    H224362   5.553   2.622   1.304
  935TIP3   OH224363   2.851   5.798   7.891
  935TIP3    H124364   2.901   5.747   7.827
  935TIP3    H224365   2.783   5.738   7.920
  936TIP3   OH224366   3.763   5.021   0.828
  936TIP3    H124367   3.739   4.960   0.758
  936TIP3    H224368   3.681   5.066   0.850
  937TIP3   OH224369   1.737   5.140   7.744
  937TIP3    H124370   1.661   5.083   7.758
  937TIP3    H224371   1.812   5.088   7.772
  938TIP3   OH224372   6.772   3.824   0.988
  938TIP3    H124373   6.857   3.817   0.944
  938TIP3    H224374   6.786   3.783   1.073
  939TIP3   OH224375   0.930   2.901   8.400
  939TIP3    H124376   0.912   2.851   8.480
  939TIP3    H224377   0.870   2.864   8.335
  940TIP3   OH224378   4.792   5.005   1.613
  940TIP3    H124379   4.751   4.922   1.592
  940TIP3    H224380   4.811   4.999   1.707
  941TIP3   OH224381   3.206   0.437   1.481
  941TIP3    H124382   3.255   0.516   1.502
  941TIP3    H224383   3.120   0.468   1.454
  942TIP3   OH224384   1.664   4.090   8.077
  942TIP3    H124385   1.648   4.182   8.098
  942TIP3    H224386   1.752   4.073   8.110
  943TIP3   OH224387   0.168   4.359   1.818
  943TIP3    H124388   0.179   4.444   1.861
  943TIP3    H224389   0.183   4.295   1.886
  944TIP3   OH224390   4.183   4.439   0.135
  944TIP3    H124391   4.263   4.424   0.185
  944TIP3    H224392   4.142   4.353   0.128
  945TIP3   OH224393   0.342   1.612   1.574
  945TIP3    H124394   0.356   1.518   1.590
  945TIP3    H224395   0.341   1.651   1.661
  946TIP3   OH224396   3.376   1.147   7.958
  946TIP3    H124397   3.364   1.081   7.890
  946TIP3    H224398   3.471   1.150   7.973
  947TIP3   OH224399   3.327   6.654   0.096
  947TIP3    H124400   3.242   6.622   0.066
  947TIP3    H224401   3.384   6.642   0.020
  948TIP3   OH224402   2.313   0.240   6.044
  948TIP3    H124403   2.259   0.208   5.972
  948TIP3    H224404   2.285   0.331   6.055
  949TIP3   OH224405   5.784   4.138   0.914
  949TIP3    H124406   5.756   4.184   0.993
  949TIP3    H224407   5.762   4.046   0.931
  950TIP3   OH224408   0.111   5.272   6.752
  950TIP3    H124409   0.042   5.210   6.773
  950TIP3    H224410   0.076   5.324   6.680
  951TIP3   OH224411   6.614   6.028   7.515
  951TIP3    H124412   6.555   5.970   7.563
  951TIP3    H224413   6.603   6.113   7.557
  952TIP3   OH224414   4.023   2.579   2.194
  952TIP3    H124415   4.004   2.500   2.245
  952TIP3    H224416   4.117   2.592   2.204
  953TIP3   OH224417   1.111   4.819   1.097
  953TIP3    H124418   1.127   4.725   1.087
  953TIP3    H224419   1.191   4.853   1.136
  954TIP3   OH224420   5.616   0.008   7.573
  954TIP3    H124421   5.703   0.025   7.610
  954TIP3    H224422   5.577   0.095   7.561
  955TIP3   OH224423   2.093   1.222   6.775
  955TIP3    H124424   2.165   1.264   6.821
  955TIP3    H224425   2.097   1.257   6.686
  956TIP3   OH224426   2.126   5.640   0.562
  956TIP3    H124427   2.119   5.603   0.475
  956TIP3    H224428   2.190   5.711   0.553
  957TIP3   OH224429   4.384   1.497   0.066
  957TIP3    H124430   4.307   1.532   0.022
  957TIP3    H224431   4.446   1.480   8.598
  958TIP3   OH224432   4.781   2.631   7.096
  958TIP3    H124433   4.727   2.594   7.166
  958TIP3    H224434   4.754   2.585   7.017
  959TIP3   OH224435   4.556   6.187   0.720
  959TIP3    H124436   4.474   6.146   0.690
  959TIP3    H224437   4.591   6.125   0.784
  960TIP3   OH224438   6.072   1.519   0.964
  960TIP3    H124439   6.126   1.441   0.967
  960TIP3    H224440   6.026   1.514   0.880
  961TIP3   OH224441   3.255   0.711   6.950
  961TIP3    H124442   3.313   0.648   6.993
  961TIP3    H224443   3.270   0.699   6.857
  962TIP3   OH224444   6.516   0.223   8.579
  962TIP3    H124445   6.551   0.285   8.516
  962TIP3    H224446   6.459   0.276   0.032
  963TIP3   OH224447   1.203   1.893   1.088
  963TIP3    H124448   1.233   1.830   1.153
  963TIP3    H224449   1.108   1.891   1.094
  964TIP3   OH224450   2.878   2.078   0.784
  964TIP3    H124451   2.911   1.995   0.750
  964TIP3    H224452   2.783   2.071   0.775
  965TIP3   OH224453   2.652   2.344   1.772
  965TIP3    H124454   2.627   2.436   1.765
  965TIP3    H224455   2.697   2.325   1.690
  966TIP3   OH224456   4.752   6.513   0.988
  966TIP3    H124457   4.683   6.465   1.033
  966TIP3    H224458   4.724   6.515   0.896
  967TIP3   OH224459   2.572   2.687   0.544
  967TIP3    H124460   2.495   2.674   0.488
  967TIP3    H224461   2.631   2.616   0.521
  968TIP3   OH224462   4.433   2.117   0.937
  968TIP3    H124463   4.407   2.085   1.023
  968TIP3    H224464   4.351   2.121   0.887
  969TIP3   OH224465   3.755   3.415   1.298
  969TIP3    H124466   3.778   3.436   1.389
  969TIP3    H224467   3.808   3.338   1.277
  970TIP3   OH224468   4.261   6.421   1.125
  970TIP3    H124469   4.263   6.489   1.057
  970TIP3    H224470   4.182   6.371   1.105
  971TIP3   OH224471   1.865   4.832   0.240
  971TIP3    H124472   1.896   4.877   0.161
  971TIP3    H224473   1.927   4.760   0.253
  972TIP3   OH224474   3.597   5.852   6.567
  972TIP3    H124475   3.522   5.806   6.529
  972TIP3    H224476   3.609   5.811   6.653
  973TIP3   OH224477   6.237   2.684   6.286
  973TIP3    H124478   6.203   2.725   6.366
  973TIP3    H224479   6.174   2.708   6.218
  974TIP3   OH224480   3.737   2.776   1.168
  974TIP3    H124481   3.770   2.852   1.121
  974TIP3    H224482   3.729   2.806   1.259
  975TIP3   OH224483   5.990   1.428   8.226
  975TIP3    H124484   6.021   1.401   8.139
  975TIP3    H224485   5.931   1.358   8.253
  976TIP3   OH224486   4.686   1.263   7.663
  976TIP3    H124487   4.738   1.197   7.618
  976TIP3    H224488   4.608   1.216   7.692
  977TIP3   OH224489   4.693   2.575   0.055
  977TIP3    H124490   4.768   2.553   0.000
  977TIP3    H224491   4.672   2.665   0.031
  978TIP3   OH224492   2.924   2.635   0.400
  978TIP3    H124493   2.864   2.697   0.357
  978TIP3    H224494   2.867   2.569   0.439
  979TIP3   OH224495   4.925   5.500   7.465
  979TIP3    H124496   4.886   5.581   7.499
  979TIP3    H224497   5.006   5.528   7.422
  980TIP3   OH224498   5.066   1.972   7.431
  980TIP3    H124499   5.027   1.943   7.513
  980TIP3    H224500   5.160   1.961   7.444
  981TIP3   OH224501   0.894   2.448   7.072
  981TIP3    H124502   0.961   2.512   7.048
  981TIP3    H224503   0.827   2.499   7.117
  982TIP3   OH224504   2.128   2.129   8.292
  982TIP3    H124505   2.222   2.147   8.300
  982TIP3    H224506   2.088   2.216   8.297
  983TIP3   OH224507   5.630   5.440   7.113
  983TIP3    H124508   5.560   5.382   7.142
  983TIP3    H224509   5.587   5.502   7.055
  984TIP3   OH224510   0.120   2.213   0.277
  984TIP3    H124511   0.190   2.277   0.288
  984TIP3    H224512   0.124   2.159   0.356
  985TIP3   OH224513   6.561   5.788   6.525
  985TIP3    H124514   6.627   5.728   6.489
  985TIP3    H224515   6.478   5.741   6.517
  986TIP3   OH224516   3.961   6.230   7.541
  986TIP3    H124517   4.028   6.178   7.497
  986TIP3    H224518   3.961   6.198   7.631
  987TIP3   OH224519   4.183   3.334   1.129
  987TIP3    H124520   4.134   3.416   1.138
  987TIP3    H224521   4.274   3.359   1.144
  988TIP3   OH224522   3.799   6.624   7.311
  988TIP3    H124523   3.753   6.559   7.258
  988TIP3    H224524   3.848   6.573   7.375
  989TIP3   OH224525   3.662   4.255   0.378
  989TIP3    H124526   3.675   4.319   0.308
  989TIP3    H224527   3.637   4.307   0.454
  990TIP3   OH224528   6.628   3.778   0.040
  990TIP3    H124529   6.573   3.788   8.565
  990TIP3    H224530   6.704   3.834   0.022
  991TIP3   OH224531   2.726   4.461   7.646
  991TIP3    H124532   2.642   4.422   7.672
  991TIP3    H224533   2.765   4.395   7.588
  992TIP3   OH224534   3.313   3.472   8.507
  992TIP3    H124535   3.348   3.431   8.586
  992TIP3    H224536   3.332   3.410   8.437
  993TIP3   OH224537   2.938   3.296   0.949
  993TIP3    H124538   2.844   3.283   0.934
  993TIP3    H224539   2.975   3.208   0.950
  994TIP3   OH224540   1.943   3.932   8.422
  994TIP3    H124541   1.907   4.008   8.467
  994TIP3    H224542   1.879   3.863   8.436
  995TIP3   OH224543   4.966   6.634   2.007
  995TIP3    H124544   4.923   6.700   2.060
  995TIP3    H224545   4.907   6.558   2.011
  996TIP3   OH224546   5.496   1.370   1.624
  996TIP3    H124547   5.557   1.305   1.657
  996TIP3    H224548   5.457   1.409   1.702
  997TIP3   OH224549   2.533   4.626   1.375
  997TIP3    H124550   2.626   4.643   1.394
  997TIP3    H224551   2.495   4.713   1.365
  998TIP3   OH224552   4.898   4.270   6.389
  998TIP3    H124553   4.873   4.362   6.400
  998TIP3    H224554   4.990   4.267   6.417
  999TIP3   OH224555   4.999   2.667   0.691
  999TIP3    H124556   5.044   2.751   0.687
  999TIP3    H224557   4.914   2.683   0.652
 1000TIP3   OH224558   2.626   6.247   7.818
 1000TIP3    H124559   2.562   6.177   7.826
 1000TIP3    H224560   2.574   6.327   7.808
 1001TIP3   OH224561   3.797   2.706   7.470
 1001TIP3    H124562   3.880   2.709   7.518
 1001TIP3    H224563   3.776   2.797   7.453
 1002TIP3   OH224564   5.834   1.076   7.759
 1002TIP3    H124565   5.834   1.002   7.697
 1002TIP3    H224566   5.856   1.036   7.843
 1003TIP3   OH224567   6.299   1.005   1.294
 1003TIP3    H124568   6.249   1.084   1.314
 1003TIP3    H224569   6.375   1.009   1.351
 1004TIP3   OH224570   0.750   3.816   1.102
 1004TIP3    H124571   0.751   3.733   1.150
 1004TIP3    H224572   0.778   3.881   1.167
 1005TIP3   OH224573   3.024   0.288   8.478
 1005TIP3    H124574   3.095   0.225   8.464
 1005TIP3    H224575   2.948   0.234   8.502
 1006TIP3   OH224576   2.242   2.601   6.049
 1006TIP3    H124577   2.178   2.667   6.024
 1006TIP3    H224578   2.309   2.649   6.098
 1007TIP3   OH224579   1.377   1.850   8.439
 1007TIP3    H124580   1.368   1.900   8.519
 1007TIP3    H224581   1.440   1.899   8.386
 1008TIP3   OH224582   3.841   3.733   0.699
 1008TIP3    H124583   3.785   3.749   0.775
 1008TIP3    H224584   3.907   3.670   0.731
 1009TIP3   OH224585   3.319   6.826   1.636
 1009TIP3    H124586   3.320   6.803   1.543
 1009TIP3    H224587   3.347   6.746   1.681
 1010TIP3   OH224588   0.905   4.539   1.140
 1010TIP3    H124589   0.997   4.555   1.159
 1010TIP3    H224590   0.905   4.467   1.078
 1011TIP3   OH224591   3.604   3.076   7.716
 1011TIP3    H124592   3.584   3.056   7.624
 1011TIP3    H224593   3.666   3.149   7.712
 1012TIP3   OH224594   1.982   5.311   0.498
 1012TIP3    H124595   1.989   5.223   0.460
 1012TIP3    H224596   1.988   5.370   0.423
 1013TIP3   OH224597   3.447   5.271   1.754
 1013TIP3    H124598   3.494   5.344   1.712
 1013TIP3    H224599   3.516   5.223   1.800
 1014TIP3   OH224600   2.527   6.708   8.248
 1014TIP3    H124601   2.529   6.776   8.315
 1014TIP3    H224602   2.595   6.734   8.186
 1015TIP3   OH224603   6.492   2.179   2.083
 1015TIP3    H124604   6.481   2.084   2.077
 1015TIP3    H224605   6.403   2.214   2.083
 1016TIP3   OH224606   4.576   6.769   6.857
 1016TIP3    H124607   4.533   6.720   6.787
 1016TIP3    H224608   4.653   6.718   6.879
 1017TIP3   OH224609   5.232   0.487   2.469
 1017TIP3    H124610   5.174   0.416   2.495
 1017TIP3    H224611   5.255   0.531   2.550
 1018TIP3   OH224612   2.691   0.280   6.781
 1018TIP3    H124613   2.742   0.270   6.701
 1018TIP3    H224614   2.682   0.374   6.792
 1019TIP3   OH224615   1.323   5.757   1.061
 1019TIP3    H124616   1.358   5.781   0.975
 1019TIP3    H224617   1.390   5.787   1.123
 1020TIP3   OH224618   6.844   3.543   7.068
 1020TIP3    H124619   6.809   3.608   7.007
 1020TIP3    H224620   6.773   3.526   7.130
 1021TIP3   OH224621   0.484   3.589   1.248
 1021TIP3    H124622   0.577   3.571   1.267
 1021TIP3    H224623   0.455   3.511   1.200
 1022TIP3   OH224624   0.054   1.474   1.612
 1022TIP3    H124625   0.136   1.522   1.602
 1022TIP3    H224626   0.045   1.459   1.706
 1023TIP3   OH224627   6.580   5.019   6.558
 1023TIP3    H124628   6.520   5.078   6.512
 1023TIP3    H224629   6.526   4.975   6.623
 1024TIP3   OH224630   3.505   6.896   0.180
 1024TIP3    H124631   3.434   6.843   0.144
 1024TIP3    H224632   3.577   6.834   0.192
 1025TIP3   OH224633   4.388   0.061   0.657
 1025TIP3    H124634   4.376   0.154   0.676
 1025TIP3    H224635   4.366   0.053   0.565
 1026TIP3   OH224636   0.080   2.967   2.027
 1026TIP3    H124637   0.049   2.917   2.103
 1026TIP3    H224638   0.123   3.044   2.064
 1027TIP3   OH224639   1.608   3.190   0.616
 1027TIP3    H124640   1.635   3.269   0.569
 1027TIP3    H224641   1.522   3.169   0.580
 1028TIP3   OH224642   6.811   3.888   6.980
 1028TIP3    H124643   6.771   3.807   6.947
 1028TIP3    H224644   6.771   3.957   6.928
 1029TIP3   OH224645   6.730   5.951   6.043
 1029TIP3    H124646   6.806   5.966   5.987
 1029TIP3    H224647   6.762   5.892   6.111
 1030TIP3   OH224648   1.872   3.596   1.160
 1030TIP3    H124649   1.829   3.680   1.172
 1030TIP3    H224650   1.879   3.585   1.066
 1031TIP3   OH224651   2.695   5.245   0.598
 1031TIP3    H124652   2.753   5.313   0.634
 1031TIP3    H224653   2.714   5.168   0.652
 1032TIP3   OH224654   5.083   2.894   7.318
 1032TIP3    H124655   4.998   2.937   7.319
 1032TIP3    H224656   5.133   2.939   7.387
 1033TIP3   OH224657   0.194   0.703   0.816
 1033TIP3    H124658   0.224   0.615   0.793
 1033TIP3    H224659   0.098   0.698   0.810
 1034TIP3   OH224660   1.335   5.353   1.451
 1034TIP3    H124661   1.298   5.426   1.401
 1034TIP3    H224662   1.270   5.334   1.518
 1035TIP3   OH224663   4.454   6.781   1.126
 1035TIP3    H124664   4.401   6.773   1.206
 1035TIP3    H224665   4.424   6.709   1.071
 1036TIP3   OH224666   0.349   0.777   1.442
 1036TIP3    H124667   0.334   0.795   1.349
 1036TIP3    H224668   0.349   0.864   1.483
 1037TIP3   OH224669   2.782   4.119   6.844
 1037TIP3    H124670   2.800   4.109   6.750
 1037TIP3    H224671   2.868   4.138   6.882
 1038TIP3   OH224672   4.593   0.898   7.401
 1038TIP3    H124673   4.534   0.873   7.473
 1038TIP3    H224674   4.629   0.815   7.370
 1039TIP3   OH224675   2.946   3.063   0.698
 1039TIP3    H124676   2.894   3.105   0.629
 1039TIP3    H224677   2.936   2.969   0.681
 1040TIP3   OH224678   2.316   4.178   0.843
 1040TIP3    H124679   2.362   4.094   0.838
 1040TIP3    H224680   2.363   4.235   0.782
 1041TIP3   OH224681   3.637   4.042   8.081
 1041TIP3    H124682   3.685   3.968   8.043
 1041TIP3    H224683   3.545   4.018   8.071
 1042TIP3   OH224684   0.075   0.473   0.500
 1042TIP3    H124685   0.130   0.525   0.558
 1042TIP3    H224686   0.136   0.416   0.453
 1043TIP3   OH224687   0.224   2.644   6.723
 1043TIP3    H124688   0.248   2.575   6.661
 1043TIP3    H224689   0.255   2.611   6.808
 1044TIP3   OH224690   2.883   5.048   7.388
 1044TIP3    H124691   2.830   4.987   7.337
 1044TIP3    H224692   2.968   5.048   7.346
 1045TIP3   OH224693   5.363   3.368   6.296
 1045TIP3    H124694   5.360   3.283   6.252
 1045TIP3    H224695   5.416   3.423   6.239
 1046TIP3   OH224696   0.968   3.353   7.847
 1046TIP3    H124697   0.992   3.393   7.930
 1046TIP3    H224698   1.031   3.283   7.835
 1047TIP3   OH224699   2.105   5.531   1.707
 1047TIP3    H124700   2.097   5.582   1.787
 1047TIP3    H224701   2.016   5.527   1.672
 1048TIP3   OH224702   0.666   2.809   1.892
 1048TIP3    H124703   0.731   2.879   1.898
 1048TIP3    H224704   0.644   2.805   1.799
 1049TIP3   OH224705   0.493   5.843   7.294
 1049TIP3    H124706   0.579   5.882   7.280
 1049TIP3    H224707   0.511   5.749   7.297
 1050TIP3   OH224708   6.824   4.116   8.161
 1050TIP3    H124709   6.906   4.106   8.113
 1050TIP3    H224710   6.762   4.059   8.114
 1051TIP3   OH224711   5.335   4.141   8.428
 1051TIP3    H124712   5.370   4.228   8.410
 1051TIP3    H224713   5.272   4.125   8.358
 1052TIP3   OH224714   5.832   0.436   8.553
 1052TIP3    H124715   5.864   0.349   8.574
 1052TIP3    H224716   5.739   0.423   8.530
 1053TIP3   OH224717   1.383   3.498   1.272
 1053TIP3    H124718   1.366   3.542   1.189
 1053TIP3    H224719   1.478   3.487   1.274
 1054TIP3   OH224720   0.678   3.129   1.029
 1054TIP3    H124721   0.672   3.186   1.107
 1054TIP3    H224722   0.729   3.181   0.966
 1055TIP3   OH224723   6.213   4.755   7.099
 1055TIP3    H124724   6.199   4.816   7.172
 1055TIP3    H224725   6.140   4.693   7.106
 1056TIP3   OH224726   1.925   4.478   7.672
 1056TIP3    H124727   1.906   4.455   7.581
 1056TIP3    H224728   1.847   4.524   7.702
 1057TIP3   OH224729   0.919   5.463   6.249
 1057TIP3    H124730   1.012   5.460   6.272
 1057TIP3    H224731   0.888   5.546   6.285
 1058TIP3   OH224732   0.077   5.465   2.026
 1058TIP3    H124733   0.005   5.460   1.963
 1058TIP3    H224734   0.097   5.374   2.047
 1059TIP3   OH224735   1.912   2.260   1.825
 1059TIP3    H124736   1.877   2.285   1.911
 1059TIP3    H224737   1.840   2.276   1.764
 1060TIP3   OH224738   4.891   6.772   6.523
 1060TIP3    H124739   4.850   6.704   6.470
 1060TIP3    H224740   4.904   6.845   6.461
 1061TIP3   OH224741   1.603   3.750   2.023
 1061TIP3    H124742   1.677   3.690   2.025
 1061TIP3    H224743   1.530   3.698   1.989
 1062TIP3   OH224744   1.040   5.478   0.824
 1062TIP3    H124745   1.097   5.402   0.837
 1062TIP3    H224746   1.026   5.481   0.729
 1063TIP3   OH224747   1.968   1.420   1.151
 1063TIP3    H124748   2.045   1.390   1.103
 1063TIP3    H224749   1.899   1.426   1.085
 1064TIP3   OH224750   2.318   2.275   0.892
 1064TIP3    H124751   2.408   2.245   0.878
 1064TIP3    H224752   2.279   2.207   0.947
 1065TIP3   OH224753   1.482   4.023   7.053
 1065TIP3    H124754   1.551   3.973   7.009
 1065TIP3    H224755   1.530   4.087   7.106
 1066TIP3   OH224756   2.276   6.641   5.805
 1066TIP3    H124757   2.205   6.579   5.822
 1066TIP3    H224758   2.257   6.715   5.863
 1067TIP3   OH224759   0.179   3.692   7.220
 1067TIP3    H124760   0.144   3.733   7.141
 1067TIP3    H224761   0.147   3.747   7.292
 1068TIP3   OH224762   0.208   4.595   8.323
 1068TIP3    H124763   0.228   4.636   8.407
 1068TIP3    H224764   0.244   4.655   8.258
 1069TIP3   OH224765   3.898   3.592   7.770
 1069TIP3    H124766   3.929   3.552   7.851
 1069TIP3    H224767   3.808   3.562   7.761
 1070TIP3   OH224768   4.494   1.080   7.230
 1070TIP3    H124769   4.538   1.015   7.285
 1070TIP3    H224770   4.544   1.080   7.148
 1071TIP3   OH224771   3.326   6.181   6.754
 1071TIP3    H124772   3.252   6.235   6.782
 1071TIP3    H224773   3.296   6.140   6.673
 1072TIP3   OH224774   0.157   6.818   0.495
 1072TIP3    H124775   0.216   6.873   0.444
 1072TIP3    H224776   0.086   6.877   0.522
 1073TIP3   OH224777   4.430   1.145   7.691
 1073TIP3    H124778   4.419   1.202   7.615
 1073TIP3    H224779   4.362   1.078   7.681
 1074TIP3   OH224780   2.744   6.072   1.015
 1074TIP3    H124781   2.671   6.026   0.975
 1074TIP3    H224782   2.821   6.019   0.994
 1075TIP3   OH224783   2.977   1.192   1.131
 1075TIP3    H124784   3.000   1.240   1.211
 1075TIP3    H224785   2.958   1.103   1.162
 1076TIP3   OH224786   2.569   3.087   0.485
 1076TIP3    H124787   2.660   3.115   0.474
 1076TIP3    H224788   2.560   3.072   0.579
 1077TIP3   OH224789   2.465   1.253   7.521
 1077TIP3    H124790   2.475   1.198   7.599
 1077TIP3    H224791   2.463   1.342   7.554
 1078TIP3   OH224792   0.945   5.834   2.267
 1078TIP3    H124793   0.916   5.920   2.297
 1078TIP3    H224794   0.986   5.795   2.344
 1079TIP3   OH224795   5.262   6.255   7.746
 1079TIP3    H124796   5.241   6.252   7.652
 1079TIP3    H224797   5.192   6.308   7.784
 1080TIP3   OH224798   4.644   6.121   1.727
 1080TIP3    H124799   4.563   6.170   1.712
 1080TIP3    H224800   4.666   6.084   1.642
 1081TIP3   OH224801   0.800   1.913   8.384
 1081TIP3    H124802   0.786   1.912   8.289
 1081TIP3    H224803   0.723   1.957   8.419
 1082TIP3   OH224804   4.577   2.531   7.254
 1082TIP3    H124805   4.502   2.473   7.261
 1082TIP3    H224806   4.555   2.607   7.307
 1083TIP3   OH224807   5.795   1.935   1.576
 1083TIP3    H124808   5.890   1.923   1.582
 1083TIP3    H224809   5.761   1.891   1.655
 1084TIP3   OH224810   0.141   4.651   1.877
 1084TIP3    H124811   0.153   4.698   1.795
 1084TIP3    H224812   0.057   4.607   1.868
 1085TIP3   OH224813   6.704   6.282   1.495
 1085TIP3    H124814   6.721   6.233   1.576
 1085TIP3    H224815   6.710   6.374   1.521
 1086TIP3   OH224816   0.994   3.832   7.609
 1086TIP3    H124817   1.061   3.899   7.624
 1086TIP3    H224818   1.018   3.760   7.667
 1087TIP3   OH224819   1.538   1.674   8.584
 1087TIP3    H124820   1.456   1.713   8.556
 1087TIP3    H224821   1.569   1.731   0.052
 1088TIP3   OH224822   5.317   5.412   6.173
 1088TIP3    H124823   5.308   5.325   6.212
 1088TIP3    H224824   5.287   5.472   6.242
 1089TIP3   OH224825   5.964   5.808   0.949
 1089TIP3    H124826   5.916   5.725   0.949
 1089TIP3    H224827   5.917   5.863   1.012
 1090TIP3   OH224828   2.555   4.449   0.610
 1090TIP3    H124829   2.555   4.353   0.603
 1090TIP3    H224830   2.501   4.467   0.687
 1091TIP3   OH224831   3.830   2.685   0.515
 1091TIP3    H124832   3.759   2.651   0.569
 1091TIP3    H224833   3.861   2.609   0.465
 1092TIP3   OH224834   2.209   5.012   6.893
 1092TIP3    H124835   2.199   4.997   6.987
 1092TIP3    H224836   2.270   5.086   6.887
 1093TIP3   OH224837   1.162   2.155   7.624
 1093TIP3    H124838   1.176   2.247   7.601
 1093TIP3    H224839   1.069   2.149   7.644
 1094TIP3   OH224840   3.548   5.808   1.969
 1094TIP3    H124841   3.548   5.901   1.991
 1094TIP3    H224842   3.636   5.792   1.934
 1095TIP3   OH224843   6.711   1.604   1.852
 1095TIP3    H124844   6.666   1.526   1.885
 1095TIP3    H224845   6.804   1.581   1.853
 1096TIP3   OH224846   2.607   1.215   8.504
 1096TIP3    H124847   2.684   1.164   8.528
 1096TIP3    H224848   2.638   1.273   8.434
 1097TIP3   OH224849   1.719   1.846   1.199
 1097TIP3    H124850   1.752   1.900   1.270
 1097TIP3    H224851   1.721   1.757   1.233
 1098TIP3   OH224852   6.103   1.267   8.486
 1098TIP3    H124853   6.073   1.288   8.574
 1098TIP3    H224854   6.026   1.233   8.441
 1099TIP3   OH224855   4.160   0.525   1.500
 1099TIP3    H124856   4.212   0.568   1.567
 1099TIP3    H224857   4.074   0.512   1.541
 1100TIP3   OH224858   3.886   1.233   6.860
 1100TIP3    H124859   3.796   1.247   6.829
 1100TIP3    H224860   3.940   1.265   6.788
 1101TIP3   OH224861   4.304   5.263   7.973
 1101TIP3    H124862   4.366   5.310   7.918
 1101TIP3    H224863   4.359   5.205   8.026
 1102TIP3   OH224864   3.000   2.751   7.243
 1102TIP3    H124865   3.035   2.832   7.279
 1102TIP3    H224866   3.073   2.712   7.195
 1103TIP3   OH224867   0.542   2.996   7.021
 1103TIP3    H124868   0.482   2.968   6.952
 1103TIP3    H224869   0.532   2.928   7.089
 1104TIP3   OH224870   6.742   5.814   0.811
 1104TIP3    H124871   6.750   5.789   0.903
 1104TIP3    H224872   6.648   5.829   0.799
 1105TIP3   OH224873   1.104   6.828   8.470
 1105TIP3    H124874   1.046   6.771   8.520
 1105TIP3    H224875   1.184   6.832   8.522
 1106TIP3   OH224876   4.232   5.753   2.395
 1106TIP3    H124877   4.279   5.686   2.445
 1106TIP3    H224878   4.263   5.836   2.430
 1107TIP3   OH224879   0.906   0.830   0.832
 1107TIP3    H124880   0.893   0.805   0.740
 1107TIP3    H224881   0.902   0.748   0.880
 1108TIP3   OH224882   3.025   5.412   0.152
 1108TIP3    H124883   2.995   5.476   0.217
 1108TIP3    H224884   3.077   5.465   0.090
 1109TIP3   OH224885   0.066   0.301   1.095
 1109TIP3    H124886   0.060   0.395   1.078
 1109TIP3    H224887   0.130   0.293   1.166
 1110TIP3   OH224888   2.046   3.085   0.577
 1110TIP3    H124889   2.074   3.177   0.582
 1110TIP3    H224890   2.122   3.039   0.541
 1111TIP3   OH224891   6.081   3.896   1.725
 1111TIP3    H124892   5.992   3.930   1.731
 1111TIP3    H224893   6.117   3.935   1.645
 1112TIP3   OH224894   4.878   0.335   7.793
 1112TIP3    H124895   4.871   0.262   7.853
 1112TIP3    H224896   4.958   0.318   7.743
 1113TIP3   OH224897   2.207   2.368   8.524
 1113TIP3    H124898   2.180   2.277   8.537
 1113TIP3    H224899   2.174   2.414   8.601
 1114TIP3   OH224900   2.561   5.929   7.196
 1114TIP3    H124901   2.639   5.955   7.245
 1114TIP3    H224902   2.504   5.890   7.263
 1115TIP3   OH224903   3.634   2.838   6.792
 1115TIP3    H124904   3.557   2.836   6.735
 1115TIP3    H224905   3.703   2.875   6.738
 1116TIP3   OH224906   6.445   4.756   2.632
 1116TIP3    H124907   6.374   4.736   2.571
 1116TIP3    H224908   6.506   4.683   2.624
 1117TIP3   OH224909   4.505   5.873   6.908
 1117TIP3    H124910   4.457   5.887   6.990
 1117TIP3    H224911   4.580   5.819   6.933
 1118TIP3   OH224912   5.171   4.051   8.234
 1118TIP3    H124913   5.194   3.973   8.183
 1118TIP3    H224914   5.097   4.022   8.289
 1119TIP3   OH224915   0.752   6.739   6.724
 1119TIP3    H124916   0.804   6.687   6.664
 1119TIP3    H224917   0.663   6.737   6.688
 1120TIP3   OH224918   4.365   2.875   1.412
 1120TIP3    H124919   4.416   2.956   1.408
 1120TIP3    H224920   4.369   2.849   1.505
 1121TIP3   OH224921   1.047   3.700   1.780
 1121TIP3    H124922   1.091   3.616   1.791
 1121TIP3    H224923   1.055   3.743   1.865
 1122TIP3   OH224924   3.048   0.917   6.422
 1122TIP3    H124925   3.106   0.975   6.471
 1122TIP3    H224926   3.054   0.833   6.468
 1123TIP3   OH224927   0.195   3.214   0.422
 1123TIP3    H124928   0.205   3.282   0.487
 1123TIP3    H224929   0.184   3.261   0.339
 1124TIP3   OH224930   1.040   5.769   0.422
 1124TIP3    H124931   1.084   5.688   0.395
 1124TIP3    H224932   0.955   5.740   0.456
 1125TIP3   OH224933   6.758   1.081   7.758
 1125TIP3    H124934   6.673   1.044   7.779
 1125TIP3    H224935   6.742   1.136   7.682
 1126TIP3   OH224936   2.589   1.920   7.051
 1126TIP3    H124937   2.639   1.900   6.972
 1126TIP3    H224938   2.655   1.923   7.121
 1127TIP3   OH224939   5.262   6.283   0.784
 1127TIP3    H124940   5.277   6.275   0.690
 1127TIP3    H224941   5.310   6.363   0.809
 1128TIP3   OH224942   6.509   2.781   0.012
 1128TIP3    H124943   6.572   2.756   0.080
 1128TIP3    H224944   6.473   2.865   0.042
 1129TIP3   OH224945   5.993   1.389   0.737
 1129TIP3    H124946   6.025   1.303   0.764
 1129TIP3    H224947   5.925   1.370   0.673
 1130TIP3   OH224948   1.687   6.830   2.354
 1130TIP3    H124949   1.769   6.873   2.379
 1130TIP3    H224950   1.715   6.750   2.309
 1131TIP3   OH224951   1.068   0.323   7.150
 1131TIP3    H124952   0.987   0.363   7.119
 1131TIP3    H224953   1.102   0.277   7.073
 1132TIP3   OH224954   0.565   6.755   8.192
 1132TIP3    H124955   0.579   6.786   8.281
 1132TIP3    H224956   0.628   6.803   8.139
 1133TIP3   OH224957   0.947   3.887   0.152
 1133TIP3    H124958   0.902   3.808   0.182
 1133TIP3    H224959   0.896   3.959   0.190
 1134TIP3   OH224960   1.099   4.424   1.530
 1134TIP3    H124961   1.158   4.471   1.588
 1134TIP3    H224962   1.154   4.399   1.455
 1135TIP3   OH224963   0.189   3.589   0.781
 1135TIP3    H124964   0.152   3.666   0.824
 1135TIP3    H224965   0.284   3.605   0.781
 1136TIP3   OH224966   1.121   0.545   0.690
 1136TIP3    H124967   1.040   0.559   0.739
 1136TIP3    H224968   1.177   0.494   0.749
 1137TIP3   OH224969   2.261   5.630   0.047
 1137TIP3    H124970   2.197   5.678   0.099
 1137TIP3    H224971   2.215   5.551   0.018
 1138TIP3   OH224972   5.928   3.110   7.148
 1138TIP3    H124973   5.944   3.195   7.189
 1138TIP3    H224974   6.002   3.056   7.176
 1139TIP3   OH224975   2.199   1.603   8.214
 1139TIP3    H124976   2.191   1.545   8.290
 1139TIP3    H224977   2.230   1.685   8.251
 1140TIP3   OH224978   0.653   2.551   7.183
 1140TIP3    H124979   0.586   2.483   7.178
 1140TIP3    H224980   0.604   2.634   7.174
 1141TIP3   OH224981   4.177   1.403   7.993
 1141TIP3    H124982   4.133   1.439   8.070
 1141TIP3    H224983   4.265   1.441   7.997
 1142TIP3   OH224984   0.818   5.424   2.528
 1142TIP3    H124985   0.763   5.394   2.456
 1142TIP3    H224986   0.771   5.498   2.565
 1143TIP3   OH224987   3.226   1.622   2.214
 1143TIP3    H124988   3.308   1.596   2.172
 1143TIP3    H224989   3.195   1.695   2.161
 1144TIP3   OH224990   2.166   4.716   8.338
 1144TIP3    H124991   2.182   4.649   8.405
 1144TIP3    H224992   2.228   4.786   8.359
 1145TIP3   OH224993   5.517   2.258   0.871
 1145TIP3    H124994   5.480   2.329   0.818
 1145TIP3    H224995   5.464   2.257   0.950
 1146TIP3   OH224996   3.774   1.036   1.561
 1146TIP3    H124997   3.769   1.121   1.516
 1146TIP3    H224998   3.684   1.004   1.562
 1147TIP3   OH224999   0.507   6.482   6.518
 1147TIP3    H125000   0.449   6.406   6.520
 1147TIP3    H225001   0.593   6.446   6.497
 1148TIP3   OH225002   5.121   0.225   7.271
 1148TIP3    H125003   5.079   0.235   7.185
 1148TIP3    H225004   5.101   0.307   7.317
 1149TIP3   OH225005   2.625   5.683   0.744
 1149TIP3    H125006   2.603   5.608   0.801
 1149TIP3    H225007   2.689   5.733   0.794
 1150TIP3   OH225008   2.451   1.289   0.551
 1150TIP3    H125009   2.373   1.262   0.503
 1150TIP3    H225010   2.521   1.233   0.516
 1151TIP3   OH225011   0.449   3.397   8.400
 1151TIP3    H125012   0.507   3.340   8.349
 1151TIP3    H225013   0.413   3.339   8.467
 1152TIP3   OH225014   6.223   0.039   0.325
 1152TIP3    H125015   6.294   6.888   0.311
 1152TIP3    H225016   6.144   6.905   0.298
 1153TIP3   OH225017   6.489   5.584   0.294
 1153TIP3    H125018   6.533   5.670   0.297
 1153TIP3    H225019   6.556   5.523   0.325
 1154TIP3   OH225020   3.284   0.305   8.194
 1154TIP3    H125021   3.271   0.274   8.284
 1154TIP3    H225022   3.315   0.395   8.204
 1155TIP3   OH225023   4.077   1.410   8.456
 1155TIP3    H125024   4.057   1.472   8.526
 1155TIP3    H225025   4.117   1.463   8.388
 1156TIP3   OH225026   0.668   1.731   7.347
 1156TIP3    H125027   0.587   1.776   7.322
 1156TIP3    H225028   0.653   1.705   7.438
 1157TIP3   OH225029   6.738   2.954   8.148
 1157TIP3    H125030   6.693   2.884   8.196
 1157TIP3    H225031   6.826   2.957   8.187
 1158TIP3   OH225032   0.704   4.882   7.941
 1158TIP3    H125033   0.674   4.969   7.966
 1158TIP3    H225034   0.760   4.897   7.865
 1159TIP3   OH225035   6.343   0.579   0.740
 1159TIP3    H125036   6.348   0.635   0.663
 1159TIP3    H225037   6.255   0.594   0.775
 1160TIP3   OH225038   3.957   1.019   7.021
 1160TIP3    H125039   3.974   0.937   6.976
 1160TIP3    H225040   3.953   1.085   6.951
 1161TIP3   OH225041   2.493   5.266   8.183
 1161TIP3    H125042   2.405   5.251   8.150
 1161TIP3    H225043   2.496   5.360   8.204
 1162TIP3   OH225044   4.352   0.753   0.028
 1162TIP3    H125045   4.415   0.700   0.076
 1162TIP3    H225046   4.364   0.728   8.539
 1163TIP3   OH225047   1.784   0.109   0.941
 1163TIP3    H125048   1.843   0.184   0.944
 1163TIP3    H225049   1.816   0.051   1.010
 1164TIP3   OH225050   0.468   1.227   1.416
 1164TIP3    H125051   0.482   1.161   1.348
 1164TIP3    H225052   0.390   1.276   1.387
 1165TIP3   OH225053   6.455   1.757   1.346
 1165TIP3    H125054   6.439   1.732   1.255
 1165TIP3    H225055   6.469   1.674   1.391
 1166TIP3   OH225056   6.242   5.237   6.776
 1166TIP3    H125057   6.249   5.292   6.854
 1166TIP3    H225058   6.256   5.297   6.703
 1167TIP3   OH225059   6.236   0.776   6.595
 1167TIP3    H125060   6.273   0.865   6.591
 1167TIP3    H225061   6.237   0.746   6.504
 1168TIP3   OH225062   0.237   6.700   7.241
 1168TIP3    H125063   0.181   6.734   7.171
 1168TIP3    H225064   0.313   6.664   7.195
 1169TIP3   OH225065   5.540   0.314   1.204
 1169TIP3    H125066   5.612   0.354   1.156
 1169TIP3    H225067   5.469   0.310   1.140
 1170TIP3   OH225068   2.363   4.547   0.837
 1170TIP3    H125069   2.276   4.510   0.822
 1170TIP3    H225070   2.352   4.605   0.912
 1171TIP3   OH225071   4.608   6.417   0.288
 1171TIP3    H125072   4.604   6.511   0.271
 1171TIP3    H225073   4.525   6.383   0.254
 1172TIP3   OH225074   2.605   2.921   6.308
 1172TIP3    H125075   2.545   2.996   6.305
 1172TIP3    H225076   2.626   2.910   6.400
 1173TIP3   OH225077   4.806   1.994   1.152
 1173TIP3    H125078   4.755   2.058   1.102
 1173TIP3    H225079   4.874   1.965   1.091
 1174TIP3   OH225080   0.223   3.709   6.706
 1174TIP3    H125081   0.288   3.770   6.741
 1174TIP3    H225082   0.252   3.693   6.616
 1175TIP3   OH225083   1.981   3.316   1.019
 1175TIP3    H125084   1.960   3.303   0.926
 1175TIP3    H225085   1.963   3.408   1.035
 1176TIP3   OH225086   6.689   6.328   2.211
 1176TIP3    H125087   6.611   6.331   2.268
 1176TIP3    H225088   6.704   6.419   2.186
 1177TIP3   OH225089   6.402   1.724   8.412
 1177TIP3    H125090   6.330   1.671   8.447
 1177TIP3    H225091   6.359   1.784   8.351
 1178TIP3   OH225092   5.842   2.312   0.827
 1178TIP3    H125093   5.892   2.252   0.882
 1178TIP3    H225094   5.801   2.372   0.889
 1179TIP3   OH225095   1.290   6.632   1.031
 1179TIP3    H125096   1.224   6.563   1.038
 1179TIP3    H225097   1.324   6.624   0.942
 1180TIP3   OH225098   0.223   2.038   0.936
 1180TIP3    H125099   0.185   2.068   1.018
 1180TIP3    H225100   0.289   2.104   0.915
 1181TIP3   OH225101   6.873   5.027   0.765
 1181TIP3    H125102   0.055   5.046   0.765
 1181TIP3    H225103   6.865   4.946   0.714
 1182TIP3   OH225104   6.107   0.900   1.603
 1182TIP3    H125105   6.072   0.841   1.670
 1182TIP3    H225106   6.201   0.902   1.619
 1183TIP3   OH225107   4.140   6.592   7.339
 1183TIP3    H125108   4.160   6.667   7.283
 1183TIP3    H225109   4.107   6.525   7.278
 1184TIP3   OH225110   2.622   4.033   1.721
 1184TIP3    H125111   2.531   4.028   1.750
 1184TIP3    H225112   2.618   4.084   1.640
 1185TIP3   OH225113   0.698   2.788   8.284
 1185TIP3    H125114   0.623   2.801   8.342
 1185TIP3    H225115   0.661   2.782   8.196
 1186TIP3   OH225116   6.514   4.782   0.182
 1186TIP3    H125117   6.544   4.702   0.138
 1186TIP3    H225118   6.472   4.750   0.262
 1187TIP3   OH225119   1.287   6.149   0.142
 1187TIP3    H125120   1.282   6.139   0.237
 1187TIP3    H225121   1.379   6.129   0.121
 1188TIP3   OH225122   4.077   6.531   6.569
 1188TIP3    H125123   4.161   6.485   6.573
 1188TIP3    H225124   4.079   6.576   6.484
 1189TIP3   OH225125   3.696   2.442   7.613
 1189TIP3    H125126   3.734   2.511   7.557
 1189TIP3    H225127   3.605   2.437   7.587
 1190TIP3   OH225128   4.775   5.392   7.901
 1190TIP3    H125129   4.786   5.432   7.987
 1190TIP3    H225130   4.864   5.364   7.876
 1191TIP3   OH225131   2.509   4.099   6.612
 1191TIP3    H125132   2.523   4.174   6.669
 1191TIP3    H225133   2.594   4.055   6.609
 1192TIP3   OH225134   5.285   0.607   7.022
 1192TIP3    H125135   5.252   0.613   6.932
 1192TIP3    H225136   5.259   0.519   7.050
 1193TIP3   OH225137   6.862   4.263   2.021
 1193TIP3    H125138   6.834   4.178   2.054
 1193TIP3    H225139   0.045   4.257   2.015
 1194TIP3   OH225140   0.767   2.999   0.337
 1194TIP3    H125141   0.732   2.926   0.285
 1194TIP3    H225142   0.719   3.076   0.305
 1195TIP3   OH225143   4.242   4.790   7.319
 1195TIP3    H125144   4.314   4.727   7.318
 1195TIP3    H225145   4.229   4.812   7.227
 1196TIP3   OH225146   1.685   3.104   6.130
 1196TIP3    H125147   1.608   3.112   6.187
 1196TIP3    H225148   1.718   3.016   6.148
 1197TIP3   OH225149   5.028   6.394   7.838
 1197TIP3    H125150   5.054   6.478   7.801
 1197TIP3    H225151   4.997   6.414   7.926
 1198TIP3   OH225152   0.542   3.301   0.684
 1198TIP3    H125153   0.623   3.347   0.661
 1198TIP3    H225154   0.555   3.212   0.652
 1199TIP3   OH225155   4.335   6.777   6.625
 1199TIP3    H125156   4.365   6.693   6.659
 1199TIP3    H225157   4.409   6.810   6.574
 1200TIP3   OH225158   1.598   3.256   0.013
 1200TIP3    H125159   1.609   3.161   0.015
 1200TIP3    H225160   1.656   3.285   8.545
 1201TIP3   OH225161   6.691   3.927   8.411
 1201TIP3    H125162   6.730   4.012   8.431
 1201TIP3    H225163   6.637   3.943   8.333
 1202TIP3   OH225164   3.433   2.561   0.292
 1202TIP3    H125165   3.342   2.570   0.262
 1202TIP3    H225166   3.442   2.628   0.360
 1203TIP3   OH225167   2.304   2.966   8.198
 1203TIP3    H125168   2.386   2.922   8.179
 1203TIP3    H225169   2.259   2.973   8.114
 1204TIP3   OH225170   5.310   4.252   7.153
 1204TIP3    H125171   5.222   4.278   7.127
 1204TIP3    H225172   5.366   4.279   7.080
 1205TIP3   OH225173   2.910   0.500   6.807
 1205TIP3    H125174   2.821   0.508   6.773
 1205TIP3    H225175   2.903   0.435   6.877
 1206TIP3   OH225176   3.397   1.966   0.113
 1206TIP3    H125177   3.417   1.885   0.067
 1206TIP3    H225178   3.364   2.025   0.044
 1207TIP3   OH225179   0.932   3.990   8.260
 1207TIP3    H125180   0.887   3.990   8.344
 1207TIP3    H225181   0.923   4.080   8.228
 1208TIP3   OH225182   3.451   4.178   7.633
 1208TIP3    H125183   3.402   4.255   7.606
 1208TIP3    H225184   3.498   4.150   7.555
 1209TIP3   OH225185   1.674   4.033   1.629
 1209TIP3    H125186   1.687   3.955   1.683
 1209TIP3    H225187   1.636   4.098   1.688
 1210TIP3   OH225188   5.489   1.312   0.570
 1210TIP3    H125189   5.473   1.372   0.642
 1210TIP3    H225190   5.464   1.226   0.604
 1211TIP3   OH225191   3.208   6.627   0.413
 1211TIP3    H125192   3.240   6.541   0.439
 1211TIP3    H225193   3.118   6.629   0.445
 1212TIP3   OH225194   3.947   0.840   7.687
 1212TIP3    H125195   4.036   0.874   7.696
 1212TIP3    H225196   3.901   0.870   7.766
 1213TIP3   OH225197   2.372   1.984   7.465
 1213TIP3    H125198   2.309   1.912   7.464
 1213TIP3    H225199   2.320   2.062   7.481
 1214TIP3   OH225200   5.204   6.409   8.323
 1214TIP3    H125201   5.292   6.414   8.360
 1214TIP3    H225202   5.189   6.496   8.286
 1215TIP3   OH225203   6.511   0.886   6.467
 1215TIP3    H125204   6.517   0.972   6.425
 1215TIP3    H225205   6.554   0.826   6.407
 1216TIP3   OH225206   0.195   6.326   1.172
 1216TIP3    H125207   0.180   6.372   1.090
 1216TIP3    H225208   0.107   6.317   1.210
 1217TIP3   OH225209   5.832   4.447   7.184
 1217TIP3    H125210   5.860   4.358   7.204
 1217TIP3    H225211   5.913   4.492   7.157
 1218TIP3   OH225212   1.688   3.375   6.049
 1218TIP3    H125213   1.691   3.280   6.058
 1218TIP3    H225214   1.595   3.397   6.056
 1219TIP3   OH225215   5.337   0.098   7.150
 1219TIP3    H125216   5.310   0.101   7.059
 1219TIP3    H225217   5.288   0.169   7.192
 1220TIP3   OH225218   1.777   1.969   1.867
 1220TIP3    H125219   1.865   2.006   1.873
 1220TIP3    H225220   1.779   1.894   1.925
 1221TIP3   OH225221   1.382   2.752   1.049
 1221TIP3    H125222   1.314   2.687   1.032
 1221TIP3    H225223   1.400   2.790   0.964
 1222TIP3   OH225224   6.109   4.991   6.453
 1222TIP3    H125225   6.108   4.897   6.434
 1222TIP3    H225226   6.124   4.996   6.547
 1223TIP3   OH225227   0.582   2.918   0.044
 1223TIP3    H125228   0.545   2.906   8.559
 1223TIP3    H225229   0.604   3.011   0.048
 1224TIP3   OH225230   3.121   5.012   2.429
 1224TIP3    H125231   3.189   4.966   2.380
 1224TIP3    H225232   3.101   4.955   2.503
 1225TIP3   OH225233   4.486   6.653   8.600
 1225TIP3    H125234   4.553   6.658   8.532
 1225TIP3    H225235   4.423   6.588   8.568
 1226TIP3   OH225236   3.675   2.303   8.155
 1226TIP3    H125237   3.603   2.365   8.148
 1226TIP3    H225238   3.719   2.325   8.237
 1227TIP3   OH225239   1.169   2.606   6.641
 1227TIP3    H125240   1.238   2.581   6.580
 1227TIP3    H225241   1.208   2.674   6.696
 1228TIP3   OH225242   4.819   1.880   1.974
 1228TIP3    H125243   4.762   1.855   2.047
 1228TIP3    H225244   4.823   1.975   1.978
 1229TIP3   OH225245   1.953   0.925   1.379
 1229TIP3    H125246   1.894   0.976   1.323
 1229TIP3    H225247   1.973   0.983   1.453
 1230TIP3   OH225248   0.388   5.477   0.671
 1230TIP3    H125249   0.401   5.480   0.766
 1230TIP3    H225250   0.337   5.556   0.651
 1231TIP3   OH225251   3.365   6.895   7.679
 1231TIP3    H125252   3.398   0.060   7.635
 1231TIP3    H225253   3.431   6.875   7.745
 1232TIP3   OH225254   5.969   1.002   2.199
 1232TIP3    H125255   5.941   0.940   2.266
 1232TIP3    H225256   5.916   0.980   2.122
 1233TIP3   OH225257   4.843   0.445   6.135
 1233TIP3    H125258   4.885   0.448   6.221
 1233TIP3    H225259   4.766   0.389   6.149
 1234TIP3   OH225260   6.682   6.849   6.287
 1234TIP3    H125261   6.730   6.820   6.209
 1234TIP3    H225262   6.686   0.032   6.284
 1235TIP3   OH225263   3.273   6.749   1.375
 1235TIP3    H125264   3.283   6.654   1.381
 1235TIP3    H225265   3.277   6.768   1.281
 1236TIP3   OH225266   5.986   4.725   1.022
 1236TIP3    H125267   5.955   4.761   1.105
 1236TIP3    H225268   6.017   4.637   1.043
 1237TIP3   OH225269   3.789   1.270   0.464
 1237TIP3    H125270   3.875   1.278   0.507
 1237TIP3    H225271   3.751   1.190   0.501
 1238TIP3   OH225272   2.152   2.330   8.040
 1238TIP3    H125273   2.115   2.339   7.952
 1238TIP3    H225274   2.208   2.253   8.036
 1239TIP3   OH225275   5.301   2.515   7.403
 1239TIP3    H125276   5.336   2.576   7.338
 1239TIP3    H225277   5.374   2.500   7.464
 1240TIP3   OH225278   3.392   2.525   6.950
 1240TIP3    H125279   3.485   2.526   6.927
 1240TIP3    H225280   3.350   2.473   6.882
 1241TIP3   OH225281   5.308   0.232   0.805
 1241TIP3    H125282   5.322   0.280   0.723
 1241TIP3    H225283   5.364   0.275   0.869
 1242TIP3   OH225284   2.113   5.772   1.164
 1242TIP3    H125285   2.164   5.853   1.175
 1242TIP3    H225286   2.095   5.768   1.070
 1243TIP3   OH225287   6.406   5.054   7.313
 1243TIP3    H125288   6.465   4.994   7.266
 1243TIP3    H225289   6.326   5.004   7.326
 1244TIP3   OH225290   4.244   3.282   2.264
 1244TIP3    H125291   4.200   3.279   2.179
 1244TIP3    H225292   4.183   3.240   2.324
 1245TIP3   OH225293   5.927   3.672   8.403
 1245TIP3    H125294   5.865   3.601   8.389
 1245TIP3    H225295   6.013   3.632   8.391
 1246TIP3   OH225296   4.768   2.149   7.949
 1246TIP3    H125297   4.848   2.108   7.914
 1246TIP3    H225298   4.722   2.180   7.871
 1247TIP3   OH225299   2.229   4.938   7.385
 1247TIP3    H125300   2.305   4.905   7.337
 1247TIP3    H225301   2.257   5.023   7.419
 1248TIP3   OH225302   3.623   4.684   0.225
 1248TIP3    H125303   3.663   4.597   0.225
 1248TIP3    H225304   3.534   4.669   0.256
 1249TIP3   OH225305   2.713   6.006   2.121
 1249TIP3    H125306   2.737   5.991   2.030
 1249TIP3    H225307   2.765   5.943   2.171
 1250TIP3   OH225308   3.299   0.492   7.816
 1250TIP3    H125309   3.226   0.468   7.873
 1250TIP3    H225310   3.259   0.538   7.743
 1251TIP3   OH225311   6.298   5.182   1.987
 1251TIP3    H125312   6.257   5.159   2.071
 1251TIP3    H225313   6.353   5.258   2.008
 1252TIP3   OH225314   6.748   0.330   7.745
 1252TIP3    H125315   6.692   0.295   7.815
 1252TIP3    H225316   6.696   0.318   7.666
 1253TIP3   OH225317   1.194   6.056   5.937
 1253TIP3    H125318   1.244   6.035   5.858
 1253TIP3    H225319   1.120   6.108   5.906
 1254TIP3   OH225320   5.983   5.189   0.669
 1254TIP3    H125321   5.928   5.176   0.592
 1254TIP3    H225322   6.039   5.263   0.647
 1255TIP3   OH225323   6.238   1.285   1.857
 1255TIP3    H125324   6.325   1.321   1.838
 1255TIP3    H225325   6.254   1.217   1.923
 1256TIP3   OH225326   1.763   1.986   2.158
 1256TIP3    H125327   1.670   1.980   2.179
 1256TIP3    H225328   1.793   1.895   2.155
 1257TIP3   OH225329   5.681   4.017   0.516
 1257TIP3    H125330   5.754   4.013   0.454
 1257TIP3    H225331   5.719   4.056   0.595
 1258TIP3   OH225332   0.048   3.062   6.559
 1258TIP3    H125333   0.030   3.137   6.616
 1258TIP3    H225334   0.066   3.100   6.474
 1259TIP3   OH225335   2.083   3.460   1.875
 1259TIP3    H125336   2.026   3.435   1.948
 1259TIP3    H225337   2.023   3.478   1.803
 1260TIP3   OH225338   5.973   0.162   0.035
 1260TIP3    H125339   5.967   0.157   0.130
 1260TIP3    H225340   6.064   0.186   0.018
 1261TIP3   OH225341   6.641   4.359   1.168
 1261TIP3    H125342   6.617   4.360   1.261
 1261TIP3    H225343   6.559   4.340   1.122
 1262TIP3   OH225344   0.885   1.518   7.432
 1262TIP3    H125345   0.804   1.543   7.387
 1262TIP3    H225346   0.857   1.459   7.502
 1263TIP3   OH225347   5.705   1.510   1.040
 1263TIP3    H125348   5.699   1.450   1.114
 1263TIP3    H225349   5.751   1.586   1.075
 1264TIP3   OH225350   0.126   3.404   7.210
 1264TIP3    H125351   0.113   3.489   7.250
 1264TIP3    H225352   0.068   3.404   7.133
 1265TIP3   OH225353   2.659   0.973   1.252
 1265TIP3    H125354   2.663   0.879   1.265
 1265TIP3    H225355   2.749   0.998   1.230
 1266TIP3   OH225356   1.997   1.980   0.276
 1266TIP3    H125357   1.997   1.898   0.227
 1266TIP3    H225358   1.919   1.974   0.332
 1267TIP3   OH225359   4.772   1.436   0.821
 1267TIP3    H125360   4.838   1.484   0.872
 1267TIP3    H225361   4.784   1.345   0.847
 1268TIP3   OH225362   6.102   3.287   0.654
 1268TIP3    H125363   6.118   3.193   0.641
 1268TIP3    H225364   6.189   3.326   0.658
 1269TIP3   OH225365   1.724   0.843   0.872
 1269TIP3    H125366   1.629   0.842   0.887
 1269TIP3    H225367   1.762   0.841   0.960
 1270TIP3   OH225368   2.899   3.616   7.057
 1270TIP3    H125369   2.836   3.590   6.990
 1270TIP3    H225370   2.985   3.598   7.019
 1271TIP3   OH225371   0.867   5.939   1.476
 1271TIP3    H125372   0.782   5.984   1.473
 1271TIP3    H225373   0.845   5.846   1.471
 1272TIP3   OH225374   1.734   3.663   7.107
 1272TIP3    H125375   1.829   3.649   7.099
 1272TIP3    H225376   1.695   3.588   7.062
 1273TIP3   OH225377   4.636   3.730   1.285
 1273TIP3    H125378   4.724   3.727   1.322
 1273TIP3    H225379   4.577   3.721   1.360
 1274TIP3   OH225380   4.963   0.729   7.414
 1274TIP3    H125381   4.892   0.707   7.354
 1274TIP3    H225382   4.981   0.821   7.397
 1275TIP3   OH225383   5.190   4.095   0.080
 1275TIP3    H125384   5.167   4.137   0.163
 1275TIP3    H225385   5.216   4.168   0.023
 1276TIP3   OH225386   5.923   4.038   1.454
 1276TIP3    H125387   6.016   4.049   1.471
 1276TIP3    H225388   5.880   4.101   1.512
 1277TIP3   OH225389   6.103   0.776   7.413
 1277TIP3    H125390   6.109   0.694   7.461
 1277TIP3    H225391   6.036   0.761   7.347
 1278TIP3   OH225392   6.386   3.471   8.091
 1278TIP3    H125393   6.358   3.536   8.156
 1278TIP3    H225394   6.480   3.485   8.082
 1279TIP3   OH225395   6.788   2.748   7.069
 1279TIP3    H125396   6.864   2.708   7.112
 1279TIP3    H225397   6.801   2.731   6.976
 1280TIP3   OH225398   5.695   6.151   1.892
 1280TIP3    H125399   5.696   6.070   1.841
 1280TIP3    H225400   5.731   6.126   1.977
 1281TIP3   OH225401   3.042   4.472   7.372
 1281TIP3    H125402   3.112   4.427   7.421
 1281TIP3    H225403   2.987   4.512   7.440
 1282TIP3   OH225404   2.750   1.738   6.847
 1282TIP3    H125405   2.747   1.693   6.931
 1282TIP3    H225406   2.786   1.824   6.868
 1283TIP3   OH225407   4.611   1.786   2.166
 1283TIP3    H125408   4.593   1.800   2.259
 1283TIP3    H225409   4.686   1.726   2.165
 1284TIP3   OH225410   4.535   4.249   8.381
 1284TIP3    H125411   4.607   4.312   8.372
 1284TIP3    H225412   4.576   4.164   8.366
 1285TIP3   OH225413   2.692   0.719   0.981
 1285TIP3    H125414   2.716   0.626   0.976
 1285TIP3    H225415   2.629   0.723   1.052
 1286TIP3   OH225416   1.854   4.820   7.223
 1286TIP3    H125417   1.784   4.880   7.196
 1286TIP3    H225418   1.891   4.861   7.301
 1287TIP3   OH225419   1.512   5.427   8.006
 1287TIP3    H125420   1.498   5.370   8.082
 1287TIP3    H225421   1.493   5.370   7.930
 1288TIP3   OH225422   0.358   1.079   6.704
 1288TIP3    H125423   0.329   0.988   6.697
 1288TIP3    H225424   0.453   1.073   6.711
 1289TIP3   OH225425   4.086   0.690   2.522
 1289TIP3    H125426   4.055   0.608   2.560
 1289TIP3    H225427   4.170   0.706   2.564
 1290TIP3   OH225428   6.395   6.870   8.089
 1290TIP3    H125429   6.413   6.882   7.996
 1290TIP3    H225430   6.469   6.911   8.134
 1291TIP3   OH225431   4.373   1.248   6.439
 1291TIP3    H125432   4.310   1.270   6.507
 1291TIP3    H225433   4.370   1.322   6.378
 1292TIP3   OH225434   4.918   3.160   6.220
 1292TIP3    H125435   4.988   3.224   6.224
 1292TIP3    H225436   4.943   3.094   6.285
 1293TIP3   OH225437   4.758   5.847   2.214
 1293TIP3    H125438   4.812   5.769   2.227
 1293TIP3    H225439   4.692   5.842   2.283
 1294TIP3   OH225440   3.616   1.344   7.944
 1294TIP3    H125441   3.528   1.381   7.950
 1294TIP3    H225442   3.629   1.325   7.851
 1295TIP3   OH225443   0.630   5.673   0.154
 1295TIP3    H125444   0.634   5.578   0.162
 1295TIP3    H225445   0.537   5.692   0.141
 1296TIP3   OH225446   0.376   0.187   2.284
 1296TIP3    H125447   0.459   0.140   2.296
 1296TIP3    H225448   0.341   0.152   2.202
 1297TIP3   OH225449   5.765   2.023   0.678
 1297TIP3    H125450   5.776   2.117   0.688
 1297TIP3    H225451   5.853   1.989   0.664
 1298TIP3   OH225452   0.711   3.806   7.602
 1298TIP3    H125453   0.680   3.731   7.551
 1298TIP3    H225454   0.806   3.796   7.604
 1299TIP3   OH225455   5.759   3.253   1.190
 1299TIP3    H125456   5.823   3.186   1.213
 1299TIP3    H225457   5.753   3.249   1.094
 1300TIP3   OH225458   6.092   6.180   8.345
 1300TIP3    H125459   6.070   6.096   8.304
 1300TIP3    H225460   6.177   6.204   8.306
 1301TIP3   OH225461   0.038   0.616   8.507
 1301TIP3    H125462   6.903   0.650   8.582
 1301TIP3    H225463   0.012   0.672   8.434
 1302TIP3   OH225464   1.726   0.673   0.654
 1302TIP3    H125465   1.726   0.731   0.730
 1302TIP3    H225466   1.634   0.649   0.644
 1303TIP3   OH225467   1.441   4.626   8.365
 1303TIP3    H125468   1.395   4.546   8.339
 1303TIP3    H225469   1.432   4.629   8.460
 1304TIP3   OH225470   0.391   5.854   0.273
 1304TIP3    H125471   0.434   5.935   0.245
 1304TIP3    H225472   0.392   5.858   0.369
 1305TIP3   OH225473   1.682   1.911   8.134
 1305TIP3    H125474   1.674   1.923   8.229
 1305TIP3    H225475   1.606   1.957   8.097
 1306TIP3   OH225476   6.597   5.856   0.299
 1306TIP3    H125477   6.661   5.888   0.236
 1306TIP3    H225478   6.632   5.881   0.384
 1307TIP3   OH225479   4.913   4.055   7.540
 1307TIP3    H125480   4.831   4.020   7.575
 1307TIP3    H225481   4.977   3.986   7.556
 1308TIP3   OH225482   3.267   2.249   8.467
 1308TIP3    H125483   3.206   2.176   8.471
 1308TIP3    H225484   3.325   2.228   8.394
 1309TIP3   OH225485   0.886   5.912   2.028
 1309TIP3    H125486   0.933   5.853   2.087
 1309TIP3    H225487   0.953   5.976   2.000
 1310TIP3   OH225488   6.881   3.509   7.860
 1310TIP3    H125489   6.878   3.416   7.884
 1310TIP3    H225490   0.048   3.542   7.903
 1311TIP3   OH225491   3.419   1.822   7.474
 1311TIP3    H125492   3.501   1.864   7.500
 1311TIP3    H225493   3.439   1.783   7.389
 1312TIP3   OH225494   1.932   5.473   0.257
 1312TIP3    H125495   1.978   5.455   0.175
 1312TIP3    H225496   1.888   5.556   0.242
 1313TIP3   OH225497   6.172   6.722   0.923
 1313TIP3    H125498   6.149   6.632   0.948
 1313TIP3    H225499   6.267   6.721   0.915
 1314TIP3   OH225500   6.158   6.125   1.478
 1314TIP3    H125501   6.253   6.138   1.476
 1314TIP3    H225502   6.127   6.183   1.547
 1315TIP3   OH225503   4.844   5.146   7.590
 1315TIP3    H125504   4.761   5.171   7.631
 1315TIP3    H225505   4.909   5.200   7.633
 1316TIP3   OH225506   3.314   3.907   7.396
 1316TIP3    H125507   3.263   3.836   7.434
 1316TIP3    H225508   3.350   3.871   7.316
 1317TIP3   OH225509   5.761   6.430   8.427
 1317TIP3    H125510   5.798   6.418   8.340
 1317TIP3    H225511   5.815   6.376   8.484
 1318TIP3   OH225512   2.034   6.850   6.767
 1318TIP3    H125513   2.060   0.022   6.728
 1318TIP3    H225514   1.980   6.874   6.842
 1319TIP3   OH225515   6.115   4.058   8.007
 1319TIP3    H125516   6.035   4.111   8.008
 1319TIP3    H225517   6.184   4.119   7.979
 1320TIP3   OH225518   6.767   5.206   2.051
 1320TIP3    H125519   6.792   5.262   2.124
 1320TIP3    H225520   6.780   5.117   2.083
 1321TIP3   OH225521   2.616   1.005   7.398
 1321TIP3    H125522   2.545   1.005   7.463
 1321TIP3    H225523   2.574   0.976   7.317
 1322TIP3   OH225524   0.622   0.966   6.342
 1322TIP3    H125525   0.545   0.992   6.292
 1322TIP3    H225526   0.666   0.901   6.287
 1323TIP3   OH225527   5.537   4.012   2.322
 1323TIP3    H125528   5.511   4.103   2.337
 1323TIP3    H225529   5.457   3.968   2.295
 1324TIP3   OH225530   6.722   3.188   8.000
 1324TIP3    H125531   6.687   3.177   7.912
 1324TIP3    H225532   6.766   3.106   8.020
 1325TIP3   OH225533   6.077   3.858   7.535
 1325TIP3    H125534   6.157   3.900   7.565
 1325TIP3    H225535   6.037   3.824   7.615
 1326TIP3   OH225536   5.057   3.310   0.898
 1326TIP3    H125537   4.996   3.281   0.967
 1326TIP3    H225538   5.046   3.405   0.895
 1327TIP3   OH225539   1.639   2.295   2.262
 1327TIP3    H125540   1.602   2.365   2.316
 1327TIP3    H225541   1.565   2.263   2.211
 1328TIP3   OH225542   0.895   5.872   7.053
 1328TIP3    H125543   0.858   5.918   6.977
 1328TIP3    H225544   0.844   5.792   7.060
 1329TIP3   OH225545   0.079   1.625   7.432
 1329TIP3    H125546   0.133   1.695   7.468
 1329TIP3    H225547   0.140   1.554   7.414
 1330TIP3   OH225548   2.501   6.412   6.921
 1330TIP3    H125549   2.466   6.487   6.873
 1330TIP3    H225550   2.532   6.448   7.004
 1331TIP3   OH225551   0.886   6.245   6.624
 1331TIP3    H125552   0.824   6.280   6.560
 1331TIP3    H225553   0.965   6.225   6.573
 1332TIP3   OH225554   5.492   0.259   1.901
 1332TIP3    H125555   5.421   0.323   1.906
 1332TIP3    H225556   5.487   0.225   1.812
 1333TIP3   OH225557   5.598   3.279   8.123
 1333TIP3    H125558   5.525   3.259   8.181
 1333TIP3    H225559   5.653   3.340   8.172
 1334TIP3   OH225560   2.459   4.395   1.630
 1334TIP3    H125561   2.395   4.330   1.661
 1334TIP3    H225562   2.425   4.479   1.661
 1335TIP3   OH225563   3.018   5.577   7.375
 1335TIP3    H125564   3.013   5.501   7.316
 1335TIP3    H225565   3.025   5.539   7.463
 1336TIP3   OH225566   4.208   6.404   7.868
 1336TIP3    H125567   4.279   6.405   7.933
 1336TIP3    H225568   4.247   6.365   7.790
 1337TIP3   OH225569   1.274   5.041   6.939
 1337TIP3    H125570   1.198   5.085   6.902
 1337TIP3    H225571   1.254   4.948   6.930
 1338TIP3   OH225572   0.959   1.614   7.693
 1338TIP3    H125573   0.974   1.609   7.599
 1338TIP3    H225574   0.962   1.708   7.713
 1339TIP3   OH225575   0.802   5.145   8.587
 1339TIP3    H125576   0.755   5.075   8.541
 1339TIP3    H225577   0.836   5.102   0.063
 1340TIP3   OH225578   5.000   2.673   1.257
 1340TIP3    H125579   5.012   2.716   1.342
 1340TIP3    H225580   4.906   2.674   1.243
 1341TIP3   OH225581   4.243   6.109   8.351
 1341TIP3    H125582   4.222   6.063   8.432
 1341TIP3    H225583   4.328   6.075   8.325
 1342TIP3   OH225584   2.514   1.215   1.502
 1342TIP3    H125585   2.580   1.243   1.566
 1342TIP3    H225586   2.535   1.265   1.423
 1343TIP3   OH225587   5.546   1.771   8.345
 1343TIP3    H125588   5.456   1.786   8.373
 1343TIP3    H225589   5.546   1.681   8.313
 1344TIP3   OH225590   4.687   3.699   1.683
 1344TIP3    H125591   4.632   3.777   1.676
 1344TIP3    H225592   4.670   3.650   1.602
 1345TIP3   OH225593   1.555   4.936   7.753
 1345TIP3    H125594   1.525   4.870   7.816
 1345TIP3    H225595   1.566   4.887   7.671
 1346TIP3   OH225596   1.698   2.903   0.937
 1346TIP3    H125597   1.727   2.906   0.846
 1346TIP3    H225598   1.701   2.810   0.960
 1347TIP3   OH225599   0.905   6.460   7.021
 1347TIP3    H125600   0.973   6.518   7.054
 1347TIP3    H225601   0.920   6.377   7.066
 1348TIP3   OH225602   3.496   4.680   6.363
 1348TIP3    H125603   3.403   4.659   6.363
 1348TIP3    H225604   3.507   4.738   6.288
 1349TIP3   OH225605   5.689   5.514   5.905
 1349TIP3    H125606   5.698   5.608   5.890
 1349TIP3    H225607   5.603   5.505   5.947
 1350TIP3   OH225608   3.824   4.284   8.222
 1350TIP3    H125609   3.778   4.346   8.278
 1350TIP3    H225610   3.760   4.261   8.154
 1351TIP3   OH225611   2.913   0.456   0.768
 1351TIP3    H125612   2.990   0.400   0.779
 1351TIP3    H225613   2.874   0.428   0.684
 1352TIP3   OH225614   3.018   1.873   8.148
 1352TIP3    H125615   3.072   1.951   8.135
 1352TIP3    H225616   3.056   1.807   8.089
 1353TIP3   OH225617   5.036   3.469   2.075
 1353TIP3    H125618   4.969   3.400   2.082
 1353TIP3    H225619   4.986   3.549   2.062
 1354TIP3   OH225620   4.312   6.024   1.364
 1354TIP3    H125621   4.304   6.066   1.449
 1354TIP3    H225622   4.226   6.034   1.324
 1355TIP3   OH225623   2.263   0.026   7.101
 1355TIP3    H125624   2.257   0.119   7.122
 1355TIP3    H225625   2.318   0.022   7.023
 1356TIP3   OH225626   2.645   5.741   1.241
 1356TIP3    H125627   2.739   5.755   1.234
 1356TIP3    H225628   2.615   5.807   1.303
 1357TIP3   OH225629   6.311   5.472   7.329
 1357TIP3    H125630   6.244   5.539   7.346
 1357TIP3    H225631   6.261   5.392   7.316
 1358TIP3   OH225632   3.968   0.563   0.569
 1358TIP3    H125633   4.011   0.480   0.550
 1358TIP3    H225634   4.017   0.599   0.643
 1359TIP3   OH225635   6.682   4.098   6.855
 1359TIP3    H125636   6.660   4.139   6.938
 1359TIP3    H225637   6.648   4.157   6.788
 1360TIP3   OH225638   5.267   2.481   0.036
 1360TIP3    H125639   5.322   2.456   0.110
 1360TIP3    H225640   5.233   2.398   0.002
 1361TIP3   OH225641   0.340   5.993   8.273
 1361TIP3    H125642   0.333   6.072   8.327
 1361TIP3    H225643   0.250   5.976   8.244
 1362TIP3   OH225644   3.143   6.421   6.509
 1362TIP3    H125645   3.223   6.472   6.496
 1362TIP3    H225646   3.173   6.331   6.513
 1363TIP3   OH225647   0.788   5.243   7.802
 1363TIP3    H125648   0.702   5.225   7.840
 1363TIP3    H225649   0.840   5.277   7.875
 1364TIP3   OH225650   4.355   3.901   8.229
 1364TIP3    H125651   4.359   3.996   8.217
 1364TIP3    H225652   4.324   3.868   8.145
 1365TIP3   OH225653   5.882   6.491   1.623
 1365TIP3    H125654   5.928   6.492   1.707
 1365TIP3    H225655   5.891   6.401   1.591
 1366TIP3   OH225656   2.556   2.333   8.136
 1366TIP3    H125657   2.632   2.390   8.150
 1366TIP3    H225658   2.513   2.370   8.059
 1367TIP3   OH225659   5.843   0.772   7.729
 1367TIP3    H125660   5.815   0.688   7.693
 1367TIP3    H225661   5.937   0.774   7.715
 1368TIP3   OH225662   4.083   1.234   0.267
 1368TIP3    H125663   4.162   1.287   0.279
 1368TIP3    H225664   4.053   1.216   0.356
 1369TIP3   OH225665   2.572   3.512   1.063
 1369TIP3    H125666   2.484   3.477   1.048
 1369TIP3    H225667   2.571   3.540   1.155
 1370TIP3   OH225668   6.558   6.762   1.140
 1370TIP3    H125669   6.614   6.839   1.126
 1370TIP3    H225670   6.619   6.688   1.140
 1371TIP3   OH225671   2.727   5.525   8.352
 1371TIP3    H125672   2.700   5.463   8.420
 1371TIP3    H225673   2.821   5.513   8.345
 1372TIP3   OH225674   5.323   3.462   0.999
 1372TIP3    H125675   5.342   3.376   1.035
 1372TIP3    H225676   5.239   3.451   0.953
 1373TIP3   OH225677   6.621   1.523   7.528
 1373TIP3    H125678   6.567   1.553   7.601
 1373TIP3    H225679   6.673   1.599   7.505
 1374TIP3   OH225680   4.852   4.271   0.880
 1374TIP3    H125681   4.912   4.304   0.814
 1374TIP3    H225682   4.765   4.277   0.839
 1375TIP3   OH225683   4.994   1.906   0.613
 1375TIP3    H125684   4.943   1.973   0.569
 1375TIP3    H225685   5.082   1.944   0.621
 1376TIP3   OH225686   3.308   3.562   0.366
 1376TIP3    H125687   3.393   3.532   0.331
 1376TIP3    H225688   3.310   3.536   0.458
 1377TIP3   OH225689   5.480   2.544   1.768
 1377TIP3    H125690   5.455   2.565   1.858
 1377TIP3    H225691   5.565   2.586   1.756
 1378TIP3   OH225692   0.589   3.263   6.760
 1378TIP3    H125693   0.602   3.314   6.840
 1378TIP3    H225694   0.587   3.328   6.690
 1379TIP3   OH225695   3.341   3.050   8.476
 1379TIP3    H125696   3.305   2.996   8.547
 1379TIP3    H225697   3.424   3.007   8.454
 1380TIP3   OH225698   3.834   4.258   1.548
 1380TIP3    H125699   3.739   4.247   1.554
 1380TIP3    H225700   3.858   4.306   1.628
 1381TIP3   OH225701   2.183   1.827   2.962
 1381TIP3    H125702   2.140   1.746   2.936
 1381TIP3    H225703   2.177   1.883   2.884
 1382TIP3   OH225704   2.150   3.360   7.143
 1382TIP3    H125705   2.215   3.423   7.111
 1382TIP3    H225706   2.078   3.367   7.080
 1383TIP3   OH225707   4.174   4.399   1.267
 1383TIP3    H125708   4.112   4.470   1.249
 1383TIP3    H225709   4.259   4.441   1.264
 1384TIP3   OH225710   5.966   5.103   7.068
 1384TIP3    H125711   6.054   5.085   7.034
 1384TIP3    H225712   5.918   5.021   7.057
 1385TIP3   OH225713   1.457   0.448   8.143
 1385TIP3    H125714   1.477   0.451   8.050
 1385TIP3    H225715   1.526   0.393   8.181
 1386TIP3   OH225716   4.436   5.937   1.800
 1386TIP3    H125717   4.518   5.891   1.782
 1386TIP3    H225718   4.446   6.022   1.756
 1387TIP3   OH225719   1.696   5.611   7.374
 1387TIP3    H125720   1.652   5.629   7.457
 1387TIP3    H225721   1.706   5.516   7.372
 1388TIP3   OH225722   1.071   1.890   0.546
 1388TIP3    H125723   1.113   1.939   0.616
 1388TIP3    H225724   1.099   1.799   0.560
 1389TIP3   OH225725   2.143   5.396   7.592
 1389TIP3    H125726   2.165   5.452   7.666
 1389TIP3    H225727   2.048   5.402   7.583
 1390TIP3   OH225728   6.450   5.066   6.224
 1390TIP3    H125729   6.446   5.149   6.175
 1390TIP3    H225730   6.395   5.082   6.301
 1391TIP3   OH225731   2.369   4.312   8.401
 1391TIP3    H125732   2.386   4.319   8.307
 1391TIP3    H225733   2.274   4.323   8.409
 1392TIP3   OH225734   0.490   4.109   0.260
 1392TIP3    H125735   0.417   4.156   0.220
 1392TIP3    H225736   0.454   4.076   0.343
 1393TIP3   OH225737   6.635   4.213   8.353
 1393TIP3    H125738   6.718   4.223   8.305
 1393TIP3    H225739   6.642   4.275   8.425
 1394TIP3   OH225740   5.522   1.175   8.170
 1394TIP3    H125741   5.497   1.229   8.244
 1394TIP3    H225742   5.439   1.141   8.135
 1395TIP3   OH225743   2.404   2.168   0.550
 1395TIP3    H125744   2.342   2.097   0.533
 1395TIP3    H225745   2.463   2.168   0.475
 1396TIP3   OH225746   2.681   0.248   1.556
 1396TIP3    H125747   2.747   0.317   1.559
 1396TIP3    H225748   2.720   0.181   1.500
 1397TIP3   OH225749   2.474   5.178   0.795
 1397TIP3    H125750   2.547   5.117   0.784
 1397TIP3    H225751   2.424   5.170   0.714
 1398TIP3   OH225752   4.029   4.538   8.145
 1398TIP3    H125753   4.040   4.610   8.082
 1398TIP3    H225754   3.976   4.474   8.099
 1399TIP3   OH225755   4.894   1.079   0.067
 1399TIP3    H125756   4.962   1.116   0.010
 1399TIP3    H225757   4.831   1.150   0.080
 1400TIP3   OH225758   3.851   6.696   6.632
 1400TIP3    H125759   3.758   6.694   6.612
 1400TIP3    H225760   3.887   6.765   6.577
 1401TIP3   OH225761   3.794   3.701   0.178
 1401TIP3    H125762   3.853   3.626   0.177
 1401TIP3    H225763   3.795   3.734   0.088
 1402TIP3   OH225764   4.937   1.369   6.644
 1402TIP3    H125765   4.999   1.322   6.589
 1402TIP3    H225766   4.972   1.458   6.651
 1403TIP3   OH225767   4.374   5.636   1.179
 1403TIP3    H125768   4.470   5.640   1.179
 1403TIP3    H225769   4.353   5.578   1.252
 1404TIP3   OH225770   1.344   0.114   7.236
 1404TIP3    H125771   1.435   0.118   7.205
 1404TIP3    H225772   1.323   0.204   7.257
 1405TIP3   OH225773   3.166   0.557   7.281
 1405TIP3    H125774   3.240   0.539   7.339
 1405TIP3    H225775   3.175   0.494   7.210
 1406TIP3   OH225776   5.264   5.774   1.979
 1406TIP3    H125777   5.188   5.725   2.009
 1406TIP3    H225778   5.340   5.721   2.005
 1407TIP3   OH225779   0.326   2.117   2.121
 1407TIP3    H125780   0.245   2.164   2.141
 1407TIP3    H225781   0.374   2.174   2.062
 1408TIP3   OH225782   4.912   2.087   7.668
 1408TIP3    H125783   4.940   2.166   7.621
 1408TIP3    H225784   4.818   2.082   7.651
 1409TIP3   OH225785   1.576   6.885   6.370
 1409TIP3    H125786   1.487   6.912   6.392
 1409TIP3    H225787   1.630   0.048   6.392
 1410TIP3   OH225788   5.705   0.882   7.962
 1410TIP3    H125789   5.737   0.799   7.928
 1410TIP3    H225790   5.757   0.898   8.041
 1411TIP3   OH225791   1.020   5.564   7.103
 1411TIP3    H125792   0.997   5.531   7.190
 1411TIP3    H225793   0.943   5.613   7.075
 1412TIP3   OH225794   3.096   1.107   6.200
 1412TIP3    H125795   3.152   1.051   6.146
 1412TIP3    H225796   3.051   1.047   6.259
 1413TIP3   OH225797   4.021   3.947   7.142
 1413TIP3    H125798   3.926   3.937   7.152
 1413TIP3    H225799   4.031   4.020   7.081
 1414TIP3   OH225800   5.351   5.782   7.377
 1414TIP3    H125801   5.396   5.792   7.460
 1414TIP3    H225802   5.385   5.853   7.322
 1415TIP3   OH225803   4.446   4.854   0.915
 1415TIP3    H125804   4.365   4.891   0.949
 1415TIP3    H225805   4.481   4.922   0.857
 1416TIP3   OH225806   2.975   3.206   1.211
 1416TIP3    H125807   2.920   3.262   1.157
 1416TIP3    H225808   2.999   3.261   1.285
 1417TIP3   OH225809   6.600   6.789   6.630
 1417TIP3    H125810   6.533   6.722   6.613
 1417TIP3    H225811   6.683   6.741   6.623
 1418TIP3   OH225812   4.743   6.050   1.472
 1418TIP3    H125813   4.737   6.029   1.379
 1418TIP3    H225814   4.836   6.061   1.489
 1419TIP3   OH225815   6.427   1.936   0.226
 1419TIP3    H125816   6.351   1.958   0.171
 1419TIP3    H225817   6.472   1.867   0.179
 1420TIP3   OH225818   0.646   2.136   1.393
 1420TIP3    H125819   0.709   2.112   1.325
 1420TIP3    H225820   0.661   2.229   1.408
 1421TIP3   OH225821   3.215   0.100   8.017
 1421TIP3    H125822   3.176   0.126   7.934
 1421TIP3    H225823   3.237   0.183   8.060
 1422TIP3   OH225824   4.855   6.759   1.126
 1422TIP3    H125825   4.936   6.719   1.157
 1422TIP3    H225826   4.817   6.693   1.068
 1423TIP3   OH225827   6.316   2.234   8.044
 1423TIP3    H125828   6.392   2.176   8.051
 1423TIP3    H225829   6.329   2.298   8.115
 1424TIP3   OH225830   1.841   4.123   1.343
 1424TIP3    H125831   1.859   4.077   1.425
 1424TIP3    H225832   1.749   4.107   1.327
 1425TIP3   OH225833   1.831   5.394   7.974
 1425TIP3    H125834   1.785   5.396   7.890
 1425TIP3    H225835   1.789   5.462   8.026
 1426TIP3   OH225836   5.053   2.737   6.579
 1426TIP3    H125837   5.048   2.775   6.492
 1426TIP3    H225838   4.970   2.690   6.590
 1427TIP3   OH225839   1.369   3.009   0.588
 1427TIP3    H125840   1.280   3.008   0.624
 1427TIP3    H225841   1.356   3.019   0.494
 1428TIP3   OH225842   4.993   0.159   8.399
 1428TIP3    H125843   4.996   0.135   8.306
 1428TIP3    H225844   5.080   0.193   8.418
 1429TIP3   OH225845   5.445   1.083   6.434
 1429TIP3    H125846   5.451   1.140   6.357
 1429TIP3    H225847   5.438   0.995   6.399
 1430TIP3   OH225848   3.152   2.133   7.332
 1430TIP3    H125849   3.231   2.135   7.279
 1430TIP3    H225850   3.142   2.042   7.359
 1431TIP3   OH225851   6.250   2.779   6.904
 1431TIP3    H125852   6.231   2.715   6.973
 1431TIP3    H225853   6.241   2.729   6.823
 1432TIP3   OH225854   2.043   4.044   0.423
 1432TIP3    H125855   2.132   4.023   0.450
 1432TIP3    H225856   2.009   4.101   0.492
 1433TIP3   OH225857   4.870   2.115   6.745
 1433TIP3    H125858   4.802   2.074   6.691
 1433TIP3    H225859   4.857   2.209   6.732
 1434TIP3   OH225860   0.330   2.428   0.369
 1434TIP3    H125861   0.306   2.378   0.447
 1434TIP3    H225862   0.357   2.514   0.402
 1435TIP3   OH225863   2.535   0.117   6.180
 1435TIP3    H125864   2.607   0.075   6.133
 1435TIP3    H225865   2.474   0.143   6.112
 1436TIP3   OH225866   1.665   3.511   1.329
 1436TIP3    H125867   1.695   3.574   1.395
 1436TIP3    H225868   1.739   3.505   1.267
 1437TIP3   OH225869   1.634   1.556   7.052
 1437TIP3    H125870   1.727   1.549   7.032
 1437TIP3    H225871   1.625   1.518   7.139
 1438TIP3   OH225872   2.223   2.687   0.057
 1438TIP3    H125873   2.242   2.776   0.087
 1438TIP3    H225874   2.248   2.686   8.568
 1439TIP3   OH225875   5.456   6.265   6.746
 1439TIP3    H125876   5.399   6.224   6.811
 1439TIP3    H225877   5.541   6.273   6.791
 1440TIP3   OH225878   4.325   2.381   7.306
 1440TIP3    H125879   4.303   2.371   7.399
 1440TIP3    H225880   4.243   2.365   7.260
 1441TIP3   OH225881   4.720   0.450   0.857
 1441TIP3    H125882   4.705   0.362   0.890
 1441TIP3    H225883   4.684   0.449   0.768
 1442TIP3   OH225884   1.807   1.041   1.158
 1442TIP3    H125885   1.799   1.115   1.218
 1442TIP3    H225886   1.730   0.987   1.176
 1443TIP3   OH225887   3.117   1.162   8.081
 1443TIP3    H125888   3.067   1.096   8.032
 1443TIP3    H225889   3.206   1.153   8.049
 1444TIP3   OH225890   4.364   5.182   2.383
 1444TIP3    H125891   4.310   5.227   2.449
 1444TIP3    H225892   4.322   5.204   2.300
 1445TIP3   OH225893   5.825   5.509   6.724
 1445TIP3    H125894   5.737   5.529   6.692
 1445TIP3    H225895   5.812   5.438   6.787
 1446TIP3   OH225896   6.616   1.051   8.151
 1446TIP3    H125897   6.566   0.996   8.212
 1446TIP3    H225898   6.707   1.039   8.176
 1447TIP3   OH225899   6.739   0.478   0.610
 1447TIP3    H125900   6.822   0.463   0.565
 1447TIP3    H225901   6.719   0.570   0.593
 1448TIP3   OH225902   2.424   3.131   6.314
 1448TIP3    H125903   2.401   3.139   6.407
 1448TIP3    H225904   2.340   3.125   6.269
 1449TIP3   OH225905   1.155   4.397   0.519
 1449TIP3    H125906   1.118   4.357   0.597
 1449TIP3    H225907   1.206   4.471   0.552
 1450TIP3   OH225908   0.515   4.416   0.036
 1450TIP3    H125909   0.598   4.375   0.010
 1450TIP3    H225910   0.530   4.510   0.024
 1451TIP3   OH225911   5.608   0.841   1.582
 1451TIP3    H125912   5.597   0.748   1.603
 1451TIP3    H225913   5.548   0.886   1.642
 1452TIP3   OH225914   3.467   6.111   1.006
 1452TIP3    H125915   3.539   6.138   0.949
 1452TIP3    H225916   3.477   6.016   1.014
 1453TIP3   OH225917   2.972   5.908   8.533
 1453TIP3    H125918   3.006   5.955   0.005
 1453TIP3    H225919   2.919   5.972   8.486
 1454TIP3   OH225920   0.227   2.723   7.701
 1454TIP3    H125921   0.150   2.753   7.749
 1454TIP3    H225922   0.275   2.804   7.682
 1455TIP3   OH225923   5.273   0.331   2.818
 1455TIP3    H125924   5.266   0.425   2.801
 1455TIP3    H225925   5.246   0.290   2.736
 1456TIP3   OH225926   2.627   4.293   0.233
 1456TIP3    H125927   2.626   4.252   0.147
 1456TIP3    H225928   2.568   4.368   0.225
 1457TIP3   OH225929   1.968   2.772   7.625
 1457TIP3    H125930   2.011   2.710   7.684
 1457TIP3    H225931   2.040   2.818   7.582
 1458TIP3   OH225932   4.526   6.031   8.313
 1458TIP3    H125933   4.609   6.001   8.277
 1458TIP3    H225934   4.551   6.089   8.385
 1459TIP3   OH225935   3.789   5.993   7.345
 1459TIP3    H125936   3.860   5.939   7.378
 1459TIP3    H225937   3.768   6.052   7.417
 1460TIP3   OH225938   6.476   3.679   7.137
 1460TIP3    H125939   6.520   3.752   7.182
 1460TIP3    H225940   6.390   3.714   7.113
 1461TIP3   OH225941   1.504   4.360   1.209
 1461TIP3    H125942   1.558   4.374   1.131
 1461TIP3    H225943   1.557   4.395   1.281
 1462TIP3   OH225944   2.969   5.253   1.891
 1462TIP3    H125945   2.939   5.202   1.816
 1462TIP3    H225946   2.962   5.192   1.965
 1463TIP3   OH225947   5.459   1.427   2.296
 1463TIP3    H125948   5.537   1.470   2.260
 1463TIP3    H225949   5.493   1.372   2.367
 1464TIP3   OH225950   2.760   2.545   8.401
 1464TIP3    H125951   2.711   2.467   8.428
 1464TIP3    H225952   2.839   2.511   8.359
 1465TIP3   OH225953   6.865   3.337   8.272
 1465TIP3    H125954   6.796   3.402   8.285
 1465TIP3    H225955   6.825   3.254   8.296
 1466TIP3   OH225956   3.941   3.775   2.192
 1466TIP3    H125957   4.014   3.717   2.215
 1466TIP3    H225958   3.929   3.830   2.269
 1467TIP3   OH225959   4.705   1.994   6.581
 1467TIP3    H125960   4.623   1.985   6.630
 1467TIP3    H225961   4.692   1.940   6.503
 1468TIP3   OH225962   3.162   6.574   6.836
 1468TIP3    H125963   3.236   6.584   6.777
 1468TIP3    H225964   3.085   6.575   6.778
 1469TIP3   OH225965   6.443   3.126   1.804
 1469TIP3    H125966   6.448   3.035   1.773
 1469TIP3    H225967   6.384   3.122   1.879
 1470TIP3   OH225968   6.106   1.672   0.182
 1470TIP3    H125969   6.109   1.767   0.192
 1470TIP3    H225970   6.083   1.658   0.090
 1471TIP3   OH225971   6.610   4.531   2.614
 1471TIP3    H125972   6.694   4.494   2.586
 1471TIP3    H225973   6.589   4.485   2.695
 1472TIP3   OH225974   4.031   1.126   0.527
 1472TIP3    H125975   4.116   1.151   0.564
 1472TIP3    H225976   4.007   1.045   0.572
 1473TIP3   OH225977   2.333   2.515   2.457
 1473TIP3    H125978   2.240   2.532   2.466
 1473TIP3    H225979   2.358   2.558   2.375
 1474TIP3   OH225980   6.152   6.582   0.418
 1474TIP3    H125981   6.139   6.492   0.447
 1474TIP3    H225982   6.115   6.635   0.488
 1475TIP3   OH225983   6.644   5.290   0.653
 1475TIP3    H125984   6.689   5.293   0.569
 1475TIP3    H225985   6.568   5.233   0.638
 1476TIP3   OH225986   4.321   1.808   7.421
 1476TIP3    H125987   4.270   1.800   7.502
 1476TIP3    H225988   4.410   1.784   7.447
 1477TIP3   OH225989   5.116   4.507   6.810
 1477TIP3    H125990   5.143   4.542   6.725
 1477TIP3    H225991   5.175   4.432   6.824
 1478TIP3   OH225992   3.571   4.174   7.397
 1478TIP3    H125993   3.585   4.258   7.353
 1478TIP3    H225994   3.542   4.115   7.328
 1479TIP3   OH225995   6.834   5.451   1.770
 1479TIP3    H125996   6.861   5.524   1.714
 1479TIP3    H225997   6.752   5.480   1.809
 1480TIP3   OH225998   1.628   2.349   0.606
 1480TIP3    H125999   1.721   2.369   0.598
 1480TIP3    H226000   1.624   2.253   0.610
 1481TIP3   OH226001   5.210   4.690   7.640
 1481TIP3    H126002   5.159   4.744   7.700
 1481TIP3    H226003   5.145   4.631   7.601
 1482TIP3   OH226004   1.533   0.813   7.034
 1482TIP3    H126005   1.458   0.797   7.091
 1482TIP3    H226006   1.495   0.839   6.950
 1483TIP3   OH226007   5.728   6.633   0.754
 1483TIP3    H126008   5.774   6.694   0.811
 1483TIP3    H226009   5.774   6.550   0.764
 1484TIP3   OH226010   0.437   0.632   7.614
 1484TIP3    H126011   0.426   0.643   7.708
 1484TIP3    H226012   0.349   0.641   7.578
 1485TIP3   OH226013   3.505   5.327   7.221
 1485TIP3    H126014   3.555   5.402   7.252
 1485TIP3    H226015   3.489   5.345   7.129
 1486TIP3   OH226016   2.899   2.238   0.515
 1486TIP3    H126017   2.900   2.168   0.580
 1486TIP3    H226018   2.976   2.220   0.460
 1487TIP3   OH226019   4.162   3.023   8.083
 1487TIP3    H126020   4.105   2.964   8.133
 1487TIP3    H226021   4.102   3.074   8.028
 1488TIP3   OH226022   0.757   6.184   0.125
 1488TIP3    H126023   0.844   6.187   0.085
 1488TIP3    H226024   0.755   6.260   0.184
 1489TIP3   OH226025   2.056   3.995   0.846
 1489TIP3    H126026   2.138   4.039   0.869
 1489TIP3    H226027   2.008   3.990   0.928
 1490TIP3   OH226028   4.453   4.926   0.647
 1490TIP3    H126029   4.411   4.993   0.593
 1490TIP3    H226030   4.539   4.914   0.607
 1491TIP3   OH226031   3.585   1.889   6.873
 1491TIP3    H126032   3.571   1.801   6.909
 1491TIP3    H226033   3.678   1.890   6.849
 1492TIP3   OH226034   0.841   3.042   1.812
 1492TIP3    H126035   0.889   2.960   1.825
 1492TIP3    H226036   0.859   3.066   1.721
 1493TIP3   OH226037   4.971   3.195   1.573
 1493TIP3    H126038   4.980   3.287   1.547
 1493TIP3    H226039   4.970   3.197   1.669
 1494TIP3   OH226040   0.883   0.048   7.795
 1494TIP3    H126041   0.904   0.137   7.765
 1494TIP3    H226042   0.930   0.038   7.878
 1495TIP3   OH226043   2.901   1.090   8.298
 1495TIP3    H126044   2.851   1.167   8.325
 1495TIP3    H226045   2.980   1.126   8.257
 1496TIP3   OH226046   1.100   0.529   6.046
 1496TIP3    H126047   1.014   0.558   6.014
 1496TIP3    H226048   1.080   0.483   6.128
 1497TIP3   OH226049   4.429   1.143   8.256
 1497TIP3    H126050   4.444   1.159   8.163
 1497TIP3    H226051   4.368   1.069   8.258
 1498TIP3   OH226052   2.901   5.752   7.615
 1498TIP3    H126053   2.848   5.825   7.648
 1498TIP3    H226054   2.853   5.720   7.539
 1499TIP3   OH226055   4.326   0.791   7.221
 1499TIP3    H126056   4.258   0.792   7.154
 1499TIP3    H226057   4.305   0.864   7.279
 1500TIP3   OH226058   2.835   5.204   8.360
 1500TIP3    H126059   2.920   5.249   8.364
 1500TIP3    H226060   2.809   5.211   8.268
 1501TIP3   OH226061   0.519   0.546   6.940
 1501TIP3    H126062   0.450   0.480   6.933
 1501TIP3    H226063   0.513   0.578   7.030
 1502TIP3   OH226064   5.901   4.075   7.458
 1502TIP3    H126065   5.953   4.016   7.512
 1502TIP3    H226066   5.810   4.049   7.476
 1503TIP3   OH226067   4.391   4.882   7.577
 1503TIP3    H126068   4.409   4.957   7.520
 1503TIP3    H226069   4.385   4.920   7.665
 1504TIP3   OH226070   2.964   3.547   0.166
 1504TIP3    H126071   2.967   3.501   0.082
 1504TIP3    H226072   2.983   3.479   0.231
 1505TIP3   OH226073   4.101   1.767   0.847
 1505TIP3    H126074   4.184   1.720   0.849
 1505TIP3    H226075   4.063   1.744   0.762
 1506TIP3   OH226076   0.953   3.162   2.049
 1506TIP3    H126077   1.033   3.196   2.009
 1506TIP3    H226078   0.932   3.084   1.997
 1507TIP3   OH226079   6.432   6.897   7.835
 1507TIP3    H126080   6.493   6.864   7.769
 1507TIP3    H226081   6.366   0.032   7.785
 1508TIP3   OH226082   6.576   4.405   2.074
 1508TIP3    H126083   6.647   4.345   2.052
 1508TIP3    H226084   6.618   4.490   2.082
 1509TIP3   OH226085   1.091   5.999   8.586
 1509TIP3    H126086   1.140   6.070   0.025
 1509TIP3    H226087   1.075   5.936   0.053
 1510TIP3   OH226088   2.598   6.530   7.176
 1510TIP3    H126089   2.541   6.549   7.251
 1510TIP3    H226090   2.636   6.445   7.197
 1511TIP3   OH226091   1.727   4.626   8.450
 1511TIP3    H126092   1.673   4.570   8.395
 1511TIP3    H226093   1.722   4.712   8.410
 1512TIP3   OH226094   2.277   5.964   0.121
 1512TIP3    H126095   2.367   5.964   0.155
 1512TIP3    H226096   2.287   5.953   0.027
 1513TIP3   OH226097   4.655   0.580   8.022
 1513TIP3    H126098   4.603   0.649   7.982
 1513TIP3    H226099   4.677   0.521   7.949
 1514TIP3   OH226100   1.201   5.344   8.204
 1514TIP3    H126101   1.276   5.294   8.172
 1514TIP3    H226102   1.240   5.425   8.237
 1515TIP3   OH226103   0.917   4.607   7.489
 1515TIP3    H126104   0.894   4.668   7.418
 1515TIP3    H226105   1.009   4.625   7.507
 1516TIP3   OH226106   1.495   0.119   8.541
 1516TIP3    H126107   1.574   0.088   8.495
 1516TIP3    H226108   1.529   0.172   0.010
 1517TIP3   OH226109   6.808   6.732   0.866
 1517TIP3    H126110   6.810   6.651   0.815
 1517TIP3    H226111   6.765   6.796   0.809
 1518TIP3   OH226112   2.767   4.363   6.408
 1518TIP3    H126113   2.700   4.364   6.339
 1518TIP3    H226114   2.798   4.273   6.411
 1519TIP3   OH226115   5.417   5.132   8.310
 1519TIP3    H126116   5.492   5.091   8.354
 1519TIP3    H226117   5.412   5.220   8.348
 1520TIP3   OH226118   4.266   6.155   6.086
 1520TIP3    H126119   4.180   6.129   6.053
 1520TIP3    H226120   4.252   6.172   6.179
 1521TIP3   OH226121   6.166   1.730   7.858
 1521TIP3    H126122   6.091   1.682   7.823
 1521TIP3    H226123   6.153   1.729   7.953
 1522TIP3   OH226124   4.855   4.237   0.265
 1522TIP3    H126125   4.840   4.297   0.192
 1522TIP3    H226126   4.784   4.173   0.259
 1523TIP3   OH226127   1.787   5.396   6.659
 1523TIP3    H126128   1.728   5.426   6.728
 1523TIP3    H226129   1.735   5.400   6.579
 1524TIP3   OH226130   0.309   2.545   7.011
 1524TIP3    H126131   0.381   2.489   7.041
 1524TIP3    H226132   0.352   2.628   6.989
 1525TIP3   OH226133   4.339   5.721   0.361
 1525TIP3    H126134   4.367   5.710   0.452
 1525TIP3    H226135   4.356   5.813   0.341
 1526TIP3   OH226136   5.924   6.236   1.748
 1526TIP3    H126137   5.833   6.261   1.764
 1526TIP3    H226138   5.976   6.301   1.796
 1527TIP3   OH226139   6.348   4.181   1.520
 1527TIP3    H126140   6.372   4.152   1.608
 1527TIP3    H226141   6.411   4.138   1.463
 1528TIP3   OH226142   4.698   3.952   0.290
 1528TIP3    H126143   4.677   3.874   0.341
 1528TIP3    H226144   4.642   4.021   0.325
 1529TIP3   OH226145   0.853   0.482   7.011
 1529TIP3    H126146   0.820   0.403   6.968
 1529TIP3    H226147   0.892   0.534   6.941
 1530TIP3   OH226148   2.742   2.449   0.454
 1530TIP3    H126149   2.705   2.416   0.372
 1530TIP3    H226150   2.790   2.375   0.490
 1531TIP3   OH226151   1.028   0.378   6.276
 1531TIP3    H126152   1.077   0.310   6.322
 1531TIP3    H226153   0.949   0.391   6.328
 1532TIP3   OH226154   4.321   0.946   0.850
 1532TIP3    H126155   4.232   0.943   0.814
 1532TIP3    H226156   4.377   0.926   0.775
 1533TIP3   OH226157   2.721   1.326   1.647
 1533TIP3    H126158   2.764   1.244   1.671
 1533TIP3    H226159   2.719   1.377   1.728
 1534TIP3   OH226160   5.738   0.915   7.400
 1534TIP3    H126161   5.787   0.839   7.429
 1534TIP3    H226162   5.675   0.932   7.470
 1535TIP3   OH226163   6.772   6.255   0.267
 1535TIP3    H126164   6.865   6.258   0.288
 1535TIP3    H226165   6.765   6.294   0.180
 1536TIP3   OH226166   6.591   3.007   0.593
 1536TIP3    H126167   6.592   2.912   0.585
 1536TIP3    H226168   6.673   3.036   0.554
 1537TIP3   OH226169   6.630   6.857   0.665
 1537TIP3    H126170   6.654   0.037   0.654
 1537TIP3    H226171   6.629   6.822   0.576
 1538TIP3   OH226172   5.814   1.562   7.980
 1538TIP3    H126173   5.851   1.476   7.998
 1538TIP3    H226174   5.722   1.545   7.959
 1539TIP3   OH226175   4.027   5.214   1.272
 1539TIP3    H126176   3.946   5.242   1.230
 1539TIP3    H226177   4.032   5.119   1.256
 1540TIP3   OH226178   5.430   6.085   2.084
 1540TIP3    H126179   5.411   6.088   1.990
 1540TIP3    H226180   5.514   6.038   2.090
 1541TIP3   OH226181   6.139   1.978   8.016
 1541TIP3    H126182   6.202   2.036   8.059
 1541TIP3    H226183   6.188   1.939   7.944
 1542TIP3   OH226184   0.918   1.849   1.118
 1542TIP3    H126185   0.871   1.918   1.073
 1542TIP3    H226186   0.902   1.771   1.065
 1543TIP3   OH226187   3.485   6.506   7.402
 1543TIP3    H126188   3.430   6.460   7.465
 1543TIP3    H226189   3.547   6.556   7.455
 1544TIP3   OH226190   6.546   2.711   7.521
 1544TIP3    H126191   6.527   2.708   7.615
 1544TIP3    H226192   6.581   2.625   7.501
 1545TIP3   OH226193   4.574   2.265   0.560
 1545TIP3    H126194   4.626   2.281   0.482
 1545TIP3    H226195   4.517   2.341   0.568
 1546TIP3   OH226196   3.740   4.582   6.502
 1546TIP3    H126197   3.648   4.586   6.475
 1546TIP3    H226198   3.760   4.489   6.507
 1547TIP3   OH226199   5.755   2.663   1.742
 1547TIP3    H126200   5.820   2.615   1.691
 1547TIP3    H226201   5.734   2.739   1.688
 1548TIP3   OH226202   4.185   0.506   0.975
 1548TIP3    H126203   4.173   0.412   0.987
 1548TIP3    H226204   4.173   0.544   1.062
 1549TIP3   OH226205   6.608   3.910   7.201
 1549TIP3    H126206   6.557   3.992   7.199
 1549TIP3    H226207   6.682   3.926   7.143
 1550TIP3   OH226208   6.150   3.108   7.449
 1550TIP3    H126209   6.145   3.045   7.521
 1550TIP3    H226210   6.206   3.178   7.483
 1551TIP3   OH226211   2.215   5.225   8.138
 1551TIP3    H126212   2.187   5.231   8.046
 1551TIP3    H226213   2.201   5.313   8.173
 1552TIP3   OH226214   5.334   3.694   1.151
 1552TIP3    H126215   5.244   3.714   1.177
 1552TIP3    H226216   5.327   3.614   1.100
 1553TIP3   OH226217   0.541   4.365   0.660
 1553TIP3    H126218   0.621   4.394   0.616
 1553TIP3    H226219   0.546   4.403   0.747
 1554TIP3   OH226220   5.650   6.587   7.032
 1554TIP3    H126221   5.572   6.642   7.031
 1554TIP3    H226222   5.693   6.606   6.948
 1555TIP3   OH226223   5.445   4.289   2.205
 1555TIP3    H126224   5.384   4.273   2.278
 1555TIP3    H226225   5.390   4.329   2.137
 1556TIP3   OH226226   2.038   2.634   7.136
 1556TIP3    H126227   2.092   2.712   7.151
 1556TIP3    H226228   1.980   2.630   7.212
 1557TIP3   OH226229   4.263   0.168   7.010
 1557TIP3    H126230   4.274   0.080   7.045
 1557TIP3    H226231   4.181   0.164   6.961
 1558TIP3   OH226232   2.001   1.732   1.007
 1558TIP3    H126233   2.042   1.674   1.071
 1558TIP3    H226234   1.913   1.697   0.996
 1559TIP3   OH226235   1.101   3.039   7.611
 1559TIP3    H126236   1.186   2.998   7.593
 1559TIP3    H226237   1.107   3.068   7.702
 1560TIP3   OH226238   0.586   4.137   7.556
 1560TIP3    H126239   0.518   4.102   7.498
 1560TIP3    H226240   0.589   4.231   7.536
 1561TIP3   OH226241   1.176   3.335   0.394
 1561TIP3    H126242   1.243   3.328   0.326
 1561TIP3    H226243   1.225   3.348   0.475
 1562TIP3   OH226244   4.651   1.679   7.048
 1562TIP3    H126245   4.620   1.747   7.108
 1562TIP3    H226246   4.712   1.724   6.989
 1563TIP3   OH226247   6.899   3.790   2.252
 1563TIP3    H126248   0.025   3.742   2.179
 1563TIP3    H226249   6.838   3.728   2.292
 1564TIP3   OH226250   4.182   0.956   0.172
 1564TIP3    H126251   4.201   0.876   0.121
 1564TIP3    H226252   4.209   1.027   0.114
 1565TIP3   OH226253   2.745   0.864   0.152
 1565TIP3    H126254   2.723   0.955   0.128
 1565TIP3    H226255   2.719   0.857   0.244
 1566TIP3   OH226256   1.156   0.300   6.849
 1566TIP3    H126257   1.102   0.282   6.771
 1566TIP3    H226258   1.242   0.265   6.827
 1567TIP3   OH226259   6.192   3.973   1.466
 1567TIP3    H126260   6.198   3.926   1.383
 1567TIP3    H226261   6.246   4.051   1.454
 1568TIP3   OH226262   2.975   4.942   7.034
 1568TIP3    H126263   2.959   4.848   7.030
 1568TIP3    H226264   3.070   4.951   7.027
 1569TIP3   OH226265   4.790   2.499   7.574
 1569TIP3    H126266   4.813   2.406   7.571
 1569TIP3    H226267   4.835   2.537   7.498
 1570TIP3   OH226268   6.783   5.975   8.079
 1570TIP3    H126269   6.763   5.951   7.988
 1570TIP3    H226270   6.736   5.910   8.132
 1571TIP3   OH226271   5.026   4.476   0.175
 1571TIP3    H126272   5.064   4.489   0.262
 1571TIP3    H226273   5.100   4.449   0.120
 1572TIP3   OH226274   6.360   6.467   7.161
 1572TIP3    H126275   6.268   6.490   7.170
 1572TIP3    H226276   6.401   6.544   7.121
 1573TIP3   OH226277   1.363   3.669   7.231
 1573TIP3    H126278   1.404   3.740   7.280
 1573TIP3    H226279   1.421   3.594   7.244
 1574TIP3   OH226280   5.307   6.702   6.942
 1574TIP3    H126281   5.274   6.734   7.026
 1574TIP3    H226282   5.280   6.610   6.939
 1575TIP3   OH226283   4.566   0.701   1.492
 1575TIP3    H126284   4.520   0.775   1.453
 1575TIP3    H226285   4.659   0.723   1.482
 1576TIP3   OH226286   0.228   1.543   0.116
 1576TIP3    H126287   0.302   1.544   0.176
 1576TIP3    H226288   0.158   1.587   0.164
 1577TIP3   OH226289   3.338   6.103   8.184
 1577TIP3    H126290   3.388   6.184   8.176
 1577TIP3    H226291   3.384   6.041   8.127
 1578TIP3   OH226292   5.508   3.646   7.174
 1578TIP3    H126293   5.450   3.586   7.127
 1578TIP3    H226294   5.508   3.613   7.265
 1579TIP3   OH226295   4.154   2.760   2.011
 1579TIP3    H126296   4.214   2.760   2.086
 1579TIP3    H226297   4.202   2.716   1.941
 1580TIP3   OH226298   3.535   1.850   1.054
 1580TIP3    H126299   3.535   1.890   0.967
 1580TIP3    H226300   3.562   1.759   1.038
 1581TIP3   OH226301   1.991   3.399   1.376
 1581TIP3    H126302   1.935   3.392   1.298
 1581TIP3    H226303   2.006   3.308   1.402
 1582TIP3   OH226304   0.308   3.895   8.493
 1582TIP3    H126305   0.235   3.938   8.448
 1582TIP3    H226306   0.275   3.877   8.581
 1583TIP3   OH226307   6.732   4.965   0.241
 1583TIP3    H126308   6.717   4.994   0.331
 1583TIP3    H226309   6.653   4.918   0.218
 1584TIP3   OH226310   1.678   4.954   7.437
 1584TIP3    H126311   1.704   4.978   7.348
 1584TIP3    H226312   1.609   5.016   7.460
 1585TIP3   OH226313   2.754   1.747   1.496
 1585TIP3    H126314   2.660   1.765   1.498
 1585TIP3    H226315   2.789   1.793   1.573
 1586TIP3   OH226316   4.005   1.624   1.536
 1586TIP3    H126317   3.938   1.683   1.571
 1586TIP3    H226318   4.041   1.671   1.461
 1587TIP3   OH226319   1.081   5.225   2.036
 1587TIP3    H126320   1.077   5.194   2.126
 1587TIP3    H226321   1.082   5.145   1.983
 1588TIP3   OH226322   2.447   4.305   8.109
 1588TIP3    H126323   2.365   4.317   8.061
 1588TIP3    H226324   2.514   4.340   8.051
 1589TIP3   OH226325   4.942   5.645   6.728
 1589TIP3    H126326   4.982   5.558   6.718
 1589TIP3    H226327   4.861   5.629   6.776
 1590TIP3   OH226328   2.855   5.826   0.311
 1590TIP3    H126329   2.943   5.788   0.302
 1590TIP3    H226330   2.860   5.880   0.390
 1591TIP3   OH226331   0.177   1.156   6.503
 1591TIP3    H126332   0.147   1.246   6.490
 1591TIP3    H226333   0.241   1.162   6.574
 1592TIP3   OH226334   5.168   1.587   6.338
 1592TIP3    H126335   5.073   1.602   6.336
 1592TIP3    H226336   5.176   1.492   6.351
 1593TIP3   OH226337   6.846   4.984   2.183
 1593TIP3    H126338   6.874   4.898   2.153
 1593TIP3    H226339   0.004   5.013   2.242
 1594TIP3   OH226340   0.755   5.554   5.963
 1594TIP3    H126341   0.817   5.588   6.027
 1594TIP3    H226342   0.685   5.618   5.960
 1595TIP3   OH226343   4.930   6.405   1.696
 1595TIP3    H126344   4.995   6.473   1.713
 1595TIP3    H226345   4.912   6.368   1.782
 1596TIP3   OH226346   5.622   5.870   2.021
 1596TIP3    H126347   5.640   5.862   1.928
 1596TIP3    H226348   5.648   5.786   2.058
 1597TIP3   OH226349   2.520   4.891   0.847
 1597TIP3    H126350   2.515   4.822   0.913
 1597TIP3    H226351   2.537   4.845   0.765
 1598TIP3   OH226352   5.862   1.984   6.674
 1598TIP3    H126353   5.918   1.912   6.646
 1598TIP3    H226354   5.890   2.058   6.619
 1599TIP3   OH226355   4.491   4.095   2.023
 1599TIP3    H126356   4.425   4.164   2.032
 1599TIP3    H226357   4.511   4.070   2.113
 1600TIP3   OH226358   5.225   2.000   7.127
 1600TIP3    H126359   5.215   2.045   7.211
 1600TIP3    H226360   5.304   2.038   7.088
 1601TIP3   OH226361   4.374   5.101   7.038
 1601TIP3    H126362   4.332   5.168   7.093
 1601TIP3    H226363   4.461   5.090   7.075
 1602TIP3   OH226364   2.635   3.986   6.181
 1602TIP3    H126365   2.577   3.909   6.175
 1602TIP3    H226366   2.719   3.951   6.210
 1603TIP3   OH226367   6.316   1.755   0.847
 1603TIP3    H126368   6.273   1.703   0.779
 1603TIP3    H226369   6.392   1.793   0.804
 1604TIP3   OH226370   6.827   3.780   7.736
 1604TIP3    H126371   6.890   3.707   7.733
 1604TIP3    H226372   6.743   3.739   7.757
 1605TIP3   OH226373   5.561   4.776   0.725
 1605TIP3    H126374   5.656   4.779   0.734
 1605TIP3    H226375   5.545   4.773   0.631
 1606TIP3   OH226376   4.826   5.528   8.463
 1606TIP3    H126377   4.731   5.526   8.473
 1606TIP3    H226378   4.850   5.439   8.438
 1607TIP3   OH226379   3.905   5.956   1.514
 1607TIP3    H126380   3.912   5.860   1.514
 1607TIP3    H226381   3.959   5.984   1.440
 1608TIP3   OH226382   0.365   2.279   0.898
 1608TIP3    H126383   0.421   2.254   0.824
 1608TIP3    H226384   0.355   2.374   0.889
 1609TIP3   OH226385   6.483   1.998   1.107
 1609TIP3    H126386   6.562   1.953   1.079
 1609TIP3    H226387   6.472   2.069   1.043
 1610TIP3   OH226388   1.545   2.975   1.354
 1610TIP3    H126389   1.469   2.958   1.299
 1610TIP3    H226390   1.598   2.895   1.346
 1611TIP3   OH226391   4.039   4.753   7.983
 1611TIP3    H126392   4.118   4.745   7.930
 1611TIP3    H226393   3.978   4.801   7.927
 1612TIP3   OH226394   0.524   0.579   2.018
 1612TIP3    H126395   0.489   0.571   2.107
 1612TIP3    H226396   0.457   0.629   1.970
 1613TIP3   OH226397   4.914   6.685   0.129
 1613TIP3    H126398   5.008   6.701   0.126
 1613TIP3    H226399   4.881   6.719   0.046
 1614TIP3   OH226400   6.483   6.814   7.414
 1614TIP3    H126401   6.389   6.831   7.423
 1614TIP3    H226402   6.489   6.719   7.408
 1615TIP3   OH226403   1.177   0.350   2.012
 1615TIP3    H126404   1.270   0.331   2.020
 1615TIP3    H226405   1.162   0.424   2.071
 1616TIP3   OH226406   5.210   2.205   7.312
 1616TIP3    H126407   5.234   2.179   7.401
 1616TIP3    H226408   5.263   2.282   7.294
 1617TIP3   OH226409   2.972   5.353   7.210
 1617TIP3    H126410   2.897   5.294   7.217
 1617TIP3    H226411   2.969   5.384   7.120
 1618TIP3   OH226412   2.945   1.755   1.290
 1618TIP3    H126413   2.883   1.735   1.361
 1618TIP3    H226414   2.896   1.734   1.210
 1619TIP3   OH226415   5.786   5.297   6.519
 1619TIP3    H126416   5.757   5.347   6.443
 1619TIP3    H226417   5.857   5.349   6.557
 1620TIP3   OH226418   5.555   4.589   0.128
 1620TIP3    H126419   5.588   4.542   0.205
 1620TIP3    H226420   5.478   4.636   0.159
 1621TIP3   OH226421   0.581   4.273   1.181
 1621TIP3    H126422   0.659   4.262   1.235
 1621TIP3    H226423   0.508   4.252   1.240
 1622TIP3   OH226424   2.591   6.567   7.505
 1622TIP3    H126425   2.572   6.655   7.538
 1622TIP3    H226426   2.518   6.514   7.534
 1623TIP3   OH226427   2.011   1.712   8.467
 1623TIP3    H126428   1.968   1.762   8.398
 1623TIP3    H226429   1.955   1.635   8.480
 1624TIP3   OH226430   5.126   1.045   7.385
 1624TIP3    H126431   5.080   1.125   7.410
 1624TIP3    H226432   5.197   1.075   7.329
 1625TIP3   OH226433   5.936   5.544   2.121
 1625TIP3    H126434   5.965   5.453   2.126
 1625TIP3    H226435   6.016   5.595   2.106
 1626TIP3   OH226436   5.257   5.397   7.811
 1626TIP3    H126437   5.323   5.350   7.760
 1626TIP3    H226438   5.306   5.465   7.857
 1627TIP3   OH226439   3.576   1.401   7.647
 1627TIP3    H126440   3.532   1.486   7.648
 1627TIP3    H226441   3.582   1.377   7.555
 1628TIP3   OH226442   0.838   3.105   7.838
 1628TIP3    H126443   0.876   3.178   7.885
 1628TIP3    H226444   0.810   3.142   7.754
 1629TIP3   OH226445   0.115   6.815   0.963
 1629TIP3    H126446   0.027   6.786   0.938
 1629TIP3    H226447   0.151   6.853   0.883
 1630TIP3   OH226448   3.346   5.534   1.941
 1630TIP3    H126449   3.329   5.539   2.035
 1630TIP3    H226450   3.442   5.537   1.935
 1631TIP3   OH226451   6.757   2.792   8.473
 1631TIP3    H126452   6.757   2.758   8.563
 1631TIP3    H226453   6.666   2.815   8.457
 1632TIP3   OH226454   1.792   5.585   6.185
 1632TIP3    H126455   1.780   5.664   6.134
 1632TIP3    H226456   1.804   5.515   6.121
 1633TIP3   OH226457   2.707   4.486   8.042
 1633TIP3    H126458   2.739   4.565   8.086
 1633TIP3    H226459   2.696   4.513   7.950
 1634TIP3   OH226460   6.844   5.038   8.282
 1634TIP3    H126461   0.022   5.054   8.310
 1634TIP3    H226462   6.852   4.978   8.208
 1635TIP3   OH226463   3.170   4.145   7.480
 1635TIP3    H126464   3.210   4.232   7.483
 1635TIP3    H226465   3.243   4.086   7.458
 1636TIP3   OH226466   4.848   0.661   8.203
 1636TIP3    H126467   4.833   0.754   8.186
 1636TIP3    H226468   4.783   0.616   8.149
 1637TIP3   OH226469   1.460   5.243   7.783
 1637TIP3    H126470   1.550   5.258   7.751
 1637TIP3    H226471   1.459   5.150   7.807
 1638TIP3   OH226472   5.720   0.249   7.748
 1638TIP3    H126473   5.715   0.201   7.831
 1638TIP3    H226474   5.652   0.316   7.756
 1639TIP3   OH226475   0.175   6.532   6.822
 1639TIP3    H126476   0.124   6.524   6.742
 1639TIP3    H226477   0.209   6.444   6.838
 1640TIP3   OH226478   1.406   6.287   5.986
 1640TIP3    H126479   1.501   6.283   5.975
 1640TIP3    H226480   1.370   6.247   5.907
 1641TIP3   OH226481   5.894   5.055   0.367
 1641TIP3    H126482   5.850   5.102   0.296
 1641TIP3    H226483   5.849   5.084   0.447
 1642TIP3   OH226484   0.657   6.594   7.016
 1642TIP3    H126485   0.640   6.547   6.934
 1642TIP3    H226486   0.724   6.543   7.060
 1643TIP3   OH226487   1.758   3.786   6.641
 1643TIP3    H126488   1.751   3.699   6.681
 1643TIP3    H226489   1.698   3.783   6.566
 1644TIP3   OH226490   1.882   2.201   7.983
 1644TIP3    H126491   1.867   2.280   7.931
 1644TIP3    H226492   1.973   2.206   8.009
 1645TIP3   OH226493   0.660   6.747   7.603
 1645TIP3    H126494   0.736   6.729   7.549
 1645TIP3    H226495   0.673   6.694   7.681
 1646TIP3   OH226496   3.660   6.290   7.993
 1646TIP3    H126497   3.612   6.349   8.050
 1646TIP3    H226498   3.751   6.317   8.000
 1647TIP3   OH226499   6.227   3.996   0.538
 1647TIP3    H126500   6.294   3.939   0.576
 1647TIP3    H226501   6.238   4.079   0.583
 1648TIP3   OH226502   2.754   3.713   8.228
 1648TIP3    H126503   2.809   3.639   8.256
 1648TIP3    H226504   2.759   3.775   8.301
 1649TIP3   OH226505   2.774   4.617   0.649
 1649TIP3    H126506   2.789   4.704   0.612
 1649TIP3    H226507   2.688   4.591   0.615
 1650TIP3   OH226508   1.397   1.168   6.198
 1650TIP3    H126509   1.443   1.240   6.154
 1650TIP3    H226510   1.337   1.212   6.258
 1651TIP3   OH226511   2.530   4.172   0.586
 1651TIP3    H126512   2.505   4.110   0.655
 1651TIP3    H226513   2.474   4.149   0.512
 1652TIP3   OH226514   0.785   4.470   1.980
 1652TIP3    H126515   0.811   4.467   1.888
 1652TIP3    H226516   0.862   4.505   2.026
 1653TIP3   OH226517   3.964   3.198   7.193
 1653TIP3    H126518   4.037   3.227   7.138
 1653TIP3    H226519   4.006   3.162   7.271
 1654TIP3   OH226520   2.113   0.122   1.171
 1654TIP3    H126521   2.149   0.035   1.153
 1654TIP3    H226522   2.156   0.179   1.106
 1655TIP3   OH226523   3.165   4.678   0.960
 1655TIP3    H126524   3.181   4.745   0.893
 1655TIP3    H226525   3.133   4.603   0.911
 1656TIP3   OH226526   0.769   6.668   2.318
 1656TIP3    H126527   0.677   6.642   2.327
 1656TIP3    H226528   0.782   6.675   2.223
 1657TIP3   OH226529   5.584   2.292   1.684
 1657TIP3    H126530   5.509   2.344   1.653
 1657TIP3    H226531   5.650   2.302   1.616
 1658TIP3   OH226532   2.137   0.959   7.476
 1658TIP3    H126533   2.046   0.955   7.507
 1658TIP3    H226534   2.129   0.956   7.381
 1659TIP3   OH226535   4.382   2.344   2.498
 1659TIP3    H126536   4.418   2.412   2.441
 1659TIP3    H226537   4.419   2.364   2.585
 1660TIP3   OH226538   6.804   4.559   6.393
 1660TIP3    H126539   6.896   4.577   6.376
 1660TIP3    H226540   6.762   4.645   6.395
 1661TIP3   OH226541   2.353   1.005   0.621
 1661TIP3    H126542   2.331   0.988   0.712
 1661TIP3    H226543   2.286   0.957   0.572
 1662TIP3   OH226544   3.170   4.974   8.071
 1662TIP3    H126545   3.075   4.963   8.077
 1662TIP3    H226546   3.205   4.885   8.083
 1663TIP3   OH226547   4.286   1.225   1.888
 1663TIP3    H126548   4.246   1.309   1.910
 1663TIP3    H226549   4.296   1.181   1.973
 1664TIP3   OH226550   2.749   5.376   0.026
 1664TIP3    H126551   2.825   5.378   0.084
 1664TIP3    H226552   2.682   5.428   0.072
 1665TIP3   OH226553   4.953   0.246   1.629
 1665TIP3    H126554   4.916   0.325   1.591
 1665TIP3    H226555   4.927   0.175   1.571
 1666TIP3   OH226556   3.106   6.116   1.999
 1666TIP3    H126557   3.193   6.107   2.039
 1666TIP3    H226558   3.078   6.025   1.985
 1667TIP3   OH226559   5.128   6.436   1.930
 1667TIP3    H126560   5.072   6.512   1.945
 1667TIP3    H226561   5.068   6.361   1.928
 1668TIP3   OH226562   5.140   2.886   8.262
 1668TIP3    H126563   5.226   2.874   8.222
 1668TIP3    H226564   5.095   2.803   8.247
 1669TIP3   OH226565   3.380   6.205   1.521
 1669TIP3    H126566   3.406   6.113   1.524
 1669TIP3    H226567   3.314   6.213   1.589
 1670TIP3   OH226568   4.268   0.997   2.121
 1670TIP3    H126569   4.218   0.977   2.200
 1670TIP3    H226570   4.335   1.059   2.150
 1671TIP3   OH226571   0.180   6.303   0.573
 1671TIP3    H126572   0.171   6.255   0.655
 1671TIP3    H226573   0.220   6.386   0.598
 1672TIP3   OH226574   6.834   2.435   7.554
 1672TIP3    H126575   6.758   2.392   7.515
 1672TIP3    H226576   6.892   2.363   7.580
 1673TIP3   OH226577   3.457   1.645   7.673
 1673TIP3    H126578   3.438   1.698   7.596
 1673TIP3    H226579   3.371   1.626   7.711
 1674TIP3   OH226580   3.284   5.242   7.756
 1674TIP3    H126581   3.340   5.174   7.719
 1674TIP3    H226582   3.204   5.239   7.702
 1675TIP3   OH226583   0.262   0.884   8.472
 1675TIP3    H126584   0.249   0.972   8.435
 1675TIP3    H226585   0.283   0.830   8.397
 1676TIP3   OH226586   4.822   3.436   0.600
 1676TIP3    H126587   4.896   3.378   0.620
 1676TIP3    H226588   4.841   3.517   0.648
 1677TIP3   OH226589   1.796   5.332   7.293
 1677TIP3    H126590   1.768   5.387   7.220
 1677TIP3    H226591   1.785   5.242   7.262
 1678TIP3   OH226592   1.908   5.684   0.074
 1678TIP3    H126593   1.932   5.693   8.585
 1678TIP3    H226594   1.959   5.752   0.118
 1679TIP3   OH226595   4.064   0.714   8.366
 1679TIP3    H126596   4.091   0.646   8.304
 1679TIP3    H226597   3.969   0.720   8.355
 1680TIP3   OH226598   5.874   1.612   8.381
 1680TIP3    H126599   5.927   1.556   8.323
 1680TIP3    H226600   5.784   1.581   8.368
 1681TIP3   OH226601   2.717   5.476   7.683
 1681TIP3    H126602   2.719   5.397   7.629
 1681TIP3    H226603   2.759   5.450   7.765
 1682TIP3   OH226604   2.558   3.983   1.141
 1682TIP3    H126605   2.489   4.043   1.111
 1682TIP3    H226606   2.514   3.898   1.148
 1683TIP3   OH226607   3.873   2.846   8.547
 1683TIP3    H126608   3.807   2.812   0.004
 1683TIP3    H226609   3.828   2.856   8.464
 1684TIP3   OH226610   4.201   3.303   0.638
 1684TIP3    H126611   4.244   3.327   0.720
 1684TIP3    H226612   4.273   3.279   0.580
 1685TIP3   OH226613   3.539   1.500   0.623
 1685TIP3    H126614   3.570   1.570   0.680
 1685TIP3    H226615   3.521   1.427   0.683
 1686TIP3   OH226616   6.780   6.133   0.859
 1686TIP3    H126617   6.722   6.191   0.810
 1686TIP3    H226618   6.855   6.119   0.801
 1687TIP3   OH226619   1.374   6.267   1.625
 1687TIP3    H126620   1.283   6.294   1.618
 1687TIP3    H226621   1.378   6.217   1.707
 1688TIP3   OH226622   2.050   2.490   7.443
 1688TIP3    H126623   1.978   2.431   7.464
 1688TIP3    H226624   2.009   2.564   7.400
 1689TIP3   OH226625   4.977   1.293   0.632
 1689TIP3    H126626   4.925   1.322   0.706
 1689TIP3    H226627   4.922   1.311   0.555
 1690TIP3   OH226628   0.182   1.393   0.512
 1690TIP3    H126629   0.202   1.326   0.447
 1690TIP3    H226630   0.092   1.419   0.491
 1691TIP3   OH226631   3.893   0.161   8.016
 1691TIP3    H126632   3.879   0.203   8.101
 1691TIP3    H226633   3.840   0.212   7.955
 1692TIP3   OH226634   0.600   5.058   6.659
 1692TIP3    H126635   0.685   5.060   6.615
 1692TIP3    H226636   0.595   4.971   6.698
 1693TIP3   OH226637   4.888   6.400   1.422
 1693TIP3    H126638   4.842   6.484   1.415
 1693TIP3    H226639   4.909   6.390   1.515
 1694TIP3   OH226640   5.154   2.561   0.425
 1694TIP3    H126641   5.167   2.652   0.397
 1694TIP3    H226642   5.121   2.569   0.515
 1695TIP3   OH226643   6.577   2.490   7.181
 1695TIP3    H126644   6.572   2.558   7.248
 1695TIP3    H226645   6.621   2.417   7.225
 1696TIP3   OH226646   6.611   1.753   0.564
 1696TIP3    H126647   6.586   1.816   0.631
 1696TIP3    H226648   6.706   1.762   0.556
 1697TIP3   OH226649   3.256   3.129   1.767
 1697TIP3    H126650   3.195   3.085   1.826
 1697TIP3    H226651   3.205   3.144   1.687
 1698TIP3   OH226652   3.829   4.197   2.209
 1698TIP3    H126653   3.777   4.148   2.272
 1698TIP3    H226654   3.900   4.235   2.261
 1699TIP3   OH226655   4.901   2.359   8.091
 1699TIP3    H126656   4.862   2.278   8.059
 1699TIP3    H226657   4.980   2.370   8.037
 1700TIP3   OH226658   1.133   6.003   7.047
 1700TIP3    H126659   1.067   5.941   7.078
 1700TIP3    H226660   1.083   6.070   7.000
 1701TIP3   OH226661   5.200   4.476   7.317
 1701TIP3    H126662   5.208   4.387   7.351
 1701TIP3    H226663   5.181   4.464   7.224
 1702TIP3   OH226664   0.559   5.390   8.232
 1702TIP3    H126665   0.603   5.418   8.151
 1702TIP3    H226666   0.559   5.467   8.288
 1703TIP3   OH226667   4.005   2.875   1.761
 1703TIP3    H126668   3.912   2.890   1.747
 1703TIP3    H226669   4.030   2.811   1.694
 1704TIP3   OH226670   1.700   1.446   7.338
 1704TIP3    H126671   1.660   1.531   7.358
 1704TIP3    H226672   1.666   1.388   7.406
 1705TIP3   OH226673   3.859   1.981   6.948
 1705TIP3    H126674   3.874   1.993   7.042
 1705TIP3    H226675   3.909   2.051   6.906
 1706TIP3   OH226676   1.204   4.906   7.211
 1706TIP3    H126677   1.157   4.823   7.198
 1706TIP3    H226678   1.263   4.912   7.136
 1707TIP3   OH226679   4.323   2.159   7.869
 1707TIP3    H126680   4.238   2.180   7.909
 1707TIP3    H226681   4.353   2.082   7.916
 1708TIP3   OH226682   6.406   3.146   7.239
 1708TIP3    H126683   6.474   3.181   7.182
 1708TIP3    H226684   6.407   3.052   7.224
 1709TIP3   OH226685   4.222   5.713   8.231
 1709TIP3    H126686   4.147   5.679   8.281
 1709TIP3    H226687   4.299   5.681   8.279
 1710TIP3   OH226688   1.248   5.592   1.340
 1710TIP3    H126689   1.186   5.550   1.280
 1710TIP3    H226690   1.202   5.669   1.372
 1711TIP3   OH226691   3.162   2.827   8.306
 1711TIP3    H126692   3.186   2.748   8.354
 1711TIP3    H226693   3.238   2.846   8.251
 1712TIP3   OH226694   5.286   1.828   8.397
 1712TIP3    H126695   5.214   1.855   8.340
 1712TIP3    H226696   5.269   1.873   8.480
 1713TIP3   OH226697   3.490   3.666   2.140
 1713TIP3    H126698   3.447   3.751   2.144
 1713TIP3    H226699   3.424   3.607   2.104
 1714TIP3   OH226700   3.767   3.364   6.578
 1714TIP3    H126701   3.827   3.321   6.639
 1714TIP3    H226702   3.756   3.300   6.507
 1715TIP3   OH226703   5.007   3.601   0.822
 1715TIP3    H126704   4.913   3.595   0.809
 1715TIP3    H226705   5.023   3.693   0.845
 1716TIP3   OH226706   1.866   2.514   0.872
 1716TIP3    H126707   1.850   2.545   0.783
 1716TIP3    H226708   1.818   2.575   0.928
 1717TIP3   OH226709   4.126   2.226   1.218
 1717TIP3    H126710   4.211   2.268   1.203
 1717TIP3    H226711   4.147   2.144   1.262
 1718TIP3   OH226712   0.889   6.060   1.240
 1718TIP3    H126713   0.883   5.969   1.211
 1718TIP3    H226714   0.903   6.054   1.335
 1719TIP3   OH226715   6.273   4.381   8.219
 1719TIP3    H126716   6.297   4.304   8.271
 1719TIP3    H226717   6.272   4.350   8.129
 1720TIP3   OH226718   5.923   1.524   0.342
 1720TIP3    H126719   5.838   1.534   0.300
 1720TIP3    H226720   5.983   1.575   0.286
 1721TIP3   OH226721   1.329   1.742   7.244
 1721TIP3    H126722   1.281   1.669   7.282
 1721TIP3    H226723   1.337   1.721   7.152
 1722TIP3   OH226724   5.041   0.714   2.125
 1722TIP3    H126725   5.013   0.625   2.104
 1722TIP3    H226726   5.027   0.763   2.044
 1723TIP3   OH226727   3.404   3.056   0.294
 1723TIP3    H126728   3.381   3.142   0.259
 1723TIP3    H226729   3.497   3.063   0.316
 1724TIP3   OH226730   5.052   3.758   0.432
 1724TIP3    H126731   5.137   3.790   0.462
 1724TIP3    H226732   5.073   3.690   0.368
 1725TIP3   OH226733   3.943   5.864   0.141
 1725TIP3    H126734   3.918   5.867   0.233
 1725TIP3    H226735   3.922   5.951   0.107
 1726TIP3   OH226736   3.458   5.165   6.704
 1726TIP3    H126737   3.400   5.235   6.733
 1726TIP3    H226738   3.490   5.125   6.785
 1727TIP3   OH226739   0.777   2.919   0.682
 1727TIP3    H126740   0.695   2.968   0.673
 1727TIP3    H226741   0.750   2.827   0.688
 1728TIP3   OH226742   2.620   0.730   0.659
 1728TIP3    H126743   2.650   0.721   0.750
 1728TIP3    H226744   2.525   0.723   0.664
 1729TIP3   OH226745   0.119   1.792   6.427
 1729TIP3    H126746   0.072   1.874   6.412
 1729TIP3    H226747   0.056   1.724   6.403
 1730TIP3   OH226748   6.174   5.107   7.709
 1730TIP3    H126749   6.214   5.118   7.796
 1730TIP3    H226750   6.248   5.103   7.649
 1731TIP3   OH226751   6.387   4.097   8.279
 1731TIP3    H126752   6.372   4.032   8.348
 1731TIP3    H226753   6.474   4.132   8.297
 1732TIP3   OH226754   2.827   2.534   0.899
 1732TIP3    H126755   2.798   2.612   0.852
 1732TIP3    H226756   2.750   2.505   0.948
 1733TIP3   OH226757   6.795   2.242   6.688
 1733TIP3    H126758   6.877   2.274   6.651
 1733TIP3    H226759   6.740   2.222   6.612
 1734TIP3   OH226760   4.675   3.649   7.486
 1734TIP3    H126761   4.765   3.616   7.492
 1734TIP3    H226762   4.623   3.573   7.463
 1735TIP3   OH226763   5.557   2.837   0.530
 1735TIP3    H126764   5.539   2.808   0.440
 1735TIP3    H226765   5.480   2.810   0.580
 1736TIP3   OH226766   4.695   2.534   7.837
 1736TIP3    H126767   4.750   2.526   7.758
 1736TIP3    H226768   4.688   2.445   7.870
 1737TIP3   OH226769   2.902   2.040   1.072
 1737TIP3    H126770   2.815   2.004   1.088
 1737TIP3    H226771   2.899   2.067   0.980
 1738TIP3   OH226772   3.957   6.567   8.511
 1738TIP3    H126773   3.901   6.560   8.434
 1738TIP3    H226774   4.023   6.632   8.487
 1739TIP3   OH226775   4.486   0.629   0.800
 1739TIP3    H126776   4.447   0.598   0.719
 1739TIP3    H226777   4.418   0.617   0.866
 1740TIP3   OH226778   3.271   6.382   7.576
 1740TIP3    H126779   3.208   6.340   7.635
 1740TIP3    H226780   3.289   6.467   7.616
 1741TIP3   OH226781   1.872   3.612   2.017
 1741TIP3    H126782   1.891   3.539   2.075
 1741TIP3    H226783   1.956   3.654   2.001
 1742TIP3   OH226784   6.200   5.605   2.052
 1742TIP3    H126785   6.267   5.541   2.076
 1742TIP3    H226786   6.213   5.618   1.958
 1743TIP3   OH226787   2.211   3.846   0.058
 1743TIP3    H126788   2.222   3.795   0.139
 1743TIP3    H226789   2.118   3.871   0.058
 1744TIP3   OH226790   6.608   4.761   8.499
 1744TIP3    H126791   6.604   4.857   8.495
 1744TIP3    H226792   6.521   4.733   8.472
 1745TIP3   OH226793   6.734   3.050   2.280
 1745TIP3    H126794   6.811   3.106   2.273
 1745TIP3    H226795   6.770   2.961   2.282
 1746TIP3   OH226796   1.181   4.545   1.116
 1746TIP3    H126797   1.196   4.453   1.135
 1746TIP3    H226798   1.268   4.581   1.101
 1747TIP3   OH226799   4.930   0.191   2.282
 1747TIP3    H126800   4.869   0.154   2.345
 1747TIP3    H226801   4.921   0.286   2.292
 1748TIP3   OH226802   6.601   6.431   6.537
 1748TIP3    H126803   6.576   6.485   6.462
 1748TIP3    H226804   6.663   6.367   6.502
 1749TIP3   OH226805   5.254   2.740   0.953
 1749TIP3    H126806   5.193   2.796   1.001
 1749TIP3    H226807   5.214   2.653   0.953
 1750TIP3   OH226808   5.746   5.225   7.667
 1750TIP3    H126809   5.688   5.222   7.743
 1750TIP3    H226810   5.687   5.240   7.593
 1751TIP3   OH226811   1.359   5.450   6.830
 1751TIP3    H126812   1.279   5.422   6.875
 1751TIP3    H226813   1.406   5.368   6.811
 1752TIP3   OH226814   3.426   6.450   7.109
 1752TIP3    H126815   3.490   6.485   7.048
 1752TIP3    H226816   3.477   6.418   7.183
 1753TIP3   OH226817   3.621   5.495   1.905
 1753TIP3    H126818   3.690   5.553   1.937
 1753TIP3    H226819   3.627   5.500   1.810
 1754TIP3   OH226820   0.266   5.775   1.076
 1754TIP3    H126821   0.356   5.764   1.106
 1754TIP3    H226822   0.221   5.818   1.149
 1755TIP3   OH226823   5.235   5.540   6.411
 1755TIP3    H126824   5.143   5.529   6.436
 1755TIP3    H226825   5.244   5.634   6.393
 1756TIP3   OH226826   6.570   0.936   7.016
 1756TIP3    H126827   6.494   0.921   6.959
 1756TIP3    H226828   6.593   0.849   7.049
 1757TIP3   OH226829   3.688   5.776   6.853
 1757TIP3    H126830   3.693   5.838   6.925
 1757TIP3    H226831   3.761   5.716   6.867
 1758TIP3   OH226832   5.686   5.483   0.240
 1758TIP3    H126833   5.595   5.455   0.249
 1758TIP3    H226834   5.708   5.521   0.326
 1759TIP3   OH226835   3.245   5.603   0.722
 1759TIP3    H126836   3.332   5.642   0.720
 1759TIP3    H226837   3.259   5.517   0.763
 1760TIP3   OH226838   4.360   1.363   6.866
 1760TIP3    H126839   4.356   1.273   6.898
 1760TIP3    H226840   4.355   1.354   6.770
 1761TIP3   OH226841   0.014   5.263   8.583
 1761TIP3    H126842   6.833   5.286   8.588
 1761TIP3    H226843   0.058   5.347   8.572
 1762TIP3   OH226844   3.690   5.345   0.231
 1762TIP3    H126845   3.781   5.366   0.256
 1762TIP3    H226846   3.699   5.280   0.161
 1763TIP3   OH226847   5.439   3.331   0.640
 1763TIP3    H126848   5.375   3.402   0.646
 1763TIP3    H226849   5.524   3.374   0.635
 1764TIP3   OH226850   0.400   1.469   1.985
 1764TIP3    H126851   0.484   1.432   1.957
 1764TIP3    H226852   0.374   1.526   1.914
 1765TIP3   OH226853   3.838   0.993   0.304
 1765TIP3    H126854   3.876   1.053   0.240
 1765TIP3    H226855   3.911   0.935   0.327
 1766TIP3   OH226856   1.684   4.557   6.489
 1766TIP3    H126857   1.767   4.595   6.519
 1766TIP3    H226858   1.631   4.633   6.464
 1767TIP3   OH226859   5.066   4.388   7.094
 1767TIP3    H126860   5.019   4.359   7.016
 1767TIP3    H226861   5.006   4.449   7.137
 1768TIP3   OH226862   6.419   0.194   7.319
 1768TIP3    H126863   6.416   0.183   7.224
 1768TIP3    H226864   6.453   0.111   7.352
 1769TIP3   OH226865   2.089   6.506   6.449
 1769TIP3    H126866   2.172   6.538   6.413
 1769TIP3    H226867   2.041   6.474   6.373
 1770TIP3   OH226868   4.173   3.576   7.695
 1770TIP3    H126869   4.235   3.639   7.658
 1770TIP3    H226870   4.092   3.626   7.707
 1771TIP3   OH226871   6.229   1.339   7.720
 1771TIP3    H126872   6.292   1.313   7.653
 1771TIP3    H226873   6.143   1.322   7.682
 1772TIP3   OH226874   3.059   1.305   8.412
 1772TIP3    H126875   3.149   1.329   8.391
 1772TIP3    H226876   3.058   1.299   8.508
 1773TIP3   OH226877   6.071   4.279   8.563
 1773TIP3    H126878   6.046   4.304   8.474
 1773TIP3    H226879   6.151   4.228   8.551
 1774TIP3   OH226880   0.126   1.890   7.961
 1774TIP3    H126881   0.190   1.956   7.988
 1774TIP3    H226882   0.051   1.940   7.931
 1775TIP3   OH226883   6.659   1.177   1.154
 1775TIP3    H126884   6.698   1.250   1.104
 1775TIP3    H226885   6.565   1.186   1.141
 1776TIP3   OH226886   4.766   2.551   0.521
 1776TIP3    H126887   4.784   2.609   0.447
 1776TIP3    H226888   4.671   2.552   0.530
 1777TIP3   OH226889   1.580   6.203   1.460
 1777TIP3    H126890   1.543   6.259   1.391
 1777TIP3    H226891   1.532   6.229   1.539
 1778TIP3   OH226892   2.281   0.027   8.162
 1778TIP3    H126893   2.245   0.113   8.181
 1778TIP3    H226894   2.339   0.008   8.236
 1779TIP3   OH226895   2.071   4.785   6.844
 1779TIP3    H126896   2.031   4.805   6.760
 1779TIP3    H226897   2.129   4.860   6.861
 1780TIP3   OH226898   1.644   6.380   8.573
 1780TIP3    H126899   1.602   6.294   8.572
 1780TIP3    H226900   1.734   6.363   8.544
 1781TIP3   OH226901   2.670   2.492   7.503
 1781TIP3    H126902   2.733   2.420   7.514
 1781TIP3    H226903   2.725   2.568   7.483
 1782TIP3   OH226904   5.932   2.727   7.201
 1782TIP3    H126905   6.018   2.740   7.161
 1782TIP3    H226906   5.931   2.788   7.275
 1783TIP3   OH226907   6.035   0.324   7.983
 1783TIP3    H126908   5.956   0.364   8.019
 1783TIP3    H226909   6.084   0.397   7.946
 1784TIP3   OH226910   4.914   5.304   6.606
 1784TIP3    H126911   4.918   5.364   6.531
 1784TIP3    H226912   4.958   5.225   6.575
 1785TIP3   OH226913   5.599   5.460   8.530
 1785TIP3    H126914   5.572   5.390   8.590
 1785TIP3    H226915   5.615   5.535   8.587
 1786TIP3   OH226916   2.331   3.405   8.508
 1786TIP3    H126917   2.370   3.328   8.467
 1786TIP3    H226918   2.275   3.370   8.577
 1787TIP3   OH226919   5.295   0.513   5.780
 1787TIP3    H126920   5.246   0.455   5.838
 1787TIP3    H226921   5.230   0.546   5.718
 1788TIP3   OH226922   5.919   2.766   7.734
 1788TIP3    H126923   5.876   2.721   7.807
 1788TIP3    H226924   5.964   2.840   7.774
 1789TIP3   OH226925   3.460   0.671   7.966
 1789TIP3    H126926   3.422   0.619   8.037
 1789TIP3    H226927   3.397   0.664   7.894
 1790TIP3   OH226928   2.978   4.530   0.438
 1790TIP3    H126929   2.975   4.436   0.423
 1790TIP3    H226930   2.911   4.545   0.505
 1791TIP3   OH226931   3.197   2.540   0.958
 1791TIP3    H126932   3.211   2.521   0.865
 1791TIP3    H226933   3.156   2.627   0.958
 1792TIP3   OH226934   3.014   4.379   6.996
 1792TIP3    H126935   3.028   4.308   7.060
 1792TIP3    H226936   3.088   4.372   6.936
 1793TIP3   OH226937   5.897   2.347   0.559
 1793TIP3    H126938   5.956   2.419   0.538
 1793TIP3    H226939   5.912   2.329   0.651
 1794TIP3   OH226940   5.317   5.322   1.402
 1794TIP3    H126941   5.285   5.329   1.492
 1794TIP3    H226942   5.337   5.229   1.390
 1795TIP3   OH226943   6.827   1.482   0.494
 1795TIP3    H126944   6.838   1.557   0.552
 1795TIP3    H226945   6.779   1.516   0.418
 1796TIP3   OH226946   3.023   1.291   1.394
 1796TIP3    H126947   3.019   1.348   1.471
 1796TIP3    H226948   3.100   1.237   1.408
 1797TIP3   OH226949   3.896   0.884   2.642
 1797TIP3    H126950   3.842   0.904   2.566
 1797TIP3    H226951   3.948   0.808   2.615
 1798TIP3   OH226952   4.705   6.051   0.961
 1798TIP3    H126953   4.747   6.097   1.034
 1798TIP3    H226954   4.638   5.997   1.001
 1799TIP3   OH226955   0.450   5.958   7.545
 1799TIP3    H126956   0.360   5.989   7.543
 1799TIP3    H226957   0.457   5.899   7.470
 1800TIP3   OH226958   0.580   6.137   8.472
 1800TIP3    H126959   0.621   6.056   8.442
 1800TIP3    H226960   0.623   6.156   8.555
 1801TIP3   OH226961   2.563   4.599   6.501
 1801TIP3    H126962   2.585   4.510   6.475
 1801TIP3    H226963   2.647   4.645   6.503
 1802TIP3   OH226964   0.309   4.223   0.121
 1802TIP3    H126965   0.235   4.284   0.115
 1802TIP3    H226966   0.381   4.269   0.078
 1803TIP3   OH226967   0.530   0.575   8.015
 1803TIP3    H126968   0.525   0.530   8.100
 1803TIP3    H226969   0.488   0.514   7.954
 1804TIP3   OH226970   1.930   2.892   1.549
 1804TIP3    H126971   1.951   2.931   1.634
 1804TIP3    H226972   1.897   2.964   1.496
 1805TIP3   OH226973   1.088   5.965   0.594
 1805TIP3    H126974   1.075   5.914   0.515
 1805TIP3    H226975   1.061   5.907   0.666
 1806TIP3   OH226976   3.720   1.556   1.850
 1806TIP3    H126977   3.725   1.598   1.764
 1806TIP3    H226978   3.686   1.624   1.908
 1807TIP3   OH226979   1.536   6.667   7.392
 1807TIP3    H126980   1.598   6.692   7.323
 1807TIP3    H226981   1.469   6.735   7.390
 1808TIP3   OH226982   3.116   4.705   7.239
 1808TIP3    H126983   3.131   4.630   7.297
 1808TIP3    H226984   3.058   4.672   7.170
 1809TIP3   OH226985   2.713   4.998   2.039
 1809TIP3    H126986   2.629   4.952   2.046
 1809TIP3    H226987   2.712   5.061   2.111
 1810TIP3   OH226988   3.184   3.220   0.117
 1810TIP3    H126989   3.131   3.276   0.060
 1810TIP3    H226990   3.266   3.268   0.130
 1811TIP3   OH226991   1.945   5.179   2.033
 1811TIP3    H126992   1.971   5.221   1.951
 1811TIP3    H226993   2.004   5.216   2.099
 1812TIP3   OH226994   0.011   3.010   6.242
 1812TIP3    H126995   6.907   3.105   6.249
 1812TIP3    H226996   0.106   3.003   6.236
 1813TIP3   OH226997   0.897   0.174   1.550
 1813TIP3    H126998   0.921   0.241   1.615
 1813TIP3    H226999   0.840   0.220   1.489
 1814TIP3   OH227000   0.867   5.368   0.612
 1814TIP3    H127001   0.800   5.429   0.580
 1814TIP3    H227002   0.818   5.291   0.641
 1815TIP3   OH227003   5.116   2.655   6.979
 1815TIP3    H127004   5.200   2.696   6.960
 1815TIP3    H227005   5.072   2.716   7.038
 1816TIP3   OH227006   3.352   1.550   8.311
 1816TIP3    H127007   3.432   1.594   8.281
 1816TIP3    H227008   3.355   1.558   8.406
 1817TIP3   OH227009   5.853   1.270   8.400
 1817TIP3    H127010   5.775   1.214   8.394
 1817TIP3    H227011   5.827   1.339   8.461
 1818TIP3   OH227012   3.594   1.240   2.082
 1818TIP3    H127013   3.661   1.269   2.020
 1818TIP3    H227014   3.637   1.170   2.132
 1819TIP3   OH227015   2.017   3.742   6.575
 1819TIP3    H127016   1.939   3.774   6.620
 1819TIP3    H227017   1.994   3.653   6.547
 1820TIP3   OH227018   4.428   6.154   5.860
 1820TIP3    H127019   4.369   6.139   5.934
 1820TIP3    H227020   4.449   6.247   5.864
 1821TIP3   OH227021   0.315   4.076   6.683
 1821TIP3    H127022   0.355   4.057   6.598
 1821TIP3    H227023   0.389   4.079   6.744
 1822TIP3   OH227024   3.437   0.679   8.583
 1822TIP3    H127025   3.430   0.718   8.496
 1822TIP3    H227026   3.348   0.656   0.003
 1823TIP3   OH227027   5.911   5.606   0.711
 1823TIP3    H127028   5.854   5.599   0.788
 1823TIP3    H227029   5.997   5.627   0.746
 1824TIP3   OH227030   6.894   3.057   0.504
 1824TIP3    H127031   0.058   3.108   0.476
 1824TIP3    H227032   6.892   3.068   0.599
 1825TIP3   OH227033   4.910   3.482   6.982
 1825TIP3    H127034   4.864   3.549   6.931
 1825TIP3    H227035   4.979   3.451   6.924
 1826TIP3   OH227036   2.209   5.011   0.273
 1826TIP3    H127037   2.227   4.924   0.237
 1826TIP3    H227038   2.149   4.995   0.346
 1827TIP3   OH227039   1.724   3.223   6.469
 1827TIP3    H127040   1.795   3.170   6.431
 1827TIP3    H227041   1.765   3.267   6.544
 1828TIP3   OH227042   2.022   0.709   6.449
 1828TIP3    H127043   2.009   0.770   6.377
 1828TIP3    H227044   2.046   0.627   6.407
 1829TIP3   OH227045   5.016   3.407   1.296
 1829TIP3    H127046   5.095   3.415   1.348
 1829TIP3    H227047   5.032   3.332   1.238
 1830TIP3   OH227048   3.004   4.044   7.804
 1830TIP3    H127049   2.962   4.116   7.851
 1830TIP3    H227050   3.098   4.064   7.808
 1831TIP3   OH227051   5.268   4.422   8.578
 1831TIP3    H127052   5.331   4.356   0.003
 1831TIP3    H227053   5.204   4.373   8.526
 1832TIP3   OH227054   3.694   6.556   7.592
 1832TIP3    H127055   3.787   6.555   7.573
 1832TIP3    H227056   3.678   6.474   7.638
 1833TIP3   OH227057   2.896   1.505   1.573
 1833TIP3    H127058   2.858   1.587   1.542
 1833TIP3    H227059   2.823   1.444   1.575
 1834TIP3   OH227060   6.380   6.263   8.254
 1834TIP3    H127061   6.400   6.186   8.201
 1834TIP3    H227062   6.456   6.320   8.242
 1835TIP3   OH227063   4.831   4.582   1.998
 1835TIP3    H127064   4.895   4.566   2.067
 1835TIP3    H227065   4.796   4.495   1.977
 1836TIP3   OH227066   5.105   2.675   6.118
 1836TIP3    H127067   5.162   2.621   6.173
 1836TIP3    H227068   5.024   2.684   6.169
 1837TIP3   OH227069   3.900   6.323   1.516
 1837TIP3    H127070   3.909   6.298   1.424
 1837TIP3    H227071   3.807   6.317   1.533
 1838TIP3   OH227072   1.434   2.834   6.430
 1838TIP3    H127073   1.351   2.879   6.448
 1838TIP3    H227074   1.500   2.902   6.434
 1839TIP3   OH227075   2.219   5.895   1.993
 1839TIP3    H127076   2.183   5.903   1.905
 1839TIP3    H227077   2.161   5.947   2.048
 1840TIP3   OH227078   2.893   1.769   0.315
 1840TIP3    H127079   2.800   1.758   0.338
 1840TIP3    H227080   2.932   1.684   0.335
 1841TIP3   OH227081   2.860   0.561   8.537
 1841TIP3    H127082   2.829   0.581   0.022
 1841TIP3    H227083   2.850   0.644   8.489
 1842TIP3   OH227084   4.714   5.927   7.446
 1842TIP3    H127085   4.744   6.014   7.421
 1842TIP3    H227086   4.714   5.877   7.365
 1843TIP3   OH227087   2.772   2.452   1.282
 1843TIP3    H127088   2.725   2.518   1.332
 1843TIP3    H227089   2.817   2.502   1.213
 1844TIP3   OH227090   4.638   2.365   8.251
 1844TIP3    H127091   4.714   2.377   8.194
 1844TIP3    H227092   4.567   2.338   8.191
 1845TIP3   OH227093   1.284   2.911   0.320
 1845TIP3    H127094   1.263   2.820   0.301
 1845TIP3    H227095   1.200   2.955   0.323
 1846TIP3   OH227096   5.271   0.316   1.105
 1846TIP3    H127097   5.213   0.364   1.046
 1846TIP3    H227098   5.213   0.259   1.156
 1847TIP3   OH227099   0.561   1.746   0.408
 1847TIP3    H127100   0.644   1.730   0.452
 1847TIP3    H227101   0.585   1.796   0.329
 1848TIP3   OH227102   0.687   2.539   8.102
 1848TIP3    H127103   0.612   2.493   8.140
 1848TIP3    H227104   0.658   2.630   8.094
 1849TIP3   OH227105   2.315   3.831   7.076
 1849TIP3    H127106   2.376   3.897   7.043
 1849TIP3    H227107   2.316   3.843   7.171
 1850TIP3   OH227108   5.801   0.266   1.805
 1850TIP3    H127109   5.711   0.235   1.817
 1850TIP3    H227110   5.828   0.294   1.893
 1851TIP3   OH227111   4.968   3.253   7.684
 1851TIP3    H127112   4.892   3.238   7.627
 1851TIP3    H227113   5.006   3.335   7.653
 1852TIP3   OH227114   3.458   3.737   7.760
 1852TIP3    H127115   3.496   3.789   7.831
 1852TIP3    H227116   3.377   3.702   7.797
 1853TIP3   OH227117   1.611   0.066   2.130
 1853TIP3    H127118   1.594   6.904   2.072
 1853TIP3    H227119   1.614   0.028   2.218
 1854TIP3   OH227120   1.428   1.732   6.989
 1854TIP3    H127121   1.505   1.684   7.021
 1854TIP3    H227122   1.446   1.746   6.896
 1855TIP3   OH227123   4.981   0.023   7.365
 1855TIP3    H127124   5.042   0.093   7.344
 1855TIP3    H227125   4.918   0.023   7.292
 1856TIP3   OH227126   1.801   0.242   1.276
 1856TIP3    H127127   1.784   0.184   1.350
 1856TIP3    H227128   1.715   0.265   1.243
 1857TIP3   OH227129   1.992   3.584   7.023
 1857TIP3    H127130   1.926   3.544   6.967
 1857TIP3    H227131   2.037   3.646   6.967
 1858TIP3   OH227132   0.377   6.104   7.973
 1858TIP3    H127133   0.319   6.035   7.941
 1858TIP3    H227134   0.382   6.088   8.068
 1859TIP3   OH227135   2.861   6.407   6.927
 1859TIP3    H127136   2.828   6.390   6.839
 1859TIP3    H227137   2.952   6.376   6.925
 1860TIP3   OH227138   5.632   2.285   8.074
 1860TIP3    H127139   5.709   2.228   8.080
 1860TIP3    H227140   5.567   2.243   8.129
 1861TIP3   OH227141   0.734   0.723   0.354
 1861TIP3    H127142   0.692   0.641   0.327
 1861TIP3    H227143   0.799   0.740   0.286
 1862TIP3   OH227144   5.713   0.418   1.475
 1862TIP3    H127145   5.674   0.417   1.387
 1862TIP3    H227146   5.746   0.329   1.487
 1863TIP3   OH227147   1.869   4.250   7.806
 1863TIP3    H127148   1.890   4.264   7.898
 1863TIP3    H227149   1.870   4.337   7.767
 1864TIP3   OH227150   6.677   4.070   7.418
 1864TIP3    H127151   6.767   4.051   7.391
 1864TIP3    H227152   6.672   4.165   7.419
 1865TIP3   OH227153   1.703   1.375   1.847
 1865TIP3    H127154   1.727   1.435   1.918
 1865TIP3    H227155   1.664   1.300   1.891
 1866TIP3   OH227156   0.327   6.798   8.061
 1866TIP3    H127157   0.354   6.807   7.970
 1866TIP3    H227158   0.408   6.782   8.109
 1867TIP3   OH227159   3.399   5.748   6.422
 1867TIP3    H127160   3.342   5.672   6.407
 1867TIP3    H227161   3.338   5.820   6.439
 1868TIP3   OH227162   2.724   6.033   7.377
 1868TIP3    H127163   2.757   6.119   7.402
 1868TIP3    H227164   2.803   5.978   7.370
 1869TIP3   OH227165   5.253   2.387   7.058
 1869TIP3    H127166   5.222   2.477   7.054
 1869TIP3    H227167   5.336   2.388   7.010
 1870TIP3   OH227168   3.295   0.306   1.698
 1870TIP3    H127169   3.366   0.351   1.744
 1870TIP3    H227170   3.293   0.348   1.612
 1871TIP3   OH227171   4.885   3.714   8.416
 1871TIP3    H127172   4.960   3.674   8.372
 1871TIP3    H227173   4.880   3.802   8.380
 1872TIP3   OH227174   3.672   1.940   7.536
 1872TIP3    H127175   3.746   1.879   7.536
 1872TIP3    H227176   3.712   2.026   7.541
 1873TIP3   OH227177   2.031   0.708   6.068
 1873TIP3    H127178   1.987   0.754   5.996
 1873TIP3    H227179   2.045   0.775   6.134
 1874TIP3   OH227180   6.043   1.116   0.147
 1874TIP3    H127181   6.053   1.178   0.219
 1874TIP3    H227182   6.118   1.058   0.154
 1875TIP3   OH227183   6.006   4.374   2.191
 1875TIP3    H127184   5.989   4.458   2.149
 1875TIP3    H227185   6.065   4.395   2.264
 1876TIP3   OH227186   3.533   5.845   1.209
 1876TIP3    H127187   3.441   5.844   1.181
 1876TIP3    H227188   3.583   5.837   1.127
 1877TIP3   OH227189   1.665   3.789   8.172
 1877TIP3    H127190   1.635   3.871   8.132
 1877TIP3    H227191   1.752   3.775   8.135
 1878TIP3   OH227192   1.324   3.532   8.401
 1878TIP3    H127193   1.267   3.561   8.330
 1878TIP3    H227194   1.401   3.589   8.394
 1879TIP3   OH227195   4.733   3.716   0.036
 1879TIP3    H127196   4.786   3.772   0.094
 1879TIP3    H227197   4.781   3.716   8.556
 1880TIP3   OH227198   6.887   0.111   0.543
 1880TIP3    H127199   6.803   0.153   0.562
 1880TIP3    H227200   0.031   0.134   0.617
 1881TIP3   OH227201   3.304   3.763   0.173
 1881TIP3    H127202   3.371   3.785   0.238
 1881TIP3    H227203   3.245   3.703   0.219
 1882TIP3   OH227204   3.538   5.010   0.281
 1882TIP3    H127205   3.487   5.063   0.220
 1882TIP3    H227206   3.610   4.974   0.228
 1883TIP3   OH227207   4.835   2.371   1.349
 1883TIP3    H127208   4.845   2.276   1.341
 1883TIP3    H227209   4.924   2.403   1.363
 1884TIP3   OH227210   1.387   3.211   1.038
 1884TIP3    H127211   1.472   3.198   0.996
 1884TIP3    H227212   1.330   3.242   0.968
 1885TIP3   OH227213   1.908   5.230   1.351
 1885TIP3    H127214   1.987   5.241   1.404
 1885TIP3    H227215   1.836   5.236   1.414
 1886TIP3   OH227216   0.892   6.578   1.164
 1886TIP3    H127217   0.966   6.526   1.132
 1886TIP3    H227218   0.884   6.554   1.257
 1887TIP3   OH227219   4.213   4.987   6.767
 1887TIP3    H127220   4.278   4.917   6.762
 1887TIP3    H227221   4.227   5.038   6.688
 1888TIP3   OH227222   5.206   4.087   0.639
 1888TIP3    H127223   5.260   4.129   0.706
 1888TIP3    H227224   5.140   4.039   0.689
 1889TIP3   OH227225   4.400   5.105   1.543
 1889TIP3    H127226   4.408   5.088   1.449
 1889TIP3    H227227   4.307   5.126   1.556
 1890TIP3   OH227228   5.078   2.242   8.524
 1890TIP3    H127229   5.156   2.241   8.468
 1890TIP3    H227230   5.111   2.220   0.008
 1891TIP3   OH227231   0.770   6.137   6.305
 1891TIP3    H127232   0.757   6.224   6.343
 1891TIP3    H227233   0.764   6.077   6.380
 1892TIP3   OH227234   4.702   0.143   7.328
 1892TIP3    H127235   4.759   0.219   7.317
 1892TIP3    H227236   4.720   0.088   7.252
 1893TIP3   OH227237   0.682   6.028   0.994
 1893TIP3    H127238   0.702   6.118   0.967
 1893TIP3    H227239   0.767   5.986   1.003
 1894TIP3   OH227240   5.645   0.096   7.994
 1894TIP3    H127241   5.689   0.133   8.071
 1894TIP3    H227242   5.694   0.016   7.975
 1895TIP3   OH227243   3.104   1.942   1.385
 1895TIP3    H127244   3.067   1.854   1.375
 1895TIP3    H227245   3.040   1.999   1.342
 1896TIP3   OH227246   6.613   3.338   0.482
 1896TIP3    H127247   6.547   3.407   0.490
 1896TIP3    H227248   6.694   3.384   0.459
 1897TIP3   OH227249   3.066   4.297   8.479
 1897TIP3    H127250   3.043   4.218   8.528
 1897TIP3    H227251   2.982   4.343   8.468
 1898TIP3   OH227252   6.287   0.392   0.061
 1898TIP3    H127253   6.244   0.478   0.053
 1898TIP3    H227254   6.300   0.381   0.155
 1899TIP3   OH227255   5.096   1.779   1.863
 1899TIP3    H127256   5.084   1.849   1.800
 1899TIP3    H227257   5.141   1.710   1.815
 1900TIP3   OH227258   4.840   2.169   2.035
 1900TIP3    H127259   4.889   2.249   2.017
 1900TIP3    H227260   4.765   2.198   2.087
 1901TIP3   OH227261   3.888   5.623   7.826
 1901TIP3    H127262   3.832   5.576   7.887
 1901TIP3    H227263   3.890   5.567   7.748
 1902TIP3   OH227264   3.157   1.847   2.049
 1902TIP3    H127265   3.115   1.876   2.130
 1902TIP3    H227266   3.210   1.922   2.022
 1903TIP3   OH227267   4.385   5.602   7.065
 1903TIP3    H127268   4.392   5.507   7.059
 1903TIP3    H227269   4.361   5.630   6.976
 1904TIP3   OH227270   4.086   6.788   0.447
 1904TIP3    H127271   4.060   6.809   0.536
 1904TIP3    H227272   4.180   6.806   0.444
 1905TIP3   OH227273   5.619   1.219   2.135
 1905TIP3    H127274   5.625   1.303   2.181
 1905TIP3    H227275   5.685   1.225   2.066
 1906TIP3   OH227276   6.063   5.084   6.205
 1906TIP3    H127277   6.056   5.047   6.293
 1906TIP3    H227278   6.132   5.032   6.163
 1907TIP3   OH227279   6.786   0.216   7.057
 1907TIP3    H127280   6.779   0.312   7.060
 1907TIP3    H227281   6.825   0.193   7.141
 1908TIP3   OH227282   1.559   4.780   6.414
 1908TIP3    H127283   1.642   4.812   6.380
 1908TIP3    H227284   1.534   4.844   6.481
 1909TIP3   OH227285   0.750   1.293   7.548
 1909TIP3    H127286   0.734   1.201   7.530
 1909TIP3    H227287   0.667   1.326   7.582
 1910TIP3   OH227288   1.796   2.346   7.617
 1910TIP3    H127289   1.738   2.364   7.542
 1910TIP3    H227290   1.750   2.385   7.692
 1911TIP3   OH227291   0.605   5.157   7.023
 1911TIP3    H127292   0.555   5.202   6.954
 1911TIP3    H227293   0.538   5.114   7.076
 1912TIP3   OH227294   5.428   5.722   7.850
 1912TIP3    H127295   5.419   5.816   7.832
 1912TIP3    H227296   5.486   5.690   7.780
 1913TIP3   OH227297   3.848   3.591   1.836
 1913TIP3    H127298   3.826   3.567   1.746
 1913TIP3    H227299   3.853   3.507   1.883
 1914TIP3   OH227300   0.660   2.858   7.695
 1914TIP3    H127301   0.755   2.849   7.705
 1914TIP3    H227302   0.636   2.789   7.633
 1915TIP3   OH227303   5.109   5.272   1.216
 1915TIP3    H127304   5.144   5.330   1.149
 1915TIP3    H227305   5.153   5.299   1.297
 1916TIP3   OH227306   0.832   5.696   6.520
 1916TIP3    H127307   0.843   5.638   6.595
 1916TIP3    H227308   0.908   5.755   6.524
 1917TIP3   OH227309   5.608   6.643   1.128
 1917TIP3    H127310   5.534   6.696   1.098
 1917TIP3    H227311   5.684   6.700   1.118
 1918TIP3   OH227312   6.561   1.624   7.955
 1918TIP3    H127313   6.518   1.611   7.871
 1918TIP3    H227314   6.489   1.626   8.019
 1919TIP3   OH227315   3.949   4.612   0.182
 1919TIP3    H127316   4.030   4.569   0.152
 1919TIP3    H227317   3.946   4.694   0.132
 1920TIP3   OH227318   5.538   0.659   8.415
 1920TIP3    H127319   5.557   0.680   8.324
 1920TIP3    H227320   5.609   0.698   8.465
 1921TIP3   OH227321   1.040   2.870   1.927
 1921TIP3    H127322   1.060   2.865   2.020
 1921TIP3    H227323   1.124   2.852   1.884
 1922TIP3   OH227324   5.587   6.283   1.410
 1922TIP3    H127325   5.668   6.241   1.438
 1922TIP3    H227326   5.546   6.312   1.491
 1923TIP3   OH227327   0.512   2.892   0.998
 1923TIP3    H127328   0.555   2.977   1.002
 1923TIP3    H227329   0.507   2.863   1.089
 1924TIP3   OH227330   3.284   4.405   7.528
 1924TIP3    H127331   3.331   4.477   7.486
 1924TIP3    H227332   3.252   4.443   7.610
 1925TIP3   OH227333   0.043   0.823   1.462
 1925TIP3    H127334   6.869   0.805   1.423
 1925TIP3    H227335   0.098   0.849   1.388
 1926TIP3   OH227336   2.089   3.523   0.081
 1926TIP3    H127337   2.136   3.441   0.094
 1926TIP3    H227338   2.103   3.572   0.162
 1927TIP3   OH227339   4.429   6.602   2.118
 1927TIP3    H127340   4.521   6.578   2.128
 1927TIP3    H227341   4.412   6.593   2.024
 1928TIP3   OH227342   0.614   6.495   8.108
 1928TIP3    H127343   0.605   6.578   8.156
 1928TIP3    H227344   0.563   6.432   8.159
 1929TIP3   OH227345   0.035   3.923   8.593
 1929TIP3    H127346   0.039   3.988   0.060
 1929TIP3    H227347   0.017   3.974   8.514
 1930TIP3   OH227348   0.866   5.754   8.071
 1930TIP3    H127349   0.832   5.812   8.003
 1930TIP3    H227350   0.811   5.772   8.148
 1931TIP3   OH227351   0.487   1.134   7.325
 1931TIP3    H127352   0.407   1.083   7.337
 1931TIP3    H227353   0.541   1.113   7.401
 1932TIP3   OH227354   0.906   5.346   7.551
 1932TIP3    H127355   0.888   5.407   7.623
 1932TIP3    H227356   0.867   5.263   7.578
 1933TIP3   OH227357   2.796   2.734   7.474
 1933TIP3    H127358   2.752   2.819   7.468
 1933TIP3    H227359   2.877   2.745   7.424
 1934TIP3   OH227360   2.729   5.604   8.042
 1934TIP3    H127361   2.659   5.545   8.014
 1934TIP3    H227362   2.716   5.614   8.136
 1935TIP3   OH227363   6.475   2.700   1.966
 1935TIP3    H127364   6.560   2.711   2.008
 1935TIP3    H227365   6.411   2.715   2.036
 1936TIP3   OH227366   6.640   4.703   6.782
 1936TIP3    H127367   6.550   4.670   6.773
 1936TIP3    H227368   6.695   4.632   6.751
 1937TIP3   OH227369   4.480   3.313   8.252
 1937TIP3    H127370   4.569   3.286   8.277
 1937TIP3    H227371   4.491   3.402   8.218
 1938TIP3   OH227372   6.036   0.091   1.990
 1938TIP3    H127373   5.992   0.172   2.012
 1938TIP3    H227374   6.126   0.103   2.021
 1939TIP3   OH227375   1.849   5.604   1.379
 1939TIP3    H127376   1.803   5.604   1.295
 1939TIP3    H227377   1.940   5.588   1.356
 1940TIP3   OH227378   0.462   6.827   0.407
 1940TIP3    H127379   0.467   6.775   0.327
 1940TIP3    H227380   0.459   6.763   0.478
 1941TIP3   OH227381   6.691   4.451   7.179
 1941TIP3    H127382   6.602   4.488   7.180
 1941TIP3    H227383   6.745   4.520   7.139
 1942TIP3   OH227384   2.429   2.812   1.592
 1942TIP3    H127385   2.383   2.731   1.611
 1942TIP3    H227386   2.481   2.793   1.514
 1943TIP3   OH227387   6.895   4.817   8.080
 1943TIP3    H127388   0.031   4.767   8.015
 1943TIP3    H227389   6.850   4.751   8.133
 1944TIP3   OH227390   4.146   1.235   0.908
 1944TIP3    H127391   4.213   1.214   0.842
 1944TIP3    H227392   4.069   1.186   0.880
 1945TIP3   OH227393   6.427   4.362   0.839
 1945TIP3    H127394   6.403   4.318   0.920
 1945TIP3    H227395   6.363   4.433   0.831
 1946TIP3   OH227396   0.943   3.559   1.117
 1946TIP3    H127397   1.021   3.521   1.076
 1946TIP3    H227398   0.978   3.621   1.181
 1947TIP3   OH227399   4.038   2.753   8.125
 1947TIP3    H127400   4.078   2.666   8.124
 1947TIP3    H227401   3.972   2.748   8.195
 1948TIP3   OH227402   3.623   4.026   1.800
 1948TIP3    H127403   3.601   4.084   1.727
 1948TIP3    H227404   3.642   4.085   1.873
 1949TIP3   OH227405   3.770   2.830   0.207
 1949TIP3    H127406   3.711   2.756   0.219
 1949TIP3    H227407   3.853   2.801   0.245
 1950TIP3   OH227408   3.646   3.481   7.773
 1950TIP3    H127409   3.573   3.447   7.824
 1950TIP3    H227410   3.656   3.419   7.700
 1951TIP3   OH227411   1.824   2.229   0.896
 1951TIP3    H127412   1.796   2.213   0.986
 1951TIP3    H227413   1.833   2.324   0.890
 1952TIP3   OH227414   3.933   5.721   8.296
 1952TIP3    H127415   3.889   5.749   8.216
 1952TIP3    H227416   3.863   5.699   8.356
 1953TIP3   OH227417   2.266   4.297   7.068
 1953TIP3    H127418   2.341   4.351   7.093
 1953TIP3    H227419   2.190   4.344   7.103
 1954TIP3   OH227420   5.576   5.118   7.450
 1954TIP3    H127421   5.533   5.038   7.421
 1954TIP3    H227422   5.585   5.171   7.370
 1955TIP3   OH227423   4.581   0.641   0.148
 1955TIP3    H127424   4.641   0.578   0.186
 1955TIP3    H227425   4.610   0.726   0.180
 1956TIP3   OH227426   0.370   3.176   7.995
 1956TIP3    H127427   0.399   3.262   8.025
 1956TIP3    H227428   0.416   3.163   7.912
 1957TIP3   OH227429   0.574   6.050   0.635
 1957TIP3    H127430   0.637   6.032   0.705
 1957TIP3    H227431   0.601   6.135   0.599
 1958TIP3   OH227432   1.014   6.157   7.562
 1958TIP3    H127433   1.079   6.098   7.601
 1958TIP3    H227434   1.048   6.175   7.474
 1959TIP3   OH227435   2.608   1.761   8.112
 1959TIP3    H127436   2.672   1.698   8.144
 1959TIP3    H227437   2.660   1.826   8.064
 1960TIP3   OH227438   3.217   3.608   7.363
 1960TIP3    H127439   3.169   3.606   7.445
 1960TIP3    H227440   3.309   3.605   7.389
 1961TIP3   OH227441   2.779   2.199   1.540
 1961TIP3    H127442   2.833   2.218   1.464
 1961TIP3    H227443   2.691   2.187   1.505
 1962TIP3   OH227444   2.629   1.090   0.581
 1962TIP3    H127445   2.542   1.053   0.595
 1962TIP3    H227446   2.669   1.092   0.668
 1963TIP3   OH227447   4.941   6.488   8.463
 1963TIP3    H127448   5.002   6.527   8.525
 1963TIP3    H227449   4.991   6.418   8.420
 1964TIP3   OH227450   5.519   5.906   7.564
 1964TIP3    H127451   5.603   5.952   7.558
 1964TIP3    H227452   5.467   5.959   7.625
 1965TIP3   OH227453   6.553   6.543   0.268
 1965TIP3    H127454   6.641   6.568   0.240
 1965TIP3    H227455   6.504   6.625   0.269
 1966TIP3   OH227456   6.563   2.943   1.032
 1966TIP3    H127457   6.480   2.961   0.988
 1966TIP3    H227458   6.539   2.911   1.118
 1967TIP3   OH227459   2.324   4.932   8.354
 1967TIP3    H127460   2.414   4.906   8.333
 1967TIP3    H227461   2.333   5.021   8.389
 1968TIP3   OH227462   3.586   6.570   1.716
 1968TIP3    H127463   3.648   6.576   1.789
 1968TIP3    H227464   3.504   6.607   1.750
 1969TIP3   OH227465   3.382   4.912   2.407
 1969TIP3    H127466   3.368   4.821   2.435
 1969TIP3    H227467   3.454   4.907   2.344
 1970TIP3   OH227468   1.026   1.738   7.382
 1970TIP3    H127469   0.985   1.804   7.437
 1970TIP3    H227470   0.967   1.662   7.386
 1971TIP3   OH227471   6.400   6.176   7.255
 1971TIP3    H127472   6.350   6.147   7.179
 1971TIP3    H227473   6.369   6.122   7.327
 1972TIP3   OH227474   5.260   4.590   8.093
 1972TIP3    H127475   5.247   4.567   8.186
 1972TIP3    H227476   5.176   4.628   8.067
 1973TIP3   OH227477   1.714   2.395   1.944
 1973TIP3    H127478   1.742   2.456   2.014
 1973TIP3    H227479   1.698   2.452   1.869
 1974TIP3   OH227480   1.661   5.600   0.162
 1974TIP3    H127481   1.746   5.604   0.117
 1974TIP3    H227482   1.597   5.592   0.091
 1975TIP3   OH227483   1.208   5.487   8.449
 1975TIP3    H127484   1.148   5.417   8.475
 1975TIP3    H227485   1.151   5.560   8.426
 1976TIP3   OH227486   1.107   6.059   1.596
 1976TIP3    H127487   1.147   6.040   1.680
 1976TIP3    H227488   1.027   6.006   1.595
 1977TIP3   OH227489   2.483   1.392   6.401
 1977TIP3    H127490   2.531   1.438   6.332
 1977TIP3    H227491   2.467   1.459   6.467
 1978TIP3   OH227492   2.791   6.082   6.944
 1978TIP3    H127493   2.874   6.103   6.986
 1978TIP3    H227494   2.744   6.165   6.940
 1979TIP3   OH227495   2.352   1.534   7.131
 1979TIP3    H127496   2.342   1.629   7.134
 1979TIP3    H227497   2.439   1.520   7.095
 1980TIP3   OH227498   5.210   3.337   7.371
 1980TIP3    H127499   5.196   3.411   7.429
 1980TIP3    H227500   5.300   3.348   7.340
 1981TIP3   OH227501   4.754   0.761   2.631
 1981TIP3    H127502   4.721   0.683   2.585
 1981TIP3    H227503   4.845   0.738   2.652
 1982TIP3   OH227504   5.797   5.958   0.044
 1982TIP3    H127505   5.813   5.946   0.138
 1982TIP3    H227506   5.752   5.877   0.018
 1983TIP3   OH227507   2.417   2.111   6.514
 1983TIP3    H127508   2.428   2.018   6.494
 1983TIP3    H227509   2.374   2.112   6.599
 1984TIP3   OH227510   6.821   0.354   8.433
 1984TIP3    H127511   6.866   0.436   8.452
 1984TIP3    H227512   6.730   0.371   8.454
 1985TIP3   OH227513   0.736   0.562   8.526
 1985TIP3    H127514   0.641   0.549   8.518
 1985TIP3    H227515   0.745   0.648   8.566
 1986TIP3   OH227516   2.495   3.587   7.247
 1986TIP3    H127517   2.469   3.655   7.309
 1986TIP3    H227518   2.433   3.595   7.174
 1987TIP3   OH227519   2.698   5.113   8.090
 1987TIP3    H127520   2.659   5.045   8.035
 1987TIP3    H227521   2.625   5.171   8.111
 1988TIP3   OH227522   6.482   5.887   8.240
 1988TIP3    H127523   6.571   5.860   8.262
 1988TIP3    H227524   6.428   5.811   8.262
 1989TIP3   OH227525   6.890   4.286   8.522
 1989TIP3    H127526   0.032   4.340   8.579
 1989TIP3    H227527   0.008   4.308   8.433
 1990TIP3   OH227528   1.810   2.603   2.070
 1990TIP3    H127529   1.810   2.696   2.047
 1990TIP3    H227530   1.903   2.583   2.085
 1991TIP3   OH227531   1.122   6.701   1.605
 1991TIP3    H127532   1.093   6.766   1.542
 1991TIP3    H227533   1.063   6.712   1.680
 1992TIP3   OH227534   5.158   5.903   0.752
 1992TIP3    H127535   5.116   5.968   0.809
 1992TIP3    H227536   5.251   5.925   0.757
 1993TIP3   OH227537   6.912   6.599   7.740
 1993TIP3    H127538   0.065   6.534   7.714
 1993TIP3    H227539   6.881   6.569   7.826
 1994TIP3   OH227540   6.406   6.105   2.551
 1994TIP3    H127541   6.425   6.031   2.493
 1994TIP3    H227542   6.395   6.065   2.637
 1995TIP3   OH227543   0.086   5.692   6.986
 1995TIP3    H127544   0.035   5.724   7.061
 1995TIP3    H227545   0.145   5.627   7.024
 1996TIP3   OH227546   1.435   6.541   6.387
 1996TIP3    H127547   1.391   6.467   6.427
 1996TIP3    H227548   1.461   6.596   6.461
 1997TIP3   OH227549   6.776   6.254   8.044
 1997TIP3    H127550   6.809   6.165   8.034
 1997TIP3    H227551   6.766   6.286   7.954
 1998TIP3   OH227552   0.997   5.464   1.896
 1998TIP3    H127553   1.024   5.477   1.987
 1998TIP3    H227554   0.971   5.372   1.892
 1999TIP3   OH227555   2.981   5.846   1.957
 1999TIP3    H127556   2.914   5.777   1.957
 1999TIP3    H227557   3.059   5.804   1.922
 2000TIP3   OH227558   4.560   4.986   7.224
 2000TIP3    H127559   4.653   5.000   7.208
 2000TIP3    H227560   4.544   5.026   7.310
 2001TIP3   OH227561   5.897   3.350   0.482
 2001TIP3    H127562   5.967   3.319   0.539
 2001TIP3    H227563   5.886   3.442   0.505
 2002TIP3   OH227564   3.066   0.461   1.062
 2002TIP3    H127565   3.139   0.505   1.019
 2002TIP3    H227566   3.107   0.397   1.120
 2003TIP3   OH227567   3.970   3.398   0.581
 2003TIP3    H127568   4.056   3.356   0.588
 2003TIP3    H227569   3.988   3.486   0.550
 2004TIP3   OH227570   5.521   0.814   8.167
 2004TIP3    H127571   5.589   0.821   8.100
 2004TIP3    H227572   5.447   0.864   8.132
 2005TIP3   OH227573   4.922   1.224   0.910
 2005TIP3    H127574   4.933   1.197   1.002
 2005TIP3    H227575   4.894   1.145   0.865
 2006TIP3   OH227576   1.640   4.899   8.413
 2006TIP3    H127577   1.715   4.958   8.424
 2006TIP3    H227578   1.565   4.950   8.446
 2007TIP3   OH227579   6.574   6.003   1.716
 2007TIP3    H127580   6.647   6.063   1.730
 2007TIP3    H227581   6.613   5.930   1.667
 2008TIP3   OH227582   0.956   3.153   7.087
 2008TIP3    H127583   0.914   3.161   7.001
 2008TIP3    H227584   0.886   3.126   7.146
 2009TIP3   OH227585   0.942   3.452   0.456
 2009TIP3    H127586   0.867   3.394   0.440
 2009TIP3    H227587   1.019   3.399   0.432
 2010TIP3   OH227588   5.029   6.040   2.711
 2010TIP3    H127589   5.094   6.032   2.781
 2010TIP3    H227590   5.047   6.126   2.672
 2011TIP3   OH227591   4.706   0.600   0.519
 2011TIP3    H127592   4.727   0.571   0.430
 2011TIP3    H227593   4.611   0.603   0.521
 2012TIP3   OH227594   4.301   1.828   8.190
 2012TIP3    H127595   4.247   1.819   8.268
 2012TIP3    H227596   4.302   1.922   8.172
 2013TIP3   OH227597   5.222   5.901   1.710
 2013TIP3    H127598   5.174   5.977   1.742
 2013TIP3    H227599   5.252   5.857   1.790
 2014TIP3   OH227600   1.564   1.619   1.520
 2014TIP3    H127601   1.614   1.682   1.572
 2014TIP3    H227602   1.610   1.614   1.436
 2015TIP3   OH227603   3.297   5.324   0.798
 2015TIP3    H127604   3.383   5.306   0.837
 2015TIP3    H227605   3.312   5.315   0.703
 2016TIP3   OH227606   6.802   5.935   7.293
 2016TIP3    H127607   6.861   6.010   7.303
 2016TIP3    H227608   6.753   5.932   7.375
 2017TIP3   OH227609   0.843   1.897   0.126
 2017TIP3    H127610   0.889   1.977   0.099
 2017TIP3    H227611   0.879   1.828   0.071
 2018TIP3   OH227612   4.578   1.349   7.072
 2018TIP3    H127613   4.589   1.273   7.129
 2018TIP3    H227614   4.664   1.362   7.032
 2019TIP3   OH227615   1.701   6.277   5.975
 2019TIP3    H127616   1.792   6.262   6.001
 2019TIP3    H227617   1.678   6.361   6.014
 2020TIP3   OH227618   2.564   4.800   0.097
 2020TIP3    H127619   2.585   4.888   0.126
 2020TIP3    H227620   2.616   4.742   0.153
 2021TIP3   OH227621   1.184   1.103   0.285
 2021TIP3    H127622   1.100   1.127   0.248
 2021TIP3    H227623   1.202   1.015   0.251
 2022TIP3   OH227624   2.947   1.162   0.830
 2022TIP3    H127625   2.906   1.248   0.831
 2022TIP3    H227626   2.990   1.155   0.915
 2023TIP3   OH227627   5.531   3.327   1.335
 2023TIP3    H127628   5.606   3.318   1.276
 2023TIP3    H227629   5.566   3.374   1.411
 2024TIP3   OH227630   1.102   4.310   7.096
 2024TIP3    H127631   1.112   4.392   7.047
 2024TIP3    H227632   1.008   4.299   7.105
 2025TIP3   OH227633   2.773   3.524   7.280
 2025TIP3    H127634   2.692   3.561   7.245
 2025TIP3    H227635   2.838   3.538   7.210
 2026TIP3   OH227636   0.838   5.050   7.440
 2026TIP3    H127637   0.898   5.058   7.515
 2026TIP3    H227638   0.890   5.077   7.365
 2027TIP3   OH227639   4.518   4.511   8.573
 2027TIP3    H127640   4.466   4.573   0.022
 2027TIP3    H227641   4.478   4.426   8.590
 2028TIP3   OH227642   5.143   2.380   1.418
 2028TIP3    H127643   5.210   2.429   1.466
 2028TIP3    H227644   5.143   2.420   1.331
 2029TIP3   OH227645   0.644   2.228   6.569
 2029TIP3    H127646   0.671   2.274   6.489
 2029TIP3    H227647   0.706   2.256   6.635
 2030TIP3   OH227648   1.201   1.207   8.549
 2030TIP3    H127649   1.144   1.261   8.494
 2030TIP3    H227650   1.192   1.244   0.033
 2031TIP3   OH227651   5.374   5.261   7.601
 2031TIP3    H127652   5.302   5.276   7.539
 2031TIP3    H227653   5.431   5.198   7.557
 2032TIP3   OH227654   5.851   6.274   2.502
 2032TIP3    H127655   5.844   6.368   2.520
 2032TIP3    H227656   5.766   6.238   2.526
 2033TIP3   OH227657   5.481   1.937   1.854
 2033TIP3    H127658   5.543   1.865   1.858
 2033TIP3    H227659   5.448   1.936   1.764
 2034TIP3   OH227660   2.152   1.813   0.799
 2034TIP3    H127661   2.097   1.890   0.786
 2034TIP3    H227662   2.106   1.762   0.866
 2035TIP3   OH227663   6.705   2.412   1.009
 2035TIP3    H127664   6.647   2.340   0.985
 2035TIP3    H227665   6.702   2.472   0.935
 2036TIP3   OH227666   1.734   2.283   6.206
 2036TIP3    H127667   1.802   2.341   6.171
 2036TIP3    H227668   1.763   2.195   6.183
 2037TIP3   OH227669   3.686   4.839   7.152
 2037TIP3    H127670   3.711   4.782   7.079
 2037TIP3    H227671   3.723   4.796   7.229
 2038TIP3   OH227672   5.633   3.502   0.530
 2038TIP3    H127673   5.683   3.580   0.551
 2038TIP3    H227674   5.643   3.491   0.436
 2039TIP3   OH227675   4.538   5.497   0.350
 2039TIP3    H127676   4.569   5.504   0.440
 2039TIP3    H227677   4.466   5.561   0.344
 2040TIP3   OH227678   4.689   2.776   0.701
 2040TIP3    H127679   4.656   2.688   0.722
 2040TIP3    H227680   4.610   2.829   0.693
 2041TIP3   OH227681   4.348   3.282   7.389
 2041TIP3    H127682   4.421   3.263   7.447
 2041TIP3    H227683   4.351   3.377   7.376
 2042TIP3   OH227684   3.228   0.725   2.200
 2042TIP3    H127685   3.304   0.780   2.222
 2042TIP3    H227686   3.263   0.636   2.195
 2043TIP3   OH227687   2.027   3.571   7.840
 2043TIP3    H127688   2.028   3.608   7.751
 2043TIP3    H227689   1.959   3.504   7.837
 2044TIP3   OH227690   5.268   2.203   7.602
 2044TIP3    H127691   5.289   2.111   7.619
 2044TIP3    H227692   5.315   2.251   7.671
 2045TIP3   OH227693   6.683   0.829   8.490
 2045TIP3    H127694   6.734   0.821   8.409
 2045TIP3    H227695   6.630   0.907   8.477
 2046TIP3   OH227696   5.112   6.046   6.774
 2046TIP3    H127697   5.117   6.120   6.713
 2046TIP3    H227698   5.074   5.975   6.723
 2047TIP3   OH227699   5.303   5.379   1.050
 2047TIP3    H127700   5.303   5.475   1.041
 2047TIP3    H227701   5.303   5.347   0.960
 2048TIP3   OH227702   0.859   6.811   1.688
 2048TIP3    H127703   0.890   6.895   1.655
 2048TIP3    H227704   0.872   6.816   1.782
 2049TIP3   OH227705   4.161   1.776   1.862
 2049TIP3    H127706   4.223   1.704   1.877
 2049TIP3    H227707   4.080   1.747   1.904
 2050TIP3   OH227708   0.127   0.517   7.063
 2050TIP3    H127709   0.039   0.511   7.099
 2050TIP3    H227710   0.168   0.589   7.112
 2051TIP3   OH227711   3.923   6.685   0.239
 2051TIP3    H127712   3.986   6.702   0.309
 2051TIP3    H227713   3.895   6.772   0.212
 2052TIP3   OH227714   0.088   5.936   1.239
 2052TIP3    H127715   0.151   5.982   1.295
 2052TIP3    H227716   0.031   6.005   1.206
 2053TIP3   OH227717   2.867   2.316   7.496
 2053TIP3    H127718   2.852   2.290   7.405
 2053TIP3    H227719   2.901   2.237   7.538
 2054TIP3   OH227720   4.717   5.572   6.880
 2054TIP3    H127721   4.685   5.492   6.923
 2054TIP3    H227722   4.732   5.633   6.952
 2055TIP3   OH227723   2.713   5.969   1.500
 2055TIP3    H127724   2.780   6.023   1.458
 2055TIP3    H227725   2.763   5.900   1.543
 2056TIP3   OH227726   3.637   3.074   0.039
 2056TIP3    H127727   3.638   3.002   0.103
 2056TIP3    H227728   3.625   3.031   8.558
 2057TIP3   OH227729   2.194   4.146   6.299
 2057TIP3    H127730   2.284   4.163   6.325
 2057TIP3    H227731   2.165   4.076   6.358
 2058TIP3   OH227732   3.536   6.388   8.531
 2058TIP3    H127733   3.483   6.455   8.487
 2058TIP3    H227734   3.608   6.437   8.572
 2059TIP3   OH227735   0.151   1.820   1.191
 2059TIP3    H127736   0.235   1.799   1.231
 2059TIP3    H227737   0.150   1.916   1.186
 2060TIP3   OH227738   3.284   2.543   1.583
 2060TIP3    H127739   3.210   2.553   1.523
 2060TIP3    H227740   3.258   2.594   1.660
 2061TIP3   OH227741   5.243   0.096   1.494
 2061TIP3    H127742   5.288   0.018   1.462
 2061TIP3    H227743   5.186   0.063   1.564
 2062TIP3   OH227744   3.009   6.433   8.437
 2062TIP3    H127745   2.959   6.470   8.509
 2062TIP3    H227746   2.946   6.428   8.365
 2063TIP3   OH227747   3.175   5.967   7.409
 2063TIP3    H127748   3.081   5.951   7.421
 2063TIP3    H227749   3.189   5.953   7.315
 2064TIP3   OH227750   2.049   6.749   1.048
 2064TIP3    H127751   1.960   6.744   1.083
 2064TIP3    H227752   2.038   6.754   0.953
 2065TIP3   OH227753   4.514   4.985   2.267
 2065TIP3    H127754   4.599   4.996   2.310
 2065TIP3    H227755   4.452   5.027   2.326
 2066TIP3   OH227756   1.672   6.661   7.939
 2066TIP3    H127757   1.714   6.734   7.985
 2066TIP3    H227758   1.582   6.661   7.972
 2067TIP3   OH227759   1.755   2.729   0.639
 2067TIP3    H127760   1.667   2.705   0.610
 2067TIP3    H227761   1.758   2.824   0.631
 2068TIP3   OH227762   2.715   2.797   7.145
 2068TIP3    H127763   2.788   2.751   7.186
 2068TIP3    H227764   2.752   2.881   7.119
 2069TIP3   OH227765   4.175   3.608   2.204
 2069TIP3    H127766   4.242   3.579   2.265
 2069TIP3    H227767   4.157   3.532   2.149
 2070TIP3   OH227768   3.703   1.228   8.369
 2070TIP3    H127769   3.703   1.298   8.304
 2070TIP3    H227770   3.679   1.271   8.451
 2071TIP3   OH227771   5.390   0.295   0.531
 2071TIP3    H127772   5.477   0.258   0.546
 2071TIP3    H227773   5.406   0.388   0.513
 2072TIP3   OH227774   4.686   6.899   1.292
 2072TIP3    H127775   4.592   6.882   1.288
 2072TIP3    H227776   4.722   6.851   1.217
 2073TIP3   OH227777   2.025   3.668   8.239
 2073TIP3    H127778   2.106   3.714   8.261
 2073TIP3    H227779   1.983   3.724   8.174
 2074TIP3   OH227780   6.203   3.764   6.978
 2074TIP3    H127781   6.117   3.737   7.012
 2074TIP3    H227782   6.186   3.790   6.888
 2075TIP3   OH227783   2.931   6.399   6.345
 2075TIP3    H127784   2.874   6.349   6.404
 2075TIP3    H227785   3.015   6.404   6.390
 2076TIP3   OH227786   1.639   0.546   7.127
 2076TIP3    H127787   1.723   0.578   7.162
 2076TIP3    H227788   1.589   0.625   7.109
 2077TIP3   OH227789   4.794   1.010   0.822
 2077TIP3    H127790   4.752   1.045   0.743
 2077TIP3    H227791   4.796   0.916   0.808
 2078TIP3   OH227792   5.709   1.787   1.834
 2078TIP3    H127793   5.758   1.824   1.908
 2078TIP3    H227794   5.716   1.692   1.846
 2079TIP3   OH227795   5.695   4.254   1.142
 2079TIP3    H127796   5.615   4.307   1.145
 2079TIP3    H227797   5.709   4.227   1.232
 2080TIP3   OH227798   1.558   5.342   7.461
 2080TIP3    H127799   1.528   5.356   7.371
 2080TIP3    H227800   1.546   5.248   7.476
 2081TIP3   OH227801   3.088   6.506   7.307
 2081TIP3    H127802   3.151   6.553   7.361
 2081TIP3    H227803   3.073   6.564   7.232
 2082TIP3   OH227804   5.691   0.888   7.134
 2082TIP3    H127805   5.769   0.852   7.093
 2082TIP3    H227806   5.712   0.894   7.227
 2083TIP3   OH227807   0.303   3.919   6.905
 2083TIP3    H127808   0.229   3.930   6.964
 2083TIP3    H227809   0.275   3.959   6.823
 2084TIP3   OH227810   3.086   0.986   6.790
 2084TIP3    H127811   3.043   0.906   6.759
 2084TIP3    H227812   3.105   1.036   6.711
 2085TIP3   OH227813   6.499   4.338   8.600
 2085TIP3    H127814   6.421   4.286   0.014
 2085TIP3    H227815   6.475   4.394   8.526
 2086TIP3   OH227816   2.267   1.518   0.731
 2086TIP3    H127817   2.310   1.589   0.684
 2086TIP3    H227818   2.174   1.541   0.728
 2087TIP3   OH227819   4.346   3.917   0.592
 2087TIP3    H127820   4.312   3.887   0.507
 2087TIP3    H227821   4.305   4.003   0.605
 2088TIP3   OH227822   4.911   0.357   2.626
 2088TIP3    H127823   4.921   0.449   2.649
 2088TIP3    H227824   4.822   0.335   2.653
 2089TIP3   OH227825   6.836   0.557   1.797
 2089TIP3    H127826   6.853   0.544   1.891
 2089TIP3    H227827   0.008   0.584   1.761
 2090TIP3   OH227828   5.317   3.158   7.951
 2090TIP3    H127829   5.306   3.207   8.033
 2090TIP3    H227830   5.359   3.076   7.978
 2091TIP3   OH227831   4.622   0.330   6.243
 2091TIP3    H127832   4.580   0.377   6.315
 2091TIP3    H227833   4.642   0.243   6.280
 2092TIP3   OH227834   3.667   4.215   1.989
 2092TIP3    H127835   3.595   4.273   2.014
 2092TIP3    H227836   3.723   4.212   2.066
 2093TIP3   OH227837   3.278   5.858   1.906
 2093TIP3    H127838   3.325   5.791   1.957
 2093TIP3    H227839   3.346   5.900   1.855
 2094TIP3   OH227840   6.220   4.505   7.648
 2094TIP3    H127841   6.133   4.465   7.645
 2094TIP3    H227842   6.277   4.445   7.601
 2095TIP3   OH227843   0.603   3.549   7.528
 2095TIP3    H127844   0.564   3.573   7.444
 2095TIP3    H227845   0.541   3.487   7.565
 2096TIP3   OH227846   1.017   4.225   0.038
 2096TIP3    H127847   1.074   4.205   8.567
 2096TIP3    H227848   1.038   4.158   0.103
 2097TIP3   OH227849   3.194   0.644   0.119
 2097TIP3    H127850   3.216   0.593   0.197
 2097TIP3    H227851   3.140   0.716   0.151
 2098TIP3   OH227852   5.874   1.546   7.107
 2098TIP3    H127853   5.965   1.562   7.134
 2098TIP3    H227854   5.882   1.487   7.032
 2099TIP3   OH227855   6.551   3.495   7.447
 2099TIP3    H127856   6.554   3.588   7.469
 2099TIP3    H227857   6.588   3.451   7.523
 2100TIP3   OH227858   6.130   6.334   0.510
 2100TIP3    H127859   6.086   6.299   0.588
 2100TIP3    H227860   6.187   6.264   0.481
 2101TIP3   OH227861   2.491   1.796   2.270
 2101TIP3    H127862   2.535   1.801   2.185
 2101TIP3    H227863   2.560   1.766   2.331
 2102TIP3   OH227864   5.980   4.967   2.188
 2102TIP3    H127865   5.991   4.907   2.262
 2102TIP3    H227866   6.045   5.035   2.202
 2103TIP3   OH227867   1.454   1.261   7.278
 2103TIP3    H127868   1.399   1.210   7.338
 2103TIP3    H227869   1.535   1.212   7.270
 2104TIP3   OH227870   3.990   3.877   2.478
 2104TIP3    H127871   3.979   3.791   2.519
 2104TIP3    H227872   4.025   3.932   2.548
 2105TIP3   OH227873   3.539   2.131   6.736
 2105TIP3    H127874   3.606   2.152   6.671
 2105TIP3    H227875   3.568   2.050   6.776
 2106TIP3   OH227876   2.845   0.438   1.689
 2106TIP3    H127877   2.875   0.442   1.779
 2106TIP3    H227878   2.796   0.519   1.676
 2107TIP3   OH227879   4.429   1.261   7.432
 2107TIP3    H127880   4.352   1.294   7.385
 2107TIP3    H227881   4.453   1.181   7.384
 2108TIP3   OH227882   6.821   6.336   1.248
 2108TIP3    H127883   6.772   6.316   1.328
 2108TIP3    H227884   6.802   6.263   1.190
 2109TIP3   OH227885   0.084   3.449   0.308
 2109TIP3    H127886   0.005   3.447   0.362
 2109TIP3    H227887   0.068   3.521   0.246
 2110TIP3   OH227888   0.970   4.615   7.821
 2110TIP3    H127889   0.944   4.570   7.741
 2110TIP3    H227890   0.910   4.582   7.888
 2111TIP3   OH227891   3.806   2.549   6.632
 2111TIP3    H127892   3.786   2.632   6.586
 2111TIP3    H227893   3.748   2.550   6.708
 2112TIP3   OH227894   2.394   6.111   7.780
 2112TIP3    H127895   2.321   6.063   7.740
 2112TIP3    H227896   2.353   6.189   7.817
 2113TIP3   OH227897   5.519   5.818   0.269
 2113TIP3    H127898   5.453   5.873   0.227
 2113TIP3    H227899   5.582   5.880   0.307
 2114TIP3   OH227900   4.299   6.050   0.647
 2114TIP3    H127901   4.280   6.138   0.678
 2114TIP3    H227902   4.281   6.053   0.553
 2115TIP3   OH227903   3.198   4.533   0.704
 2115TIP3    H127904   3.134   4.565   0.640
 2115TIP3    H227905   3.150   4.469   0.756
 2116TIP3   OH227906   3.179   2.116   0.595
 2116TIP3    H127907   3.163   2.049   0.528
 2116TIP3    H227908   3.194   2.196   0.545
 2117TIP3   OH227909   2.283   2.934   0.159
 2117TIP3    H127910   2.322   3.015   0.126
 2117TIP3    H227911   2.338   2.910   0.234
 2118TIP3   OH227912   2.391   4.751   6.850
 2118TIP3    H127913   2.329   4.704   6.906
 2118TIP3    H227914   2.372   4.720   6.762
 2119TIP3   OH227915   1.844   5.346   7.577
 2119TIP3    H127916   1.835   5.321   7.485
 2119TIP3    H227917   1.784   5.288   7.624
 2120TIP3   OH227918   1.363   0.212   7.994
 2120TIP3    H127919   1.404   0.137   8.037
 2120TIP3    H227920   1.371   0.283   8.058
 2121TIP3   OH227921   4.048   5.230   1.570
 2121TIP3    H127922   3.980   5.169   1.599
 2121TIP3    H227923   4.052   5.219   1.475
 2122TIP3   OH227924   5.670   1.269   7.254
 2122TIP3    H127925   5.700   1.210   7.185
 2122TIP3    H227926   5.665   1.355   7.212
 2123TIP3   OH227927   1.819   2.029   0.471
 2123TIP3    H127928   1.865   1.989   0.545
 2123TIP3    H227929   1.847   2.120   0.471
 2124TIP3   OH227930   5.978   5.563   8.383
 2124TIP3    H127931   5.932   5.481   8.401
 2124TIP3    H227932   5.986   5.606   8.468
 2125TIP3   OH227933   0.766   5.965   7.291
 2125TIP3    H127934   0.814   5.957   7.208
 2125TIP3    H227935   0.822   5.922   7.355
 2126TIP3   OH227936   4.709   2.728   1.260
 2126TIP3    H127937   4.723   2.743   1.354
 2126TIP3    H227938   4.722   2.814   1.220
 2127TIP3   OH227939   3.814   4.701   7.356
 2127TIP3    H127940   3.789   4.626   7.410
 2127TIP3    H227941   3.881   4.746   7.407
 2128TIP3   OH227942   5.353   1.449   0.855
 2128TIP3    H127943   5.264   1.480   0.837
 2128TIP3    H227944   5.342   1.356   0.874
 2129TIP3   OH227945   2.209   4.075   7.719
 2129TIP3    H127946   2.217   4.116   7.633
 2129TIP3    H227947   2.272   4.122   7.774
 2130TIP3   OH227948   6.065   3.486   1.791
 2130TIP3    H127949   6.136   3.442   1.744
 2130TIP3    H227950   5.997   3.497   1.725
 2131TIP3   OH227951   3.525   2.136   8.417
 2131TIP3    H127952   3.536   2.094   8.502
 2131TIP3    H227953   3.529   2.230   8.437
 2132TIP3   OH227954   5.950   0.860   6.720
 2132TIP3    H127955   5.919   0.946   6.693
 2132TIP3    H227956   6.046   0.867   6.717
 2133TIP3   OH227957   2.645   3.882   7.658
 2133TIP3    H127958   2.702   3.816   7.618
 2133TIP3    H227959   2.685   3.898   7.744
 2134TIP3   OH227960   5.426   1.724   0.248
 2134TIP3    H127961   5.470   1.757   0.327
 2134TIP3    H227962   5.497   1.698   0.190
 2135TIP3   OH227963   3.231   4.256   1.822
 2135TIP3    H127964   3.279   4.336   1.844
 2135TIP3    H227965   3.179   4.237   1.901
 2136TIP3   OH227966   2.646   2.299   0.209
 2136TIP3    H127967   2.686   2.278   0.125
 2136TIP3    H227968   2.579   2.365   0.188
 2137TIP3   OH227969   4.126   0.242   1.164
 2137TIP3    H127970   4.078   0.310   1.211
 2137TIP3    H227971   4.187   0.205   1.228
 2138TIP3   OH227972   6.903   4.207   1.668
 2138TIP3    H127973   6.810   4.212   1.691
 2138TIP3    H227974   0.032   4.276   1.720
 2139TIP3   OH227975   4.312   3.779   7.596
 2139TIP3    H127976   4.249   3.821   7.538
 2139TIP3    H227977   4.357   3.852   7.640
 2140TIP3   OH227978   4.316   4.592   7.127
 2140TIP3    H127979   4.404   4.628   7.130
 2140TIP3    H227980   4.265   4.659   7.081
 2141TIP3   OH227981   1.843   3.534   6.794
 2141TIP3    H127982   1.750   3.526   6.771
 2141TIP3    H227983   1.887   3.473   6.734
 2142TIP3   OH227984   0.948   1.580   0.992
 2142TIP3    H127985   0.863   1.540   0.976
 2142TIP3    H227986   1.011   1.519   0.953
 2143TIP3   OH227987   4.797   6.882   7.144
 2143TIP3    H127988   4.812   0.008   7.058
 2143TIP3    H227989   4.714   6.835   7.136
 2144TIP3   OH227990   4.063   4.442   6.261
 2144TIP3    H127991   4.128   4.510   6.244
 2144TIP3    H227992   4.111   4.372   6.304
 2145TIP3   OH227993   2.366   4.844   1.352
 2145TIP3    H127994   2.332   4.825   1.440
 2145TIP3    H227995   2.289   4.867   1.301
 2146TIP3   OH227996   0.479   1.350   0.543
 2146TIP3    H127997   0.401   1.345   0.597
 2146TIP3    H227998   0.476   1.271   0.488
 2147TIP3   OH227999   2.802   6.749   1.022
 2147TIP3    H128000   2.850   6.718   1.099
 2147TIP3    H228001   2.792   6.843   1.036
 2148TIP3   OH228002   2.721   1.662   8.575
 2148TIP3    H128003   2.790   1.721   8.545
 2148TIP3    H228004   2.667   1.648   8.497
 2149TIP3   OH228005   5.510   5.679   8.116
 2149TIP3    H128006   5.475   5.756   8.161
 2149TIP3    H228007   5.509   5.702   8.023
 2150TIP3   OH228008   3.714   6.630   1.236
 2150TIP3    H128009   3.701   6.536   1.225
 2150TIP3    H228010   3.805   6.644   1.209
 2151TIP3   OH228011   3.574   0.544   0.206
 2151TIP3    H128012   3.558   0.595   0.126
 2151TIP3    H228013   3.670   0.543   0.214
 2152TIP3   OH228014   3.445   0.236   0.697
 2152TIP3    H128015   3.368   0.207   0.648
 2152TIP3    H228016   3.514   0.176   0.670
 2153TIP3   OH228017   4.692   3.741   7.764
 2153TIP3    H128018   4.730   3.821   7.801
 2153TIP3    H228019   4.716   3.743   7.672
 2154TIP3   OH228020   6.585   3.340   1.696
 2154TIP3    H128021   6.539   3.257   1.708
 2154TIP3    H228022   6.538   3.402   1.752
 2155TIP3   OH228023   1.356   5.512   0.513
 2155TIP3    H128024   1.441   5.556   0.499
 2155TIP3    H228025   1.307   5.530   0.433
 2156TIP3   OH228026   4.716   5.177   1.894
 2156TIP3    H128027   4.799   5.131   1.903
 2156TIP3    H228028   4.651   5.116   1.929
 2157TIP3   OH228029   3.553   4.660   1.499
 2157TIP3    H128030   3.480   4.601   1.519
 2157TIP3    H228031   3.588   4.684   1.585
 2158TIP3   OH228032   5.732   3.620   0.297
 2158TIP3    H128033   5.667   3.634   0.227
 2158TIP3    H228034   5.760   3.708   0.321
 2159TIP3   OH228035   0.650   0.189   1.225
 2159TIP3    H128036   0.684   0.106   1.257
 2159TIP3    H228037   0.672   0.252   1.294
 2160TIP3   OH228038   2.838   3.115   0.443
 2160TIP3    H128039   2.899   3.058   0.396
 2160TIP3    H228040   2.862   3.203   0.414
 2161TIP3   OH228041   0.678   6.365   6.775
 2161TIP3    H128042   0.757   6.315   6.755
 2161TIP3    H228043   0.698   6.454   6.748
 2162TIP3   OH228044   0.516   5.667   6.952
 2162TIP3    H128045   0.531   5.762   6.954
 2162TIP3    H228046   0.535   5.642   6.861
 2163TIP3   OH228047   6.132   3.838   7.881
 2163TIP3    H128048   6.106   3.922   7.918
 2163TIP3    H228049   6.086   3.773   7.935
 2164TIP3   OH228050   2.503   1.157   1.108
 2164TIP3    H128051   2.540   1.241   1.134
 2164TIP3    H228052   2.517   1.100   1.184
 2165TIP3   OH228053   5.736   5.489   1.360
 2165TIP3    H128054   5.713   5.447   1.443
 2165TIP3    H228055   5.791   5.425   1.315
 2166TIP3   OH228056   5.971   5.883   2.129
 2166TIP3    H128057   6.041   5.901   2.192
 2166TIP3    H228058   5.984   5.947   2.059
 2167TIP3   OH228059   3.654   2.744   2.498
 2167TIP3    H128060   3.701   2.662   2.482
 2167TIP3    H228061   3.592   2.722   2.567
 2168TIP3   OH228062   6.258   1.443   8.389
 2168TIP3    H128063   6.199   1.368   8.396
 2168TIP3    H228064   6.213   1.513   8.436
 2169TIP3   OH228065   5.616   3.378   7.034
 2169TIP3    H128066   5.697   3.411   7.072
 2169TIP3    H228067   5.643   3.308   6.974
 2170TIP3   OH228068   5.729   1.314   1.919
 2170TIP3    H128069   5.681   1.260   1.855
 2170TIP3    H228070   5.809   1.340   1.873
 2171TIP3   OH228071   1.714   5.489   7.098
 2171TIP3    H128072   1.780   5.558   7.100
 2171TIP3    H228073   1.678   5.493   7.009
 2172TIP3   OH228074   2.716   4.700   7.844
 2172TIP3    H128075   2.695   4.656   7.761
 2172TIP3    H228076   2.811   4.691   7.852
 2173TIP3   OH228077   3.384   4.793   7.939
 2173TIP3    H128078   3.472   4.764   7.917
 2173TIP3    H228079   3.375   4.776   8.032
 2174TIP3   OH228080   6.291   6.852   6.152
 2174TIP3    H128081   6.335   6.883   6.232
 2174TIP3    H228082   6.308   0.009   6.088
 2175TIP3   OH228083   4.181   4.929   8.214
 2175TIP3    H128084   4.094   4.969   8.225
 2175TIP3    H228085   4.170   4.867   8.143
 2176TIP3   OH228086   0.307   2.951   0.407
 2176TIP3    H128087   0.243   3.012   0.444
 2176TIP3    H228088   0.282   2.943   0.315
 2177TIP3   OH228089   2.214   0.851   2.112
 2177TIP3    H128090   2.148   0.914   2.140
 2177TIP3    H228091   2.253   0.818   2.193
 2178TIP3   OH228092   6.769   6.102   1.126
 2178TIP3    H128093   6.719   6.023   1.148
 2178TIP3    H228094   6.753   6.116   1.033
 2179TIP3   OH228095   2.014   1.145   2.417
 2179TIP3    H128096   1.934   1.197   2.409
 2179TIP3    H228097   2.066   1.192   2.482
 2180TIP3   OH228098   5.101   6.783   8.494
 2180TIP3    H128099   5.039   6.856   8.494
 2180TIP3    H228100   5.118   6.766   8.401
 2181TIP3   OH228101   6.033   3.641   8.051
 2181TIP3    H128102   6.042   3.546   8.042
 2181TIP3    H228103   5.939   3.657   8.043
 2182TIP3   OH228104   4.055   2.507   1.738
 2182TIP3    H128105   4.077   2.430   1.790
 2182TIP3    H228106   4.042   2.472   1.650
 2183TIP3   OH228107   3.549   4.249   6.117
 2183TIP3    H128108   3.613   4.314   6.147
 2183TIP3    H228109   3.502   4.293   6.046
 2184TIP3   OH228110   1.711   3.784   0.329
 2184TIP3    H128111   1.760   3.824   0.400
 2184TIP3    H228112   1.620   3.781   0.361
 2185TIP3   OH228113   3.469   1.055   6.264
 2185TIP3    H128114   3.474   1.150   6.253
 2185TIP3    H228115   3.560   1.026   6.260
 2186TIP3   OH228116   5.048   0.780   0.780
 2186TIP3    H128117   4.954   0.763   0.769
 2186TIP3    H228118   5.073   0.729   0.857
 2187TIP3   OH228119   5.550   0.352   8.173
 2187TIP3    H128120   5.482   0.380   8.112
 2187TIP3    H228121   5.505   0.293   8.233
 2188TIP3   OH228122   0.163   0.129   0.778
 2188TIP3    H128123   0.156   0.194   0.848
 2188TIP3    H228124   0.255   0.133   0.752
 2189TIP3   OH228125   3.388   5.999   6.933
 2189TIP3    H128126   3.449   6.039   6.995
 2189TIP3    H228127   3.355   6.073   6.882
 2190TIP3   OH228128   1.133   5.310   7.407
 2190TIP3    H128129   1.055   5.322   7.461
 2190TIP3    H228130   1.202   5.290   7.470
 2191TIP3   OH228131   4.023   0.181   6.853
 2191TIP3    H128132   4.051   0.168   6.763
 2191TIP3    H228133   3.931   0.155   6.854
 2192TIP3   OH228134   1.083   1.958   7.237
 2192TIP3    H128135   1.176   1.949   7.215
 2192TIP3    H228136   1.060   1.875   7.279
 2193TIP3   OH228137   6.495   2.342   7.710
 2193TIP3    H128138   6.410   2.321   7.749
 2193TIP3    H228139   6.514   2.431   7.741
 2194TIP3   OH228140   6.288   3.623   1.321
 2194TIP3    H128141   6.211   3.679   1.312
 2194TIP3    H228142   6.318   3.608   1.231
 2195TIP3   OH228143   1.345   4.334   0.084
 2195TIP3    H128144   1.295   4.290   0.153
 2195TIP3    H228145   1.419   4.276   0.068
 2196TIP3   OH228146   2.911   3.129   8.412
 2196TIP3    H128147   2.954   3.066   8.355
 2196TIP3    H228148   2.904   3.084   8.497
 2197TIP3   OH228149   5.690   3.015   7.835
 2197TIP3    H128150   5.654   3.103   7.839
 2197TIP3    H228151   5.732   3.002   7.919
 2198TIP3   OH228152   6.307   0.220   7.727
 2198TIP3    H128153   6.220   0.254   7.704
 2198TIP3    H228154   6.363   0.297   7.727
 2199TIP3   OH228155   5.461   2.684   7.259
 2199TIP3    H128156   5.434   2.761   7.309
 2199TIP3    H228157   5.431   2.701   7.169
 2200TIP3   OH228158   4.287   0.339   7.244
 2200TIP3    H128159   4.294   0.338   7.149
 2200TIP3    H228160   4.283   0.247   7.269
 2201TIP3   OH228161   4.326   4.997   7.821
 2201TIP3    H128162   4.384   5.068   7.848
 2201TIP3    H228163   4.239   5.028   7.846
 2202TIP3   OH228164   1.238   0.398   8.580
 2202TIP3    H128165   1.274   0.440   8.503
 2202TIP3    H228166   1.151   0.368   8.552
 2203TIP3   OH228167   5.432   0.652   6.726
 2203TIP3    H128168   5.431   0.634   6.632
 2203TIP3    H228169   5.341   0.673   6.748
 2204TIP3   OH228170   4.331   4.305   7.996
 2204TIP3    H128171   4.289   4.353   7.925
 2204TIP3    H228172   4.262   4.248   8.031
 2205TIP3   OH228173   3.791   4.191   0.973
 2205TIP3    H128174   3.697   4.184   0.956
 2205TIP3    H228175   3.800   4.271   1.025
 2206TIP3   OH228176   2.578   1.244   8.149
 2206TIP3    H128177   2.566   1.283   8.062
 2206TIP3    H228178   2.502   1.187   8.159
 2207TIP3   OH228179   0.746   1.120   6.894
 2207TIP3    H128180   0.760   1.203   6.847
 2207TIP3    H228181   0.664   1.134   6.943
 2208TIP3   OH228182   5.848   2.592   7.944
 2208TIP3    H128183   5.930   2.558   7.980
 2208TIP3    H228184   5.792   2.605   8.020
 2209TIP3   OH228185   6.599   0.105   8.201
 2209TIP3    H128186   6.655   0.043   8.248
 2209TIP3    H228187   6.660   0.156   8.148
 2210TIP3   OH228188   6.455   6.551   2.017
 2210TIP3    H128189   6.413   6.634   1.995
 2210TIP3    H228190   6.528   6.543   1.956
 2211TIP3   OH228191   4.704   5.857   7.933
 2211TIP3    H128192   4.630   5.818   7.979
 2211TIP3    H228193   4.666   5.891   7.852
 2212TIP3   OH228194   1.502   5.823   0.840
 2212TIP3    H128195   1.521   5.878   0.764
 2212TIP3    H228196   1.565   5.751   0.834
 2213TIP3   OH228197   2.893   3.251   7.238
 2213TIP3    H128198   2.865   3.222   7.152
 2213TIP3    H228199   2.833   3.323   7.260
 2214TIP3   OH228200   4.143   4.061   2.226
 2214TIP3    H128201   4.069   4.038   2.283
 2214TIP3    H228202   4.157   4.155   2.241
 2215TIP3   OH228203   2.256   4.761   0.140
 2215TIP3    H128204   2.350   4.757   0.122
 2215TIP3    H228205   2.216   4.709   0.070
 2216TIP3   OH228206   1.940   0.189   7.026
 2216TIP3    H128207   1.970   0.220   7.111
 2216TIP3    H228208   2.013   0.207   6.967
 2217TIP3   OH228209   1.697   4.968   1.230
 2217TIP3    H128210   1.618   4.955   1.178
 2217TIP3    H228211   1.727   5.056   1.208
 2218TIP3   OH228212   5.118   3.563   7.869
 2218TIP3    H128213   5.078   3.532   7.788
 2218TIP3    H228214   5.210   3.538   7.861
 2219TIP3   OH228215   5.074   6.115   1.807
 2219TIP3    H128216   5.162   6.152   1.812
 2219TIP3    H228217   5.031   6.142   1.887
 2220TIP3   OH228218   3.582   1.401   7.365
 2220TIP3    H128219   3.512   1.376   7.305
 2220TIP3    H228220   3.623   1.477   7.324
 2221TIP3   OH228221   5.282   1.277   8.009
 2221TIP3    H128222   5.307   1.354   8.060
 2221TIP3    H228223   5.213   1.308   7.950
 2222TIP3   OH228224   4.434   3.362   8.600
 2222TIP3    H128225   4.458   3.435   0.054
 2222TIP3    H228226   4.368   3.398   8.542
 2223TIP3   OH228227   4.803   5.153   8.272
 2223TIP3    H128228   4.838   5.125   8.188
 2223TIP3    H228229   4.871   5.210   8.309
 2224TIP3   OH228230   4.374   0.555   7.510
 2224TIP3    H128231   4.296   0.508   7.540
 2224TIP3    H228232   4.435   0.486   7.483
 2225TIP3   OH228233   1.367   0.902   8.157
 2225TIP3    H128234   1.277   0.934   8.162
 2225TIP3    H228235   1.370   0.828   8.217
 2226TIP3   OH228236   2.732   4.158   7.912
 2226TIP3    H128237   2.820   4.188   7.935
 2226TIP3    H228238   2.702   4.112   7.991
 2227TIP3   OH228239   0.335   2.919   1.878
 2227TIP3    H128240   0.364   2.922   1.787
 2227TIP3    H228241   0.242   2.940   1.875
 2228TIP3   OH228242   6.302   0.591   6.809
 2228TIP3    H128243   6.284   0.668   6.756
 2228TIP3    H228244   6.346   0.530   6.750
 2229TIP3   OH228245   4.191   5.878   7.154
 2229TIP3    H128246   4.247   5.805   7.181
 2229TIP3    H228247   4.118   5.836   7.109
 2230TIP3   OH228248   5.078   5.867   0.164
 2230TIP3    H128249   5.156   5.920   0.180
 2230TIP3    H228250   5.087   5.793   0.223
 2231TIP3   OH228251   6.068   5.944   1.841
 2231TIP3    H128252   6.150   5.983   1.810
 2231TIP3    H228253   6.014   6.018   1.867
 2232TIP3   OH228254   5.034   2.933   6.846
 2232TIP3    H128255   5.118   2.945   6.891
 2232TIP3    H228256   5.026   2.838   6.836
 2233TIP3   OH228257   4.034   6.073   1.291
 2233TIP3    H128258   4.037   6.168   1.287
 2233TIP3    H228259   4.043   6.045   1.200
 2234TIP3   OH228260   2.780   0.595   0.202
 2234TIP3    H128261   2.768   0.685   0.170
 2234TIP3    H228262   2.770   0.602   0.297
 2235TIP3   OH228263   2.353   5.234   1.893
 2235TIP3    H128264   2.361   5.213   1.800
 2235TIP3    H228265   2.371   5.152   1.938
 2236TIP3   OH228266   1.302   3.071   7.053
 2236TIP3    H128267   1.391   3.048   7.027
 2236TIP3    H228268   1.255   3.081   6.970
 2237TIP3   OH228269   1.970   4.245   6.164
 2237TIP3    H128270   2.042   4.219   6.223
 2237TIP3    H228271   1.994   4.207   6.080
 2238TIP3   OH228272   0.903   5.082   0.694
 2238TIP3    H128273   0.854   5.031   0.629
 2238TIP3    H228274   0.919   5.020   0.765
 2239TIP3   OH228275   5.628   0.085   7.012
 2239TIP3    H128276   5.621   0.055   6.921
 2239TIP3    H228277   5.543   0.062   7.051
 2240TIP3   OH228278   6.076   6.196   7.287
 2240TIP3    H128279   6.107   6.156   7.206
 2240TIP3    H228280   6.094   6.290   7.276
 2241TIP3   OH228281   5.322   2.180   1.731
 2241TIP3    H128282   5.388   2.173   1.801
 2241TIP3    H228283   5.257   2.241   1.765
 2242TIP3   OH228284   6.241   0.822   0.784
 2242TIP3    H128285   6.271   0.883   0.851
 2242TIP3    H228286   6.150   0.847   0.768
 2243TIP3   OH228287   1.293   6.885   0.056
 2243TIP3    H128288   1.364   0.019   0.014
 2243TIP3    H228289   1.310   6.894   0.150
 2244TIP3   OH228290   1.992   2.366   8.313
 2244TIP3    H128291   2.010   2.430   8.245
 2244TIP3    H228292   2.032   2.402   8.392
 2245TIP3   OH228293   0.217   5.894   2.072
 2245TIP3    H128294   0.276   5.896   2.148
 2245TIP3    H228295   0.140   5.943   2.101
 2246TIP3   OH228296   2.647   1.943   0.146
 2246TIP3    H128297   2.553   1.962   0.137
 2246TIP3    H228298   2.652   1.878   0.215
 2247TIP3   OH228299   1.969   0.339   1.544
 2247TIP3    H128300   1.991   0.348   1.637
 2247TIP3    H228301   1.930   0.423   1.519
 2248TIP3   OH228302   5.796   1.378   0.567
 2248TIP3    H128303   5.716   1.419   0.602
 2248TIP3    H228304   5.823   1.435   0.496
 2249TIP3   OH228305   4.752   3.783   2.248
 2249TIP3    H128306   4.815   3.712   2.247
 2249TIP3    H228307   4.771   3.831   2.329
 2250TIP3   OH228308   2.498   3.811   8.373
 2250TIP3    H128309   2.425   3.750   8.385
 2250TIP3    H228310   2.507   3.820   8.278
 2251TIP3   OH228311   1.572   3.005   6.979
 2251TIP3    H128312   1.550   2.915   6.955
 2251TIP3    H228313   1.620   2.997   7.062
 2252TIP3   OH228314   4.763   0.152   8.551
 2252TIP3    H128315   4.696   0.117   8.493
 2252TIP3    H228316   4.841   0.159   8.496
 2253TIP3   OH228317   2.547   0.518   8.166
 2253TIP3    H128318   2.490   0.483   8.097
 2253TIP3    H228319   2.539   0.613   8.158
 2254TIP3   OH228320   6.867   2.461   0.272
 2254TIP3    H128321   6.819   2.466   0.355
 2254TIP3    H228322   6.871   2.368   0.252
 2255TIP3   OH228323   6.713   2.258   0.661
 2255TIP3    H128324   6.644   2.247   0.728
 2255TIP3    H228325   6.788   2.293   0.710
 2256TIP3   OH228326   3.986   2.078   7.791
 2256TIP3    H128327   3.931   2.083   7.869
 2256TIP3    H228328   4.013   1.987   7.786
 2257TIP3   OH228329   6.096   3.802   1.223
 2257TIP3    H128330   6.010   3.789   1.263
 2257TIP3    H228331   6.091   3.756   1.140
 2258TIP3   OH228332   2.986   6.363   0.704
 2258TIP3    H128333   3.036   6.292   0.743
 2258TIP3    H228334   2.922   6.319   0.647
 2259TIP3   OH228335   2.852   4.784   1.758
 2259TIP3    H128336   2.851   4.775   1.853
 2259TIP3    H228337   2.846   4.695   1.725
 2260TIP3   OH228338   4.422   4.350   6.812
 2260TIP3    H128339   4.372   4.302   6.879
 2260TIP3    H228340   4.365   4.351   6.736
 2261TIP3   OH228341   0.110   3.784   7.459
 2261TIP3    H128342   0.076   3.695   7.467
 2261TIP3    H228343   0.156   3.800   7.541
 2262TIP3   OH228344   2.489   4.469   7.098
 2262TIP3    H128345   2.504   4.406   7.028
 2262TIP3    H228346   2.522   4.552   7.064
 2263TIP3   OH228347   6.648   3.346   0.066
 2263TIP3    H128348   6.699   3.420   0.033
 2263TIP3    H228349   6.558   3.378   0.068
 2264TIP3   OH228350   6.666   0.219   0.646
 2264TIP3    H128351   6.692   0.307   0.618
 2264TIP3    H228352   6.575   0.229   0.674
 2265TIP3   OH228353   3.165   3.165   1.494
 2265TIP3    H128354   3.151   3.071   1.481
 2265TIP3    H228355   3.231   3.188   1.429
 2266TIP3   OH228356   1.140   2.416   7.483
 2266TIP3    H128357   1.166   2.502   7.451
 2266TIP3    H228358   1.119   2.366   7.404
 2267TIP3   OH228359   6.769   3.478   1.285
 2267TIP3    H128360   6.757   3.524   1.203
 2267TIP3    H228361   6.834   3.411   1.266
 2268TIP3   OH228362   6.385   0.906   8.271
 2268TIP3    H128363   6.356   0.936   8.184
 2268TIP3    H228364   6.399   0.812   8.260
 2269TIP3   OH228365   0.225   6.097   6.958
 2269TIP3    H128366   0.134   6.127   6.956
 2269TIP3    H228367   0.233   6.053   7.043
 2270TIP3   OH228368   4.298   0.039   0.380
 2270TIP3    H128369   4.339   6.902   0.309
 2270TIP3    H228370   4.296   0.129   0.349
 2271TIP3   OH228371   3.701   5.169   0.034
 2271TIP3    H128372   3.771   5.204   8.582
 2271TIP3    H228373   3.638   5.133   8.574
 2272TIP3   OH228374   4.376   1.682   6.795
 2272TIP3    H128375   4.293   1.634   6.789
 2272TIP3    H228376   4.400   1.700   6.705
 2273TIP3   OH228377   4.134   3.676   8.283
 2273TIP3    H128378   4.157   3.767   8.299
 2273TIP3    H228379   4.192   3.649   8.211
 2274TIP3   OH228380   3.339   4.772   8.484
 2274TIP3    H128381   3.347   4.682   8.516
 2274TIP3    H228382   3.276   4.813   8.543
 2275TIP3   OH228383   0.516   6.106   6.707
 2275TIP3    H128384   0.540   6.174   6.769
 2275TIP3    H228385   0.468   6.151   6.638
 2276TIP3   OH228386   3.139   6.883   1.139
 2276TIP3    H128387   3.166   0.051   1.184
 2276TIP3    H228388   3.068   6.848   1.193
 2277TIP3   OH228389   2.411   2.899   7.263
 2277TIP3    H128390   2.496   2.941   7.255
 2277TIP3    H228391   2.350   2.960   7.220
 2278TIP3   OH228392   5.048   4.136   7.999
 2278TIP3    H128393   5.123   4.120   8.057
 2278TIP3    H228394   4.981   4.174   8.056
 2279TIP3   OH228395   6.479   0.655   8.544
 2279TIP3    H128396   6.545   0.724   8.533
 2279TIP3    H228397   6.480   0.636   0.034
 2280TIP3   OH228398   2.827   3.539   8.445
 2280TIP3    H128399   2.818   3.625   8.485
 2280TIP3    H228400   2.743   3.496   8.461
 2281TIP3   OH228401   0.415   6.058   1.920
 2281TIP3    H128402   0.361   6.021   1.990
 2281TIP3    H228403   0.500   6.075   1.961
 2282TIP3   OH228404   1.716   0.839   6.701
 2282TIP3    H128405   1.698   0.775   6.632
 2282TIP3    H228406   1.789   0.801   6.751
 2283TIP3   OH228407   2.652   4.576   7.360
 2283TIP3    H128408   2.669   4.518   7.285
 2283TIP3    H228409   2.675   4.523   7.436
 2284TIP3   OH228410   3.504   4.769   7.637
 2284TIP3    H128411   3.485   4.857   7.606
 2284TIP3    H228412   3.481   4.712   7.564
 2285TIP3   OH228413   2.171   2.422   0.711
 2285TIP3    H128414   2.223   2.368   0.771
 2285TIP3    H228415   2.227   2.434   0.634
 2286TIP3   OH228416   4.339   4.589   6.467
 2286TIP3    H128417   4.420   4.541   6.450
 2286TIP3    H228418   4.367   4.669   6.511
 2287TIP3   OH228419   2.145   6.188   0.101
 2287TIP3    H128420   2.059   6.151   0.081
 2287TIP3    H228421   2.200   6.113   0.122
 2288TIP3   OH228422   6.611   5.600   1.443
 2288TIP3    H128423   6.557   5.542   1.497
 2288TIP3    H228424   6.585   5.579   1.353
 2289TIP3   OH228425   6.588   0.868   7.861
 2289TIP3    H128426   6.605   0.812   7.937
 2289TIP3    H228427   6.650   0.837   7.795
 2290TIP3   OH228428   1.369   6.286   7.643
 2290TIP3    H128429   1.319   6.343   7.583
 2290TIP3    H228430   1.355   6.198   7.609
 2291TIP3   OH228431   4.139   3.363   7.541
 2291TIP3    H128432   4.226   3.352   7.503
 2291TIP3    H228433   4.148   3.439   7.599
 2292TIP3   OH228434   2.314   2.015   1.654
 2292TIP3    H128435   2.345   1.981   1.738
 2292TIP3    H228436   2.384   2.073   1.624
 2293TIP3   OH228437   5.883   4.171   7.217
 2293TIP3    H128438   5.879   4.125   7.300
 2293TIP3    H228439   5.815   4.129   7.163
 2294TIP3   OH228440   0.967   0.253   6.659
 2294TIP3    H128441   0.876   0.251   6.630
 2294TIP3    H228442   1.017   0.277   6.581
 2295TIP3   OH228443   1.272   2.633   0.192
 2295TIP3    H128444   1.340   2.565   0.191
 2295TIP3    H228445   1.189   2.585   0.192
 2296TIP3   OH228446   5.791   2.205   2.126
 2296TIP3    H128447   5.720   2.145   2.105
 2296TIP3    H228448   5.870   2.152   2.119
 2297TIP3   OH228449   5.354   1.082   0.250
 2297TIP3    H128450   5.295   1.049   0.183
 2297TIP3    H228451   5.297   1.108   0.322
 2298TIP3   OH228452   6.353   0.282   7.065
 2298TIP3    H128453   6.326   0.374   7.060
 2298TIP3    H228454   6.274   0.235   7.092
 2299TIP3   OH228455   5.732   1.982   6.380
 2299TIP3    H128456   5.773   2.020   6.302
 2299TIP3    H228457   5.729   2.053   6.443
 2300TIP3   OH228458   5.915   3.077   2.557
 2300TIP3    H128459   5.947   3.098   2.469
 2300TIP3    H228460   5.948   3.148   2.612
 2301TIP3   OH228461   0.587   5.664   6.686
 2301TIP3    H128462   0.619   5.729   6.624
 2301TIP3    H228463   0.584   5.583   6.636
 2302TIP3   OH228464   6.203   6.611   1.817
 2302TIP3    H128465   6.256   6.687   1.793
 2302TIP3    H228466   6.243   6.538   1.770
 2303TIP3   OH228467   6.625   0.649   7.301
 2303TIP3    H128468   6.567   0.675   7.230
 2303TIP3    H228469   6.567   0.626   7.373
 2304TIP3   OH228470   4.792   1.338   0.046
 2304TIP3    H128471   4.832   1.414   0.089
 2304TIP3    H228472   4.716   1.372   0.001
 2305TIP3   OH228473   3.957   0.282   8.302
 2305TIP3    H128474   3.938   0.374   8.286
 2305TIP3    H228475   3.907   0.260   8.380
 2306TIP3   OH228476   2.626   4.567   1.002
 2306TIP3    H128477   2.534   4.541   0.996
 2306TIP3    H228478   2.647   4.558   1.095
 2307TIP3   OH228479   6.202   5.789   7.035
 2307TIP3    H128480   6.247   5.773   6.952
 2307TIP3    H228481   6.270   5.784   7.102
 2308TIP3   OH228482   2.711   2.044   2.177
 2308TIP3    H128483   2.728   1.994   2.097
 2308TIP3    H228484   2.632   2.095   2.158
 2309TIP3   OH228485   3.393   5.662   8.197
 2309TIP3    H128486   3.312   5.662   8.249
 2309TIP3    H228487   3.443   5.736   8.230
 2310TIP3   OH228488   5.682   2.904   1.604
 2310TIP3    H128489   5.612   2.953   1.646
 2310TIP3    H228490   5.649   2.886   1.516
 2311TIP3   OH228491   6.870   5.856   7.684
 2311TIP3    H128492   0.034   5.832   7.737
 2311TIP3    H228493   6.887   5.947   7.658
 2312TIP3   OH228494   3.433   4.959   7.436
 2312TIP3    H128495   3.510   4.970   7.381
 2312TIP3    H228496   3.367   5.017   7.396
 2313TIP3   OH228497   3.194   2.487   2.193
 2313TIP3    H128498   3.260   2.525   2.251
 2313TIP3    H228499   3.208   2.531   2.109
 2314TIP3   OH228500   2.038   5.895   8.360
 2314TIP3    H128501   2.020   5.986   8.381
 2314TIP3    H228502   2.133   5.887   8.360
 2315TIP3   OH228503   2.985   2.433   2.007
 2315TIP3    H128504   3.031   2.509   1.970
 2315TIP3    H228505   3.029   2.417   2.091
 2316TIP3   OH228506   6.424   6.837   8.585
 2316TIP3    H128507   6.415   0.010   8.543
 2316TIP3    H228508   6.428   6.856   0.076
 2317TIP3   OH228509   3.105   3.599   7.611
 2317TIP3    H128510   3.175   3.546   7.650
 2317TIP3    H228511   3.116   3.686   7.650
 2318TIP3   OH228512   1.695   6.754   0.785
 2318TIP3    H128513   1.757   6.697   0.832
 2318TIP3    H228514   1.694   6.835   0.836
 2319TIP3   OH228515   5.359   1.962   1.259
 2319TIP3    H128516   5.343   2.017   1.335
 2319TIP3    H228517   5.448   1.929   1.271
 2320TIP3   OH228518   4.949   6.790   1.645
 2320TIP3    H128519   4.879   6.822   1.701
 2320TIP3    H228520   4.972   6.704   1.680
 2321TIP3   OH228521   1.794   2.587   6.969
 2321TIP3    H128522   1.801   2.537   6.888
 2321TIP3    H228523   1.885   2.595   7.000
 2322TIP3   OH228524   6.640   2.034   1.425
 2322TIP3    H128525   6.553   2.073   1.435
 2322TIP3    H228526   6.624   1.940   1.418
 2323TIP3   OH228527   0.904   3.438   7.414
 2323TIP3    H128528   0.858   3.447   7.330
 2323TIP3    H228529   0.958   3.517   7.420
 2324TIP3   OH228530   1.020   6.260   1.443
 2324TIP3    H128531   1.027   6.231   1.352
 2324TIP3    H228532   1.051   6.185   1.495
 2325TIP3   OH228533   0.417   3.372   0.953
 2325TIP3    H128534   0.428   3.309   0.882
 2325TIP3    H228535   0.453   3.454   0.918
 2326TIP3   OH228536   6.852   6.233   6.988
 2326TIP3    H128537   6.788   6.164   7.003
 2326TIP3    H228538   6.866   6.273   7.074
 2327TIP3   OH228539   5.029   2.847   0.356
 2327TIP3    H128540   5.013   2.931   0.314
 2327TIP3    H228541   4.979   2.784   0.304
 2328TIP3   OH228542   5.929   4.938   7.721
 2328TIP3    H128543   5.971   4.885   7.789
 2328TIP3    H228544   5.840   4.903   7.715
 2329TIP3   OH228545   0.009   6.110   6.741
 2329TIP3    H128546   6.865   6.167   6.793
 2329TIP3    H228547   0.045   6.167   6.673
 2330TIP3   OH228548   1.229   3.312   1.380
 2330TIP3    H128549   1.216   3.268   1.296
 2330TIP3    H228550   1.279   3.391   1.359
 2331TIP3   OH228551   0.730   1.247   7.967
 2331TIP3    H128552   0.731   1.151   7.963
 2331TIP3    H228553   0.796   1.274   7.902
 2332TIP3   OH228554   6.903   6.380   1.847
 2332TIP3    H128555   0.056   6.377   1.777
 2332TIP3    H228556   0.028   6.325   1.916
 2333TIP3   OH228557   6.606   0.852   0.740
 2333TIP3    H128558   6.530   0.821   0.691
 2333TIP3    H228559   6.656   0.904   0.677
 2334TIP3   OH228560   3.579   0.307   8.437
 2334TIP3    H128561   3.603   0.399   8.430
 2334TIP3    H228562   3.616   0.279   8.521
 2335TIP3   OH228563   2.071   5.257   6.876
 2335TIP3    H128564   2.026   5.253   6.960
 2335TIP3    H228565   2.106   5.169   6.864
 2336TIP3   OH228566   0.413   0.155   0.526
 2336TIP3    H128567   0.463   0.174   0.605
 2336TIP3    H228568   0.419   0.060   0.516
 2337TIP3   OH228569   6.538   1.900   0.796
 2337TIP3    H128570   6.513   1.992   0.792
 2337TIP3    H228571   6.628   1.901   0.831
 2338TIP3   OH228572   6.564   2.299   6.891
 2338TIP3    H128573   6.613   2.271   6.814
 2338TIP3    H228574   6.570   2.395   6.890
 2339TIP3   OH228575   0.315   4.154   6.168
 2339TIP3    H128576   0.303   4.066   6.133
 2339TIP3    H228577   0.399   4.151   6.214
 2340TIP3   OH228578   0.673   5.707   6.304
 2340TIP3    H128579   0.739   5.738   6.243
 2340TIP3    H228580   0.720   5.697   6.387
 2341TIP3   OH228581   5.136   0.239   2.596
 2341TIP3    H128582   5.053   0.284   2.608
 2341TIP3    H228583   5.114   0.146   2.602
 2342TIP3   OH228584   6.682   3.705   1.878
 2342TIP3    H128585   6.600   3.689   1.926
 2342TIP3    H228586   6.683   3.800   1.864
 2343TIP3   OH228587   5.803   1.863   8.291
 2343TIP3    H128588   5.710   1.852   8.315
 2343TIP3    H228589   5.842   1.777   8.307
 2344TIP3   OH228590   2.350   0.615   0.759
 2344TIP3    H128591   2.402   0.589   0.835
 2344TIP3    H228592   2.292   0.684   0.792
 2345TIP3   OH228593   4.414   6.326   8.015
 2345TIP3    H128594   4.424   6.337   8.109
 2345TIP3    H228595   4.489   6.272   7.989
 2346TIP3   OH228596   1.920   4.048   8.158
 2346TIP3    H128597   1.941   4.040   8.251
 2346TIP3    H228598   1.980   3.987   8.115
 2347TIP3   OH228599   4.620   3.123   7.005
 2347TIP3    H128600   4.540   3.129   7.057
 2347TIP3    H228601   4.675   3.194   7.037
 2348TIP3   OH228602   1.623   0.289   0.765
 2348TIP3    H128603   1.692   0.236   0.804
 2348TIP3    H228604   1.542   0.244   0.786
 2349TIP3   OH228605   3.811   4.189   7.062
 2349TIP3    H128606   3.836   4.270   7.106
 2349TIP3    H228607   3.804   4.125   7.133
 2350TIP3   OH228608   5.499   5.447   0.634
 2350TIP3    H128609   5.530   5.510   0.699
 2350TIP3    H228610   5.538   5.476   0.551
 2351TIP3   OH228611   0.760   0.580   7.328
 2351TIP3    H128612   0.813   0.506   7.299
 2351TIP3    H228613   0.792   0.654   7.277
 2352TIP3   OH228614   5.774   3.544   1.902
 2352TIP3    H128615   5.764   3.463   1.852
 2352TIP3    H228616   5.709   3.603   1.865
 2353TIP3   OH228617   0.614   3.210   8.299
 2353TIP3    H128618   0.672   3.185   8.372
 2353TIP3    H228619   0.672   3.219   8.224
 2354TIP3   OH228620   6.904   4.320   1.237
 2354TIP3    H128621   6.809   4.333   1.232
 2354TIP3    H228622   0.008   4.247   1.177
 2355TIP3   OH228623   4.967   2.653   7.934
 2355TIP3    H128624   4.913   2.584   7.972
 2355TIP3    H228625   4.911   2.693   7.867
 2356TIP3   OH228626   0.720   0.694   6.403
 2356TIP3    H128627   0.721   0.685   6.308
 2356TIP3    H228628   0.760   0.613   6.435
 2357TIP3   OH228629   1.939   1.563   8.182
 2357TIP3    H128630   2.025   1.575   8.142
 2357TIP3    H228631   1.949   1.487   8.239
 2358TIP3   OH228632   4.815   3.871   6.626
 2358TIP3    H128633   4.767   3.872   6.543
 2358TIP3    H228634   4.836   3.963   6.643
 2359TIP3   OH228635   3.955   4.263   0.551
 2359TIP3    H128636   3.991   4.264   0.640
 2359TIP3    H228637   3.999   4.334   0.506
 2360TIP3   OH228638   1.530   2.484   8.356
 2360TIP3    H128639   1.575   2.401   8.373
 2360TIP3    H228640   1.599   2.544   8.327
 2361TIP3   OH228641   6.010   2.788   6.157
 2361TIP3    H128642   5.919   2.764   6.135
 2361TIP3    H228643   6.007   2.884   6.167
 2362TIP3   OH228644   2.700   5.853   8.557
 2362TIP3    H128645   2.689   5.765   8.593
 2362TIP3    H228646   2.794   5.871   8.567
 2363TIP3   OH228647   2.826   5.297   7.892
 2363TIP3    H128648   2.797   5.262   7.977
 2363TIP3    H228649   2.822   5.221   7.833
 2364TIP3   OH228650   4.239   0.782   0.533
 2364TIP3    H128651   4.294   0.854   0.502
 2364TIP3    H228652   4.151   0.806   0.507
 2365TIP3   OH228653   0.004   4.451   8.030
 2365TIP3    H128654   6.858   4.386   7.990
 2365TIP3    H228655   6.858   4.516   8.067
 2366TIP3   OH228656   6.830   2.499   7.835
 2366TIP3    H128657   6.849   2.483   7.743
 2366TIP3    H228658   6.745   2.544   7.834
 2367TIP3   OH228659   1.679   4.672   0.129
 2367TIP3    H128660   1.725   4.743   0.174
 2367TIP3    H228661   1.683   4.696   0.036
 2368TIP3   OH228662   4.159   6.674   7.825
 2368TIP3    H128663   4.099   6.671   7.899
 2368TIP3    H228664   4.192   6.584   7.817
 2369TIP3   OH228665   1.931   5.699   8.008
 2369TIP3    H128666   2.000   5.671   8.068
 2369TIP3    H228667   1.855   5.712   8.063
 2370TIP3   OH228668   2.433   5.549   7.694
 2370TIP3    H128669   2.420   5.457   7.674
 2370TIP3    H228670   2.525   5.556   7.720
 2371TIP3   OH228671   2.793   4.760   6.526
 2371TIP3    H128672   2.766   4.806   6.447
 2371TIP3    H228673   2.886   4.743   6.514
 2372TIP3   OH228674   6.664   1.244   7.541
 2372TIP3    H128675   6.630   1.333   7.551
 2372TIP3    H228676   6.717   1.247   7.462
 2373TIP3   OH228677   2.844   1.666   0.973
 2373TIP3    H128678   2.779   1.725   0.935
 2373TIP3    H228679   2.918   1.669   0.912
 2374TIP3   OH228680   2.698   3.017   2.131
 2374TIP3    H128681   2.647   2.936   2.133
 2374TIP3    H228682   2.633   3.086   2.113
 2375TIP3   OH228683   5.478   4.330   7.714
 2375TIP3    H128684   5.433   4.247   7.697
 2375TIP3    H228685   5.424   4.372   7.781
 2376TIP3   OH228686   2.831   3.342   2.259
 2376TIP3    H128687   2.846   3.264   2.205
 2376TIP3    H228688   2.798   3.308   2.342
 2377TIP3   OH228689   0.613   4.911   0.239
 2377TIP3    H128690   0.570   4.955   0.165
 2377TIP3    H228691   0.597   4.967   0.314
 2378TIP3   OH228692   4.515   4.253   1.111
 2378TIP3    H128693   4.434   4.256   1.060
 2378TIP3    H228694   4.496   4.306   1.188
 2379TIP3   OH228695   3.565   2.337   1.135
 2379TIP3    H128696   3.531   2.378   1.215
 2379TIP3    H228697   3.503   2.268   1.115
 2380TIP3   OH228698   1.896   4.591   7.058
 2380TIP3    H128699   1.811   4.547   7.061
 2380TIP3    H228700   1.884   4.670   7.110
 2381TIP3   OH228701   5.200   5.552   1.746
 2381TIP3    H128702   5.155   5.588   1.822
 2381TIP3    H228703   5.278   5.510   1.782
 2382TIP3   OH228704   0.622   1.582   8.422
 2382TIP3    H128705   0.684   1.552   8.488
 2382TIP3    H228706   0.576   1.502   8.395
 2383TIP3   OH228707   1.734   1.811   1.628
 2383TIP3    H128708   1.773   1.871   1.564
 2383TIP3    H228709   1.755   1.849   1.713
 2384TIP3   OH228710   4.721   5.897   0.012
 2384TIP3    H128711   4.689   5.973   8.565
 2384TIP3    H228712   4.804   5.874   8.574
 2385TIP3   OH228713   0.262   1.504   7.700
 2385TIP3    H128714   0.266   1.574   7.765
 2385TIP3    H228715   0.169   1.487   7.689
 2386TIP3   OH228716   5.460   3.725   8.363
 2386TIP3    H128717   5.458   3.636   8.399
 2386TIP3    H228718   5.471   3.781   8.439
 2387TIP3   OH228719   0.879   4.693   8.562
 2387TIP3    H128720   0.947   4.678   8.496
 2387TIP3    H228721   0.854   4.785   8.549
 2388TIP3   OH228722   1.171   4.677   7.533
 2388TIP3    H128723   1.236   4.712   7.473
 2388TIP3    H228724   1.197   4.710   7.619
 2389TIP3   OH228725   0.848   4.289   0.943
 2389TIP3    H128726   0.816   4.226   0.878
 2389TIP3    H228727   0.791   4.365   0.933
 2390TIP3   OH228728   2.270   2.758   7.841
 2390TIP3    H128729   2.345   2.798   7.798
 2390TIP3    H228730   2.306   2.717   7.920
 2391TIP3   OH228731   3.419   5.735   6.942
 2391TIP3    H128732   3.509   5.721   6.911
 2391TIP3    H228733   3.405   5.829   6.933
 2392TIP3   OH228734   1.369   6.511   7.815
 2392TIP3    H128735   1.359   6.429   7.766
 2392TIP3    H228736   1.394   6.575   7.749
 2393TIP3   OH228737   5.512   1.473   1.932
 2393TIP3    H128738   5.603   1.447   1.943
 2393TIP3    H228739   5.503   1.550   1.989
 2394TIP3   OH228740   4.580   1.228   6.635
 2394TIP3    H128741   4.610   1.140   6.658
 2394TIP3    H228742   4.515   1.214   6.566
 2395TIP3   OH228743   0.319   2.244   1.726
 2395TIP3    H128744   0.277   2.327   1.705
 2395TIP3    H228745   0.376   2.264   1.801
 2396TIP3   OH228746   5.232   5.410   6.987
 2396TIP3    H128747   5.275   5.443   6.908
 2396TIP3    H228748   5.215   5.318   6.968
 2397TIP3   OH228749   3.029   0.207   0.916
 2397TIP3    H128750   3.051   0.298   0.935
 2397TIP3    H228751   2.934   0.207   0.904
 2398TIP3   OH228752   4.575   6.655   7.665
 2398TIP3    H128753   4.520   6.578   7.653
 2398TIP3    H228754   4.581   6.695   7.578
 2399TIP3   OH228755   5.655   0.248   0.585
 2399TIP3    H128756   5.683   0.177   0.642
 2399TIP3    H228757   5.678   0.219   0.496
 2400TIP3   OH228758   4.563   1.895   0.787
 2400TIP3    H128759   4.487   1.932   0.741
 2400TIP3    H228760   4.567   1.944   0.869
 2401TIP3   OH228761   1.368   4.332   7.509
 2401TIP3    H128762   1.325   4.258   7.465
 2401TIP3    H228763   1.326   4.336   7.595
 2402TIP3   OH228764   4.209   4.388   6.605
 2402TIP3    H128765   4.246   4.455   6.548
 2402TIP3    H228766   4.170   4.324   6.544
 2403TIP3   OH228767   1.142   6.037   7.832
 2403TIP3    H128768   1.134   5.985   7.911
 2403TIP3    H228769   1.069   6.098   7.834
 2404TIP3   OH228770   3.787   0.812   8.249
 2404TIP3    H128771   3.750   0.850   8.169
 2404TIP3    H228772   3.720   0.827   8.316
 2405TIP3   OH228773   3.668   6.455   0.744
 2405TIP3    H128774   3.636   6.430   0.830
 2405TIP3    H228775   3.611   6.409   0.682
 2406TIP3   OH228776   5.525   3.030   6.939
 2406TIP3    H128777   5.551   3.026   7.031
 2406TIP3    H228778   5.582   3.097   6.901
 2407TIP3   OH228779   4.467   1.117   1.194
 2407TIP3    H128780   4.531   1.159   1.251
 2407TIP3    H228781   4.518   1.083   1.121
 2408TIP3   OH228782   5.751   4.424   8.504
 2408TIP3    H128783   5.766   4.494   8.568
 2408TIP3    H228784   5.837   4.411   8.463
 2409TIP3   OH228785   1.589   2.988   6.664
 2409TIP3    H128786   1.621   2.910   6.619
 2409TIP3    H228787   1.643   2.994   6.743
 2410TIP3   OH228788   6.698   3.432   7.665
 2410TIP3    H128789   6.674   3.350   7.710
 2410TIP3    H228790   6.728   3.490   7.735
 2411TIP3   OH228791   1.719   3.405   0.487
 2411TIP3    H128792   1.730   3.435   0.578
 2411TIP3    H228793   1.667   3.473   0.445
 2412TIP3   OH228794   3.555   3.509   0.250
 2412TIP3    H128795   3.597   3.487   0.333
 2412TIP3    H228796   3.619   3.565   0.206
 2413TIP3   OH228797   3.037   3.737   6.730
 2413TIP3    H128798   3.036   3.828   6.700
 2413TIP3    H228799   3.073   3.687   6.657
 2414TIP3   OH228800   3.607   0.278   0.119
 2414TIP3    H128801   3.608   0.356   0.175
 2414TIP3    H228802   3.594   0.206   0.181
 2415TIP3   OH228803   2.880   0.909   7.284
 2415TIP3    H128804   2.847   0.866   7.206
 2415TIP3    H228805   2.802   0.943   7.329
 2416TIP3   OH228806   1.018   4.892   8.404
 2416TIP3    H128807   0.933   4.932   8.420
 2416TIP3    H228808   1.008   4.846   8.321
 2417TIP3   OH228809   3.529   1.931   7.201
 2417TIP3    H128810   3.534   1.969   7.113
 2417TIP3    H228811   3.615   1.949   7.240
 2418TIP3   OH228812   2.944   6.150   7.510
 2418TIP3    H128813   2.904   6.110   7.588
 2418TIP3    H228814   3.007   6.213   7.546
 2419TIP3   OH228815   2.898   3.901   0.825
 2419TIP3    H128816   2.844   3.976   0.800
 2419TIP3    H228817   2.859   3.827   0.780
 2420TIP3   OH228818   4.298   5.230   0.924
 2420TIP3    H128819   4.307   5.296   0.992
 2420TIP3    H228820   4.315   5.277   0.843
 2421TIP3   OH228821   1.390   0.092   6.872
 2421TIP3    H128822   1.449   0.163   6.896
 2421TIP3    H228823   1.382   0.098   6.777
 2422TIP3   OH228824   4.158   6.208   6.337
 2422TIP3    H128825   4.077   6.258   6.343
 2422TIP3    H228826   4.137   6.124   6.379
 2423TIP3   OH228827   3.684   6.073   1.273
 2423TIP3    H128828   3.754   6.036   1.326
 2423TIP3    H228829   3.616   6.006   1.272
 2424TIP3   OH228830   0.556   4.981   1.342
 2424TIP3    H128831   0.600   5.062   1.367
 2424TIP3    H228832   0.561   4.980   1.246
 2425TIP3   OH228833   5.130   1.697   1.279
 2425TIP3    H128834   5.138   1.644   1.358
 2425TIP3    H228835   5.095   1.781   1.309
 2426TIP3   OH228836   4.834   3.801   7.048
 2426TIP3    H128837   4.824   3.782   6.954
 2426TIP3    H228838   4.876   3.887   7.050
 2427TIP3   OH228839   4.262   5.601   7.971
 2427TIP3    H128840   4.237   5.607   8.063
 2427TIP3    H228841   4.315   5.522   7.966
 2428TIP3   OH228842   3.670   1.647   2.259
 2428TIP3    H128843   3.760   1.668   2.285
 2428TIP3    H228844   3.617   1.672   2.335
 2429TIP3   OH228845   0.038   3.495   7.483
 2429TIP3    H128846   6.876   3.502   7.543
 2429TIP3    H228847   0.016   3.421   7.426
 2430TIP3   OH228848   2.234   6.309   7.343
 2430TIP3    H128849   2.281   6.225   7.338
 2430TIP3    H228850   2.240   6.345   7.255
 2431TIP3   OH228851   2.482   3.949   0.812
 2431TIP3    H128852   2.497   3.858   0.840
 2431TIP3    H228853   2.544   4.000   0.864
 2432TIP3   OH228854   0.228   4.957   0.704
 2432TIP3    H128855   0.266   5.036   0.666
 2432TIP3    H228856   0.199   4.906   0.629
 2433TIP3   OH228857   0.849   1.151   8.515
 2433TIP3    H128858   0.862   1.056   8.514
 2433TIP3    H228859   0.860   1.178   8.424
 2434TIP3   OH228860   3.702   0.380   7.217
 2434TIP3    H128861   3.730   0.457   7.166
 2434TIP3    H228862   3.772   0.368   7.281
 2435TIP3   OH228863   4.546   1.811   1.478
 2435TIP3    H128864   4.537   1.737   1.418
 2435TIP3    H228865   4.468   1.807   1.533
 2436TIP3   OH228866   1.447   3.788   0.435
 2436TIP3    H128867   1.457   3.771   0.529
 2436TIP3    H228868   1.445   3.883   0.428
 2437TIP3   OH228869   5.311   0.861   2.156
 2437TIP3    H128870   5.336   0.807   2.231
 2437TIP3    H228871   5.231   0.820   2.123
 2438TIP3   OH228872   6.000   2.927   6.659
 2438TIP3    H128873   5.914   2.926   6.617
 2438TIP3    H228874   5.982   2.949   6.750
 2439TIP3   OH228875   0.700   1.026   7.453
 2439TIP3    H128876   0.629   0.961   7.452
 2439TIP3    H228877   0.779   0.976   7.473
 2440TIP3   OH228878   0.021   5.368   0.653
 2440TIP3    H128879   0.087   5.320   0.703
 2440TIP3    H228880   6.851   5.350   0.699
 2441TIP3   OH228881   2.456   1.664   0.095
 2441TIP3    H128882   2.413   1.749   0.085
 2441TIP3    H228883   2.549   1.683   0.086
 2442TIP3   OH228884   0.460   0.458   6.526
 2442TIP3    H128885   0.397   0.521   6.560
 2442TIP3    H228886   0.521   0.443   6.599
 2443TIP3   OH228887   6.311   4.403   1.946
 2443TIP3    H128888   6.398   4.397   1.987
 2443TIP3    H228889   6.274   4.316   1.957
 2444TIP3   OH228890   3.276   3.531   7.814
 2444TIP3    H128891   3.220   3.516   7.890
 2444TIP3    H228892   3.336   3.456   7.814
 2445TIP3   OH228893   0.375   6.820   0.889
 2445TIP3    H128894   0.391   6.910   0.917
 2445TIP3    H228895   0.299   6.792   0.941
 2446TIP3   OH228896   2.224   3.462   1.267
 2446TIP3    H128897   2.234   3.556   1.252
 2446TIP3    H228898   2.144   3.455   1.320
 2447TIP3   OH228899   2.171   5.300   2.120
 2447TIP3    H128900   2.247   5.279   2.066
 2447TIP3    H228901   2.205   5.361   2.186
 2448TIP3   OH228902   3.036   1.500   1.945
 2448TIP3    H128903   3.063   1.484   1.854
 2448TIP3    H228904   3.002   1.416   1.975
 2449TIP3   OH228905   2.984   4.144   6.176
 2449TIP3    H128906   2.943   4.129   6.261
 2449TIP3    H228907   2.983   4.058   6.134
 2450TIP3   OH228908   5.002   5.139   0.584
 2450TIP3    H128909   5.066   5.097   0.526
 2450TIP3    H228910   5.033   5.119   0.672
 2451TIP3   OH228911   1.380   0.378   1.065
 2451TIP3    H128912   1.418   0.291   1.079
 2451TIP3    H228913   1.318   0.388   1.138
 2452TIP3   OH228914   4.410   4.047   7.725
 2452TIP3    H128915   4.475   4.092   7.778
 2452TIP3    H228916   4.356   4.117   7.688
 2453TIP3   OH228917   1.242   3.413   7.480
 2453TIP3    H128918   1.257   3.321   7.456
 2453TIP3    H228919   1.158   3.435   7.440
 2454TIP3   OH228920   2.012   5.782   6.979
 2454TIP3    H128921   2.095   5.735   6.990
 2454TIP3    H228922   1.958   5.752   7.052
 2455TIP3   OH228923   5.113   2.361   1.784
 2455TIP3    H128924   5.098   2.376   1.877
 2455TIP3    H228925   5.102   2.448   1.744
 2456TIP3   OH228926   4.552   4.749   7.069
 2456TIP3    H128927   4.545   4.818   7.135
 2456TIP3    H228928   4.590   4.793   6.993
 2457TIP3   OH228929   6.822   0.523   2.054
 2457TIP3    H128930   6.888   0.464   2.090
 2457TIP3    H228931   6.758   0.533   2.124
 2458TIP3   OH228932   1.184   1.113   0.877
 2458TIP3    H128933   1.148   1.051   0.941
 2458TIP3    H228934   1.112   1.126   0.815
 2459TIP3   OH228935   4.188   0.951   7.715
 2459TIP3    H128936   4.177   1.016   7.646
 2459TIP3    H228937   4.197   1.002   7.795
 2460TIP3   OH228938   5.966   3.923   8.580
 2460TIP3    H128939   5.970   3.870   8.501
 2460TIP3    H228940   5.926   4.006   8.552
 2461TIP3   OH228941   5.304   3.858   7.665
 2461TIP3    H128942   5.315   3.892   7.577
 2461TIP3    H228943   5.389   3.870   7.707
 2462TIP3   OH228944   3.626   6.335   1.549
 2462TIP3    H128945   3.639   6.405   1.613
 2462TIP3    H228946   3.539   6.300   1.569
 2463TIP3   OH228947   1.800   2.987   0.648
 2463TIP3    H128948   1.886   3.029   0.642
 2463TIP3    H228949   1.741   3.047   0.602
 2464TIP3   OH228950   4.484   5.811   0.861
 2464TIP3    H128951   4.579   5.803   0.868
 2464TIP3    H228952   4.455   5.828   0.951
 2465TIP3   OH228953   0.356   1.814   6.561
 2465TIP3    H128954   0.280   1.794   6.507
 2465TIP3    H228955   0.383   1.902   6.535
 2466TIP3   OH228956   0.049   2.361   1.809
 2466TIP3    H128957   0.033   2.411   1.730
 2466TIP3    H228958   0.097   2.421   1.867
 2467TIP3   OH228959   5.123   0.591   1.000
 2467TIP3    H128960   5.071   0.630   1.070
 2467TIP3    H228961   5.213   0.598   1.030
 2468TIP3   OH228962   6.140   1.243   7.320
 2468TIP3    H128963   6.053   1.226   7.356
 2468TIP3    H228964   6.157   1.169   7.262
 2469TIP3   OH228965   5.964   1.558   7.739
 2469TIP3    H128966   5.954   1.471   7.700
 2469TIP3    H228967   5.907   1.556   7.816
 2470TIP3   OH228968   2.256   1.208   7.940
 2470TIP3    H128969   2.191   1.214   7.869
 2470TIP3    H228970   2.272   1.298   7.966
 2471TIP3   OH228971   1.340   5.421   7.289
 2471TIP3    H128972   1.335   5.483   7.215
 2471TIP3    H228973   1.249   5.400   7.308
 2472TIP3   OH228974   3.580   0.148   7.873
 2472TIP3    H128975   3.616   0.163   7.960
 2472TIP3    H228976   3.537   0.063   7.880
 2473TIP3   OH228977   1.053   0.111   7.415
 2473TIP3    H128978   1.119   0.177   7.393
 2473TIP3    H228979   1.041   0.063   7.333
 2474TIP3   OH228980   4.005   2.840   7.680
 2474TIP3    H128981   3.958   2.851   7.763
 2474TIP3    H228982   4.015   2.746   7.670
 2475TIP3   OH228983   6.319   6.356   7.689
 2475TIP3    H128984   6.316   6.273   7.641
 2475TIP3    H228985   6.353   6.419   7.627
 2476TIP3   OH228986   5.762   3.747   7.435
 2476TIP3    H128987   5.792   3.741   7.525
 2476TIP3    H228988   5.683   3.692   7.431
 2477TIP3   OH228989   4.133   6.036   7.734
 2477TIP3    H128990   4.173   5.949   7.730
 2477TIP3    H228991   4.082   6.035   7.815
 2478TIP3   OH228992   0.107   3.895   1.433
 2478TIP3    H128993   0.015   3.892   1.459
 2478TIP3    H228994   0.106   3.929   1.344
 2479TIP3   OH228995   1.941   0.775   6.852
 2479TIP3    H128996   1.974   0.690   6.882
 2479TIP3    H228997   1.966   0.836   6.921
 2480TIP3   OH228998   1.689   0.889   0.502
 2480TIP3    H128999   1.770   0.907   0.454
 2480TIP3    H229000   1.700   0.800   0.536
 2481TIP3   OH229001   1.023   2.141   0.975
 2481TIP3    H129002   0.934   2.123   0.942
 2481TIP3    H229003   1.010   2.206   1.044
 2482TIP3   OH229004   0.197   1.384   8.264
 2482TIP3    H129005   0.180   1.387   8.170
 2482TIP3    H229006   0.172   1.470   8.296
 2483TIP3   OH229007   5.023   3.505   1.568
 2483TIP3    H129008   5.094   3.448   1.595
 2483TIP3    H229009   5.016   3.571   1.638
 2484TIP3   OH229010   1.030   1.328   0.456
 2484TIP3    H129011   0.955   1.355   0.404
 2484TIP3    H229012   1.097   1.306   0.391
 2485TIP3   OH229013   4.284   4.142   8.375
 2485TIP3    H129014   4.256   4.121   8.464
 2485TIP3    H229015   4.364   4.192   8.386
 2486TIP3   OH229016   1.795   1.245   8.005
 2486TIP3    H129017   1.781   1.333   8.041
 2486TIP3    H229018   1.727   1.235   7.939
 2487TIP3   OH229019   4.734   6.820   0.857
 2487TIP3    H129020   4.822   6.849   0.878
 2487TIP3    H229021   4.741   6.784   0.769
 2488TIP3   OH229022   6.409   3.774   6.432
 2488TIP3    H129023   6.483   3.715   6.418
 2488TIP3    H229024   6.340   3.719   6.468
 2489TIP3   OH229025   2.615   0.970   7.904
 2489TIP3    H129026   2.605   0.928   7.989
 2489TIP3    H229027   2.652   0.902   7.848
 2490TIP3   OH229028   5.022   0.131   1.006
 2490TIP3    H129029   4.964   0.178   1.066
 2490TIP3    H229030   5.058   0.060   1.058
 2491TIP3   OH229031   4.943   5.921   7.270
 2491TIP3    H129032   4.998   5.843   7.268
 2491TIP3    H229033   5.005   5.993   7.282
 2492TIP3   OH229034   4.341   5.687   1.920
 2492TIP3    H129035   4.384   5.656   1.841
 2492TIP3    H229036   4.364   5.780   1.925
 2493TIP3   OH229037   5.972   4.307   7.880
 2493TIP3    H129038   5.956   4.344   7.793
 2493TIP3    H229039   5.995   4.383   7.934
 2494TIP3   OH229040   0.506   2.007   7.522
 2494TIP3    H129041   0.466   2.045   7.600
 2494TIP3    H229042   0.591   1.976   7.552
 2495TIP3   OH229043   5.597   5.724   1.372
 2495TIP3    H129044   5.634   5.638   1.390
 2495TIP3    H229045   5.505   5.717   1.396
 2496TIP3   OH229046   3.690   5.859   1.698
 2496TIP3    H129047   3.721   5.773   1.728
 2496TIP3    H229048   3.758   5.888   1.637
 2497TIP3   OH229049   3.551   3.874   0.307
 2497TIP3    H129050   3.609   3.840   0.375
 2497TIP3    H229051   3.609   3.888   0.232
 2498TIP3   OH229052   3.050   5.503   8.352
 2498TIP3    H129053   3.045   5.540   8.440
 2498TIP3    H229054   3.098   5.421   8.363
 2499TIP3   OH229055   6.065   1.429   1.413
 2499TIP3    H129056   6.105   1.495   1.356
 2499TIP3    H229057   6.002   1.477   1.467
 2500TIP3   OH229058   1.027   2.115   0.080
 2500TIP3    H129059   1.070   2.083   0.001
 2500TIP3    H229060   1.096   2.119   0.146
 2501TIP3   OH229061   3.988   1.963   0.457
 2501TIP3    H129062   4.058   1.902   0.479
 2501TIP3    H229063   3.912   1.931   0.505
 2502TIP3   OH229064   5.531   0.949   0.711
 2502TIP3    H129065   5.537   1.021   0.774
 2502TIP3    H229066   5.602   0.966   0.649
 2503TIP3   OH229067   5.961   1.107   6.583
 2503TIP3    H129068   5.906   1.066   6.515
 2503TIP3    H229069   5.919   1.192   6.599
 2504TIP3   OH229070   6.177   4.070   0.803
 2504TIP3    H129071   6.119   4.005   0.765
 2504TIP3    H229072   6.248   4.019   0.843
 2505TIP3   OH229073   6.486   2.544   6.308
 2505TIP3    H129074   6.497   2.526   6.401
 2505TIP3    H229075   6.398   2.583   6.302
 2506TIP3   OH229076   0.434   6.625   7.822
 2506TIP3    H129077   0.394   6.538   7.815
 2506TIP3    H229078   0.496   6.616   7.895
 2507TIP3   OH229079   5.725   6.005   0.351
 2507TIP3    H129080   5.719   6.076   0.415
 2507TIP3    H229081   5.775   5.936   0.396
 2508TIP3   OH229082   5.189   6.863   1.170
 2508TIP3    H129083   5.218   0.015   1.234
 2508TIP3    H229084   5.157   6.789   1.222
 2509TIP3   OH229085   0.406   4.578   1.171
 2509TIP3    H129086   0.499   4.566   1.191
 2509TIP3    H229087   0.365   4.596   1.256
 2510TIP3   OH229088   2.243   2.003   1.385
 2510TIP3    H129089   2.235   2.024   1.478
 2510TIP3    H229090   2.177   2.058   1.342
 2511TIP3   OH229091   1.796   1.502   6.809
 2511TIP3    H129092   1.868   1.524   6.868
 2511TIP3    H229093   1.791   1.576   6.749
 2512TIP3   OH229094   5.011   6.103   1.537
 2512TIP3    H129095   5.086   6.152   1.503
 2512TIP3    H229096   5.021   6.105   1.632
 2513TIP3   OH229097   1.755   0.069   7.724
 2513TIP3    H129098   1.709   0.092   7.805
 2513TIP3    H229099   1.796   6.897   7.743
 2514TIP3   OH229100   2.919   5.815   7.000
 2514TIP3    H129101   2.914   5.910   7.014
 2514TIP3    H229102   3.003   5.802   6.956
 2515TIP3   OH229103   5.224   0.869   0.140
 2515TIP3    H129104   5.265   0.860   0.053
 2515TIP3    H229105   5.279   0.817   0.198
 2516TIP3   OH229106   2.509   1.492   7.614
 2516TIP3    H129107   2.571   1.499   7.687
 2516TIP3    H229108   2.506   1.580   7.577
 2517TIP3   OH229109   4.885   3.933   7.869
 2517TIP3    H129110   4.935   4.002   7.912
 2517TIP3    H229111   4.940   3.906   7.795
 2518TIP3   OH229112   1.531   5.853   1.213
 2518TIP3    H129113   1.477   5.909   1.268
 2518TIP3    H229114   1.593   5.812   1.274
 2519TIP3   OH229115   4.596   3.863   8.389
 2519TIP3    H129116   4.604   3.779   8.435
 2519TIP3    H229117   4.510   3.860   8.347
 2520TIP3   OH229118   2.575   4.922   7.920
 2520TIP3    H129119   2.614   4.846   7.876
 2520TIP3    H229120   2.507   4.884   7.976
 2521TIP3   OH229121   0.312   5.248   8.036
 2521TIP3    H129122   0.271   5.169   8.001
 2521TIP3    H229123   0.253   5.276   8.107
 2522TIP3   OH229124   6.319   5.176   7.942
 2522TIP3    H129125   6.324   5.228   8.022
 2522TIP3    H229126   6.359   5.092   7.966
 2523TIP3   OH229127   3.144   5.667   1.398
 2523TIP3    H129128   3.188   5.601   1.344
 2523TIP3    H229129   3.208   5.691   1.464
 2524TIP3   OH229130   0.926   4.170   7.355
 2524TIP3    H129131   0.899   4.155   7.445
 2524TIP3    H229132   0.885   4.099   7.305
 2525TIP3   OH229133   6.539   6.820   1.604
 2525TIP3    H129134   6.458   6.838   1.556
 2525TIP3    H229135   6.563   6.905   1.642
 2526TIP3   OH229136   4.763   3.016   1.590
 2526TIP3    H129137   4.743   2.983   1.677
 2526TIP3    H229138   4.810   3.098   1.605
 2527TIP3   OH229139   0.839   4.180   7.030
 2527TIP3    H129140   0.892   4.106   7.000
 2527TIP3    H229141   0.795   4.212   6.951
 2528TIP3   OH229142   6.842   4.165   0.656
 2528TIP3    H129143   6.887   4.083   0.640
 2528TIP3    H229144   6.910   4.225   0.688
 2529TIP3   OH229145   4.166   4.194   6.407
 2529TIP3    H129146   4.114   4.115   6.420
 2529TIP3    H229147   4.255   4.162   6.391
 2530TIP3   OH229148   3.877   6.875   1.153
 2530TIP3    H129149   3.934   0.038   1.142
 2530TIP3    H229150   3.798   6.910   1.194
 2531TIP3   OH229151   5.477   2.073   7.915
 2531TIP3    H129152   5.401   2.131   7.909
 2531TIP3    H229153   5.538   2.106   7.849
 2532TIP3   OH229154   1.869   6.033   7.210
 2532TIP3    H129155   1.921   6.094   7.158
 2532TIP3    H229156   1.932   5.969   7.242
 2533TIP3   OH229157   5.441   5.896   0.831
 2533TIP3    H129158   5.498   5.880   0.906
 2533TIP3    H229159   5.459   5.987   0.806
 2534TIP3   OH229160   1.113   2.257   1.904
 2534TIP3    H129161   1.192   2.310   1.894
 2534TIP3    H229162   1.111   2.202   1.826
 2535TIP3   OH229163   4.562   2.040   8.533
 2535TIP3    H129164   4.550   1.951   8.568
 2535TIP3    H229165   4.648   2.067   8.564
 2536TIP3   OH229166   0.796   1.715   0.548
 2536TIP3    H129167   0.889   1.695   0.561
 2536TIP3    H229168   0.776   1.779   0.617
 2537TIP3   OH229169   4.537   1.372   0.449
 2537TIP3    H129170   4.556   1.435   0.519
 2537TIP3    H229171   4.455   1.403   0.411
 2538TIP3   OH229172   0.462   2.734   0.791
 2538TIP3    H129173   0.479   2.780   0.873
 2538TIP3    H229174   0.373   2.758   0.768
 2539TIP3   OH229175   0.715   1.443   0.653
 2539TIP3    H129176   0.719   1.537   0.639
 2539TIP3    H229177   0.631   1.417   0.615
 2540TIP3   OH229178   6.704   1.376   1.553
 2540TIP3    H129179   6.790   1.413   1.572
 2540TIP3    H229180   6.715   1.282   1.569
 2541TIP3   OH229181   1.359   2.593   7.185
 2541TIP3    H129182   1.430   2.566   7.128
 2541TIP3    H229183   1.286   2.535   7.161
 2542TIP3   OH229184   5.819   6.812   8.141
 2542TIP3    H129185   5.898   6.784   8.187
 2542TIP3    H229186   5.807   6.746   8.073
 2543TIP3   OH229187   2.808   2.582   7.961
 2543TIP3    H129188   2.760   2.541   7.889
 2543TIP3    H229189   2.867   2.645   7.919
 2544TIP3   OH229190   3.554   5.512   0.410
 2544TIP3    H129191   3.598   5.477   0.332
 2544TIP3    H229192   3.519   5.434   0.454
 2545TIP3   OH229193   4.637   5.858   0.449
 2545TIP3    H129194   4.721   5.820   0.474
 2545TIP3    H229195   4.654   5.952   0.443
 2546TIP3   OH229196   2.835   4.430   7.191
 2546TIP3    H129197   2.912   4.419   7.248
 2546TIP3    H229198   2.871   4.439   7.103
 2547TIP3   OH229199   5.312   3.140   1.975
 2547TIP3    H129200   5.364   3.128   2.055
 2547TIP3    H229201   5.248   3.069   1.977
 2548TIP3   OH229202   2.388   6.433   0.283
 2548TIP3    H129203   2.300   6.454   0.252
 2548TIP3    H229204   2.434   6.516   0.286
 2549TIP3   OH229205   1.396   4.119   1.564
 2549TIP3    H129206   1.379   4.166   1.646
 2549TIP3    H229207   1.419   4.031   1.591
 2550TIP3   OH229208   0.757   1.313   1.232
 2550TIP3    H129209   0.792   1.291   1.319
 2550TIP3    H229210   0.740   1.229   1.191
 2551TIP3   OH229211   2.003   1.098   8.566
 2551TIP3    H129212   2.018   1.047   0.043
 2551TIP3    H229213   2.052   1.178   8.579
 2552TIP3   OH229214   1.243   6.273   1.253
 2552TIP3    H129215   1.206   6.324   1.181
 2552TIP3    H229216   1.220   6.323   1.332
 2553TIP3   OH229217   6.733   6.659   8.386
 2553TIP3    H129218   6.794   6.640   8.315
 2553TIP3    H229219   6.736   6.755   8.395
 2554TIP3   OH229220   4.020   6.695   1.842
 2554TIP3    H129221   4.017   6.622   1.779
 2554TIP3    H229222   4.016   6.652   1.928
 2555TIP3   OH229223   3.617   0.981   1.275
 2555TIP3    H129224   3.585   0.950   1.190
 2555TIP3    H229225   3.557   1.051   1.300
 2556TIP3   OH229226   3.099   5.480   1.801
 2556TIP3    H129227   3.058   5.422   1.865
 2556TIP3    H229228   3.177   5.513   1.845
 2557TIP3   OH229229   3.406   0.821   0.707
 2557TIP3    H129230   3.397   0.917   0.706
 2557TIP3    H229231   3.484   0.804   0.655
 2558TIP3   OH229232   6.800   5.250   7.794
 2558TIP3    H129233   6.776   5.246   7.701
 2558TIP3    H229234   6.896   5.239   7.794
 2559TIP3   OH229235   4.184   5.905   1.697
 2559TIP3    H129236   4.215   5.845   1.629
 2559TIP3    H229237   4.259   5.915   1.756
 2560TIP3   OH229238   0.048   5.190   1.814
 2560TIP3    H129239   0.090   5.270   1.785
 2560TIP3    H229240   0.016   5.211   1.902
 2561TIP3   OH229241   2.161   1.327   0.487
 2561TIP3    H129242   2.119   1.328   0.573
 2561TIP3    H229243   2.188   1.418   0.473
 2562TIP3   OH229244   5.165   4.402   1.512
 2562TIP3    H129245   5.183   4.402   1.606
 2562TIP3    H229246   5.243   4.441   1.473
 2563TIP3   OH229247   2.452   3.392   0.607
 2563TIP3    H129248   2.479   3.337   0.680
 2563TIP3    H229249   2.498   3.356   0.531
 2564TIP3   OH229250   2.755   6.190   0.294
 2564TIP3    H129251   2.821   6.147   0.240
 2564TIP3    H229252   2.704   6.243   0.233
 2565TIP3   OH229253   6.558   1.052   1.441
 2565TIP3    H129254   6.617   1.064   1.516
 2565TIP3    H229255   6.581   1.123   1.381
 2566TIP3   OH229256   5.478   0.693   0.773
 2566TIP3    H129257   5.469   0.662   0.683
 2566TIP3    H229258   5.502   0.786   0.764
 2567TIP3   OH229259   0.239   3.638   7.860
 2567TIP3    H129260   0.280   3.583   7.927
 2567TIP3    H229261   0.258   3.595   7.777
 2568TIP3   OH229262   2.667   5.111   8.599
 2568TIP3    H129263   2.666   5.206   8.595
 2568TIP3    H229264   2.608   5.083   8.529
 2569TIP3   OH229265   3.408   1.178   0.387
 2569TIP3    H129266   3.368   1.130   0.460
 2569TIP3    H229267   3.467   1.115   0.346
 2570TIP3   OH229268   5.111   4.989   7.188
 2570TIP3    H129269   5.097   4.912   7.243
 2570TIP3    H229270   5.107   5.063   7.249
 2571TIP3   OH229271   4.360   6.026   0.355
 2571TIP3    H129272   4.453   6.045   0.368
 2571TIP3    H229273   4.327   6.102   0.306
 2572TIP3   OH229274   0.267   4.033   7.593
 2572TIP3    H129275   0.321   3.953   7.596
 2572TIP3    H229276   0.297   4.079   7.515
 2573TIP3   OH229277   1.172   4.447   6.611
 2573TIP3    H129278   1.216   4.448   6.526
 2573TIP3    H229279   1.157   4.355   6.630
 2574TIP3   OH229280   4.597   6.520   7.041
 2574TIP3    H129281   4.556   6.442   7.003
 2574TIP3    H229282   4.659   6.549   6.973
 2575TIP3   OH229283   5.435   3.163   0.883
 2575TIP3    H129284   5.438   3.214   0.801
 2575TIP3    H229285   5.361   3.104   0.871
 2576TIP3   OH229286   0.405   3.794   7.574
 2576TIP3    H129287   0.372   3.707   7.553
 2576TIP3    H229288   0.496   3.793   7.544
 2577TIP3   OH229289   4.182   2.409   6.730
 2577TIP3    H129290   4.156   2.360   6.652
 2577TIP3    H229291   4.106   2.462   6.752
 2578TIP3   OH229292   4.185   3.181   8.578
 2578TIP3    H129293   4.223   3.205   0.060
 2578TIP3    H229294   4.259   3.180   8.518
 2579TIP3   OH229295   1.497   3.476   8.011
 2579TIP3    H129296   1.423   3.433   8.054
 2579TIP3    H229297   1.462   3.559   7.979
 2580TIP3   OH229298   6.143   0.151   7.217
 2580TIP3    H129299   6.149   0.146   7.312
 2580TIP3    H229300   6.050   0.135   7.197
 2581TIP3   OH229301   6.260   2.991   0.863
 2581TIP3    H129302   6.175   3.000   0.820
 2581TIP3    H229303   6.257   3.052   0.936
 2582TIP3   OH229304   5.524   2.893   2.159
 2582TIP3    H129305   5.533   2.861   2.249
 2582TIP3    H229306   5.508   2.987   2.169
 2583TIP3   OH229307   3.217   1.769   1.599
 2583TIP3    H129308   3.305   1.800   1.622
 2583TIP3    H229309   3.183   1.837   1.540
 2584TIP3   OH229310   6.787   5.183   7.081
 2584TIP3    H129311   6.851   5.228   7.136
 2584TIP3    H229312   6.724   5.146   7.144
 2585TIP3   OH229313   3.286   6.669   8.137
 2585TIP3    H129314   3.261   6.580   8.162
 2585TIP3    H229315   3.206   6.707   8.101
 2586TIP3   OH229316   0.283   2.103   6.823
 2586TIP3    H129317   0.230   2.179   6.847
 2586TIP3    H229318   0.318   2.125   6.737
 2587TIP3   OH229319   4.675   0.753   7.695
 2587TIP3    H129320   4.678   0.659   7.676
 2587TIP3    H229321   4.588   0.780   7.667
 2588TIP3   OH229322   6.514   1.400   1.800
 2588TIP3    H129323   6.578   1.334   1.827
 2588TIP3    H229324   6.554   1.442   1.724
 2589TIP3   OH229325   3.467   1.317   0.828
 2589TIP3    H129326   3.387   1.354   0.865
 2589TIP3    H229327   3.532   1.325   0.898
 2590TIP3   OH229328   4.998   5.406   0.658
 2590TIP3    H129329   5.077   5.459   0.656
 2590TIP3    H229330   5.022   5.324   0.615
 2591TIP3   OH229331   3.075   2.053   8.503
 2591TIP3    H129332   3.051   2.022   8.590
 2591TIP3    H229333   3.028   1.996   8.443
 2592TIP3   OH229334   5.170   1.494   8.158
 2592TIP3    H129335   5.084   1.515   8.192
 2592TIP3    H229336   5.195   1.569   8.105
 2593TIP3   OH229337   1.427   5.194   1.200
 2593TIP3    H129338   1.415   5.253   1.125
 2593TIP3    H229339   1.400   5.247   1.275
 2594TIP3   OH229340   2.347   6.448   7.541
 2594TIP3    H129341   2.330   6.377   7.479
 2594TIP3    H229342   2.271   6.449   7.599
 2595TIP3   OH229343   4.107   6.148   0.202
 2595TIP3    H129344   4.055   6.220   0.166
 2595TIP3    H229345   4.128   6.094   0.125
 2596TIP3   OH229346   5.793   1.455   0.039
 2596TIP3    H129347   5.729   1.526   0.047
 2596TIP3    H229348   5.764   1.389   0.102
 2597TIP3   OH229349   4.895   6.228   0.178
 2597TIP3    H129350   4.822   6.266   0.129
 2597TIP3    H229351   4.926   6.299   0.234
 2598TIP3   OH229352   0.267   1.443   7.363
 2598TIP3    H129353   0.325   1.446   7.287
 2598TIP3    H229354   0.323   1.412   7.434
 2599TIP3   OH229355   0.676   1.781   0.966
 2599TIP3    H129356   0.608   1.822   1.019
 2599TIP3    H229357   0.680   1.691   0.997
 2600TIP3   OH229358   5.167   6.438   6.961
 2600TIP3    H129359   5.100   6.475   7.018
 2600TIP3    H229360   5.120   6.413   6.882
 2601TIP3   OH229361   5.273   3.601   7.537
 2601TIP3    H129362   5.180   3.582   7.547
 2601TIP3    H229363   5.287   3.680   7.589
 2602TIP3   OH229364   3.254   0.000   7.192
 2602TIP3    H129365   3.216   6.849   7.131
 2602TIP3    H229366   3.333   6.869   7.225
 2603TIP3   OH229367   3.534   1.000   7.331
 2603TIP3    H129368   3.617   1.043   7.349
 2603TIP3    H229369   3.555   0.907   7.327
 2604TIP3   OH229370   2.367   2.634   0.339
 2604TIP3    H129371   2.390   2.595   0.255
 2604TIP3    H229372   2.271   2.636   0.339
 2605TIP3   OH229373   1.602   5.097   0.132
 2605TIP3    H129374   1.591   5.165   0.065
 2605TIP3    H229375   1.538   5.119   0.199
 2606TIP3   OH229376   0.121   3.810   0.927
 2606TIP3    H129377   0.171   3.770   0.999
 2606TIP3    H229378   0.179   3.877   0.892
 2607TIP3   OH229379   1.136   0.709   6.336
 2607TIP3    H129380   1.139   0.631   6.281
 2607TIP3    H229381   1.089   0.773   6.283
 2608TIP3   OH229382   2.368   4.567   8.557
 2608TIP3    H129383   2.381   4.484   8.512
 2608TIP3    H229384   2.441   4.622   8.529
 2609TIP3   OH229385   0.722   2.409   1.392
 2609TIP3    H129386   0.787   2.423   1.323
 2609TIP3    H229387   0.771   2.420   1.474
 2610TIP3   OH229388   5.045   0.866   0.492
 2610TIP3    H129389   5.007   0.942   0.450
 2610TIP3    H229390   5.019   0.874   0.584
 2611TIP3   OH229391   6.578   0.323   1.689
 2611TIP3    H129392   6.657   0.298   1.640
 2611TIP3    H229393   6.600   0.306   1.780
 2612TIP3   OH229394   4.969   4.258   7.364
 2612TIP3    H129395   4.944   4.191   7.427
 2612TIP3    H229396   5.065   4.259   7.367
 2613TIP3   OH229397   2.537   6.000   1.843
 2613TIP3    H129398   2.624   6.035   1.822
 2613TIP3    H229399   2.555   5.921   1.895
 2614TIP3   OH229400   6.015   4.408   8.316
 2614TIP3    H129401   5.967   4.478   8.271
 2614TIP3    H229402   6.104   4.413   8.281
 2615TIP3   OH229403   4.251   4.530   0.950
 2615TIP3    H129404   4.276   4.557   1.038
 2615TIP3    H229405   4.331   4.538   0.899
 2616TIP3   OH229406   5.349   4.364   6.895
 2616TIP3    H129407   5.384   4.440   6.941
 2616TIP3    H229408   5.419   4.338   6.835
 2617TIP3   OH229409   0.083   5.667   8.275
 2617TIP3    H129410   0.155   5.731   8.278
 2617TIP3    H229411   0.085   5.634   8.186
 2618TIP3   OH229412   6.396   1.075   0.468
 2618TIP3    H129413   6.374   1.105   0.380
 2618TIP3    H229414   6.473   1.126   0.493
 2619TIP3   OH229415   2.818   5.673   6.175
 2619TIP3    H129416   2.908   5.697   6.195
 2619TIP3    H229417   2.789   5.623   6.252
 2620TIP3   OH229418   0.738   3.183   0.148
 2620TIP3    H129419   0.830   3.155   0.149
 2620TIP3    H229420   0.716   3.191   0.055
 2621TIP3   OH229421   4.212   6.287   0.767
 2621TIP3    H129422   4.159   6.318   0.695
 2621TIP3    H229423   4.293   6.338   0.761
 2622TIP3   OH229424   5.894   1.179   7.404
 2622TIP3    H129425   5.833   1.217   7.340
 2622TIP3    H229426   5.853   1.096   7.429
 2623TIP3   OH229427   1.657   6.122   7.495
 2623TIP3    H129428   1.570   6.081   7.495
 2623TIP3    H229429   1.681   6.126   7.402
 2624TIP3   OH229430   6.133   3.480   8.466
 2624TIP3    H129431   6.163   3.547   8.528
 2624TIP3    H229432   6.174   3.399   8.497
 2625TIP3   OH229433   3.511   3.992   8.369
 2625TIP3    H129434   3.424   3.961   8.393
 2625TIP3    H229435   3.536   3.939   8.294
 2626TIP3   OH229436   3.279   1.842   0.631
 2626TIP3    H129437   3.185   1.843   0.613
 2626TIP3    H229438   3.318   1.884   0.554
 2627TIP3   OH229439   5.762   0.670   1.986
 2627TIP3    H129440   5.797   0.600   2.040
 2627TIP3    H229441   5.668   0.652   1.981
 2628TIP3   OH229442   4.779   3.313   7.410
 2628TIP3    H129443   4.847   3.368   7.449
 2628TIP3    H229444   4.767   3.349   7.322
 2629TIP3   OH229445   1.432   0.543   1.703
 2629TIP3    H129446   1.414   0.450   1.714
 2629TIP3    H229447   1.416   0.560   1.610
 2630TIP3   OH229448   6.144   5.169   8.159
 2630TIP3    H129449   6.140   5.232   8.087
 2630TIP3    H229450   6.064   5.185   8.210
 2631TIP3   OH229451   0.998   1.141   0.673
 2631TIP3    H129452   1.001   1.215   0.612
 2631TIP3    H229453   0.912   1.147   0.714
 2632TIP3   OH229454   5.606   5.604   6.579
 2632TIP3    H129455   5.552   5.526   6.563
 2632TIP3    H229456   5.579   5.666   6.512
 2633TIP3   OH229457   0.623   6.228   7.015
 2633TIP3    H129458   0.685   6.221   7.087
 2633TIP3    H229459   0.670   6.277   6.947
 2634TIP3   OH229460   5.202   5.340   7.411
 2634TIP3    H129461   5.184   5.428   7.377
 2634TIP3    H229462   5.133   5.286   7.374
 2635TIP3   OH229463   4.540   2.720   7.632
 2635TIP3    H129464   4.508   2.633   7.608
 2635TIP3    H229465   4.488   2.780   7.578
 2636TIP3   OH229466   5.500   5.990   8.599
 2636TIP3    H129467   5.476   6.071   8.554
 2636TIP3    H229468   5.594   5.997   0.010
 2637TIP3   OH229469   6.479   6.021   0.953
 2637TIP3    H129470   6.392   5.990   0.978
 2637TIP3    H229471   6.478   6.021   0.857
 2638TIP3   OH229472   3.532   3.728   0.663
 2638TIP3    H129473   3.615   3.775   0.669
 2638TIP3    H229474   3.468   3.795   0.638
 2639TIP3   OH229475   2.264   1.226   6.512
 2639TIP3    H129476   2.305   1.281   6.579
 2639TIP3    H229477   2.184   1.273   6.489
 2640TIP3   OH229478   4.406   2.923   1.715
 2640TIP3    H129479   4.345   2.852   1.735
 2640TIP3    H229480   4.491   2.889   1.741
 2641TIP3   OH229481   3.175   2.414   0.080
 2641TIP3    H129482   3.214   2.353   0.017
 2641TIP3    H229483   3.083   2.389   0.085
 2642TIP3   OH229484   3.681   2.565   6.867
 2642TIP3    H129485   3.736   2.570   6.945
 2642TIP3    H229486   3.648   2.654   6.856
 2643TIP3   OH229487   1.456   4.997   0.587
 2643TIP3    H129488   1.512   4.924   0.560
 2643TIP3    H229489   1.512   5.075   0.578
 2644TIP3   OH229490   1.158   0.060   7.020
 2644TIP3    H129491   1.235   0.064   7.076
 2644TIP3    H229492   1.192   0.077   6.932
 2645TIP3   OH229493   2.550   1.351   0.860
 2645TIP3    H129494   2.476   1.320   0.808
 2645TIP3    H229495   2.572   1.277   0.917
 2646TIP3   OH229496   5.702   1.409   1.300
 2646TIP3    H129497   5.722   1.326   1.344
 2646TIP3    H229498   5.740   1.476   1.357
 2647TIP3   OH229499   0.190   4.567   2.294
 2647TIP3    H129500   0.168   4.487   2.342
 2647TIP3    H229501   0.106   4.598   2.260
 2648TIP3   OH229502   5.581   2.858   7.598
 2648TIP3    H129503   5.540   2.880   7.681
 2648TIP3    H229504   5.620   2.772   7.612
 2649TIP3   OH229505   1.960   4.563   0.257
 2649TIP3    H129506   1.905   4.505   0.310
 2649TIP3    H229507   2.048   4.525   0.264
 2650TIP3   OH229508   2.597   1.576   6.240
 2650TIP3    H129509   2.656   1.649   6.223
 2650TIP3    H229510   2.515   1.618   6.267
 2651TIP3   OH229511   5.866   5.660   7.974
 2651TIP3    H129512   5.827   5.572   7.977
 2651TIP3    H229513   5.932   5.659   8.043
 2652TIP3   OH229514   1.256   3.119   0.044
 2652TIP3    H129515   1.230   3.167   8.568
 2652TIP3    H229516   1.293   3.187   0.101
 2653TIP3   OH229517   5.718   6.319   7.106
 2653TIP3    H129518   5.636   6.308   7.154
 2653TIP3    H229519   5.710   6.404   7.064
 2654TIP3   OH229520   6.867   3.738   8.397
 2654TIP3    H129521   6.798   3.804   8.406
 2654TIP3    H229522   0.028   3.772   8.449
 2655TIP3   OH229523   3.483   6.620   0.327
 2655TIP3    H129524   3.461   6.636   0.235
 2655TIP3    H229525   3.400   6.626   0.373
 2656TIP3   OH229526   5.666   4.366   7.533
 2656TIP3    H129527   5.607   4.392   7.604
 2656TIP3    H229528   5.609   4.350   7.458
 2657TIP3   OH229529   3.451   2.263   7.295
 2657TIP3    H129530   3.419   2.231   7.211
 2657TIP3    H229531   3.546   2.251   7.290
 2658TIP3   OH229532   3.294   4.320   7.930
 2658TIP3    H129533   3.206   4.310   7.965
 2658TIP3    H229534   3.285   4.387   7.862
 2659TIP3   OH229535   3.863   3.002   1.417
 2659TIP3    H129536   3.939   2.945   1.402
 2659TIP3    H229537   3.884   3.083   1.369
 2660TIP3   OH229538   5.603   3.548   1.012
 2660TIP3    H129539   5.510   3.554   0.994
 2660TIP3    H229540   5.624   3.455   0.998
 2661TIP3   OH229541   0.557   2.068   1.819
 2661TIP3    H129542   0.496   2.008   1.863
 2661TIP3    H229543   0.544   2.152   1.863
 2662TIP3   OH229544   4.339   4.728   7.897
 2662TIP3    H129545   4.321   4.726   7.803
 2662TIP3    H229546   4.397   4.803   7.908
 2663TIP3   OH229547   4.933   3.015   6.473
 2663TIP3    H129548   4.891   3.101   6.482
 2663TIP3    H229549   4.869   2.953   6.509
 2664TIP3   OH229550   0.723   5.027   8.218
 2664TIP3    H129551   0.704   5.108   8.170
 2664TIP3    H229552   0.781   4.978   8.160
 2665TIP3   OH229553   0.309   3.119   2.133
 2665TIP3    H129554   0.268   3.206   2.128
 2665TIP3    H229555   0.315   3.100   2.227
 2666TIP3   OH229556   1.794   6.111   1.660
 2666TIP3    H129557   1.711   6.125   1.615
 2666TIP3    H229558   1.814   6.018   1.646
 2667TIP3   OH229559   6.787   6.567   0.100
 2667TIP3    H129560   6.778   6.621   0.021
 2667TIP3    H229561   6.752   6.482   0.075
 2668TIP3   OH229562   6.168   1.464   2.116
 2668TIP3    H129563   6.160   1.373   2.090
 2668TIP3    H229564   6.080   1.501   2.103
 2669TIP3   OH229565   1.556   2.178   1.324
 2669TIP3    H129566   1.486   2.114   1.321
 2669TIP3    H229567   1.539   2.229   1.403
 2670TIP3   OH229568   5.858   6.132   7.877
 2670TIP3    H129569   5.841   6.118   7.970
 2670TIP3    H229570   5.895   6.220   7.873
 2671TIP3   OH229571   2.417   3.830   2.016
 2671TIP3    H129572   2.512   3.823   2.018
 2671TIP3    H229573   2.400   3.897   1.949
 2672TIP3   OH229574   3.681   3.178   6.844
 2672TIP3    H129575   3.632   3.176   6.762
 2672TIP3    H229576   3.771   3.155   6.819
 2673TIP3   OH229577   6.579   2.361   2.278
 2673TIP3    H129578   6.543   2.314   2.202
 2673TIP3    H229579   6.669   2.382   2.253
 2674TIP3   OH229580   3.909   1.224   0.062
 2674TIP3    H129581   3.975   1.221   0.131
 2674TIP3    H229582   3.938   1.159   8.602
 2675TIP3   OH229583   6.495   6.850   0.293
 2675TIP3    H129584   6.587   6.831   0.313
 2675TIP3    H229585   6.495   0.031   0.270
 2676TIP3   OH229586   4.186   4.486   8.347
 2676TIP3    H129587   4.126   4.505   8.274
 2676TIP3    H229588   4.255   4.432   8.308
 2677TIP3   OH229589   6.755   1.749   7.466
 2677TIP3    H129590   6.803   1.826   7.497
 2677TIP3    H229591   6.824   1.690   7.435
 2678TIP3   OH229592   1.367   6.597   7.103
 2678TIP3    H129593   1.433   6.620   7.169
 2678TIP3    H229594   1.362   6.502   7.106
 2679TIP3   OH229595   3.840   6.575   6.183
 2679TIP3    H129596   3.782   6.545   6.254
 2679TIP3    H229597   3.847   6.500   6.125
 2680TIP3   OH229598   6.475   2.796   1.275
 2680TIP3    H129599   6.381   2.815   1.277
 2680TIP3    H229600   6.487   2.730   1.344
 2681TIP3   OH229601   6.192   3.683   0.053
 2681TIP3    H129602   6.158   3.757   0.104
 2681TIP3    H229603   6.279   3.666   0.089
 2682TIP3   OH229604   4.066   0.829   1.005
 2682TIP3    H129605   4.008   0.836   1.080
 2682TIP3    H229606   4.131   0.898   1.018
 2683TIP3   OH229607   4.393   6.832   1.731
 2683TIP3    H129608   4.361   6.869   1.814
 2683TIP3    H229609   4.317   6.833   1.673
 2684TIP3   OH229610   5.014   4.492   7.588
 2684TIP3    H129611   5.054   4.415   7.627
 2684TIP3    H229612   5.012   4.474   7.494
 2685TIP3   OH229613   0.460   2.756   7.168
 2685TIP3    H129614   0.371   2.772   7.137
 2685TIP3    H229615   0.449   2.715   7.253
 2686TIP3   OH229616   5.312   6.221   0.086
 2686TIP3    H129617   5.354   6.247   0.004
 2686TIP3    H229618   5.276   6.303   0.121
 2687TIP3   OH229619   0.819   0.233   6.888
 2687TIP3    H129620   0.829   0.152   6.937
 2687TIP3    H229621   0.881   0.227   6.816
 2688TIP3   OH229622   3.770   2.494   2.443
 2688TIP3    H129623   3.775   2.481   2.348
 2688TIP3    H229624   3.775   2.406   2.480
 2689TIP3   OH229625   4.667   2.978   1.165
 2689TIP3    H129626   4.597   3.015   1.112
 2689TIP3    H229627   4.652   3.012   1.252
 2690TIP3   OH229628   4.325   3.488   0.388
 2690TIP3    H129629   4.388   3.475   0.459
 2690TIP3    H229630   4.379   3.499   0.310
 2691TIP3   OH229631   4.661   1.382   8.072
 2691TIP3    H129632   4.727   1.436   8.029
 2691TIP3    H229633   4.679   1.294   8.040
 2692TIP3   OH229634   1.547   6.744   8.404
 2692TIP3    H129635   1.528   6.686   8.477
 2692TIP3    H229636   1.551   6.686   8.328
 2693TIP3   OH229637   4.001   0.785   0.360
 2693TIP3    H129638   4.038   0.730   0.290
 2693TIP3    H229639   3.975   0.723   0.428
 2694TIP3   OH229640   2.530   6.236   7.541
 2694TIP3    H129641   2.537   6.222   7.635
 2694TIP3    H229642   2.601   6.296   7.521
 2695TIP3   OH229643   2.457   6.906   6.892
 2695TIP3    H129644   2.419   0.058   6.832
 2695TIP3    H229645   2.519   0.044   6.944
 2696TIP3   OH229646   5.528   0.592   1.633
 2696TIP3    H129647   5.589   0.533   1.589
 2696TIP3    H229648   5.444   0.547   1.629
 2697TIP3   OH229649   1.271   2.607   0.624
 2697TIP3    H129650   1.260   2.512   0.619
 2697TIP3    H229651   1.185   2.643   0.603
 2698TIP3   OH229652   6.817   1.746   1.525
 2698TIP3    H129653   6.870   1.700   1.590
 2698TIP3    H229654   6.871   1.820   1.498
 2699TIP3   OH229655   0.638   4.048   1.390
 2699TIP3    H129656   0.605   4.087   1.472
 2699TIP3    H229657   0.564   3.998   1.356
 2700TIP3   OH229658   4.628   1.800   0.338
 2700TIP3    H129659   4.673   1.833   0.416
 2700TIP3    H229660   4.698   1.765   0.283
 2701TIP3   OH229661   4.435   4.215   0.068
 2701TIP3    H129662   4.500   4.196   0.135
 2701TIP3    H229663   4.352   4.189   0.107
 2702TIP3   OH229664   2.119   5.926   1.742
 2702TIP3    H129665   2.140   5.986   1.671
 2702TIP3    H229666   2.028   5.902   1.728
 2703TIP3   OH229667   0.180   5.305   0.900
 2703TIP3    H129668   0.153   5.395   0.919
 2703TIP3    H229669   0.144   5.253   0.972
 2704TIP3   OH229670   4.964   4.771   0.076
 2704TIP3    H129671   5.053   4.739   0.093
 2704TIP3    H229672   4.967   4.864   0.098
 2705TIP3   OH229673   3.996   0.215   6.567
 2705TIP3    H129674   3.917   0.179   6.608
 2705TIP3    H229675   4.031   0.143   6.514
 2706TIP3   OH229676   3.604   3.587   7.096
 2706TIP3    H129677   3.573   3.558   7.010
 2706TIP3    H229678   3.630   3.507   7.141
 2707TIP3   OH229679   1.397   6.680   8.048
 2707TIP3    H129680   1.378   6.641   7.962
 2707TIP3    H229681   1.357   6.619   8.110
 2708TIP3   OH229682   5.781   1.178   0.135
 2708TIP3    H129683   5.733   1.108   0.179
 2708TIP3    H229684   5.873   1.155   0.147
 2709TIP3   OH229685   3.602   5.696   7.913
 2709TIP3    H129686   3.639   5.611   7.937
 2709TIP3    H229687   3.508   5.679   7.902
 2710TIP3   OH229688   2.157   4.838   6.461
 2710TIP3    H129689   2.097   4.879   6.523
 2710TIP3    H229690   2.100   4.787   6.403
 2711TIP3   OH229691   4.484   6.679   7.227
 2711TIP3    H129692   4.399   6.712   7.198
 2711TIP3    H229693   4.513   6.621   7.156
 2712TIP3   OH229694   3.658   1.296   0.231
 2712TIP3    H129695   3.598   1.222   0.230
 2712TIP3    H229696   3.714   1.281   0.307
 2713TIP3   OH229697   1.932   2.631   1.119
 2713TIP3    H129698   2.011   2.664   1.076
 2713TIP3    H229699   1.915   2.547   1.076
 2714TIP3   OH229700   6.004   3.151   7.710
 2714TIP3    H129701   5.950   3.094   7.655
 2714TIP3    H229702   6.005   3.109   7.796
 2715TIP3   OH229703   2.416   5.746   6.267
 2715TIP3    H129704   2.333   5.717   6.305
 2715TIP3    H229705   2.481   5.687   6.305
 2716TIP3   OH229706   3.852   3.903   1.611
 2716TIP3    H129707   3.935   3.890   1.566
 2716TIP3    H229708   3.797   3.947   1.547
 2717TIP3   OH229709   1.659   3.727   1.035
 2717TIP3    H129710   1.702   3.740   0.950
 2717TIP3    H229711   1.625   3.638   1.030
 2718TIP3   OH229712   2.509   6.211   0.128
 2718TIP3    H129713   2.507   6.240   0.037
 2718TIP3    H229714   2.466   6.282   0.177
 2719TIP3   OH229715   4.268   2.684   0.089
 2719TIP3    H129716   4.325   2.759   0.071
 2719TIP3    H229717   4.325   2.621   0.134
 2720TIP3   OH229718   4.351   3.419   0.839
 2720TIP3    H129719   4.359   3.463   0.924
 2720TIP3    H229720   4.439   3.420   0.803
 2721TIP3   OH229721   2.024   0.629   0.534
 2721TIP3    H129722   2.018   0.721   0.508
 2721TIP3    H229723   2.022   0.631   0.630
 2722TIP3   OH229724   4.471   6.548   6.680
 2722TIP3    H129725   4.559   6.515   6.698
 2722TIP3    H229726   4.431   6.482   6.624
 2723TIP3   OH229727   0.521   4.511   6.998
 2723TIP3    H129728   0.590   4.471   7.052
 2723TIP3    H229729   0.554   4.504   6.909
 2724TIP3   OH229730   1.218   0.197   7.771
 2724TIP3    H129731   1.273   0.210   7.848
 2724TIP3    H229732   1.246   0.112   7.736
 2725TIP3   OH229733   1.598   0.174   1.533
 2725TIP3    H129734   1.606   0.200   1.624
 2725TIP3    H229735   1.574   0.254   1.487
 2726TIP3   OH229736   6.779   4.097   1.443
 2726TIP3    H129737   6.829   4.147   1.378
 2726TIP3    H229738   6.817   4.122   1.527
 2727TIP3   OH229739   2.963   6.306   1.637
 2727TIP3    H129740   2.869   6.296   1.623
 2727TIP3    H229741   2.994   6.218   1.657
 2728TIP3   OH229742   0.106   1.078   0.799
 2728TIP3    H129743   0.167   1.034   0.859
 2728TIP3    H229744   0.121   1.037   0.714
 2729TIP3   OH229745   2.164   4.010   2.175
 2729TIP3    H129746   2.259   4.027   2.177
 2729TIP3    H229747   2.134   4.054   2.095
 2730TIP3   OH229748   6.238   6.078   0.025
 2730TIP3    H129749   6.210   6.003   8.575
 2730TIP3    H229750   6.196   6.153   8.588
 2731TIP3   OH229751   0.580   5.952   6.938
 2731TIP3    H129752   0.600   6.026   6.994
 2731TIP3    H229753   0.565   5.991   6.851
 2732TIP3   OH229754   6.147   0.158   1.168
 2732TIP3    H129755   6.160   0.243   1.210
 2732TIP3    H229756   6.187   0.095   1.228
 2733TIP3   OH229757   5.926   5.393   5.843
 2733TIP3    H129758   5.944   5.311   5.891
 2733TIP3    H229759   5.832   5.407   5.855
 2734TIP3   OH229760   5.653   5.013   8.399
 2734TIP3    H129761   5.661   4.940   8.460
 2734TIP3    H229762   5.724   4.999   8.336
 2735TIP3   OH229763   3.878   1.879   8.195
 2735TIP3    H129764   3.828   1.943   8.144
 2735TIP3    H229765   3.931   1.932   8.256
 2736TIP3   OH229766   5.026   0.831   2.364
 2736TIP3    H129767   5.071   0.803   2.285
 2736TIP3    H229768   4.975   0.755   2.392
 2737TIP3   OH229769   1.582   3.528   6.664
 2737TIP3    H129770   1.599   3.499   6.574
 2737TIP3    H229771   1.498   3.488   6.687
 2738TIP3   OH229772   2.305   3.741   7.372
 2738TIP3    H129773   2.229   3.710   7.321
 2738TIP3    H229774   2.288   3.709   7.461
 2739TIP3   OH229775   1.271   6.354   8.542
 2739TIP3    H129776   1.280   6.285   0.006
 2739TIP3    H229777   1.275   6.436   8.592
 2740TIP3   OH229778   3.528   0.498   1.300
 2740TIP3    H129779   3.469   0.456   1.363
 2740TIP3    H229780   3.572   0.566   1.350
 2741TIP3   OH229781   0.232   0.849   1.171
 2741TIP3    H129782   0.308   0.842   1.114
 2741TIP3    H229783   0.169   0.902   1.122
 2742TIP3   OH229784   0.491   5.540   6.415
 2742TIP3    H129785   0.544   5.589   6.351
 2742TIP3    H229786   0.453   5.468   6.364
 2743TIP3   OH229787   5.102   2.137   8.023
 2743TIP3    H129788   5.103   2.215   7.968
 2743TIP3    H229789   5.141   2.166   8.106
 2744TIP3   OH229790   5.444   0.169   8.366
 2744TIP3    H129791   5.413   0.155   8.455
 2744TIP3    H229792   5.454   0.081   8.330
 2745TIP3   OH229793   0.258   0.305   1.286
 2745TIP3    H129794   0.222   0.383   1.327
 2745TIP3    H229795   0.256   0.238   1.355
 2746TIP3   OH229796   5.181   2.750   2.225
 2746TIP3    H129797   5.223   2.727   2.308
 2746TIP3    H229798   5.123   2.676   2.207
 2747TIP3   OH229799   3.767   1.164   7.368
 2747TIP3    H129800   3.799   1.142   7.456
 2747TIP3    H229801   3.700   1.231   7.383
 2748TIP3   OH229802   3.519   2.599   8.292
 2748TIP3    H129803   3.517   2.687   8.330
 2748TIP3    H229804   3.466   2.606   8.213
 2749TIP3   OH229805   5.606   5.619   1.742
 2749TIP3    H129806   5.582   5.583   1.657
 2749TIP3    H229807   5.680   5.567   1.771
 2750TIP3   OH229808   4.979   5.471   7.056
 2750TIP3    H129809   4.953   5.405   6.992
 2750TIP3    H229810   5.073   5.482   7.043
 2751TIP3   OH229811   4.557   4.077   6.712
 2751TIP3    H129812   4.553   4.069   6.617
 2751TIP3    H229813   4.651   4.079   6.732
 2752TIP3   OH229814   4.729   6.728   0.595
 2752TIP3    H129815   4.776   6.749   0.514
 2752TIP3    H229816   4.705   6.636   0.586
 2753TIP3   OH229817   0.364   5.673   8.580
 2753TIP3    H129818   0.305   5.601   8.558
 2753TIP3    H229819   0.318   5.722   0.044
 2754TIP3   OH229820   1.873   2.679   7.369
 2754TIP3    H129821   1.780   2.700   7.362
 2754TIP3    H229822   1.899   2.714   7.454
 2755TIP3   OH229823   0.487   1.802   1.954
 2755TIP3    H129824   0.453   1.801   2.044
 2755TIP3    H229825   0.418   1.761   1.902
 2756TIP3   OH229826   1.404   3.740   7.968
 2756TIP3    H129827   1.343   3.797   7.921
 2756TIP3    H229828   1.483   3.740   7.914
 2757TIP3   OH229829   1.003   1.997   6.975
 2757TIP3    H129830   1.036   1.975   7.062
 2757TIP3    H229831   1.068   1.961   6.915
 2758TIP3   OH229832   3.568   5.038   6.929
 2758TIP3    H129833   3.584   4.984   7.006
 2758TIP3    H229834   3.655   5.066   6.901
 2759TIP3   OH229835   5.749   6.828   7.321
 2759TIP3    H129836   5.708   6.878   7.392
 2759TIP3    H229837   5.675   6.787   7.275
 2760TIP3   OH229838   1.429   4.943   6.667
 2760TIP3    H129839   1.452   4.869   6.723
 2760TIP3    H229840   1.348   4.915   6.624
 2761TIP3   OH229841   4.323   4.569   1.654
 2761TIP3    H129842   4.229   4.551   1.661
 2761TIP3    H229843   4.333   4.613   1.570
 2762TIP3   OH229844   2.435   1.197   7.120
 2762TIP3    H129845   2.530   1.202   7.134
 2762TIP3    H229846   2.404   1.138   7.189
 2763TIP3   OH229847   0.961   5.634   8.444
 2763TIP3    H129848   0.926   5.547   8.464
 2763TIP3    H229849   0.896   5.674   8.386
 2764TIP3   OH229850   2.296   3.167   1.188
 2764TIP3    H129851   2.363   3.233   1.206
 2764TIP3    H229852   2.335   3.085   1.218
 2765TIP3   OH229853   0.169   5.169   8.312
 2765TIP3    H129854   0.260   5.145   8.330
 2765TIP3    H229855   0.142   5.221   8.388
 2766TIP3   OH229856   5.709   5.719   7.461
 2766TIP3    H129857   5.633   5.772   7.485
 2766TIP3    H229858   5.683   5.629   7.484
 2767TIP3   OH229859   4.529   3.753   0.705
 2767TIP3    H129860   4.539   3.800   0.788
 2767TIP3    H229861   4.481   3.814   0.648
 2768TIP3   OH229862   5.981   0.195   0.312
 2768TIP3    H129863   6.061   0.162   0.351
 2768TIP3    H229864   5.957   0.271   0.365
 2769TIP3   OH229865   6.757   1.906   8.534
 2769TIP3    H129866   6.740   1.823   8.579
 2769TIP3    H229867   6.782   1.966   0.001
 2770TIP3   OH229868   1.348   5.421   2.522
 2770TIP3    H129869   1.261   5.432   2.560
 2770TIP3    H229870   1.342   5.463   2.436
 2771TIP3   OH229871   1.504   3.424   7.247
 2771TIP3    H129872   1.510   3.432   7.152
 2771TIP3    H229873   1.588   3.388   7.274
 2772TIP3   OH229874   0.502   3.174   0.419
 2772TIP3    H129875   0.485   3.184   0.325
 2772TIP3    H229876   0.416   3.180   0.460
 2773TIP3   OH229877   1.263   6.531   0.492
 2773TIP3    H129878   1.356   6.541   0.470
 2773TIP3    H229879   1.260   6.458   0.553
 2774TIP3   OH229880   4.941   3.787   0.173
 2774TIP3    H129881   5.015   3.812   0.118
 2774TIP3    H229882   4.973   3.797   0.263
 2775TIP3   OH229883   1.098   6.403   1.017
 2775TIP3    H129884   1.088   6.456   0.938
 2775TIP3    H229885   1.071   6.315   0.991
 2776TIP3   OH229886   3.341   6.209   7.372
 2776TIP3    H129887   3.323   6.124   7.412
 2776TIP3    H229888   3.290   6.271   7.423
 2777TIP3   OH229889   6.795   0.212   8.041
 2777TIP3    H129890   6.834   0.268   7.974
 2777TIP3    H229891   6.842   0.129   8.033
 2778TIP3   OH229892   4.672   1.456   6.780
 2778TIP3    H129893   4.642   1.393   6.714
 2778TIP3    H229894   4.755   1.489   6.745
 2779TIP3   OH229895   1.941   3.491   1.637
 2779TIP3    H129896   1.887   3.569   1.623
 2779TIP3    H229897   1.966   3.463   1.550
 2780TIP3   OH229898   3.482   4.791   6.106
 2780TIP3    H129899   3.430   4.745   6.039
 2780TIP3    H229900   3.563   4.813   6.061
 2781TIP3   OH229901   3.741   5.316   0.772
 2781TIP3    H129902   3.745   5.399   0.724
 2781TIP3    H229903   3.833   5.289   0.780
 2782TIP3   OH229904   2.816   4.601   6.241
 2782TIP3    H129905   2.832   4.535   6.308
 2782TIP3    H229906   2.893   4.657   6.245
 2783TIP3   OH229907   5.543   1.074   6.000
 2783TIP3    H129908   5.565   0.999   5.943
 2783TIP3    H229909   5.627   1.099   6.039
 2784TIP3   OH229910   4.300   3.714   1.266
 2784TIP3    H129911   4.231   3.755   1.317
 2784TIP3    H229912   4.349   3.787   1.229
 2785TIP3   OH229913   6.355   6.410   7.950
 2785TIP3    H129914   6.329   6.394   7.860
 2785TIP3    H229915   6.393   6.326   7.979
 2786TIP3   OH229916   5.774   6.745   6.837
 2786TIP3    H129917   5.702   6.808   6.829
 2786TIP3    H229918   5.768   6.693   6.757
 2787TIP3   OH229919   3.176   4.924   0.074
 2787TIP3    H129920   3.087   4.957   0.062
 2787TIP3    H229921   3.173   4.877   0.158
 2788TIP3   OH229922   1.307   4.741   6.277
 2788TIP3    H129923   1.331   4.825   6.236
 2788TIP3    H229924   1.227   4.760   6.325
 2789TIP3   OH229925   5.467   0.419   7.469
 2789TIP3    H129926   5.391   0.471   7.494
 2789TIP3    H229927   5.485   0.446   7.379
 2790TIP3   OH229928   4.106   1.980   8.584
 2790TIP3    H129929   4.050   2.002   0.056
 2790TIP3    H229930   4.193   2.010   0.007
 2791TIP3   OH229931   4.554   1.772   2.444
 2791TIP3    H129932   4.619   1.841   2.458
 2791TIP3    H229933   4.575   1.705   2.509
 2792TIP3   OH229934   1.123   1.388   0.856
 2792TIP3    H129935   1.146   1.305   0.897
 2792TIP3    H229936   1.207   1.432   0.842
 2793TIP3   OH229937   0.264   3.621   0.467
 2793TIP3    H129938   0.237   3.538   0.506
 2793TIP3    H229939   0.255   3.608   0.373
 2794TIP3   OH229940   2.417   0.485   0.512
 2794TIP3    H129941   2.350   0.429   0.474
 2794TIP3    H229942   2.369   0.544   0.570
 2795TIP3   OH229943   5.450   4.790   7.556
 2795TIP3    H129944   5.431   4.859   7.493
 2795TIP3    H229945   5.366   4.772   7.599
 2796TIP3   OH229946   3.111   4.183   7.166
 2796TIP3    H129947   3.092   4.089   7.166
 2796TIP3    H229948   3.204   4.188   7.146
 2797TIP3   OH229949   5.421   1.031   1.713
 2797TIP3    H129950   5.410   1.055   1.805
 2797TIP3    H229951   5.359   1.085   1.665
 2798TIP3   OH229952   6.307   6.341   1.283
 2798TIP3    H129953   6.292   6.416   1.342
 2798TIP3    H229954   6.360   6.281   1.335
 2799TIP3   OH229955   5.306   3.695   0.207
 2799TIP3    H129956   5.338   3.775   0.165
 2799TIP3    H229957   5.376   3.631   0.193
 2800TIP3   OH229958   4.123   6.848   1.581
 2800TIP3    H129959   4.079   6.784   1.637
 2800TIP3    H229960   4.052   6.893   1.535
 2801TIP3   OH229961   5.959   6.285   5.950
 2801TIP3    H129962   5.934   6.314   6.038
 2801TIP3    H229963   5.883   6.307   5.895
 2802TIP3   OH229964   3.791   1.763   0.506
 2802TIP3    H129965   3.759   1.779   0.418
 2802TIP3    H229966   3.860   1.698   0.495
 2803TIP3   OH229967   0.697   1.914   0.736
 2803TIP3    H129968   0.715   2.005   0.760
 2803TIP3    H229969   0.693   1.867   0.820
 2804TIP3   OH229970   5.324   0.788   0.416
 2804TIP3    H129971   5.229   0.798   0.414
 2804TIP3    H229972   5.358   0.868   0.377
 2805TIP3   OH229973   4.153   6.862   0.970
 2805TIP3    H129974   4.228   0.008   0.983
 2805TIP3    H229975   4.114   6.889   0.888
 2806TIP3   OH229976   0.700   0.387   1.433
 2806TIP3    H129977   0.619   0.416   1.475
 2806TIP3    H229978   0.759   0.462   1.443
 2807TIP3   OH229979   4.000   6.555   2.095
 2807TIP3    H129980   4.006   6.585   2.186
 2807TIP3    H229981   4.062   6.483   2.089
 2808TIP3   OH229982   6.260   2.926   7.682
 2808TIP3    H129983   6.352   2.928   7.654
 2808TIP3    H229984   6.260   2.969   7.768
 2809TIP3   OH229985   6.111   2.385   1.262
 2809TIP3    H129986   6.177   2.364   1.195
 2809TIP3    H229987   6.070   2.466   1.231
 2810TIP3   OH229988   2.496   0.080   8.331
 2810TIP3    H129989   2.474   0.170   8.354
 2810TIP3    H229990   2.532   0.085   8.243
 2811TIP3   OH229991   6.184   4.806   2.868
 2811TIP3    H129992   6.190   4.901   2.860
 2811TIP3    H229993   6.154   4.777   2.782
 2812TIP3   OH229994   3.032   1.154   1.938
 2812TIP3    H129995   3.116   1.170   1.893
 2812TIP3    H229996   3.047   1.075   1.990
 2813TIP3   OH229997   6.401   6.368   0.902
 2813TIP3    H129998   6.421   6.300   0.966
 2813TIP3    H229999   6.479   6.371   0.846
 2814TIP3   OH230000   6.767   2.985   7.172
 2814TIP3    H130001   6.763   2.898   7.131
 2814TIP3    H230002   6.703   3.037   7.124
 2815TIP3   OH230003   1.954   4.380   7.441
 2815TIP3    H130004   2.012   4.382   7.365
 2815TIP3    H230005   1.879   4.327   7.413
 2816TIP3   OH230006   4.210   1.762   0.230
 2816TIP3    H130007   4.286   1.771   0.172
 2816TIP3    H230008   4.248   1.748   0.317
 2817TIP3   OH230009   5.828   6.096   8.147
 2817TIP3    H130010   5.782   6.035   8.204
 2817TIP3    H230011   5.917   6.061   8.141
 2818TIP3   OH230012   1.799   2.225   5.815
 2818TIP3    H130013   1.737   2.151   5.816
 2818TIP3    H230014   1.753   2.295   5.861
 2819TIP3   OH230015   3.425   1.949   1.668
 2819TIP3    H130016   3.491   1.945   1.736
 2819TIP3    H230017   3.446   2.028   1.618
 2820TIP3   OH230018   5.339   5.292   0.784
 2820TIP3    H130019   5.365   5.201   0.767
 2820TIP3    H230020   5.401   5.345   0.734
 2821TIP3   OH230021   6.283   2.279   0.205
 2821TIP3    H130022   6.228   2.356   0.219
 2821TIP3    H230023   6.223   2.214   0.167
 2822TIP3   OH230024   0.799   0.845   8.298
 2822TIP3    H130025   0.756   0.800   8.225
 2822TIP3    H230026   0.727   0.881   8.350
 2823TIP3   OH230027   2.109   1.097   7.174
 2823TIP3    H130028   2.111   1.188   7.143
 2823TIP3    H230029   2.110   1.044   7.095
 2824TIP3   OH230030   4.224   5.690   1.526
 2824TIP3    H130031   4.141   5.674   1.481
 2824TIP3    H230032   4.290   5.650   1.471
 2825TIP3   OH230033   0.322   5.456   1.211
 2825TIP3    H130034   0.356   5.493   1.292
 2825TIP3    H230035   0.227   5.454   1.223
 2826TIP3   OH230036   6.484   6.286   0.272
 2826TIP3    H130037   6.500   6.379   0.256
 2826TIP3    H230038   6.570   6.250   0.292
 2827TIP3   OH230039   0.345   1.032   1.572
 2827TIP3    H130040   0.310   1.110   1.529
 2827TIP3    H230041   0.296   1.025   1.654
 2828TIP3   OH230042   5.515   1.344   7.783
 2828TIP3    H130043   5.538   1.253   7.802
 2828TIP3    H230044   5.420   1.347   7.788
 2829TIP3   OH230045   2.067   5.380   8.578
 2829TIP3    H130046   1.980   5.417   8.567
 2829TIP3    H230047   2.052   5.292   0.008
 2830TIP3   OH230048   4.291   0.325   0.712
 2830TIP3    H130049   4.216   0.308   0.655
 2830TIP3    H230050   4.256   0.318   0.801
 2831TIP3   OH230051   2.934   1.250   2.356
 2831TIP3    H130052   2.931   1.162   2.318
 2831TIP3    H230053   3.018   1.285   2.326
 2832TIP3   OH230054   0.432   0.684   0.509
 2832TIP3    H130055   0.426   0.621   0.437
 2832TIP3    H230056   0.524   0.681   0.536
 2833TIP3   OH230057   0.569   5.093   0.440
 2833TIP3    H130058   0.521   5.057   0.514
 2833TIP3    H230059   0.638   5.147   0.481
 2834TIP3   OH230060   6.430   6.780   0.893
 2834TIP3    H130061   6.491   6.757   0.964
 2834TIP3    H230062   6.485   6.820   0.826
 2835TIP3   OH230063   0.741   3.190   7.585
 2835TIP3    H130064   0.681   3.121   7.557
 2835TIP3    H230065   0.737   3.256   7.516
 2836TIP3   OH230066   2.648   3.194   1.228
 2836TIP3    H130067   2.688   3.280   1.237
 2836TIP3    H230068   2.559   3.206   1.262
 2837TIP3   OH230069   5.941   0.312   0.880
 2837TIP3    H130070   6.000   0.375   0.922
 2837TIP3    H230071   5.979   0.226   0.899
 2838TIP3   OH230072   5.766   4.284   0.674
 2838TIP3    H130073   5.751   4.235   0.755
 2838TIP3    H230074   5.689   4.340   0.665
 2839TIP3   OH230075   1.546   6.692   7.667
 2839TIP3    H130076   1.628   6.644   7.677
 2839TIP3    H230077   1.543   6.717   7.575
 2840TIP3   OH230078   5.973   1.287   7.644
 2840TIP3    H130079   5.931   1.218   7.695
 2840TIP3    H230080   5.951   1.267   7.553
 2841TIP3   OH230081   2.546   1.779   7.502
 2841TIP3    H130082   2.463   1.824   7.487
 2841TIP3    H230083   2.587   1.827   7.573
 2842TIP3   OH230084   3.491   2.070   7.861
 2842TIP3    H130085   3.548   2.009   7.907
 2842TIP3    H230086   3.544   2.099   7.786
 2843TIP3   OH230087   5.819   2.120   8.239
 2843TIP3    H130088   5.736   2.138   8.283
 2843TIP3    H230089   5.822   2.025   8.231
 2844TIP3   OH230090   3.687   3.537   1.080
 2844TIP3    H130091   3.593   3.549   1.098
 2844TIP3    H230092   3.712   3.462   1.135
 2845TIP3   OH230093   6.028   2.555   8.487
 2845TIP3    H130094   5.965   2.521   8.424
 2845TIP3    H230095   6.113   2.537   8.447
 2846TIP3   OH230096   4.125   2.263   2.493
 2846TIP3    H130097   4.217   2.284   2.479
 2846TIP3    H230098   4.126   2.177   2.535
 2847TIP3   OH230099   3.150   5.724   6.858
 2847TIP3    H130100   3.150   5.711   6.763
 2847TIP3    H230101   3.239   5.701   6.885
 2848TIP3   OH230102   1.666   5.875   0.251
 2848TIP3    H130103   1.633   5.941   0.190
 2848TIP3    H230104   1.671   5.795   0.198
 2849TIP3   OH230105   5.337   1.031   6.158
 2849TIP3    H130106   5.360   0.973   6.231
 2849TIP3    H230107   5.400   1.010   6.090
 2850TIP3   OH230108   2.779   4.415   0.844
 2850TIP3    H130109   2.722   4.457   0.909
 2850TIP3    H230110   2.768   4.468   0.765
 2851TIP3   OH230111   2.754   6.326   8.538
 2851TIP3    H130112   2.795   6.246   8.505
 2851TIP3    H230113   2.668   6.328   8.494
 2852TIP3   OH230114   5.016   5.283   1.993
 2852TIP3    H130115   4.992   5.218   1.927
 2852TIP3    H230116   5.065   5.234   2.058
 2853TIP3   OH230117   5.067   5.621   8.602
 2853TIP3    H130118   5.060   5.547   0.060
 2853TIP3    H230119   4.978   5.633   8.570
 2854TIP3   OH230120   3.467   2.893   7.886
 2854TIP3    H130121   3.504   2.940   7.811
 2854TIP3    H230122   3.486   2.801   7.868
 2855TIP3   OH230123   5.609   4.485   0.386
 2855TIP3    H130124   5.594   4.405   0.437
 2855TIP3    H230125   5.553   4.550   0.427
 2856TIP3   OH230126   3.545   5.110   7.626
 2856TIP3    H130127   3.521   5.074   7.541
 2856TIP3    H230128   3.612   5.175   7.607
 2857TIP3   OH230129   2.834   3.977   8.303
 2857TIP3    H130130   2.804   4.045   8.364
 2857TIP3    H230131   2.929   3.982   8.306
 2858TIP3   OH230132   0.058   0.029   7.227
 2858TIP3    H130133   0.116   6.912   7.298
 2858TIP3    H230134   0.090   6.897   7.149
 2859TIP3   OH230135   4.477   1.556   1.368
 2859TIP3    H130136   4.422   1.512   1.303
 2859TIP3    H230137   4.520   1.485   1.415
 2860TIP3   OH230138   4.532   3.123   7.978
 2860TIP3    H130139   4.519   3.166   8.063
 2860TIP3    H230140   4.502   3.188   7.914
 2861TIP3   OH230141   3.902   2.181   8.056
 2861TIP3    H130142   3.830   2.233   8.093
 2861TIP3    H230143   3.971   2.246   8.039
 2862TIP3   OH230144   3.953   1.099   2.314
 2862TIP3    H130145   3.882   1.152   2.350
 2862TIP3    H230146   3.989   1.152   2.242
 2863TIP3   OH230147   0.580   3.938   0.076
 2863TIP3    H130148   0.533   3.977   0.002
 2863TIP3    H230149   0.553   3.990   0.152
 2864TIP3   OH230150   3.908   0.617   7.534
 2864TIP3    H130151   3.980   0.594   7.475
 2864TIP3    H230152   3.944   0.687   7.589
 2865TIP3   OH230153   5.442   1.911   0.500
 2865TIP3    H130154   5.362   1.862   0.483
 2865TIP3    H230155   5.446   1.918   0.596
 2866TIP3   OH230156   2.752   3.551   6.844
 2866TIP3    H130157   2.711   3.628   6.806
 2866TIP3    H230158   2.803   3.512   6.773
 2867TIP3   OH230159   6.837   0.839   7.362
 2867TIP3    H130160   6.791   0.761   7.332
 2867TIP3    H230161   6.778   0.911   7.343
 2868TIP3   OH230162   4.798   2.708   0.276
 2868TIP3    H130163   4.790   2.662   0.192
 2868TIP3    H230164   4.727   2.773   0.273
 2869TIP3   OH230165   2.629   1.997   0.649
 2869TIP3    H130166   2.648   2.011   0.557
 2869TIP3    H230167   2.544   2.039   0.663
 2870TIP3   OH230168   6.318   5.812   2.189
 2870TIP3    H130169   6.266   5.739   2.156
 2870TIP3    H230170   6.353   5.854   2.110
 2871TIP3   OH230171   3.780   0.728   8.595
 2871TIP3    H130172   3.859   0.783   8.592
 2871TIP3    H230173   3.799   0.661   0.058
 2872TIP3   OH230174   4.628   1.449   6.406
 2872TIP3    H130175   4.577   1.392   6.463
 2872TIP3    H230176   4.566   1.478   6.340
 2873TIP3   OH230177   1.008   3.945   7.017
 2873TIP3    H130178   1.014   3.850   7.029
 2873TIP3    H230179   1.096   3.972   6.993
 2874TIP3   OH230180   5.992   2.155   0.992
 2874TIP3    H130181   6.040   2.143   1.074
 2874TIP3    H230182   6.059   2.154   0.925
 2875TIP3   OH230183   5.005   6.180   8.508
 2875TIP3    H130184   4.998   6.084   8.504
 2875TIP3    H230185   5.024   6.198   8.600
 2876TIP3   OH230186   2.031   2.962   8.554
 2876TIP3    H130187   1.940   2.949   8.578
 2876TIP3    H230188   2.078   2.967   0.035
 2877TIP3   OH230189   1.898   4.107   0.648
 2877TIP3    H130190   1.862   4.188   0.684
 2877TIP3    H230191   1.958   4.074   0.715
 2878TIP3   OH230192   3.995   5.419   8.335
 2878TIP3    H130193   3.982   5.503   8.291
 2878TIP3    H230194   3.995   5.355   8.264
 2879TIP3   OH230195   6.778   0.483   7.159
 2879TIP3    H130196   6.800   0.432   7.236
 2879TIP3    H230197   6.711   0.544   7.189
 2880TIP3   OH230198   1.176   3.335   8.494
 2880TIP3    H130199   1.250   3.396   8.486
 2880TIP3    H230200   1.116   3.378   8.555
 2881TIP3   OH230201   4.959   5.811   1.121
 2881TIP3    H130202   4.946   5.716   1.129
 2881TIP3    H230203   5.030   5.830   1.182
 2882TIP3   OH230204   0.520   6.709   2.063
 2882TIP3    H130205   0.573   6.632   2.040
 2882TIP3    H230206   0.441   6.700   2.008
 2883TIP3   OH230207   4.948   0.778   1.171
 2883TIP3    H130208   4.968   0.858   1.123
 2883TIP3    H230209   4.859   0.755   1.144
 2884TIP3   OH230210   0.326   4.139   7.090
 2884TIP3    H130211   0.384   4.107   7.021
 2884TIP3    H230212   0.247   4.085   7.081
 2885TIP3   OH230213   5.085   0.277   6.786
 2885TIP3    H130214   5.064   0.354   6.733
 2885TIP3    H230215   5.029   0.208   6.751
 2886TIP3   OH230216   0.316   4.191   0.631
 2886TIP3    H130217   0.403   4.230   0.620
 2886TIP3    H230218   0.274   4.245   0.698
 2887TIP3   OH230219   3.705   1.794   2.013
 2887TIP3    H130220   3.638   1.862   2.000
 2887TIP3    H230221   3.686   1.759   2.099
 2888TIP3   OH230222   4.427   4.815   6.594
 2888TIP3    H130223   4.498   4.787   6.651
 2888TIP3    H230224   4.448   4.906   6.573
 2889TIP3   OH230225   1.659   3.873   6.917
 2889TIP3    H130226   1.708   3.817   6.978
 2889TIP3    H230227   1.700   3.857   6.832
 2890TIP3   OH230228   2.275   2.803   7.008
 2890TIP3    H130229   2.263   2.876   7.068
 2890TIP3    H230230   2.334   2.743   7.054
 2891TIP3   OH230231   4.730   2.141   0.946
 2891TIP3    H130232   4.752   2.234   0.935
 2891TIP3    H230233   4.637   2.136   0.925
 2892TIP3   OH230234   2.218   3.285   6.865
 2892TIP3    H130235   2.286   3.332   6.818
 2892TIP3    H230236   2.214   3.327   6.951
 2893TIP3   OH230237   6.037   4.298   0.927
 2893TIP3    H130238   6.076   4.217   0.895
 2893TIP3    H230239   5.943   4.282   0.926
 2894TIP3   OH230240   2.892   4.651   8.226
 2894TIP3    H130241   2.910   4.743   8.211
 2894TIP3    H230242   2.969   4.605   8.191
 2895TIP3   OH230243   4.621   3.619   6.429
 2895TIP3    H130244   4.672   3.651   6.355
 2895TIP3    H230245   4.683   3.571   6.483
 2896TIP3   OH230246   4.385   4.267   0.759
 2896TIP3    H130247   4.330   4.278   0.837
 2896TIP3    H230248   4.466   4.227   0.793
 2897TIP3   OH230249   0.559   5.760   1.342
 2897TIP3    H130250   0.494   5.718   1.399
 2897TIP3    H230251   0.556   5.852   1.366
 2898TIP3   OH230252   5.749   3.245   0.281
 2898TIP3    H130253   5.808   3.287   0.344
 2898TIP3    H230254   5.753   3.152   0.303
 2899TIP3   OH230255   2.420   4.120   0.350
 2899TIP3    H130256   2.470   4.185   0.302
 2899TIP3    H230257   2.456   4.036   0.320
 2900TIP3   OH230258   1.662   6.692   7.155
 2900TIP3    H130259   1.603   6.717   7.084
 2900TIP3    H230260   1.750   6.703   7.118
 2901TIP3   OH230261   0.769   6.463   1.402
 2901TIP3    H130262   0.741   6.548   1.435
 2901TIP3    H230263   0.816   6.423   1.476
 2902TIP3   OH230264   5.397   3.087   1.346
 2902TIP3    H130265   5.443   3.171   1.347
 2902TIP3    H230266   5.344   3.088   1.425
 2903TIP3   OH230267   5.391   3.913   0.923
 2903TIP3    H130268   5.397   3.838   0.864
 2903TIP3    H230269   5.331   3.884   0.992
 2904TIP3   OH230270   2.849   1.919   7.931
 2904TIP3    H130271   2.808   2.004   7.920
 2904TIP3    H230272   2.897   1.926   8.014
 2905TIP3   OH230273   0.458   3.056   1.637
 2905TIP3    H130274   0.377   3.106   1.628
 2905TIP3    H230275   0.527   3.115   1.604
 2906TIP3   OH230276   3.672   1.323   1.533
 2906TIP3    H130277   3.643   1.414   1.540
 2906TIP3    H230278   3.744   1.325   1.470
 2907TIP3   OH230279   1.423   2.064   6.817
 2907TIP3    H130280   1.346   2.033   6.768
 2907TIP3    H230281   1.485   1.992   6.811
 2908TIP3   OH230282   1.197   2.974   6.521
 2908TIP3    H130283   1.142   2.991   6.444
 2908TIP3    H230284   1.242   3.057   6.537
 2909TIP3   OH230285   3.272   4.051   7.845
 2909TIP3    H130286   3.246   4.117   7.908
 2909TIP3    H230287   3.340   4.093   7.792
 2910TIP3   OH230288   3.346   0.808   8.349
 2910TIP3    H130289   3.260   0.846   8.334
 2910TIP3    H230290   3.406   0.883   8.344
 2911TIP3   OH230291   5.698   4.186   7.816
 2911TIP3    H130292   5.644   4.262   7.797
 2911TIP3    H230293   5.788   4.218   7.808
 2912TIP3   OH230294   2.333   1.814   6.989
 2912TIP3    H130295   2.412   1.861   7.015
 2912TIP3    H230296   2.265   1.880   6.986
 2913TIP3   OH230297   2.312   1.570   7.417
 2913TIP3    H130298   2.349   1.525   7.341
 2913TIP3    H230299   2.344   1.520   7.492
 2914TIP3   OH230300   2.443   4.440   1.210
 2914TIP3    H130301   2.348   4.440   1.201
 2914TIP3    H230302   2.462   4.514   1.267
 2915TIP3   OH230303   1.193   3.135   6.808
 2915TIP3    H130304   1.112   3.170   6.771
 2915TIP3    H230305   1.251   3.126   6.733
 2916TIP3   OH230306   1.412   6.028   6.456
 2916TIP3    H130307   1.339   6.003   6.513
 2916TIP3    H230308   1.489   5.987   6.495
 2917TIP3   OH230309   1.370   1.466   0.771
 2917TIP3    H130310   1.402   1.378   0.751
 2917TIP3    H230311   1.440   1.524   0.740
 2918TIP3   OH230312   3.543   5.106   8.394
 2918TIP3    H130313   3.589   5.187   8.371
 2918TIP3    H230314   3.590   5.038   8.347
 2919TIP3   OH230315   0.305   6.507   1.578
 2919TIP3    H130316   0.390   6.480   1.544
 2919TIP3    H230317   0.252   6.525   1.500
 2920TIP3   OH230318   6.606   6.611   8.011
 2920TIP3    H130319   6.521   6.598   7.969
 2920TIP3    H230320   6.609   6.544   8.079
 2921TIP3   OH230321   2.116   2.581   8.145
 2921TIP3    H130322   2.040   2.618   8.101
 2921TIP3    H230323   2.123   2.492   8.111
 2922TIP3   OH230324   0.145   2.585   1.980
 2922TIP3    H130325   0.137   2.584   2.075
 2922TIP3    H230326   0.239   2.586   1.963
 2923TIP3   OH230327   5.208   5.742   7.051
 2923TIP3    H130328   5.244   5.802   6.985
 2923TIP3    H230329   5.158   5.678   7.001
 2924TIP3   OH230330   2.040   6.289   1.695
 2924TIP3    H130331   1.962   6.248   1.657
 2924TIP3    H230332   2.098   6.304   1.621
 2925TIP3   OH230333   4.803   2.775   2.402
 2925TIP3    H130334   4.762   2.713   2.463
 2925TIP3    H230335   4.893   2.785   2.434
 2926TIP3   OH230336   3.086   0.868   8.280
 2926TIP3    H130337   3.066   0.798   8.218
 2926TIP3    H230338   3.020   0.935   8.264
 2927TIP3   OH230339   6.240   6.018   7.868
 2927TIP3    H130340   6.246   5.926   7.842
 2927TIP3    H230341   6.176   6.056   7.808
 2928TIP3   OH230342   3.657   1.596   1.185
 2928TIP3    H130343   3.583   1.576   1.126
 2928TIP3    H230344   3.697   1.511   1.202
 2929TIP3   OH230345   2.070   4.512   0.861
 2929TIP3    H130346   2.050   4.604   0.879
 2929TIP3    H230347   1.985   4.469   0.857
 2930TIP3   OH230348   4.041   4.176   7.399
 2930TIP3    H130349   3.961   4.126   7.412
 2930TIP3    H230350   4.076   4.191   7.487
 2931TIP3   OH230351   5.012   3.761   7.256
 2931TIP3    H130352   5.016   3.670   7.284
 2931TIP3    H230353   4.942   3.764   7.191
 2932TIP3   OH230354   4.709   5.208   0.584
 2932TIP3    H130355   4.693   5.302   0.575
 2932TIP3    H230356   4.801   5.202   0.609
 2933TIP3   OH230357   0.177   2.098   1.227
 2933TIP3    H130358   0.108   2.164   1.236
 2933TIP3    H230359   0.234   2.112   1.302
 2934TIP3   OH230360   6.367   1.626   1.093
 2934TIP3    H130361   6.344   1.672   1.012
 2934TIP3    H230362   6.300   1.559   1.103
 2935TIP3   OH230363   4.662   2.742   1.542
 2935TIP3    H130364   4.654   2.783   1.628
 2935TIP3    H230365   4.699   2.656   1.559
 2936TIP3   OH230366   0.676   5.498   8.026
 2936TIP3    H130367   0.651   5.589   8.040
 2936TIP3    H230368   0.770   5.497   8.041
 2937TIP3   OH230369   1.375   1.481   1.146
 2937TIP3    H130370   1.451   1.503   1.092
 2937TIP3    H230371   1.353   1.391   1.120
 2938TIP3   OH230372   6.513   6.048   0.047
 2938TIP3    H130373   6.424   6.062   0.016
 2938TIP3    H230374   6.506   6.053   0.143
 2939TIP3   OH230375   0.677   6.299   1.651
 2939TIP3    H130376   0.763   6.326   1.682
 2939TIP3    H230377   0.616   6.365   1.684
 2940TIP3   OH230378   2.903   1.010   8.019
 2940TIP3    H130379   2.890   1.099   7.985
 2940TIP3    H230380   2.840   1.003   8.091
 2941TIP3   OH230381   0.427   3.189   6.495
 2941TIP3    H130382   0.408   3.222   6.408
 2941TIP3    H230383   0.471   3.261   6.540
 2942TIP3   OH230384   4.213   1.038   1.125
 2942TIP3    H130385   4.300   1.075   1.145
 2942TIP3    H230386   4.176   1.100   1.062
 2943TIP3   OH230387   5.097   1.943   8.250
 2943TIP3    H130388   5.112   1.887   8.174
 2943TIP3    H230389   5.032   2.006   8.221
 2944TIP3   OH230390   2.231   0.986   6.395
 2944TIP3    H130391   2.208   1.077   6.412
 2944TIP3    H230392   2.149   0.945   6.368
 2945TIP3   OH230393   5.996   3.849   0.499
 2945TIP3    H130394   5.973   3.823   0.410
 2945TIP3    H230395   6.079   3.897   0.490
 2946TIP3   OH230396   1.469   6.219   6.263
 2946TIP3    H130397   1.431   6.141   6.304
 2946TIP3    H230398   1.454   6.206   6.169
 2947TIP3   OH230399   1.637   0.315   0.367
 2947TIP3    H130400   1.668   0.395   0.412
 2947TIP3    H230401   1.597   0.263   0.436
 2948TIP3   OH230402   4.016   2.125   6.731
 2948TIP3    H130403   4.079   2.175   6.783
 2948TIP3    H230404   4.060   2.042   6.715
 2949TIP3   OH230405   1.765   2.114   1.149
 2949TIP3    H130406   1.686   2.140   1.196
 2949TIP3    H230407   1.756   2.019   1.136
 2950TIP3   OH230408   3.924   2.706   1.553
 2950TIP3    H130409   3.904   2.613   1.564
 2950TIP3    H230410   3.847   2.751   1.587
 2951TIP3   OH230411   4.384   5.499   0.782
 2951TIP3    H130412   4.420   5.492   0.870
 2951TIP3    H230413   4.421   5.580   0.747
 2952TIP3   OH230414   2.307   6.820   1.113
 2952TIP3    H130415   2.321   6.790   1.203
 2952TIP3    H230416   2.241   6.760   1.078
 2953TIP3   OH230417   2.099   1.506   0.258
 2953TIP3    H130418   2.192   1.507   0.281
 2953TIP3    H230419   2.072   1.598   0.259
 2954TIP3   OH230420   0.984   5.310   8.067
 2954TIP3    H130421   0.970   5.217   8.083
 2954TIP3    H230422   1.076   5.325   8.090
 2955TIP3   OH230423   5.048   5.820   1.476
 2955TIP3    H130424   5.082   5.869   1.401
 2955TIP3    H230425   5.095   5.855   1.551
 2956TIP3   OH230426   0.860   3.347   1.340
 2956TIP3    H130427   0.926   3.323   1.276
 2956TIP3    H230428   0.776   3.332   1.296
 2957TIP3   OH230429   2.951   6.263   7.270
 2957TIP3    H130430   2.956   6.223   7.357
 2957TIP3    H230431   3.006   6.341   7.276
 2958TIP3   OH230432   5.926   4.367   7.610
 2958TIP3    H130433   5.831   4.370   7.598
 2958TIP3    H230434   5.957   4.305   7.543
 2959TIP3   OH230435   3.927   6.263   6.477
 2959TIP3    H130436   3.954   6.335   6.535
 2959TIP3    H230437   3.855   6.221   6.524
 2960TIP3   OH230438   5.647   6.008   6.717
 2960TIP3    H130439   5.623   5.945   6.785
 2960TIP3    H230440   5.639   5.959   6.635
 2961TIP3   OH230441   0.833   3.939   7.246
 2961TIP3    H130442   0.752   3.977   7.212
 2961TIP3    H230443   0.890   3.930   7.170
 2962TIP3   OH230444   1.365   4.005   6.058
 2962TIP3    H130445   1.269   4.006   6.057
 2962TIP3    H230446   1.387   3.968   6.144
 2963TIP3   OH230447   0.518   3.715   0.408
 2963TIP3    H130448   0.431   3.683   0.432
 2963TIP3    H230449   0.577   3.671   0.469
 2964TIP3   OH230450   4.215   1.332   7.252
 2964TIP3    H130451   4.127   1.311   7.283
 2964TIP3    H230452   4.220   1.292   7.165
 2965TIP3   OH230453   4.943   1.072   7.790
 2965TIP3    H130454   4.938   1.062   7.695
 2965TIP3    H230455   5.036   1.075   7.810
 2966TIP3   OH230456   6.335   4.536   1.221
 2966TIP3    H130457   6.377   4.455   1.249
 2966TIP3    H230458   6.267   4.509   1.160
 2967TIP3   OH230459   6.713   5.802   1.588
 2967TIP3    H130460   6.689   5.714   1.559
 2967TIP3    H230461   6.789   5.825   1.535
 2968TIP3   OH230462   0.677   6.836   7.170
 2968TIP3    H130463   0.595   6.859   7.216
 2968TIP3    H230464   0.660   6.749   7.134
 2969TIP3   OH230465   0.479   5.151   6.341
 2969TIP3    H130466   0.400   5.203   6.332
 2969TIP3    H230467   0.542   5.191   6.280
 2970TIP3   OH230468   5.980   4.907   8.562
 2970TIP3    H130469   6.038   4.982   8.567
 2970TIP3    H230470   6.022   4.848   8.500
 2971TIP3   OH230471   6.823   6.694   6.461
 2971TIP3    H130472   6.900   6.734   6.422
 2971TIP3    H230473   6.749   6.742   6.423
 2972TIP3   OH230474   1.439   5.575   1.915
 2972TIP3    H130475   1.378   5.503   1.933
 2972TIP3    H230476   1.382   5.652   1.907
 2973TIP3   OH230477   1.367   5.791   0.379
 2973TIP3    H130478   1.396   5.725   0.441
 2973TIP3    H230479   1.388   5.754   0.293
 2974TIP3   OH230480   6.616   5.425   7.878
 2974TIP3    H130481   6.592   5.482   7.805
 2974TIP3    H230482   6.672   5.358   7.839
 2975TIP3   OH230483   4.983   5.177   7.354
 2975TIP3    H130484   4.923   5.175   7.279
 2975TIP3    H230485   4.931   5.144   7.427
 2976TIP3   OH230486   4.127   6.700   8.340
 2976TIP3    H130487   4.166   6.632   8.285
 2976TIP3    H230488   4.138   6.780   8.288
 2977TIP3   OH230489   1.865   4.755   1.239
 2977TIP3    H130490   1.830   4.689   1.180
 2977TIP3    H230491   1.799   4.824   1.239
 2978TIP3   OH230492   4.417   5.687   7.349
 2978TIP3    H130493   4.373   5.617   7.398
 2978TIP3    H230494   4.421   5.654   7.259
 2979TIP3   OH230495   6.502   0.535   0.960
 2979TIP3    H130496   6.573   0.599   0.969
 2979TIP3    H230497   6.443   0.574   0.895
 2980TIP3   OH230498   5.742   5.070   1.273
 2980TIP3    H130499   5.806   5.106   1.335
 2980TIP3    H230500   5.781   4.988   1.243
 2981TIP3   OH230501   6.233   4.931   0.421
 2981TIP3    H130502   6.174   5.006   0.409
 2981TIP3    H230503   6.291   4.958   0.492
 2982TIP3   OH230504   2.391   0.957   0.260
 2982TIP3    H130505   2.423   0.948   0.170
 2982TIP3    H230506   2.372   1.050   0.269
 2983TIP3   OH230507   2.309   1.568   1.497
 2983TIP3    H130508   2.369   1.641   1.504
 2983TIP3    H230509   2.326   1.531   1.411
 2984TIP3   OH230510   2.828   1.405   0.832
 2984TIP3    H130511   2.737   1.377   0.838
 2984TIP3    H230512   2.830   1.490   0.875
 2985TIP3   OH230513   1.226   4.179   8.267
 2985TIP3    H130514   1.204   4.124   8.192
 2985TIP3    H230515   1.241   4.117   8.339
 2986TIP3   OH230516   0.727   4.077   0.782
 2986TIP3    H130517   0.789   4.005   0.792
 2986TIP3    H230518   0.688   4.063   0.696
 2987TIP3   OH230519   1.947   0.672   2.205
 2987TIP3    H130520   2.002   0.596   2.191
 2987TIP3    H230521   2.002   0.747   2.180
 2988TIP3   OH230522   1.510   3.118   6.339
 2988TIP3    H130523   1.454   3.194   6.325
 2988TIP3    H230524   1.583   3.152   6.391
 2989TIP3   OH230525   1.570   0.206   7.507
 2989TIP3    H130526   1.640   0.142   7.510
 2989TIP3    H230527   1.609   0.283   7.466
 2990TIP3   OH230528   4.974   4.666   8.123
 2990TIP3    H130529   4.909   4.598   8.140
 2990TIP3    H230530   5.001   4.696   8.210
 2991TIP3   OH230531   6.832   2.030   7.868
 2991TIP3    H130532   6.749   2.003   7.830
 2991TIP3    H230533   6.809   2.102   7.927
 2992TIP3   OH230534   0.516   3.009   0.642
 2992TIP3    H130535   0.430   2.966   0.646
 2992TIP3    H230536   0.530   3.025   0.548
 2993TIP3   OH230537   4.987   2.363   0.318
 2993TIP3    H130538   5.040   2.418   0.375
 2993TIP3    H230539   5.046   2.338   0.247
 2994TIP3   OH230540   0.656   0.156   6.508
 2994TIP3    H130541   0.577   0.127   6.462
 2994TIP3    H230542   0.648   0.118   6.595
 2995TIP3   OH230543   2.179   3.115   2.113
 2995TIP3    H130544   2.134   3.153   2.188
 2995TIP3    H230545   2.225   3.039   2.149
 2996TIP3   OH230546   5.924   2.623   0.744
 2996TIP3    H130547   5.988   2.554   0.760
 2996TIP3    H230548   5.956   2.698   0.795
 2997TIP3   OH230549   1.448   4.013   2.025
 2997TIP3    H130550   1.496   4.080   2.072
 2997TIP3    H230551   1.507   3.938   2.022
 2998TIP3   OH230552   6.449   3.893   0.875
 2998TIP3    H130553   6.408   3.861   0.794
 2998TIP3    H230554   6.497   3.971   0.848
 2999TIP3   OH230555   4.271   6.281   7.622
 2999TIP3    H130556   4.334   6.236   7.566
 2999TIP3    H230557   4.221   6.211   7.664
 3000TIP3   OH230558   6.127   1.526   7.417
 3000TIP3    H130559   6.120   1.439   7.376
 3000TIP3    H230560   6.041   1.540   7.458
 3001TIP3   OH230561   2.433   6.282   6.666
 3001TIP3    H130562   2.493   6.318   6.600
 3001TIP3    H230563   2.467   6.315   6.749
 3002TIP3   OH230564   1.793   5.298   8.238
 3002TIP3    H130565   1.838   5.315   8.155
 3002TIP3    H230566   1.705   5.269   8.211
 3003TIP3   OH230567   1.164   2.659   1.520
 3003TIP3    H130568   1.224   2.609   1.465
 3003TIP3    H230569   1.169   2.618   1.606
 3004TIP3   OH230570   0.593   4.672   0.027
 3004TIP3    H130571   0.687   4.656   0.025
 3004TIP3    H230572   0.583   4.750   0.082
 3005TIP3   OH230573   3.043   6.313   7.703
 3005TIP3    H130574   3.013   6.362   7.626
 3005TIP3    H230575   2.986   6.342   7.774
 3006TIP3   OH230576   0.043   1.142   7.978
 3006TIP3    H130577   0.076   1.228   8.004
 3006TIP3    H230578   6.907   1.158   7.897
 3007TIP3   OH230579   1.986   6.103   2.430
 3007TIP3    H130580   1.944   6.184   2.458
 3007TIP3    H230581   2.079   6.116   2.447
 3008TIP3   OH230582   0.460   1.834   7.896
 3008TIP3    H130583   0.402   1.758   7.907
 3008TIP3    H230584   0.502   1.844   7.982
 3009TIP3   OH230585   2.005   0.790   7.142
 3009TIP3    H130586   2.073   0.823   7.085
 3009TIP3    H230587   1.930   0.848   7.128
 3010TIP3   OH230588   5.873   3.594   0.964
 3010TIP3    H130589   5.781   3.570   0.975
 3010TIP3    H230590   5.913   3.517   0.921
 3011TIP3   OH230591   0.267   4.042   0.899
 3011TIP3    H130592   0.326   4.111   0.930
 3011TIP3    H230593   0.237   4.073   0.814
 3012TIP3   OH230594   4.975   5.407   1.715
 3012TIP3    H130595   4.940   5.434   1.800
 3012TIP3    H230596   5.043   5.472   1.695
 3013TIP3   OH230597   2.115   6.405   1.227
 3013TIP3    H130598   2.156   6.424   1.143
 3013TIP3    H230599   2.055   6.478   1.243
 3014TIP3   OH230600   5.852   4.817   1.241
 3014TIP3    H130601   5.883   4.799   1.330
 3014TIP3    H230602   5.790   4.746   1.223
 3015TIP3   OH230603   3.352   4.006   1.772
 3015TIP3    H130604   3.322   4.097   1.777
 3015TIP3    H230605   3.444   4.009   1.798
 3016TIP3   OH230606   6.728   2.958   1.924
 3016TIP3    H130607   6.823   2.971   1.933
 3016TIP3    H230608   6.715   2.866   1.946
 3017TIP3   OH230609   2.804   4.926   1.397
 3017TIP3    H130610   2.732   4.929   1.460
 3017TIP3    H230611   2.835   4.835   1.400
 3018TIP3   OH230612   5.117   4.947   7.541
 3018TIP3    H130613   5.124   4.858   7.505
 3018TIP3    H230614   5.027   4.973   7.522
 3019TIP3   OH230615   6.526   1.891   2.090
 3019TIP3    H130616   6.605   1.837   2.085
 3019TIP3    H230617   6.480   1.859   2.168
 3020TIP3   OH230618   0.275   0.478   0.714
 3020TIP3    H130619   0.311   0.404   0.763
 3020TIP3    H230620   0.323   0.477   0.631
 3021TIP3   OH230621   6.077   2.698   1.824
 3021TIP3    H130622   6.129   2.774   1.852
 3021TIP3    H230623   6.070   2.707   1.729
 3022TIP3   OH230624   3.425   6.798   2.357
 3022TIP3    H130625   3.430   6.881   2.406
 3022TIP3    H230626   3.458   6.732   2.418
 3023TIP3   OH230627   1.507   4.034   8.368
 3023TIP3    H130628   1.581   4.086   8.336
 3023TIP3    H230629   1.481   3.980   8.293
 3024TIP3   OH230630   3.562   6.405   0.990
 3024TIP3    H130631   3.543   6.367   1.076
 3024TIP3    H230632   3.492   6.468   0.976
 3025TIP3   OH230633   1.506   6.195   1.130
 3025TIP3    H130634   1.546   6.136   1.194
 3025TIP3    H230635   1.564   6.191   1.054
 3026TIP3   OH230636   4.470   3.625   1.492
 3026TIP3    H130637   4.531   3.553   1.476
 3026TIP3    H230638   4.411   3.624   1.417
 3027TIP3   OH230639   4.478   3.770   7.317
 3027TIP3    H130640   4.558   3.768   7.370
 3027TIP3    H230641   4.420   3.831   7.363
 3028TIP3   OH230642   6.441   6.400   7.423
 3028TIP3    H130643   6.423   6.366   7.335
 3028TIP3    H230644   6.534   6.424   7.420
 3029TIP3   OH230645   0.938   6.707   8.240
 3029TIP3    H130646   0.947   6.718   8.335
 3029TIP3    H230647   1.013   6.753   8.203
 3030TIP3   OH230648   4.008   3.959   0.590
 3030TIP3    H130649   3.964   3.891   0.642
 3030TIP3    H230650   3.993   4.040   0.639
 3031TIP3   OH230651   5.820   0.178   1.541
 3031TIP3    H130652   5.902   0.157   1.496
 3031TIP3    H230653   5.846   0.194   1.632
 3032TIP3   OH230654   3.860   6.602   0.595
 3032TIP3    H130655   3.880   6.653   0.673
 3032TIP3    H230656   3.797   6.536   0.624
 3033TIP3   OH230657   5.249   0.988   0.708
 3033TIP3    H130658   5.344   0.975   0.696
 3033TIP3    H230659   5.218   0.904   0.742
 3034TIP3   OH230660   3.204   4.648   1.353
 3034TIP3    H130661   3.239   4.646   1.442
 3034TIP3    H230662   3.150   4.569   1.346
 3035TIP3   OH230663   2.155   3.142   6.284
 3035TIP3    H130664   2.112   3.125   6.368
 3035TIP3    H230665   2.091   3.191   6.234
 3036TIP3   OH230666   3.752   0.559   6.992
 3036TIP3    H130667   3.753   0.479   6.940
 3036TIP3    H230668   3.837   0.600   6.977
 3037TIP3   OH230669   1.554   3.004   8.181
 3037TIP3    H130670   1.581   3.095   8.194
 3037TIP3    H230671   1.507   2.981   8.261
 3038TIP3   OH230672   6.828   3.936   0.321
 3038TIP3    H130673   6.800   3.981   0.241
 3038TIP3    H230674   6.747   3.905   0.361
 3039TIP3   OH230675   1.761   0.829   0.195
 3039TIP3    H130676   1.769   0.744   0.239
 3039TIP3    H230677   1.827   0.825   0.126
 3040TIP3   OH230678   5.046   0.798   8.378
 3040TIP3    H130679   4.974   0.804   8.440
 3040TIP3    H230680   5.029   0.868   8.315
 3041TIP3   OH230681   3.386   1.087   8.557
 3041TIP3    H130682   3.326   1.017   8.583
 3041TIP3    H230683   3.467   1.042   8.532
 3042TIP3   OH230684   5.506   0.557   2.692
 3042TIP3    H130685   5.413   0.541   2.709
 3042TIP3    H230686   5.548   0.473   2.709
 3043TIP3   OH230687   3.139   3.941   8.363
 3043TIP3    H130688   3.202   3.870   8.377
 3043TIP3    H230689   3.104   3.959   8.450
 3044TIP3   OH230690   2.202   0.370   1.284
 3044TIP3    H130691   2.178   0.462   1.275
 3044TIP3    H230692   2.296   0.370   1.300
 3045TIP3   OH230693   6.682   6.344   0.008
 3045TIP3    H130694   6.595   6.313   0.030
 3045TIP3    H230695   6.716   6.279   8.550
 3046TIP3   OH230696   5.765   3.381   2.186
 3046TIP3    H130697   5.689   3.354   2.238
 3046TIP3    H230698   5.832   3.403   2.251
 3047TIP3   OH230699   1.652   2.312   7.116
 3047TIP3    H130700   1.721   2.376   7.098
 3047TIP3    H230701   1.581   2.337   7.057
 3048TIP3   OH230702   2.972   0.758   6.705
 3048TIP3    H130703   2.973   0.673   6.749
 3048TIP3    H230704   2.888   0.760   6.658
 3049TIP3   OH230705   3.128   5.590   7.668
 3049TIP3    H130706   3.101   5.538   7.743
 3049TIP3    H230707   3.056   5.652   7.654
 3050TIP3   OH230708   4.271   2.741   7.140
 3050TIP3    H130709   4.241   2.664   7.188
 3050TIP3    H230710   4.220   2.740   7.058
 3051TIP3   OH230711   3.170   1.340   2.201
 3051TIP3    H130712   3.123   1.396   2.138
 3051TIP3    H230713   3.220   1.402   2.255
 3052TIP3   OH230714   0.407   4.908   7.252
 3052TIP3    H130715   0.336   4.902   7.315
 3052TIP3    H230716   0.474   4.962   7.294
 3053TIP3   OH230717   0.272   4.847   7.724
 3053TIP3    H130718   0.204   4.819   7.785
 3053TIP3    H230719   0.341   4.782   7.734
 3054TIP3   OH230720   6.322   3.124   6.371
 3054TIP3    H130721   6.368   3.090   6.448
 3054TIP3    H230722   6.383   3.111   6.299
 3055TIP3   OH230723   3.676   3.664   6.396
 3055TIP3    H130724   3.719   3.748   6.380
 3055TIP3    H230725   3.727   3.601   6.345
 3056TIP3   OH230726   4.339   2.347   2.040
 3056TIP3    H130727   4.325   2.408   2.113
 3056TIP3    H230728   4.256   2.348   1.992
 3057TIP3   OH230729   6.256   3.177   1.092
 3057TIP3    H130730   6.320   3.172   1.164
 3057TIP3    H230731   6.184   3.229   1.127
 3058TIP3   OH230732   6.176   2.697   8.046
 3058TIP3    H130733   6.158   2.688   7.952
 3058TIP3    H230734   6.244   2.764   8.050
 3059TIP3   OH230735   0.065   5.211   0.247
 3059TIP3    H130736   0.043   5.211   0.154
 3059TIP3    H230737   0.104   5.125   0.263
 3060TIP3   OH230738   4.417   0.592   0.523
 3060TIP3    H130739   4.381   0.508   0.494
 3060TIP3    H230740   4.341   0.648   0.535
 3061TIP3   OH230741   2.421   6.044   8.133
 3061TIP3    H130742   2.451   6.053   8.223
 3061TIP3    H230743   2.499   6.014   8.085
 3062TIP3   OH230744   6.810   0.212   2.160
 3062TIP3    H130745   6.811   0.272   2.234
 3062TIP3    H230746   6.855   0.134   2.192
 3063TIP3   OH230747   4.037   3.593   0.400
 3063TIP3    H130748   4.130   3.574   0.410
 3063TIP3    H230749   4.016   3.567   0.310
 3064TIP3   OH230750   1.536   0.025   1.322
 3064TIP3    H130751   1.542   0.071   1.405
 3064TIP3    H230752   1.452   6.892   1.326
 3065TIP3   OH230753   1.445   1.470   8.382
 3065TIP3    H130754   1.489   1.551   8.359
 3065TIP3    H230755   1.498   1.432   8.452
 3066TIP3   OH230756   3.284   6.399   8.346
 3066TIP3    H130757   3.199   6.431   8.377
 3066TIP3    H230758   3.267   6.309   8.318
 3067TIP3   OH230759   6.503   4.607   0.621
 3067TIP3    H130760   6.573   4.587   0.558
 3067TIP3    H230761   6.511   4.540   0.688
 3068TIP3   OH230762   1.298   0.370   0.804
 3068TIP3    H130763   1.358   0.358   0.877
 3068TIP3    H230764   1.231   0.303   0.817
 3069TIP3   OH230765   5.372   3.484   7.809
 3069TIP3    H130766   5.393   3.440   7.892
 3069TIP3    H230767   5.438   3.553   7.801
 3070TIP3   OH230768   1.687   6.167   0.858
 3070TIP3    H130769   1.753   6.235   0.868
 3070TIP3    H230770   1.734   6.086   0.880
 3071TIP3   OH230771   1.079   6.138   6.469
 3071TIP3    H130772   1.085   6.047   6.498
 3071TIP3    H230773   1.094   6.133   6.374
 3072TIP3   OH230774   5.507   3.767   1.554
 3072TIP3    H130775   5.522   3.765   1.459
 3072TIP3    H230776   5.412   3.768   1.563
 3073TIP3   OH230777   2.908   6.141   6.208
 3073TIP3    H130778   2.911   6.229   6.244
 3073TIP3    H230779   2.996   6.107   6.220
 3074TIP3   OH230780   3.515   6.164   6.416
 3074TIP3    H130781   3.429   6.175   6.456
 3074TIP3    H230782   3.557   6.096   6.467
 3075TIP3   OH230783   4.545   0.786   7.020
 3075TIP3    H130784   4.470   0.819   7.070
 3075TIP3    H230785   4.594   0.864   6.996
 3076TIP3   OH230786   2.238   2.675   1.254
 3076TIP3    H130787   2.185   2.699   1.178
 3076TIP3    H230788   2.266   2.759   1.291
 3077TIP3   OH230789   4.084   6.838   6.488
 3077TIP3    H130790   4.165   6.817   6.535
 3077TIP3    H230791   4.074   6.769   6.423
 3078TIP3   OH230792   1.798   0.116   6.776
 3078TIP3    H130793   1.791   0.184   6.709
 3078TIP3    H230794   1.830   0.162   6.853
 3079TIP3   OH230795   5.756   2.233   7.015
 3079TIP3    H130796   5.831   2.172   7.017
 3079TIP3    H230797   5.744   2.254   6.923
 3080TIP3   OH230798   4.374   2.352   1.101
 3080TIP3    H130799   4.390   2.307   1.018
 3080TIP3    H230800   4.411   2.293   1.167
 3081TIP3   OH230801   6.314   6.641   6.553
 3081TIP3    H130802   6.367   6.644   6.473
 3081TIP3    H230803   6.279   6.552   6.556
 3082TIP3   OH230804   5.583   4.607   1.768
 3082TIP3    H130805   5.645   4.612   1.840
 3082TIP3    H230806   5.497   4.609   1.810
 3083TIP3   OH230807   2.981   0.827   2.008
 3083TIP3    H130808   2.925   0.757   2.042
 3083TIP3    H230809   3.063   0.784   1.988
 3084TIP3   OH230810   3.960   5.616   1.462
 3084TIP3    H130811   3.896   5.629   1.392
 3084TIP3    H230812   3.909   5.619   1.543
 3085TIP3   OH230813   6.263   5.738   6.775
 3085TIP3    H130814   6.288   5.714   6.686
 3085TIP3    H230815   6.188   5.682   6.795
 3086TIP3   OH230816   4.066   0.668   0.793
 3086TIP3    H130817   4.065   0.747   0.847
 3086TIP3    H230818   4.104   0.600   0.849
 3087TIP3   OH230819   1.785   3.347   8.450
 3087TIP3    H130820   1.795   3.440   8.469
 3087TIP3    H230821   1.874   3.314   8.442
 3088TIP3   OH230822   6.814   4.128   1.071
 3088TIP3    H130823   6.745   4.194   1.060
 3088TIP3    H230824   6.786   4.055   1.016
 3089TIP3   OH230825   3.891   3.833   8.518
 3089TIP3    H130826   3.909   3.786   8.436
 3089TIP3    H230827   3.852   3.915   8.489
 3090TIP3   OH230828   6.233   2.113   7.260
 3090TIP3    H130829   6.178   2.138   7.185
 3090TIP3    H230830   6.233   2.017   7.257
 3091TIP3   OH230831   2.824   1.978   7.206
 3091TIP3    H130832   2.870   1.908   7.159
 3091TIP3    H230833   2.878   2.056   7.192
 3092TIP3   OH230834   1.139   3.856   1.997
 3092TIP3    H130835   1.202   3.804   2.047
 3092TIP3    H230836   1.078   3.890   2.063
 3093TIP3   OH230837   6.192   0.597   0.433
 3093TIP3    H130838   6.223   0.508   0.450
 3093TIP3    H230839   6.098   0.593   0.447
 3094TIP3   OH230840   2.575   3.677   0.858
 3094TIP3    H130841   2.573   3.628   0.941
 3094TIP3    H230842   2.657   3.650   0.817
 3095TIP3   OH230843   5.744   3.806   7.175
 3095TIP3    H130844   5.741   3.785   7.269
 3095TIP3    H230845   5.676   3.752   7.136
 3096TIP3   OH230846   0.219   2.861   0.741
 3096TIP3    H130847   0.153   2.825   0.800
 3096TIP3    H230848   0.177   2.865   0.656
 3097TIP3   OH230849   4.458   6.323   6.904
 3097TIP3    H130850   4.387   6.262   6.885
 3097TIP3    H230851   4.522   6.271   6.953
 3098TIP3   OH230852   2.434   2.516   6.985
 3098TIP3    H130853   2.465   2.575   6.916
 3098TIP3    H230854   2.465   2.556   7.066
 3099TIP3   OH230855   2.622   4.346   1.398
 3099TIP3    H130856   2.576   4.379   1.321
 3099TIP3    H230857   2.556   4.350   1.468
 3100TIP3   OH230858   2.319   1.221   0.281
 3100TIP3    H130859   2.357   1.300   0.243
 3100TIP3    H230860   2.249   1.253   0.338
 3101TIP3   OH230861   1.431   3.818   0.733
 3101TIP3    H130862   1.397   3.900   0.697
 3101TIP3    H230863   1.389   3.811   0.819
 3102TIP3   OH230864   4.948   1.374   7.608
 3102TIP3    H130865   4.963   1.466   7.631
 3102TIP3    H230866   4.871   1.349   7.658
 3103TIP3   OH230867   6.206   3.361   6.380
 3103TIP3    H130868   6.116   3.343   6.351
 3103TIP3    H230869   6.246   3.275   6.390
 3104TIP3   OH230870   0.747   5.655   7.088
 3104TIP3    H130871   0.706   5.612   7.163
 3104TIP3    H230872   0.675   5.676   7.030
 3105TIP3   OH230873   0.065   3.870   0.548
 3105TIP3    H130874   0.013   3.883   0.469
 3105TIP3    H230875   0.036   3.785   0.582
 3106TIP3   OH230876   2.971   4.332   7.830
 3106TIP3    H130877   2.999   4.406   7.883
 3106TIP3    H230878   2.929   4.371   7.754
 3107TIP3   OH230879   5.324   1.430   7.442
 3107TIP3    H130880   5.399   1.450   7.497
 3107TIP3    H230881   5.261   1.500   7.459
 3108TIP3   OH230882   4.963   5.396   0.169
 3108TIP3    H130883   4.922   5.318   0.130
 3108TIP3    H230884   4.889   5.455   0.187
 3109TIP3   OH230885   3.464   3.654   8.135
 3109TIP3    H130886   3.438   3.564   8.117
 3109TIP3    H230887   3.537   3.646   8.197
 3110TIP3   OH230888   2.297   5.826   8.424
 3110TIP3    H130889   2.249   5.768   8.484
 3110TIP3    H230890   2.341   5.767   8.363
 3111TIP3   OH230891   2.454   4.421   7.706
 3111TIP3    H130892   2.365   4.443   7.678
 3111TIP3    H230893   2.464   4.328   7.686
 3112TIP3   OH230894   6.272   5.745   7.823
 3112TIP3    H130895   6.304   5.673   7.877
 3112TIP3    H230896   6.191   5.712   7.784
 3113TIP3   OH230897   4.931   6.499   2.569
 3113TIP3    H130898   4.971   6.413   2.575
 3113TIP3    H230899   4.987   6.556   2.622
 3114TIP3   OH230900   5.989   5.623   0.061
 3114TIP3    H130901   5.951   5.566   0.128
 3114TIP3    H230902   6.028   5.695   0.110
 3115TIP3   OH230903   6.880   4.583   0.791
 3115TIP3    H130904   0.046   4.635   0.809
 3115TIP3    H230905   6.835   4.577   0.875
 3116TIP3   OH230906   5.165   2.619   7.758
 3116TIP3    H130907   5.147   2.700   7.711
 3116TIP3    H230908   5.134   2.637   7.847
 3117TIP3   OH230909   4.233   2.708   7.563
 3117TIP3    H130910   4.194   2.795   7.573
 3117TIP3    H230911   4.261   2.706   7.471
 3118TIP3   OH230912   1.789   5.042   0.381
 3118TIP3    H130913   1.828   4.978   0.322
 3118TIP3    H230914   1.752   5.108   0.323
 3119TIP3   OH230915   1.501   3.797   5.950
 3119TIP3    H130916   1.459   3.882   5.964
 3119TIP3    H230917   1.571   3.794   6.015
 3120TIP3   OH230918   5.936   4.569   0.071
 3120TIP3    H130919   5.956   4.636   0.137
 3120TIP3    H230920   5.985   4.492   0.100
 3121TIP3   OH230921   0.493   1.344   8.342
 3121TIP3    H130922   0.402   1.350   8.371
 3121TIP3    H230923   0.488   1.319   8.250
 3122TIP3   OH230924   2.203   1.649   6.829
 3122TIP3    H130925   2.268   1.680   6.892
 3122TIP3    H230926   2.232   1.561   6.805
 3123TIP3   OH230927   5.709   3.312   0.910
 3123TIP3    H130928   5.757   3.265   0.843
 3123TIP3    H230929   5.620   3.276   0.906
 3124TIP3   OH230930   0.044   4.764   1.641
 3124TIP3    H130931   6.899   4.817   1.697
 3124TIP3    H230932   0.085   4.826   1.581
 3125TIP3   OH230933   6.246   1.245   1.062
 3125TIP3    H130934   6.298   1.271   1.139
 3125TIP3    H230935   6.296   1.279   0.988
 3126TIP3   OH230936   6.789   0.472   8.164
 3126TIP3    H130937   6.791   0.378   8.147
 3126TIP3    H230938   6.774   0.479   8.258
 3127TIP3   OH230939   2.800   3.831   1.644
 3127TIP3    H130940   2.740   3.904   1.654
 3127TIP3    H230941   2.841   3.845   1.558
 3128TIP3   OH230942   2.595   0.166   2.094
 3128TIP3    H130943   2.608   0.120   2.177
 3128TIP3    H230944   2.656   0.239   2.097
 3129TIP3   OH230945   0.966   2.757   1.195
 3129TIP3    H130946   0.969   2.839   1.244
 3129TIP3    H230947   0.955   2.783   1.104
 3130TIP3   OH230948   6.706   0.972   0.523
 3130TIP3    H130949   6.780   0.960   0.464
 3130TIP3    H230950   6.673   1.059   0.503
 3131TIP3   OH230951   2.776   6.615   8.443
 3131TIP3    H130952   2.686   6.582   8.439
 3131TIP3    H230953   2.788   6.640   8.535
 3132TIP3   OH230954   5.497   0.679   7.676
 3132TIP3    H130955   5.579   0.730   7.669
 3132TIP3    H230956   5.434   0.729   7.624
 3133TIP3   OH230957   0.418   2.560   1.086
 3133TIP3    H130958   0.468   2.565   1.168
 3133TIP3    H230959   0.343   2.617   1.101
 3134TIP3   OH230960   6.677   3.840   0.578
 3134TIP3    H130961   6.720   3.916   0.618
 3134TIP3    H230962   6.644   3.789   0.652
 3135TIP3   OH230963   0.903   2.523   7.606
 3135TIP3    H130964   0.970   2.485   7.550
 3135TIP3    H230965   0.936   2.610   7.628
 3136TIP3   OH230966   4.371   6.528   7.522
 3136TIP3    H130967   4.328   6.446   7.547
 3136TIP3    H230968   4.308   6.571   7.465
 3137TIP3   OH230969   3.518   6.299   1.230
 3137TIP3    H130970   3.591   6.267   1.283
 3137TIP3    H230971   3.471   6.219   1.205
 3138TIP3   OH230972   1.122   4.042   1.770
 3138TIP3    H130973   1.175   3.994   1.706
 3138TIP3    H230974   1.133   3.994   1.851
 3139TIP3   OH230975   4.570   1.161   0.274
 3139TIP3    H130976   4.540   1.220   0.343
 3139TIP3    H230977   4.499   1.162   0.209
 3140TIP3   OH230978   1.837   2.636   1.562
 3140TIP3    H130979   1.914   2.611   1.512
 3140TIP3    H230980   1.827   2.730   1.547
 3141TIP3   OH230981   6.507   3.659   0.273
 3141TIP3    H130982   6.536   3.694   0.189
 3141TIP3    H230983   6.587   3.626   0.315
 3142TIP3   OH230984   3.068   6.171   8.097
 3142TIP3    H130985   2.998   6.110   8.075
 3142TIP3    H230986   3.136   6.116   8.135
 3143TIP3   OH230987   3.834   6.233   0.708
 3143TIP3    H130988   3.815   6.317   0.749
 3143TIP3    H230989   3.912   6.249   0.655
 3144TIP3   OH230990   6.142   6.733   0.647
 3144TIP3    H130991   6.193   6.813   0.635
 3144TIP3    H230992   6.150   6.714   0.740
 3145TIP3   OH230993   4.545   2.452   1.324
 3145TIP3    H130994   4.640   2.440   1.328
 3145TIP3    H230995   4.531   2.498   1.241
 3146TIP3   OH230996   4.386   5.885   6.468
 3146TIP3    H130997   4.431   5.845   6.542
 3146TIP3    H230998   4.434   5.967   6.452
 3147TIP3   OH230999   2.497   5.886   1.023
 3147TIP3    H131000   2.543   5.825   1.081
 3147TIP3    H231001   2.435   5.931   1.081
 3148TIP3   OH231002   0.337   0.921   0.863
 3148TIP3    H131003   0.309   0.834   0.833
 3148TIP3    H231004   0.432   0.921   0.849
 3149TIP3   OH231005   6.586   0.419   6.922
 3149TIP3    H131006   6.555   0.434   6.833
 3149TIP3    H231007   6.587   0.324   6.931
 3150TIP3   OH231008   6.010   6.785   8.383
 3150TIP3    H131009   6.085   6.729   8.364
 3150TIP3    H231010   6.038   6.873   8.357
 3151TIP3   OH231011   2.007   5.127   1.131
 3151TIP3    H131012   2.043   5.207   1.091
 3151TIP3    H231013   1.955   5.159   1.205
 3152TIP3   OH231014   4.207   2.090   8.131
 3152TIP3    H131015   4.263   2.110   8.205
 3152TIP3    H231016   4.120   2.119   8.158
 3153TIP3   OH231017   1.128   3.232   1.149
 3153TIP3    H131018   1.105   3.159   1.090
 3153TIP3    H231019   1.161   3.300   1.091
 3154TIP3   OH231020   4.905   6.526   0.356
 3154TIP3    H131021   4.830   6.552   0.410
 3154TIP3    H231022   4.901   6.585   0.280
 3155TIP3   OH231023   5.761   4.799   1.664
 3155TIP3    H131024   5.844   4.801   1.711
 3155TIP3    H231025   5.701   4.754   1.724
 3156TIP3   OH231026   5.998   3.246   1.529
 3156TIP3    H131027   5.940   3.253   1.605
 3156TIP3    H231028   6.085   3.236   1.567
 3157TIP3   OH231029   4.645   1.728   8.063
 3157TIP3    H131030   4.567   1.728   8.008
 3157TIP3    H231031   4.707   1.672   8.018
 3158TIP3   OH231032   3.621   5.089   7.278
 3158TIP3    H131033   3.597   5.176   7.246
 3158TIP3    H231034   3.671   5.050   7.206
 3159TIP3   OH231035   1.746   0.995   8.106
 3159TIP3    H131036   1.831   1.016   8.146
 3159TIP3    H231037   1.720   1.076   8.061
 3160TIP3   OH231038   5.684   2.421   0.170
 3160TIP3    H131039   5.683   2.420   0.266
 3160TIP3    H231040   5.774   2.445   0.148
 3161TIP3   OH231041   2.945   2.208   1.301
 3161TIP3    H131042   2.903   2.290   1.280
 3161TIP3    H231043   2.958   2.165   1.217
 3162TIP3   OH231044   1.259   2.259   6.590
 3162TIP3    H131045   1.322   2.306   6.535
 3162TIP3    H231046   1.312   2.195   6.638
 3163TIP3   OH231047   2.239   6.568   0.726
 3163TIP3    H131048   2.333   6.578   0.713
 3163TIP3    H231049   2.213   6.503   0.661
 3164TIP3   OH231050   3.302   5.796   7.787
 3164TIP3    H131051   3.232   5.854   7.757
 3164TIP3    H231052   3.284   5.783   7.880
 3165TIP3   OH231053   5.029   3.825   7.669
 3165TIP3    H131054   5.122   3.821   7.649
 3165TIP3    H231055   4.995   3.740   7.641
 3166TIP3   OH231056   1.625   0.410   7.917
 3166TIP3    H131057   1.539   0.434   7.881
 3166TIP3    H231058   1.688   0.451   7.857
 3167TIP3   OH231059   1.703   0.654   6.462
 3167TIP3    H131060   1.720   0.691   6.376
 3167TIP3    H231061   1.696   0.560   6.447
 3168TIP3   OH231062   2.769   4.764   0.889
 3168TIP3    H131063   2.714   4.697   0.931
 3168TIP3    H231064   2.809   4.719   0.814
 3169TIP3   OH231065   3.847   2.569   1.960
 3169TIP3    H131066   3.898   2.593   2.037
 3169TIP3    H231067   3.912   2.539   1.896
 3170TIP3   OH231068   1.411   6.268   8.297
 3170TIP3    H131069   1.415   6.173   8.293
 3170TIP3    H231070   1.359   6.287   8.375
 3171TIP3   OH231071   1.826   5.092   8.442
 3171TIP3    H131072   1.803   5.163   8.381
 3171TIP3    H231073   1.823   5.133   8.528
 3172TIP3   OH231074   4.101   5.572   0.441
 3172TIP3    H131075   4.185   5.610   0.418
 3172TIP3    H231076   4.044   5.648   0.457
 3173TIP3   OH231077   4.459   2.557   0.487
 3173TIP3    H131078   4.418   2.644   0.484
 3173TIP3    H231079   4.473   2.535   0.395
 3174TIP3   OH231080   4.678   5.503   0.586
 3174TIP3    H131081   4.737   5.571   0.554
 3174TIP3    H231082   4.690   5.503   0.681
 3175TIP3   OH231083   3.808   5.317   6.703
 3175TIP3    H131084   3.829   5.247   6.765
 3175TIP3    H231085   3.890   5.364   6.692
 3176TIP3   OH231086   3.640   0.557   7.518
 3176TIP3    H131087   3.626   0.519   7.605
 3176TIP3    H231088   3.733   0.577   7.515
 3177TIP3   OH231089   2.540   0.141   7.360
 3177TIP3    H131090   2.586   0.217   7.323
 3177TIP3    H231091   2.603   0.070   7.355
 3178TIP3   OH231092   5.640   3.228   6.797
 3178TIP3    H131093   5.658   3.154   6.739
 3178TIP3    H231094   5.702   3.296   6.770
 3179TIP3   OH231095   5.952   2.792   8.206
 3179TIP3    H131096   5.969   2.725   8.139
 3179TIP3    H231097   5.971   2.749   8.289
 3180TIP3   OH231098   3.501   2.605   0.976
 3180TIP3    H131099   3.543   2.524   1.005
 3180TIP3    H231100   3.409   2.583   0.965
 3181TIP3   OH231101   1.806   6.338   1.119
 3181TIP3    H131102   1.787   6.268   1.182
 3181TIP3    H231103   1.839   6.410   1.172
 3182TIP3   OH231104   3.298   2.053   8.098
 3182TIP3    H131105   3.332   2.001   8.026
 3182TIP3    H231106   3.376   2.083   8.145
 3183TIP3   OH231107   4.958   4.056   7.077
 3183TIP3    H131108   4.975   4.085   7.166
 3183TIP3    H231109   4.931   4.135   7.030
 3184TIP3   OH231110   5.626   4.053   7.445
 3184TIP3    H131111   5.651   4.008   7.364
 3184TIP3    H231112   5.625   4.146   7.422
 3185TIP3   OH231113   4.342   6.894   2.456
 3185TIP3    H131114   4.250   6.903   2.432
 3185TIP3    H231115   4.344   6.908   2.550
 3186TIP3   OH231116   1.239   0.779   0.780
 3186TIP3    H131117   1.233   0.824   0.696
 3186TIP3    H231118   1.193   0.696   0.766
 3187TIP3   OH231119   0.061   4.267   0.328
 3187TIP3    H131120   6.883   4.247   0.303
 3187TIP3    H231121   0.068   4.237   0.418
 3188TIP3   OH231122   3.525   1.767   8.144
 3188TIP3    H131123   3.560   1.752   8.057
 3188TIP3    H231124   3.540   1.860   8.161
 3189TIP3   OH231125   3.750   4.625   1.275
 3189TIP3    H131126   3.678   4.649   1.334
 3189TIP3    H231127   3.743   4.688   1.203
 3190TIP3   OH231128   5.022   2.318   7.557
 3190TIP3    H131129   5.019   2.368   7.475
 3190TIP3    H231130   5.110   2.280   7.559
 3191TIP3   OH231131   4.737   6.364   0.005
 3191TIP3    H131132   4.809   6.406   8.561
 3191TIP3    H231133   4.701   6.434   0.060
 3192TIP3   OH231134   3.249   1.327   6.385
 3192TIP3    H131135   3.338   1.346   6.355
 3192TIP3    H231136   3.204   1.295   6.307
 3193TIP3   OH231137   3.472   2.894   1.447
 3193TIP3    H131138   3.442   2.819   1.498
 3193TIP3    H231139   3.472   2.967   1.509
 3194TIP3   OH231140   0.491   6.321   8.311
 3194TIP3    H131141   0.540   6.260   8.367
 3194TIP3    H231142   0.401   6.289   8.314
 3195TIP3   OH231143   4.708   6.463   0.574
 3195TIP3    H131144   4.800   6.452   0.598
 3195TIP3    H231145   4.691   6.394   0.511
 3196TIP3   OH231146   0.631   5.259   0.692
 3196TIP3    H131147   0.567   5.189   0.688
 3196TIP3    H231148   0.645   5.275   0.785
 3197TIP3   OH231149   2.503   3.178   2.086
 3197TIP3    H131150   2.524   3.222   2.004
 3197TIP3    H231151   2.447   3.240   2.133
 3198TIP3   OH231152   6.705   2.764   0.514
 3198TIP3    H131153   6.702   2.802   0.427
 3198TIP3    H231154   6.702   2.669   0.499
 3199TIP3   OH231155   1.643   4.484   7.138
 3199TIP3    H131156   1.559   4.530   7.131
 3199TIP3    H231157   1.665   4.489   7.231
 3200TIP3   OH231158   6.142   6.444   0.943
 3200TIP3    H131159   6.237   6.440   0.934
 3200TIP3    H231160   6.126   6.428   1.036
 3201TIP3   OH231161   5.679   4.043   7.076
 3201TIP3    H131162   5.714   3.954   7.087
 3201TIP3    H231163   5.684   4.059   6.982
 3202TIP3   OH231164   2.673   3.783   6.758
 3202TIP3    H131165   2.709   3.846   6.696
 3202TIP3    H231166   2.624   3.835   6.822
 3203TIP3   OH231167   5.410   2.943   8.485
 3203TIP3    H131168   5.348   3.010   8.455
 3203TIP3    H231169   5.434   2.895   8.405
 3204TIP3   OH231170   1.076   1.478   6.988
 3204TIP3    H131171   1.014   1.473   6.915
 3204TIP3    H231172   1.096   1.571   6.996
 3205TIP3   OH231173   2.211   5.543   6.452
 3205TIP3    H131174   2.135   5.499   6.413
 3205TIP3    H231175   2.238   5.485   6.523
 3206TIP3   OH231176   5.192   2.499   1.181
 3206TIP3    H131177   5.117   2.547   1.146
 3206TIP3    H231178   5.244   2.566   1.225
 3207TIP3   OH231179   0.105   3.983   7.110
 3207TIP3    H131180   0.023   3.963   7.064
 3207TIP3    H231181   0.081   3.985   7.202
 3208TIP3   OH231182   1.011   5.130   7.255
 3208TIP3    H131183   1.049   5.209   7.292
 3208TIP3    H231184   1.072   5.060   7.281
 3209TIP3   OH231185   6.038   3.761   7.293
 3209TIP3    H131186   6.059   3.782   7.384
 3209TIP3    H231187   5.946   3.734   7.295
 3210TIP3   OH231188   0.770   6.292   1.178
 3210TIP3    H131189   0.812   6.218   1.222
 3210TIP3    H231190   0.779   6.365   1.239
 3211TIP3   OH231191   1.937   3.981   0.172
 3211TIP3    H131192   1.842   3.972   0.174
 3211TIP3    H231193   1.960   4.010   0.261
 3212TIP3   OH231194   4.860   1.383   1.544
 3212TIP3    H131195   4.950   1.415   1.553
 3212TIP3    H231196   4.807   1.462   1.539
 3213TIP3   OH231197   6.893   3.041   7.681
 3213TIP3    H131198   6.858   2.976   7.743
 3213TIP3    H231199   6.855   3.017   7.597
 3214TIP3   OH231200   1.939   4.301   8.057
 3214TIP3    H131201   1.919   4.222   8.107
 3214TIP3    H231202   1.872   4.364   8.083
 3215TIP3   OH231203   0.955   3.592   2.296
 3215TIP3    H131204   0.967   3.687   2.291
 3215TIP3    H231205   0.970   3.561   2.207
 3216TIP3   OH231206   5.213   1.777   0.456
 3216TIP3    H131207   5.230   1.779   0.362
 3216TIP3    H231208   5.176   1.690   0.472
 3217TIP3   OH231209   1.310   3.202   8.137
 3217TIP3    H131210   1.248   3.230   8.204
 3217TIP3    H231211   1.387   3.173   8.185
 3218TIP3   OH231212   5.438   4.978   1.868
 3218TIP3    H131213   5.350   5.006   1.842
 3218TIP3    H231214   5.429   4.953   1.960
 3219TIP3   OH231215   4.770   2.482   1.586
 3219TIP3    H131216   4.808   2.417   1.645
 3219TIP3    H231217   4.791   2.450   1.498
 3220TIP3   OH231218   1.607   4.354   8.424
 3220TIP3    H131219   1.513   4.373   8.432
 3220TIP3    H231220   1.641   4.369   8.512
 3221TIP3   OH231221   4.712   1.013   1.081
 3221TIP3    H131222   4.747   1.017   0.992
 3221TIP3    H231223   4.636   0.955   1.074
 3222TIP3   OH231224   5.847   4.913   7.344
 3222TIP3    H131225   5.878   4.840   7.397
 3222TIP3    H231226   5.765   4.882   7.306
 3223TIP3   OH231227   2.780   1.885   1.725
 3223TIP3    H131228   2.742   1.962   1.768
 3223TIP3    H231229   2.836   1.846   1.791
 3224TIP3   OH231230   4.482   0.574   6.871
 3224TIP3    H131231   4.506   0.624   6.949
 3224TIP3    H231232   4.492   0.635   6.798
 3225TIP3   OH231233   0.069   4.291   7.478
 3225TIP3    H131234   0.133   4.299   7.406
 3225TIP3    H231235   0.000   4.354   7.456
 3226TIP3   OH231236   6.387   3.886   8.470
 3226TIP3    H131237   6.302   3.841   8.476
 3226TIP3    H231238   6.450   3.816   8.454
 3227TIP3   OH231239   5.778   2.476   8.391
 3227TIP3    H131240   5.748   2.432   8.311
 3227TIP3    H231241   5.700   2.523   8.423
 3228TIP3   OH231242   3.693   3.062   0.720
 3228TIP3    H131243   3.756   3.020   0.662
 3228TIP3    H231244   3.736   3.142   0.749
 3229TIP3   OH231245   0.177   0.681   7.497
 3229TIP3    H131246   0.111   0.618   7.524
 3229TIP3    H231247   0.167   0.687   7.402
 3230TIP3   OH231248   6.803   4.245   7.844
 3230TIP3    H131249   6.872   4.296   7.802
 3230TIP3    H231250   6.840   4.157   7.854
 3231TIP3   OH231251   5.725   3.711   8.146
 3231TIP3    H131252   5.751   3.625   8.178
 3231TIP3    H231253   5.635   3.699   8.114
 3232TIP3   OH231254   3.667   2.467   2.147
 3232TIP3    H131255   3.681   2.372   2.154
 3232TIP3    H231256   3.708   2.491   2.065
 3233TIP3   OH231257   2.179   4.517   1.146
 3233TIP3    H131258   2.111   4.568   1.102
 3233TIP3    H231259   2.160   4.426   1.123
 3234TIP3   OH231260   0.301   5.230   0.656
 3234TIP3    H131261   0.279   5.258   0.745
 3234TIP3    H231262   0.342   5.307   0.616
 3235TIP3   OH231263   6.738   5.773   8.289
 3235TIP3    H131264   6.821   5.730   8.267
 3235TIP3    H231265   6.757   5.821   8.369
 3236TIP3   OH231266   5.837   1.562   1.486
 3236TIP3    H131267   5.787   1.563   1.568
 3236TIP3    H231268   5.816   1.646   1.445
 3237TIP3   OH231269   1.302   0.284   7.494
 3237TIP3    H131270   1.297   0.296   7.589
 3237TIP3    H231271   1.382   0.233   7.480
 3238TIP3   OH231272   3.978   6.076   0.991
 3238TIP3    H131273   3.950   6.021   0.919
 3238TIP3    H231274   3.911   6.144   0.997
 3239TIP3   OH231275   1.690   5.105   2.138
 3239TIP3    H131276   1.778   5.096   2.101
 3239TIP3    H231277   1.705   5.138   2.227
 3240TIP3   OH231278   1.260   5.020   1.461
 3240TIP3    H131279   1.236   4.937   1.502
 3240TIP3    H231280   1.263   5.083   1.533
 3241TIP3   OH231281   4.883   5.995   0.346
 3241TIP3    H131282   4.906   5.916   0.298
 3241TIP3    H231283   4.880   6.064   0.280
 3242TIP3   OH231284   0.009   1.631   8.409
 3242TIP3    H131285   6.852   1.666   8.465
 3242TIP3    H231286   0.011   1.690   8.334
 3243TIP3   OH231287   4.906   1.843   7.256
 3243TIP3    H131288   4.923   1.752   7.282
 3243TIP3    H231289   4.965   1.895   7.311
 3244TIP3   OH231290   0.889   2.278   0.501
 3244TIP3    H131291   0.851   2.195   0.470
 3244TIP3    H231292   0.846   2.345   0.448
 3245TIP3   OH231293   3.352   1.718   0.292
 3245TIP3    H131294   3.399   1.651   0.341
 3245TIP3    H231295   3.307   1.670   0.223
 3246TIP3   OH231296   1.784   4.098   7.560
 3246TIP3    H131297   1.867   4.057   7.535
 3246TIP3    H231298   1.807   4.152   7.636
 3247TIP3   OH231299   3.009   0.035   0.390
 3247TIP3    H131300   3.044   0.086   0.463
 3247TIP3    H231301   2.984   6.863   0.429
 3248TIP3   OH231302   1.715   0.110   1.818
 3248TIP3    H131303   1.691   0.033   1.766
 3248TIP3    H231304   1.810   0.119   1.804
 3249TIP3   OH231305   5.292   6.566   0.463
 3249TIP3    H131306   5.295   6.617   0.382
 3249TIP3    H231307   5.368   6.597   0.513
 3250TIP3   OH231308   4.078   5.886   8.013
 3250TIP3    H131309   3.998   5.833   8.015
 3250TIP3    H231310   4.143   5.832   8.057
 3251TIP3   OH231311   2.486   5.519   8.001
 3251TIP3    H131312   2.478   5.424   7.990
 3251TIP3    H231313   2.470   5.555   7.914
 3252TIP3   OH231314   3.530   4.312   0.784
 3252TIP3    H131315   3.519   4.330   0.691
 3252TIP3    H231316   3.569   4.392   0.819
 3253TIP3   OH231317   1.547   5.626   1.384
 3253TIP3    H131318   1.567   5.602   1.474
 3253TIP3    H231319   1.455   5.602   1.372
 3254TIP3   OH231320   0.084   6.160   0.369
 3254TIP3    H131321   0.029   6.098   0.418
 3254TIP3    H231322   0.117   6.220   0.436
 3255TIP3   OH231323   4.182   2.005   6.987
 3255TIP3    H131324   4.241   1.939   7.024
 3255TIP3    H231325   4.177   1.983   6.894
 3256TIP3   OH231326   6.303   6.100   1.772
 3256TIP3    H131327   6.343   6.154   1.841
 3256TIP3    H231328   6.377   6.058   1.729
 3257TIP3   OH231329   0.721   5.784   8.298
 3257TIP3    H131330   0.654   5.724   8.331
 3257TIP3    H231331   0.736   5.846   8.369
 3258TIP3   OH231332   3.181   0.811   7.485
 3258TIP3    H131333   3.276   0.804   7.496
 3258TIP3    H231334   3.162   0.903   7.505
 3259TIP3   OH231335   4.648   5.824   6.582
 3259TIP3    H131336   4.679   5.805   6.493
 3259TIP3    H231337   4.600   5.746   6.608
 3260TIP3   OH231338   4.370   6.301   0.166
 3260TIP3    H131339   4.287   6.303   0.212
 3260TIP3    H231340   4.367   6.375   0.106
 3261TIP3   OH231341   3.935   6.910   0.727
 3261TIP3    H131342   3.885   0.030   0.803
 3261TIP3    H231343   3.887   0.031   0.651
 3262TIP3   OH231344   1.932   6.328   0.320
 3262TIP3    H131345   1.916   6.255   0.260
 3262TIP3    H231346   1.979   6.393   0.268
 3263TIP3   OH231347   4.812   0.103   7.593
 3263TIP3    H131348   4.907   0.106   7.598
 3263TIP3    H231349   4.793   0.097   7.499
 3264TIP3   OH231350   1.379   1.526   7.596
 3264TIP3    H131351   1.346   1.467   7.663
 3264TIP3    H231352   1.326   1.508   7.519
 3265TIP3   OH231353   6.825   5.381   8.275
 3265TIP3    H131354   6.745   5.395   8.326
 3265TIP3    H231355   6.826   5.287   8.257
 3266TIP3   OH231356   3.508   5.681   0.763
 3266TIP3    H131357   3.535   5.740   0.693
 3266TIP3    H231358   3.578   5.616   0.770
 3267TIP3   OH231359   4.744   4.669   7.434
 3267TIP3    H131360   4.787   4.618   7.365
 3267TIP3    H231361   4.777   4.631   7.515
 3268TIP3   OH231362   2.626   5.017   0.269
 3268TIP3    H131363   2.665   5.065   0.196
 3268TIP3    H231364   2.579   5.084   0.319
 3269TIP3   OH231365   6.680   6.169   8.373
 3269TIP3    H131366   6.734   6.189   8.297
 3269TIP3    H231367   6.590   6.184   8.343
 3270TIP3   OH231368   3.762   3.799   0.984
 3270TIP3    H131369   3.680   3.829   1.023
 3270TIP3    H231370   3.777   3.712   1.022
 3271TIP3   OH231371   5.668   5.706   0.074
 3271TIP3    H131372   5.693   5.644   0.141
 3271TIP3    H231373   5.583   5.740   0.103
 3272TIP3   OH231374   0.724   1.117   6.584
 3272TIP3    H131375   0.707   1.185   6.649
 3272TIP3    H231376   0.650   1.121   6.525
 3273TIP3   OH231377   4.457   2.666   1.213
 3273TIP3    H131378   4.396   2.673   1.286
 3273TIP3    H231379   4.536   2.709   1.243
 3274TIP3   OH231380   6.288   5.431   1.192
 3274TIP3    H131381   6.257   5.518   1.167
 3274TIP3    H231382   6.334   5.444   1.275
 3275TIP3   OH231383   4.405   2.598   1.522
 3275TIP3    H131384   4.499   2.610   1.535
 3275TIP3    H231385   4.396   2.506   1.496
 3276TIP3   OH231386   2.709   2.075   0.399
 3276TIP3    H131387   2.670   2.052   0.315
 3276TIP3    H231388   2.762   2.153   0.381
 3277TIP3   OH231389   5.661   5.384   1.955
 3277TIP3    H131390   5.742   5.434   1.948
 3277TIP3    H231391   5.643   5.381   2.049
 3278TIP3   OH231392   2.970   0.545   1.442
 3278TIP3    H131393   2.905   0.612   1.462
 3278TIP3    H231394   2.928   0.463   1.467
 3279TIP3   OH231395   6.382   2.528   8.100
 3279TIP3    H131396   6.325   2.593   8.059
 3279TIP3    H231397   6.468   2.541   8.059
 3280TIP3   OH231398   1.116   4.011   0.879
 3280TIP3    H131399   1.032   3.964   0.884
 3280TIP3    H231400   1.166   3.964   0.813
 3281TIP3   OH231401   4.399   6.782   8.240
 3281TIP3    H131402   4.412   6.825   8.156
 3281TIP3    H231403   4.396   6.688   8.219
 3282TIP3   OH231404   0.199   3.065   7.429
 3282TIP3    H131405   0.258   3.132   7.395
 3282TIP3    H231406   0.112   3.102   7.421
 3283TIP3   OH231407   5.018   5.273   2.358
 3283TIP3    H131408   5.056   5.223   2.285
 3283TIP3    H231409   5.051   5.362   2.345
 3284TIP3   OH231410   6.749   0.764   7.644
 3284TIP3    H131411   6.809   0.690   7.637
 3284TIP3    H231412   6.765   0.816   7.565
 3285TIP3   OH231413   2.360   1.765   1.799
 3285TIP3    H131414   2.416   1.705   1.849
 3285TIP3    H231415   2.364   1.847   1.848
 3286TIP3   OH231416   4.363   2.711   0.848
 3286TIP3    H131417   4.410   2.793   0.835
 3286TIP3    H231418   4.303   2.706   0.773
 3287TIP3   OH231419   6.100   0.020   1.694
 3287TIP3    H131420   6.193   0.045   1.693
 3287TIP3    H231421   6.065   0.065   1.771
 3288TIP3   OH231422   2.279   3.909   0.547
 3288TIP3    H131423   2.189   3.884   0.565
 3288TIP3    H231424   2.331   3.857   0.608
 3289TIP3   OH231425   1.987   1.904   8.228
 3289TIP3    H131426   2.062   1.910   8.169
 3289TIP3    H231427   1.977   1.991   8.265
 3290TIP3   OH231428   0.260   2.060   0.021
 3290TIP3    H131429   0.317   2.110   0.080
 3290TIP3    H231430   0.222   1.992   0.077
 3291TIP3   OH231431   5.338   6.207   1.829
 3291TIP3    H131432   5.383   6.203   1.745
 3291TIP3    H231433   5.336   6.301   1.851
 3292TIP3   OH231434   5.299   6.292   0.495
 3292TIP3    H131435   5.296   6.383   0.465
 3292TIP3    H231436   5.361   6.250   0.437
 3293TIP3   OH231437   3.988   6.335   1.249
 3293TIP3    H131438   3.923   6.315   1.182
 3293TIP3    H231439   4.007   6.428   1.238
 3294TIP3   OH231440   4.901   1.086   0.366
 3294TIP3    H131441   4.897   1.071   0.272
 3294TIP3    H231442   4.883   1.179   0.376
 3295TIP3   OH231443   5.167   3.553   7.047
 3295TIP3    H131444   5.210   3.491   6.988
 3295TIP3    H231445   5.074   3.544   7.028
 3296TIP3   OH231446   6.763   6.008   0.460
 3296TIP3    H131447   6.689   6.030   0.516
 3296TIP3    H231448   6.757   6.070   0.387
 3297TIP3   OH231449   3.638   1.119   7.639
 3297TIP3    H131450   3.551   1.132   7.600
 3297TIP3    H231451   3.650   1.024   7.641
 3298TIP3   OH231452   3.296   0.624   6.663
 3298TIP3    H131453   3.250   0.548   6.699
 3298TIP3    H231454   3.388   0.596   6.658
 3299TIP3   OH231455   4.639   3.734   1.010
 3299TIP3    H131456   4.733   3.754   1.010
 3299TIP3    H231457   4.613   3.745   1.102
 3300TIP3   OH231458   1.089   4.818   0.346
 3300TIP3    H131459   1.143   4.827   0.425
 3300TIP3    H231460   1.147   4.842   0.274
 3301TIP3   OH231461   0.563   2.806   8.026
 3301TIP3    H131462   0.538   2.805   7.933
 3301TIP3    H231463   0.579   2.899   8.045
 3302TIP3   OH231464   2.329   3.074   8.465
 3302TIP3    H131465   2.424   3.062   8.459
 3302TIP3    H231466   2.294   3.032   8.387
 3303TIP3   OH231467   4.235   0.235   8.263
 3303TIP3    H131468   4.251   0.166   8.326
 3303TIP3    H231469   4.152   0.274   8.289
 3304TIP3   OH231470   4.036   4.508   1.713
 3304TIP3    H131471   3.985   4.588   1.728
 3304TIP3    H231472   3.980   4.438   1.745
 3305TIP3   OH231473   3.475   0.759   0.375
 3305TIP3    H131474   3.486   0.848   0.343
 3305TIP3    H231475   3.503   0.703   0.303
 3306TIP3   OH231476   0.885   0.488   8.085
 3306TIP3    H131477   0.952   0.425   8.111
 3306TIP3    H231478   0.822   0.437   8.033
 3307TIP3   OH231479   2.683   3.402   7.580
 3307TIP3    H131480   2.728   3.456   7.515
 3307TIP3    H231481   2.656   3.464   7.648
 3308TIP3   OH231482   3.437   4.016   0.853
 3308TIP3    H131483   3.417   4.098   0.810
 3308TIP3    H231484   3.366   3.957   0.828
 3309TIP3   OH231485   5.941   2.425   0.101
 3309TIP3    H131486   6.011   2.455   0.160
 3309TIP3    H231487   5.964   2.462   0.016
 3310TIP3   OH231488   0.493   0.598   7.276
 3310TIP3    H131489   0.586   0.588   7.298
 3310TIP3    H231490   0.455   0.512   7.294
 3311TIP3   OH231491   0.810   4.960   6.900
 3311TIP3    H131492   0.784   4.895   6.835
 3311TIP3    H231493   0.727   4.989   6.939
 3312TIP3   OH231494   5.021   4.233   7.755
 3312TIP3    H131495   4.977   4.163   7.708
 3312TIP3    H231496   5.030   4.201   7.845
 3313TIP3   OH231497   0.325   2.860   6.909
 3313TIP3    H131498   0.246   2.860   6.855
 3313TIP3    H231499   0.386   2.803   6.862
 3314TIP3   OH231500   0.624   0.879   6.981
 3314TIP3    H131501   0.630   0.972   7.003
 3314TIP3    H231502   0.701   0.840   7.021
 3315TIP3   OH231503   2.185   6.438   7.092
 3315TIP3    H131504   2.114   6.456   7.031
 3315TIP3    H231505   2.218   6.524   7.117
 3316TIP3   OH231506   4.550   3.565   8.412
 3316TIP3    H131507   4.634   3.521   8.427
 3316TIP3    H231508   4.506   3.563   8.498
 3317TIP3   OH231509   2.705   1.206   7.100
 3317TIP3    H131510   2.705   1.130   7.043
 3317TIP3    H231511   2.796   1.235   7.102
 3318TIP3   OH231512   4.358   6.602   6.256
 3318TIP3    H131513   4.398   6.655   6.186
 3318TIP3    H231514   4.427   6.544   6.285
 3319TIP3   OH231515   2.068   2.026   1.874
 3319TIP3    H131516   2.164   2.030   1.867
 3319TIP3    H231517   2.040   2.118   1.868
 3320TIP3   OH231518   2.576   0.029   6.449
 3320TIP3    H131519   2.549   6.910   6.363
 3320TIP3    H231520   2.551   6.871   6.509
 3321TIP3   OH231521   6.795   5.128   6.783
 3321TIP3    H131522   6.762   5.130   6.873
 3321TIP3    H231523   6.739   5.189   6.736
 3322TIP3   OH231524   6.515   1.664   0.054
 3322TIP3    H131525   6.486   1.573   0.050
 3322TIP3    H231526   6.470   1.707   8.584
 3323TIP3   OH231527   2.274   5.624   0.915
 3323TIP3    H131528   2.210   5.684   0.876
 3323TIP3    H231529   2.343   5.682   0.948
 3324TIP3   OH231530   6.470   5.787   0.731
 3324TIP3    H131531   6.445   5.738   0.810
 3324TIP3    H231532   6.497   5.719   0.669
 3325TIP3   OH231533   5.313   0.113   7.486
 3325TIP3    H131534   5.348   0.200   7.507
 3325TIP3    H231535   5.219   0.126   7.481
 3326TIP3   OH231536   2.722   0.376   1.322
 3326TIP3    H131537   2.732   0.332   1.237
 3326TIP3    H231538   2.705   0.468   1.300
 3327TIP3   OH231539   1.974   1.215   6.120
 3327TIP3    H131540   1.902   1.278   6.121
 3327TIP3    H231541   1.936   1.135   6.156
 3328TIP3   OH231542   6.904   0.906   1.725
 3328TIP3    H131543   0.012   0.907   1.631
 3328TIP3    H231544   0.078   0.912   1.768
 3329TIP3   OH231545   3.936   5.128   8.437
 3329TIP3    H131546   3.932   5.215   8.397
 3329TIP3    H231547   3.965   5.070   8.366
 3330TIP3   OH231548   2.787   0.061   8.545
 3330TIP3    H131549   2.859   0.003   8.569
 3330TIP3    H231550   2.776   0.047   8.450
 3331TIP3   OH231551   1.769   6.342   7.242
 3331TIP3    H131552   1.813   6.399   7.179
 3331TIP3    H231553   1.823   6.349   7.321
 3332TIP3   OH231554   4.731   5.572   0.205
 3332TIP3    H131555   4.664   5.538   0.264
 3332TIP3    H231556   4.683   5.625   0.141
 3333TIP3   OH231557   5.990   0.874   8.587
 3333TIP3    H131558   6.037   0.902   8.509
 3333TIP3    H231559   6.007   0.942   0.049
 3334TIP3   OH231560   2.271   2.894   0.515
 3334TIP3    H131561   2.212   2.836   0.467
 3334TIP3    H231562   2.329   2.929   0.448
 3335TIP3   OH231563   4.625   5.215   7.723
 3335TIP3    H131564   4.664   5.286   7.773
 3335TIP3    H231565   4.640   5.137   7.776
 3336TIP3   OH231566   0.879   6.694   0.277
 3336TIP3    H131567   0.939   6.642   0.330
 3336TIP3    H231568   0.921   6.780   0.270
 3337TIP3   OH231569   2.031   1.419   1.429
 3337TIP3    H131570   2.019   1.425   1.334
 3337TIP3    H231571   2.082   1.497   1.451
 3338TIP3   OH231572   6.548   5.315   7.321
 3338TIP3    H131573   6.522   5.223   7.322
 3338TIP3    H231574   6.466   5.364   7.321
 3339TIP3   OH231575   3.428   4.308   8.364
 3339TIP3    H131576   3.406   4.221   8.397
 3339TIP3    H231577   3.498   4.293   8.301
 3340TIP3   OH231578   6.220   5.040   8.496
 3340TIP3    H131579   6.239   5.134   8.506
 3340TIP3    H231580   6.242   5.002   8.581
 3341TIP3   OH231581   5.661   4.886   0.252
 3341TIP3    H131582   5.756   4.873   0.246
 3341TIP3    H231583   5.631   4.877   0.162
 3342TIP3   OH231584   6.683   6.550   7.618
 3342TIP3    H131585   6.778   6.553   7.634
 3342TIP3    H231586   6.649   6.628   7.661
 3343TIP3   OH231587   1.650   6.196   7.047
 3343TIP3    H131588   1.676   6.104   7.044
 3343TIP3    H231589   1.715   6.237   7.103
 3344TIP3   OH231590   5.624   1.807   1.061
 3344TIP3    H131591   5.684   1.790   1.134
 3344TIP3    H231592   5.648   1.895   1.031
 3345TIP3   OH231593   2.279   0.628   1.965
 3345TIP3    H131594   2.263   0.579   2.046
 3345TIP3    H231595   2.240   0.714   1.982
 3346TIP3   OH231596   4.619   6.451   1.683
 3346TIP3    H131597   4.642   6.541   1.704
 3346TIP3    H231598   4.693   6.399   1.717
 3347TIP3   OH231599   5.270   1.590   1.748
 3347TIP3    H131600   5.321   1.622   1.674
 3347TIP3    H231601   5.335   1.572   1.817
 3348TIP3   OH231602   2.863   2.136   8.192
 3348TIP3    H131603   2.929   2.204   8.179
 3348TIP3    H231604   2.779   2.183   8.185
 3349TIP3   OH231605   3.247   0.399   0.822
 3349TIP3    H131606   3.297   0.318   0.817
 3349TIP3    H231607   3.251   0.435   0.733
 3350TIP3   OH231608   4.513   5.350   5.965
 3350TIP3    H131609   4.481   5.262   5.987
 3350TIP3    H231610   4.598   5.335   5.925
 3351TIP3   OH231611   2.095   6.532   7.687
 3351TIP3    H131612   2.001   6.549   7.690
 3351TIP3    H231613   2.132   6.607   7.641
 3352TIP3   OH231614   6.617   4.692   7.494
 3352TIP3    H131615   6.562   4.660   7.423
 3352TIP3    H231616   6.684   4.745   7.450
 3353TIP3   OH231617   0.443   3.313   7.632
 3353TIP3    H131618   0.375   3.260   7.675
 3353TIP3    H231619   0.515   3.252   7.619
 3354TIP3   OH231620   5.443   4.640   7.300
 3354TIP3    H131621   5.445   4.673   7.390
 3354TIP3    H231622   5.368   4.580   7.299
 3355TIP3   OH231623   2.524   2.927   2.384
 3355TIP3    H131624   2.535   2.897   2.294
 3355TIP3    H231625   2.537   2.849   2.437
 3356TIP3   OH231626   0.052   2.305   0.800
 3356TIP3    H131627   0.076   2.388   0.839
 3356TIP3    H231628   0.116   2.292   0.729
 3357TIP3   OH231629   4.893   3.667   1.307
 3357TIP3    H131630   4.939   3.587   1.331
 3357TIP3    H231631   4.949   3.738   1.339
 3358TIP3   OH231632   4.808   6.195   2.427
 3358TIP3    H131633   4.727   6.246   2.430
 3358TIP3    H231634   4.873   6.257   2.394
 3359TIP3   OH231635   1.777   3.698   1.513
 3359TIP3    H131636   1.782   3.747   1.595
 3359TIP3    H231637   1.735   3.758   1.451
 3360TIP3   OH231638   3.131   5.258   8.421
 3360TIP3    H131639   3.176   5.187   8.376
 3360TIP3    H231640   3.155   5.247   8.513
 3361TIP3   OH231641   4.557   3.183   7.544
 3361TIP3    H131642   4.583   3.092   7.532
 3361TIP3    H231643   4.631   3.233   7.511
 3362TIP3   OH231644   6.069   6.250   1.147
 3362TIP3    H131645   6.109   6.198   1.076
 3362TIP3    H231646   6.143   6.275   1.202
 3363TIP3   OH231647   1.010   6.122   8.333
 3363TIP3    H131648   1.049   6.076   8.408
 3363TIP3    H231649   1.058   6.205   8.330
 3364TIP3   OH231650   4.555   1.519   2.574
 3364TIP3    H131651   4.603   1.531   2.656
 3364TIP3    H231652   4.527   1.428   2.576
 3365TIP3   OH231653   1.031   6.573   2.298
 3365TIP3    H131654   0.958   6.635   2.306
 3365TIP3    H231655   0.990   6.490   2.273
 3366TIP3   OH231656   0.312   6.399   8.575
 3366TIP3    H131657   0.407   6.384   8.579
 3366TIP3    H231658   0.279   6.360   0.053
 3367TIP3   OH231659   5.472   6.451   8.314
 3367TIP3    H131660   5.509   6.455   8.226
 3367TIP3    H231661   5.547   6.465   8.373
 3368TIP3   OH231662   1.689   2.964   8.557
 3368TIP3    H131663   1.677   2.951   0.048
 3368TIP3    H231664   1.611   2.925   8.518
 3369TIP3   OH231665   0.354   1.679   8.213
 3369TIP3    H131666   0.280   1.724   8.254
 3369TIP3    H231667   0.397   1.632   8.284
 3370TIP3   OH231668   4.167   2.803   0.670
 3370TIP3    H131669   4.076   2.772   0.675
 3370TIP3    H231670   4.162   2.897   0.688
 3371TIP3   OH231671   6.414   3.293   0.288
 3371TIP3    H131672   6.498   3.286   0.334
 3371TIP3    H231673   6.359   3.228   0.330
 3372TIP3   OH231674   6.747   4.109   0.092
 3372TIP3    H131675   6.652   4.115   0.094
 3372TIP3    H231676   6.772   4.149   0.009
 3373TIP3   OH231677   5.192   2.953   7.062
 3373TIP3    H131678   5.234   3.038   7.075
 3373TIP3    H231679   5.147   2.935   7.145
 3374TIP3   OH231680   6.453   6.161   7.987
 3374TIP3    H131681   6.382   6.101   7.964
 3374TIP3    H231682   6.531   6.123   7.947
 3375TIP3   OH231683   1.719   2.785   1.294
 3375TIP3    H131684   1.799   2.829   1.265
 3375TIP3    H231685   1.711   2.710   1.235
 3376TIP3   OH231686   0.635   2.734   0.239
 3376TIP3    H131687   0.602   2.791   0.171
 3376TIP3    H231688   0.660   2.653   0.193
 3377TIP3   OH231689   4.719   1.068   7.077
 3377TIP3    H131690   4.777   0.997   7.103
 3377TIP3    H231691   4.737   1.081   6.983
 3378TIP3   OH231692   2.971   0.378   0.152
 3378TIP3    H131693   2.886   0.338   0.172
 3378TIP3    H231694   3.034   0.327   0.204
 3379TIP3   OH231695   3.776   5.574   7.015
 3379TIP3    H131696   3.755   5.553   7.106
 3379TIP3    H231697   3.871   5.565   7.009
 3380TIP3   OH231698   5.081   1.874   0.168
 3380TIP3    H131699   5.095   1.933   0.242
 3380TIP3    H231700   5.167   1.866   0.126
 3381TIP3   OH231701   4.663   2.725   8.314
 3381TIP3    H131702   4.692   2.815   8.330
 3381TIP3    H231703   4.650   2.721   8.219
 3382TIP3   OH231704   3.792   3.835   0.426
 3382TIP3    H131705   3.792   3.781   0.347
 3382TIP3    H231706   3.839   3.783   0.491
 3383TIP3   OH231707   5.361   5.676   1.557
 3383TIP3    H131708   5.330   5.625   1.632
 3383TIP3    H231709   5.317   5.761   1.567
 3384TIP3   OH231710   4.825   5.457   1.117
 3384TIP3    H131711   4.902   5.490   1.163
 3384TIP3    H231712   4.796   5.382   1.170
 3385TIP3   OH231713   4.488   5.450   7.904
 3385TIP3    H131714   4.558   5.440   7.969
 3385TIP3    H231715   4.529   5.500   7.833
 3386TIP3   OH231716   6.547   1.059   8.462
 3386TIP3    H131717   6.565   1.153   8.468
 3386TIP3    H231718   6.456   1.054   8.432
 3387TIP3   OH231719   5.028   1.626   7.679
 3387TIP3    H131720   5.118   1.658   7.680
 3387TIP3    H231721   4.974   1.705   7.667
 3388TIP3   OH231722   5.503   0.610   2.004
 3388TIP3    H131723   5.449   0.539   1.969
 3388TIP3    H231724   5.480   0.615   2.097
 3389TIP3   OH231725   0.216   1.636   0.646
 3389TIP3    H131726   0.245   1.703   0.585
 3389TIP3    H231727   0.195   1.560   0.592
 3390TIP3   OH231728   0.214   5.634   7.247
 3390TIP3    H131729   0.265   5.566   7.203
 3390TIP3    H231730   0.127   5.597   7.256
 3391TIP3   OH231731   2.300   2.149   6.737
 3391TIP3    H131732   2.325   2.138   6.828
 3391TIP3    H231733   2.245   2.228   6.736
 3392TIP3   OH231734   4.452   0.038   2.001
 3392TIP3    H131735   4.493   0.098   1.939
 3392TIP3    H231736   4.517   0.025   2.070
 3393TIP3   OH231737   4.247   0.762   1.651
 3393TIP3    H131738   4.214   0.822   1.718
 3393TIP3    H231739   4.337   0.742   1.678
 3394TIP3   OH231740   2.915   0.919   1.238
 3394TIP3    H131741   2.971   0.879   1.305
 3394TIP3    H231742   2.933   0.868   1.159
 3395TIP3   OH231743   3.391   0.607   0.904
 3395TIP3    H131744   3.374   0.676   0.839
 3395TIP3    H231745   3.346   0.530   0.870
 3396TIP3   OH231746   3.916   3.053   8.261
 3396TIP3    H131747   3.880   3.080   8.177
 3396TIP3    H231748   3.842   3.015   8.308
 3397TIP3   OH231749   4.358   1.601   0.812
 3397TIP3    H131750   4.443   1.630   0.846
 3397TIP3    H231751   4.366   1.611   0.717
 3398TIP3   OH231752   4.737   0.677   1.021
 3398TIP3    H131753   4.742   0.601   0.962
 3398TIP3    H231754   4.651   0.715   1.003
 3399TIP3   OH231755   2.794   1.693   7.113
 3399TIP3    H131756   2.794   1.604   7.079
 3399TIP3    H231757   2.783   1.683   7.207
 3400TIP3   OH231758   0.030   2.784   0.905
 3400TIP3    H131759   0.019   2.863   0.959
 3400TIP3    H231760   6.858   2.772   0.862
 3401TIP3   OH231761   4.952   0.223   7.047
 3401TIP3    H131762   4.952   0.137   7.005
 3401TIP3    H231763   4.996   0.280   6.984
 3402TIP3   OH231764   5.334   5.087   1.098
 3402TIP3    H131765   5.390   5.090   1.176
 3402TIP3    H231766   5.300   5.176   1.089
 3403TIP3   OH231767   1.410   1.344   1.528
 3403TIP3    H131768   1.395   1.430   1.489
 3403TIP3    H231769   1.338   1.332   1.589
 3404TIP3   OH231770   5.195   1.331   6.480
 3404TIP3    H131771   5.266   1.322   6.417
 3404TIP3    H231772   5.149   1.247   6.476
 3405TIP3   OH231773   2.104   3.771   6.854
 3405TIP3    H131774   2.199   3.787   6.861
 3405TIP3    H231775   2.083   3.789   6.763
 3406TIP3   OH231776   5.806   0.790   1.383
 3406TIP3    H131777   5.756   0.831   1.453
 3406TIP3    H231778   5.879   0.850   1.367
 3407TIP3   OH231779   4.809   3.019   0.782
 3407TIP3    H131780   4.738   3.065   0.827
 3407TIP3    H231781   4.765   2.961   0.720
 3408TIP3   OH231782   6.400   4.228   1.085
 3408TIP3    H131783   6.313   4.197   1.112
 3408TIP3    H231784   6.456   4.151   1.093
 3409TIP3   OH231785   2.304   5.587   7.242
 3409TIP3    H131786   2.340   5.498   7.243
 3409TIP3    H231787   2.288   5.605   7.150
 3410TIP3   OH231788   1.614   4.602   8.058
 3410TIP3    H131789   1.692   4.620   8.111
 3410TIP3    H231790   1.556   4.676   8.076
 3411TIP3   OH231791   3.498   1.966   1.355
 3411TIP3    H131792   3.504   1.884   1.405
 3411TIP3    H231793   3.522   1.941   1.266
 3412TIP3   OH231794   0.859   4.934   0.438
 3412TIP3    H131795   0.945   4.898   0.417
 3412TIP3    H231796   0.800   4.858   0.434
 3413TIP3   OH231797   0.158   4.386   1.510
 3413TIP3    H131798   0.147   4.373   1.605
 3413TIP3    H231799   0.087   4.336   1.471
 3414TIP3   OH231800   6.045   1.780   7.601
 3414TIP3    H131801   6.006   1.704   7.644
 3414TIP3    H231802   6.059   1.752   7.511
 3415TIP3   OH231803   6.642   6.285   7.234
 3415TIP3    H131804   6.710   6.238   7.281
 3415TIP3    H231805   6.562   6.234   7.249
 3416TIP3   OH231806   3.742   5.956   7.053
 3416TIP3    H131807   3.658   5.990   7.083
 3416TIP3    H231808   3.795   5.950   7.133
 3417TIP3   OH231809   0.820   5.678   1.446
 3417TIP3    H131810   0.880   5.635   1.385
 3417TIP3    H231811   0.733   5.664   1.409
 3418TIP3   OH231812   4.538   3.593   0.153
 3418TIP3    H131813   4.613   3.622   0.100
 3418TIP3    H231814   4.530   3.661   0.221
 3419TIP3   OH231815   3.372   6.640   1.886
 3419TIP3    H131816   3.400   6.621   1.976
 3419TIP3    H231817   3.303   6.576   1.868
 3420TIP3   OH231818   0.195   5.707   7.532
 3420TIP3    H131819   0.185   5.622   7.574
 3420TIP3    H231820   0.229   5.687   7.445
 3421TIP3   OH231821   3.809   0.889   7.924
 3421TIP3    H131822   3.749   0.953   7.965
 3421TIP3    H231823   3.896   0.917   7.953
 3422TIP3   OH231824   2.769   2.790   1.133
 3422TIP3    H131825   2.852   2.743   1.139
 3422TIP3    H231826   2.788   2.879   1.163
 3423TIP3   OH231827   5.297   4.443   7.863
 3423TIP3    H131828   5.261   4.511   7.806
 3423TIP3    H231829   5.281   4.475   7.952
 3424TIP3   OH231830   2.083   4.474   6.333
 3424TIP3    H131831   2.056   4.426   6.255
 3424TIP3    H231832   2.179   4.473   6.329
 3425TIP3   OH231833   5.514   1.197   0.879
 3425TIP3    H131834   5.488   1.176   0.969
 3425TIP3    H231835   5.610   1.192   0.880
 3426TIP3   OH231836   0.470   1.054   0.592
 3426TIP3    H131837   0.555   1.009   0.594
 3426TIP3    H231838   0.456   1.083   0.682
 3427TIP3   OH231839   2.604   1.873   7.752
 3427TIP3    H131840   2.584   1.965   7.765
 3427TIP3    H231841   2.670   1.853   7.819
 3428TIP3   OH231842   5.683   0.373   2.724
 3428TIP3    H131843   5.765   0.393   2.679
 3428TIP3    H231844   5.707   0.304   2.786
 3429TIP3   OH231845   1.599   0.096   7.138
 3429TIP3    H131846   1.636   0.042   7.069
 3429TIP3    H231847   1.668   0.101   7.204
 3430TIP3   OH231848   5.712   3.731   8.565
 3430TIP3    H131849   5.802   3.745   8.537
 3430TIP3    H231850   5.669   3.816   8.553
 3431TIP3   OH231851   5.338   0.112   6.878
 3431TIP3    H131852   5.304   0.189   6.832
 3431TIP3    H231853   5.348   0.045   6.810
 3432TIP3   OH231854   5.287   3.896   0.474
 3432TIP3    H131855   5.262   3.976   0.520
 3432TIP3    H231856   5.361   3.922   0.420
 3433TIP3   OH231857   4.779   4.529   8.281
 3433TIP3    H131858   4.843   4.513   8.350
 3433TIP3    H231859   4.712   4.583   8.323
 3434TIP3   OH231860   4.361   6.194   1.761
 3434TIP3    H131861   4.320   6.178   1.846
 3434TIP3    H231862   4.290   6.183   1.697
 3435TIP3   OH231863   2.996   3.937   7.526
 3435TIP3    H131864   2.944   3.970   7.599
 3435TIP3    H231865   3.068   4.000   7.518
 3436TIP3   OH231866   0.248   5.190   1.449
 3436TIP3    H131867   0.303   5.212   1.524
 3436TIP3    H231868   0.252   5.267   1.393
 3437TIP3   OH231869   6.613   1.813   7.044
 3437TIP3    H131870   6.534   1.838   6.995
 3437TIP3    H231871   6.626   1.884   7.106
 3438TIP3   OH231872   5.753   2.891   1.968
 3438TIP3    H131873   5.797   2.814   1.934
 3438TIP3    H231874   5.687   2.856   2.029
 3439TIP3   OH231875   6.076   5.682   8.142
 3439TIP3    H131876   6.171   5.679   8.146
 3439TIP3    H231877   6.047   5.635   8.220
 3440TIP3   OH231878   3.138   6.246   8.599
 3440TIP3    H131879   3.087   6.302   8.540
 3440TIP3    H231880   3.204   6.206   8.542
 3441TIP3   OH231881   0.269   6.699   6.185
 3441TIP3    H131882   0.350   6.712   6.235
 3441TIP3    H231883   0.248   6.606   6.195
 3442TIP3   OH231884   1.785   6.113   7.799
 3442TIP3    H131885   1.724   6.120   7.726
 3442TIP3    H231886   1.821   6.025   7.792
 3443TIP3   OH231887   1.820   0.560   0.282
 3443TIP3    H131888   1.869   0.516   0.212
 3443TIP3    H231889   1.857   0.525   0.363
 3444TIP3   OH231890   6.528   4.743   1.368
 3444TIP3    H131891   6.564   4.812   1.425
 3444TIP3    H231892   6.497   4.676   1.428
 3445TIP3   OH231893   3.955   2.562   7.680
 3445TIP3    H131894   3.958   2.470   7.657
 3445TIP3    H231895   3.892   2.566   7.753
 3446TIP3   OH231896   0.509   4.971   0.683
 3446TIP3    H131897   0.423   4.933   0.700
 3446TIP3    H231898   0.568   4.896   0.677
 3447TIP3   OH231899   6.382   1.384   0.028
 3447TIP3    H131900   6.354   1.303   0.071
 3447TIP3    H231901   6.324   1.392   8.555
 3448TIP3   OH231902   5.866   5.390   7.255
 3448TIP3    H131903   5.923   5.454   7.213
 3448TIP3    H231904   5.786   5.391   7.204
 3449TIP3   OH231905   4.652   4.324   7.548
 3449TIP3    H131906   4.649   4.386   7.475
 3449TIP3    H231907   4.642   4.378   7.626
 3450TIP3   OH231908   2.038   1.876   1.621
 3450TIP3    H131909   2.035   1.971   1.627
 3450TIP3    H231910   2.103   1.850   1.687
 3451TIP3   OH231911   0.159   5.224   2.148
 3451TIP3    H131912   0.122   5.168   2.217
 3451TIP3    H231913   0.253   5.206   2.150
 3452TIP3   OH231914   5.058   6.162   0.528
 3452TIP3    H131915   5.017   6.090   0.480
 3452TIP3    H231916   5.151   6.143   0.527
 3453TIP3   OH231917   6.184   5.380   0.627
 3453TIP3    H131918   6.224   5.455   0.672
 3453TIP3    H231919   6.141   5.419   0.551
 3454TIP3   OH231920   3.055   3.737   1.227
 3454TIP3    H131921   3.054   3.659   1.171
 3454TIP3    H231922   3.022   3.807   1.170
 3455TIP3   OH231923   1.126   1.369   8.141
 3455TIP3    H131924   1.136   1.313   8.218
 3455TIP3    H231925   1.215   1.393   8.118
 3456TIP3   OH231926   2.830   6.421   7.921
 3456TIP3    H131927   2.764   6.357   7.896
 3456TIP3    H231928   2.848   6.402   8.013
 3457TIP3   OH231929   3.636   5.110   7.867
 3457TIP3    H131930   3.602   5.085   7.782
 3457TIP3    H231931   3.560   5.109   7.925
 3458TIP3   OH231932   1.344   4.987   8.034
 3458TIP3    H131933   1.375   5.069   8.073
 3458TIP3    H231934   1.412   4.923   8.056
 3459TIP3   OH231935   6.453   5.369   0.966
 3459TIP3    H131936   6.492   5.284   0.946
 3459TIP3    H231937   6.378   5.349   1.022
 3460TIP3   OH231938   5.459   6.787   7.261
 3460TIP3    H131939   5.417   6.767   7.345
 3460TIP3    H231940   5.404   6.854   7.222
 3461TIP3   OH231941   6.457   5.909   1.962
 3461TIP3    H131942   6.482   5.951   1.880
 3461TIP3    H231943   6.513   5.950   2.028
 3462TIP3   OH231944   2.149   5.844   6.747
 3462TIP3    H131945   2.096   5.841   6.826
 3462TIP3    H231946   2.215   5.911   6.764
 3463TIP3   OH231947   4.730   2.992   8.376
 3463TIP3    H131948   4.743   3.078   8.337
 3463TIP3    H231949   4.663   3.007   8.443
 3464TIP3   OH231950   3.539   3.920   1.090
 3464TIP3    H131951   3.504   3.953   1.008
 3464TIP3    H231952   3.471   3.861   1.123
 3465TIP3   OH231953   2.987   3.766   0.446
 3465TIP3    H131954   3.056   3.700   0.448
 3465TIP3    H231955   3.017   3.834   0.505
 3466TIP3   OH231956   1.511   2.672   0.516
 3466TIP3    H131957   1.432   2.632   0.552
 3466TIP3    H231958   1.480   2.723   0.441
 3467TIP3   OH231959   6.887   1.794   0.555
 3467TIP3    H131960   0.029   1.844   0.495
 3467TIP3    H231961   0.021   1.798   0.639
 3468TIP3   OH231962   5.367   1.122   2.376
 3468TIP3    H131963   5.346   1.177   2.301
 3468TIP3    H231964   5.443   1.164   2.416
 3469TIP3   OH231965   0.007   6.484   6.607
 3469TIP3    H131966   6.874   6.527   6.535
 3469TIP3    H231967   0.058   6.415   6.566
 3470TIP3   OH231968   1.251   4.261   6.364
 3470TIP3    H131969   1.298   4.344   6.356
 3470TIP3    H231970   1.181   4.266   6.300
 3471TIP3   OH231971   1.714   0.837   7.896
 3471TIP3    H131972   1.724   0.907   7.961
 3471TIP3    H231973   1.627   0.851   7.859
 3472TIP3   OH231974   4.120   0.557   1.820
 3472TIP3    H131975   4.145   0.649   1.830
 3472TIP3    H231976   4.042   0.559   1.765
 3473TIP3   OH231977   1.865   3.269   0.763
 3473TIP3    H131978   1.791   3.211   0.782
 3473TIP3    H231979   1.892   3.245   0.674
 3474TIP3   OH231980   0.433   0.711   0.124
 3474TIP3    H131981   0.517   0.751   0.101
 3474TIP3    H231982   0.396   0.684   0.040
 3475TIP3   OH231983   1.199   6.474   1.473
 3475TIP3    H131984   1.185   6.549   1.531
 3475TIP3    H231985   1.117   6.425   1.476
 3476TIP3   OH231986   1.189   4.024   7.602
 3476TIP3    H131987   1.218   4.073   7.679
 3476TIP3    H231988   1.175   4.090   7.535
 3477TIP3   OH231989   1.423   5.182   7.143
 3477TIP3    H131990   1.348   5.176   7.084
 3477TIP3    H231991   1.397   5.247   7.208
 3478TIP3   OH231992   1.586   3.518   6.352
 3478TIP3    H131993   1.612   3.604   6.385
 3478TIP3    H231994   1.666   3.466   6.354
 3479TIP3   OH231995   5.569   0.969   7.605
 3479TIP3    H131996   5.607   1.007   7.685
 3479TIP3    H231997   5.522   1.041   7.565
 3480TIP3   OH231998   0.238   1.301   6.802
 3480TIP3    H131999   0.264   1.211   6.782
 3480TIP3    H232000   0.220   1.341   6.716
 3481TIP3   OH232001   2.954   3.936   7.042
 3481TIP3    H132002   2.889   3.882   6.997
 3481TIP3    H232003   3.006   3.974   6.972
 3482TIP3   OH232004   2.248   0.324   7.043
 3482TIP3    H132005   2.259   0.350   6.951
 3482TIP3    H232006   2.237   0.407   7.090
 3483TIP3   OH232007   6.901   2.065   6.864
 3483TIP3    H132008   0.020   2.087   6.952
 3483TIP3    H232009   6.852   2.143   6.836
 3484TIP3   OH232010   6.127   1.137   6.878
 3484TIP3    H132011   6.138   1.110   6.787
 3484TIP3    H232012   6.056   1.202   6.875
 3485TIP3   OH232013   2.921   2.958   1.307
 3485TIP3    H132014   2.987   2.933   1.372
 3485TIP3    H232015   2.961   3.030   1.258
 3486TIP3   OH232016   3.054   4.486   8.017
 3486TIP3    H132017   3.129   4.504   8.074
 3486TIP3    H232018   3.005   4.419   8.064
 3487TIP3   OH232019   1.149   2.343   0.594
 3487TIP3    H132020   1.068   2.330   0.544
 3487TIP3    H232021   1.192   2.257   0.592
 3488TIP3   OH232022   6.467   6.594   8.450
 3488TIP3    H132023   6.562   6.600   8.450
 3488TIP3    H232024   6.439   6.666   8.507
 3489TIP3   OH232025   2.714   3.808   8.537
 3489TIP3    H132026   2.701   3.903   8.528
 3489TIP3    H232027   2.637   3.770   8.495
 3490TIP3   OH232028   1.038   4.583   0.786
 3490TIP3    H132029   1.083   4.656   0.829
 3490TIP3    H232030   1.109   4.531   0.747
 3491TIP3   OH232031   2.077   2.241   1.491
 3491TIP3    H132032   2.139   2.278   1.552
 3491TIP3    H232033   2.105   2.273   1.405
 3492TIP3   OH232034   0.885   0.255   0.995
 3492TIP3    H132035   0.963   0.253   0.940
 3492TIP3    H232036   0.840   0.173   0.976
 3493TIP3   OH232037   1.952   1.712   0.470
 3493TIP3    H132038   1.959   1.657   0.548
 3493TIP3    H232039   2.034   1.761   0.467
 3494TIP3   OH232040   4.622   4.227   6.416
 3494TIP3    H132041   4.614   4.321   6.432
 3494TIP3    H232042   4.714   4.215   6.390
 3495TIP3   OH232043   1.861   3.000   8.005
 3495TIP3    H132044   1.838   2.981   8.096
 3495TIP3    H232045   1.777   3.019   7.962
 3496TIP3   OH232046   2.804   2.990   6.983
 3496TIP3    H132047   2.720   3.029   6.959
 3496TIP3    H232048   2.853   2.988   6.902
 3497TIP3   OH232049   4.915   5.899   1.841
 3497TIP3    H132050   4.957   5.961   1.780
 3497TIP3    H232051   4.980   5.831   1.854
 3498TIP3   OH232052   1.474   3.539   0.316
 3498TIP3    H132053   1.466   3.627   0.352
 3498TIP3    H232054   1.455   3.549   0.222
 3499TIP3   OH232055   5.125   3.845   1.276
 3499TIP3    H132056   5.141   3.835   1.370
 3499TIP3    H232057   5.151   3.936   1.258
 3500TIP3   OH232058   2.371   5.210   0.127
 3500TIP3    H132059   2.320   5.135   0.155
 3500TIP3    H232060   2.368   5.270   0.201
 3501TIP3   OH232061   3.833   0.541   0.228
 3501TIP3    H132062   3.853   0.448   0.235
 3501TIP3    H232063   3.918   0.584   0.219
 3502TIP3   OH232064   5.978   6.051   2.353
 3502TIP3    H132065   5.951   6.121   2.412
 3502TIP3    H232066   6.065   6.077   2.323
 3503TIP3   OH232067   6.134   1.654   7.151
 3503TIP3    H132068   6.152   1.643   7.244
 3503TIP3    H232069   6.199   1.718   7.121
 3504TIP3   OH232070   1.473   2.100   0.569
 3504TIP3    H132071   1.427   2.024   0.532
 3504TIP3    H232072   1.526   2.063   0.640
 3505TIP3   OH232073   6.343   0.312   8.314
 3505TIP3    H132074   6.347   0.218   8.298
 3505TIP3    H232075   6.272   0.323   8.377
 3506TIP3   OH232076   5.609   2.278   8.532
 3506TIP3    H132077   5.589   2.226   0.007
 3506TIP3    H232078   5.678   2.339   8.560
 3507TIP3   OH232079   2.717   1.022   6.913
 3507TIP3    H132080   2.744   0.931   6.924
 3507TIP3    H232081   2.747   1.046   6.826
 3508TIP3   OH232082   4.429   4.965   8.354
 3508TIP3    H132083   4.334   4.968   8.345
 3508TIP3    H232084   4.451   4.872   8.352
 3509TIP3   OH232085   2.300   5.478   0.663
 3509TIP3    H132086   2.209   5.502   0.647
 3509TIP3    H232087   2.351   5.555   0.637
 3510TIP3   OH232088   1.774   1.390   6.190
 3510TIP3    H132089   1.798   1.384   6.282
 3510TIP3    H232090   1.791   1.482   6.167
 3511TIP3   OH232091   1.467   4.649   1.115
 3511TIP3    H132092   1.550   4.687   1.087
 3511TIP3    H232093   1.444   4.698   1.194
 3512TIP3   OH232094   0.212   5.885   7.854
 3512TIP3    H132095   0.251   5.859   7.771
 3512TIP3    H232096   0.220   5.807   7.910
 3513TIP3   OH232097   2.820   0.072   7.867
 3513TIP3    H132098   2.812   0.039   7.778
 3513TIP3    H232099   2.872   0.152   7.858
 3514TIP3   OH232100   3.969   5.263   8.129
 3514TIP3    H132101   4.021   5.230   8.056
 3514TIP3    H232102   3.912   5.329   8.090
 3515TIP3   OH232103   1.060   4.678   7.204
 3515TIP3    H132104   1.013   4.652   7.125
 3515TIP3    H232105   1.083   4.595   7.247
 3516TIP3   OH232106   5.642   2.320   0.429
 3516TIP3    H132107   5.591   2.396   0.457
 3516TIP3    H232108   5.724   2.327   0.477
 3517TIP3   OH232109   3.350   2.131   7.076
 3517TIP3    H132110   3.327   2.040   7.059
 3517TIP3    H232111   3.307   2.180   7.007
 3518TIP3   OH232112   5.442   3.957   0.173
 3518TIP3    H132113   5.357   3.983   0.138
 3518TIP3    H232114   5.499   3.950   0.096
 3519TIP3   OH232115   0.875   0.114   0.065
 3519TIP3    H132116   0.934   0.142   8.599
 3519TIP3    H232117   0.837   0.032   0.033
 3520TIP3   OH232118   6.396   0.528   1.643
 3520TIP3    H132119   6.453   0.451   1.651
 3520TIP3    H232120   6.360   0.521   1.554
 3521TIP3   OH232121   5.261   4.465   0.600
 3521TIP3    H132122   5.250   4.558   0.579
 3521TIP3    H232123   5.197   4.448   0.669
 3522TIP3   OH232124   3.750   6.376   6.024
 3522TIP3    H132125   3.755   6.350   6.116
 3522TIP3    H232126   3.717   6.298   5.979
 3523TIP3   OH232127   3.064   2.760   0.871
 3523TIP3    H132128   3.100   2.826   0.811
 3523TIP3    H232129   2.970   2.759   0.852
 3524TIP3   OH232130   1.461   0.796   0.070
 3524TIP3    H132131   1.366   0.811   0.073
 3524TIP3    H232132   1.472   0.711   0.111
 3525TIP3   OH232133   4.304   1.449   0.343
 3525TIP3    H132134   4.338   1.461   0.254
 3525TIP3    H232135   4.218   1.491   0.342
 3526TIP3   OH232136   0.036   1.035   1.091
 3526TIP3    H132137   6.879   1.004   1.149
 3526TIP3    H232138   6.911   1.112   1.049
 3527TIP3   OH232139   3.100   5.683   6.592
 3527TIP3    H132140   3.135   5.614   6.535
 3527TIP3    H232141   3.136   5.764   6.555
 3528TIP3   OH232142   1.211   5.142   8.379
 3528TIP3    H132143   1.299   5.141   8.341
 3528TIP3    H232144   1.166   5.213   8.333
 3529TIP3   OH232145   2.785   0.053   7.229
 3529TIP3    H132146   2.815   6.888   7.180
 3529TIP3    H232147   2.745   0.109   7.163
 3530TIP3   OH232148   2.444   6.652   6.803
 3530TIP3    H132149   2.470   6.730   6.853
 3530TIP3    H232150   2.428   6.685   6.715
 3531TIP3   OH232151   6.191   3.054   6.917
 3531TIP3    H132152   6.113   3.077   6.866
 3531TIP3    H232153   6.206   2.962   6.898
 3532TIP3   OH232154   1.942   1.297   0.745
 3532TIP3    H132155   1.852   1.273   0.723
 3532TIP3    H232156   1.967   1.235   0.814
 3533TIP3   OH232157   5.133   2.948   2.062
 3533TIP3    H132158   5.135   2.865   2.109
 3533TIP3    H232159   5.051   2.990   2.089
 3534TIP3   OH232160   6.669   5.044   1.176
 3534TIP3    H132161   6.660   5.079   1.087
 3534TIP3    H232162   6.618   4.963   1.175
 3535TIP3   OH232163   1.427   0.769   6.453
 3535TIP3    H132164   1.520   0.748   6.464
 3535TIP3    H232165   1.421   0.862   6.475
 3536TIP3   OH232166   1.798   4.996   8.166
 3536TIP3    H132167   1.803   5.044   8.249
 3536TIP3    H232168   1.875   4.939   8.166
 3537TIP3   OH232169   0.256   1.241   1.153
 3537TIP3    H132170   0.202   1.162   1.156
 3537TIP3    H232171   0.214   1.295   1.086
 3538TIP3   OH232172   4.295   5.037   2.011
 3538TIP3    H132173   4.246   5.060   1.932
 3538TIP3    H232174   4.288   5.115   2.067
 3539TIP3   OH232175   6.422   3.381   1.424
 3539TIP3    H132176   6.442   3.306   1.368
 3539TIP3    H232177   6.386   3.447   1.365
 3540TIP3   OH232178   5.492   1.143   6.712
 3540TIP3    H132179   5.486   1.109   6.623
 3540TIP3    H232180   5.524   1.232   6.702
 3541TIP3   OH232181   0.649   6.659   1.561
 3541TIP3    H132182   0.569   6.660   1.614
 3541TIP3    H232183   0.702   6.731   1.595
 3542TIP3   OH232184   1.461   1.889   2.132
 3542TIP3    H132185   1.389   1.881   2.069
 3542TIP3    H232186   1.515   1.811   2.116
 3543TIP3   OH232187   0.892   3.081   1.551
 3543TIP3    H132188   0.935   3.007   1.509
 3543TIP3    H232189   0.889   3.149   1.484
 3544TIP3   OH232190   5.607   0.003   6.734
 3544TIP3    H132191   5.525   6.866   6.732
 3544TIP3    H232192   5.618   0.035   6.645
 3545TIP3   OH232193   3.794   0.354   0.504
 3545TIP3    H132194   3.841   0.437   0.492
 3545TIP3    H232195   3.749   0.364   0.587
 3546TIP3   OH232196   1.371   4.514   6.407
 3546TIP3    H132197   1.460   4.532   6.438
 3546TIP3    H232198   1.349   4.590   6.354
 3547TIP3   OH232199   4.174   3.693   7.171
 3547TIP3    H132200   4.172   3.652   7.085
 3547TIP3    H232201   4.100   3.754   7.171
 3548TIP3   OH232202   1.471   3.541   7.544
 3548TIP3    H132203   1.526   3.563   7.468
 3548TIP3    H232204   1.394   3.497   7.506
 3549TIP3   OH232205   2.625   1.746   0.373
 3549TIP3    H132206   2.542   1.791   0.359
 3549TIP3    H232207   2.601   1.657   0.397
 3550TIP3   OH232208   2.153   2.811   1.037
 3550TIP3    H132209   2.182   2.764   0.959
 3550TIP3    H232210   2.144   2.902   1.009
 3551TIP3   OH232211   0.788   5.706   0.531
 3551TIP3    H132212   0.732   5.629   0.527
 3551TIP3    H232213   0.799   5.724   0.624
 3552TIP3   OH232214   0.281   2.017   7.101
 3552TIP3    H132215   0.279   2.038   7.007
 3552TIP3    H232216   0.340   2.082   7.139
 3553TIP3   OH232217   3.719   3.763   2.059
 3553TIP3    H132218   3.651   3.718   2.110
 3553TIP3    H232219   3.796   3.763   2.117
 3554TIP3   OH232220   0.719   5.065   1.093
 3554TIP3    H132221   0.690   4.992   1.039
 3554TIP3    H232222   0.777   5.025   1.159
 3555TIP3   OH232223   2.662   6.354   5.852
 3555TIP3    H132224   2.689   6.340   5.761
 3555TIP3    H232225   2.661   6.267   5.890
 3556TIP3   OH232226   0.846   0.752   7.102
 3556TIP3    H132227   0.868   0.660   7.085
 3556TIP3    H232228   0.877   0.798   7.024
 3557TIP3   OH232229   5.633   1.543   7.600
 3557TIP3    H132230   5.623   1.474   7.666
 3557TIP3    H232231   5.553   1.595   7.606
 3558TIP3   OH232232   3.840   6.100   0.014
 3558TIP3    H132233   3.780   6.131   0.082
 3558TIP3    H232234   3.867   6.179   8.571
 3559TIP3   OH232235   2.723   5.857   8.274
 3559TIP3    H132236   2.737   5.788   8.340
 3559TIP3    H232237   2.644   5.830   8.228
 3560TIP3   OH232238   4.985   5.332   8.344
 3560TIP3    H132239   5.049   5.274   8.383
 3560TIP3    H232240   5.037   5.400   8.300
 3561TIP3   OH232241   3.809   6.897   6.948
 3561TIP3    H132242   3.853   6.815   6.972
 3561TIP3    H232243   3.794   6.889   6.854
 3562TIP3   OH232244   5.218   4.232   7.463
 3562TIP3    H132245   5.260   4.151   7.434
 3562TIP3    H232246   5.213   4.224   7.558
 3563TIP3   OH232247   4.703   1.115   0.565
 3563TIP3    H132248   4.656   1.188   0.525
 3563TIP3    H232249   4.773   1.095   0.504
 3564TIP3   OH232250   4.602   1.807   1.164
 3564TIP3    H132251   4.629   1.727   1.118
 3564TIP3    H232252   4.677   1.866   1.155
 3565TIP3   OH232253   1.868   1.130   0.398
 3565TIP3    H132254   1.853   1.210   0.348
 3565TIP3    H232255   1.829   1.148   0.484
 3566TIP3   OH232256   4.719   1.407   7.418
 3566TIP3    H132257   4.639   1.358   7.435
 3566TIP3    H232258   4.782   1.374   7.483
 3567TIP3   OH232259   1.845   5.061   0.675
 3567TIP3    H132260   1.802   5.045   0.591
 3567TIP3    H232261   1.856   5.156   0.678
 3568TIP3   OH232262   3.128   3.037   0.410
 3568TIP3    H132263   3.206   3.006   0.364
 3568TIP3    H232264   3.154   3.122   0.445
 3569TIP3   OH232265   6.711   5.942   8.513
 3569TIP3    H132266   6.635   5.977   8.559
 3569TIP3    H232267   6.734   6.010   8.449
 3570TIP3   OH232268   2.007   1.434   7.423
 3570TIP3    H132269   1.917   1.416   7.394
 3570TIP3    H232270   2.062   1.379   7.368
 3571TIP3   OH232271   3.956   5.817   0.421
 3571TIP3    H132272   3.909   5.827   0.504
 3571TIP3    H232273   4.030   5.876   0.427
 3572TIP3   OH232274   5.353   5.599   1.286
 3572TIP3    H132275   5.347   5.638   1.374
 3572TIP3    H232276   5.340   5.506   1.301
 3573TIP3   OH232277   0.627   5.720   7.705
 3573TIP3    H132278   0.601   5.754   7.791
 3573TIP3    H232279   0.608   5.792   7.645
 3574TIP3   OH232280   3.423   4.700   0.692
 3574TIP3    H132281   3.356   4.640   0.724
 3574TIP3    H232282   3.390   4.731   0.608
 3575TIP3   OH232283   4.481   4.569   7.374
 3575TIP3    H132284   4.457   4.596   7.462
 3575TIP3    H232285   4.568   4.607   7.360
 3576TIP3   OH232286   3.842   0.762   1.507
 3576TIP3    H132287   3.916   0.759   1.446
 3576TIP3    H232288   3.856   0.841   1.559
 3577TIP3   OH232289   1.595   3.153   0.886
 3577TIP3    H132290   1.628   3.073   0.926
 3577TIP3    H232291   1.598   3.137   0.792
 3578TIP3   OH232292   3.303   6.551   1.013
 3578TIP3    H132293   3.256   6.469   1.030
 3578TIP3    H232294   3.268   6.581   0.929
 3579TIP3   OH232295   3.812   1.993   1.434
 3579TIP3    H132296   3.884   1.964   1.379
 3579TIP3    H232297   3.742   2.014   1.372
 3580TIP3   OH232298   0.409   5.225   0.271
 3580TIP3    H132299   0.487   5.188   0.312
 3580TIP3    H232300   0.345   5.229   0.343
 3581TIP3   OH232301   1.332   1.323   7.054
 3581TIP3    H132302   1.392   1.300   7.125
 3581TIP3    H232303   1.259   1.261   7.065
 3582TIP3   OH232304   6.596   5.728   7.389
 3582TIP3    H132305   6.655   5.678   7.446
 3582TIP3    H232306   6.542   5.779   7.450
 3583TIP3   OH232307   2.316   5.836   7.778
 3583TIP3    H132308   2.240   5.780   7.768
 3583TIP3    H232309   2.387   5.790   7.733
 3584TIP3   OH232310   2.725   6.280   8.126
 3584TIP3    H132311   2.690   6.236   8.049
 3584TIP3    H232312   2.653   6.334   8.157
 3585TIP3   OH232313   6.203   3.606   6.486
 3585TIP3    H132314   6.132   3.588   6.549
 3585TIP3    H232315   6.211   3.525   6.435
 3586TIP3   OH232316   3.003   5.653   0.687
 3586TIP3    H132317   2.953   5.576   0.715
 3586TIP3    H232318   3.093   5.622   0.677
 3587TIP3   OH232319   0.645   3.936   2.126
 3587TIP3    H132320   0.596   3.980   2.056
 3587TIP3    H232321   0.610   3.973   2.207
 3588TIP3   OH232322   4.289   2.138   7.517
 3588TIP3    H132323   4.292   2.064   7.578
 3588TIP3    H232324   4.240   2.105   7.442
 3589TIP3   OH232325   1.504   2.231   0.303
 3589TIP3    H132326   1.503   2.185   0.387
 3589TIP3    H232327   1.463   2.170   0.241
 3590TIP3   OH232328   4.696   2.948   7.523
 3590TIP3    H132329   4.777   2.938   7.474
 3590TIP3    H232330   4.699   2.878   7.588
 3591TIP3   OH232331   5.825   5.932   1.139
 3591TIP3    H132332   5.844   5.890   1.223
 3591TIP3    H232333   5.733   5.911   1.122
 3592TIP3   OH232334   0.498   1.950   1.555
 3592TIP3    H132335   0.568   1.996   1.510
 3592TIP3    H232336   0.486   1.998   1.637
 3593TIP3   OH232337   2.920   5.887   0.806
 3593TIP3    H132338   2.996   5.903   0.862
 3593TIP3    H232339   2.935   5.800   0.769
 3594TIP3   OH232340   6.131   2.842   0.579
 3594TIP3    H132341   6.087   2.855   0.495
 3594TIP3    H232342   6.063   2.858   0.644
 3595TIP3   OH232343   6.753   5.903   6.786
 3595TIP3    H132344   6.826   5.953   6.748
 3595TIP3    H232345   6.696   5.885   6.711
 3596TIP3   OH232346   4.910   0.423   6.392
 3596TIP3    H132347   4.848   0.373   6.445
 3596TIP3    H232348   4.973   0.457   6.456
 3597TIP3   OH232349   4.963   6.894   6.921
 3597TIP3    H132350   4.994   6.803   6.922
 3597TIP3    H232351   4.888   6.894   6.863
 3598TIP3   OH232352   5.241   5.174   6.305
 3598TIP3    H132353   5.230   5.164   6.399
 3598TIP3    H232354   5.302   5.106   6.280
 3599TIP3   OH232355   2.520   3.588   7.665
 3599TIP3    H132356   2.491   3.675   7.637
 3599TIP3    H232357   2.446   3.552   7.714
 3600TIP3   OH232358   4.858   4.116   1.391
 3600TIP3    H132359   4.829   4.123   1.300
 3600TIP3    H232360   4.805   4.180   1.439
 3601TIP3   OH232361   0.731   1.869   1.846
 3601TIP3    H132362   0.696   1.956   1.827
 3601TIP3    H232363   0.655   1.820   1.880
 3602TIP3   OH232364   6.458   3.050   6.591
 3602TIP3    H132365   6.485   2.969   6.634
 3602TIP3    H232366   6.532   3.109   6.601
 3603TIP3   OH232367   4.247   4.749   1.401
 3603TIP3    H132368   4.167   4.710   1.367
 3603TIP3    H232369   4.240   4.842   1.381
 3604TIP3   OH232370   6.878   0.286   7.314
 3604TIP3    H132371   0.015   0.212   7.279
 3604TIP3    H232372   0.008   0.305   7.398
 3605TIP3   OH232373   2.349   0.497   0.209
 3605TIP3    H132374   2.333   0.453   0.293
 3605TIP3    H232375   2.282   0.565   0.205
 3606TIP3   OH232376   2.796   1.259   2.067
 3606TIP3    H132377   2.869   1.231   2.012
 3606TIP3    H232378   2.814   1.220   2.153
 3607TIP3   OH232379   4.353   5.508   8.321
 3607TIP3    H132380   4.328   5.453   8.396
 3607TIP3    H232381   4.447   5.492   8.311
 3608TIP3   OH232382   2.266   4.296   7.415
 3608TIP3    H132383   2.279   4.384   7.380
 3608TIP3    H232384   2.221   4.311   7.498
 3609TIP3   OH232385   4.429   6.891   0.125
 3609TIP3    H132386   4.341   6.869   0.096
 3609TIP3    H232387   4.485   6.824   0.085
 3610TIP3   OH232388   6.892   2.405   1.479
 3610TIP3    H132389   0.002   2.321   1.437
 3610TIP3    H232390   0.053   2.462   1.457
 3611TIP3   OH232391   6.410   0.055   6.386
 3611TIP3    H132392   6.483   6.907   6.403
 3611TIP3    H232393   6.441   0.140   6.418
 3612TIP3   OH232394   2.935   2.877   8.137
 3612TIP3    H132395   2.996   2.841   8.202
 3612TIP3    H232396   2.983   2.949   8.096
 3613TIP3   OH232397   6.302   1.366   6.646
 3613TIP3    H132398   6.384   1.351   6.691
 3613TIP3    H232399   6.272   1.451   6.679
 3614TIP3   OH232400   0.179   0.160   7.795
 3614TIP3    H132401   0.257   0.117   7.829
 3614TIP3    H232402   0.106   0.111   7.834
 3615TIP3   OH232403   0.513   3.749   6.957
 3615TIP3    H132404   0.434   3.803   6.964
 3615TIP3    H232405   0.560   3.784   6.881
 3616TIP3   OH232406   4.079   1.416   7.539
 3616TIP3    H132407   4.123   1.464   7.609
 3616TIP3    H232408   4.002   1.378   7.579
 3617TIP3   OH232409   5.326   1.446   6.726
 3617TIP3    H132410   5.280   1.400   6.656
 3617TIP3    H232411   5.419   1.433   6.706
 3618TIP3   OH232412   3.892   2.559   1.122
 3618TIP3    H132413   3.895   2.491   1.189
 3618TIP3    H232414   3.819   2.616   1.148
 3619TIP3   OH232415   1.803   6.265   1.896
 3619TIP3    H132416   1.803   6.214   1.815
 3619TIP3    H232417   1.754   6.211   1.958
 3620TIP3   OH232418   2.895   5.277   1.312
 3620TIP3    H132419   2.912   5.327   1.392
 3620TIP3    H232420   2.909   5.341   1.242
 3621TIP3   OH232421   1.836   6.843   8.091
 3621TIP3    H132422   1.831   0.025   8.101
 3621TIP3    H232423   1.865   6.811   8.177
 3622TIP3   OH232424   2.824   1.354   0.556
 3622TIP3    H132425   2.874   1.274   0.539
 3622TIP3    H232426   2.837   1.371   0.649
 3623TIP3   OH232427   3.438   6.548   6.712
 3623TIP3    H132428   3.512   6.606   6.694
 3623TIP3    H232429   3.409   6.518   6.626
 3624TIP3   OH232430   2.199   0.117   1.506
 3624TIP3    H132431   2.283   0.109   1.460
 3624TIP3    H232432   2.202   0.047   1.572
 3625TIP3   OH232433   1.347   0.300   0.231
 3625TIP3    H132434   1.429   0.256   0.210
 3625TIP3    H232435   1.310   0.322   0.145
 3626TIP3   OH232436   4.345   3.545   7.345
 3626TIP3    H132437   4.402   3.620   7.362
 3626TIP3    H232438   4.286   3.576   7.276
 3627TIP3   OH232439   0.766   0.680   6.682
 3627TIP3    H132440   0.703   0.646   6.745
 3627TIP3    H232441   0.837   0.714   6.736
 3628TIP3   OH232442   2.200   2.819   7.482
 3628TIP3    H132443   2.227   2.881   7.550
 3628TIP3    H232444   2.264   2.831   7.412
 3629TIP3   OH232445   4.441   5.225   8.469
 3629TIP3    H132446   4.412   5.142   8.431
 3629TIP3    H232447   4.364   5.257   8.516
 3630TIP3   OH232448   3.101   3.981   1.545
 3630TIP3    H132449   3.072   3.890   1.538
 3630TIP3    H232450   3.185   3.983   1.500
 3631TIP3   OH232451   4.760   6.897   2.630
 3631TIP3    H132452   4.750   0.068   2.584
 3631TIP3    H232453   4.704   6.836   2.583
 3632TIP3   OH232454   3.148   0.355   7.110
 3632TIP3    H132455   3.113   0.293   7.046
 3632TIP3    H232456   3.234   0.322   7.133
 3633TIP3   OH232457   6.111   0.813   7.677
 3633TIP3    H132458   6.119   0.842   7.586
 3633TIP3    H232459   6.199   0.784   7.700
 3634TIP3   OH232460   2.126   3.089   0.983
 3634TIP3    H132461   2.190   3.118   1.048
 3634TIP3    H232462   2.065   3.162   0.976
 3635TIP3   OH232463   1.334   4.880   8.296
 3635TIP3    H132464   1.266   4.855   8.234
 3635TIP3    H232465   1.399   4.809   8.289
 3636TIP3   OH232466   3.563   6.005   7.825
 3636TIP3    H132467   3.511   5.956   7.761
 3636TIP3    H232468   3.654   5.986   7.802
 3637TIP3   OH232469   5.343   6.523   1.278
 3637TIP3    H132470   5.386   6.476   1.349
 3637TIP3    H232471   5.414   6.555   1.223
 3638TIP3   OH232472   3.301   1.889   6.539
 3638TIP3    H132473   3.226   1.932   6.499
 3638TIP3    H232474   3.347   1.847   6.466
 3639TIP3   OH232475   4.479   5.812   1.445
 3639TIP3    H132476   4.514   5.770   1.367
 3639TIP3    H232477   4.452   5.899   1.416
 3640TIP3   OH232478   5.538   0.023   0.865
 3640TIP3    H132479   5.488   0.104   0.852
 3640TIP3    H232480   5.622   0.041   0.822
 3641TIP3   OH232481   2.030   2.458   2.125
 3641TIP3    H132482   1.984   2.375   2.140
 3641TIP3    H232483   2.053   2.489   2.213
 3642TIP3   OH232484   2.171   4.496   6.797
 3642TIP3    H132485   2.223   4.540   6.729
 3642TIP3    H232486   2.121   4.566   6.838
 3643TIP3   OH232487   0.193   6.598   0.651
 3643TIP3    H132488   0.285   6.596   0.677
 3643TIP3    H232489   0.186   6.672   0.591
 3644TIP3   OH232490   6.054   3.325   7.279
 3644TIP3    H132491   6.128   3.385   7.280
 3644TIP3    H232492   6.075   3.261   7.347
 3645TIP3   OH232493   2.309   4.204   1.431
 3645TIP3    H132494   2.356   4.127   1.399
 3645TIP3    H232495   2.288   4.183   1.522
 3646TIP3   OH232496   5.937   5.163   7.409
 3646TIP3    H132497   5.909   5.091   7.352
 3646TIP3    H232498   5.887   5.238   7.378
 3647TIP3   OH232499   3.350   5.133   0.016
 3647TIP3    H132500   3.396   5.111   8.538
 3647TIP3    H232501   3.288   5.061   0.028
 3648TIP3   OH232502   1.678   2.884   7.198
 3648TIP3    H132503   1.638   2.808   7.242
 3648TIP3    H232504   1.705   2.941   7.270
 3649TIP3   OH232505   0.303   0.361   0.365
 3649TIP3    H132506   0.341   0.282   0.403
 3649TIP3    H232507   0.253   0.331   0.289
 3650TIP3   OH232508   1.759   0.605   7.745
 3650TIP3    H132509   1.842   0.575   7.782
 3650TIP3    H232510   1.739   0.686   7.793
 3651TIP3   OH232511   1.360   0.529   8.381
 3651TIP3    H132512   1.448   0.555   8.410
 3651TIP3    H232513   1.372   0.501   8.290
 3652TIP3   OH232514   3.311   2.259   7.561
 3652TIP3    H132515   3.237   2.226   7.509
 3652TIP3    H232516   3.385   2.260   7.500
 3653TIP3   OH232517   0.006   1.791   0.250
 3653TIP3    H132518   0.087   1.812   0.203
 3653TIP3    H232519   6.881   1.717   0.202
 3654TIP3   OH232520   6.554   2.095   8.089
 3654TIP3    H132521   6.531   2.061   8.003
 3654TIP3    H232522   6.635   2.143   8.076
 3655TIP3   OH232523   2.815   4.006   0.151
 3655TIP3    H132524   2.775   4.032   0.234
 3655TIP3    H232525   2.784   3.917   0.135
 3656TIP3   OH232526   0.932   4.950   1.515
 3656TIP3    H132527   0.969   5.030   1.478
 3656TIP3    H232528   1.008   4.900   1.546
 3657TIP3   OH232529   5.371   4.651   8.437
 3657TIP3    H132530   5.454   4.603   8.427
 3657TIP3    H232531   5.321   4.599   8.500
 3658TIP3   OH232532   0.904   3.973   1.345
 3658TIP3    H132533   0.824   4.005   1.388
 3658TIP3    H232534   0.929   4.044   1.286
 3659TIP3   OH232535   1.704   3.944   0.581
 3659TIP3    H132536   1.773   4.002   0.612
 3659TIP3    H232537   1.635   4.002   0.550
 3660TIP3   OH232538   3.831   4.514   0.440
 3660TIP3    H132539   3.788   4.438   0.401
 3660TIP3    H232540   3.850   4.572   0.366
 3661TIP3   OH232541   3.909   4.697   8.348
 3661TIP3    H132542   3.858   4.742   8.281
 3661TIP3    H232543   3.967   4.638   8.300
 3662TIP3   OH232544   6.142   5.888   8.459
 3662TIP3    H132545   6.067   5.828   8.464
 3662TIP3    H232546   6.193   5.855   8.385
 3663TIP3   OH232547   0.461   6.631   6.729
 3663TIP3    H132548   0.480   6.586   6.646
 3663TIP3    H232549   0.377   6.595   6.756
 3664TIP3   OH232550   4.240   0.038   8.447
 3664TIP3    H132551   4.166   6.902   8.485
 3664TIP3    H232552   4.287   6.886   8.395
 3665TIP3   OH232553   3.881   4.434   7.554
 3665TIP3    H132554   3.837   4.349   7.549
 3665TIP3    H232555   3.903   4.444   7.647
 3666TIP3   OH232556   0.023   1.982   7.589
 3666TIP3    H132557   0.016   1.934   7.672
 3666TIP3    H232558   0.094   1.939   7.542
 3667TIP3   OH232559   2.848   4.417   6.706
 3667TIP3    H132560   2.844   4.391   6.614
 3667TIP3    H232561   2.925   4.371   6.740
 3668TIP3   OH232562   3.651   5.433   1.645
 3668TIP3    H132563   3.705   5.512   1.640
 3668TIP3    H232564   3.610   5.426   1.559
 3669TIP3   OH232565   3.767   4.883   1.442
 3669TIP3    H132566   3.761   4.815   1.510
 3669TIP3    H232567   3.677   4.892   1.409
 3670TIP3   OH232568   0.780   0.280   0.377
 3670TIP3    H132569   0.773   0.339   0.302
 3670TIP3    H232570   0.832   0.328   0.441
 3671TIP3   OH232571   3.864   2.443   1.555
 3671TIP3    H132572   3.828   2.414   1.471
 3671TIP3    H232573   3.885   2.362   1.601
 3672TIP3   OH232574   5.098   6.694   8.204
 3672TIP3    H132575   5.163   6.655   8.145
 3672TIP3    H232576   5.017   6.647   8.184
 3673TIP3   OH232577   6.346   2.594   7.345
 3673TIP3    H132578   6.400   2.520   7.373
 3673TIP3    H232579   6.299   2.620   7.424
 3674TIP3   OH232580   3.008   0.384   0.470
 3674TIP3    H132581   3.050   0.463   0.436
 3674TIP3    H232582   2.928   0.375   0.417
 3675TIP3   OH232583   0.889   3.835   0.858
 3675TIP3    H132584   0.834   3.824   0.935
 3675TIP3    H232585   0.868   3.760   0.803
 3676TIP3   OH232586   5.149   2.895   0.593
 3676TIP3    H132587   5.134   2.896   0.498
 3676TIP3    H232588   5.110   2.977   0.624
 3677TIP3   OH232589   6.820   0.722   6.955
 3677TIP3    H132590   6.883   0.651   6.940
 3677TIP3    H232591   6.736   0.677   6.969
 3678TIP3   OH232592   4.065   1.587   7.326
 3678TIP3    H132593   4.154   1.578   7.293
 3678TIP3    H232594   4.066   1.539   7.409
 3679TIP3   OH232595   1.044   4.806   8.101
 3679TIP3    H132596   0.968   4.748   8.100
 3679TIP3    H232597   1.114   4.754   8.061
 3680TIP3   OH232598   0.346   1.836   2.173
 3680TIP3    H132599   0.320   1.928   2.166
 3680TIP3    H232600   0.278   1.788   2.126
 3681TIP3   OH232601   2.644   3.974   8.114
 3681TIP3    H132602   2.653   3.889   8.071
 3681TIP3    H232603   2.718   3.979   8.173
 3682TIP3   OH232604   6.059   0.889   1.254
 3682TIP3    H132605   6.098   0.956   1.310
 3682TIP3    H232606   6.132   0.832   1.230
 3683TIP3   OH232607   6.157   6.517   0.148
 3683TIP3    H132608   6.173   6.570   0.227
 3683TIP3    H232609   6.244   6.489   0.121
 3684TIP3   OH232610   5.463   4.044   1.348
 3684TIP3    H132611   5.371   4.069   1.353
 3684TIP3    H232612   5.511   4.124   1.368
 3685TIP3   OH232613   5.418   6.325   7.174
 3685TIP3    H132614   5.382   6.286   7.095
 3685TIP3    H232615   5.343   6.371   7.214
 3686TIP3   OH232616   4.052   4.914   0.801
 3686TIP3    H132617   4.058   4.935   0.708
 3686TIP3    H232618   3.968   4.951   0.828
 3687TIP3   OH232619   1.812   3.791   1.786
 3687TIP3    H132620   1.799   3.868   1.842
 3687TIP3    H232621   1.815   3.717   1.846
 3688TIP3   OH232622   1.424   0.262   2.049
 3688TIP3    H132623   1.425   0.323   2.123
 3688TIP3    H232624   1.479   0.189   2.078
 3689TIP3   OH232625   1.131   3.682   8.235
 3689TIP3    H132626   1.113   3.684   8.141
 3689TIP3    H232627   1.045   3.692   8.276
 3690TIP3   OH232628   3.690   2.320   1.854
 3690TIP3    H132629   3.758   2.278   1.907
 3690TIP3    H232630   3.609   2.276   1.881
 3691TIP3   OH232631   2.669   2.091   1.862
 3691TIP3    H132632   2.582   2.080   1.900
 3691TIP3    H232633   2.669   2.179   1.824
 3692TIP3   OH232634   4.976   5.270   6.335
 3692TIP3    H132635   5.066   5.251   6.308
 3692TIP3    H232636   4.977   5.363   6.358
 3693TIP3   OH232637   6.527   3.065   1.498
 3693TIP3    H132638   6.565   3.005   1.562
 3693TIP3    H232639   6.433   3.062   1.516
 3694TIP3   OH232640   0.271   0.705   7.870
 3694TIP3    H132641   0.244   0.620   7.903
 3694TIP3    H232642   0.194   0.761   7.881
 3695TIP3   OH232643   3.820   2.276   0.977
 3695TIP3    H132644   3.865   2.276   0.893
 3695TIP3    H232645   3.847   2.357   1.019
 3696TIP3   OH232646   6.615   4.765   6.231
 3696TIP3    H132647   6.653   4.787   6.316
 3696TIP3    H232648   6.541   4.824   6.221
 3697TIP3   OH232649   3.444   0.059   1.038
 3697TIP3    H132650   3.424   6.900   1.098
 3697TIP3    H232651   3.379   0.050   0.968
 3698TIP3   OH232652   6.530   4.009   1.385
 3698TIP3    H132653   6.514   3.976   1.297
 3698TIP3    H232654   6.614   4.054   1.379
 3699TIP3   OH232655   2.424   3.395   6.751
 3699TIP3    H132656   2.448   3.486   6.733
 3699TIP3    H232657   2.439   3.350   6.667
 3700TIP3   OH232658   0.506   5.021   0.014
 3700TIP3    H132659   0.539   5.103   8.582
 3700TIP3    H232660   0.413   5.021   8.593
 3701TIP3   OH232661   0.687   1.111   0.276
 3701TIP3    H132662   0.617   1.079   0.334
 3701TIP3    H232663   0.643   1.124   0.192
 3702TIP3   OH232664   0.669   2.534   0.041
 3702TIP3    H132665   0.690   2.449   0.079
 3702TIP3    H232666   0.584   2.520   8.602
 3703TIP3   OH232667   2.708   4.100   0.878
 3703TIP3    H132668   2.711   4.195   0.875
 3703TIP3    H232669   2.713   4.078   0.971
 3704TIP3   OH232670   2.561   4.006   7.198
 3704TIP3    H132671   2.541   4.086   7.246
 3704TIP3    H232672   2.636   3.968   7.245
 3705TIP3   OH232673   6.670   1.431   1.282
 3705TIP3    H132674   6.737   1.498   1.265
 3705TIP3    H232675   6.664   1.427   1.377
 3706TIP3   OH232676   4.957   1.011   8.214
 3706TIP3    H132677   4.951   1.104   8.238
 3706TIP3    H232678   4.871   0.990   8.177
 3707TIP3   OH232679   4.619   6.908   2.218
 3707TIP3    H132680   4.598   6.861   2.299
 3707TIP3    H232681   4.711   6.889   2.201
 3708TIP3   OH232682   2.131   0.237   0.072
 3708TIP3    H132683   2.123   0.265   0.163
 3708TIP3    H232684   2.131   0.142   0.076
 3709TIP3   OH232685   4.961   2.182   1.546
 3709TIP3    H132686   5.015   2.261   1.555
 3709TIP3    H232687   4.886   2.198   1.604
 3710TIP3   OH232688   1.935   2.927   1.193
 3710TIP3    H132689   1.975   2.845   1.164
 3710TIP3    H232690   1.880   2.954   1.120
 3711TIP3   OH232691   1.417   1.198   0.756
 3711TIP3    H132692   1.383   1.209   0.667
 3711TIP3    H232693   1.339   1.177   0.809
 3712TIP3   OH232694   2.587   5.090   8.350
 3712TIP3    H132695   2.549   5.150   8.285
 3712TIP3    H232696   2.677   5.119   8.359
 3713TIP3   OH232697   5.149   3.314   0.455
 3713TIP3    H132698   5.187   3.381   0.511
 3713TIP3    H232699   5.109   3.251   0.515
 3714TIP3   OH232700   5.625   4.797   7.195
 3714TIP3    H132701   5.547   4.833   7.153
 3714TIP3    H232702   5.595   4.715   7.235
 3715TIP3   OH232703   4.922   2.430   6.973
 3715TIP3    H132704   4.948   2.520   6.991
 3715TIP3    H232705   4.919   2.424   6.877
 3716TIP3   OH232706   1.090   2.631   8.412
 3716TIP3    H132707   1.051   2.688   8.346
 3716TIP3    H232708   1.016   2.599   8.463
 3717TIP3   OH232709   0.598   3.940   0.512
 3717TIP3    H132710   0.591   3.848   0.487
 3717TIP3    H232711   0.509   3.975   0.500
 3718TIP3   OH232712   3.433   2.779   6.616
 3718TIP3    H132713   3.420   2.848   6.551
 3718TIP3    H232714   3.370   2.711   6.592
 3719TIP3   OH232715   1.026   2.639   8.101
 3719TIP3    H132716   0.975   2.695   8.043
 3719TIP3    H232717   0.970   2.562   8.115
 3720TIP3   OH232718   6.179   1.841   8.266
 3720TIP3    H132719   6.218   1.925   8.241
 3720TIP3    H232720   6.114   1.824   8.197
 3721TIP3   OH232721   3.054   1.048   0.626
 3721TIP3    H132722   3.131   1.021   0.675
 3721TIP3    H232723   2.990   1.071   0.694
 3722TIP3   OH232724   5.765   3.172   0.657
 3722TIP3    H132725   5.744   3.108   0.589
 3722TIP3    H232726   5.789   3.252   0.608
 3723TIP3   OH232727   4.639   6.535   8.344
 3723TIP3    H132728   4.727   6.514   8.376
 3723TIP3    H232729   4.654   6.590   8.268
 3724TIP3   OH232730   3.878   2.567   7.087
 3724TIP3    H132731   3.959   2.586   7.135
 3724TIP3    H232732   3.817   2.534   7.153
 3725TIP3   OH232733   4.125   1.836   7.636
 3725TIP3    H132734   4.109   1.744   7.655
 3725TIP3    H232735   4.166   1.871   7.715
 3726TIP3   OH232736   2.205   5.199   7.852
 3726TIP3    H132737   2.172   5.287   7.834
 3726TIP3    H232738   2.127   5.144   7.856
 3727TIP3   OH232739   0.200   3.187   7.769
 3727TIP3    H132740   0.140   3.119   7.740
 3727TIP3    H232741   0.162   3.219   7.851
 3728TIP3   OH232742   2.430   6.411   0.615
 3728TIP3    H132743   2.504   6.417   0.555
 3728TIP3    H232744   2.358   6.377   0.561
 3729TIP3   OH232745   4.488   0.786   8.357
 3729TIP3    H132746   4.510   0.693   8.358
 3729TIP3    H232747   4.538   0.824   8.429
 3730TIP3   OH232748   1.775   0.920   7.101
 3730TIP3    H132749   1.752   1.012   7.116
 3730TIP3    H232750   1.692   0.879   7.074
 3731TIP3   OH232751   3.420   4.635   7.397
 3731TIP3    H132752   3.488   4.619   7.332
 3731TIP3    H232753   3.381   4.718   7.371
 3732TIP3   OH232754   2.315   1.171   8.205
 3732TIP3    H132755   2.292   1.179   8.112
 3732TIP3    H232756   2.317   1.261   8.237
 3733TIP3   OH232757   6.598   2.445   1.275
 3733TIP3    H132758   6.639   2.517   1.227
 3733TIP3    H232759   6.661   2.373   1.268
 3734TIP3   OH232760   2.253   1.416   7.763
 3734TIP3    H132761   2.267   1.493   7.818
 3734TIP3    H232762   2.340   1.381   7.747
 3735TIP3   OH232763   5.118   0.526   0.607
 3735TIP3    H132764   5.212   0.530   0.586
 3735TIP3    H232765   5.097   0.614   0.638
 3736TIP3   OH232766   1.123   4.862   6.470
 3736TIP3    H132767   1.121   4.935   6.530
 3736TIP3    H232768   1.034   4.859   6.433
 3737TIP3   OH232769   6.397   6.263   1.969
 3737TIP3    H132770   6.413   6.357   1.961
 3737TIP3    H232771   6.479   6.227   2.002
 3738TIP3   OH232772   5.524   5.608   0.838
 3738TIP3    H132773   5.527   5.702   0.821
 3738TIP3    H232774   5.443   5.595   0.887
 3739TIP3   OH232775   0.526   6.215   7.791
 3739TIP3    H132776   0.473   6.170   7.857
 3739TIP3    H232777   0.570   6.145   7.744
 3740TIP3   OH232778   2.196   5.912   0.560
 3740TIP3    H132779   2.278   5.944   0.522
 3740TIP3    H232780   2.153   5.991   0.592
 3741TIP3   OH232781   4.123   2.253   7.150
 3741TIP3    H132782   4.052   2.276   7.209
 3741TIP3    H232783   4.106   2.162   7.125
 3742TIP3   OH232784   5.853   4.150   0.319
 3742TIP3    H132785   5.783   4.190   0.370
 3742TIP3    H232786   5.906   4.224   0.289
 3743TIP3   OH232787   5.818   6.125   7.423
 3743TIP3    H132788   5.783   6.089   7.341
 3743TIP3    H232789   5.909   6.147   7.402
 3744TIP3   OH232790   6.829   2.914   7.432
 3744TIP3    H132791   6.813   2.919   7.338
 3744TIP3    H232792   6.854   2.823   7.447
 3745TIP3   OH232793   5.497   5.045   0.764
 3745TIP3    H132794   5.519   5.073   0.675
 3745TIP3    H232795   5.512   4.950   0.764
 3746TIP3   OH232796   4.190   4.022   1.799
 3746TIP3    H132797   4.171   4.102   1.848
 3746TIP3    H232798   4.183   4.047   1.707
 3747TIP3   OH232799   3.453   0.771   7.574
 3747TIP3    H132800   3.451   0.680   7.543
 3747TIP3    H232801   3.536   0.805   7.542
 3748TIP3   OH232802   0.451   6.176   1.264
 3748TIP3    H132803   0.374   6.222   1.230
 3748TIP3    H232804   0.519   6.192   1.199
 3749TIP3   OH232805   6.499   5.072   6.887
 3749TIP3    H132806   6.533   5.000   6.940
 3749TIP3    H232807   6.485   5.034   6.801
 3750TIP3   OH232808   3.061   2.546   1.427
 3750TIP3    H132809   3.061   2.488   1.352
 3750TIP3    H232810   2.975   2.588   1.425
 3751TIP3   OH232811   4.457   0.535   7.169
 3751TIP3    H132812   4.429   0.626   7.175
 3751TIP3    H232813   4.378   0.485   7.193
 3752TIP3   OH232814   2.050   0.626   0.938
 3752TIP3    H132815   2.057   0.706   0.886
 3752TIP3    H232816   1.969   0.638   0.989
 3753TIP3   OH232817   4.545   6.188   8.542
 3753TIP3    H132818   4.617   6.250   8.557
 3753TIP3    H232819   4.489   6.198   0.016
 3754TIP3   OH232820   6.305   0.199   1.694
 3754TIP3    H132821   6.325   0.189   1.786
 3754TIP3    H232822   6.380   0.246   1.657
 3755TIP3   OH232823   0.433   2.673   0.427
 3755TIP3    H132824   0.384   2.746   0.389
 3755TIP3    H232825   0.524   2.702   0.426
 3756TIP3   OH232826   6.572   0.375   0.378
 3756TIP3    H132827   6.648   0.319   0.360
 3756TIP3    H232828   6.610   0.452   0.421
 3757TIP3   OH232829   2.833   1.159   0.087
 3757TIP3    H132830   2.834   1.255   0.096
 3757TIP3    H232831   2.820   1.127   0.176
 3758TIP3   OH232832   3.292   6.624   7.675
 3758TIP3    H132833   3.336   6.709   7.680
 3758TIP3    H232834   3.313   6.581   7.758
 3759TIP3   OH232835   5.312   6.210   1.111
 3759TIP3    H132836   5.396   6.251   1.092
 3759TIP3    H232837   5.266   6.273   1.167
 3760TIP3   OH232838   1.142   5.223   0.864
 3760TIP3    H132839   1.086   5.148   0.881
 3760TIP3    H232840   1.231   5.191   0.881
 3761TIP3   OH232841   5.104   4.236   6.554
 3761TIP3    H132842   5.161   4.312   6.568
 3761TIP3    H232843   5.164   4.166   6.529
 3762TIP3   OH232844   6.224   2.455   1.673
 3762TIP3    H132845   6.155   2.503   1.626
 3762TIP3    H232846   6.222   2.367   1.635
 3763TIP3   OH232847   0.948   0.906   8.516
 3763TIP3    H132848   0.939   0.867   8.428
 3763TIP3    H232849   0.965   0.831   8.573
 3764TIP3   OH232850   2.744   1.708   6.497
 3764TIP3    H132851   2.771   1.653   6.424
 3764TIP3    H232852   2.803   1.783   6.494
 3765TIP3   OH232853   3.219   0.153   2.252
 3765TIP3    H132854   3.302   0.171   2.207
 3765TIP3    H232855   3.170   0.235   2.246
 3766TIP3   OH232856   1.242   6.494   7.532
 3766TIP3    H132857   1.287   6.562   7.482
 3766TIP3    H232858   1.152   6.524   7.538
 3767TIP3   OH232859   5.939   1.643   6.817
 3767TIP3    H132860   5.869   1.595   6.772
 3767TIP3    H232861   5.964   1.712   6.755
 3768TIP3   OH232862   2.954   0.860   0.934
 3768TIP3    H132863   3.001   0.820   0.861
 3768TIP3    H232864   2.865   0.824   0.929
 3769TIP3   OH232865   1.000   2.160   6.649
 3769TIP3    H132866   0.936   2.230   6.640
 3769TIP3    H232867   1.085   2.203   6.638
 3770TIP3   OH232868   1.504   1.721   7.752
 3770TIP3    H132869   1.476   1.631   7.736
 3770TIP3    H232870   1.453   1.773   7.692
 3771TIP3   OH232871   1.639   6.562   1.494
 3771TIP3    H132872   1.640   6.482   1.442
 3771TIP3    H232873   1.723   6.562   1.540
 3772TIP3   OH232874   4.703   5.622   7.766
 3772TIP3    H132875   4.701   5.703   7.817
 3772TIP3    H232876   4.750   5.560   7.821
 3773TIP3   OH232877   5.474   6.193   8.425
 3773TIP3    H132878   5.503   6.277   8.389
 3773TIP3    H232879   5.413   6.159   8.360
 3774TIP3   OH232880   3.026   3.707   1.486
 3774TIP3    H132881   3.117   3.682   1.506
 3774TIP3    H232882   3.025   3.722   1.392
 3775TIP3   OH232883   1.587   3.052   7.904
 3775TIP3    H132884   1.508   3.083   7.860
 3775TIP3    H232885   1.577   3.081   7.995
 3776TIP3   OH232886   1.412   2.324   1.102
 3776TIP3    H132887   1.384   2.233   1.087
 3776TIP3    H232888   1.478   2.340   1.034
 3777TIP3   OH232889   5.905   0.752   2.322
 3777TIP3    H132890   5.816   0.754   2.355
 3777TIP3    H232891   5.906   0.680   2.259
 3778TIP3   OH232892   4.559   3.401   0.520
 3778TIP3    H132893   4.651   3.419   0.544
 3778TIP3    H232894   4.555   3.307   0.507
 3779TIP3   OH232895   3.964   0.912   0.667
 3779TIP3    H132896   4.009   0.832   0.691
 3779TIP3    H232897   3.876   0.903   0.706
 3780TIP3   OH232898   6.177   6.064   7.033
 3780TIP3    H132899   6.171   5.970   7.013
 3780TIP3    H232900   6.087   6.096   7.028
 3781TIP3   OH232901   1.938   0.392   6.672
 3781TIP3    H132902   1.851   0.428   6.692
 3781TIP3    H232903   1.934   0.369   6.580
 3782TIP3   OH232904   0.543   0.033   1.530
 3782TIP3    H132905   0.514   6.888   1.601
 3782TIP3    H232906   0.467   0.042   1.473
 3783TIP3   OH232907   3.849   0.530   8.243
 3783TIP3    H132908   3.791   0.487   8.180
 3783TIP3    H232909   3.857   0.620   8.212
 3784TIP3   OH232910   2.476   1.913   6.747
 3784TIP3    H132911   2.437   1.902   6.660
 3784TIP3    H232912   2.407   1.887   6.808
 3785TIP3   OH232913   1.766   1.584   8.430
 3785TIP3    H132914   1.709   1.624   8.495
 3785TIP3    H232915   1.718   1.590   8.348
 3786TIP3   OH232916   3.065   6.525   1.487
 3786TIP3    H132917   3.014   6.462   1.539
 3786TIP3    H232918   3.150   6.529   1.531
 3787TIP3   OH232919   5.608   6.174   2.500
 3787TIP3    H132920   5.516   6.200   2.495
 3787TIP3    H232921   5.613   6.096   2.445
 3788TIP3   OH232922   5.330   1.481   1.429
 3788TIP3    H132923   5.400   1.441   1.480
 3788TIP3    H232924   5.363   1.485   1.340
 3789TIP3   OH232925   6.308   4.668   0.360
 3789TIP3    H132926   6.314   4.627   0.447
 3789TIP3    H232927   6.276   4.756   0.378
 3790TIP3   OH232928   4.825   4.908   8.114
 3790TIP3    H132929   4.813   4.930   8.206
 3790TIP3    H232930   4.865   4.821   8.116
 3791TIP3   OH232931   6.628   2.325   8.582
 3791TIP3    H132932   6.591   2.311   0.066
 3791TIP3    H232933   6.719   2.297   8.590
 3792TIP3   OH232934   0.898   2.770   1.535
 3792TIP3    H132935   0.984   2.746   1.500
 3792TIP3    H232936   0.846   2.689   1.528
 3793TIP3   OH232937   1.013   1.231   6.810
 3793TIP3    H132938   0.993   1.318   6.775
 3793TIP3    H232939   1.074   1.192   6.748
 3794TIP3   OH232940   6.875   1.526   7.113
 3794TIP3    H132941   0.007   1.524   7.029
 3794TIP3    H232942   0.014   1.469   7.169
 3795TIP3   OH232943   5.798   3.418   7.411
 3795TIP3    H132944   5.764   3.341   7.365
 3795TIP3    H232945   5.893   3.410   7.403
 3796TIP3   OH232946   5.045   4.025   1.811
 3796TIP3    H132947   5.039   3.944   1.760
 3796TIP3    H232948   5.108   4.005   1.880
 3797TIP3   OH232949   6.617   3.190   7.064
 3797TIP3    H132950   6.661   3.265   7.103
 3797TIP3    H232951   6.633   3.200   6.970
 3798TIP3   OH232952   3.338   0.205   7.500
 3798TIP3    H132953   3.256   0.158   7.484
 3798TIP3    H232954   3.377   0.216   7.413
 3799TIP3   OH232955   6.725   4.596   1.050
 3799TIP3    H132956   6.817   4.603   1.075
 3799TIP3    H232957   6.696   4.513   1.090
 3800TIP3   OH232958   4.220   5.368   1.163
 3800TIP3    H132959   4.141   5.316   1.179
 3800TIP3    H232960   4.263   5.375   1.248
 3801TIP3   OH232961   0.597   3.990   7.087
 3801TIP3    H132962   0.606   4.069   7.033
 3801TIP3    H232963   0.576   3.921   7.025
 3802TIP3   OH232964   3.134   1.513   1.675
 3802TIP3    H132965   3.045   1.519   1.640
 3802TIP3    H232966   3.169   1.602   1.667
 3803TIP3   OH232967   0.001   4.719   2.112
 3803TIP3    H132968   0.059   4.681   2.047
 3803TIP3    H232969   6.849   4.650   2.130
 3804TIP3   OH232970   3.312   1.925   6.832
 3804TIP3    H132971   3.317   1.931   6.737
 3804TIP3    H232972   3.404   1.923   6.861
 3805TIP3   OH232973   4.913   6.016   7.993
 3805TIP3    H132974   4.870   5.937   7.962
 3805TIP3    H232975   5.007   5.999   7.980
 3806TIP3   OH232976   5.651   2.995   0.989
 3806TIP3    H132977   5.585   3.062   0.972
 3806TIP3    H232978   5.654   2.943   0.909
 3807TIP3   OH232979   2.466   0.995   0.005
 3807TIP3    H132980   2.430   0.952   8.531
 3807TIP3    H232981   2.501   1.078   8.576
 3808TIP3   OH232982   6.523   4.176   6.437
 3808TIP3    H132983   6.446   4.149   6.388
 3808TIP3    H232984   6.575   4.228   6.375
 3809TIP3   OH232985   2.183   3.294   7.538
 3809TIP3    H132986   2.202   3.343   7.618
 3809TIP3    H232987   2.262   3.303   7.485
 3810TIP3   OH232988   5.279   3.484   8.113
 3810TIP3    H132989   5.279   3.397   8.154
 3810TIP3    H232990   5.189   3.496   8.083
 3811TIP3   OH232991   4.060   5.110   6.992
 3811TIP3    H132992   4.112   5.046   6.943
 3811TIP3    H232993   4.124   5.153   7.049
 3812TIP3   OH232994   6.679   1.032   0.142
 3812TIP3    H132995   6.742   0.993   0.202
 3812TIP3    H232996   6.701   0.995   0.056
 3813TIP3   OH232997   2.328   4.900   8.063
 3813TIP3    H132998   2.301   4.949   8.141
 3813TIP3    H232999   2.275   4.937   7.992
 3814TIP3   OH233000   5.566   0.201   7.321
 3814TIP3    H133001   5.539   0.266   7.257
 3814TIP3    H233002   5.524   0.120   7.293
 3815TIP3   OH233003   2.910   4.312   1.116
 3815TIP3    H133004   2.953   4.240   1.163
 3815TIP3    H233005   2.817   4.288   1.117
 3816TIP3   OH233006   3.382   3.910   1.459
 3816TIP3    H133007   3.453   3.967   1.427
 3816TIP3    H233008   3.389   3.915   1.554
 3817TIP3   OH233009   6.369   5.011   1.263
 3817TIP3    H133010   6.407   5.048   1.343
 3817TIP3    H233011   6.314   5.081   1.228
 3818TIP3   OH233012   0.680   1.776   8.140
 3818TIP3    H133013   0.716   1.737   8.220
 3818TIP3    H233014   0.661   1.702   8.083
 3819TIP3   OH233015   5.225   0.832   1.238
 3819TIP3    H133016   5.281   0.761   1.207
 3819TIP3    H233017   5.176   0.861   1.161
 3820TIP3   OH233018   3.223   2.354   1.196
 3820TIP3    H133019   3.219   2.266   1.234
 3820TIP3    H233020   3.210   2.340   1.102
 3821TIP3   OH233021   4.896   2.175   7.293
 3821TIP3    H133022   4.816   2.185   7.345
 3821TIP3    H233023   4.962   2.144   7.356
 3822TIP3   OH233024   3.787   4.397   1.792
 3822TIP3    H133025   3.740   4.454   1.853
 3822TIP3    H233026   3.766   4.308   1.819
 3823TIP3   OH233027   1.825   2.336   1.436
 3823TIP3    H133028   1.904   2.291   1.466
 3823TIP3    H233029   1.774   2.350   1.515
 3824TIP3   OH233030   1.795   2.061   7.172
 3824TIP3    H133031   1.863   2.088   7.234
 3824TIP3    H233032   1.759   2.144   7.140
 3825TIP3   OH233033   0.175   0.396   2.127
 3825TIP3    H133034   0.124   0.385   2.207
 3825TIP3    H233035   0.239   0.326   2.130
 3826TIP3   OH233036   2.145   0.557   1.723
 3826TIP3    H133037   2.180   0.584   1.807
 3826TIP3    H233038   2.077   0.494   1.744
 3827TIP3   OH233039   4.068   0.258   1.616
 3827TIP3    H133040   4.108   0.269   1.529
 3827TIP3    H233041   4.137   0.282   1.677
 3828TIP3   OH233042   2.697   0.970   0.873
 3828TIP3    H133043   2.777   1.011   0.905
 3828TIP3    H233044   2.687   0.891   0.926
 3829TIP3   OH233045   6.043   5.590   6.854
 3829TIP3    H133046   6.053   5.503   6.894
 3829TIP3    H233047   5.964   5.583   6.801
 3830TIP3   OH233048   6.274   5.062   2.795
 3830TIP3    H133049   6.267   5.156   2.807
 3830TIP3    H233050   6.239   5.046   2.707
 3831TIP3   OH233051   0.326   2.907   6.558
 3831TIP3    H133052   0.329   2.950   6.644
 3831TIP3    H233053   0.310   2.978   6.496
 3832TIP3   OH233054   1.351   2.557   6.443
 3832TIP3    H133055   1.393   2.497   6.380
 3832TIP3    H233056   1.388   2.642   6.422
 3833TIP3   OH233057   4.888   4.278   8.168
 3833TIP3    H133058   4.861   4.366   8.192
 3833TIP3    H233059   4.835   4.221   8.224
 3834TIP3   OH233060   5.670   6.440   2.296
 3834TIP3    H133061   5.674   6.504   2.367
 3834TIP3    H233062   5.619   6.368   2.332
 3835TIP3   OH233063   2.564   2.594   1.781
 3835TIP3    H133064   2.472   2.616   1.792
 3835TIP3    H233065   2.610   2.678   1.786
 3836TIP3   OH233066   5.565   2.296   7.282
 3836TIP3    H133067   5.610   2.349   7.216
 3836TIP3    H233068   5.596   2.331   7.366
 3837TIP3   OH233069   2.605   5.517   7.287
 3837TIP3    H133070   2.580   5.434   7.246
 3837TIP3    H233071   2.663   5.559   7.224
 3838TIP3   OH233072   3.410   2.122   1.031
 3838TIP3    H133073   3.402   2.029   1.054
 3838TIP3    H233074   3.320   2.149   1.010
 3839TIP3   OH233075   5.432   2.357   7.781
 3839TIP3    H133076   5.491   2.423   7.817
 3839TIP3    H233077   5.356   2.407   7.751
 3840TIP3   OH233078   4.904   4.792   1.177
 3840TIP3    H133079   4.972   4.849   1.140
 3840TIP3    H233080   4.857   4.758   1.100
 3841TIP3   OH233081   4.431   2.117   1.225
 3841TIP3    H133082   4.517   2.111   1.267
 3841TIP3    H233083   4.369   2.091   1.293
 3842TIP3   OH233084   5.040   0.282   1.879
 3842TIP3    H133085   5.090   0.201   1.888
 3842TIP3    H233086   4.997   0.274   1.794
 3843TIP3   OH233087   6.840   1.650   1.263
 3843TIP3    H133088   6.809   1.659   1.353
 3843TIP3    H233089   6.894   1.727   1.248
 3844TIP3   OH233090   2.303   4.665   6.623
 3844TIP3    H133091   2.245   4.716   6.566
 3844TIP3    H233092   2.380   4.647   6.569
 3845TIP3   OH233093   4.969   2.809   1.507
 3845TIP3    H133094   5.015   2.794   1.590
 3845TIP3    H233095   4.893   2.862   1.531
 3846TIP3   OH233096   1.719   5.845   7.066
 3846TIP3    H133097   1.745   5.901   7.139
 3846TIP3    H233098   1.795   5.845   7.008
 3847TIP3   OH233099   5.171   4.711   0.607
 3847TIP3    H133100   5.234   4.730   0.677
 3847TIP3    H233101   5.193   4.772   0.537
 3848TIP3   OH233102   1.586   1.357   0.458
 3848TIP3    H133103   1.564   1.405   0.539
 3848TIP3    H233104   1.648   1.414   0.413
 3849TIP3   OH233105   6.362   1.578   8.126
 3849TIP3    H133106   6.268   1.560   8.127
 3849TIP3    H233107   6.394   1.542   8.209
 3850TIP3   OH233108   4.849   4.530   0.657
 3850TIP3    H133109   4.879   4.615   0.626
 3850TIP3    H233110   4.876   4.468   0.590
 3851TIP3   OH233111   6.351   0.904   6.877
 3851TIP3    H133112   6.294   0.980   6.861
 3851TIP3    H233113   6.390   0.885   6.792
 3852TIP3   OH233114   0.694   4.428   7.520
 3852TIP3    H133115   0.776   4.471   7.495
 3852TIP3    H233116   0.684   4.449   7.613
 3853TIP3   OH233117   5.110   6.279   2.570
 3853TIP3    H133118   5.091   6.302   2.479
 3853TIP3    H233119   5.205   6.282   2.576
 3854TIP3   OH233120   6.827   3.204   1.748
 3854TIP3    H133121   6.881   3.268   1.796
 3854TIP3    H233122   6.752   3.255   1.717
 3855TIP3   OH233123   5.797   1.923   8.579
 3855TIP3    H133124   5.877   1.963   0.010
 3855TIP3    H233125   5.810   1.920   8.485
 3856TIP3   OH233126   5.320   0.806   8.496
 3856TIP3    H133127   5.248   0.829   8.438
 3856TIP3    H233128   5.384   0.763   8.439
 3857TIP3   OH233129   5.231   2.591   8.075
 3857TIP3    H133130   5.145   2.632   8.069
 3857TIP3    H233131   5.293   2.663   8.059
 3858TIP3   OH233132   2.473   3.151   7.767
 3858TIP3    H133133   2.457   3.109   7.851
 3858TIP3    H233134   2.545   3.213   7.784
 3859TIP3   OH233135   3.050   2.303   2.306
 3859TIP3    H133136   3.109   2.370   2.272
 3859TIP3    H233137   3.097   2.265   2.380
 3860TIP3   OH233138   4.216   0.169   7.885
 3860TIP3    H133139   4.128   0.148   7.854
 3860TIP3    H233140   4.274   0.127   7.822
 3861TIP3   OH233141   0.571   4.610   0.438
 3861TIP3    H133142   0.513   4.541   0.408
 3861TIP3    H233143   0.618   4.639   0.359
 3862TIP3   OH233144   6.431   0.133   1.935
 3862TIP3    H133145   6.499   0.199   1.944
 3862TIP3    H233146   6.380   0.140   2.016
 3863TIP3   OH233147   2.645   1.809   0.866
 3863TIP3    H133148   2.614   1.883   0.813
 3863TIP3    H233149   2.565   1.763   0.891
 3864TIP3   OH233150   4.455   6.749   0.829
 3864TIP3    H133151   4.541   6.765   0.869
 3864TIP3    H233152   4.456   6.801   0.749
 3865TIP3   OH233153   4.010   3.901   0.974
 3865TIP3    H133154   3.928   3.854   0.987
 3865TIP3    H233155   4.020   3.955   1.052
 3866TIP3   OH233156   2.497   5.672   6.572
 3866TIP3    H133157   2.480   5.599   6.631
 3866TIP3    H233158   2.566   5.641   6.514
 3867TIP3   OH233159   4.009   3.505   8.010
 3867TIP3    H133160   3.975   3.415   8.005
 3867TIP3    H233161   4.099   3.495   8.039
 3868TIP3   OH233162   5.481   2.008   0.773
 3868TIP3    H133163   5.572   1.990   0.750
 3868TIP3    H233164   5.483   2.097   0.809
 3869TIP3   OH233165   4.500   5.195   6.813
 3869TIP3    H133166   4.556   5.231   6.883
 3869TIP3    H233167   4.435   5.143   6.860
 3870TIP3   OH233168   5.927   1.660   1.157
 3870TIP3    H133169   5.989   1.696   1.221
 3870TIP3    H233170   5.975   1.590   1.114
 3871TIP3   OH233171   2.186   3.510   0.772
 3871TIP3    H133172   2.258   3.554   0.727
 3871TIP3    H233173   2.185   3.421   0.736
 3872TIP3   OH233174   5.252   0.496   7.604
 3872TIP3    H133175   5.305   0.575   7.617
 3872TIP3    H233176   5.173   0.511   7.656
 3873TIP3   OH233177   2.204   0.774   8.216
 3873TIP3    H133178   2.141   0.704   8.198
 3873TIP3    H233179   2.206   0.826   8.136
 3874TIP3   OH233180   6.743   4.488   0.136
 3874TIP3    H133181   6.684   4.430   0.088
 3874TIP3    H233182   6.784   4.542   0.068
 3875TIP3   OH233183   5.874   5.856   0.569
 3875TIP3    H133184   5.848   5.929   0.625
 3875TIP3    H233185   5.889   5.783   0.630
 3876TIP3   OH233186   5.652   5.979   1.443
 3876TIP3    H133187   5.741   5.957   1.470
 3876TIP3    H233188   5.618   5.898   1.403
 3877TIP3   OH233189   3.856   2.961   0.511
 3877TIP3    H133190   3.949   2.983   0.509
 3877TIP3    H233191   3.853   2.866   0.520
 3878TIP3   OH233192   4.490   2.436   8.465
 3878TIP3    H133193   4.547   2.417   8.391
 3878TIP3    H233194   4.521   2.520   8.499
 3879TIP3   OH233195   0.215   5.672   1.904
 3879TIP3    H133196   0.223   5.757   1.947
 3879TIP3    H233197   0.181   5.614   1.972
 3880TIP3   OH233198   2.355   3.760   1.153
 3880TIP3    H133199   2.288   3.773   1.220
 3880TIP3    H233200   2.308   3.759   1.070
 3881TIP3   OH233201   6.211   2.146   0.786
 3881TIP3    H133202   6.177   2.153   0.697
 3881TIP3    H233203   6.301   2.178   0.781
 3882TIP3   OH233204   1.171   1.769   0.171
 3882TIP3    H133205   1.114   1.724   0.109
 3882TIP3    H233206   1.191   1.852   0.129
 3883TIP3   OH233207   1.620   3.675   7.740
 3883TIP3    H133208   1.562   3.612   7.698
 3883TIP3    H233209   1.571   3.757   7.740
 3884TIP3   OH233210   2.789   6.629   0.766
 3884TIP3    H133211   2.786   6.648   0.860
 3884TIP3    H233212   2.762   6.538   0.759
 3885TIP3   OH233213   5.674   5.166   1.779
 3885TIP3    H133214   5.583   5.134   1.782
 3885TIP3    H233215   5.676   5.237   1.843
 3886TIP3   OH233216   4.971   1.911   0.938
 3886TIP3    H133217   5.034   1.963   0.988
 3886TIP3    H233218   4.970   1.951   0.851
 3887TIP3   OH233219   2.104   1.909   7.736
 3887TIP3    H133220   2.145   1.870   7.658
 3887TIP3    H233221   2.043   1.974   7.701
 3888TIP3   OH233222   0.767   5.973   7.912
 3888TIP3    H133223   0.773   6.040   7.980
 3888TIP3    H233224   0.765   6.023   7.830
 3889TIP3   OH233225   1.026   2.913   6.906
 3889TIP3    H133226   1.003   2.994   6.951
 3889TIP3    H233227   1.089   2.939   6.839
 3890TIP3   OH233228   3.009   5.120   0.884
 3890TIP3    H133229   2.996   5.209   0.914
 3890TIP3    H233230   3.099   5.099   0.909
 3891TIP3   OH233231   0.092   0.212   8.299
 3891TIP3    H133232   0.017   0.257   8.336
 3891TIP3    H233233   0.168   0.254   8.341
 3892TIP3   OH233234   0.652   1.416   0.228
 3892TIP3    H133235   0.573   1.427   0.282
 3892TIP3    H233236   0.642   1.330   0.189
 3893TIP3   OH233237   1.318   3.082   1.491
 3893TIP3    H133238   1.372   3.053   1.418
 3893TIP3    H233239   1.293   3.172   1.469
 3894TIP3   OH233240   2.727   2.057   2.435
 3894TIP3    H133241   2.816   2.023   2.440
 3894TIP3    H233242   2.700   2.040   2.345
 3895TIP3   OH233243   0.500   1.817   8.497
 3895TIP3    H133244   0.549   1.741   8.465
 3895TIP3    H233245   0.410   1.786   8.502
 3896TIP3   OH233246   4.889   4.708   7.112
 3896TIP3    H133247   4.847   4.766   7.048
 3896TIP3    H233248   4.817   4.656   7.147
 3897TIP3   OH233249   2.643   2.923   1.338
 3897TIP3    H133250   2.721   2.868   1.349
 3897TIP3    H233251   2.672   3.011   1.359
 3898TIP3   OH233252   6.866   0.398   2.337
 3898TIP3    H133253   6.873   0.467   2.403
 3898TIP3    H233254   0.006   0.326   2.372
 3899TIP3   OH233255   0.784   6.064   6.056
 3899TIP3    H133256   0.776   6.071   6.151
 3899TIP3    H233257   0.746   6.144   6.022
 3900TIP3   OH233258   5.759   0.436   0.735
 3900TIP3    H133259   5.823   0.385   0.783
 3900TIP3    H233260   5.719   0.374   0.674
 3901TIP3   OH233261   5.553   2.051   2.108
 3901TIP3    H133262   5.524   2.028   2.019
 3901TIP3    H233263   5.505   1.992   2.165
 3902TIP3   OH233264   2.934   6.321   2.071
 3902TIP3    H133265   2.991   6.395   2.093
 3902TIP3    H233266   2.992   6.245   2.074
 3903TIP3   OH233267   2.038   1.802   2.100
 3903TIP3    H133268   1.947   1.773   2.108
 3903TIP3    H233269   2.035   1.872   2.035
 3904TIP3   OH233270   3.593   6.324   7.735
 3904TIP3    H133271   3.500   6.304   7.750
 3904TIP3    H233272   3.631   6.330   7.822
 3905TIP3   OH233273   1.342   4.935   1.202
 3905TIP3    H133274   1.372   5.025   1.192
 3905TIP3    H233275   1.309   4.930   1.291
 3906TIP3   OH233276   1.424   0.674   1.133
 3906TIP3    H133277   1.485   0.641   1.067
 3906TIP3    H233278   1.389   0.596   1.174
 3907TIP3   OH233279   1.780   3.808   0.807
 3907TIP3    H133280   1.741   3.831   0.723
 3907TIP3    H233281   1.759   3.882   0.864
 3908TIP3   OH233282   3.560   0.051   7.080
 3908TIP3    H133283   3.543   6.884   7.131
 3908TIP3    H233284   3.653   0.046   7.057
 3909TIP3   OH233285   0.494   4.705   7.780
 3909TIP3    H133286   0.577   4.752   7.791
 3909TIP3    H233287   0.519   4.612   7.784
 3910TIP3   OH233288   1.990   0.798   7.811
 3910TIP3    H133289   1.902   0.787   7.846
 3910TIP3    H233290   2.000   0.892   7.799
 3911TIP3   OH233291   4.122   0.327   0.492
 3911TIP3    H133292   4.098   0.234   0.494
 3911TIP3    H233293   4.191   0.332   0.426
 3912TIP3   OH233294   5.200   4.157   1.304
 3912TIP3    H133295   5.142   4.205   1.245
 3912TIP3    H233296   5.148   4.146   1.384
 3913TIP3   OH233297   0.322   0.748   8.231
 3913TIP3    H133298   0.284   0.674   8.183
 3913TIP3    H233299   0.333   0.816   8.166
 3914TIP3   OH233300   4.769   6.568   6.835
 3914TIP3    H133301   4.756   6.484   6.791
 3914TIP3    H233302   4.861   6.590   6.817
 3915TIP3   OH233303   1.750   1.152   0.116
 3915TIP3    H133304   1.808   1.139   0.041
 3915TIP3    H233305   1.794   1.218   0.169
 3916TIP3   OH233306   3.689   4.091   8.547
 3916TIP3    H133307   3.664   4.005   8.581
 3916TIP3    H233308   3.658   4.090   8.456
 3917TIP3   OH233309   0.010   1.806   8.204
 3917TIP3    H133310   6.832   1.833   8.185
 3917TIP3    H233311   0.056   1.815   8.120
 3918TIP3   OH233312   5.445   1.573   6.361
 3918TIP3    H133313   5.353   1.592   6.338
 3918TIP3    H233314   5.461   1.486   6.325
 3919TIP3   OH233315   2.143   6.467   0.140
 3919TIP3    H133316   2.199   6.519   0.083
 3919TIP3    H233317   2.154   6.377   0.110
 3920TIP3   OH233318   4.919   5.228   1.522
 3920TIP3    H133319   4.961   5.267   1.598
 3920TIP3    H233320   4.869   5.154   1.557
 3921TIP3   OH233321   0.745   2.083   1.062
 3921TIP3    H133322   0.702   2.168   1.073
 3921TIP3    H233323   0.672   2.021   1.051
 3922TIP3   OH233324   3.748   5.855   0.618
 3922TIP3    H133325   3.734   5.908   0.696
 3922TIP3    H233326   3.723   5.911   0.545
 3923TIP3   OH233327   3.752   6.231   6.260
 3923TIP3    H133328   3.815   6.227   6.332
 3923TIP3    H233329   3.696   6.154   6.273
 3924TIP3   OH233330   1.888   6.585   0.194
 3924TIP3    H133331   1.809   6.580   0.141
 3924TIP3    H233332   1.949   6.525   0.152
 3925TIP3   OH233333   3.832   3.984   7.760
 3925TIP3    H133334   3.906   4.022   7.806
 3925TIP3    H233335   3.795   3.921   7.822
 3926TIP3   OH233336   4.779   5.445   1.386
 3926TIP3    H133337   4.806   5.386   1.456
 3926TIP3    H233338   4.790   5.533   1.423
 3927TIP3   OH233339   5.881   5.769   1.361
 3927TIP3    H133340   5.961   5.722   1.380
 3927TIP3    H233341   5.813   5.702   1.357
 3928TIP3   OH233342   0.381   6.536   1.156
 3928TIP3    H133343   0.309   6.594   1.180
 3928TIP3    H233344   0.376   6.464   1.220
 3929TIP3   OH233345   2.739   5.098   7.037
 3929TIP3    H133346   2.819   5.045   7.042
 3929TIP3    H233347   2.678   5.044   6.986
 3930TIP3   OH233348   5.100   3.346   6.252
 3930TIP3    H133349   5.052   3.371   6.330
 3930TIP3    H233350   5.192   3.353   6.277
 3931TIP3   OH233351   6.487   5.523   7.586
 3931TIP3    H133352   6.468   5.615   7.607
 3931TIP3    H233353   6.460   5.513   7.495
 3932TIP3   OH233354   2.296   5.183   8.452
 3932TIP3    H133355   2.226   5.153   8.510
 3932TIP3    H233356   2.357   5.229   8.510
 3933TIP3   OH233357   3.337   4.600   0.203
 3933TIP3    H133358   3.326   4.558   0.117
 3933TIP3    H233359   3.249   4.604   0.239
 3934TIP3   OH233360   0.880   2.577   0.792
 3934TIP3    H133361   0.792   2.547   0.814
 3934TIP3    H233362   0.938   2.518   0.839
 3935TIP3   OH233363   2.132   3.338   6.607
 3935TIP3    H133364   2.197   3.271   6.586
 3935TIP3    H233365   2.131   3.341   6.703
 3936TIP3   OH233366   4.198   3.496   8.512
 3936TIP3    H133367   4.151   3.421   8.475
 3936TIP3    H233368   4.183   3.567   8.450
 3937TIP3   OH233369   1.450   6.606   0.804
 3937TIP3    H133370   1.421   6.518   0.779
 3937TIP3    H233371   1.544   6.607   0.786
 3938TIP3   OH233372   4.424   5.773   0.598
 3938TIP3    H133373   4.437   5.793   0.691
 3938TIP3    H233374   4.500   5.812   0.555
 3939TIP3   OH233375   0.677   1.543   7.702
 3939TIP3    H133376   0.654   1.528   7.794
 3939TIP3    H233377   0.770   1.524   7.697
 3940TIP3   OH233378   6.070   2.456   7.380
 3940TIP3    H133379   6.097   2.542   7.413
 3940TIP3    H233380   6.149   2.402   7.387
 3941TIP3   OH233381   3.632   0.202   8.158
 3941TIP3    H133382   3.627   0.249   8.241
 3941TIP3    H233383   3.562   0.137   8.162
 3942TIP3   OH233384   5.885   5.272   6.091
 3942TIP3    H133385   5.826   5.309   6.157
 3942TIP3    H233386   5.937   5.208   6.139
 3943TIP3   OH233387   1.948   2.264   0.610
 3943TIP3    H133388   2.028   2.315   0.623
 3943TIP3    H233389   1.900   2.273   0.693
 3944TIP3   OH233390   6.810   2.248   7.120
 3944TIP3    H133391   6.733   2.234   7.065
 3944TIP3    H233392   6.865   2.308   7.069
 3945TIP3   OH233393   5.429   5.377   0.308
 3945TIP3    H133394   5.358   5.315   0.319
 3945TIP3    H233395   5.388   5.453   0.267
 3946TIP3   OH233396   1.298   2.059   1.355
 3946TIP3    H133397   1.228   2.014   1.307
 3946TIP3    H233398   1.263   2.147   1.369
 3947TIP3   OH233399   6.697   4.796   6.502
 3947TIP3    H133400   6.670   4.888   6.505
 3947TIP3    H233401   6.671   4.761   6.587
 3948TIP3   OH233402   1.642   6.452   6.875
 3948TIP3    H133403   1.635   6.404   6.958
 3948TIP3    H233404   1.733   6.479   6.870
 3949TIP3   OH233405   2.294   3.714   7.936
 3949TIP3    H133406   2.386   3.702   7.957
 3949TIP3    H233407   2.293   3.761   7.853
 3950TIP3   OH233408   4.883   3.888   1.074
 3950TIP3    H133409   4.909   3.853   1.159
 3950TIP3    H233410   4.825   3.961   1.094
 3951TIP3   OH233411   5.705   5.918   1.739
 3951TIP3    H133412   5.774   5.952   1.683
 3951TIP3    H233413   5.664   5.848   1.687
 3952TIP3   OH233414   0.081   1.268   0.195
 3952TIP3    H133415   0.072   1.176   0.170
 3952TIP3    H233416   0.158   1.270   0.252
 3953TIP3   OH233417   5.449   4.293   0.116
 3953TIP3    H133418   5.456   4.242   0.198
 3953TIP3    H233419   5.521   4.356   0.121
 3954TIP3   OH233420   0.139   3.035   1.475
 3954TIP3    H133421   0.111   2.984   1.551
 3954TIP3    H233422   0.186   3.110   1.512
 3955TIP3   OH233423   4.689   4.822   0.033
 3955TIP3    H133424   4.781   4.798   0.032
 3955TIP3    H233425   4.686   4.911   8.602
 3956TIP3   OH233426   6.271   5.447   0.174
 3956TIP3    H133427   6.357   5.434   0.216
 3956TIP3    H233428   6.287   5.515   0.108
 3957TIP3   OH233429   3.603   5.657   1.434
 3957TIP3    H133430   3.559   5.709   1.501
 3957TIP3    H233431   3.596   5.709   1.354
 3958TIP3   OH233432   1.567   0.404   1.380
 3958TIP3    H133433   1.519   0.445   1.309
 3958TIP3    H233434   1.630   0.470   1.409
 3959TIP3   OH233435   2.026   6.145   0.698
 3959TIP3    H133436   1.979   6.181   0.773
 3959TIP3    H233437   1.963   6.086   0.657
 3960TIP3   OH233438   0.653   5.340   6.171
 3960TIP3    H133439   0.641   5.331   6.076
 3960TIP3    H233440   0.736   5.386   6.181
 3961TIP3   OH233441   1.910   2.209   2.207
 3961TIP3    H133442   1.892   2.116   2.197
 3961TIP3    H233443   1.827   2.247   2.237
 3962TIP3   OH233444   5.728   2.425   1.140
 3962TIP3    H133445   5.710   2.473   1.221
 3962TIP3    H233446   5.716   2.333   1.163
 3963TIP3   OH233447   3.445   2.424   1.394
 3963TIP3    H133448   3.384   2.382   1.333
 3963TIP3    H233449   3.390   2.481   1.447
 3964TIP3   OH233450   1.877   6.557   1.260
 3964TIP3    H133451   1.937   6.614   1.308
 3964TIP3    H233452   1.795   6.606   1.256
 3965TIP3   OH233453   0.685   0.927   0.520
 3965TIP3    H133454   0.769   0.924   0.566
 3965TIP3    H233455   0.699   0.873   0.442
 3966TIP3   OH233456   3.227   2.999   7.797
 3966TIP3    H133457   3.296   2.952   7.845
 3966TIP3    H233458   3.252   2.992   7.705
 3967TIP3   OH233459   4.613   4.047   7.524
 3967TIP3    H133460   4.656   4.132   7.517
 3967TIP3    H233461   4.552   4.056   7.597
 3968TIP3   OH233462   5.166   0.373   6.034
 3968TIP3    H133463   5.123   0.458   6.027
 3968TIP3    H233464   5.139   0.340   6.120
 3969TIP3   OH233465   2.342   2.420   1.323
 3969TIP3    H133466   2.297   2.498   1.290
 3969TIP3    H233467   2.304   2.405   1.410
 3970TIP3   OH233468   5.049   3.106   7.892
 3970TIP3    H133469   5.020   3.152   7.813
 3970TIP3    H233470   5.144   3.121   7.895
 3971TIP3   OH233471   5.865   6.746   1.039
 3971TIP3    H133472   5.921   6.701   1.101
 3971TIP3    H233473   5.888   6.839   1.048
 3972TIP3   OH233474   6.358   2.377   1.143
 3972TIP3    H133475   6.433   2.400   1.198
 3972TIP3    H233476   6.397   2.336   1.066
 3973TIP3   OH233477   2.136   3.261   7.960
 3973TIP3    H133478   2.144   3.166   7.952
 3973TIP3    H233479   2.082   3.275   8.037
 3974TIP3   OH233480   6.034   0.037   0.864
 3974TIP3    H133481   6.064   6.860   0.879
 3974TIP3    H233482   6.102   0.077   0.810
 3975TIP3   OH233483   5.712   2.071   1.000
 3975TIP3    H133484   5.802   2.046   0.980
 3975TIP3    H233485   5.686   2.126   0.926
 3976TIP3   OH233486   2.564   4.624   1.914
 3976TIP3    H133487   2.626   4.606   1.844
 3976TIP3    H233488   2.478   4.618   1.872
 3977TIP3   OH233489   1.493   2.133   7.521
 3977TIP3    H133490   1.443   2.162   7.444
 3977TIP3    H233491   1.437   2.069   7.564
 3978TIP3   OH233492   5.055   2.753   2.505
 3978TIP3    H133493   5.134   2.707   2.478
 3978TIP3    H233494   5.021   2.702   2.578
 3979TIP3   OH233495   6.028   6.199   2.027
 3979TIP3    H133496   6.068   6.286   2.033
 3979TIP3    H233497   6.092   6.141   2.068
 3980TIP3   OH233498   5.261   4.495   0.324
 3980TIP3    H133499   5.303   4.507   0.409
 3980TIP3    H233500   5.258   4.400   0.311
 3981TIP3   OH233501   2.183   2.038   1.008
 3981TIP3    H133502   2.185   1.942   0.998
 3981TIP3    H233503   2.135   2.053   1.089
 3982TIP3   OH233504   6.350   4.844   8.357
 3982TIP3    H133505   6.308   4.902   8.420
 3982TIP3    H233506   6.394   4.902   8.295
 3983TIP3   OH233507   4.565   4.650   2.070
 3983TIP3    H133508   4.654   4.618   2.055
 3983TIP3    H233509   4.510   4.589   2.021
 3984TIP3   OH233510   0.007   2.178   2.204
 3984TIP3    H133511   6.912   2.084   2.223
 3984TIP3    H233512   6.906   2.221   2.289
 3985TIP3   OH233513   6.066   1.276   0.367
 3985TIP3    H133514   6.022   1.360   0.356
 3985TIP3    H233515   6.148   1.296   0.411
 3986TIP3   OH233516   0.986   2.764   7.673
 3986TIP3    H133517   0.971   2.776   7.767
 3986TIP3    H233518   1.019   2.849   7.643
 3987TIP3   OH233519   0.945   5.784   7.470
 3987TIP3    H133520   1.011   5.759   7.405
 3987TIP3    H233521   0.928   5.704   7.519
 3988TIP3   OH233522   6.603   0.788   1.007
 3988TIP3    H133523   6.605   0.816   0.915
 3988TIP3    H233524   6.523   0.826   1.042
 3989TIP3   OH233525   2.559   4.721   0.497
 3989TIP3    H133526   2.555   4.626   0.510
 3989TIP3    H233527   2.469   4.747   0.480
 3990TIP3   OH233528   5.025   2.848   7.631
 3990TIP3    H133529   4.956   2.857   7.696
 3990TIP3    H233530   5.059   2.937   7.619
 3991TIP3   OH233531   3.873   2.204   0.002
 3991TIP3    H133532   3.888   2.276   0.064
 3991TIP3    H233533   3.848   2.130   0.057
 3992TIP3   OH233534   2.449   3.322   1.349
 3992TIP3    H133535   2.455   3.319   1.445
 3992TIP3    H233536   2.369   3.372   1.332
 3993TIP3   OH233537   2.406   2.305   7.773
 3993TIP3    H133538   2.382   2.223   7.816
 3993TIP3    H233539   2.327   2.330   7.725
 3994TIP3   OH233540   5.266   3.096   1.585
 3994TIP3    H133541   5.244   3.189   1.591
 3994TIP3    H233542   5.186   3.051   1.612
 3995TIP3   OH233543   1.169   6.087   6.213
 3995TIP3    H133544   1.184   6.078   6.119
 3995TIP3    H233545   1.145   5.999   6.241
 3996TIP3   OH233546   0.581   3.374   7.876
 3996TIP3    H133547   0.662   3.416   7.845
 3996TIP3    H233548   0.527   3.366   7.797
 3997TIP3   OH233549   5.986   2.916   1.631
 3997TIP3    H133550   5.896   2.946   1.620
 3997TIP3    H233551   5.983   2.823   1.609
 3998TIP3   OH233552   1.036   4.437   2.144
 3998TIP3    H133553   1.103   4.496   2.109
 3998TIP3    H233554   1.043   4.446   2.239
 3999TIP3   OH233555   0.855   1.281   0.869
 3999TIP3    H133556   0.795   1.335   0.817
 3999TIP3    H233557   0.940   1.322   0.858
 4000TIP3   OH233558   5.744   0.069   8.509
 4000TIP3    H133559   5.736   6.890   8.535
 4000TIP3    H233560   5.826   0.098   8.548
 4001TIP3   OH233561   3.955   0.982   6.668
 4001TIP3    H133562   4.043   1.013   6.692
 4001TIP3    H233563   3.921   1.051   6.611
 4002TIP3   OH233564   1.191   4.774   7.781
 4002TIP3    H133565   1.114   4.717   7.789
 4002TIP3    H233566   1.159   4.861   7.806
 4003TIP3   OH233567   6.531   4.252   7.824
 4003TIP3    H133568   6.533   4.169   7.776
 4003TIP3    H233569   6.620   4.262   7.858
 4004TIP3   OH233570   3.501   1.009   8.264
 4004TIP3    H133571   3.454   1.069   8.205
 4004TIP3    H233572   3.581   1.055   8.287
 4005TIP3   OH233573   2.940   3.061   1.970
 4005TIP3    H133574   2.865   3.016   2.010
 4005TIP3    H233575   3.010   2.996   1.971
 4006TIP3   OH233576   4.035   2.993   0.102
 4006TIP3    H133577   3.981   2.944   0.040
 4006TIP3    H233578   4.084   3.055   0.048
 4007TIP3   OH233579   1.228   1.264   1.728
 4007TIP3    H133580   1.288   1.189   1.725
 4007TIP3    H233581   1.157   1.235   1.784
 4008TIP3   OH233582   0.566   5.341   1.116
 4008TIP3    H133583   0.473   5.360   1.127
 4008TIP3    H233584   0.568   5.254   1.077
 4009TIP3   OH233585   2.131   5.551   1.331
 4009TIP3    H133586   2.131   5.481   1.266
 4009TIP3    H233587   2.144   5.631   1.280
 4010TIP3   OH233588   2.220   6.326   1.468
 4010TIP3    H133589   2.197   6.346   1.377
 4010TIP3    H233590   2.248   6.410   1.504
 4011TIP3   OH233591   2.336   6.862   0.076
 4011TIP3    H133592   2.314   6.844   0.167
 4011TIP3    H233593   2.354   0.044   0.074
 4012TIP3   OH233594   3.446   3.393   0.860
 4012TIP3    H133595   3.428   3.457   0.928
 4012TIP3    H233596   3.437   3.308   0.904
 4013TIP3   OH233597   4.918   4.976   0.345
 4013TIP3    H133598   4.905   5.037   0.272
 4013TIP3    H233599   5.012   4.957   0.343
 4014TIP3   OH233600   5.570   0.383   8.493
 4014TIP3    H133601   5.540   0.444   8.426
 4014TIP3    H233602   5.560   0.297   8.453
 4015TIP3   OH233603   1.710   0.040   8.390
 4015TIP3    H133604   1.789   0.009   8.435
 4015TIP3    H233605   1.662   6.872   8.368
 4016TIP3   OH233606   1.108   5.204   2.401
 4016TIP3    H133607   1.194   5.231   2.368
 4016TIP3    H233608   1.052   5.279   2.386
 4017TIP3   OH233609   3.065   3.752   8.119
 4017TIP3    H133610   3.094   3.780   8.206
 4017TIP3    H233611   3.085   3.658   8.116
 4018TIP3   OH233612   1.435   0.559   7.521
 4018TIP3    H133613   1.399   0.487   7.469
 4018TIP3    H233614   1.530   0.545   7.518
 4019TIP3   OH233615   5.792   3.073   7.530
 4019TIP3    H133616   5.812   2.980   7.517
 4019TIP3    H233617   5.702   3.075   7.561
 4020TIP3   OH233618   1.340   2.259   0.834
 4020TIP3    H133619   1.374   2.347   0.849
 4020TIP3    H233620   1.359   2.242   0.742
 4021TIP3   OH233621   6.235   2.271   7.786
 4021TIP3    H133622   6.141   2.277   7.767
 4021TIP3    H233623   6.240   2.277   7.882
 4022TIP3   OH233624   4.210   5.554   7.493
 4022TIP3    H133625   4.165   5.481   7.451
 4022TIP3    H233626   4.143   5.597   7.545
 4023TIP3   OH233627   4.809   4.461   7.248
 4023TIP3    H133628   4.858   4.398   7.301
 4023TIP3    H233629   4.779   4.409   7.173
 4024TIP3   OH233630   1.768   2.647   8.440
 4024TIP3    H133631   1.716   2.659   8.519
 4024TIP3    H233632   1.852   2.613   8.471
 4025TIP3   OH233633   3.009   3.364   0.392
 4025TIP3    H133634   3.098   3.332   0.376
 4025TIP3    H233635   3.005   3.378   0.487
 4026TIP3   OH233636   1.272   6.344   6.495
 4026TIP3    H133637   1.197   6.285   6.488
 4026TIP3    H233638   1.327   6.305   6.563
 4027TIP3   OH233639   6.197   2.562   7.070
 4027TIP3    H133640   6.205   2.471   7.043
 4027TIP3    H233641   6.250   2.568   7.150
 4028TIP3   OH233642   3.901   0.518   1.625
 4028TIP3    H133643   3.884   0.601   1.582
 4028TIP3    H233644   3.825   0.463   1.604
 4029TIP3   OH233645   5.902   3.374   8.450
 4029TIP3    H133646   5.920   3.290   8.491
 4029TIP3    H233647   5.988   3.414   8.437
 4030TIP3   OH233648   5.124   5.738   7.702
 4030TIP3    H133649   5.037   5.744   7.663
 4030TIP3    H233650   5.179   5.703   7.632
 4031TIP3   OH233651   0.427   6.730   1.701
 4031TIP3    H133652   0.367   6.774   1.762
 4031TIP3    H233653   0.388   6.643   1.689
 4032TIP3   OH233654   3.360   5.130   2.096
 4032TIP3    H133655   3.434   5.070   2.092
 4032TIP3    H233656   3.397   5.216   2.075
 4033TIP3   OH233657   1.328   5.284   2.236
 4033TIP3    H133658   1.343   5.378   2.245
 4033TIP3    H233659   1.330   5.268   2.142
 4034TIP3   OH233660   6.458   2.840   7.245
 4034TIP3    H133661   6.431   2.751   7.268
 4034TIP3    H233662   6.516   2.867   7.315
 4035TIP3   OH233663   6.501   5.839   7.970
 4035TIP3    H133664   6.471   5.863   8.058
 4035TIP3    H233665   6.421   5.839   7.917
 4036TIP3   OH233666   3.445   6.722   1.155
 4036TIP3    H133667   3.531   6.687   1.134
 4036TIP3    H233668   3.386   6.677   1.093
 4037TIP3   OH233669   0.219   5.001   0.289
 4037TIP3    H133670   0.305   5.028   0.256
 4037TIP3    H233671   0.237   4.926   0.345
 4038TIP3   OH233672   3.849   4.692   2.460
 4038TIP3    H133673   3.853   4.648   2.374
 4038TIP3    H233674   3.940   4.712   2.480
 4039TIP3   OH233675   1.322   5.082   0.296
 4039TIP3    H133676   1.374   5.002   0.296
 4039TIP3    H233677   1.271   5.079   0.376
 4040TIP3   OH233678   3.526   3.135   6.628
 4040TIP3    H133679   3.512   3.139   6.533
 4040TIP3    H233680   3.440   3.154   6.666
 4041TIP3   OH233681   6.638   0.343   1.258
 4041TIP3    H133682   6.698   0.417   1.260
 4041TIP3    H233683   6.557   0.377   1.219
 4042TIP3   OH233684   4.874   4.039   8.359
 4042TIP3    H133685   4.819   4.031   8.437
 4042TIP3    H233686   4.815   4.017   8.286
 4043TIP3   OH233687   3.387   2.929   8.183
 4043TIP3    H133688   3.429   2.890   8.106
 4043TIP3    H233689   3.458   2.940   8.246
 4044TIP3   OH233690   0.284   4.594   7.104
 4044TIP3    H133691   0.358   4.560   7.054
 4044TIP3    H233692   0.314   4.593   7.195
 4045TIP3   OH233693   2.948   6.446   0.402
 4045TIP3    H133694   2.897   6.389   0.344
 4045TIP3    H233695   3.038   6.438   0.370
 4046TIP3   OH233696   0.900   1.539   0.246
 4046TIP3    H133697   0.893   1.617   0.301
 4046TIP3    H233698   0.810   1.509   0.235
 4047TIP3   OH233699   5.402   2.478   6.837
 4047TIP3    H133700   5.368   2.566   6.820
 4047TIP3    H233701   5.445   2.453   6.755
 4048TIP3   OH233702   5.707   5.683   2.229
 4048TIP3    H133703   5.646   5.611   2.245
 4048TIP3    H233704   5.785   5.642   2.193
 4049TIP3   OH233705   1.592   1.380   0.941
 4049TIP3    H133706   1.551   1.295   0.924
 4049TIP3    H233707   1.622   1.374   1.032
 4050TIP3   OH233708   2.276   1.761   8.424
 4050TIP3    H133709   2.292   1.812   8.504
 4050TIP3    H233710   2.181   1.761   8.415
 4051TIP3   OH233711   5.342   0.578   1.144
 4051TIP3    H133712   5.395   0.612   1.217
 4051TIP3    H233713   5.337   0.483   1.160
 4052TIP3   OH233714   6.275   0.671   7.997
 4052TIP3    H133715   6.204   0.648   7.937
 4052TIP3    H233716   6.260   0.762   8.019
 4053TIP3   OH233717   4.656   6.502   7.874
 4053TIP3    H133718   4.609   6.542   7.801
 4053TIP3    H233719   4.717   6.441   7.833
 4054TIP3   OH233720   3.692   2.210   2.316
 4054TIP3    H133721   3.599   2.194   2.298
 4054TIP3    H233722   3.733   2.124   2.308
 4055TIP3   OH233723   3.088   4.830   1.184
 4055TIP3    H133724   3.083   4.777   1.104
 4055TIP3    H233725   3.114   4.767   1.252
 4056TIP3   OH233726   4.486   5.096   8.121
 4056TIP3    H133727   4.450   5.055   8.200
 4056TIP3    H233728   4.552   5.034   8.090
 4057TIP3   OH233729   6.412   0.441   8.080
 4057TIP3    H133730   6.361   0.522   8.071
 4057TIP3    H233731   6.378   0.400   8.159
 4058TIP3   OH233732   5.335   6.094   2.740
 4058TIP3    H133733   5.319   6.082   2.647
 4058TIP3    H233734   5.333   6.189   2.753
 4059TIP3   OH233735   6.635   6.868   7.654
 4059TIP3    H133736   6.581   6.842   7.580
 4059TIP3    H233737   6.724   6.844   7.629
 4060TIP3   OH233738   1.898   3.632   8.511
 4060TIP3    H133739   1.946   3.630   8.429
 4060TIP3    H233740   1.961   3.602   8.577
 4061TIP3   OH233741   0.857   4.106   7.629
 4061TIP3    H133742   0.879   4.019   7.595
 4061TIP3    H233743   0.763   4.114   7.615
 4062TIP3   OH233744   0.301   1.701   7.024
 4062TIP3    H133745   0.258   1.742   6.949
 4062TIP3    H233746   0.284   1.607   7.013
 4063TIP3   OH233747   2.161   5.423   1.070
 4063TIP3    H133748   2.190   5.493   1.012
 4063TIP3    H233749   2.210   5.346   1.042
 4064TIP3   OH233750   6.663   3.075   0.061
 4064TIP3    H133751   6.573   3.046   0.045
 4064TIP3    H233752   6.660   3.170   0.055
 4065TIP3   OH233753   4.635   6.080   6.716
 4065TIP3    H133754   4.547   6.096   6.752
 4065TIP3    H233755   4.631   5.992   6.680
 4066TIP3   OH233756   6.671   5.092   7.983
 4066TIP3    H133757   6.691   5.171   7.933
 4066TIP3    H233758   6.720   5.023   7.939
 4067TIP3   OH233759   2.010   1.672   7.250
 4067TIP3    H133760   2.038   1.591   7.294
 4067TIP3    H233761   1.952   1.715   7.313
 4068TIP3   OH233762   3.017   1.642   0.702
 4068TIP3    H133763   2.970   1.726   0.698
 4068TIP3    H233764   2.979   1.590   0.631
 4069TIP3   OH233765   4.069   3.119   7.441
 4069TIP3    H133766   4.128   3.075   7.501
 4069TIP3    H233767   4.076   3.212   7.464
 4070TIP3   OH233768   3.052   3.078   7.993
 4070TIP3    H133769   3.098   3.078   7.909
 4070TIP3    H233770   3.121   3.075   8.058
 4071TIP3   OH233771   4.154   0.927   2.375
 4071TIP3    H133772   4.082   0.989   2.363
 4071TIP3    H233773   4.115   0.854   2.424
 4072TIP3   OH233774   3.397   1.705   1.866
 4072TIP3    H133775   3.373   1.767   1.797
 4072TIP3    H233776   3.427   1.760   1.938
 4073TIP3   OH233777   2.670   0.356   7.269
 4073TIP3    H133778   2.764   0.353   7.284
 4073TIP3    H233779   2.645   0.446   7.291
 4074TIP3   OH233780   2.363   1.519   1.227
 4074TIP3    H133781   2.316   1.484   1.152
 4074TIP3    H233782   2.363   1.614   1.213
 4075TIP3   OH233783   5.812   4.835   0.806
 4075TIP3    H133784   5.890   4.885   0.783
 4075TIP3    H233785   5.836   4.788   0.885
 4076TIP3   OH233786   4.356   2.817   6.375
 4076TIP3    H133787   4.435   2.837   6.325
 4076TIP3    H233788   4.305   2.898   6.374
 4077TIP3   OH233789   2.339   6.029   6.768
 4077TIP3    H133790   2.359   6.115   6.730
 4077TIP3    H233791   2.416   6.007   6.820
 4078TIP3   OH233792   2.746   5.013   6.648
 4078TIP3    H133793   2.697   5.005   6.729
 4078TIP3    H233794   2.764   4.923   6.621
 4079TIP3   OH233795   0.438   0.030   6.968
 4079TIP3    H133796   0.396   6.862   7.001
 4079TIP3    H233797   0.417   0.096   7.034
 4080TIP3   OH233798   6.832   4.532   1.531
 4080TIP3    H133799   0.012   4.508   1.523
 4080TIP3    H233800   6.833   4.627   1.542
 4081TIP3   OH233801   6.089   4.463   7.080
 4081TIP3    H133802   6.128   4.376   7.073
 4081TIP3    H233803   6.098   4.501   6.993
 4082TIP3   OH233804   6.291   2.196   6.413
 4082TIP3    H133805   6.275   2.290   6.426
 4082TIP3    H233806   6.370   2.192   6.359
 4083TIP3   OH233807   3.485   1.122   1.567
 4083TIP3    H133808   3.545   1.196   1.562
 4083TIP3    H233809   3.399   1.158   1.546
 4084TIP3   OH233810   4.386   4.559   8.132
 4084TIP3    H133811   4.374   4.474   8.090
 4084TIP3    H233812   4.364   4.623   8.064
 4085TIP3   OH233813   1.337   0.572   2.503
 4085TIP3    H133814   1.314   0.487   2.540
 4085TIP3    H233815   1.357   0.554   2.411
 4086TIP3   OH233816   4.193   5.026   8.567
 4086TIP3    H133817   4.106   5.037   8.530
 4086TIP3    H233818   4.214   5.111   0.003
 4087TIP3   OH233819   0.414   6.140   1.671
 4087TIP3    H133820   0.488   6.202   1.672
 4087TIP3    H233821   0.402   6.117   1.763
 4088TIP3   OH233822   5.510   4.421   1.585
 4088TIP3    H133823   5.547   4.490   1.640
 4088TIP3    H233824   5.465   4.363   1.646
 4089TIP3   OH233825   3.729   6.537   0.095
 4089TIP3    H133826   3.717   6.480   0.171
 4089TIP3    H233827   3.814   6.579   0.108
 4090TIP3   OH233828   1.826   5.746   0.554
 4090TIP3    H133829   1.908   5.721   0.598
 4090TIP3    H233830   1.846   5.831   0.514
 4091TIP3   OH233831   5.224   1.207   1.623
 4091TIP3    H133832   5.204   1.192   1.531
 4091TIP3    H233833   5.167   1.147   1.671
 4092TIP3   OH233834   2.608   0.213   8.035
 4092TIP3    H133835   2.627   0.193   7.943
 4092TIP3    H233836   2.548   0.288   8.031
 4093TIP3   OH233837   4.310   2.921   7.855
 4093TIP3    H133838   4.263   2.945   7.935
 4093TIP3    H233839   4.348   2.836   7.874
 4094TIP3   OH233840   6.215   6.086   7.490
 4094TIP3    H133841   6.166   6.128   7.419
 4094TIP3    H233842   6.185   5.995   7.489
 4095TIP3   OH233843   5.188   5.623   7.961
 4095TIP3    H133844   5.132   5.633   7.884
 4095TIP3    H233845   5.268   5.671   7.939
 4096TIP3   OH233846   5.652   6.448   8.091
 4096TIP3    H133847   5.666   6.523   8.032
 4096TIP3    H233848   5.739   6.429   8.127
 4097TIP3   OH233849   2.813   1.483   0.174
 4097TIP3    H133850   2.745   1.466   0.240
 4097TIP3    H233851   2.771   1.542   0.111
 4098TIP3   OH233852   2.078   1.842   6.661
 4098TIP3    H133853   2.109   1.864   6.573
 4098TIP3    H233854   2.139   1.775   6.692
 4099TIP3   OH233855   3.796   0.694   0.914
 4099TIP3    H133856   3.872   0.652   0.955
 4099TIP3    H233857   3.724   0.677   0.975
 4100TIP3   OH233858   4.563   6.806   6.487
 4100TIP3    H133859   4.610   6.724   6.481
 4100TIP3    H233860   4.610   6.866   6.430
 4101TIP3   OH233861   1.384   6.135   7.918
 4101TIP3    H133862   1.309   6.101   7.870
 4101TIP3    H233863   1.400   6.221   7.880
 4102TIP3   OH233864   3.655   5.508   0.977
 4102TIP3    H133865   3.748   5.488   0.969
 4102TIP3    H233866   3.611   5.429   0.945
 4103TIP3   OH233867   0.596   4.204   6.651
 4103TIP3    H133868   0.521   4.258   6.626
 4103TIP3    H233869   0.656   4.209   6.576
 4104TIP3   OH233870   4.380   6.629   0.312
 4104TIP3    H133871   4.471   6.638   0.340
 4104TIP3    H233872   4.380   6.662   0.222
 4105TIP3   OH233873   1.715   6.764   0.523
 4105TIP3    H133874   1.645   6.709   0.487
 4105TIP3    H233875   1.699   6.764   0.617
 4106TIP3   OH233876   4.569   1.504   8.463
 4106TIP3    H133877   4.530   1.443   8.400
 4106TIP3    H233878   4.595   1.579   8.410
 4107TIP3   OH233879   5.770   5.215   0.187
 4107TIP3    H133880   5.681   5.208   0.153
 4107TIP3    H233881   5.789   5.309   0.184
 4108TIP3   OH233882   0.443   2.671   7.422
 4108TIP3    H133883   0.407   2.608   7.485
 4108TIP3    H233884   0.538   2.666   7.436
 4109TIP3   OH233885   3.189   4.324   1.544
 4109TIP3    H133886   3.147   4.278   1.471
 4109TIP3    H233887   3.140   4.297   1.621
 4110TIP3   OH233888   1.226   2.670   7.420
 4110TIP3    H133889   1.268   2.639   7.339
 4110TIP3    H233890   1.275   2.748   7.444
 4111TIP3   OH233891   6.832   3.742   1.235
 4111TIP3    H133892   6.907   3.696   1.272
 4111TIP3    H233893   6.815   3.814   1.296
 4112TIP3   OH233894   0.900   3.912   2.179
 4112TIP3    H133895   0.944   3.993   2.151
 4112TIP3    H233896   0.810   3.921   2.146
 4113TIP3   OH233897   4.288   6.340   6.556
 4113TIP3    H133898   4.324   6.269   6.609
 4113TIP3    H233899   4.274   6.301   6.470
 4114TIP3   OH233900   3.306   4.481   8.565
 4114TIP3    H133901   3.248   4.413   8.599
 4114TIP3    H233902   3.355   4.438   8.495
 4115TIP3   OH233903   6.155   1.261   8.023
 4115TIP3    H133904   6.154   1.290   7.932
 4115TIP3    H233905   6.245   1.230   8.036
 4116TIP3   OH233906   3.410   2.779   7.609
 4116TIP3    H133907   3.437   2.855   7.557
 4116TIP3    H233908   3.488   2.752   7.657
 4117TIP3   OH233909   2.264   1.231   0.807
 4117TIP3    H133910   2.263   1.316   0.764
 4117TIP3    H233911   2.290   1.169   0.739
 4118TIP3   OH233912   1.699   3.838   1.276
 4118TIP3    H133913   1.635   3.906   1.297
 4118TIP3    H233914   1.660   3.790   1.203
 4119TIP3   OH233915   0.370   3.311   6.250
 4119TIP3    H133916   0.432   3.322   6.178
 4119TIP3    H233917   0.309   3.384   6.241
 4120TIP3   OH233918   4.623   0.111   7.800
 4120TIP3    H133919   4.691   0.152   7.747
 4120TIP3    H233920   4.545   0.112   7.744
 4121TIP3   OH233921   1.413   3.714   1.443
 4121TIP3    H133922   1.423   3.680   1.532
 4121TIP3    H233923   1.416   3.637   1.387
 4122TIP3   OH233924   4.806   5.032   7.114
 4122TIP3    H133925   4.774   4.980   7.041
 4122TIP3    H233926   4.899   5.009   7.121
 4123TIP3   OH233927   1.533   3.555   0.705
 4123TIP3    H133928   1.484   3.636   0.713
 4123TIP3    H233929   1.592   3.555   0.781
 4124TIP3   OH233930   4.487   1.417   1.628
 4124TIP3    H133931   4.507   1.423   1.721
 4124TIP3    H233932   4.417   1.480   1.614
 4125TIP3   OH233933   5.037   0.576   5.864
 4125TIP3    H133934   4.963   0.517   5.851
 4125TIP3    H233935   4.999   0.664   5.865
 4126TIP3   OH233936   0.164   0.656   1.671
 4126TIP3    H133937   0.228   0.704   1.724
 4126TIP3    H233938   0.141   0.717   1.601
 4127TIP3   OH233939   0.171   5.405   0.413
 4127TIP3    H133940   0.132   5.385   0.499
 4127TIP3    H233941   0.115   5.359   0.350
 4128TIP3   OH233942   1.187   3.820   1.560
 4128TIP3    H133943   1.167   3.754   1.626
 4128TIP3    H233944   1.261   3.784   1.512
 4129TIP3   OH233945   1.132   2.385   1.165
 4129TIP3    H133946   1.200   2.398   1.099
 4129TIP3    H233947   1.178   2.350   1.241
 4130TIP3   OH233948   6.021   5.382   7.645
 4130TIP3    H133949   6.101   5.406   7.691
 4130TIP3    H233950   6.007   5.455   7.584
 4131TIP3   OH233951   0.460   1.276   8.073
 4131TIP3    H133952   0.409   1.246   7.997
 4131TIP3    H233953   0.545   1.234   8.063
 4132TIP3   OH233954   5.856   6.398   0.824
 4132TIP3    H133955   5.945   6.420   0.854
 4132TIP3    H233956   5.810   6.372   0.903
 4133TIP3   OH233957   5.513   1.502   8.015
 4133TIP3    H133958   5.432   1.550   7.998
 4133TIP3    H233959   5.527   1.451   7.935
 4134TIP3   OH233960   0.427   1.806   7.226
 4134TIP3    H133961   0.388   1.890   7.203
 4134TIP3    H233962   0.401   1.747   7.156
 4135TIP3   OH233963   0.479   3.620   1.534
 4135TIP3    H133964   0.532   3.693   1.566
 4135TIP3    H233965   0.509   3.606   1.444
 4136TIP3   OH233966   2.352   3.429   7.832
 4136TIP3    H133967   2.435   3.410   7.874
 4136TIP3    H233968   2.314   3.343   7.815
 4137TIP3   OH233969   3.240   3.741   1.751
 4137TIP3    H133970   3.261   3.833   1.764
 4137TIP3    H233971   3.146   3.735   1.771
 4138TIP3   OH233972   5.875   0.109   1.165
 4138TIP3    H133973   5.966   0.136   1.181
 4138TIP3    H233974   5.826   0.191   1.159
 4139TIP3   OH233975   2.533   3.401   0.274
 4139TIP3    H133976   2.468   3.469   0.258
 4139TIP3    H233977   2.575   3.426   0.356
 4140TIP3   OH233978   2.763   4.648   0.232
 4140TIP3    H133979   2.801   4.711   0.294
 4140TIP3    H233980   2.819   4.571   0.240
 4141TIP3   OH233981   6.720   6.577   1.495
 4141TIP3    H133982   6.743   6.651   1.551
 4141TIP3    H233983   6.655   6.611   1.435
 4142TIP3   OH233984   3.233   3.632   2.473
 4142TIP3    H133985   3.168   3.567   2.448
 4142TIP3    H233986   3.224   3.702   2.408
 4143TIP3   OH233987   4.295   3.012   0.282
 4143TIP3    H133988   4.217   2.981   0.235
 4143TIP3    H233989   4.289   3.107   0.278
 4144TIP3   OH233990   1.034   5.285   0.412
 4144TIP3    H133991   1.101   5.234   0.456
 4144TIP3    H233992   0.987   5.329   0.482
 4145TIP3   OH233993   5.157   4.703   7.005
 4145TIP3    H133994   5.070   4.721   7.041
 4145TIP3    H233995   5.146   4.625   6.951
 4146TIP3   OH233996   5.628   3.070   7.200
 4146TIP3    H133997   5.586   3.028   7.275
 4146TIP3    H233998   5.721   3.066   7.219
 4147TIP3   OH233999   0.589   0.016   2.237
 4147TIP3    H134000   0.561   6.852   2.186
 4147TIP3    H234001   0.681   0.029   2.213
 4148TIP3   OH234002   5.125   6.697   7.327
 4148TIP3    H134003   5.053   6.759   7.340
 4148TIP3    H234004   5.191   6.723   7.391
 4149TIP3   OH234005   2.249   5.204   0.611
 4149TIP3    H134006   2.270   5.297   0.619
 4149TIP3    H234007   2.156   5.202   0.587
 4150TIP3   OH234008   0.526   0.814   7.425
 4150TIP3    H134009   0.516   0.766   7.507
 4150TIP3    H234010   0.513   0.748   7.357
 4151TIP3   OH234011   5.234   0.703   1.741
 4151TIP3    H134012   5.321   0.741   1.751
 4151TIP3    H234013   5.202   0.740   1.659
 4152TIP3   OH234014   2.071   5.695   7.768
 4152TIP3    H134015   2.031   5.718   7.684
 4152TIP3    H234016   2.004   5.718   7.833
 4153TIP3   OH234017   0.187   0.433   7.860
 4153TIP3    H134018   0.162   0.341   7.849
 4153TIP3    H234019   0.270   0.430   7.907
 4154TIP3   OH234020   2.029   3.590   0.433
 4154TIP3    H134021   2.029   3.655   0.504
 4154TIP3    H234022   1.980   3.632   0.362
 4155TIP3   OH234023   3.322   4.215   0.478
 4155TIP3    H134024   3.334   4.188   0.387
 4155TIP3    H234025   3.229   4.236   0.485
 4156TIP3   OH234026   4.347   6.061   6.786
 4156TIP3    H134027   4.398   5.986   6.817
 4156TIP3    H234028   4.263   6.023   6.760
 4157TIP3   OH234029   2.467   2.507   0.130
 4157TIP3    H134030   2.387   2.479   0.085
 4157TIP3    H234031   2.519   2.549   0.063
 4158TIP3   OH234032   0.261   1.424   7.040
 4158TIP3    H134033   0.243   1.340   7.082
 4158TIP3    H234034   0.249   1.407   6.947
 4159TIP3   OH234035   1.333   6.052   6.846
 4159TIP3    H134036   1.271   6.041   6.918
 4159TIP3    H234037   1.285   6.022   6.768
 4160TIP3   OH234038   0.835   4.338   1.400
 4160TIP3    H134039   0.906   4.372   1.456
 4160TIP3    H234040   0.881   4.289   1.332
 4161TIP3   OH234041   4.055   6.522   1.644
 4161TIP3    H134042   4.146   6.514   1.616
 4161TIP3    H234043   4.007   6.459   1.590
 4162TIP3   OH234044   0.191   5.666   7.971
 4162TIP3    H134045   0.113   5.612   7.981
 4162TIP3    H234046   0.264   5.606   7.986
 4163TIP3   OH234047   3.697   5.609   8.465
 4163TIP3    H134048   3.712   5.649   8.551
 4163TIP3    H234049   3.658   5.680   8.413
 4164TIP3   OH234050   2.302   0.465   7.345
 4164TIP3    H134051   2.288   0.458   7.251
 4164TIP3    H234052   2.314   0.559   7.361
 4165TIP3   OH234053   6.116   3.420   0.262
 4165TIP3    H134054   6.068   3.353   0.311
 4165TIP3    H234055   6.057   3.444   0.190
 4166TIP3   OH234056   4.708   0.209   2.436
 4166TIP3    H134057   4.691   0.258   2.517
 4166TIP3    H234058   4.651   0.250   2.371
 4167TIP3   OH234059   1.795   5.286   2.329
 4167TIP3    H134060   1.736   5.320   2.396
 4167TIP3    H234061   1.876   5.265   2.376
 4168TIP3   OH234062   0.778   6.886   8.088
 4168TIP3    H134063   0.772   6.818   8.021
 4168TIP3    H234064   0.867   6.879   8.122
 4169TIP3   OH234065   1.571   4.913   0.924
 4169TIP3    H134066   1.561   4.836   0.868
 4169TIP3    H234067   1.666   4.918   0.940
 4170TIP3   OH234068   3.353   3.330   8.095
 4170TIP3    H134069   3.404   3.348   8.174
 4170TIP3    H234070   3.284   3.270   8.124
 4171TIP3   OH234071   1.307   5.783   1.998
 4171TIP3    H134072   1.395   5.821   2.003
 4171TIP3    H234073   1.261   5.837   1.933
 4172TIP3   OH234074   4.890   0.627   7.060
 4172TIP3    H134075   4.902   0.678   6.980
 4172TIP3    H234076   4.979   0.604   7.087
 4173TIP3   OH234077   3.488   3.151   1.603
 4173TIP3    H134078   3.469   3.208   1.529
 4173TIP3    H234079   3.412   3.159   1.660
 4174TIP3   OH234080   1.458   5.204   6.717
 4174TIP3    H134081   1.464   5.110   6.702
 4174TIP3    H234082   1.442   5.242   6.630
 4175TIP3   OH234083   6.379   2.010   8.269
 4175TIP3    H134084   6.412   2.032   8.356
 4175TIP3    H234085   6.453   2.027   8.210
 4176TIP3   OH234086   1.192   2.156   8.415
 4176TIP3    H134087   1.162   2.093   8.350
 4176TIP3    H234088   1.237   2.104   8.481
 4177TIP3   OH234089   5.356   5.567   6.766
 4177TIP3    H134090   5.298   5.626   6.717
 4177TIP3    H234091   5.414   5.530   6.699
 4178TIP3   OH234092   3.217   1.718   1.246
 4178TIP3    H134093   3.122   1.706   1.244
 4178TIP3    H234094   3.233   1.796   1.193
 4179TIP3   OH234095   2.901   4.949   8.199
 4179TIP3    H134096   2.899   4.975   8.291
 4179TIP3    H234097   2.835   5.004   8.157
 4180TIP3   OH234098   3.755   2.051   1.151
 4180TIP3    H134099   3.812   2.063   1.075
 4180TIP3    H234100   3.688   2.118   1.142
 4181TIP3   OH234101   2.694   2.780   8.087
 4181TIP3    H134102   2.717   2.692   8.055
 4181TIP3    H234103   2.779   2.822   8.103
 4182TIP3   OH234104   4.094   5.081   1.822
 4182TIP3    H134105   4.090   5.043   1.735
 4182TIP3    H234106   4.013   5.133   1.829
 4183TIP3   OH234107   3.544   3.734   1.772
 4183TIP3    H134108   3.457   3.758   1.739
 4183TIP3    H234109   3.562   3.649   1.733
 4184TIP3   OH234110   4.736   1.630   1.583
 4184TIP3    H134111   4.657   1.627   1.638
 4184TIP3    H234112   4.721   1.704   1.524
 4185TIP3   OH234113   4.084   2.891   1.078
 4185TIP3    H134114   4.047   2.980   1.082
 4185TIP3    H234115   4.092   2.864   1.169
 4186TIP3   OH234116   2.195   1.069   1.911
 4186TIP3    H134117   2.231   1.083   1.999
 4186TIP3    H234118   2.134   0.996   1.922
 4187TIP3   OH234119   5.413   6.011   1.273
 4187TIP3    H134120   5.419   6.078   1.204
 4187TIP3    H234121   5.503   6.003   1.306
 4188TIP3   OH234122   1.638   2.362   7.386
 4188TIP3    H134123   1.641   2.332   7.296
 4188TIP3    H234124   1.562   2.318   7.424
 4189TIP3   OH234125   0.694   3.004   2.126
 4189TIP3    H134126   0.739   3.053   2.195
 4189TIP3    H234127   0.683   3.067   2.055
 4190TIP3   OH234128   5.232   5.846   0.492
 4190TIP3    H134129   5.160   5.792   0.459
 4190TIP3    H234130   5.207   5.865   0.582
 4191TIP3   OH234131   4.660   3.277   6.218
 4191TIP3    H134132   4.660   3.371   6.199
 4191TIP3    H234133   4.751   3.250   6.206
 4192TIP3   OH234134   6.465   5.436   1.629
 4192TIP3    H134135   6.375   5.439   1.660
 4192TIP3    H234136   6.512   5.387   1.696
 4193TIP3   OH234137   1.436   4.651   7.725
 4193TIP3    H134138   1.375   4.724   7.736
 4193TIP3    H234139   1.388   4.576   7.760
 4194TIP3   OH234140   1.195   0.900   0.049
 4194TIP3    H134141   1.152   0.964   8.595
 4194TIP3    H234142   1.145   0.820   0.036
 4195TIP3   OH234143   6.187   3.947   6.357
 4195TIP3    H134144   6.231   4.031   6.366
 4195TIP3    H234145   6.252   3.883   6.387
 4196TIP3   OH234146   6.201   1.151   0.680
 4196TIP3    H134147   6.267   1.115   0.621
 4196TIP3    H234148   6.242   1.229   0.717
 4197TIP3   OH234149   2.667   2.842   1.915
 4197TIP3    H134150   2.734   2.911   1.917
 4197TIP3    H234151   2.624   2.849   2.000
 4198TIP3   OH234152   0.516   6.104   0.245
 4198TIP3    H134153   0.568   6.062   0.314
 4198TIP3    H234154   0.578   6.160   0.199
 4199TIP3   OH234155   6.503   4.999   8.181
 4199TIP3    H134156   6.537   5.036   8.100
 4199TIP3    H234157   6.581   4.971   8.229
 4200TIP3   OH234158   1.625   3.426   7.003
 4200TIP3    H134159   1.585   3.370   6.936
 4200TIP3    H234160   1.692   3.371   7.043
 4201TIP3   OH234161   5.358   0.086   6.038
 4201TIP3    H134162   5.382   0.047   5.954
 4201TIP3    H234163   5.277   0.134   6.020
 4202TIP3   OH234164   2.235   2.263   7.473
 4202TIP3    H134165   2.181   2.341   7.483
 4202TIP3    H234166   2.301   2.287   7.407
 4203TIP3   OH234167   5.189   5.989   7.980
 4203TIP3    H134168   5.258   6.055   7.989
 4203TIP3    H234169   5.224   5.911   8.023
 4204TIP3   OH234170   6.078   4.467   1.142
 4204TIP3    H134171   6.088   4.405   1.071
 4204TIP3    H234172   6.068   4.413   1.220
 4205TIP3   OH234173   6.560   6.081   2.145
 4205TIP3    H134174   6.549   6.158   2.201
 4205TIP3    H234175   6.588   6.012   2.205
 4206TIP3   OH234176   5.300   4.887   7.959
 4206TIP3    H134177   5.366   4.822   7.933
 4206TIP3    H234178   5.296   4.949   7.886
 4207TIP3   OH234179   0.180   1.026   7.354
 4207TIP3    H134180   0.224   1.042   7.437
 4207TIP3    H234181   0.107   0.969   7.376
 4208TIP3   OH234182   3.564   1.330   8.583
 4208TIP3    H134183   3.612   1.340   0.062
 4208TIP3    H234184   3.503   1.257   8.599
 4209TIP3   OH234185   2.080   4.004   6.498
 4209TIP3    H134186   2.040   3.918   6.502
 4209TIP3    H234187   2.062   4.043   6.584
 4210TIP3   OH234188   3.476   3.244   6.373
 4210TIP3    H134189   3.384   3.235   6.351
 4210TIP3    H234190   3.477   3.300   6.451
 4211TIP3   OH234191   2.935   5.777   1.206
 4211TIP3    H134192   2.981   5.753   1.287
 4211TIP3    H234193   2.988   5.846   1.167
 4212TIP3   OH234194   0.821   2.319   7.822
 4212TIP3    H134195   0.896   2.301   7.879
 4212TIP3    H234196   0.856   2.380   7.756
 4213TIP3   OH234197   1.051   5.583   7.943
 4213TIP3    H134198   1.019   5.646   8.008
 4213TIP3    H234199   1.026   5.498   7.979
 4214TIP3   OH234200   5.045   2.887   1.047
 4214TIP3    H134201   5.044   2.858   1.138
 4214TIP3    H234202   4.958   2.927   1.034
 4215TIP3   OH234203   5.670   3.361   0.025
 4215TIP3    H134204   5.683   3.292   0.090
 4215TIP3    H234205   5.750   3.357   8.574
 4216TIP3   OH234206   4.503   2.677   7.956
 4216TIP3    H134207   4.563   2.751   7.958
 4216TIP3    H234208   4.557   2.604   7.925
 4217TIP3   OH234209   4.754   2.968   6.831
 4217TIP3    H134210   4.848   2.986   6.828
 4217TIP3    H234211   4.722   3.018   6.906
 4218TIP3   OH234212   6.035   0.135   8.216
 4218TIP3    H134213   5.943   0.110   8.211
 4218TIP3    H234214   6.044   0.208   8.155
 4219TIP3   OH234215   3.266   0.360   0.061
 4219TIP3    H134216   3.326   0.342   8.592
 4219TIP3    H234217   3.246   0.273   0.097
 4220TIP3   OH234218   3.701   1.011   0.576
 4220TIP3    H134219   3.654   0.927   0.580
 4220TIP3    H234220   3.756   1.004   0.499
 4221TIP3   OH234221   5.206   3.219   7.106
 4221TIP3    H134222   5.277   3.276   7.077
 4221TIP3    H234223   5.204   3.231   7.201
 4222TIP3   OH234224   3.999   0.364   7.711
 4222TIP3    H134225   3.927   0.321   7.757
 4222TIP3    H234226   3.957   0.429   7.655
 4223TIP3   OH234227   1.509   1.308   8.132
 4223TIP3    H134228   1.535   1.389   8.175
 4223TIP3    H234229   1.498   1.245   8.203
 4224TIP3   OH234230   2.793   4.833   0.461
 4224TIP3    H134231   2.774   4.919   0.424
 4224TIP3    H234232   2.708   4.803   0.495
 4225TIP3   OH234233   1.617   6.648   1.146
 4225TIP3    H134234   1.581   6.598   1.220
 4225TIP3    H234235   1.543   6.659   1.087
 4226TIP3   OH234236   3.895   1.196   6.488
 4226TIP3    H134237   3.921   1.262   6.552
 4226TIP3    H234238   3.970   1.188   6.429
 4227TIP3   OH234239   0.074   3.304   0.064
 4227TIP3    H134240   0.017   3.366   0.019
 4227TIP3    H234241   0.099   3.349   0.145
 4228TIP3   OH234242   1.628   1.323   1.198
 4228TIP3    H134243   1.534   1.308   1.183
 4228TIP3    H234244   1.647   1.275   1.279
 4229TIP3   OH234245   2.891   2.731   7.749
 4229TIP3    H134246   2.843   2.715   7.668
 4229TIP3    H234247   2.853   2.811   7.785
 4230TIP3   OH234248   2.789   5.279   7.504
 4230TIP3    H134249   2.784   5.198   7.454
 4230TIP3    H234250   2.859   5.329   7.461
 4231TIP3   OH234251   3.658   3.158   0.377
 4231TIP3    H134252   3.735   3.187   0.328
 4231TIP3    H234253   3.692   3.091   0.436
 4232TIP3   OH234254   2.256   4.041   7.420
 4232TIP3    H134255   2.324   3.999   7.367
 4232TIP3    H234256   2.272   4.135   7.408
 4233TIP3   OH234257   2.505   5.270   7.585
 4233TIP3    H134258   2.454   5.239   7.511
 4233TIP3    H234259   2.594   5.279   7.551
 4234TIP3   OH234260   2.854   1.666   8.224
 4234TIP3    H134261   2.930   1.724   8.224
 4234TIP3    H234262   2.890   1.581   8.198
 4235TIP3   OH234263   4.762   4.134   1.121
 4235TIP3    H134264   4.669   4.159   1.118
 4235TIP3    H234265   4.806   4.198   1.065
 4236TIP3   OH234266   3.966   6.609   8.044
 4236TIP3    H134267   3.959   6.516   8.026
 4236TIP3    H234268   4.046   6.618   8.096
 4237TIP3   OH234269   2.272   0.189   7.387
 4237TIP3    H134270   2.270   0.285   7.385
 4237TIP3    H234271   2.365   0.167   7.389
 4238TIP3   OH234272   1.354   3.199   7.344
 4238TIP3    H134273   1.396   3.261   7.285
 4238TIP3    H234274   1.422   3.176   7.407
 4239TIP3   OH234275   6.532   1.716   7.317
 4239TIP3    H134276   6.588   1.734   7.392
 4239TIP3    H234277   6.588   1.729   7.241
 4240TIP3   OH234278   4.357   0.197   2.253
 4240TIP3    H134279   4.438   0.247   2.262
 4240TIP3    H234280   4.372   0.118   2.305
 4241TIP3   OH234281   3.880   0.914   1.201
 4241TIP3    H134282   3.794   0.921   1.242
 4241TIP3    H234283   3.942   0.924   1.274
 4242TIP3   OH234284   2.941   1.764   1.914
 4242TIP3    H134285   2.937   1.670   1.932
 4242TIP3    H234286   3.014   1.796   1.968
 4243TIP3   OH234287   4.373   1.839   7.128
 4243TIP3    H134288   4.363   1.745   7.116
 4243TIP3    H234289   4.447   1.849   7.186
 4244TIP3   OH234290   3.715   4.471   0.911
 4244TIP3    H134291   3.757   4.517   0.838
 4244TIP3    H234292   3.731   4.528   0.986
 4245TIP3   OH234293   3.127   6.309   6.888
 4245TIP3    H134294   3.148   6.402   6.897
 4245TIP3    H234295   3.151   6.270   6.972
 4246TIP3   OH234296   2.157   1.091   1.269
 4246TIP3    H134297   2.140   1.159   1.204
 4246TIP3    H234298   2.075   1.043   1.277
 4247TIP3   OH234299   0.459   0.350   0.020
 4247TIP3    H134300   0.433   0.301   8.545
 4247TIP3    H234301   0.476   0.283   0.086
 4248TIP3   OH234302   2.707   3.072   8.194
 4248TIP3    H134303   2.793   3.033   8.210
 4248TIP3    H234304   2.698   3.074   8.099
 4249TIP3   OH234305   5.493   3.284   7.336
 4249TIP3    H134306   5.541   3.213   7.295
 4249TIP3    H234307   5.518   3.281   7.428
 4250TIP3   OH234308   0.587   5.125   7.983
 4250TIP3    H134309   0.519   5.176   8.026
 4250TIP3    H234310   0.547   5.097   7.900
 4251TIP3   OH234311   2.077   2.634   0.353
 4251TIP3    H134312   1.982   2.647   0.349
 4251TIP3    H234313   2.097   2.576   0.279
 4252TIP3   OH234314   6.750   6.846   0.371
 4252TIP3    H134315   6.779   6.878   0.286
 4252TIP3    H234316   6.820   6.872   0.431
 4253TIP3   OH234317   1.855   1.182   1.415
 4253TIP3    H134318   1.927   1.244   1.412
 4253TIP3    H234319   1.803   1.208   1.491
 4254TIP3   OH234320   5.298   2.837   2.708
 4254TIP3    H134321   5.337   2.769   2.653
 4254TIP3    H234322   5.285   2.795   2.793
 4255TIP3   OH234323   1.589   5.651   0.451
 4255TIP3    H134324   1.614   5.649   0.359
 4255TIP3    H234325   1.670   5.674   0.497
 4256TIP3   OH234326   0.776   5.019   6.439
 4256TIP3    H134327   0.843   5.081   6.467
 4256TIP3    H234328   0.701   5.073   6.415
 4257TIP3   OH234329   0.082   4.027   8.344
 4257TIP3    H134330   0.168   4.067   8.331
 4257TIP3    H234331   0.027   4.066   8.276
 4258TIP3   OH234332   2.830   3.417   1.233
 4258TIP3    H134333   2.765   3.484   1.256
 4258TIP3    H234334   2.898   3.427   1.299
 4259TIP3   OH234335   5.159   0.851   7.890
 4259TIP3    H134336   5.065   0.836   7.892
 4259TIP3    H234337   5.193   0.786   7.828
 4260TIP3   OH234338   1.917   3.579   0.904
 4260TIP3    H134339   1.964   3.526   0.840
 4260TIP3    H234340   1.874   3.647   0.852
 4261TIP3   OH234341   1.864   3.779   7.612
 4261TIP3    H134342   1.804   3.734   7.671
 4261TIP3    H234343   1.889   3.859   7.658
 4262TIP3   OH234344   4.013   3.584   1.175
 4262TIP3    H134345   4.031   3.674   1.202
 4262TIP3    H234346   3.965   3.546   1.249
 4263TIP3   OH234347   1.884   5.465   0.953
 4263TIP3    H134348   1.813   5.429   1.006
 4263TIP3    H234349   1.959   5.466   1.012
 4264TIP3   OH234350   3.170   3.045   0.826
 4264TIP3    H134351   3.092   3.053   0.770
 4264TIP3    H234352   3.239   3.014   0.767
 4265TIP3   OH234353   5.122   1.947   1.665
 4265TIP3    H134354   5.174   2.027   1.669
 4265TIP3    H234355   5.039   1.975   1.626
 4266TIP3   OH234356   6.711   3.677   6.872
 4266TIP3    H134357   6.642   3.722   6.824
 4266TIP3    H234358   6.705   3.586   6.843
 4267TIP3   OH234359   6.224   6.109   2.231
 4267TIP3    H134360   6.253   6.019   2.246
 4267TIP3    H234361   6.305   6.158   2.215
 4268TIP3   OH234362   0.972   2.095   8.022
 4268TIP3    H134363   0.994   2.188   8.029
 4268TIP3    H234364   0.884   2.095   7.985
 4269TIP3   OH234365   4.203   3.279   0.245
 4269TIP3    H134366   4.225   3.349   0.307
 4269TIP3    H234367   4.110   3.293   0.226
 4270TIP3   OH234368   3.951   6.336   7.972
 4270TIP3    H134369   3.958   6.260   8.030
 4270TIP3    H234370   4.026   6.327   7.913
 4271TIP3   OH234371   2.229   4.421   0.133
 4271TIP3    H134372   2.272   4.486   0.077
 4271TIP3    H234373   2.191   4.358   0.071
 4272TIP3   OH234374   2.989   2.545   1.139
 4272TIP3    H134375   2.943   2.537   1.055
 4272TIP3    H234376   3.082   2.537   1.115
 4273TIP3   OH234377   6.412   2.859   8.039
 4273TIP3    H134378   6.383   2.942   8.002
 4273TIP3    H234379   6.462   2.817   7.969
 4274TIP3   OH234380   1.201   3.353   7.147
 4274TIP3    H134381   1.215   3.447   7.151
 4274TIP3    H234382   1.205   3.333   7.053
 4275TIP3   OH234383   0.519   2.523   1.654
 4275TIP3    H134384   0.569   2.601   1.629
 4275TIP3    H234385   0.561   2.493   1.735
 4276TIP3   OH234386   0.347   3.296   1.196
 4276TIP3    H134387   0.326   3.202   1.191
 4276TIP3    H234388   0.362   3.322   1.105
 4277TIP3   OH234389   0.146   6.862   6.359
 4277TIP3    H134390   0.210   6.799   6.325
 4277TIP3    H234391   0.166   0.031   6.312
 4278TIP3   OH234392   3.668   6.009   0.415
 4278TIP3    H134393   3.646   5.937   0.355
 4278TIP3    H234394   3.673   6.086   0.358
 4279TIP3   OH234395   3.252   2.315   0.390
 4279TIP3    H134396   3.248   2.377   0.462
 4279TIP3    H234397   3.336   2.332   0.347
 4280TIP3   OH234398   3.130   1.874   7.395
 4280TIP3    H134399   3.216   1.856   7.434
 4280TIP3    H234400   3.069   1.821   7.447
 4281TIP3   OH234401   4.239   1.345   2.817
 4281TIP3    H134402   4.232   1.310   2.729
 4281TIP3    H234403   4.255   1.269   2.873
 4282TIP3   OH234404   1.904   6.491   7.040
 4282TIP3    H134405   1.938   6.574   7.073
 4282TIP3    H234406   1.921   6.494   6.946
 4283TIP3   OH234407   2.428   3.398   7.433
 4283TIP3    H134408   2.450   3.460   7.364
 4283TIP3    H234409   2.508   3.390   7.485
 4284TIP3   OH234410   0.936   5.090   0.229
 4284TIP3    H134411   0.964   5.175   0.264
 4284TIP3    H234412   0.908   5.041   0.306
 4285TIP3   OH234413   3.044   0.727   1.709
 4285TIP3    H134414   3.080   0.745   1.796
 4285TIP3    H234415   3.014   0.636   1.715
 4286TIP3   OH234416   5.057   2.371   7.847
 4286TIP3    H134417   5.116   2.447   7.849
 4286TIP3    H234418   5.019   2.373   7.759
 4287TIP3   OH234419   2.860   0.099   1.127
 4287TIP3    H134420   2.799   0.157   1.081
 4287TIP3    H234421   2.938   0.098   1.072
 4288TIP3   OH234422   1.331   3.112   7.765
 4288TIP3    H134423   1.351   3.206   7.757
 4288TIP3    H234424   1.277   3.106   7.844
 4289TIP3   OH234425   2.182   2.174   0.258
 4289TIP3    H134426   2.253   2.125   0.217
 4289TIP3    H234427   2.107   2.114   0.255
 4290TIP3   OH234428   3.090   3.426   2.349
 4290TIP3    H134429   3.139   3.344   2.352
 4290TIP3    H234430   3.019   3.409   2.287
 4291TIP3   OH234431   2.393   4.039   8.205
 4291TIP3    H134432   2.388   4.117   8.150
 4291TIP3    H234433   2.475   3.997   8.179
 4292TIP3   OH234434   0.154   4.314   8.291
 4292TIP3    H134435   0.146   4.363   8.210
 4292TIP3    H234436   0.218   4.364   8.343
 4293TIP3   OH234437   5.289   3.918   7.403
 4293TIP3    H134438   5.341   3.961   7.335
 4293TIP3    H234439   5.215   3.881   7.356
 4294TIP3   OH234440   0.942   0.851   7.540
 4294TIP3    H134441   0.941   0.756   7.551
 4294TIP3    H234442   0.961   0.885   7.628
 4295TIP3   OH234443   2.547   5.984   6.942
 4295TIP3    H134444   2.526   5.958   7.032
 4295TIP3    H234445   2.642   5.995   6.942
 4296TIP3   OH234446   5.811   2.905   0.180
 4296TIP3    H134447   5.827   2.842   0.109
 4296TIP3    H234448   5.730   2.949   0.155
 4297TIP3   OH234449   5.845   5.731   6.957
 4297TIP3    H134450   5.925   5.680   6.945
 4297TIP3    H234451   5.849   5.763   7.047
 4298TIP3   OH234452   2.205   0.843   0.838
 4298TIP3    H134453   2.160   0.921   0.808
 4298TIP3    H234454   2.266   0.874   0.904
 4299TIP3   OH234455   5.248   5.640   0.929
 4299TIP3    H134456   5.254   5.735   0.919
 4299TIP3    H234457   5.226   5.608   0.842
 4300TIP3   OH234458   4.651   3.689   0.426
 4300TIP3    H134459   4.733   3.654   0.461
 4300TIP3    H234460   4.583   3.644   0.477
 4301TIP3   OH234461   5.703   0.667   2.511
 4301TIP3    H134462   5.760   0.597   2.480
 4301TIP3    H234463   5.664   0.633   2.591
 4302TIP3   OH234464   6.271   4.090   0.003
 4302TIP3    H134465   6.321   4.010   8.591
 4302TIP3    H234466   6.194   4.061   0.052
 4303TIP3   OH234467   4.627   3.127   0.009
 4303TIP3    H134468   4.708   3.176   8.596
 4303TIP3    H234469   4.558   3.186   8.583
 4304TIP3   OH234470   0.266   2.259   7.912
 4304TIP3    H134471   0.189   2.307   7.943
 4304TIP3    H234472   0.331   2.326   7.895
 4305TIP3   OH234473   1.285   2.414   8.571
 4305TIP3    H134474   1.239   2.394   0.049
 4305TIP3    H234475   1.289   2.331   8.524
 4306TIP3   OH234476   5.927   0.403   0.476
 4306TIP3    H134477   5.942   0.488   0.518
 4306TIP3    H234478   5.834   0.387   0.489
 4307TIP3   OH234479   1.829   2.857   0.158
 4307TIP3    H134480   1.903   2.838   0.216
 4307TIP3    H234481   1.779   2.776   0.156
 4308TIP3   OH234482   6.621   1.366   8.473
 4308TIP3    H134483   6.670   1.388   8.552
 4308TIP3    H234484   6.530   1.386   8.496
 4309TIP3   OH234485   4.901   3.186   1.838
 4309TIP3    H134486   4.908   3.237   1.918
 4309TIP3    H234487   4.860   3.104   1.865
 4310TIP3   OH234488   4.117   1.727   0.554
 4310TIP3    H134489   4.211   1.742   0.554
 4310TIP3    H234490   4.105   1.645   0.506
 4311TIP3   OH234491   5.375   5.895   6.861
 4311TIP3    H134492   5.460   5.851   6.856
 4311TIP3    H234493   5.326   5.862   6.786
 4312TIP3   OH234494   1.693   4.563   7.781
 4312TIP3    H134495   1.695   4.599   7.869
 4312TIP3    H234496   1.607   4.586   7.747
 4313TIP3   OH234497   0.681   0.409   7.510
 4313TIP3    H134498   0.674   0.330   7.456
 4313TIP3    H234499   0.705   0.478   7.449
 4314TIP3   OH234500   4.470   4.287   7.121
 4314TIP3    H134501   4.560   4.293   7.090
 4314TIP3    H234502   4.426   4.230   7.058
 4315TIP3   OH234503   6.111   5.645   1.398
 4315TIP3    H134504   6.154   5.716   1.446
 4315TIP3    H234505   6.102   5.576   1.463
 4316TIP3   OH234506   3.522   4.261   1.648
 4316TIP3    H134507   3.446   4.274   1.591
 4316TIP3    H234508   3.521   4.335   1.708
 4317TIP3   OH234509   1.782   6.852   1.163
 4317TIP3    H134510   1.796   6.854   1.257
 4317TIP3    H234511   1.710   6.790   1.151
 4318TIP3   OH234512   1.311   1.443   7.865
 4318TIP3    H134513   1.343   1.411   7.949
 4318TIP3    H234514   1.312   1.538   7.873
 4319TIP3   OH234515   1.342   5.554   2.270
 4319TIP3    H134516   1.270   5.572   2.209
 4319TIP3    H234517   1.364   5.640   2.306
 4320TIP3   OH234518   0.912   0.785   0.554
 4320TIP3    H134519   0.870   0.743   0.479
 4320TIP3    H234520   1.005   0.787   0.532
 4321TIP3   OH234521   1.369   3.818   7.678
 4321TIP3    H134522   1.313   3.889   7.647
 4321TIP3    H234523   1.441   3.815   7.614
 4322TIP3   OH234524   5.182   3.775   8.335
 4322TIP3    H134525   5.276   3.757   8.336
 4322TIP3    H234526   5.148   3.726   8.260
 4323TIP3   OH234527   1.620   2.554   0.055
 4323TIP3    H134528   1.616   2.524   0.146
 4323TIP3    H234529   1.619   2.473   0.003
 4324TIP3   OH234530   4.324   0.862   8.015
 4324TIP3    H134531   4.335   0.831   8.105
 4324TIP3    H234532   4.353   0.788   7.961
 4325TIP3   OH234533   3.850   5.332   1.101
 4325TIP3    H134534   3.906   5.342   1.024
 4325TIP3    H234535   3.792   5.260   1.079
 4326TIP3   OH234536   0.613   4.798   0.983
 4326TIP3    H134537   0.614   4.755   0.897
 4326TIP3    H234538   0.530   4.771   1.022
 4327TIP3   OH234539   0.250   0.999   8.053
 4327TIP3    H134540   0.182   1.035   7.996
 4327TIP3    H234541   0.308   0.950   7.994
 4328TIP3   OH234542   6.273   6.729   8.287
 4328TIP3    H134543   6.344   6.678   8.326
 4328TIP3    H234544   6.313   6.771   8.210
 4329TIP3   OH234545   1.558   0.332   6.565
 4329TIP3    H134546   1.479   0.281   6.585
 4329TIP3    H234547   1.609   0.275   6.508
 4330TIP3   OH234548   4.633   5.336   8.172
 4330TIP3    H134549   4.692   5.286   8.228
 4330TIP3    H234550   4.562   5.276   8.152
 4331TIP3   OH234551   1.051   6.278   8.030
 4331TIP3    H134552   1.024   6.284   7.938
 4331TIP3    H234553   1.041   6.186   8.052
 4332TIP3   OH234554   4.682   6.655   8.108
 4332TIP3    H134555   4.621   6.623   8.041
 4332TIP3    H234556   4.717   6.736   8.072
 4333TIP3   OH234557   1.409   6.760   2.300
 4333TIP3    H134558   1.407   6.669   2.331
 4333TIP3    H234559   1.429   6.811   2.378
 4334TIP3   OH234560   5.490   2.843   7.857
 4334TIP3    H134561   5.469   2.843   7.951
 4334TIP3    H234562   5.556   2.913   7.848
 4335TIP3   OH234563   3.685   4.784   0.696
 4335TIP3    H134564   3.742   4.714   0.664
 4335TIP3    H234565   3.597   4.750   0.682
 4336TIP3   OH234566   0.358   0.801   6.973
 4336TIP3    H134567   0.342   0.779   6.882
 4336TIP3    H234568   0.450   0.830   6.975
 4337TIP3   OH234569   1.410   2.956   8.428
 4337TIP3    H134570   1.399   2.863   8.447
 4337TIP3    H234571   1.353   3.001   8.490
 4338TIP3   OH234572   6.099   4.553   7.969
 4338TIP3    H134573   6.130   4.630   7.922
 4338TIP3    H234574   6.108   4.576   8.062
 4339TIP3   OH234575   1.204   1.130   8.278
 4339TIP3    H134576   1.194   1.130   8.374
 4339TIP3    H234577   1.144   1.062   8.248
 4340TIP3   OH234578   3.860   4.560   0.702
 4340TIP3    H134579   3.833   4.504   0.629
 4340TIP3    H234580   3.954   4.543   0.712
 4341TIP3   OH234581   0.774   3.514   7.732
 4341TIP3    H134582   0.744   3.523   7.642
 4341TIP3    H234583   0.843   3.448   7.728
 4342TIP3   OH234584   0.680   6.450   7.834
 4342TIP3    H134585   0.653   6.454   7.926
 4342TIP3    H234586   0.647   6.366   7.803
 4343TIP3   OH234587   1.596   4.692   0.707
 4343TIP3    H134588   1.666   4.629   0.722
 4343TIP3    H234589   1.630   4.751   0.640
 4344TIP3   OH234590   2.890   3.815   7.909
 4344TIP3    H134591   2.948   3.785   7.979
 4344TIP3    H234592   2.932   3.894   7.875
 4345TIP3   OH234593   6.237   3.002   1.559
 4345TIP3    H134594   6.264   2.940   1.627
 4345TIP3    H234595   6.142   2.994   1.556
 4346TIP3   OH234596   2.053   3.583   7.554
 4346TIP3    H134597   1.993   3.657   7.562
 4346TIP3    H234598   2.023   3.536   7.477
 4347TIP3   OH234599   6.186   5.362   7.021
 4347TIP3    H134600   6.175   5.340   7.114
 4347TIP3    H234601   6.110   5.321   6.978
 4348TIP3   OH234602   6.799   1.439   7.928
 4348TIP3    H134603   6.784   1.379   8.001
 4348TIP3    H234604   6.744   1.515   7.948
 4349TIP3   OH234605   1.691   2.421   1.190
 4349TIP3    H134606   1.753   2.402   1.261
 4349TIP3    H234607   1.624   2.354   1.199
 4350TIP3   OH234608   0.475   0.759   1.111
 4350TIP3    H134609   0.531   0.700   1.160
 4350TIP3    H234610   0.488   0.733   1.019
 4351TIP3   OH234611   0.348   0.119   8.460
 4351TIP3    H134612   0.273   0.060   8.472
 4351TIP3    H234613   0.388   0.089   8.378
 4352TIP3   OH234614   2.075   4.989   8.244
 4352TIP3    H134615   2.157   4.940   8.238
 4352TIP3    H234616   2.102   5.081   8.240
 4353TIP3   OH234617   4.792   2.788   7.779
 4353TIP3    H134618   4.719   2.744   7.736
 4353TIP3    H234619   4.753   2.833   7.854
 4354TIP3   OH234620   5.268   1.321   1.986
 4354TIP3    H134621   5.288   1.229   1.972
 4354TIP3    H234622   5.353   1.365   1.986
 4355TIP3   OH234623   6.537   0.246   7.892
 4355TIP3    H134624   6.473   0.304   7.934
 4355TIP3    H234625   6.489   0.164   7.878
 4356TIP3   OH234626   0.494   4.999   7.755
 4356TIP3    H134627   0.416   4.944   7.743
 4356TIP3    H234628   0.566   4.948   7.719
 4357TIP3   OH234629   3.743   3.951   7.204
 4357TIP3    H134630   3.766   3.917   7.290
 4357TIP3    H234631   3.653   3.920   7.189
 4358TIP3   OH234632   1.998   1.558   0.688
 4358TIP3    H134633   1.945   1.606   0.752
 4358TIP3    H234634   1.989   1.466   0.714
 4359TIP3   OH234635   1.691   1.326   7.616
 4359TIP3    H134636   1.633   1.275   7.672
 4359TIP3    H234637   1.777   1.288   7.630
 4360TIP3   OH234638   1.311   3.377   0.609
 4360TIP3    H134639   1.241   3.389   0.673
 4360TIP3    H234640   1.383   3.430   0.641
 4361TIP3   OH234641   5.953   3.087   1.290
 4361TIP3    H134642   5.965   3.148   1.363
 4361TIP3    H234643   5.975   3.001   1.327
 4362TIP3   OH234644   5.626   4.338   7.053
 4362TIP3    H134645   5.632   4.242   7.046
 4362TIP3    H234646   5.706   4.364   7.098
 4363TIP3   OH234647   0.849   2.889   0.960
 4363TIP3    H134648   0.844   2.904   0.865
 4363TIP3    H234649   0.760   2.906   0.991
 4364TIP3   OH234650   3.587   6.584   2.372
 4364TIP3    H134651   3.644   6.541   2.437
 4364TIP3    H234652   3.647   6.638   2.321
 4365TIP3   OH234653   3.276   5.306   0.284
 4365TIP3    H134654   3.325   5.302   0.202
 4365TIP3    H234655   3.184   5.297   0.257
 4366TIP3   OH234656   4.443   1.805   7.770
 4366TIP3    H134657   4.457   1.878   7.710
 4366TIP3    H234658   4.489   1.731   7.731
 4367TIP3   OH234659   3.717   0.997   6.379
 4367TIP3    H134660   3.709   0.932   6.448
 4367TIP3    H234661   3.784   1.058   6.410
 4368TIP3   OH234662   0.175   4.351   0.784
 4368TIP3    H134663   0.117   4.427   0.789
 4368TIP3    H234664   0.240   4.367   0.853
 4369TIP3   OH234665   3.195   0.161   0.238
 4369TIP3    H134666   3.115   0.109   0.246
 4369TIP3    H234667   3.257   0.122   0.300
 4370TIP3   OH234668   4.743   5.959   2.602
 4370TIP3    H134669   4.766   6.019   2.531
 4370TIP3    H234670   4.804   5.983   2.673
 4371TIP3   OH234671   4.621   2.654   2.561
 4371TIP3    H134672   4.561   2.628   2.491
 4371TIP3    H234673   4.592   2.604   2.638
 4372TIP3   OH234674   3.597   5.451   6.815
 4372TIP3    H134675   3.668   5.414   6.763
 4372TIP3    H234676   3.641   5.501   6.884
 4373TIP3   OH234677   1.308   6.822   1.373
 4373TIP3    H134678   1.287   6.732   1.397
 4373TIP3    H234679   1.223   6.865   1.364
 4374TIP3   OH234680   1.888   6.437   6.748
 4374TIP3    H134681   1.832   6.360   6.736
 4374TIP3    H234682   1.967   6.417   6.698
 4375TIP3   OH234683   3.177   1.671   8.031
 4375TIP3    H134684   3.125   1.596   8.062
 4375TIP3    H234685   3.255   1.669   8.086
 4376TIP3   OH234686   3.776   0.361   7.865
 4376TIP3    H134687   3.684   0.362   7.839
 4376TIP3    H234688   3.797   0.452   7.886
 4377TIP3   OH234689   4.217   2.014   1.379
 4377TIP3    H134690   4.224   1.982   1.469
 4377TIP3    H234691   4.266   1.950   1.327
 4378TIP3   OH234692   0.111   5.548   0.970
 4378TIP3    H134693   0.166   5.615   1.009
 4378TIP3    H234694   0.036   5.541   1.029
 4379TIP3   OH234695   1.974   6.713   0.431
 4379TIP3    H134696   1.958   6.674   0.345
 4379TIP3    H234697   1.887   6.732   0.466
 4380TIP3   OH234698   3.916   6.150   6.955
 4380TIP3    H134699   3.863   6.071   6.968
 4380TIP3    H234700   3.970   6.154   7.034
 4381TIP3   OH234701   1.433   6.054   7.139
 4381TIP3    H134702   1.496   6.118   7.107
 4381TIP3    H234703   1.419   5.994   7.066
 4382TIP3   OH234704   0.889   6.848   1.145
 4382TIP3    H134705   0.799   6.879   1.153
 4382TIP3    H234706   0.884   6.753   1.157
 4383TIP3   OH234707   4.773   5.471   7.235
 4383TIP3    H134708   4.845   5.487   7.174
 4383TIP3    H234709   4.814   5.470   7.321
 4384TIP3   OH234710   3.426   5.418   0.061
 4384TIP3    H134711   3.424   5.338   0.009
 4384TIP3    H234712   3.519   5.431   0.082
 4385TIP3   OH234713   2.767   2.797   0.824
 4385TIP3    H134714   2.684   2.822   0.785
 4385TIP3    H234715   2.755   2.809   0.918
 4386TIP3   OH234716   6.355   0.108   0.962
 4386TIP3    H134717   6.261   0.105   0.977
 4386TIP3    H234718   6.377   0.020   0.932
 4387TIP3   OH234719   5.392   4.299   1.144
 4387TIP3    H134720   5.345   4.266   1.221
 4387TIP3    H234721   5.337   4.275   1.070
 4388TIP3   OH234722   2.071   1.742   7.974
 4388TIP3    H134723   2.062   1.782   7.888
 4388TIP3    H234724   2.165   1.751   7.994
 4389TIP3   OH234725   2.292   6.699   0.446
 4389TIP3    H134726   2.215   6.661   0.488
 4389TIP3    H234727   2.258   6.777   0.401
 4390TIP3   OH234728   2.497   5.203   0.411
 4390TIP3    H134729   2.410   5.208   0.452
 4390TIP3    H234730   2.557   5.227   0.481
 4391TIP3   OH234731   1.944   2.927   7.116
 4391TIP3    H134732   1.953   2.886   7.030
 4391TIP3    H234733   1.850   2.933   7.131
 4392TIP3   OH234734   6.587   3.982   1.961
 4392TIP3    H134735   6.520   3.928   2.003
 4392TIP3    H234736   6.660   3.981   2.022
 4393TIP3   OH234737   3.791   2.352   8.391
 4393TIP3    H134738   3.710   2.368   8.438
 4393TIP3    H234739   3.844   2.301   8.452
 4394TIP3   OH234740   0.817   6.887   6.940
 4394TIP3    H134741   0.745   6.885   7.004
 4394TIP3    H234742   0.794   6.818   6.877
 4395TIP3   OH234743   4.230   4.846   7.032
 4395TIP3    H134744   4.232   4.806   6.945
 4395TIP3    H234745   4.279   4.927   7.022
 4396TIP3   OH234746   0.336   4.795   2.006
 4396TIP3    H134747   0.307   4.875   1.963
 4396TIP3    H234748   0.268   4.731   1.987
 4397TIP3   OH234749   1.538   2.493   0.303
 4397TIP3    H134750   1.523   2.400   0.321
 4397TIP3    H234751   1.537   2.533   0.390
 4398TIP3   OH234752   2.003   2.651   0.647
 4398TIP3    H134753   2.013   2.609   0.562
 4398TIP3    H234754   1.938   2.720   0.633
 4399TIP3   OH234755   2.573   3.175   0.107
 4399TIP3    H134756   2.536   3.262   0.090
 4399TIP3    H234757   2.565   3.163   0.201
 4400TIP3   OH234758   3.219   6.250   1.004
 4400TIP3    H134759   3.292   6.188   1.010
 4400TIP3    H234760   3.215   6.275   0.912
 4401TIP3   OH234761   5.659   2.564   0.737
 4401TIP3    H134762   5.753   2.569   0.718
 4401TIP3    H234763   5.653   2.570   0.832
 4402TIP3   OH234764   6.569   2.576   6.911
 4402TIP3    H134765   6.593   2.544   6.998
 4402TIP3    H234766   6.533   2.663   6.926
 4403TIP3   OH234767   4.730   1.827   6.827
 4403TIP3    H134768   4.702   1.792   6.743
 4403TIP3    H234769   4.822   1.848   6.816
 4404TIP3   OH234770   4.023   5.184   0.381
 4404TIP3    H134771   4.019   5.146   0.293
 4404TIP3    H234772   3.942   5.156   0.423
 4405TIP3   OH234773   4.117   5.684   6.556
 4405TIP3    H134774   4.114   5.779   6.571
 4405TIP3    H234775   4.110   5.674   6.461
 4406TIP3   OH234776   5.209   1.223   0.872
 4406TIP3    H134777   5.132   1.272   0.843
 4406TIP3    H234778   5.221   1.155   0.806
 4407TIP3   OH234779   3.640   0.575   8.394
 4407TIP3    H134780   3.719   0.575   8.339
 4407TIP3    H234781   3.673   0.599   8.481
 4408TIP3   OH234782   1.159   1.421   0.133
 4408TIP3    H134783   1.223   1.430   0.204
 4408TIP3    H234784   1.077   1.450   0.171
 4409TIP3   OH234785   6.527   2.067   8.479
 4409TIP3    H134786   6.549   2.156   8.508
 4409TIP3    H234787   6.604   2.015   8.500
 4410TIP3   OH234788   2.741   2.973   7.757
 4410TIP3    H134789   2.668   3.006   7.811
 4410TIP3    H234790   2.801   3.047   7.750
 4411TIP3   OH234791   1.701   5.643   0.813
 4411TIP3    H134792   1.756   5.595   0.875
 4411TIP3    H234793   1.669   5.576   0.752
 4412TIP3   OH234794   5.293   0.953   8.092
 4412TIP3    H134795   5.246   0.934   8.011
 4412TIP3    H234796   5.225   0.960   8.158
 4413TIP3   OH234797   5.092   4.749   7.337
 4413TIP3    H134798   5.137   4.666   7.319
 4413TIP3    H234799   5.014   4.747   7.282
 4414TIP3   OH234800   4.929   4.770   0.537
 4414TIP3    H134801   4.939   4.840   0.472
 4414TIP3    H234802   5.019   4.745   0.559
 4415TIP3   OH234803   1.957   0.623   1.516
 4415TIP3    H134804   2.047   0.626   1.548
 4415TIP3    H234805   1.934   0.714   1.497
 4416TIP3   OH234806   0.559   0.856   6.687
 4416TIP3    H134807   0.469   0.825   6.679
 4416TIP3    H234808   0.580   0.846   6.780
 4417TIP3   OH234809   3.842   0.391   1.304
 4417TIP3    H134810   3.784   0.343   1.245
 4417TIP3    H234811   3.794   0.395   1.387
 4418TIP3   OH234812   1.055   5.665   1.027
 4418TIP3    H134813   1.145   5.698   1.028
 4418TIP3    H234814   1.053   5.603   0.955
 4419TIP3   OH234815   3.826   3.307   0.799
 4419TIP3    H134816   3.893   3.319   0.731
 4419TIP3    H234817   3.782   3.391   0.805
 4420TIP3   OH234818   3.340   3.868   6.697
 4420TIP3    H134819   3.367   3.782   6.730
 4420TIP3    H234820   3.353   3.927   6.771
 4421TIP3   OH234821   5.457   6.096   1.617
 4421TIP3    H134822   5.439   6.015   1.665
 4421TIP3    H234823   5.525   6.072   1.554
 4422TIP3   OH234824   1.771   1.596   1.305
 4422TIP3    H134825   1.861   1.609   1.335
 4422TIP3    H234826   1.774   1.513   1.258
 4423TIP3   OH234827   4.345   0.150   1.268
 4423TIP3    H134828   4.336   0.134   1.174
 4423TIP3    H234829   4.347   0.062   1.306
 4424TIP3   OH234830   3.201   0.164   0.576
 4424TIP3    H134831   3.171   0.250   0.546
 4424TIP3    H234832   3.254   0.130   0.504
 4425TIP3   OH234833   2.307   3.878   6.664
 4425TIP3    H134834   2.259   3.865   6.582
 4425TIP3    H234835   2.365   3.952   6.647
 4426TIP3   OH234836   0.405   2.366   7.401
 4426TIP3    H134837   0.388   2.404   7.487
 4426TIP3    H234838   0.327   2.386   7.350
 4427TIP3   OH234839   5.293   3.290   0.010
 4427TIP3    H134840   5.333   3.321   0.091
 4427TIP3    H234841   5.237   3.217   0.037
 4428TIP3   OH234842   6.150   5.772   7.433
 4428TIP3    H134843   6.086   5.737   7.494
 4428TIP3    H234844   6.138   5.719   7.354
 4429TIP3   OH234845   0.998   6.052   0.264
 4429TIP3    H134846   1.049   5.982   0.305
 4429TIP3    H234847   0.926   6.006   0.220
 4430TIP3   OH234848   1.564   5.452   6.515
 4430TIP3    H134849   1.470   5.466   6.519
 4430TIP3    H234850   1.600   5.534   6.480
 4431TIP3   OH234851   2.131   6.368   0.547
 4431TIP3    H134852   2.096   6.389   0.460
 4431TIP3    H234853   2.087   6.287   0.571
 4432TIP3   OH234854   2.825   4.635   1.481
 4432TIP3    H134855   2.783   4.597   1.558
 4432TIP3    H234856   2.867   4.560   1.438
 4433TIP3   OH234857   4.250   4.680   8.542
 4433TIP3    H134858   4.220   4.692   8.452
 4433TIP3    H234859   4.250   4.585   8.554
 4434TIP3   OH234860   2.515   0.510   1.951
 4434TIP3    H134861   2.553   0.560   2.023
 4434TIP3    H234862   2.423   0.538   1.948
 4435TIP3   OH234863   0.859   5.228   1.788
 4435TIP3    H134864   0.847   5.145   1.833
 4435TIP3    H234865   0.906   5.205   1.708
 4436TIP3   OH234866   2.605   6.774   1.341
 4436TIP3    H134867   2.648   6.710   1.399
 4436TIP3    H234868   2.664   6.849   1.340
 4437TIP3   OH234869   6.375   3.800   7.736
 4437TIP3    H134870   6.296   3.830   7.780
 4437TIP3    H234871   6.372   3.704   7.743
 4438TIP3   OH234872   4.356   5.982   2.519
 4438TIP3    H134873   4.351   6.025   2.604
 4438TIP3    H234874   4.341   6.052   2.455
 4439TIP3   OH234875   4.326   0.358   8.051
 4439TIP3    H134876   4.319   0.311   8.134
 4439TIP3    H234877   4.317   0.289   7.985
 4440TIP3   OH234878   2.543   6.638   0.465
 4440TIP3    H134879   2.447   6.637   0.459
 4440TIP3    H234880   2.562   6.690   0.543
 4441TIP3   OH234881   3.561   3.465   1.945
 4441TIP3    H134882   3.627   3.406   1.979
 4441TIP3    H234883   3.598   3.553   1.957
 4442TIP3   OH234884   4.398   3.144   0.521
 4442TIP3    H134885   4.486   3.107   0.529
 4442TIP3    H234886   4.352   3.085   0.461
 4443TIP3   OH234887   4.034   3.778   8.017
 4443TIP3    H134888   4.123   3.809   8.003
 4443TIP3    H234889   4.038   3.684   7.999
 4444TIP3   OH234890   6.840   5.660   7.254
 4444TIP3    H134891   6.777   5.598   7.293
 4444TIP3    H234892   6.805   5.746   7.276
 4445TIP3   OH234893   6.270   4.503   0.135
 4445TIP3    H134894   6.247   4.415   0.163
 4445TIP3    H234895   6.296   4.548   0.215
 4446TIP3   OH234896   4.698   0.439   0.273
 4446TIP3    H134897   4.624   0.379   0.263
 4446TIP3    H234898   4.768   0.385   0.310
 4447TIP3   OH234899   0.673   3.553   0.563
 4447TIP3    H134900   0.698   3.502   0.486
 4447TIP3    H234901   0.747   3.544   0.622
 4448TIP3   OH234902   4.850   1.834   7.786
 4448TIP3    H134903   4.806   1.854   7.704
 4448TIP3    H234904   4.782   1.843   7.853
 4449TIP3   OH234905   1.183   5.540   0.284
 4449TIP3    H134906   1.155   5.578   0.201
 4449TIP3    H234907   1.144   5.453   0.284
 4450TIP3   OH234908   1.298   1.982   0.392
 4450TIP3    H134909   1.214   1.938   0.380
 4450TIP3    H234910   1.315   2.026   0.308
 4451TIP3   OH234911   0.015   3.251   2.265
 4451TIP3    H134912   0.070   3.289   2.196
 4451TIP3    H234913   0.073   3.246   2.341
 4452TIP3   OH234914   4.651   6.687   1.844
 4452TIP3    H134915   4.577   6.747   1.833
 4452TIP3    H234916   4.683   6.706   1.933
 4453TIP3   OH234917   4.271   2.703   1.727
 4453TIP3    H134918   4.322   2.675   1.651
 4453TIP3    H234919   4.185   2.662   1.716
 4454TIP3   OH234920   2.259   4.751   0.685
 4454TIP3    H134921   2.306   4.687   0.738
 4454TIP3    H234922   2.251   4.710   0.599
 4455TIP3   OH234923   6.771   5.624   0.014
 4455TIP3    H134924   6.782   5.719   0.022
 4455TIP3    H234925   6.774   5.592   0.103
 4456TIP3   OH234926   0.906   0.865   0.213
 4456TIP3    H134927   0.911   0.959   0.232
 4456TIP3    H234928   0.990   0.831   0.242
 4457TIP3   OH234929   4.516   4.284   1.382
 4457TIP3    H134930   4.556   4.242   1.458
 4457TIP3    H234931   4.557   4.370   1.377
 4458TIP3   OH234932   4.458   4.420   1.966
 4458TIP3    H134933   4.475   4.432   1.873
 4458TIP3    H234934   4.390   4.352   1.969
 4459TIP3   OH234935   2.543   1.061   6.530
 4459TIP3    H134936   2.624   1.018   6.502
 4459TIP3    H234937   2.569   1.113   6.606
 4460TIP3   OH234938   6.836   6.856   6.875
 4460TIP3    H134939   6.775   6.877   6.945
 4460TIP3    H234940   6.804   6.774   6.837
 4461TIP3   OH234941   1.638   6.384   7.625
 4461TIP3    H134942   1.656   6.325   7.552
 4461TIP3    H234943   1.552   6.358   7.657
 4462TIP3   OH234944   6.878   0.634   0.166
 4462TIP3    H134945   6.787   0.655   0.188
 4462TIP3    H234946   6.902   0.565   0.228
 4463TIP3   OH234947   0.741   0.722   8.063
 4463TIP3    H134948   0.814   0.659   8.060
 4463TIP3    H234949   0.663   0.667   8.066
 4464TIP3   OH234950   4.625   0.141   0.500
 4464TIP3    H134951   4.699   0.123   0.559
 4464TIP3    H234952   4.549   0.108   0.546
 4465TIP3   OH234953   1.723   3.190   0.320
 4465TIP3    H134954   1.717   3.267   0.378
 4465TIP3    H234955   1.706   3.225   0.232
 4466TIP3   OH234956   6.103   2.038   7.526
 4466TIP3    H134957   6.169   1.981   7.485
 4466TIP3    H234958   6.083   2.103   7.459
 4467TIP3   OH234959   4.794   5.802   0.816
 4467TIP3    H134960   4.824   5.740   0.751
 4467TIP3    H234961   4.870   5.857   0.834
 4468TIP3   OH234962   3.853   1.059   2.845
 4468TIP3    H134963   3.821   1.135   2.796
 4468TIP3    H234964   3.867   0.991   2.779
 4469TIP3   OH234965   5.954   0.905   0.760
 4469TIP3    H134966   5.936   0.973   0.694
 4469TIP3    H234967   5.953   0.952   0.843
 4470TIP3   OH234968   5.674   0.981   2.295
 4470TIP3    H134969   5.740   1.011   2.357
 4470TIP3    H234970   5.653   1.059   2.243
 4471TIP3   OH234971   0.210   6.746   1.216
 4471TIP3    H134972   0.142   6.717   1.277
 4471TIP3    H234973   0.165   6.751   1.132
 4472TIP3   OH234974   3.136   5.954   0.947
 4472TIP3    H134975   3.218   5.909   0.926
 4472TIP3    H234976   3.132   5.954   1.043
 4473TIP3   OH234977   0.984   5.530   1.255
 4473TIP3    H134978   0.917   5.463   1.245
 4473TIP3    H234979   0.999   5.562   1.166
 4474TIP3   OH234980   4.455   3.973   1.391
 4474TIP3    H134981   4.393   3.987   1.319
 4474TIP3    H234982   4.534   3.939   1.348
 4475TIP3   OH234983   2.185   0.279   7.776
 4475TIP3    H134984   2.230   0.304   7.695
 4475TIP3    H234985   2.104   0.238   7.746
 4476TIP3   OH234986   4.700   4.969   7.842
 4476TIP3    H134987   4.738   4.964   7.930
 4476TIP3    H234988   4.761   4.919   7.787
 4477TIP3   OH234989   1.826   0.687   1.075
 4477TIP3    H134990   1.756   0.631   1.041
 4477TIP3    H234991   1.791   0.722   1.157
 4478TIP3   OH234992   3.435   3.308   0.106
 4478TIP3    H134993   3.506   3.356   0.150
 4478TIP3    H234994   3.477   3.227   0.076
 4479TIP3   OH234995   3.327   2.642   8.542
 4479TIP3    H134996   3.281   2.580   8.598
 4479TIP3    H234997   3.318   2.726   8.587
 4480TIP3   OH234998   4.173   2.190   0.403
 4480TIP3    H134999   4.264   2.179   0.375
 4480TIP3    H235000   4.140   2.101   0.409
 4481TIP3   OH235001   2.378   0.190   1.107
 4481TIP3    H135002   2.363   0.100   1.135
 4481TIP3    H235003   2.420   0.232   1.182
 4482TIP3   OH235004   1.039   5.323   8.571
 4482TIP3    H135005   1.110   5.260   8.583
 4482TIP3    H235006   0.960   5.270   8.568
 4483TIP3   OH235007   2.640   5.897   7.646
 4483TIP3    H135008   2.653   5.826   7.583
 4483TIP3    H235009   2.593   5.964   7.596
 4484TIP3   OH235010   3.925   6.664   7.010
 4484TIP3    H135011   3.891   6.592   7.063
 4484TIP3    H235012   3.997   6.700   7.063
 4485TIP3   OH235013   4.595   2.849   0.045
 4485TIP3    H135014   4.590   2.944   0.035
 4485TIP3    H235015   4.523   2.816   8.594
 4486TIP3   OH235016   6.446   5.154   0.306
 4486TIP3    H135017   6.434   5.148   0.401
 4486TIP3    H235018   6.358   5.140   0.270
 4487TIP3   OH235019   5.504   0.430   0.901
 4487TIP3    H135020   5.481   0.521   0.879
 4487TIP3    H235021   5.598   0.425   0.885
 4488TIP3   OH235022   6.222   0.523   7.071
 4488TIP3    H135023   6.222   0.565   6.985
 4488TIP3    H235024   6.158   0.573   7.122
 4489TIP3   OH235025   2.275   2.663   8.387
 4489TIP3    H135026   2.323   2.746   8.379
 4489TIP3    H235027   2.200   2.673   8.328
 4490TIP3   OH235028   2.641   2.193   7.280
 4490TIP3    H135029   2.623   2.156   7.367
 4490TIP3    H235030   2.703   2.131   7.241
 4491TIP3   OH235031   5.566   3.698   7.815
 4491TIP3    H135032   5.574   3.714   7.909
 4491TIP3    H235033   5.573   3.785   7.775
 4492TIP3   OH235034   4.047   0.428   8.008
 4492TIP3    H135035   4.006   0.414   7.923
 4492TIP3    H235036   4.098   0.348   8.023
 4493TIP3   OH235037   4.039   3.110   7.766
 4493TIP3    H135038   4.127   3.147   7.776
 4493TIP3    H235039   4.053   3.027   7.721
 4494TIP3   OH235040   5.938   1.849   7.037
 4494TIP3    H135041   6.014   1.807   7.077
 4494TIP3    H235042   5.879   1.776   7.016
 4495TIP3   OH235043   4.382   6.908   7.698
 4495TIP3    H135044   4.357   6.820   7.727
 4495TIP3    H235045   4.401   6.898   7.604
 4496TIP3   OH235046   2.971   1.155   7.150
 4496TIP3    H135047   2.934   1.076   7.189
 4496TIP3    H235048   3.059   1.128   7.123
 4497TIP3   OH235049   0.393   5.577   0.322
 4497TIP3    H135050   0.345   5.650   0.282
 4497TIP3    H235051   0.325   5.518   0.354
 4498TIP3   OH235052   5.881   0.078   7.146
 4498TIP3    H135053   5.829   0.038   7.076
 4498TIP3    H235054   5.844   0.041   7.226
 4499TIP3   OH235055   4.917   6.810   0.420
 4499TIP3    H135056   4.896   6.852   0.337
 4499TIP3    H235057   5.010   6.788   0.413
 4500TIP3   OH235058   1.449   0.873   6.773
 4500TIP3    H135059   1.537   0.837   6.763
 4500TIP3    H235060   1.433   0.920   6.691
 4501TIP3   OH235061   6.073   2.768   0.928
 4501TIP3    H135062   6.016   2.843   0.946
 4501TIP3    H235063   6.162   2.802   0.939
 4502TIP3   OH235064   6.021   6.783   0.190
 4502TIP3    H135065   6.039   6.840   0.116
 4502TIP3    H235066   6.062   6.700   0.168
 4503TIP3   OH235067   3.582   6.161   7.522
 4503TIP3    H135068   3.622   6.191   7.603
 4503TIP3    H235069   3.506   6.218   7.510
 4504TIP3   OH235070   3.004   2.018   2.224
 4504TIP3    H135071   3.022   2.111   2.231
 4504TIP3    H235072   2.908   2.012   2.226
 4505TIP3   OH235073   6.454   0.175   6.040
 4505TIP3    H135074   6.505   0.177   6.121
 4505TIP3    H235075   6.519   0.191   5.971
 4506TIP3   OH235076   3.728   0.396   6.750
 4506TIP3    H135077   3.652   0.450   6.726
 4506TIP3    H235078   3.802   0.440   6.708
 4507TIP3   OH235079   5.201   0.325   8.513
 4507TIP3    H135080   5.156   0.408   8.528
 4507TIP3    H235081   5.272   0.346   8.452
 4508TIP3   OH235082   4.865   6.148   0.755
 4508TIP3    H135083   4.810   6.093   0.811
 4508TIP3    H235084   4.807   6.175   0.683
 4509TIP3   OH235085   0.123   0.938   6.980
 4509TIP3    H135086   0.202   0.891   6.952
 4509TIP3    H235087   0.063   0.869   7.008
 4510TIP3   OH235088   2.183   6.490   7.956
 4510TIP3    H135089   2.239   6.412   7.959
 4510TIP3    H235090   2.199   6.528   7.870
 4511TIP3   OH235091   5.816   5.823   7.208
 4511TIP3    H135092   5.762   5.771   7.267
 4511TIP3    H235093   5.779   5.911   7.211
 4512TIP3   OH235094   3.203   3.790   2.251
 4512TIP3    H135095   3.280   3.838   2.222
 4512TIP3    H235096   3.195   3.717   2.190
 4513TIP3   OH235097   1.862   4.614   8.170
 4513TIP3    H135098   1.899   4.673   8.104
 4513TIP3    H235099   1.931   4.607   8.237
 4514TIP3   OH235100   2.653   2.238   2.637
 4514TIP3    H135101   2.688   2.176   2.573
 4514TIP3    H235102   2.561   2.212   2.647
 4515TIP3   OH235103   1.406   0.537   6.291
 4515TIP3    H135104   1.382   0.621   6.329
 4515TIP3    H235105   1.442   0.487   6.364
 4516TIP3   OH235106   4.651   3.109   0.475
 4516TIP3    H135107   4.650   3.172   0.403
 4516TIP3    H235108   4.656   3.024   0.431
 4517TIP3   OH235109   4.191   1.092   6.714
 4517TIP3    H135110   4.265   1.032   6.718
 4517TIP3    H235111   4.225   1.168   6.667
 4518TIP3   OH235112   3.303   1.456   0.428
 4518TIP3    H135113   3.350   1.493   0.503
 4518TIP3    H235114   3.365   1.398   0.386
 4519TIP3   OH235115   5.106   6.100   7.403
 4519TIP3    H135116   5.081   6.191   7.422
 4519TIP3    H235117   5.094   6.055   7.486
 4520TIP3   OH235118   4.913   0.167   8.020
 4520TIP3    H135119   4.939   0.257   8.040
 4520TIP3    H235120   4.993   0.116   8.035
 4521TIP3   OH235121   2.297   0.696   8.508
 4521TIP3    H135122   2.243   0.618   8.520
 4521TIP3    H235123   2.314   0.700   8.414
 4522TIP3   OH235124   4.137   4.833   0.301
 4522TIP3    H135125   4.043   4.841   0.284
 4522TIP3    H235126   4.142   4.798   0.390
 4523TIP3   OH235127   5.969   3.865   0.780
 4523TIP3    H135128   5.884   3.886   0.819
 4523TIP3    H235129   5.956   3.875   0.686
 4524TIP3   OH235130   0.514   0.638   0.828
 4524TIP3    H135131   0.559   0.557   0.853
 4524TIP3    H235132   0.435   0.608   0.783
 4525TIP3   OH235133   5.161   6.615   2.398
 4525TIP3    H135134   5.223   6.614   2.325
 4525TIP3    H235135   5.214   6.599   2.476
 4526TIP3   OH235136   4.750   5.932   1.233
 4526TIP3    H135137   4.826   5.896   1.187
 4526TIP3    H235138   4.676   5.881   1.202
 4527TIP3   OH235139   3.804   2.846   7.912
 4527TIP3    H135140   3.836   2.818   7.997
 4527TIP3    H235141   3.767   2.933   7.927
 4528TIP3   OH235142   2.495   2.198   1.551
 4528TIP3    H135143   2.452   2.275   1.589
 4528TIP3    H235144   2.482   2.207   1.457
 4529TIP3   OH235145   6.310   0.790   7.201
 4529TIP3    H135146   6.325   0.882   7.177
 4529TIP3    H235147   6.216   0.784   7.216
 4530TIP3   OH235148   4.270   3.835   0.905
 4530TIP3    H135149   4.278   3.865   0.815
 4530TIP3    H235150   4.176   3.839   0.924
 4531TIP3   OH235151   5.033   0.461   1.314
 4531TIP3    H135152   4.986   0.490   1.392
 4531TIP3    H235153   5.067   0.542   1.275
 4532TIP3   OH235154   2.794   0.039   7.540
 4532TIP3    H135155   2.837   6.868   7.557
 4532TIP3    H235156   2.814   0.058   7.449
 4533TIP3   OH235157   3.905   4.039   8.342
 4533TIP3    H135158   3.897   4.131   8.368
 4533TIP3    H235159   3.874   4.037   8.252
 4534TIP3   OH235160   6.186   3.178   8.498
 4534TIP3    H135161   6.096   3.153   8.518
 4534TIP3    H235162   6.206   3.131   8.417
 4535TIP3   OH235163   2.395   1.708   0.613
 4535TIP3    H135164   2.490   1.700   0.623
 4535TIP3    H235165   2.384   1.738   0.523
 4536TIP3   OH235166   2.252   1.171   6.185
 4536TIP3    H135167   2.163   1.201   6.165
 4536TIP3    H235168   2.270   1.104   6.119
 4537TIP3   OH235169   2.330   4.732   1.039
 4537TIP3    H135170   2.267   4.797   1.007
 4537TIP3    H235171   2.304   4.716   1.130
 4538TIP3   OH235172   6.179   4.807   7.587
 4538TIP3    H135173   6.112   4.855   7.636
 4538TIP3    H235174   6.175   4.719   7.623
 4539TIP3   OH235175   0.449   4.391   0.301
 4539TIP3    H135176   0.498   4.311   0.322
 4539TIP3    H235177   0.450   4.394   0.205
 4540TIP3   OH235178   4.275   2.456   7.002
 4540TIP3    H135179   4.240   2.383   7.052
 4540TIP3    H235180   4.218   2.463   6.925
 4541TIP3   OH235181   5.084   1.856   7.925
 4541TIP3    H135182   5.017   1.856   7.857
 4541TIP3    H235183   5.087   1.947   7.956
 4542TIP3   OH235184   3.311   6.837   8.437
 4542TIP3    H135185   3.280   6.848   8.348
 4542TIP3    H235186   3.389   6.783   8.429
 4543TIP3   OH235187   3.165   0.605   8.401
 4543TIP3    H135188   3.105   0.619   8.328
 4543TIP3    H235189   3.243   0.656   8.379
 4544TIP3   OH235190   5.111   0.587   8.558
 4544TIP3    H135191   5.054   0.590   0.031
 4544TIP3    H235192   5.144   0.677   8.550
 4545TIP3   OH235193   0.577   2.316   7.084
 4545TIP3    H135194   0.661   2.302   7.042
 4545TIP3    H235195   0.581   2.265   7.165
 4546TIP3   OH235196   3.709   0.045   7.627
 4546TIP3    H135197   3.681   6.911   7.706
 4546TIP3    H235198   3.634   0.038   7.567
 4547TIP3   OH235199   4.129   5.948   6.409
 4547TIP3    H135200   4.104   5.870   6.360
 4547TIP3    H235201   4.225   5.942   6.416
 4548TIP3   OH235202   2.515   2.901   0.709
 4548TIP3    H135203   2.426   2.932   0.727
 4548TIP3    H235204   2.504   2.828   0.649
 4549TIP3   OH235205   4.905   3.205   8.598
 4549TIP3    H135206   4.927   3.185   0.087
 4549TIP3    H235207   4.989   3.198   8.552
 4550TIP3   OH235208   0.681   2.344   0.325
 4550TIP3    H135209   0.586   2.353   0.316
 4550TIP3    H235210   0.711   2.327   0.236
 4551TIP3   OH235211   2.728   1.498   7.818
 4551TIP3    H135212   2.760   1.409   7.836
 4551TIP3    H235213   2.806   1.549   7.797
 4552TIP3   OH235214   1.204   5.135   1.700
 4552TIP3    H135215   1.141   5.095   1.759
 4552TIP3    H235216   1.215   5.224   1.732
 4553TIP3   OH235217   0.100   0.229   0.228
 4553TIP3    H135218   0.037   0.218   0.157
 4553TIP3    H235219   0.161   0.156   0.218
 4554TIP3   OH235220   1.229   4.540   6.892
 4554TIP3    H135221   1.181   4.617   6.863
 4554TIP3    H235222   1.236   4.485   6.814
 4555TIP3   OH235223   4.879   6.234   8.212
 4555TIP3    H135224   4.871   6.145   8.178
 4555TIP3    H235225   4.858   6.227   8.305
 4556TIP3   OH235226   4.981   4.371   0.476
 4556TIP3    H135227   4.932   4.321   0.410
 4556TIP3    H235228   5.072   4.365   0.447
 4557TIP3   OH235229   5.555   5.732   0.528
 4557TIP3    H135230   5.536   5.789   0.453
 4557TIP3    H235231   5.605   5.788   0.588
 4558TIP3   OH235232   5.910   0.810   5.970
 4558TIP3    H135233   5.821   0.821   5.936
 4558TIP3    H235234   5.900   0.760   6.050
 4559TIP3   OH235235   1.983   2.580   8.580
 4559TIP3    H135236   1.958   2.524   0.050
 4559TIP3    H235237   2.063   2.623   0.007
 4560TIP3   OH235238   3.968   6.856   8.512
 4560TIP3    H135239   3.908   6.804   8.566
 4560TIP3    H235240   3.933   0.033   8.516
 4561TIP3   OH235241   3.047   3.568   1.013
 4561TIP3    H135242   3.015   3.479   1.031
 4561TIP3    H235243   3.052   3.572   0.918
 4562TIP3   OH235244   1.893   6.272   8.474
 4562TIP3    H135245   1.959   6.340   8.464
 4562TIP3    H235246   1.901   6.218   8.396
 4563TIP3   OH235247   3.811   4.812   6.707
 4563TIP3    H135248   3.788   4.741   6.647
 4563TIP3    H235249   3.855   4.768   6.780
 4564TIP3   OH235250   6.505   4.675   2.890
 4564TIP3    H135251   6.474   4.735   2.822
 4564TIP3    H235252   6.460   4.705   2.970
 4565TIP3   OH235253   3.882   0.921   2.063
 4565TIP3    H135254   3.921   0.979   1.997
 4565TIP3    H235255   3.878   0.974   2.143
 4566TIP3   OH235256   6.873   2.725   1.839
 4566TIP3    H135257   6.821   2.662   1.789
 4566TIP3    H235258   0.035   2.675   1.873
 4567TIP3   OH235259   2.113   0.194   6.753
 4567TIP3    H135260   2.060   0.267   6.722
 4567TIP3    H235261   2.194   0.201   6.702
 4568TIP3   OH235262   5.185   6.427   7.295
 4568TIP3    H135263   5.172   6.401   7.386
 4568TIP3    H235264   5.176   6.523   7.296
 4569TIP3   OH235265   2.819   6.490   1.849
 4569TIP3    H135266   2.744   6.433   1.825
 4569TIP3    H235267   2.834   6.472   1.942
 4570TIP3   OH235268   4.273   6.874   2.740
 4570TIP3    H135269   4.209   6.809   2.709
 4570TIP3    H235270   4.335   6.823   2.793
 4571TIP3   OH235271   4.346   5.048   0.208
 4571TIP3    H135272   4.280   5.111   0.235
 4571TIP3    H235273   4.427   5.099   0.204
 4572TIP3   OH235274   5.096   0.158   7.646
 4572TIP3    H135275   5.102   0.063   7.637
 4572TIP3    H235276   5.170   0.182   7.702
 4573TIP3   OH235277   3.649   2.857   7.063
 4573TIP3    H135278   3.643   2.841   6.969
 4573TIP3    H235279   3.736   2.895   7.076
 4574TIP3   OH235280   5.208   0.872   7.117
 4574TIP3    H135281   5.255   0.905   7.193
 4574TIP3    H235282   5.265   0.805   7.080
 4575TIP3   OH235283   6.534   4.985   1.745
 4575TIP3    H135284   6.582   5.063   1.772
 4575TIP3    H235285   6.535   4.988   1.649
 4576TIP3   OH235286   3.864   6.395   6.813
 4576TIP3    H135287   3.858   6.305   6.846
 4576TIP3    H235288   3.807   6.395   6.736
 4577TIP3   OH235289   4.195   6.512   6.927
 4577TIP3    H135290   4.270   6.471   6.884
 4577TIP3    H235291   4.227   6.597   6.956
 4578TIP3   OH235292   0.215   6.200   8.404
 4578TIP3    H135293   0.134   6.219   8.356
 4578TIP3    H235294   0.237   6.283   8.447
 4579TIP3   OH235295   5.891   5.303   0.914
 4579TIP3    H135296   5.821   5.242   0.936
 4579TIP3    H235297   5.931   5.267   0.835
 4580TIP3   OH235298   3.988   4.139   0.798
 4580TIP3    H135299   4.003   4.067   0.859
 4580TIP3    H235300   3.918   4.190   0.839
 4581TIP3   OH235301   0.821   3.747   7.886
 4581TIP3    H135302   0.801   3.674   7.827
 4581TIP3    H235303   0.765   3.818   7.855
 4582TIP3   OH235304   3.248   2.580   6.555
 4582TIP3    H135305   3.194   2.545   6.626
 4582TIP3    H235306   3.294   2.504   6.519
 4583TIP3   OH235307   6.262   5.066   1.587
 4583TIP3    H135308   6.184   5.034   1.543
 4583TIP3    H235309   6.278   5.003   1.657
 4584TIP3   OH235310   4.703   3.240   0.266
 4584TIP3    H135311   4.660   3.211   0.186
 4584TIP3    H235312   4.730   3.330   0.248
 4585TIP3   OH235313   2.510   5.459   0.873
 4585TIP3    H135314   2.423   5.492   0.855
 4585TIP3    H235315   2.518   5.380   0.819
 4586TIP3   OH235316   0.220   0.452   1.873
 4586TIP3    H135317   0.243   0.545   1.873
 4586TIP3    H235318   0.206   0.430   1.965
 4587TIP3   OH235319   6.077   2.127   6.571
 4587TIP3    H135320   6.138   2.078   6.626
 4587TIP3    H235321   6.132   2.165   6.502
 4588TIP3   OH235322   3.943   1.969   1.781
 4588TIP3    H135323   3.898   1.913   1.719
 4588TIP3    H235324   4.028   1.926   1.795
 4589TIP3   OH235325   3.521   3.400   6.891
 4589TIP3    H135326   3.472   3.373   6.969
 4589TIP3    H235327   3.592   3.336   6.884
 4590TIP3   OH235328   6.573   0.923   1.879
 4590TIP3    H135329   6.583   0.829   1.870
 4590TIP3    H235330   6.657   0.953   1.913
 4591TIP3   OH235331   5.955   2.270   7.191
 4591TIP3    H135332   5.988   2.351   7.230
 4591TIP3    H235333   5.874   2.296   7.148
 4592TIP3   OH235334   6.056   6.626   1.198
 4592TIP3    H135335   6.127   6.689   1.187
 4592TIP3    H235336   6.081   6.575   1.274
 4593TIP3   OH235337   6.346   2.042   1.377
 4593TIP3    H135338   6.385   2.005   1.298
 4593TIP3    H235339   6.296   1.970   1.415
 4594TIP3   OH235340   1.387   3.044   1.908
 4594TIP3    H135341   1.316   2.994   1.869
 4594TIP3    H235342   1.463   2.985   1.905
 4595TIP3   OH235343   4.493   1.529   7.754
 4595TIP3    H135344   4.558   1.525   7.683
 4595TIP3    H235345   4.497   1.442   7.794
 4596TIP3   OH235346   2.645   4.727   7.026
 4596TIP3    H135347   2.573   4.786   7.004
 4596TIP3    H235348   2.662   4.678   6.946
 4597TIP3   OH235349   1.214   6.617   0.070
 4597TIP3    H135350   1.285   6.580   0.124
 4597TIP3    H235351   1.233   6.711   0.067
 4598TIP3   OH235352   5.630   4.335   2.018
 4598TIP3    H135353   5.662   4.425   2.014
 4598TIP3    H235354   5.571   4.334   2.093
 4599TIP3   OH235355   2.482   3.206   8.251
 4599TIP3    H135356   2.556   3.165   8.207
 4599TIP3    H235357   2.411   3.143   8.244
 4600TIP3   OH235358   4.841   2.160   8.331
 4600TIP3    H135359   4.907   2.225   8.355
 4600TIP3    H235360   4.758   2.209   8.332
 4601TIP3   OH235361   4.456   1.473   2.300
 4601TIP3    H135362   4.460   1.537   2.371
 4601TIP3    H235363   4.543   1.476   2.260
 4602TIP3   OH235364   1.419   4.115   0.697
 4602TIP3    H135365   1.415   4.197   0.747
 4602TIP3    H235366   1.328   4.092   0.681
 4603TIP3   OH235367   2.111   6.103   7.765
 4603TIP3    H135368   2.090   6.033   7.703
 4603TIP3    H235369   2.027   6.145   7.784
 4604TIP3   OH235370   6.677   5.991   6.376
 4604TIP3    H135371   6.655   5.993   6.283
 4604TIP3    H235372   6.617   5.927   6.414
 4605TIP3   OH235373   6.574   0.047   7.073
 4605TIP3    H135374   6.652   0.102   7.064
 4605TIP3    H235375   6.514   0.079   7.006
 4606TIP3   OH235376   0.994   0.994   1.028
 4606TIP3    H135377   0.913   0.993   1.079
 4606TIP3    H235378   0.982   0.926   0.962
 4607TIP3   OH235379   4.682   4.990   1.130
 4607TIP3    H135380   4.650   5.051   1.064
 4607TIP3    H235381   4.750   5.038   1.176
 4608TIP3   OH235382   6.666   6.522   1.872
 4608TIP3    H135383   6.748   6.476   1.887
 4608TIP3    H235384   6.687   6.614   1.890
 4609TIP3   OH235385   1.979   3.320   7.367
 4609TIP3    H135386   2.045   3.293   7.431
 4609TIP3    H235387   2.027   3.326   7.285
 4610TIP3   OH235388   3.938   5.436   0.277
 4610TIP3    H135389   4.014   5.489   0.302
 4610TIP3    H235390   3.974   5.348   0.266
 4611TIP3   OH235391   0.793   6.696   7.896
 4611TIP3    H135392   0.756   6.610   7.874
 4611TIP3    H235393   0.884   6.690   7.867
 4612TIP3   OH235394   5.777   0.360   1.089
 4612TIP3    H135395   5.811   0.349   1.000
 4612TIP3    H235396   5.796   0.451   1.112
 4613TIP3   OH235397   4.135   6.768   6.819
 4613TIP3    H135398   4.197   6.820   6.769
 4613TIP3    H235399   4.154   6.790   6.911
 4614TIP3   OH235400   5.882   5.535   1.825
 4614TIP3    H135401   5.958   5.566   1.776
 4614TIP3    H235402   5.890   5.579   1.910
 4615TIP3   OH235403   0.827   1.662   7.135
 4615TIP3    H135404   0.766   1.671   7.208
 4615TIP3    H235405   0.897   1.724   7.154
 4616TIP3   OH235406   0.497   5.288   1.649
 4616TIP3    H135407   0.558   5.277   1.577
 4616TIP3    H235408   0.450   5.369   1.630
 4617TIP3   OH235409   1.024   0.589   6.816
 4617TIP3    H135410   0.994   0.540   6.739
 4617TIP3    H235411   1.090   0.649   6.782
 4618TIP3   OH235412   0.311   1.174   0.329
 4618TIP3    H135413   0.363   1.135   0.259
 4618TIP3    H235414   0.311   1.108   0.398
 4619TIP3   OH235415   4.239   6.387   2.108
 4619TIP3    H135416   4.266   6.302   2.073
 4619TIP3    H235417   4.307   6.448   2.081
 4620TIP3   OH235418   1.934   4.282   6.950
 4620TIP3    H135419   1.903   4.203   6.994
 4620TIP3    H235420   1.855   4.325   6.919
 4621TIP3   OH235421   3.053   1.561   0.423
 4621TIP3    H135422   3.136   1.555   0.375
 4621TIP3    H235423   3.023   1.471   0.432
 4622TIP3   OH235424   2.590   1.508   6.994
 4622TIP3    H135425   2.666   1.466   7.034
 4622TIP3    H235426   2.602   1.496   6.900
 4623TIP3   OH235427   3.157   0.480   1.868
 4623TIP3    H135428   3.184   0.428   1.792
 4623TIP3    H235429   3.228   0.543   1.880
 4624TIP3   OH235430   0.711   5.104   2.095
 4624TIP3    H135431   0.730   5.028   2.041
 4624TIP3    H235432   0.616   5.105   2.103
 4625TIP3   OH235433   2.522   0.873   7.146
 4625TIP3    H135434   2.429   0.857   7.128
 4625TIP3    H235435   2.560   0.887   7.059
 4626TIP3   OH235436   6.250   5.701   1.185
 4626TIP3    H135437   6.255   5.797   1.188
 4626TIP3    H235438   6.194   5.678   1.258
 4627TIP3   OH235439   0.373   5.269   6.844
 4627TIP3    H135440   0.288   5.278   6.800
 4627TIP3    H235441   0.433   5.320   6.790
 4628TIP3   OH235442   4.608   0.428   8.233
 4628TIP3    H135443   4.614   0.484   8.155
 4628TIP3    H235444   4.600   0.340   8.198
 4629TIP3   OH235445   6.316   4.830   0.665
 4629TIP3    H135446   6.404   4.852   0.693
 4629TIP3    H235447   6.323   4.741   0.631
 4630TIP3   OH235448   4.095   2.487   0.745
 4630TIP3    H135449   4.020   2.430   0.726
 4630TIP3    H235450   4.061   2.550   0.809
 4631TIP3   OH235451   0.750   2.407   6.386
 4631TIP3    H135452   0.843   2.418   6.406
 4631TIP3    H235453   0.705   2.465   6.447
 4632TIP3   OH235454   5.983   5.362   1.288
 4632TIP3    H135455   6.014   5.395   1.371
 4632TIP3    H235456   6.058   5.367   1.229
 4633TIP3   OH235457   1.581   6.128   0.364
 4633TIP3    H135458   1.503   6.074   0.380
 4633TIP3    H235459   1.595   6.123   0.270
 4634TIP3   OH235460   0.730   4.293   8.013
 4634TIP3    H135461   0.690   4.206   8.019
 4634TIP3    H235462   0.666   4.351   8.054
 4635TIP3   OH235463   4.091   3.617   1.709
 4635TIP3    H135464   4.087   3.523   1.690
 4635TIP3    H235465   4.008   3.637   1.751
 4636TIP3   OH235466   0.109   4.001   1.173
 4636TIP3    H135467   0.028   4.038   1.139
 4636TIP3    H235468   0.171   4.007   1.100
 4637TIP3   OH235469   2.665   0.248   0.090
 4637TIP3    H135470   2.695   0.234   0.180
 4637TIP3    H235471   2.709   0.181   0.039
 4638TIP3   OH235472   3.718   0.633   7.951
 4638TIP3    H135473   3.764   0.717   7.957
 4638TIP3    H235474   3.625   0.656   7.947
 4639TIP3   OH235475   0.712   0.644   7.751
 4639TIP3    H135476   0.657   0.659   7.674
 4639TIP3    H235477   0.658   0.675   7.824
 4640TIP3   OH235478   1.382   0.560   1.976
 4640TIP3    H135479   1.317   0.625   1.948
 4640TIP3    H235480   1.436   0.546   1.898
 4641TIP3   OH235481   1.520   2.474   8.054
 4641TIP3    H135482   1.566   2.545   8.099
 4641TIP3    H235483   1.433   2.473   8.093
 4642TIP3   OH235484   4.812   4.608   0.252
 4642TIP3    H135485   4.865   4.537   0.214
 4642TIP3    H235486   4.847   4.688   0.212
 4643TIP3   OH235487   5.605   4.634   8.299
 4643TIP3    H135488   5.587   4.548   8.260
 4643TIP3    H235489   5.521   4.680   8.292
 4644TIP3   OH235490   0.226   3.975   0.178
 4644TIP3    H135491   0.241   4.061   0.139
 4644TIP3    H235492   0.233   3.989   0.272
 4645TIP3   OH235493   6.316   5.553   8.030
 4645TIP3    H135494   6.276   5.490   8.090
 4645TIP3    H235495   6.407   5.558   8.058
 4646TIP3   OH235496   6.667   3.948   7.968
 4646TIP3    H135497   6.574   3.965   7.953
 4646TIP3    H235498   6.704   3.938   7.881
 4647TIP3   OH235499   3.186   3.873   0.836
 4647TIP3    H135500   3.098   3.908   0.851
 4647TIP3    H235501   3.172   3.789   0.794
 4648TIP3   OH235502   0.570   0.993   1.234
 4648TIP3    H135503   0.504   0.941   1.189
 4648TIP3    H235504   0.613   1.043   1.164
 4649TIP3   OH235505   0.309   4.688   8.564
 4649TIP3    H135506   0.280   4.613   0.012
 4649TIP3    H235507   0.403   4.695   8.582
 4650TIP3   OH235508   4.382   0.113   1.001
 4650TIP3    H135509   4.427   0.031   0.984
 4650TIP3    H235510   4.438   0.180   0.964
 4651TIP3   OH235511   5.801   3.446   8.210
 4651TIP3    H135512   5.818   3.416   8.299
 4651TIP3    H235513   5.880   3.423   8.162
 4652TIP3   OH235514   5.747   3.047   8.314
 4652TIP3    H135515   5.733   3.072   8.223
 4652TIP3    H235516   5.716   2.957   8.319
 4653TIP3   OH235517   2.727   6.298   1.477
 4653TIP3    H135518   2.673   6.282   1.400
 4653TIP3    H235519   2.724   6.392   1.490
 4654TIP3   OH235520   1.396   5.844   8.567
 4654TIP3    H135521   1.309   5.873   8.593
 4654TIP3    H235522   1.452   5.920   8.580
 4655TIP3   OH235523   3.049   2.516   6.751
 4655TIP3    H135524   3.058   2.486   6.841
 4655TIP3    H235525   2.984   2.587   6.755
 4656TIP3   OH235526   5.129   6.078   0.974
 4656TIP3    H135527   5.085   6.023   1.039
 4656TIP3    H235528   5.210   6.107   1.016
 4657TIP3   OH235529   5.521   0.745   1.328
 4657TIP3    H135530   5.616   0.752   1.326
 4657TIP3    H235531   5.496   0.776   1.415
 4658TIP3   OH235532   0.255   4.609   1.395
 4658TIP3    H135533   0.202   4.542   1.438
 4658TIP3    H235534   0.222   4.691   1.430
 4659TIP3   OH235535   2.341   0.655   7.928
 4659TIP3    H135536   2.312   0.738   7.966
 4659TIP3    H235537   2.400   0.681   7.857
 4660TIP3   OH235538   1.313   0.571   6.989
 4660TIP3    H135539   1.380   0.573   6.921
 4660TIP3    H235540   1.231   0.565   6.942
 4661TIP3   OH235541   3.053   4.385   0.867
 4661TIP3    H135542   2.965   4.381   0.903
 4661TIP3    H235543   3.107   4.336   0.928
 4662TIP3   OH235544   5.030   3.630   8.105
 4662TIP3    H135545   5.050   3.595   8.018
 4662TIP3    H235546   4.935   3.643   8.104
 4663TIP3   OH235547   2.851   4.054   1.932
 4663TIP3    H135548   2.767   4.023   1.899
 4663TIP3    H235549   2.860   4.013   2.018
 4664TIP3   OH235550   0.564   4.696   7.436
 4664TIP3    H135551   0.592   4.611   7.471
 4664TIP3    H235552   0.635   4.723   7.379
 4665TIP3   OH235553   1.770   6.716   6.306
 4665TIP3    H135554   1.790   6.705   6.399
 4665TIP3    H235555   1.701   6.783   6.304
 4666TIP3   OH235556   1.258   2.910   1.704
 4666TIP3    H135557   1.273   2.968   1.629
 4666TIP3    H235558   1.226   2.829   1.665
 4667TIP3   OH235559   5.066   5.572   1.269
 4667TIP3    H135560   5.156   5.606   1.271
 4667TIP3    H235561   5.044   5.555   1.360
 4668TIP3   OH235562   2.133   4.869   1.222
 4668TIP3    H135563   2.038   4.856   1.232
 4668TIP3    H235564   2.142   4.958   1.189
 4669TIP3   OH235565   3.432   4.349   7.054
 4669TIP3    H135566   3.420   4.257   7.074
 4669TIP3    H235567   3.353   4.375   7.007
 4670TIP3   OH235568   6.368   6.422   1.686
 4670TIP3    H135569   6.462   6.415   1.669
 4670TIP3    H235570   6.338   6.331   1.695
 4671TIP3   OH235571   6.784   3.808   1.522
 4671TIP3    H135572   6.730   3.887   1.515
 4671TIP3    H235573   6.723   3.740   1.550
 4672TIP3   OH235574   1.822   0.101   7.325
 4672TIP3    H135575   1.871   0.181   7.309
 4672TIP3    H235576   1.885   0.040   7.361
 4673TIP3   OH235577   4.822   1.045   6.830
 4673TIP3    H135578   4.876   0.966   6.831
 4673TIP3    H235579   4.744   1.020   6.780
 4674TIP3   OH235580   3.522   5.260   0.930
 4674TIP3    H135581   3.520   5.180   0.983
 4674TIP3    H235582   3.598   5.249   0.873
 4675TIP3   OH235583   5.990   2.116   0.074
 4675TIP3    H135584   5.966   2.124   0.166
 4675TIP3    H235585   5.974   2.203   0.038
 4676TIP3   OH235586   6.453   2.063   7.015
 4676TIP3    H135587   6.499   2.113   6.947
 4676TIP3    H235588   6.388   2.124   7.050
 4677TIP3   OH235589   2.341   1.428   6.685
 4677TIP3    H135590   2.425   1.398   6.719
 4677TIP3    H235591   2.362   1.498   6.624
 4678TIP3   OH235592   0.167   6.150   0.788
 4678TIP3    H135593   0.119   6.069   0.770
 4678TIP3    H235594   0.252   6.120   0.820
 4679TIP3   OH235595   2.615   3.339   8.451
 4679TIP3    H135596   2.711   3.337   8.458
 4679TIP3    H235597   2.595   3.280   8.378
 4680TIP3   OH235598   1.137   4.033   8.035
 4680TIP3    H135599   1.102   4.072   7.954
 4680TIP3    H235600   1.060   3.995   8.078
 4681TIP3   OH235601   0.926   0.057   0.319
 4681TIP3    H135602   0.910   0.097   0.233
 4681TIP3    H235603   0.885   0.117   0.381
 4682TIP3   OH235604   2.740   1.211   7.865
 4682TIP3    H135605   2.735   1.205   7.770
 4682TIP3    H235606   2.687   1.138   7.897
 4683TIP3   OH235607   4.821   1.064   7.522
 4683TIP3    H135608   4.770   0.984   7.512
 4683TIP3    H235609   4.828   1.099   7.433
 4684TIP3   OH235610   2.687   0.955   1.540
 4684TIP3    H135611   2.627   1.009   1.488
 4684TIP3    H235612   2.751   1.017   1.573
 4685TIP3   OH235613   2.742   0.554   0.475
 4685TIP3    H135614   2.740   0.640   0.518
 4685TIP3    H235615   2.650   0.532   0.462
 4686TIP3   OH235616   4.147   3.832   1.462
 4686TIP3    H135617   4.173   3.812   1.552
 4686TIP3    H235618   4.120   3.923   1.464
 4687TIP3   OH235619   3.281   1.329   1.539
 4687TIP3    H135620   3.248   1.388   1.606
 4687TIP3    H235621   3.284   1.383   1.460
 4688TIP3   OH235622   5.610   1.543   7.147
 4688TIP3    H135623   5.566   1.628   7.148
 4688TIP3    H235624   5.702   1.563   7.129
 4689TIP3   OH235625   1.752   6.282   8.000
 4689TIP3    H135626   1.756   6.230   7.919
 4689TIP3    H235627   1.664   6.318   8.001
 4690TIP3   OH235628   1.291   0.197   8.301
 4690TIP3    H135629   1.346   0.138   8.250
 4690TIP3    H235630   1.299   0.164   8.391
 4691TIP3   OH235631   3.098   6.534   2.091
 4691TIP3    H135632   3.133   6.546   2.003
 4691TIP3    H235633   3.121   6.615   2.137
 4692TIP3   OH235634   4.894   2.461   8.526
 4692TIP3    H135635   4.929   2.527   8.587
 4692TIP3    H235636   4.964   2.396   8.519
 4693TIP3   OH235637   1.879   1.116   6.904
 4693TIP3    H135638   1.964   1.149   6.877
 4693TIP3    H235639   1.898   1.038   6.956
 4694TIP3   OH235640   1.779   2.691   7.928
 4694TIP3    H135641   1.720   2.691   8.003
 4694TIP3    H235642   1.824   2.776   7.932
 4695TIP3   OH235643   2.998   0.212   1.939
 4695TIP3    H135644   3.061   0.255   1.998
 4695TIP3    H235645   3.049   0.144   1.895
 4696TIP3   OH235646   3.731   3.438   0.437
 4696TIP3    H135647   3.686   3.356   0.458
 4696TIP3    H235648   3.801   3.445   0.503
 4697TIP3   OH235649   6.302   4.649   8.167
 4697TIP3    H135650   6.290   4.699   8.248
 4697TIP3    H235651   6.288   4.558   8.192
 4698TIP3   OH235652   5.495   5.095   0.504
 4698TIP3    H135653   5.447   5.158   0.449
 4698TIP3    H235654   5.528   5.030   0.442
 4699TIP3   OH235655   1.429   3.636   0.055
 4699TIP3    H135656   1.442   3.599   8.570
 4699TIP3    H235657   1.499   3.701   0.064
 4700TIP3   OH235658   2.276   5.221   7.407
 4700TIP3    H135659   2.224   5.279   7.463
 4700TIP3    H235660   2.229   5.221   7.323
 4701TIP3   OH235661   3.435   6.281   0.275
 4701TIP3    H135662   3.438   6.318   0.363
 4701TIP3    H235663   3.359   6.321   0.234
 4702TIP3   OH235664   3.987   0.125   7.181
 4702TIP3    H135665   3.926   0.116   7.108
 4702TIP3    H235666   4.048   0.053   7.171
 4703TIP3   OH235667   6.864   6.623   8.122
 4703TIP3    H135668   6.790   6.625   8.061
 4703TIP3    H235669   6.904   6.709   8.113
 4704TIP3   OH235670   1.026   2.164   1.559
 4704TIP3    H135671   1.065   2.110   1.627
 4704TIP3    H235672   0.955   2.112   1.523
 4705TIP3   OH235673   6.857   6.729   6.104
 4705TIP3    H135674   6.848   6.647   6.056
 4705TIP3    H235675   0.038   6.738   6.122
 4706TIP3   OH235676   2.881   6.503   7.484
 4706TIP3    H135677   2.949   6.513   7.418
 4706TIP3    H235678   2.799   6.507   7.435
 4707TIP3   OH235679   1.976   2.096   7.369
 4707TIP3    H135680   2.059   2.126   7.406
 4707TIP3    H235681   1.928   2.061   7.444
 4708TIP3   OH235682   5.600   5.461   7.476
 4708TIP3    H135683   5.504   5.460   7.481
 4708TIP3    H235684   5.619   5.456   7.382
 4709TIP3   OH235685   4.053   1.622   0.043
 4709TIP3    H135686   4.087   1.696   0.093
 4709TIP3    H235687   3.976   1.593   0.092
 4710TIP3   OH235688   3.320   0.659   1.584
 4710TIP3    H135689   3.287   0.702   1.663
 4710TIP3    H235690   3.386   0.719   1.550
 4711TIP3   OH235691   1.504   5.700   7.979
 4711TIP3    H135692   1.494   5.721   7.886
 4711TIP3    H235693   1.493   5.605   7.983
 4712TIP3   OH235694   6.645   5.719   7.746
 4712TIP3    H135695   6.632   5.752   7.836
 4712TIP3    H235696   6.724   5.763   7.715
 4713TIP3   OH235697   4.421   0.010   8.013
 4713TIP3    H135698   4.344   0.053   7.976
 4713TIP3    H235699   4.481   6.911   7.938
 4714TIP3   OH235700   6.492   6.036   0.584
 4714TIP3    H135701   6.415   6.027   0.528
 4714TIP3    H235702   6.499   5.952   0.630
 4715TIP3   OH235703   3.503   3.426   6.556
 4715TIP3    H135704   3.567   3.407   6.624
 4715TIP3    H235705   3.533   3.509   6.517
 4716TIP3   OH235706   6.671   0.320   1.962
 4716TIP3    H135707   6.717   0.268   2.028
 4716TIP3    H235708   6.714   0.405   1.964
 4717TIP3   OH235709   3.711   4.074   0.672
 4717TIP3    H135710   3.627   4.029   0.680
 4717TIP3    H235711   3.745   4.077   0.761
 4718TIP3   OH235712   0.503   3.143   1.923
 4718TIP3    H135713   0.523   3.078   1.856
 4718TIP3    H235714   0.415   3.121   1.953
 4719TIP3   OH235715   5.714   6.523   2.034
 4719TIP3    H135716   5.720   6.618   2.045
 4719TIP3    H235717   5.721   6.487   2.122
 4720TIP3   OH235718   3.667   6.471   6.380
 4720TIP3    H135719   3.660   6.376   6.369
 4720TIP3    H235720   3.589   6.495   6.429
 4721TIP3   OH235721   1.161   5.072   6.618
 4721TIP3    H135722   1.196   5.146   6.568
 4721TIP3    H235723   1.111   5.112   6.689
 4722TIP3   OH235724   2.875   5.980   8.090
 4722TIP3    H135725   2.873   5.942   8.002
 4722TIP3    H235726   2.813   5.928   8.141
 4723TIP3   OH235727   5.946   5.572   7.466
 4723TIP3    H135728   5.862   5.614   7.483
 4723TIP3    H235729   5.925   5.498   7.408
 4724TIP3   OH235730   3.714   1.333   1.041
 4724TIP3    H135731   3.710   1.320   1.136
 4724TIP3    H235732   3.801   1.369   1.025
 4725TIP3   OH235733   3.540   3.850   0.012
 4725TIP3    H135734   3.487   3.773   0.031
 4725TIP3    H235735   3.512   3.878   8.528
 4726TIP3   OH235736   0.530   2.152   7.299
 4726TIP3    H135737   0.511   2.237   7.336
 4726TIP3    H235738   0.537   2.093   7.375
 4727TIP3   OH235739   1.312   6.056   0.394
 4727TIP3    H135740   1.329   5.961   0.391
 4727TIP3    H235741   1.290   6.073   0.486
 4728TIP3   OH235742   6.039   2.995   7.941
 4728TIP3    H135743   5.981   2.930   7.980
 4728TIP3    H235744   6.074   3.044   8.015
 4729TIP3   OH235745   1.570   3.157   7.488
 4729TIP3    H135746   1.570   3.107   7.570
 4729TIP3    H235747   1.621   3.236   7.509
 4730TIP3   OH235748   4.075   0.968   8.029
 4730TIP3    H135749   4.156   0.920   8.015
 4730TIP3    H235750   4.084   1.006   8.117
 4731TIP3   OH235751   1.552   2.965   0.217
 4731TIP3    H135752   1.577   3.028   0.284
 4731TIP3    H235753   1.456   2.963   0.220
 4732TIP3   OH235754   3.346   3.312   7.076
 4732TIP3    H135755   3.271   3.326   7.133
 4732TIP3    H235756   3.399   3.245   7.120
 4733TIP3   OH235757   5.259   6.877   7.789
 4733TIP3    H135758   5.330   6.814   7.776
 4733TIP3    H235759   5.282   0.009   7.871
 4734TIP3   OH235760   6.403   2.454   0.498
 4734TIP3    H135761   6.399   2.544   0.466
 4734TIP3    H235762   6.393   2.462   0.593
 4735TIP3   OH235763   1.641   4.809   0.459
 4735TIP3    H135764   1.698   4.882   0.436
 4735TIP3    H235765   1.674   4.735   0.407
 4736TIP3   OH235766   2.839   3.703   7.527
 4736TIP3    H135767   2.861   3.639   7.459
 4736TIP3    H235768   2.918   3.756   7.535
 4737TIP3   OH235769   0.712   6.271   0.497
 4737TIP3    H135770   0.755   6.317   0.425
 4737TIP3    H235771   0.783   6.244   0.555
 4738TIP3   OH235772   4.017   1.281   2.129
 4738TIP3    H135773   3.985   1.298   2.041
 4738TIP3    H235774   4.067   1.360   2.152
 4739TIP3   OH235775   0.732   4.286   8.526
 4739TIP3    H135776   0.711   4.244   8.443
 4739TIP3    H235777   0.819   4.254   8.548
 4740TIP3   OH235778   2.040   5.102   0.046
 4740TIP3    H135779   2.077   5.106   0.135
 4740TIP3    H235780   2.071   5.019   0.011
 4741TIP3   OH235781   3.107   4.752   7.580
 4741TIP3    H135782   3.065   4.813   7.519
 4741TIP3    H235783   3.154   4.808   7.642
 4742TIP3   OH235784   6.035   1.661   8.093
 4742TIP3    H135785   5.954   1.665   8.044
 4742TIP3    H235786   6.017   1.599   8.164
 4743TIP3   OH235787   6.845   6.149   2.027
 4743TIP3    H135788   6.796   6.197   2.095
 4743TIP3    H235789   6.823   6.057   2.042
 4744TIP3   OH235790   0.465   0.937   0.308
 4744TIP3    H135791   0.439   0.858   0.261
 4744TIP3    H235792   0.491   0.906   0.394
 4745TIP3   OH235793   2.827   6.087   8.378
 4745TIP3    H135794   2.862   6.133   8.301
 4745TIP3    H235795   2.806   6.000   8.345
 4746TIP3   OH235796   5.782   4.545   1.223
 4746TIP3    H135797   5.812   4.520   1.310
 4746TIP3    H235798   5.821   4.481   1.164
 4747TIP3   OH235799   0.814   3.145   8.467
 4747TIP3    H135800   0.870   3.223   8.468
 4747TIP3    H235801   0.875   3.072   8.450
 4748TIP3   OH235802   4.374   6.493   1.863
 4748TIP3    H135803   4.326   6.413   1.842
 4748TIP3    H235804   4.431   6.507   1.787
 4749TIP3   OH235805   6.388   4.912   7.931
 4749TIP3    H135806   6.382   4.869   8.016
 4749TIP3    H235807   6.420   4.844   7.872
 4750TIP3   OH235808   6.024   2.851   0.322
 4750TIP3    H135809   6.075   2.802   0.258
 4750TIP3    H235810   5.946   2.879   0.274
 4751TIP3   OH235811   5.285   2.127   1.449
 4751TIP3    H135812   5.320   2.130   1.538
 4751TIP3    H235813   5.233   2.207   1.441
 4752TIP3   OH235814   2.286   4.941   7.770
 4752TIP3    H135815   2.374   4.921   7.737
 4752TIP3    H235816   2.268   5.029   7.736
 4753TIP3   OH235817   0.295   3.544   7.549
 4753TIP3    H135818   0.341   3.460   7.552
 4753TIP3    H235819   0.211   3.524   7.510
 4754TIP3   OH235820   5.461   4.114   0.382
 4754TIP3    H135821   5.470   4.062   0.302
 4754TIP3    H235822   5.521   4.074   0.444
 4755TIP3   OH235823   4.826   5.830   6.923
 4755TIP3    H135824   4.847   5.921   6.940
 4755TIP3    H235825   4.861   5.813   6.835
 4756TIP3   OH235826   5.600   1.495   0.346
 4756TIP3    H135827   5.540   1.456   0.409
 4756TIP3    H235828   5.568   1.465   0.261
 4757TIP3   OH235829   6.389   5.417   2.146
 4757TIP3    H135830   6.476   5.456   2.152
 4757TIP3    H235831   6.385   5.359   2.223
 4758TIP3   OH235832   5.096   2.088   0.383
 4758TIP3    H135833   5.144   2.094   0.465
 4758TIP3    H235834   5.038   2.164   0.384
 4759TIP3   OH235835   5.690   3.303   7.856
 4759TIP3    H135836   5.762   3.365   7.841
 4759TIP3    H235837   5.677   3.304   7.951
 4760TIP3   OH235838   6.443   3.636   8.452
 4760TIP3    H135839   6.415   3.552   8.489
 4760TIP3    H235840   6.400   3.640   8.367
 4761TIP3   OH235841   6.381   5.787   7.576
 4761TIP3    H135842   6.299   5.785   7.526
 4761TIP3    H235843   6.354   5.768   7.666
 4762TIP3   OH235844   0.415   1.532   0.322
 4762TIP3    H135845   0.455   1.614   0.350
 4762TIP3    H235846   0.425   1.473   0.397
 4763TIP3   OH235847   1.640   0.640   8.480
 4763TIP3    H135848   1.598   0.722   8.507
 4763TIP3    H235849   1.690   0.664   8.403
 4764TIP3   OH235850   6.609   4.389   1.430
 4764TIP3    H135851   6.551   4.380   1.507
 4764TIP3    H235852   6.683   4.440   1.462
 4765TIP3   OH235853   5.581   4.143   8.222
 4765TIP3    H135854   5.611   4.052   8.232
 4765TIP3    H235855   5.511   4.138   8.157
 4766TIP3   OH235856   1.148   5.819   1.413
 4766TIP3    H135857   1.063   5.859   1.392
 4766TIP3    H235858   1.212   5.878   1.374
 4767TIP3   OH235859   0.063   1.795   7.197
 4767TIP3    H135860   0.156   1.777   7.208
 4767TIP3    H235861   0.020   1.710   7.208
 4768TIP3   OH235862   2.667   6.264   6.355
 4768TIP3    H135863   2.598   6.324   6.382
 4768TIP3    H235864   2.694   6.295   6.269
 4769TIP3   OH235865   0.262   4.346   8.019
 4769TIP3    H135866   0.183   4.400   8.019
 4769TIP3    H235867   0.232   4.260   8.049
 4770TIP3   OH235868   0.662   0.854   0.048
 4770TIP3    H135869   0.637   0.936   0.006
 4770TIP3    H235870   0.721   0.881   0.118
 4771TIP3   OH235871   2.667   1.418   1.889
 4771TIP3    H135872   2.715   1.402   1.971
 4771TIP3    H235873   2.590   1.468   1.916
 4772TIP3   OH235874   4.710   3.396   7.153
 4772TIP3    H135875   4.656   3.471   7.129
 4772TIP3    H235876   4.792   3.409   7.105
 4773TIP3   OH235877   3.574   4.366   8.089
 4773TIP3    H135878   3.599   4.317   8.011
 4773TIP3    H235879   3.478   4.362   8.090
 4774TIP3   OH235880   1.956   5.624   8.306
 4774TIP3    H135881   2.022   5.555   8.304
 4774TIP3    H235882   2.004   5.703   8.281
 4775TIP3   OH235883   3.105   0.635   7.689
 4775TIP3    H135884   3.096   0.656   7.596
 4775TIP3    H235885   3.080   0.716   7.734
 4776TIP3   OH235886   5.259   1.543   2.179
 4776TIP3    H135887   5.345   1.534   2.220
 4776TIP3    H235888   5.228   1.454   2.168
 4777TIP3   OH235889   2.204   4.625   8.079
 4777TIP3    H135890   2.186   4.622   8.173
 4777TIP3    H235891   2.276   4.687   8.070
 4778TIP3   OH235892   6.707   1.102   1.666
 4778TIP3    H135893   6.713   1.160   1.742
 4778TIP3    H235894   6.767   1.030   1.687
 4779TIP3   OH235895   6.602   3.670   7.858
 4779TIP3    H135896   6.587   3.719   7.939
 4779TIP3    H235897   6.533   3.603   7.858
 4780TIP3   OH235898   1.435   2.031   0.999
 4780TIP3    H135899   1.342   2.010   0.994
 4780TIP3    H235900   1.472   1.963   1.054
 4781TIP3   OH235901   4.482   2.007   1.767
 4781TIP3    H135902   4.513   2.093   1.795
 4781TIP3    H235903   4.560   1.961   1.737
 4782TIP3   OH235904   2.307   6.011   1.195
 4782TIP3    H135905   2.228   6.059   1.220
 4782TIP3    H235906   2.364   6.016   1.272
 4783TIP3   OH235907   2.361   4.152   1.120
 4783TIP3    H135908   2.341   4.215   1.051
 4783TIP3    H235909   2.282   4.149   1.174
 4784TIP3   OH235910   2.265   4.077   6.852
 4784TIP3    H135911   2.354   4.111   6.841
 4784TIP3    H235912   2.274   3.983   6.840
 4785TIP3   OH235913   5.320   1.892   0.056
 4785TIP3    H135914   5.391   1.955   0.066
 4785TIP3    H235915   5.353   1.812   0.098
 4786TIP3   OH235916   3.813   0.222   0.873
 4786TIP3    H135917   3.759   0.267   0.808
 4786TIP3    H235918   3.764   0.230   0.955
 4787TIP3   OH235919   1.302   2.892   7.977
 4787TIP3    H135920   1.396   2.910   7.986
 4787TIP3    H235921   1.260   2.951   8.040
 4788TIP3   OH235922   0.665   1.822   7.655
 4788TIP3    H135923   0.606   1.839   7.728
 4788TIP3    H235924   0.687   1.729   7.664
 4789TIP3   OH235925   3.158   1.924   1.058
 4789TIP3    H135926   3.069   1.956   1.075
 4789TIP3    H235927   3.184   1.967   0.977
 4790TIP3   OH235928   0.000   5.098   1.539
 4790TIP3    H135929   0.079   5.112   1.486
 4790TIP3    H235930   0.029   5.115   1.629
 4791TIP3   OH235931   3.508   4.098   6.323
 4791TIP3    H135932   3.508   4.164   6.254
 4791TIP3    H235933   3.491   4.015   6.278
 4792TIP3   OH235934   3.430   1.566   1.024
 4792TIP3    H135935   3.357   1.511   0.999
 4792TIP3    H235936   3.397   1.655   1.017
 4793TIP3   OH235937   6.192   4.149   1.236
 4793TIP3    H135938   6.147   4.210   1.295
 4793TIP3    H235939   6.130   4.077   1.226
 4794TIP3   OH235940   4.257   1.172   1.614
 4794TIP3    H135941   4.296   1.177   1.701
 4794TIP3    H235942   4.245   1.264   1.588
 4795TIP3   OH235943   1.985   5.408   6.380
 4795TIP3    H135944   1.963   5.322   6.343
 4795TIP3    H235945   1.928   5.469   6.333
 4796TIP3   OH235946   6.747   2.289   8.023
 4796TIP3    H135947   6.754   2.351   8.096
 4796TIP3    H235948   6.783   2.335   7.948
 4797TIP3   OH235949   6.532   1.695   1.655
 4797TIP3    H135950   6.588   1.662   1.725
 4797TIP3    H235951   6.593   1.720   1.585
 4798TIP3   OH235952   5.057   6.348   7.529
 4798TIP3    H135953   5.022   6.328   7.616
 4798TIP3    H235954   4.992   6.404   7.489
 4799TIP3   OH235955   1.207   5.306   7.694
 4799TIP3    H135956   1.302   5.314   7.696
 4799TIP3    H235957   1.177   5.384   7.648
 4800TIP3   OH235958   4.786   4.054   2.100
 4800TIP3    H135959   4.812   3.966   2.127
 4800TIP3    H235960   4.691   4.048   2.087
 4801TIP3   OH235961   1.440   4.780   7.464
 4801TIP3    H135962   1.489   4.708   7.503
 4801TIP3    H235963   1.443   4.763   7.370
 4802TIP3   OH235964   1.262   3.637   5.956
 4802TIP3    H135965   1.186   3.694   5.948
 4802TIP3    H235966   1.337   3.696   5.945
 4803TIP3   OH235967   0.587   4.067   8.046
 4803TIP3    H135968   0.527   4.001   8.080
 4803TIP3    H235969   0.581   4.057   7.951
 4804TIP3   OH235970   3.927   2.216   0.700
 4804TIP3    H135971   3.895   2.143   0.752
 4804TIP3    H235972   3.878   2.211   0.618
 4805TIP3   OH235973   3.033   5.395   0.929
 4805TIP3    H135974   3.025   5.453   1.004
 4805TIP3    H235975   3.125   5.402   0.902
 4806TIP3   OH235976   3.732   4.734   1.704
 4806TIP3    H135977   3.694   4.681   1.774
 4806TIP3    H235978   3.814   4.767   1.741
 4807TIP3   OH235979   2.623   5.648   0.263
 4807TIP3    H135980   2.574   5.641   0.344
 4807TIP3    H235981   2.682   5.723   0.277
 4808TIP3   OH235982   5.116   6.652   0.684
 4808TIP3    H135983   5.185   6.642   0.749
 4808TIP3    H235984   5.159   6.638   0.600
 4809TIP3   OH235985   0.970   3.649   6.292
 4809TIP3    H135986   0.980   3.571   6.347
 4809TIP3    H235987   1.055   3.657   6.247
 4810TIP3   OH235988   2.391   2.594   6.711
 4810TIP3    H135989   2.429   2.568   6.627
 4810TIP3    H235990   2.340   2.518   6.740
 4811TIP3   OH235991   3.589   6.278   6.728
 4811TIP3    H135992   3.578   6.373   6.729
 4811TIP3    H235993   3.500   6.244   6.741
 4812TIP3   OH235994   1.976   4.547   8.557
 4812TIP3    H135995   1.972   4.552   0.050
 4812TIP3    H235996   1.891   4.581   8.528
 4813TIP3   OH235997   6.572   4.871   0.756
 4813TIP3    H135998   6.605   4.929   0.687
 4813TIP3    H235999   6.644   4.811   0.774
 4814TIP3   OH236000   2.527   0.732   1.232
 4814TIP3    H136001   2.537   0.698   1.321
 4814TIP3    H236002   2.434   0.722   1.213
 4815TIP3   OH236003   1.862   1.962   7.873
 4815TIP3    H136004   1.778   1.967   7.827
 4815TIP3    H236005   1.871   2.046   7.917
 4816TIP3   OH236006   0.377   5.711   8.245
 4816TIP3    H136007   0.384   5.806   8.257
 4816TIP3    H236008   0.427   5.674   8.317
 4817TIP3   OH236009   0.930   6.314   7.783
 4817TIP3    H136010   0.947   6.269   7.700
 4817TIP3    H236011   0.844   6.355   7.770
 4818TIP3   OH236012   6.684   3.506   8.344
 4818TIP3    H136013   6.663   3.547   8.261
 4818TIP3    H236014   6.663   3.572   8.410
 4819TIP3   OH236015   0.153   5.780   0.128
 4819TIP3    H136016   0.183   5.845   0.064
 4819TIP3    H236017   0.206   5.796   0.206
 4820TIP3   OH236018   3.855   3.891   7.469
 4820TIP3    H136019   3.815   3.804   7.459
 4820TIP3    H236020   3.818   3.925   7.550
 4821TIP3   OH236021   3.130   3.533   6.893
 4821TIP3    H136022   3.111   3.471   6.822
 4821TIP3    H236023   3.106   3.618   6.857
 4822TIP3   OH236024   0.745   6.423   0.236
 4822TIP3    H136025   0.725   6.514   0.258
 4822TIP3    H236026   0.841   6.420   0.233
 4823TIP3   OH236027   4.208   3.320   8.129
 4823TIP3    H136028   4.201   3.278   8.043
 4823TIP3    H236029   4.217   3.247   8.191
 4824TIP3   OH236030   3.986   6.356   0.091
 4824TIP3    H136031   3.912   6.347   0.151
 4824TIP3    H236032   3.978   6.445   0.057
 4825TIP3   OH236033   0.226   3.494   1.468
 4825TIP3    H136034   0.220   3.492   1.372
 4825TIP3    H236035   0.309   3.540   1.485
 4826TIP3   OH236036   3.253   4.684   6.971
 4826TIP3    H136037   3.235   4.670   7.064
 4826TIP3    H236038   3.189   4.750   6.944
 4827TIP3   OH236039   5.323   4.760   2.036
 4827TIP3    H136040   5.235   4.791   2.014
 4827TIP3    H236041   5.330   4.676   1.990
 4828TIP3   OH236042   2.454   0.317   1.373
 4828TIP3    H136043   2.427   0.384   1.435
 4828TIP3    H236044   2.548   0.305   1.389
 4829TIP3   OH236045   6.130   2.931   7.161
 4829TIP3    H136046   6.180   2.942   7.080
 4829TIP3    H236047   6.181   2.976   7.228
 4830TIP3   OH236048   0.844   4.752   6.477
 4830TIP3    H136049   0.807   4.838   6.457
 4830TIP3    H236050   0.791   4.691   6.426
 4831TIP3   OH236051   1.932   6.524   8.070
 4831TIP3    H136052   1.867   6.461   8.039
 4831TIP3    H236053   2.004   6.517   8.008
 4832TIP3   OH236054   2.159   0.554   6.661
 4832TIP3    H136055   2.096   0.507   6.715
 4832TIP3    H236056   2.105   0.602   6.598
 4833TIP3   OH236057   1.455   0.012   8.147
 4833TIP3    H136058   1.425   6.839   8.116
 4833TIP3    H236059   1.500   6.906   8.229
 4834TIP3   OH236060   0.797   4.240   2.329
 4834TIP3    H136061   0.853   4.210   2.257
 4834TIP3    H236062   0.745   4.163   2.353
 4835TIP3   OH236063   6.868   4.422   2.580
 4835TIP3    H136064   0.041   4.387   2.553
 4835TIP3    H236065   6.888   4.502   2.628
 4836TIP3   OH236066   5.893   2.392   2.354
 4836TIP3    H136067   5.985   2.411   2.368
 4836TIP3    H236068   5.892   2.339   2.274
 4837TIP3   OH236069   3.987   6.479   0.847
 4837TIP3    H136070   4.081   6.490   0.861
 4837TIP3    H236071   3.948   6.556   0.888
 4838TIP3   OH236072   5.533   2.071   7.129
 4838TIP3    H136073   5.532   2.141   7.194
 4838TIP3    H236074   5.582   2.107   7.055
 4839TIP3   OH236075   1.309   5.904   7.322
 4839TIP3    H136076   1.364   5.832   7.291
 4839TIP3    H236077   1.329   5.976   7.262
 4840TIP3   OH236078   3.602   5.800   0.249
 4840TIP3    H136079   3.668   5.758   0.195
 4840TIP3    H236080   3.564   5.729   0.301
 4841TIP3   OH236081   6.777   6.597   6.844
 4841TIP3    H136082   6.765   6.539   6.919
 4841TIP3    H236083   6.813   6.542   6.775
 4842TIP3   OH236084   5.434   1.444   1.185
 4842TIP3    H136085   5.418   1.365   1.133
 4842TIP3    H236086   5.520   1.431   1.224
 4843TIP3   OH236087   3.558   6.770   7.815
 4843TIP3    H136088   3.637   6.763   7.869
 4843TIP3    H236089   3.513   6.686   7.828
 4844TIP3   OH236090   5.477   6.768   8.503
 4844TIP3    H136091   5.460   6.758   8.410
 4844TIP3    H236092   5.572   6.759   8.512
 4845TIP3   OH236093   4.882   3.184   1.110
 4845TIP3    H136094   4.797   3.146   1.090
 4845TIP3    H236095   4.921   3.124   1.173
 4846TIP3   OH236096   5.277   0.434   6.459
 4846TIP3    H136097   5.293   0.366   6.393
 4846TIP3    H236098   5.352   0.493   6.451
 4847TIP3   OH236099   4.610   2.564   0.994
 4847TIP3    H136100   4.692   2.528   0.960
 4847TIP3    H236101   4.636   2.642   1.043
 4848TIP3   OH236102   3.184   1.549   0.120
 4848TIP3    H136103   3.172   1.454   0.129
 4848TIP3    H236104   3.096   1.583   0.106
 4849TIP3   OH236105   4.246   2.980   7.592
 4849TIP3    H136106   4.337   2.992   7.564
 4849TIP3    H236107   4.252   2.958   7.685
 4850TIP3   OH236108   2.335   1.027   1.492
 4850TIP3    H136109   2.290   1.057   1.413
 4850TIP3    H236110   2.407   1.089   1.503
 4851TIP3   OH236111   1.548   1.598   0.608
 4851TIP3    H136112   1.508   1.616   0.524
 4851TIP3    H236113   1.575   1.683   0.641
 4852TIP3   OH236114   0.013   1.431   7.678
 4852TIP3    H136115   6.871   1.490   7.625
 4852TIP3    H236116   6.885   1.435   7.765
 4853TIP3   OH236117   3.770   2.272   6.638
 4853TIP3    H136118   3.855   2.240   6.670
 4853TIP3    H236119   3.783   2.366   6.625
 4854TIP3   OH236120   6.333   5.679   8.335
 4854TIP3    H136121   6.379   5.673   8.418
 4854TIP3    H236122   6.280   5.600   8.331
 4855TIP3   OH236123   5.814   2.210   1.501
 4855TIP3    H136124   5.779   2.201   1.413
 4855TIP3    H236125   5.826   2.120   1.531
 4856TIP3   OH236126   6.060   5.378   8.010
 4856TIP3    H136127   6.104   5.460   7.990
 4856TIP3    H236128   5.967   5.397   7.999
 4857TIP3   OH236129   2.501   6.705   7.867
 4857TIP3    H136130   2.513   6.733   7.776
 4857TIP3    H236131   2.456   6.778   7.909
 4858TIP3   OH236132   3.896   1.978   0.843
 4858TIP3    H136133   3.826   1.915   0.861
 4858TIP3    H236134   3.974   1.937   0.880
 4859TIP3   OH236135   5.035   3.417   8.289
 4859TIP3    H136136   5.027   3.499   8.241
 4859TIP3    H236137   5.090   3.438   8.365
 4860TIP3   OH236138   3.600   5.907   6.235
 4860TIP3    H136139   3.598   5.867   6.322
 4860TIP3    H236140   3.529   5.865   6.187
 4861TIP3   OH236141   6.878   5.299   1.102
 4861TIP3    H136142   6.857   5.303   1.196
 4861TIP3    H236143   6.797   5.267   1.061
 4862TIP3   OH236144   0.212   4.858   7.443
 4862TIP3    H136145   0.210   4.877   7.537
 4862TIP3    H236146   0.137   4.906   7.407
 4863TIP3   OH236147   0.259   2.757   1.116
 4863TIP3    H136148   0.265   2.822   1.186
 4863TIP3    H236149   0.262   2.809   1.035
 4864TIP3   OH236150   6.641   5.229   1.799
 4864TIP3    H136151   6.728   5.238   1.759
 4864TIP3    H236152   6.659   5.219   1.893
 4865TIP3   OH236153   5.271   6.515   6.709
 4865TIP3    H136154   5.222   6.440   6.744
 4865TIP3    H236155   5.360   6.483   6.701
 4866TIP3   OH236156   1.040   0.000   1.394
 4866TIP3    H136157   0.983   6.899   1.319
 4866TIP3    H236158   0.990   0.056   1.454
 4867TIP3   OH236159   4.723   4.031   8.596
 4867TIP3    H136160   4.650   3.982   8.560
 4867TIP3    H236161   4.745   3.985   0.074
 4868TIP3   OH236162   0.043   4.035   7.362
 4868TIP3    H136163   0.088   3.966   7.411
 4868TIP3    H236164   0.067   4.116   7.408
 4869TIP3   OH236165   3.245   5.019   7.008
 4869TIP3    H136166   3.332   4.991   6.980
 4869TIP3    H236167   3.225   5.094   6.952
 4870TIP3   OH236168   2.759   4.267   7.462
 4870TIP3    H136169   2.831   4.229   7.411
 4870TIP3    H236170   2.681   4.252   7.409
 4871TIP3   OH236171   3.702   4.250   7.867
 4871TIP3    H136172   3.677   4.243   7.775
 4871TIP3    H236173   3.731   4.162   7.891
 4872TIP3   OH236174   0.230   2.734   8.540
 4872TIP3    H136175   0.166   2.718   8.470
 4872TIP3    H236176   0.200   2.678   0.009
 4873TIP3   OH236177   5.893   4.588   1.483
 4873TIP3    H136178   5.846   4.640   1.548
 4873TIP3    H236179   5.983   4.583   1.517
 4874TIP3   OH236180   2.996   6.006   0.550
 4874TIP3    H136181   2.971   5.967   0.634
 4874TIP3    H236182   2.955   6.093   0.551
 4875TIP3   OH236183   6.581   5.461   1.218
 4875TIP3    H136184   6.571   5.475   1.124
 4875TIP3    H236185   6.623   5.375   1.225
 4876TIP3   OH236186   2.245   6.106   2.457
 4876TIP3    H136187   2.317   6.168   2.471
 4876TIP3    H236188   2.271   6.028   2.506
 4877TIP3   OH236189   5.764   6.815   1.356
 4877TIP3    H136190   5.830   6.793   1.423
 4877TIP3    H236191   5.806   6.884   1.304
 4878TIP3   OH236192   0.290   3.407   0.601
 4878TIP3    H136193   0.231   3.450   0.663
 4878TIP3    H236194   0.367   3.384   0.653
 4879TIP3   OH236195   0.516   3.453   6.566
 4879TIP3    H136196   0.427   3.486   6.552
 4879TIP3    H236197   0.573   3.527   6.545
 4880TIP3   OH236198   1.403   6.908   1.708
 4880TIP3    H136199   1.341   0.048   1.758
 4880TIP3    H236200   1.388   6.818   1.738
 4881TIP3   OH236201   1.841   0.920   7.549
 4881TIP3    H136202   1.830   0.829   7.577
 4881TIP3    H236203   1.771   0.933   7.484
 4882TIP3   OH236204   2.592   4.953   7.450
 4882TIP3    H136205   2.563   4.862   7.445
 4882TIP3    H236206   2.646   4.965   7.372
 4883TIP3   OH236207   1.784   0.303   2.131
 4883TIP3    H136208   1.717   0.238   2.107
 4883TIP3    H236209   1.866   0.265   2.101
 4884TIP3   OH236210   4.444   1.200   2.253
 4884TIP3    H136211   4.525   1.194   2.303
 4884TIP3    H236212   4.431   1.294   2.239
 4885TIP3   OH236213   3.288   2.125   1.331
 4885TIP3    H136214   3.242   2.044   1.353
 4885TIP3    H236215   3.381   2.103   1.340
 4886TIP3   OH236216   4.029   5.949   6.657
 4886TIP3    H136217   3.946   5.993   6.671
 4886TIP3    H236218   4.041   5.949   6.562
 4887TIP3   OH236219   0.734   5.543   1.022
 4887TIP3    H136220   0.706   5.482   1.090
 4887TIP3    H236221   0.688   5.514   0.943
 4888TIP3   OH236222   4.145   5.739   8.574
 4888TIP3    H136223   4.107   5.758   8.488
 4888TIP3    H236224   4.073   5.752   0.032
 4889TIP3   OH236225   3.068   0.413   2.144
 4889TIP3    H136226   3.003   0.482   2.138
 4889TIP3    H236227   3.153   0.458   2.140
 4890TIP3   OH236228   4.953   5.905   6.607
 4890TIP3    H136229   4.968   5.880   6.515
 4890TIP3    H236230   4.860   5.891   6.621
 4891TIP3   OH236231   1.909   6.038   7.540
 4891TIP3    H136232   1.959   6.118   7.526
 4891TIP3    H236233   1.818   6.066   7.539
 4892TIP3   OH236234   4.048   6.900   7.722
 4892TIP3    H136235   4.096   6.820   7.741
 4892TIP3    H236236   3.956   6.874   7.721
 4893TIP3   OH236237   1.710   0.453   7.482
 4893TIP3    H136238   1.757   0.481   7.404
 4893TIP3    H236239   1.747   0.507   7.553
 4894TIP3   OH236240   3.523   6.464   8.176
 4894TIP3    H136241   3.436   6.476   8.214
 4894TIP3    H236242   3.580   6.448   8.250
 4895TIP3   OH236243   4.519   6.131   6.423
 4895TIP3    H136244   4.562   6.215   6.439
 4895TIP3    H236245   4.588   6.076   6.385
 4896TIP3   OH236246   6.016   5.286   2.088
 4896TIP3    H136247   6.086   5.245   2.138
 4896TIP3    H236248   5.979   5.215   2.035
 4897TIP3   OH236249   6.434   3.504   1.849
 4897TIP3    H136250   6.395   3.496   1.936
 4897TIP3    H236251   6.397   3.585   1.813
 4898TIP3   OH236252   2.804   3.983   7.302
 4898TIP3    H136253   2.850   4.004   7.221
 4898TIP3    H236254   2.873   3.963   7.365
 4899TIP3   OH236255   4.911   0.481   2.015
 4899TIP3    H136256   4.834   0.429   2.041
 4899TIP3    H236257   4.964   0.419   1.964
 4900TIP3   OH236258   4.255   0.288   0.235
 4900TIP3    H136259   4.230   0.287   0.142
 4900TIP3    H236260   4.346   0.316   0.235
 4901TIP3   OH236261   4.424   1.117   7.979
 4901TIP3    H136262   4.483   1.137   7.907
 4901TIP3    H236263   4.384   1.033   7.954
 4902TIP3   OH236264   1.541   5.259   8.522
 4902TIP3    H136265   1.450   5.265   8.551
 4902TIP3    H236266   1.535   5.219   8.435
 4903TIP3   OH236267   3.378   5.466   7.018
 4903TIP3    H136268   3.377   5.561   7.008
 4903TIP3    H236269   3.410   5.433   6.934
 4904TIP3   OH236270   5.236   6.309   2.182
 4904TIP3    H136271   5.222   6.365   2.105
 4904TIP3    H236272   5.270   6.227   2.146
 4905TIP3   OH236273   0.151   5.163   7.753
 4905TIP3    H136274   0.167   5.090   7.814
 4905TIP3    H236275   0.214   5.149   7.683
 4906TIP3   OH236276   0.792   5.883   0.174
 4906TIP3    H136277   0.740   5.803   0.174
 4906TIP3    H236278   0.749   5.939   0.238
 4907TIP3   OH236279   1.720   6.569   2.245
 4907TIP3    H136280   1.748   6.551   2.156
 4907TIP3    H236281   1.642   6.514   2.258
 4908TIP3   OH236282   2.754   6.356   0.947
 4908TIP3    H136283   2.765   6.261   0.949
 4908TIP3    H236284   2.826   6.390   0.999
 4909TIP3   OH236285   1.197   3.944   0.623
 4909TIP3    H136286   1.129   4.006   0.597
 4909TIP3    H236287   1.165   3.859   0.590
 4910TIP3   OH236288   1.653   4.328   1.487
 4910TIP3    H136289   1.642   4.380   1.566
 4910TIP3    H236290   1.613   4.243   1.508
 4911TIP3   OH236291   3.069   5.131   2.182
 4911TIP3    H136292   3.083   5.096   2.270
 4911TIP3    H236293   3.156   5.159   2.153
 4912TIP3   OH236294   6.004   0.243   7.711
 4912TIP3    H136295   5.909   0.233   7.706
 4912TIP3    H236296   6.020   0.280   7.798
 4913TIP3   OH236297   5.346   5.368   8.431
 4913TIP3    H136298   5.304   5.424   8.365
 4913TIP3    H236299   5.405   5.427   8.478
 4914TIP3   OH236300   6.515   2.637   0.986
 4914TIP3    H136301   6.456   2.636   1.062
 4914TIP3    H236302   6.589   2.690   1.014
 4915TIP3   OH236303   2.545   6.272   1.240
 4915TIP3    H136304   2.511   6.186   1.266
 4915TIP3    H236305   2.559   6.265   1.145
 4916TIP3   OH236306   0.611   2.820   1.624
 4916TIP3    H136307   0.562   2.902   1.620
 4916TIP3    H236308   0.690   2.836   1.572
 4917TIP3   OH236309   1.264   1.469   7.344
 4917TIP3    H136310   1.340   1.415   7.323
 4917TIP3    H236311   1.189   1.410   7.333
 4918TIP3   OH236312   3.463   6.555   2.122
 4918TIP3    H136313   3.468   6.600   2.206
 4918TIP3    H236314   3.486   6.464   2.141
 4919TIP3   OH236315   3.454   3.023   7.473
 4919TIP3    H136316   3.445   3.117   7.457
 4919TIP3    H236317   3.436   2.983   7.388
 4920TIP3   OH236318   0.922   1.890   7.610
 4920TIP3    H136319   0.828   1.877   7.624
 4920TIP3    H236320   0.930   1.982   7.586
 4921TIP3   OH236321   5.881   3.631   0.627
 4921TIP3    H136322   5.894   3.652   0.719
 4921TIP3    H236323   5.913   3.708   0.580
 4922TIP3   OH236324   5.129   3.540   8.542
 4922TIP3    H136325   5.115   3.476   0.009
 4922TIP3    H236326   5.128   3.625   8.587
 4923TIP3   OH236327   5.038   6.885   2.611
 4923TIP3    H136328   5.052   6.792   2.630
 4923TIP3    H236329   4.947   6.891   2.583
 4924TIP3   OH236330   1.363   3.342   6.328
 4924TIP3    H136331   1.418   3.420   6.337
 4924TIP3    H236332   1.283   3.363   6.377
 4925TIP3   OH236333   4.444   2.518   0.207
 4925TIP3    H136334   4.438   2.423   0.194
 4925TIP3    H236335   4.531   2.541   0.174
 4926TIP3   OH236336   4.332   0.684   1.241
 4926TIP3    H136337   4.339   0.650   1.331
 4926TIP3    H236338   4.250   0.648   1.209
 4927TIP3   OH236339   6.674   5.950   7.054
 4927TIP3    H136340   6.742   5.944   7.121
 4927TIP3    H236341   6.710   5.904   6.978
 4928TIP3   OH236342   2.269   5.572   6.971
 4928TIP3    H136343   2.207   5.566   6.899
 4928TIP3    H236344   2.300   5.482   6.985
 4929TIP3   OH236345   1.914   0.365   0.881
 4929TIP3    H136346   1.953   0.441   0.925
 4929TIP3    H236347   1.988   0.309   0.859
 4930TIP3   OH236348   0.699   3.536   0.979
 4930TIP3    H136349   0.738   3.580   0.904
 4930TIP3    H236350   0.770   3.530   1.043
 4931TIP3   OH236351   2.907   5.046   1.688
 4931TIP3    H136352   2.950   5.058   1.603
 4931TIP3    H236353   2.896   4.951   1.695
 4932TIP3   OH236354   0.670   4.654   1.253
 4932TIP3    H136355   0.752   4.616   1.221
 4932TIP3    H236356   0.674   4.746   1.227
 4933TIP3   OH236357   3.396   0.961   2.212
 4933TIP3    H136358   3.489   0.966   2.234
 4933TIP3    H236359   3.373   1.048   2.181
 4934TIP3   OH236360   3.314   0.932   7.738
 4934TIP3    H136361   3.235   0.878   7.730
 4934TIP3    H236362   3.383   0.880   7.697
 4935TIP3   OH236363   5.089   5.652   0.391
 4935TIP3    H136364   5.050   5.565   0.391
 4935TIP3    H236365   5.166   5.644   0.334
 4936TIP3   OH236366   0.063   4.027   7.776
 4936TIP3    H136367   0.134   4.034   7.712
 4936TIP3    H236368   0.036   3.935   7.771
 4937TIP3   OH236369   6.574   2.047   7.795
 4937TIP3    H136370   6.479   2.041   7.802
 4937TIP3    H236371   6.589   2.118   7.732
 4938TIP3   OH236372   4.791   6.858   7.956
 4938TIP3    H136373   4.861   0.007   7.978
 4938TIP3    H236374   4.758   6.889   7.872
 4939TIP3   OH236375   2.492   6.416   8.210
 4939TIP3    H136376   2.453   6.386   8.292
 4939TIP3    H236377   2.503   6.511   8.222
 4940TIP3   OH236378   6.158   2.438   0.713
 4940TIP3    H136379   6.236   2.488   0.735
 4940TIP3    H236380   6.149   2.375   0.784
 4941TIP3   OH236381   1.196   6.019   1.842
 4941TIP3    H136382   1.269   6.074   1.870
 4941TIP3    H236383   1.125   6.043   1.902
 4942TIP3   OH236384   5.348   2.122   2.678
 4942TIP3    H136385   5.306   2.045   2.718
 4942TIP3    H236386   5.323   2.117   2.586
 4943TIP3   OH236387   2.150   2.437   6.992
 4943TIP3    H136388   2.236   2.431   7.034
 4943TIP3    H236389   2.121   2.526   7.008
 4944TIP3   OH236390   5.999   2.128   1.720
 4944TIP3    H136391   6.063   2.179   1.670
 4944TIP3    H236392   5.967   2.189   1.787
 4945TIP3   OH236393   3.750   0.293   7.555
 4945TIP3    H136394   3.697   0.337   7.621
 4945TIP3    H236395   3.735   0.200   7.571
 4946TIP3   OH236396   4.453   5.989   1.139
 4946TIP3    H136397   4.387   6.024   1.079
 4946TIP3    H236398   4.404   5.968   1.219
 4947TIP3   OH236399   4.813   5.694   1.471
 4947TIP3    H136400   4.780   5.716   1.558
 4947TIP3    H236401   4.902   5.728   1.470
 4948TIP3   OH236402   1.960   0.197   7.620
 4948TIP3    H136403   1.911   0.155   7.691
 4948TIP3    H236404   1.897   0.201   7.548
 4949TIP3   OH236405   1.688   5.700   6.401
 4949TIP3    H136406   1.704   5.666   6.312
 4949TIP3    H236407   1.754   5.769   6.411
 4950TIP3   OH236408   3.324   0.401   6.811
 4950TIP3    H136409   3.360   0.441   6.890
 4950TIP3    H236410   3.356   0.310   6.814
 4951TIP3   OH236411   6.721   1.988   0.212
 4951TIP3    H136412   6.629   1.978   0.234
 4951TIP3    H236413   6.766   1.924   0.268
 4952TIP3   OH236414   5.651   1.160   1.692
 4952TIP3    H136415   5.736   1.116   1.683
 4952TIP3    H236416   5.589   1.089   1.709
 4953TIP3   OH236417   6.523   3.688   1.096
 4953TIP3    H136418   6.441   3.640   1.085
 4953TIP3    H236419   6.519   3.757   1.031
 4954TIP3   OH236420   3.623   6.818   7.412
 4954TIP3    H136421   3.694   6.809   7.348
 4954TIP3    H236422   3.648   6.761   7.485
 4955TIP3   OH236423   5.979   2.637   1.179
 4955TIP3    H136424   5.962   2.672   1.091
 4955TIP3    H236425   5.918   2.684   1.235
 4956TIP3   OH236426   5.768   3.331   1.699
 4956TIP3    H136427   5.728   3.398   1.644
 4956TIP3    H236428   5.694   3.279   1.732
 4957TIP3   OH236429   2.660   6.272   2.007
 4957TIP3    H136430   2.747   6.293   2.042
 4957TIP3    H236431   2.657   6.177   2.003
 4958TIP3   OH236432   2.227   6.573   8.208
 4958TIP3    H136433   2.295   6.626   8.166
 4958TIP3    H236434   2.168   6.547   8.136
 4959TIP3   OH236435   0.545   2.272   0.706
 4959TIP3    H136436   0.568   2.362   0.684
 4959TIP3    H236437   0.540   2.227   0.621
 4960TIP3   OH236438   5.403   1.092   1.998
 4960TIP3    H136439   5.366   1.020   2.049
 4960TIP3    H236440   5.469   1.131   2.055
 4961TIP3   OH236441   2.024   2.096   1.238
 4961TIP3    H136442   1.932   2.100   1.214
 4961TIP3    H236443   2.054   2.187   1.235
 4962TIP3   OH236444   1.089   6.099   1.053
 4962TIP3    H136445   1.019   6.090   1.119
 4962TIP3    H236446   1.165   6.126   1.104
 4963TIP3   OH236447   4.782   1.151   8.009
 4963TIP3    H136448   4.836   1.095   7.953
 4963TIP3    H236449   4.844   1.187   8.072
 4964TIP3   OH236450   1.367   1.446   0.293
 4964TIP3    H136451   1.389   1.539   0.301
 4964TIP3    H236452   1.431   1.402   0.348
 4965TIP3   OH236453   5.195   1.664   7.238
 4965TIP3    H136454   5.245   1.689   7.160
 4965TIP3    H236455   5.167   1.574   7.222
 4966TIP3   OH236456   0.037   3.707   0.218
 4966TIP3    H136457   0.132   3.702   0.234
 4966TIP3    H236458   0.019   3.801   0.215
 4967TIP3   OH236459   0.470   0.567   8.388
 4967TIP3    H136460   0.442   0.639   8.330
 4967TIP3    H236461   0.398   0.505   8.385
 4968TIP3   OH236462   6.697   5.264   7.548
 4968TIP3    H136463   6.680   5.271   7.454
 4968TIP3    H236464   6.610   5.260   7.587
 4969TIP3   OH236465   6.219   6.175   0.728
 4969TIP3    H136466   6.279   6.248   0.713
 4969TIP3    H236467   6.231   6.152   0.820
 4970TIP3   OH236468   6.388   4.128   1.782
 4970TIP3    H136469   6.312   4.118   1.839
 4970TIP3    H236470   6.458   4.078   1.825
 4971TIP3   OH236471   4.073   3.921   0.117
 4971TIP3    H136472   3.997   3.920   0.058
 4971TIP3    H236473   4.132   3.855   0.081
 4972TIP3   OH236474   4.285   1.364   1.211
 4972TIP3    H136475   4.211   1.360   1.273
 4972TIP3    H236476   4.344   1.295   1.242
 4973TIP3   OH236477   3.015   6.838   8.577
 4973TIP3    H136478   3.055   6.819   8.492
 4973TIP3    H236479   3.048   6.770   0.032
 4974TIP3   OH236480   3.061   6.795   1.949
 4974TIP3    H136481   3.065   6.800   2.044
 4974TIP3    H236482   3.125   6.860   1.919
 4975TIP3   OH236483   5.795   4.101   2.084
 4975TIP3    H136484   5.732   4.172   2.103
 4975TIP3    H236485   5.755   4.023   2.123
 4976TIP3   OH236486   1.412   5.851   6.234
 4976TIP3    H136487   1.468   5.856   6.157
 4976TIP3    H236488   1.450   5.914   6.295
 4977TIP3   OH236489   0.078   4.604   1.139
 4977TIP3    H136490   0.099   4.681   1.192
 4977TIP3    H236491   0.107   4.529   1.191
 4978TIP3   OH236492   0.193   1.383   7.972
 4978TIP3    H136493   0.244   1.326   7.914
 4978TIP3    H236494   0.195   1.469   7.930
 4979TIP3   OH236495   2.033   1.013   0.699
 4979TIP3    H136496   1.944   1.047   0.695
 4979TIP3    H236497   2.045   0.967   0.616
 4980TIP3   OH236498   0.498   2.083   8.419
 4980TIP3    H136499   0.405   2.095   8.440
 4980TIP3    H236500   0.507   1.989   8.403
 4981TIP3   OH236501   0.193   2.384   7.248
 4981TIP3    H136502   0.116   2.389   7.305
 4981TIP3    H236503   0.172   2.316   7.184
 4982TIP3   OH236504   1.061   1.137   1.886
 4982TIP3    H136505   0.980   1.152   1.838
 4982TIP3    H236506   1.074   1.042   1.882
 4983TIP3   OH236507   5.918   1.966   7.876
 4983TIP3    H136508   5.987   1.970   7.942
 4983TIP3    H236509   5.838   1.948   7.925
 4984TIP3   OH236510   5.934   6.368   6.238
 4984TIP3    H136511   5.853   6.404   6.273
 4984TIP3    H236512   5.952   6.291   6.291
 4985TIP3   OH236513   1.216   4.889   0.812
 4985TIP3    H136514   1.132   4.895   0.857
 4985TIP3    H236515   1.278   4.934   0.870
 4986TIP3   OH236516   1.382   4.445   7.899
 4986TIP3    H136517   1.444   4.512   7.927
 4986TIP3    H236518   1.393   4.374   7.962
 4987TIP3   OH236519   6.214   1.586   6.845
 4987TIP3    H136520   6.126   1.619   6.861
 4987TIP3    H236521   6.264   1.664   6.819
 4988TIP3   OH236522   0.670   0.083   0.961
 4988TIP3    H136523   0.632   6.909   0.950
 4988TIP3    H236524   0.646   0.109   1.050
 4989TIP3   OH236525   0.517   1.467   6.936
 4989TIP3    H136526   0.463   1.443   7.012
 4989TIP3    H236527   0.456   1.463   6.862
 4990TIP3   OH236528   5.191   5.808   6.339
 4990TIP3    H136529   5.195   5.903   6.328
 4990TIP3    H236530   5.098   5.787   6.328
 4991TIP3   OH236531   5.527   3.937   8.496
 4991TIP3    H136532   5.451   3.991   8.472
 4991TIP3    H236533   5.600   3.999   8.499
 4992TIP3   OH236534   0.888   1.955   1.376
 4992TIP3    H136535   0.954   1.910   1.428
 4992TIP3    H236536   0.895   1.916   1.289
 4993TIP3   OH236537   4.613   5.915   7.681
 4993TIP3    H136538   4.519   5.902   7.669
 4993TIP3    H236539   4.646   5.933   7.593
 4994TIP3   OH236540   4.070   3.058   0.670
 4994TIP3    H136541   4.022   3.062   0.753
 4994TIP3    H236542   4.115   3.142   0.664
 4995TIP3   OH236543   2.997   3.019   7.407
 4995TIP3    H136544   2.949   3.095   7.374
 4995TIP3    H236545   3.052   3.054   7.477
 4996TIP3   OH236546   2.956   6.635   6.633
 4996TIP3    H136547   2.863   6.631   6.655
 4996TIP3    H236548   2.968   6.568   6.565
 4997TIP3   OH236549   4.408   4.065   6.407
 4997TIP3    H136550   4.479   4.128   6.408
 4997TIP3    H236551   4.441   3.991   6.457
 4998TIP3   OH236552   0.654   4.223   1.970
 4998TIP3    H136553   0.590   4.215   2.040
 4998TIP3    H236554   0.712   4.294   1.999
 4999TIP3   OH236555   1.091   3.727   0.442
 4999TIP3    H136556   1.056   3.642   0.471
 4999TIP3    H236557   1.153   3.704   0.372
 5000TIP3   OH236558   2.645   5.235   1.084
 5000TIP3    H136559   2.586   5.304   1.113
 5000TIP3    H236560   2.602   5.197   1.007
 5001TIP3   OH236561   6.187   5.299   8.565
 5001TIP3    H136562   6.220   5.343   0.040
 5001TIP3    H236563   6.092   5.302   8.574
 5002TIP3   OH236564   1.110   6.738   0.587
 5002TIP3    H136565   1.149   6.680   0.521
 5002TIP3    H236566   1.155   6.821   0.574
 5003TIP3   OH236567   6.084   6.025   0.261
 5003TIP3    H136568   6.132   6.046   0.180
 5003TIP3    H236569   6.019   6.095   0.269
 5004TIP3   OH236570   1.092   3.680   7.948
 5004TIP3    H136571   1.144   3.649   7.873
 5004TIP3    H236572   1.007   3.702   7.910
 5005TIP3   OH236573   5.432   4.074   7.998
 5005TIP3    H136574   5.440   4.066   7.903
 5005TIP3    H236575   5.364   4.011   8.022
 5006TIP3   OH236576   2.052   5.841   0.230
 5006TIP3    H136577   2.110   5.903   0.186
 5006TIP3    H236578   2.099   5.817   0.310
 5007TIP3   OH236579   2.972   1.480   7.294
 5007TIP3    H136580   2.896   1.522   7.336
 5007TIP3    H236581   2.967   1.389   7.321
 5008TIP3   OH236582   0.491   6.418   0.917
 5008TIP3    H136583   0.427   6.469   0.966
 5008TIP3    H236584   0.446   6.395   0.836
 5009TIP3   OH236585   2.075   6.377   5.894
 5009TIP3    H136586   2.036   6.310   5.951
 5009TIP3    H236587   2.154   6.337   5.860
 5010TIP3   OH236588   1.894   2.436   6.061
 5010TIP3    H136589   1.962   2.449   5.995
 5010TIP3    H236590   1.832   2.508   6.046
 5011TIP3   OH236591   5.518   4.940   1.613
 5011TIP3    H136592   5.496   4.958   1.704
 5011TIP3    H236593   5.602   4.893   1.618
 5012TIP3   OH236594   0.535   2.662   6.876
 5012TIP3    H136595   0.559   2.570   6.862
 5012TIP3    H236596   0.619   2.709   6.873
 5013TIP3   OH236597   3.536   6.675   8.514
 5013TIP3    H136598   3.609   6.635   8.561
 5013TIP3    H236599   3.576   6.742   8.459
 5014TIP3   OH236600   2.599   3.354   7.932
 5014TIP3    H136601   2.678   3.313   7.970
 5014TIP3    H236602   2.607   3.447   7.956
 5015TIP3   OH236603   1.844   3.525   6.210
 5015TIP3    H136604   1.850   3.609   6.165
 5015TIP3    H236605   1.779   3.476   6.161
 5016TIP3   OH236606   3.835   0.833   7.252
 5016TIP3    H136607   3.851   0.926   7.267
 5016TIP3    H236608   3.903   0.806   7.190
 5017TIP3   OH236609   3.283   3.745   8.500
 5017TIP3    H136610   3.297   3.651   8.486
 5017TIP3    H236611   3.261   3.752   8.592
 5018TIP3   OH236612   1.153   1.295   7.637
 5018TIP3    H136613   1.231   1.312   7.689
 5018TIP3    H236614   1.080   1.322   7.693
 5019TIP3   OH236615   2.714   6.758   8.030
 5019TIP3    H136616   2.750   6.839   7.993
 5019TIP3    H236617   2.646   6.731   7.967
 5020TIP3   OH236618   3.093   2.819   0.581
 5020TIP3    H136619   3.109   2.896   0.527
 5020TIP3    H236620   3.038   2.762   0.526
 5021TIP3   OH236621   3.680   0.167   0.359
 5021TIP3    H136622   3.728   0.237   0.403
 5021TIP3    H236623   3.632   0.123   0.429
 5022TIP3   OH236624   3.184   6.783   2.203
 5022TIP3    H136625   3.138   6.862   2.230
 5022TIP3    H236626   3.262   6.781   2.259
 5023TIP3   OH236627   2.244   4.691   7.087
 5023TIP3    H136628   2.165   4.725   7.043
 5023TIP3    H236629   2.265   4.757   7.153
 5024TIP3   OH236630   4.899   4.402   1.499
 5024TIP3    H136631   4.881   4.360   1.583
 5024TIP3    H236632   4.995   4.399   1.491
 5025TIP3   OH236633   6.407   4.649   7.317
 5025TIP3    H136634   6.317   4.621   7.332
 5025TIP3    H236635   6.413   4.656   7.221
 5026TIP3   OH236636   2.911   6.591   8.119
 5026TIP3    H136637   2.829   6.622   8.080
 5026TIP3    H236638   2.956   6.671   8.146
 5027TIP3   OH236639   3.643   0.677   1.732
 5027TIP3    H136640   3.629   0.704   1.641
 5027TIP3    H236641   3.684   0.753   1.773
 5028TIP3   OH236642   1.065   5.720   0.093
 5028TIP3    H136643   1.052   5.686   0.004
 5028TIP3    H236644   0.978   5.719   0.131
 5029TIP3   OH236645   2.181   6.798   7.644
 5029TIP3    H136646   2.119   6.832   7.708
 5029TIP3    H236647   2.267   6.827   7.676
 5030TIP3   OH236648   3.581   2.855   0.444
 5030TIP3    H136649   3.674   2.866   0.426
 5030TIP3    H236650   3.578   2.793   0.517
 5031TIP3   OH236651   0.860   5.493   7.327
 5031TIP3    H136652   0.829   5.432   7.260
 5031TIP3    H236653   0.867   5.440   7.406
 5032TIP3   OH236654   0.717   4.861   7.617
 5032TIP3    H136655   0.687   4.788   7.562
 5032TIP3    H236656   0.753   4.925   7.555
 5033TIP3   OH236657   1.389   3.620   1.023
 5033TIP3    H136658   1.354   3.708   1.035
 5033TIP3    H236659   1.314   3.569   0.993
 5034TIP3   OH236660   1.049   3.045   0.464
 5034TIP3    H136661   1.065   3.136   0.440
 5034TIP3    H236662   0.969   3.022   0.415
 5035TIP3   OH236663   3.575   1.021   0.240
 5035TIP3    H136664   3.665   1.014   0.272
 5035TIP3    H236665   3.574   0.971   0.159
 5036TIP3   OH236666   5.842   5.277   8.282
 5036TIP3    H136667   5.779   5.333   8.238
 5036TIP3    H236668   5.825   5.189   8.247
 5037TIP3   OH236669   4.552   2.941   0.302
 5037TIP3    H136670   4.537   2.942   0.208
 5037TIP3    H236671   4.465   2.928   0.340
 5038TIP3   OH236672   2.102   5.925   7.329
 5038TIP3    H136673   2.143   6.000   7.372
 5038TIP3    H236674   2.152   5.913   7.248
 5039TIP3   OH236675   6.423   4.022   7.424
 5039TIP3    H136676   6.377   3.973   7.357
 5039TIP3    H236677   6.512   4.033   7.391
 5040TIP3   OH236678   2.953   0.310   7.764
 5040TIP3    H136679   3.030   0.259   7.737
 5040TIP3    H236680   2.988   0.374   7.825
 5041TIP3   OH236681   4.936   3.001   8.108
 5041TIP3    H136682   5.004   2.999   8.175
 5041TIP3    H236683   4.983   3.024   8.028
 5042TIP3   OH236684   4.467   2.359   7.964
 5042TIP3    H136685   4.415   2.433   7.934
 5042TIP3    H236686   4.407   2.284   7.961
 5043TIP3   OH236687   4.753   6.211   7.414
 5043TIP3    H136688   4.790   6.241   7.497
 5043TIP3    H236689   4.779   6.278   7.351
 5044TIP3   OH236690   5.680   5.834   8.287
 5044TIP3    H136691   5.660   5.765   8.224
 5044TIP3    H236692   5.653   5.799   8.372
 5045TIP3   OH236693   0.137   2.692   7.180
 5045TIP3    H136694   0.120   2.681   7.273
 5045TIP3    H236695   0.155   2.604   7.148
 5046TIP3   OH236696   2.627   0.188   7.024
 5046TIP3    H136697   2.636   0.217   6.933
 5046TIP3    H236698   2.623   0.269   7.074
 5047TIP3   OH236699   2.032   3.210   8.445
 5047TIP3    H136700   2.100   3.237   8.507
 5047TIP3    H236701   2.020   3.117   8.461
 5048TIP3   OH236702   5.509   0.181   1.657
 5048TIP3    H136703   5.581   0.163   1.597
 5048TIP3    H236704   5.458   0.249   1.614
 5049TIP3   OH236705   5.647   2.639   1.002
 5049TIP3    H136706   5.602   2.696   1.065
 5049TIP3    H236707   5.691   2.573   1.056
 5050TIP3   OH236708   6.783   2.873   7.876
 5050TIP3    H136709   6.730   2.801   7.841
 5050TIP3    H236710   6.759   2.878   7.968
 5051TIP3   OH236711   2.189   4.379   7.666
 5051TIP3    H136712   2.094   4.389   7.660
 5051TIP3    H236713   2.206   4.369   7.760
 5052TIP3   OH236714   0.253   0.025   0.220
 5052TIP3    H136715   0.334   6.904   0.259
 5052TIP3    H236716   0.210   6.859   0.185
 5053TIP3   OH236717   6.798   4.761   7.204
 5053TIP3    H136718   6.792   4.850   7.240
 5053TIP3    H236719   6.887   4.756   7.168
 5054TIP3   OH236720   0.627   0.886   0.857
 5054TIP3    H136721   0.605   0.799   0.825
 5054TIP3    H236722   0.723   0.884   0.868
 5055TIP3   OH236723   2.220   4.291   6.601
 5055TIP3    H136724   2.280   4.338   6.543
 5055TIP3    H236725   2.169   4.235   6.541
 5056TIP3   OH236726   4.694   2.255   0.058
 5056TIP3    H136727   4.734   2.340   0.037
 5056TIP3    H236728   4.605   2.262   0.024
 5057TIP3   OH236729   2.486   1.822   1.498
 5057TIP3    H136730   2.477   1.828   1.593
 5057TIP3    H236731   2.420   1.882   1.464
 5058TIP3   OH236732   2.477   6.100   2.249
 5058TIP3    H136733   2.504   6.159   2.319
 5058TIP3    H236734   2.559   6.070   2.210
 5059TIP3   OH236735   6.031   4.654   0.639
 5059TIP3    H136736   5.986   4.653   0.554
 5059TIP3    H236737   6.016   4.742   0.673
 5060TIP3   OH236738   0.493   6.905   6.707
 5060TIP3    H136739   0.503   0.013   6.800
 5060TIP3    H236740   0.473   6.811   6.705
 5061TIP3   OH236741   3.845   5.207   1.781
 5061TIP3    H136742   3.780   5.146   1.818
 5061TIP3    H236743   3.794   5.284   1.756
 5062TIP3   OH236744   3.770   1.278   1.777
 5062TIP3    H136745   3.718   1.290   1.698
 5062TIP3    H236746   3.758   1.359   1.826
 5063TIP3   OH236747   3.553   3.100   7.084
 5063TIP3    H136748   3.606   3.125   7.008
 5063TIP3    H236749   3.556   3.005   7.086
 5064TIP3   OH236750   4.104   0.617   0.152
 5064TIP3    H136751   4.115   0.545   0.090
 5064TIP3    H236752   4.132   0.695   0.103
 5065TIP3   OH236753   6.137   5.164   0.313
 5065TIP3    H136754   6.133   5.242   0.258
 5065TIP3    H236755   6.046   5.134   0.319
 5066TIP3   OH236756   0.123   0.453   1.473
 5066TIP3    H136757   0.119   0.509   1.550
 5066TIP3    H236758   0.123   0.364   1.508
 5067TIP3   OH236759   2.152   0.453   6.337
 5067TIP3    H136760   2.076   0.398   6.360
 5067TIP3    H236761   2.226   0.411   6.381
 5068TIP3   OH236762   6.418   1.314   1.262
 5068TIP3    H136763   6.378   1.318   1.349
 5068TIP3    H236764   6.495   1.371   1.269
 5069TIP3   OH236765   5.512   4.356   8.376
 5069TIP3    H136766   5.594   4.399   8.402
 5069TIP3    H236767   5.540   4.283   8.321
 5070TIP3   OH236768   2.086   5.277   1.816
 5070TIP3    H136769   2.085   5.337   1.741
 5070TIP3    H236770   2.165   5.301   1.864
 5071TIP3   OH236771   3.148   5.014   7.271
 5071TIP3    H136772   3.113   4.930   7.242
 5071TIP3    H236773   3.189   5.051   7.192
 5072TIP3   OH236774   6.251   3.036   0.318
 5072TIP3    H136775   6.280   3.051   0.408
 5072TIP3    H236776   6.181   2.972   0.325
 5073TIP3   OH236777   2.750   1.375   8.340
 5073TIP3    H136778   2.724   1.358   8.250
 5073TIP3    H236779   2.801   1.456   8.336
 5074TIP3   OH236780   3.477   3.277   7.356
 5074TIP3    H136781   3.554   3.249   7.305
 5074TIP3    H236782   3.474   3.372   7.344
 5075TIP3   OH236783   0.269   1.683   8.512
 5075TIP3    H136784   0.184   1.686   8.469
 5075TIP3    H236785   0.255   1.631   8.591
 5076TIP3   OH236786   5.951   2.331   7.823
 5076TIP3    H136787   5.971   2.326   7.917
 5076TIP3    H236788   5.897   2.410   7.814
 5077TIP3   OH236789   4.098   0.541   7.348
 5077TIP3    H136790   4.190   0.522   7.366
 5077TIP3    H236791   4.056   0.455   7.346
 5078TIP3   OH236792   0.857   5.812   6.096
 5078TIP3    H136793   0.948   5.814   6.125
 5078TIP3    H236794   0.838   5.903   6.073
 5079TIP3   OH236795   0.242   5.779   0.781
 5079TIP3    H136796   0.164   5.823   0.747
 5079TIP3    H236797   0.229   5.776   0.876
 5080TIP3   OH236798   5.313   6.163   6.977
 5080TIP3    H136799   5.272   6.080   6.951
 5080TIP3    H236800   5.240   6.218   7.004
 5081TIP3   OH236801   5.380   2.673   2.007
 5081TIP3    H136802   5.417   2.738   2.067
 5081TIP3    H236803   5.286   2.689   2.010
 5082TIP3   OH236804   0.887   6.505   1.670
 5082TIP3    H136805   0.956   6.493   1.736
 5082TIP3    H236806   0.867   6.599   1.673
 5083TIP3   OH236807   0.825   2.565   8.426
 5083TIP3    H136808   0.776   2.622   8.367
 5083TIP3    H236809   0.761   2.536   8.491
 5084TIP3   OH236810   0.193   0.540   8.135
 5084TIP3    H136811   0.227   0.467   8.188
 5084TIP3    H236812   0.098   0.536   8.147
 5085TIP3   OH236813   5.520   3.571   0.106
 5085TIP3    H136814   5.579   3.609   0.041
 5085TIP3    H236815   5.544   3.479   0.108
 5086TIP3   OH236816   3.990   3.467   0.162
 5086TIP3    H136817   3.932   3.391   0.169
 5086TIP3    H236818   4.014   3.470   0.070
 5087TIP3   OH236819   4.923   3.153   7.057
 5087TIP3    H136820   4.998   3.117   7.009
 5087TIP3    H236821   4.960   3.184   7.139
 5088TIP3   OH236822   2.454   0.492   7.567
 5088TIP3    H136823   2.465   0.404   7.602
 5088TIP3    H236824   2.413   0.479   7.481
 5089TIP3   OH236825   0.667   3.044   8.052
 5089TIP3    H136826   0.701   3.130   8.076
 5089TIP3    H236827   0.695   3.031   7.961
 5090TIP3   OH236828   3.434   5.474   7.806
 5090TIP3    H136829   3.406   5.390   7.769
 5090TIP3    H236830   3.382   5.483   7.886
 5091TIP3   OH236831   6.736   2.654   6.702
 5091TIP3    H136832   6.661   2.688   6.653
 5091TIP3    H236833   6.698   2.590   6.763
 5092TIP3   OH236834   2.640   0.460   2.499
 5092TIP3    H136835   2.617   0.432   2.411
 5092TIP3    H236836   2.695   0.538   2.485
 5093TIP3   OH236837   6.152   1.722   1.343
 5093TIP3    H136838   6.107   1.798   1.381
 5093TIP3    H236839   6.229   1.710   1.399
 5094TIP3   OH236840   2.123   3.326   0.453
 5094TIP3    H136841   2.211   3.337   0.418
 5094TIP3    H236842   2.079   3.409   0.435
 5095TIP3   OH236843   6.256   3.326   1.647
 5095TIP3    H136844   6.308   3.263   1.696
 5095TIP3    H236845   6.315   3.357   1.578
 5096TIP3   OH236846   3.416   6.046   0.586
 5096TIP3    H136847   3.488   6.009   0.536
 5096TIP3    H236848   3.356   5.973   0.599
 5097TIP3   OH236849   6.856   2.180   0.057
 5097TIP3    H136850   6.800   2.128   0.114
 5097TIP3    H236851   0.026   2.189   0.105
 5098TIP3   OH236852   6.740   6.683   7.306
 5098TIP3    H136853   6.669   6.747   7.297
 5098TIP3    H236854   6.797   6.721   7.373
 5099TIP3   OH236855   4.315   3.577   8.088
 5099TIP3    H136856   4.311   3.481   8.087
 5099TIP3    H236857   4.376   3.599   8.017
 5100TIP3   OH236858   5.069   0.490   8.119
 5100TIP3    H136859   4.997   0.544   8.152
 5100TIP3    H236860   5.135   0.492   8.188
 5101TIP3   OH236861   1.020   1.308   7.325
 5101TIP3    H136862   1.023   1.243   7.395
 5101TIP3    H236863   0.953   1.369   7.352
 5102TIP3   OH236864   1.815   2.044   1.460
 5102TIP3    H136865   1.749   2.113   1.466
 5102TIP3    H236866   1.889   2.086   1.417
 5103TIP3   OH236867   4.512   5.623   6.702
 5103TIP3    H136868   4.456   5.546   6.707
 5103TIP3    H236869   4.589   5.600   6.754
 5104TIP3   OH236870   0.941   4.935   0.926
 5104TIP3    H136871   1.001   4.882   0.977
 5104TIP3    H236872   0.877   4.967   0.990
 5105TIP3   OH236873   2.404   2.332   7.270
 5105TIP3    H136874   2.416   2.421   7.237
 5105TIP3    H236875   2.493   2.295   7.272
 5106TIP3   OH236876   5.096   1.512   1.549
 5106TIP3    H136877   5.126   1.555   1.629
 5106TIP3    H236878   5.177   1.487   1.504
 5107TIP3   OH236879   4.413   3.489   2.353
 5107TIP3    H136880   4.482   3.461   2.412
 5107TIP3    H236881   4.367   3.409   2.329
 5108TIP3   OH236882   0.418   0.139   1.079
 5108TIP3    H136883   0.332   0.157   1.117
 5108TIP3    H236884   0.480   0.160   1.149
 5109TIP3   OH236885   6.280   1.265   1.516
 5109TIP3    H136886   6.300   1.198   1.581
 5109TIP3    H236887   6.189   1.251   1.493
 5110TIP3   OH236888   6.632   1.822   8.138
 5110TIP3    H136889   6.555   1.792   8.186
 5110TIP3    H236890   6.627   1.777   8.054
 5111TIP3   OH236891   2.789   1.906   8.391
 5111TIP3    H136892   2.814   1.977   8.332
 5111TIP3    H236893   2.819   1.826   8.347
 5112TIP3   OH236894   2.225   6.619   8.517
 5112TIP3    H136895   2.196   6.697   8.563
 5112TIP3    H236896   2.216   6.640   8.424
 5113TIP3   OH236897   0.808   3.929   8.497
 5113TIP3    H136898   0.713   3.934   8.489
 5113TIP3    H236899   0.825   3.940   8.590
 5114TIP3   OH236900   3.391   3.908   8.080
 5114TIP3    H136901   3.408   3.814   8.081
 5114TIP3    H236902   3.327   3.921   8.011
 5115TIP3   OH236903   3.891   4.450   7.166
 5115TIP3    H136904   3.975   4.411   7.190
 5115TIP3    H236905   3.914   4.531   7.121
 5116TIP3   OH236906   0.471   6.661   0.685
 5116TIP3    H136907   0.560   6.649   0.716
 5116TIP3    H236908   0.424   6.700   0.759
 5117TIP3   OH236909   4.204   3.342   7.841
 5117TIP3    H136910   4.295   3.315   7.831
 5117TIP3    H236911   4.200   3.430   7.804
 5118TIP3   OH236912   6.707   4.630   7.871
 5118TIP3    H136913   6.633   4.622   7.810
 5118TIP3    H236914   6.668   4.623   7.958
 5119TIP3   OH236915   4.365   1.648   7.996
 5119TIP3    H136916   4.337   1.709   8.064
 5119TIP3    H236917   4.343   1.692   7.914
 5120TIP3   OH236918   6.841   4.526   8.335
 5120TIP3    H136919   6.851   4.590   8.406
 5120TIP3    H236920   0.019   4.507   8.308
 5121TIP3   OH236921   4.795   2.100   0.517
 5121TIP3    H136922   4.769   2.142   0.435
 5121TIP3    H236923   4.717   2.107   0.572
 5122TIP3   OH236924   1.662   5.231   0.976
 5122TIP3    H136925   1.604   5.241   0.900
 5122TIP3    H236926   1.705   5.147   0.963
 5123TIP3   OH236927   0.279   4.896   1.472
 5123TIP3    H136928   0.372   4.891   1.451
 5123TIP3    H236929   0.255   4.986   1.451
 5124TIP3   OH236930   6.551   2.384   7.456
 5124TIP3    H136931   6.540   2.302   7.408
 5124TIP3    H236932   6.542   2.359   7.548
 5125TIP3   OH236933   2.048   6.185   7.023
 5125TIP3    H136934   2.089   6.098   7.033
 5125TIP3    H236935   2.119   6.246   7.040
 5126TIP3   OH236936   2.159   6.622   6.857
 5126TIP3    H136937   2.254   6.632   6.850
 5126TIP3    H236938   2.124   6.707   6.832
 5127TIP3   OH236939   3.849   6.283   7.252
 5127TIP3    H136940   3.852   6.203   7.305
 5127TIP3    H236941   3.934   6.324   7.264
 5128TIP3   OH236942   4.846   0.492   1.557
 5128TIP3    H136943   4.797   0.509   1.637
 5128TIP3    H236944   4.847   0.577   1.511
 5129TIP3   OH236945   6.737   5.258   0.403
 5129TIP3    H136946   6.667   5.275   0.340
 5129TIP3    H236947   6.818   5.259   0.351
 5130TIP3   OH236948   1.621   6.510   8.276
 5130TIP3    H136949   1.594   6.450   8.346
 5130TIP3    H236950   1.604   6.462   8.195
 5131TIP3   OH236951   0.030   4.992   0.032
 5131TIP3    H136952   0.009   5.076   8.594
 5131TIP3    H236953   6.886   4.990   0.110
 5132TIP3   OH236954   4.182   4.771   0.562
 5132TIP3    H136955   4.237   4.838   0.602
 5132TIP3    H236956   4.186   4.697   0.623
 5133TIP3   OH236957   5.459   1.062   7.874
 5133TIP3    H136958   5.391   1.078   7.939
 5133TIP3    H236959   5.527   1.013   7.921
 5134TIP3   OH236960   0.231   5.009   1.898
 5134TIP3    H136961   0.251   5.073   1.966
 5134TIP3    H236962   0.145   5.034   1.865
 5135TIP3   OH236963   5.877   6.600   7.234
 5135TIP3    H136964   5.794   6.557   7.211
 5135TIP3    H236965   5.851   6.681   7.277
 5136TIP3   OH236966   2.859   1.445   7.034
 5136TIP3    H136967   2.949   1.439   7.065
 5136TIP3    H236968   2.855   1.385   6.960
 5137TIP3   OH236969   3.783   2.233   0.443
 5137TIP3    H136970   3.713   2.279   0.396
 5137TIP3    H236971   3.832   2.189   0.374
 5138TIP3   OH236972   3.218   5.406   1.342
 5138TIP3    H136973   3.233   5.372   1.430
 5138TIP3    H236974   3.303   5.400   1.299
 5139TIP3   OH236975   0.595   4.447   7.771
 5139TIP3    H136976   0.629   4.363   7.803
 5139TIP3    H236977   0.512   4.425   7.729
 5140TIP3   OH236978   6.703   3.620   2.320
 5140TIP3    H136979   6.647   3.636   2.244
 5140TIP3    H236980   6.642   3.613   2.394
 5141TIP3   OH236981   4.132   2.611   1.029
 5141TIP3    H136982   4.140   2.705   1.045
 5141TIP3    H236983   4.040   2.591   1.047
 5142TIP3   OH236984   3.153   2.196   6.885
 5142TIP3    H136985   3.220   2.249   6.842
 5142TIP3    H236986   3.134   2.126   6.822
 5143TIP3   OH236987   4.252   4.662   7.627
 5143TIP3    H136988   4.317   4.728   7.602
 5143TIP3    H236989   4.179   4.677   7.567
 5144TIP3   OH236990   3.809   6.252   8.322
 5144TIP3    H136991   3.822   6.343   8.295
 5144TIP3    H236992   3.887   6.206   8.290
 5145TIP3   OH236993   3.523   5.029   0.568
 5145TIP3    H136994   3.498   5.022   0.476
 5145TIP3    H236995   3.537   4.938   0.596
 5146TIP3   OH236996   1.575   2.721   6.937
 5146TIP3    H136997   1.535   2.682   6.859
 5146TIP3    H236998   1.653   2.668   6.953
 5147TIP3   OH236999   5.796   5.376   7.920
 5147TIP3    H137000   5.814   5.341   7.832
 5147TIP3    H237001   5.731   5.316   7.956
 5148TIP3   OH237002   2.461   2.190   1.244
 5148TIP3    H137003   2.396   2.124   1.219
 5148TIP3    H237004   2.415   2.273   1.237
 5149TIP3   OH237005   3.981   5.043   7.593
 5149TIP3    H137006   4.058   5.092   7.622
 5149TIP3    H237007   3.915   5.110   7.575
 5150TIP3   OH237008   6.361   1.166   7.558
 5150TIP3    H137009   6.372   1.072   7.550
 5150TIP3    H237010   6.298   1.189   7.488
 5151TIP3   OH237011   1.554   4.600   6.150
 5151TIP3    H137012   1.496   4.666   6.189
 5151TIP3    H237013   1.506   4.517   6.160
 5152TIP3   OH237014   6.566   3.769   7.456
 5152TIP3    H137015   6.502   3.836   7.479
 5152TIP3    H237016   6.633   3.816   7.406
 5153TIP3   OH237017   2.424   6.154   1.654
 5153TIP3    H137018   2.460   6.241   1.667
 5153TIP3    H237019   2.463   6.101   1.723
 5154TIP3   OH237020   2.931   1.927   0.083
 5154TIP3    H137021   2.948   1.882   0.166
 5154TIP3    H237022   2.840   1.955   0.088
 5155TIP3   OH237023   0.044   5.943   0.692
 5155TIP3    H137024   0.023   5.939   0.599
 5155TIP3    H237025   6.891   5.886   0.734
 5156TIP3   OH237026   5.530   6.160   0.853
 5156TIP3    H137027   5.558   6.191   0.939
 5156TIP3    H237028   5.442   6.195   0.842
 5157TIP3   OH237029   1.003   3.484   2.022
 5157TIP3    H137030   0.957   3.428   1.959
 5157TIP3    H237031   1.095   3.479   1.995
 5158TIP3   OH237032   5.995   0.432   7.209
 5158TIP3    H137033   6.073   0.377   7.206
 5158TIP3    H237034   5.940   0.392   7.276
 5159TIP3   OH237035   0.895   3.404   8.463
 5159TIP3    H137036   0.938   3.459   8.528
 5159TIP3    H237037   0.816   3.454   8.439
 5160TIP3   OH237038   5.113   3.077   8.448
 5160TIP3    H137039   5.140   3.047   8.535
 5160TIP3    H237040   5.107   2.997   8.396
 5161TIP3   OH237041   4.591   4.391   0.453
 5161TIP3    H137042   4.622   4.481   0.446
 5161TIP3    H237043   4.606   4.367   0.545
 5162TIP3   OH237044   1.687   4.273   0.986
 5162TIP3    H137045   1.728   4.317   0.911
 5162TIP3    H237046   1.663   4.187   0.953
 5163TIP3   OH237047   2.029   2.421   0.194
 5163TIP3    H137048   2.085   2.347   0.219
 5163TIP3    H237049   1.940   2.389   0.207
 5164TIP3   OH237050   4.094   5.657   1.104
 5164TIP3    H137051   4.181   5.692   1.124
 5164TIP3    H237052   4.110   5.567   1.078
 5165TIP3   OH237053   1.277   6.307   7.168
 5165TIP3    H137054   1.357   6.337   7.211
 5165TIP3    H237055   1.284   6.212   7.166
 5166TIP3   OH237056   5.677   2.755   8.318
 5166TIP3    H137057   5.676   2.689   8.249
 5166TIP3    H237058   5.590   2.794   8.315
 5167TIP3   OH237059   2.436   5.737   8.195
 5167TIP3    H137060   2.368   5.796   8.162
 5167TIP3    H237061   2.447   5.671   8.127
 5168TIP3   OH237062   4.387   5.397   6.624
 5168TIP3    H137063   4.428   5.326   6.673
 5168TIP3    H237064   4.371   5.359   6.537
 5169TIP3   OH237065   6.740   4.597   0.409
 5169TIP3    H137066   6.735   4.685   0.373
 5169TIP3    H237067   6.739   4.539   0.333
 5170TIP3   OH237068   3.107   5.753   0.201
 5170TIP3    H137069   3.169   5.713   0.262
 5170TIP3    H237070   3.127   5.713   0.116
 5171TIP3   OH237071   0.082   2.964   6.801
 5171TIP3    H137072   6.909   2.941   6.838
 5171TIP3    H237073   0.063   3.018   6.725
 5172TIP3   OH237074   3.012   3.364   0.691
 5172TIP3    H137075   2.959   3.326   0.761
 5172TIP3    H237076   3.084   3.303   0.680
 5173TIP3   OH237077   2.247   0.913   7.969
 5173TIP3    H137078   2.171   0.903   7.911
 5173TIP3    H237079   2.248   1.006   7.991
 5174TIP3   OH237080   0.417   4.380   8.377
 5174TIP3    H137081   0.438   4.287   8.381
 5174TIP3    H237082   0.464   4.419   8.451
 5175TIP3   OH237083   3.671   5.778   0.994
 5175TIP3    H137084   3.668   5.689   0.961
 5175TIP3    H237085   3.760   5.808   0.973
 5176TIP3   OH237086   0.050   3.615   1.856
 5176TIP3    H137087   6.871   3.643   1.861
 5176TIP3    H237088   0.079   3.609   1.947
 5177TIP3   OH237089   0.940   0.478   0.490
 5177TIP3    H137090   1.003   0.489   0.562
 5177TIP3    H237091   0.995   0.473   0.411
 5178TIP3   OH237092   1.312   4.258   1.774
 5178TIP3    H137093   1.267   4.177   1.800
 5178TIP3    H237094   1.242   4.321   1.760
 5179TIP3   OH237095   5.294   1.515   0.129
 5179TIP3    H137096   5.293   1.528   0.224
 5179TIP3    H237097   5.348   1.437   0.116
 5180TIP3   OH237098   1.006   3.410   1.592
 5180TIP3    H137099   0.960   3.367   1.520
 5180TIP3    H237100   1.098   3.413   1.564
 5181TIP3   OH237101   1.161   4.463   8.103
 5181TIP3    H137102   1.242   4.440   8.147
 5181TIP3    H237103   1.181   4.454   8.010
 5182TIP3   OH237104   1.297   6.822   7.446
 5182TIP3    H137105   1.310   6.878   7.522
 5182TIP3    H237106   1.250   6.877   7.383
 5183TIP3   OH237107   4.581   3.625   7.085
 5183TIP3    H137108   4.669   3.660   7.067
 5183TIP3    H237109   4.550   3.675   7.160
 5184TIP3   OH237110   1.337   2.887   7.540
 5184TIP3    H137111   1.418   2.853   7.579
 5184TIP3    H237112   1.366   2.958   7.483
 5185TIP3   OH237113   1.699   1.187   7.160
 5185TIP3    H137114   1.674   1.218   7.073
 5185TIP3    H237115   1.778   1.237   7.182
 5186TIP3   OH237116   6.656   4.118   1.727
 5186TIP3    H137117   6.656   4.099   1.821
 5186TIP3    H237118   6.609   4.045   1.688
 5187TIP3   OH237119   5.285   4.127   7.751
 5187TIP3    H137120   5.282   4.034   7.772
 5187TIP3    H237121   5.193   4.153   7.744
 5188TIP3   OH237122   4.175   4.414   0.429
 5188TIP3    H137123   4.128   4.478   0.375
 5188TIP3    H237124   4.267   4.426   0.405
 5189TIP3   OH237125   2.574   6.404   1.708
 5189TIP3    H137126   2.596   6.462   1.635
 5189TIP3    H237127   2.520   6.459   1.766
 5190TIP3   OH237128   5.775   1.702   0.556
 5190TIP3    H137129   5.847   1.743   0.603
 5190TIP3    H237130   5.798   1.712   0.464
 5191TIP3   OH237131   4.845   1.532   7.203
 5191TIP3    H137132   4.771   1.571   7.157
 5191TIP3    H237133   4.805   1.471   7.265
 5192TIP3   OH237134   1.902   6.125   8.230
 5192TIP3    H137135   1.854   6.176   8.164
 5192TIP3    H237136   1.990   6.116   8.193
 5193TIP3   OH237137   1.051   0.862   7.284
 5193TIP3    H137138   0.966   0.839   7.246
 5193TIP3    H237139   1.032   0.882   7.376
 5194TIP3   OH237140   3.745   5.571   0.642
 5194TIP3    H137141   3.695   5.570   0.561
 5194TIP3    H237142   3.777   5.661   0.650
 5195TIP3   OH237143   6.091   4.873   8.222
 5195TIP3    H137144   6.124   4.960   8.196
 5195TIP3    H237145   6.150   4.845   8.292
 5196TIP3   OH237146   0.416   2.096   6.506
 5196TIP3    H137147   0.378   2.168   6.455
 5196TIP3    H237148   0.510   2.117   6.510
 5197TIP3   OH237149   1.394   4.889   1.827
 5197TIP3    H137150   1.299   4.896   1.818
 5197TIP3    H237151   1.414   4.799   1.803
 5198TIP3   OH237152   1.907   3.248   6.227
 5198TIP3    H137153   1.889   3.342   6.238
 5198TIP3    H237154   1.826   3.213   6.190
 5199TIP3   OH237155   3.212   2.392   0.687
 5199TIP3    H137156   3.139   2.375   0.747
 5199TIP3    H237157   3.284   2.340   0.722
 5200TIP3   OH237158   5.626   0.051   1.994
 5200TIP3    H137159   5.560   6.903   1.959
 5200TIP3    H237160   5.590   0.138   1.977
 5201TIP3   OH237161   0.498   6.683   6.333
 5201TIP3    H137162   0.506   6.621   6.405
 5201TIP3    H237163   0.588   6.700   6.304
 5202TIP3   OH237164   1.221   4.067   8.524
 5202TIP3    H137165   1.199   3.976   8.503
 5202TIP3    H237166   1.289   4.060   8.590
 5203TIP3   OH237167   4.147   4.517   0.705
 5203TIP3    H137168   4.185   4.530   0.792
 5203TIP3    H237169   4.218   4.480   0.653
 5204TIP3   OH237170   4.691   5.116   8.514
 5204TIP3    H137171   4.703   5.099   8.420
 5204TIP3    H237172   4.623   5.183   8.517
 5205TIP3   OH237173   4.695   5.884   7.168
 5205TIP3    H137174   4.717   5.839   7.086
 5205TIP3    H237175   4.778   5.919   7.199
 5206TIP3   OH237176   4.724   2.293   0.349
 5206TIP3    H137177   4.680   2.313   0.267
 5206TIP3    H237178   4.815   2.318   0.335
 5207TIP3   OH237179   4.567   4.464   1.698
 5207TIP3    H137180   4.628   4.534   1.720
 5207TIP3    H237181   4.485   4.509   1.678
 5208TIP3   OH237182   4.417   3.937   1.099
 5208TIP3    H137183   4.359   3.889   1.040
 5208TIP3    H237184   4.505   3.919   1.065
 5209TIP3   OH237185   4.856   3.926   0.505
 5209TIP3    H137186   4.939   3.881   0.498
 5209TIP3    H237187   4.842   3.965   0.419
 5210TIP3   OH237188   0.334   2.054   7.738
 5210TIP3    H137189   0.304   2.125   7.793
 5210TIP3    H237190   0.379   1.994   7.798
 5211TIP3   OH237191   6.556   3.730   8.163
 5211TIP3    H137192   6.480   3.786   8.146
 5211TIP3    H237193   6.631   3.780   8.129
 5212TIP3   OH237194   1.522   0.143   1.084
 5212TIP3    H137195   1.611   0.129   1.051
 5212TIP3    H237196   1.524   0.107   1.172
 5213TIP3   OH237197   3.483   2.514   7.456
 5213TIP3    H137198   3.409   2.538   7.511
 5213TIP3    H237199   3.458   2.431   7.415
 5214TIP3   OH237200   1.423   4.366   0.822
 5214TIP3    H137201   1.391   4.456   0.811
 5214TIP3    H237202   1.518   4.374   0.813
 5215TIP3   OH237203   2.451   2.611   0.851
 5215TIP3    H137204   2.482   2.554   0.781
 5215TIP3    H237205   2.363   2.637   0.824
 5216TIP3   OH237206   6.144   6.853   7.988
 5216TIP3    H137207   6.230   6.879   8.023
 5216TIP3    H237208   6.081   6.900   8.042
 5217TIP3   OH237209   1.072   5.689   2.453
 5217TIP3    H137210   1.064   5.602   2.491
 5217TIP3    H237211   1.166   5.699   2.434
 5218TIP3   OH237212   0.159   6.689   0.168
 5218TIP3    H137213   0.231   6.642   0.211
 5218TIP3    H237214   0.090   6.622   0.158
 5219TIP3   OH237215   6.373   1.490   2.288
 5219TIP3    H137216   6.395   1.397   2.287
 5219TIP3    H237217   6.296   1.497   2.232
 5220TIP3   OH237218   2.653   4.238   1.123
 5220TIP3    H137219   2.623   4.148   1.137
 5220TIP3    H237220   2.581   4.293   1.154
 5221TIP3   OH237221   4.238   5.321   0.048
 5221TIP3    H137222   4.264   5.412   0.059
 5221TIP3    H237223   4.145   5.324   0.029
 5222TIP3   OH237224   4.569   2.014   8.103
 5222TIP3    H137225   4.600   1.924   8.119
 5222TIP3    H237226   4.641   2.055   8.054
 5223TIP3   OH237227   6.839   2.441   2.202
 5223TIP3    H137228   6.881   2.361   2.170
 5223TIP3    H237229   6.912   2.494   2.235
 5224TIP3   OH237230   0.911   2.428   8.212
 5224TIP3    H137231   0.886   2.453   8.302
 5224TIP3    H237232   0.835   2.451   8.159
 5225TIP3   OH237233   6.823   5.882   2.104
 5225TIP3    H137234   6.784   5.817   2.162
 5225TIP3    H237235   6.828   5.839   2.019
 5226TIP3   OH237236   5.317   5.982   0.222
 5226TIP3    H137237   5.333   6.033   0.142
 5226TIP3    H237238   5.345   6.039   0.293
 5227TIP3   OH237239   4.643   5.642   1.845
 5227TIP3    H137240   4.675   5.722   1.803
 5227TIP3    H237241   4.721   5.589   1.859
 5228TIP3   OH237242   5.309   5.636   0.241
 5228TIP3    H137243   5.309   5.642   0.145
 5228TIP3    H237244   5.379   5.696   0.268
 5229TIP3   OH237245   6.534   2.351   2.565
 5229TIP3    H137246   6.559   2.443   2.573
 5229TIP3    H237247   6.574   2.323   2.482
 5230TIP3   OH237248   6.468   5.203   1.450
 5230TIP3    H137249   6.409   5.162   1.513
 5230TIP3    H237250   6.481   5.292   1.483
 5231TIP3   OH237251   5.142   3.828   0.004
 5231TIP3    H137252   5.131   3.795   8.518
 5231TIP3    H237253   5.116   3.920   8.602
 5232TIP3   OH237254   3.744   3.347   7.225
 5232TIP3    H137255   3.810   3.287   7.189
 5232TIP3    H237256   3.781   3.377   7.308
 5233TIP3   OH237257   1.486   4.099   0.026
 5233TIP3    H137258   1.559   4.064   0.078
 5233TIP3    H237259   1.495   4.056   8.544
 5234TIP3   OH237260   6.451   5.827   7.178
 5234TIP3    H137261   6.482   5.773   7.250
 5234TIP3    H237262   6.525   5.884   7.156
 5235TIP3   OH237263   4.693   0.181   0.929
 5235TIP3    H137264   4.724   0.184   1.019
 5235TIP3    H237265   4.697   0.088   0.906
 5236TIP3   OH237266   6.153   1.025   7.120
 5236TIP3    H137267   6.150   1.053   7.028
 5236TIP3    H237268   6.064   1.040   7.152
 5237TIP3   OH237269   4.400   2.408   0.817
 5237TIP3    H137270   4.352   2.328   0.794
 5237TIP3    H237271   4.357   2.477   0.767
 5238TIP3   OH237272   5.146   0.051   8.139
 5238TIP3    H137273   5.152   6.869   8.121
 5238TIP3    H237274   5.223   0.089   8.096
 5239TIP3   OH237275   3.415   1.075   0.646
 5239TIP3    H137276   3.508   1.063   0.628
 5239TIP3    H237277   3.412   1.151   0.705
 5240TIP3   OH237278   3.533   3.523   1.590
 5240TIP3    H137279   3.522   3.546   1.498
 5240TIP3    H237280   3.605   3.460   1.590
 5241TIP3   OH237281   4.198   3.882   0.371
 5241TIP3    H137282   4.139   3.876   0.296
 5241TIP3    H237283   4.148   3.931   0.437
 5242TIP3   OH237284   3.646   3.980   1.424
 5242TIP3    H137285   3.657   3.887   1.405
 5242TIP3    H237286   3.705   4.024   1.363
 5243TIP3   OH237287   4.088   1.838   7.926
 5243TIP3    H137288   4.135   1.873   8.002
 5243TIP3    H237289   4.002   1.815   7.960
 5244TIP3   OH237290   0.473   5.178   8.375
 5244TIP3    H137291   0.507   5.236   8.306
 5244TIP3    H237292   0.437   5.238   8.440
 5245TIP3   OH237293   0.421   4.578   0.809
 5245TIP3    H137294   0.340   4.618   0.840
 5245TIP3    H237295   0.405   4.560   0.717
 5246TIP3   OH237296   1.046   1.844   8.495
 5246TIP3    H137297   0.961   1.853   8.451
 5246TIP3    H237298   1.101   1.799   8.432
 5247TIP3   OH237299   1.752   3.184   7.274
 5247TIP3    H137300   1.696   3.180   7.352
 5247TIP3    H237301   1.839   3.206   7.309
 5248TIP3   OH237302   6.332   3.751   1.793
 5248TIP3    H137303   6.335   3.814   1.865
 5248TIP3    H237304   6.243   3.759   1.758
 5249TIP3   OH237305   3.226   4.111   1.073
 5249TIP3    H137306   3.293   4.050   1.041
 5249TIP3    H237307   3.261   4.197   1.051
 5250TIP3   OH237308   6.011   6.493   7.433
 5250TIP3    H137309   5.952   6.422   7.458
 5250TIP3    H237310   5.967   6.535   7.359
 5251TIP3   OH237311   4.208   3.938   7.404
 5251TIP3    H137312   4.125   3.969   7.440
 5251TIP3    H237313   4.189   3.918   7.313
 5252TIP3   OH237314   4.996   1.902   2.773
 5252TIP3    H137315   5.091   1.893   2.779
 5252TIP3    H237316   4.974   1.863   2.688
 5253TIP3   OH237317   0.514   4.232   6.907
 5253TIP3    H137318   0.542   4.258   6.819
 5253TIP3    H237319   0.490   4.315   6.950
 5254TIP3   OH237320   2.520   5.482   1.192
 5254TIP3    H137321   2.531   5.505   1.099
 5254TIP3    H237322   2.569   5.550   1.239
 5255TIP3   OH237323   3.732   1.719   0.795
 5255TIP3    H137324   3.664   1.786   0.790
 5255TIP3    H237325   3.762   1.708   0.705
 5256TIP3   OH237326   5.687   1.942   8.038
 5256TIP3    H137327   5.648   1.931   8.125
 5256TIP3    H237328   5.614   1.967   7.981
 5257TIP3   OH237329   1.796   1.574   0.915
 5257TIP3    H137330   1.733   1.637   0.879
 5257TIP3    H237331   1.747   1.492   0.920
 5258TIP3   OH237332   6.371   1.094   2.020
 5258TIP3    H137333   6.417   1.040   1.956
 5258TIP3    H237334   6.438   1.123   2.081
 5259TIP3   OH237335   5.646   6.846   6.442
 5259TIP3    H137336   5.710   6.775   6.440
 5259TIP3    H237337   5.698   0.014   6.444
 5260TIP3   OH237338   6.217   4.531   0.804
 5260TIP3    H137339   6.169   4.594   0.750
 5260TIP3    H237340   6.169   4.449   0.794
 5261TIP3   OH237341   1.966   4.026   1.588
 5261TIP3    H137342   2.037   4.011   1.650
 5261TIP3    H237343   1.887   4.001   1.635
 5262TIP3   OH237344   0.373   2.084   8.099
 5262TIP3    H137345   0.334   2.105   8.184
 5262TIP3    H237346   0.359   2.163   8.047
 5263TIP3   OH237347   5.447   3.709   8.090
 5263TIP3    H137348   5.393   3.630   8.092
 5263TIP3    H237349   5.476   3.721   8.180
 5264TIP3   OH237350   1.060   6.288   7.314
 5264TIP3    H137351   1.038   6.372   7.354
 5264TIP3    H237352   1.139   6.306   7.262
 5265TIP3   OH237353   5.781   3.683   2.205
 5265TIP3    H137354   5.748   3.685   2.294
 5265TIP3    H237355   5.768   3.593   2.176
 5266TIP3   OH237356   4.044   2.284   7.574
 5266TIP3    H137357   4.129   2.299   7.616
 5266TIP3    H237358   4.026   2.192   7.588
 5267TIP3   OH237359   0.944   2.866   7.931
 5267TIP3    H137360   0.879   2.927   7.895
 5267TIP3    H237361   0.951   2.889   8.023
 5268TIP3   OH237362   1.566   2.034   8.337
 5268TIP3    H137363   1.591   2.105   8.277
 5268TIP3    H237364   1.532   2.079   8.414
 5269TIP3   OH237365   1.512   5.093   1.639
 5269TIP3    H137366   1.479   5.029   1.702
 5269TIP3    H237367   1.448   5.092   1.568
 5270TIP3   OH237368   3.669   6.749   0.446
 5270TIP3    H137369   3.751   6.699   0.449
 5270TIP3    H237370   3.607   6.690   0.402
 5271TIP3   OH237371   5.686   4.265   1.409
 5271TIP3    H137372   5.646   4.341   1.452
 5271TIP3    H237373   5.735   4.221   1.478
 5272TIP3   OH237374   6.592   4.131   0.788
 5272TIP3    H137375   6.664   4.146   0.728
 5272TIP3    H237376   6.551   4.216   0.799
 5273TIP3   OH237377   3.923   1.632   7.745
 5273TIP3    H137378   3.978   1.643   7.822
 5273TIP3    H237379   3.913   1.537   7.736
 5274TIP3   OH237380   2.207   1.136   2.212
 5274TIP3    H137381   2.269   1.168   2.278
 5274TIP3    H237382   2.121   1.150   2.253
 5275TIP3   OH237383   0.376   1.674   0.868
 5275TIP3    H137384   0.323   1.671   0.789
 5275TIP3    H237385   0.465   1.658   0.838
 5276TIP3   OH237386   4.398   2.844   8.456
 5276TIP3    H137387   4.369   2.925   8.415
 5276TIP3    H237388   4.372   2.775   8.395
 5277TIP3   OH237389   5.739   5.080   0.914
 5277TIP3    H137390   5.653   5.105   0.881
 5277TIP3    H237391   5.749   4.988   0.886
 5278TIP3   OH237392   0.675   5.933   0.410
 5278TIP3    H137393   0.657   5.980   0.492
 5278TIP3    H237394   0.696   5.844   0.437
 5279TIP3   OH237395   3.326   0.468   0.304
 5279TIP3    H137396   3.321   0.408   0.230
 5279TIP3    H237397   3.407   0.518   0.289
 5280TIP3   OH237398   6.241   0.930   0.111
 5280TIP3    H137399   6.221   0.837   0.122
 5280TIP3    H237400   6.229   0.946   0.018
 5281TIP3   OH237401   1.576   4.083   1.211
 5281TIP3    H137402   1.491   4.055   1.244
 5281TIP3    H237403   1.560   4.172   1.179
 5282TIP3   OH237404   4.199   1.459   1.638
 5282TIP3    H137405   4.144   1.455   1.716
 5282TIP3    H237406   4.149   1.513   1.576
 5283TIP3   OH237407   2.587   4.894   1.570
 5283TIP3    H137408   2.625   4.863   1.652
 5283TIP3    H237409   2.504   4.847   1.563
 5284TIP3   OH237410   6.635   3.364   1.005
 5284TIP3    H137411   6.627   3.289   1.065
 5284TIP3    H237412   6.668   3.326   0.924
 5285TIP3   OH237413   5.973   6.389   6.861
 5285TIP3    H137414   5.901   6.326   6.850
 5285TIP3    H237415   5.989   6.390   6.956
 5286TIP3   OH237416   0.645   0.424   6.748
 5286TIP3    H137417   0.687   0.353   6.796
 5286TIP3    H237418   0.602   0.476   6.815
 5287TIP3   OH237419   1.806   4.572   1.031
 5287TIP3    H137420   1.765   4.548   0.948
 5287TIP3    H237421   1.780   4.503   1.092
 5288TIP3   OH237422   0.125   5.997   8.110
 5288TIP3    H137423   0.030   6.010   8.104
 5288TIP3    H237424   0.148   5.947   8.032
 5289TIP3   OH237425   3.720   2.454   0.712
 5289TIP3    H137426   3.731   2.397   0.635
 5289TIP3    H237427   3.647   2.416   0.760
 5290TIP3   OH237428   6.061   5.402   1.542
 5290TIP3    H137429   6.126   5.375   1.607
 5290TIP3    H237430   5.977   5.379   1.581
 5291TIP3   OH237431   6.313   1.391   0.473
 5291TIP3    H137432   6.339   1.434   0.554
 5291TIP3    H237433   6.356   1.442   0.404
 5292TIP3   OH237434   4.498   0.527   8.479
 5292TIP3    H137435   4.548   0.466   8.424
 5292TIP3    H237436   4.555   0.545   8.554
 5293TIP3   OH237437   3.465   0.928   1.876
 5293TIP3    H137438   3.515   0.929   1.958
 5293TIP3    H237439   3.530   0.943   1.808
 5294TIP3   OH237440   1.137   2.906   7.293
 5294TIP3    H137441   1.056   2.855   7.288
 5294TIP3    H237442   1.191   2.858   7.355
 5295TIP3   OH237443   4.612   2.191   7.737
 5295TIP3    H137444   4.523   2.190   7.773
 5295TIP3    H237445   4.621   2.106   7.694
 5296TIP3   OH237446   3.471   0.114   2.555
 5296TIP3    H137447   3.523   0.175   2.608
 5296TIP3    H237448   3.380   0.140   2.571
 5297TIP3   OH237449   1.553   4.858   8.145
 5297TIP3    H137450   1.578   4.823   8.230
 5297TIP3    H237451   1.598   4.942   8.139
 5298TIP3   OH237452   1.913   5.674   7.199
 5298TIP3    H137453   1.963   5.651   7.277
 5298TIP3    H237454   1.825   5.692   7.232
 5299TIP3   OH237455   6.753   1.951   7.214
 5299TIP3    H137456   6.814   1.879   7.195
 5299TIP3    H237457   6.808   2.028   7.224
 5300TIP3   OH237458   4.391   6.360   8.304
 5300TIP3    H137459   4.455   6.395   8.365
 5300TIP3    H237460   4.342   6.295   8.354
 5301TIP3   OH237461   0.440   0.017   6.445
 5301TIP3    H137462   0.460   0.002   6.537
 5301TIP3    H237463   0.473   6.851   6.401
 5302TIP3   OH237464   3.521   4.979   6.409
 5302TIP3    H137465   3.575   5.054   6.385
 5302TIP3    H237466   3.432   5.004   6.383
 5303TIP3   OH237467   6.385   3.062   0.068
 5303TIP3    H137468   6.340   3.075   0.151
 5303TIP3    H237469   6.320   3.085   0.001
 5304TIP3   OH237470   0.735   3.643   6.489
 5304TIP3    H137471   0.805   3.630   6.424
 5304TIP3    H237472   0.728   3.738   6.497
 5305TIP3   OH237473   4.848   6.209   7.706
 5305TIP3    H137474   4.865   6.262   7.783
 5305TIP3    H237475   4.908   6.135   7.713
 5306TIP3   OH237476   6.872   5.534   8.027
 5306TIP3    H137477   6.858   5.486   8.109
 5306TIP3    H237478   6.794   5.518   7.975
 5307TIP3   OH237479   4.618   4.059   7.067
 5307TIP3    H137480   4.687   4.026   7.125
 5307TIP3    H237481   4.643   4.149   7.048
 5308TIP3   OH237482   6.227   0.132   0.660
 5308TIP3    H137483   6.292   0.202   0.668
 5308TIP3    H237484   6.206   0.129   0.567
 5309TIP3   OH237485   4.720   5.959   6.291
 5309TIP3    H137486   4.635   5.950   6.249
 5309TIP3    H237487   4.769   5.881   6.263
 5310TIP3   OH237488   1.456   1.131   0.009
 5310TIP3    H137489   1.501   1.215   0.000
 5310TIP3    H237490   1.370   1.146   8.571
 5311TIP3   OH237491   4.540   6.455   1.427
 5311TIP3    H137492   4.610   6.498   1.379
 5311TIP3    H237493   4.568   6.458   1.518
 5312TIP3   OH237494   4.480   0.734   1.790
 5312TIP3    H137495   4.569   0.715   1.761
 5312TIP3    H237496   4.457   0.661   1.847
 5313TIP3   OH237497   6.020   2.656   1.540
 5313TIP3    H137498   6.051   2.642   1.450
 5313TIP3    H237499   5.973   2.576   1.562
 5314TIP3   OH237500   0.699   3.592   8.078
 5314TIP3    H137501   0.728   3.621   8.165
 5314TIP3    H237502   0.720   3.666   8.020
 5315TIP3   OH237503   5.837   3.806   1.316
 5315TIP3    H137504   5.742   3.791   1.320
 5315TIP3    H237505   5.854   3.866   1.389
 5316TIP3   OH237506   1.982   6.321   7.497
 5316TIP3    H137507   2.050   6.309   7.431
 5316TIP3    H237508   2.022   6.378   7.563
 5317TIP3   OH237509   1.848   5.860   1.144
 5317TIP3    H137510   1.799   5.779   1.161
 5317TIP3    H237511   1.929   5.850   1.193
 5318TIP3   OH237512   1.038   4.047   0.397
 5318TIP3    H137513   0.953   4.089   0.404
 5318TIP3    H237514   1.019   3.958   0.368
 5319TIP3   OH237515   1.673   1.280   6.904
 5319TIP3    H137516   1.721   1.198   6.889
 5319TIP3    H237517   1.732   1.348   6.872
 5320TIP3   OH237518   2.840   6.094   1.273
 5320TIP3    H137519   2.822   6.179   1.314
 5320TIP3    H237520   2.837   6.111   1.179
 5321TIP3   OH237521   6.821   1.111   1.360
 5321TIP3    H137522   6.770   1.152   1.290
 5321TIP3    H237523   6.782   1.024   1.371
 5322TIP3   OH237524   1.998   3.112   0.249
 5322TIP3    H137525   2.018   3.152   0.333
 5322TIP3    H237526   1.910   3.074   0.260
 5323TIP3   OH237527   1.366   3.870   8.199
 5323TIP3    H137528   1.392   3.826   8.118
 5323TIP3    H237529   1.276   3.842   8.214
 5324TIP3   OH237530   6.785   1.228   0.852
 5324TIP3    H137531   6.805   1.283   0.927
 5324TIP3    H237532   6.869   1.188   0.828
 5325TIP3   OH237533   0.492   3.823   0.885
 5325TIP3    H137534   0.565   3.831   0.947
 5325TIP3    H237535   0.462   3.913   0.873
 5326TIP3   OH237536   0.896   4.481   0.166
 5326TIP3    H137537   0.887   4.512   0.076
 5326TIP3    H237538   0.941   4.397   0.158
 5327TIP3   OH237539   4.498   6.148   7.513
 5327TIP3    H137540   4.500   6.073   7.571
 5327TIP3    H237541   4.581   6.145   7.466
 5328TIP3   OH237542   0.500   5.480   7.639
 5328TIP3    H137543   0.573   5.530   7.676
 5328TIP3    H237544   0.422   5.524   7.672
 5329TIP3   OH237545   3.632   0.980   8.530
 5329TIP3    H137546   3.671   0.893   8.521
 5329TIP3    H237547   3.695   1.039   8.488
 5330TIP3   OH237548   0.861   2.886   7.351
 5330TIP3    H137549   0.888   2.968   7.393
 5330TIP3    H237550   0.788   2.911   7.294
 5331TIP3   OH237551   6.291   1.970   7.767
 5331TIP3    H137552   6.241   2.035   7.718
 5331TIP3    H237553   6.251   1.886   7.742
 5332TIP3   OH237554   1.155   4.771   0.034
 5332TIP3    H137555   1.072   4.724   0.035
 5332TIP3    H237556   1.221   4.702   0.031
 5333TIP3   OH237557   6.256   4.277   0.311
 5333TIP3    H137558   6.224   4.193   0.277
 5333TIP3    H237559   6.295   4.256   0.396
 5334TIP3   OH237560   5.276   2.521   6.250
 5334TIP3    H137561   5.345   2.460   6.222
 5334TIP3    H237562   5.315   2.569   6.323
 5335TIP3   OH237563   1.613   3.954   7.833
 5335TIP3    H137564   1.686   3.949   7.771
 5335TIP3    H237565   1.639   4.023   7.894
 5336TIP3   OH237566   4.963   1.674   6.686
 5336TIP3    H137567   4.988   1.766   6.680
 5336TIP3    H237568   5.023   1.636   6.750
 5337TIP3   OH237569   4.268   5.105   0.567
 5337TIP3    H137570   4.264   5.094   0.472
 5337TIP3    H237571   4.290   5.197   0.579
 5338TIP3   OH237572   5.963   5.007   1.929
 5338TIP3    H137573   5.957   4.916   1.901
 5338TIP3    H237574   5.997   5.002   2.019
 5339TIP3   OH237575   3.318   6.100   8.468
 5339TIP3    H137576   3.296   6.059   8.384
 5339TIP3    H237577   3.412   6.115   8.464
 5340TIP3   OH237578   4.282   3.905   7.918
 5340TIP3    H137579   4.312   3.816   7.901
 5340TIP3    H237580   4.334   3.960   7.860
 5341TIP3   OH237581   6.870   3.600   0.644
 5341TIP3    H137582   0.044   3.596   0.685
 5341TIP3    H237583   6.810   3.611   0.718
 5342TIP3   OH237584   4.048   4.315   6.830
 5342TIP3    H137585   4.118   4.325   6.765
 5342TIP3    H237586   4.061   4.227   6.864
 5343TIP3   OH237587   4.024   2.741   0.286
 5343TIP3    H137588   4.069   2.664   0.322
 5343TIP3    H237589   4.067   2.757   0.202
 5344TIP3   OH237590   4.414   3.104   7.183
 5344TIP3    H137591   4.388   3.140   7.268
 5344TIP3    H237592   4.336   3.113   7.128
 5345TIP3   OH237593   2.367   0.393   8.005
 5345TIP3    H137594   2.335   0.483   8.003
 5345TIP3    H237595   2.322   0.350   7.932
 5346TIP3   OH237596   0.505   0.167   8.218
 5346TIP3    H137597   0.522   0.168   8.124
 5346TIP3    H237598   0.545   0.247   8.250
 5347TIP3   OH237599   5.194   2.361   0.688
 5347TIP3    H137600   5.106   2.365   0.650
 5347TIP3    H237601   5.237   2.440   0.657
 5348TIP3   OH237602   2.461   5.244   7.859
 5348TIP3    H137603   2.471   5.266   7.766
 5348TIP3    H237604   2.369   5.217   7.867
 5349TIP3   OH237605   2.457   1.896   1.111
 5349TIP3    H137606   2.523   1.859   1.170
 5349TIP3    H237607   2.442   1.828   1.045
 5350TIP3   OH237608   1.527   6.574   0.423
 5350TIP3    H137609   1.588   6.507   0.456
 5350TIP3    H237610   1.504   6.544   0.335
 5351TIP3   OH237611   3.837   5.881   7.776
 5351TIP3    H137612   3.866   5.899   7.686
 5351TIP3    H237613   3.857   5.789   7.790
 5352TIP3   OH237614   0.611   4.169   1.640
 5352TIP3    H137615   0.617   4.248   1.692
 5352TIP3    H237616   0.685   4.115   1.668
 5353TIP3   OH237617   5.184   2.223   0.177
 5353TIP3    H137618   5.267   2.265   0.199
 5353TIP3    H237619   5.159   2.174   0.255
 5354TIP3   OH237620   5.381   2.353   8.397
 5354TIP3    H137621   5.355   2.429   8.448
 5354TIP3    H237622   5.461   2.322   8.439
 5355TIP3   OH237623   0.380   6.539   7.036
 5355TIP3    H137624   0.474   6.536   7.018
 5355TIP3    H237625   0.340   6.491   6.963
 5356TIP3   OH237626   5.553   6.645   0.534
 5356TIP3    H137627   5.619   6.637   0.603
 5356TIP3    H237628   5.604   6.662   0.454
 5357TIP3   OH237629   5.373   0.326   1.432
 5357TIP3    H137630   5.430   0.320   1.355
 5357TIP3    H237631   5.328   0.242   1.435
 5358TIP3   OH237632   0.829   4.471   0.629
 5358TIP3    H137633   0.890   4.502   0.696
 5358TIP3    H237634   0.842   4.531   0.556
 5359TIP3   OH237635   1.089   5.701   1.812
 5359TIP3    H137636   1.007   5.749   1.818
 5359TIP3    H237637   1.077   5.624   1.868
 5360TIP3   OH237638   1.577   5.938   0.592
 5360TIP3    H137639   1.542   5.904   0.509
 5360TIP3    H237640   1.669   5.913   0.591
 5361TIP3   OH237641   6.720   1.349   8.186
 5361TIP3    H137642   6.680   1.265   8.208
 5361TIP3    H237643   6.694   1.407   8.258
 5362TIP3   OH237644   6.899   0.554   7.671
 5362TIP3    H137645   0.070   0.548   7.717
 5362TIP3    H237646   6.852   0.475   7.696
 5363TIP3   OH237647   5.500   0.455   7.168
 5363TIP3    H137648   5.510   0.387   7.101
 5363TIP3    H237649   5.521   0.537   7.123
 5364TIP3   OH237650   3.790   6.569   8.289
 5364TIP3    H137651   3.833   6.603   8.211
 5364TIP3    H237652   3.727   6.637   8.314
 5365TIP3   OH237653   2.040   5.172   6.562
 5365TIP3    H137654   2.029   5.083   6.596
 5365TIP3    H237655   2.038   5.161   6.467
 5366TIP3   OH237656   1.334   4.624   0.720
 5366TIP3    H137657   1.297   4.708   0.748
 5366TIP3    H237658   1.429   4.639   0.718
 5367TIP3   OH237659   2.531   2.573   1.507
 5367TIP3    H137660   2.476   2.545   1.580
 5367TIP3    H237661   2.500   2.522   1.433
 5368TIP3   OH237662   4.163   2.004   7.317
 5368TIP3    H137663   4.201   1.918   7.336
 5368TIP3    H237664   4.081   1.984   7.273
 5369TIP3   OH237665   1.040   0.654   8.582
 5369TIP3    H137666   0.973   0.586   8.594
 5369TIP3    H237667   1.065   0.647   8.490
 5370TIP3   OH237668   1.945   5.150   7.922
 5370TIP3    H137669   1.904   5.091   7.986
 5370TIP3    H237670   1.904   5.235   7.938
 5371TIP3   OH237671   3.157   4.137   8.122
 5371TIP3    H137672   3.190   4.064   8.175
 5371TIP3    H237673   3.071   4.156   8.159
 5372TIP3   OH237674   1.912   2.075   7.618
 5372TIP3    H137675   1.822   2.042   7.629
 5372TIP3    H237676   1.902   2.169   7.605
 5373TIP3   OH237677   2.887   1.054   1.719
 5373TIP3    H137678   2.958   0.994   1.698
 5373TIP3    H237679   2.918   1.105   1.794
 5374TIP3   OH237680   2.101   4.482   7.183
 5374TIP3    H137681   2.018   4.523   7.157
 5374TIP3    H237682   2.168   4.533   7.138
 5375TIP3   OH237683   6.782   2.903   0.274
 5375TIP3    H137684   6.733   2.949   0.207
 5375TIP3    H237685   6.810   2.972   0.335
 5376TIP3   OH237686   2.354   0.720   7.328
 5376TIP3    H137687   2.343   0.798   7.384
 5376TIP3    H237688   2.341   0.752   7.239
 5377TIP3   OH237689   3.259   3.278   1.144
 5377TIP3    H137690   3.176   3.235   1.122
 5377TIP3    H237691   3.324   3.236   1.088
 5378TIP3   OH237692   2.195   5.808   8.050
 5378TIP3    H137693   2.144   5.889   8.043
 5378TIP3    H237694   2.232   5.796   7.963
 5379TIP3   OH237695   0.060   0.916   0.095
 5379TIP3    H137696   0.020   0.830   0.089
 5379TIP3    H237697   0.143   0.907   0.049
 5380TIP3   OH237698   6.550   3.890   1.641
 5380TIP3    H137699   6.515   3.894   1.553
 5380TIP3    H237700   6.507   3.815   1.682
 5381TIP3   OH237701   5.763   6.380   7.511
 5381TIP3    H137702   5.768   6.285   7.524
 5381TIP3    H237703   5.682   6.392   7.460
 5382TIP3   OH237704   5.313   1.829   7.418
 5382TIP3    H137705   5.251   1.777   7.367
 5382TIP3    H237706   5.346   1.769   7.485
 5383TIP3   OH237707   0.140   4.852   7.118
 5383TIP3    H137708   0.180   4.766   7.128
 5383TIP3    H237709   0.208   4.914   7.145
 5384TIP3   OH237710   1.203   2.597   0.908
 5384TIP3    H137711   1.126   2.549   0.939
 5384TIP3    H237712   1.210   2.573   0.815
 5385TIP3   OH237713   3.266   4.577   7.771
 5385TIP3    H137714   3.306   4.631   7.839
 5385TIP3    H237715   3.220   4.640   7.715
 5386TIP3   OH237716   0.744   4.916   8.452
 5386TIP3    H137717   0.664   4.870   8.477
 5386TIP3    H237718   0.734   4.934   8.359
 5387TIP3   OH237719   1.039   0.424   7.402
 5387TIP3    H137720   1.041   0.406   7.308
 5387TIP3    H237721   1.131   0.420   7.429
 5388TIP3   OH237722   1.977   1.131   0.952
 5388TIP3    H137723   2.027   1.082   0.886
 5388TIP3    H237724   1.938   1.063   1.007
 5389TIP3   OH237725   0.642   6.884   8.434
 5389TIP3    H137726   0.589   6.906   8.511
 5389TIP3    H237727   0.720   6.841   8.470
 5390TIP3   OH237728   4.489   5.390   7.339
 5390TIP3    H137729   4.585   5.394   7.333
 5390TIP3    H237730   4.463   5.480   7.358
 5391TIP3   OH237731   3.568   2.858   2.263
 5391TIP3    H137732   3.594   2.826   2.349
 5391TIP3    H237733   3.627   2.931   2.245
 5392TIP3   OH237734   6.654   5.327   0.023
 5392TIP3    H137735   6.590   5.351   8.559
 5392TIP3    H237736   6.700   5.409   0.043
 5393TIP3   OH237737   1.872   4.280   0.163
 5393TIP3    H137738   1.892   4.275   0.257
 5393TIP3    H237739   1.954   4.257   0.120
 5394TIP3   OH237740   6.226   2.730   1.308
 5394TIP3    H137741   6.290   2.673   1.350
 5394TIP3    H237742   6.190   2.678   1.236
 5395TIP3   OH237743   0.154   4.091   8.033
 5395TIP3    H137744   0.192   4.008   8.060
 5395TIP3    H237745   0.142   4.082   7.939
 5396TIP3   OH237746   0.172   4.732   0.882
 5396TIP3    H137747   0.175   4.728   0.978
 5396TIP3    H237748   0.203   4.820   0.860
 5397TIP3   OH237749   0.243   2.448   2.487
 5397TIP3    H137750   0.201   2.493   2.414
 5397TIP3    H237751   0.211   2.493   2.565
 5398TIP3   OH237752   3.930   2.773   0.797
 5398TIP3    H137753   3.836   2.764   0.777
 5398TIP3    H237754   3.932   2.801   0.888
 5399TIP3   OH237755   4.834   1.780   0.153
 5399TIP3    H137756   4.927   1.798   0.162
 5399TIP3    H237757   4.795   1.863   0.125
 5400TIP3   OH237758   3.542   2.389   8.489
 5400TIP3    H137759   3.585   2.449   8.551
 5400TIP3    H237760   3.462   2.435   8.464
 5401TIP3   OH237761   4.027   4.660   1.248
 5401TIP3    H137762   3.934   4.645   1.261
 5401TIP3    H237763   4.035   4.686   1.156
 5402TIP3   OH237764   4.523   4.154   0.311
 5402TIP3    H137765   4.556   4.236   0.348
 5402TIP3    H237766   4.445   4.134   0.363
 5403TIP3   OH237767   6.363   0.351   1.119
 5403TIP3    H137768   6.371   0.276   1.060
 5403TIP3    H237769   6.415   0.420   1.077
 5404TIP3   OH237770   2.730   0.794   8.430
 5404TIP3    H137771   2.656   0.734   8.418
 5404TIP3    H237772   2.706   0.847   8.506
 5405TIP3   OH237773   2.642   4.565   6.794
 5405TIP3    H137774   2.582   4.583   6.722
 5405TIP3    H237775   2.725   4.545   6.752
 5406TIP3   OH237776   5.081   1.003   1.059
 5406TIP3    H137777   5.062   1.056   1.137
 5406TIP3    H237778   5.108   1.067   0.993
 5407TIP3   OH237779   5.737   2.853   0.741
 5407TIP3    H137780   5.668   2.853   0.675
 5407TIP3    H237781   5.759   2.760   0.752
 5408TIP3   OH237782   2.155   2.495   0.997
 5408TIP3    H137783   2.090   2.488   0.926
 5408TIP3    H237784   2.237   2.467   0.957
 5409TIP3   OH237785   3.298   3.383   1.868
 5409TIP3    H137786   3.307   3.289   1.849
 5409TIP3    H237787   3.388   3.416   1.866
 5410TIP3   OH237788   1.251   3.715   6.223
 5410TIP3    H137789   1.254   3.680   6.134
 5410TIP3    H237790   1.331   3.768   6.230
 5411TIP3   OH237791   5.801   2.114   7.480
 5411TIP3    H137792   5.707   2.097   7.477
 5411TIP3    H237793   5.811   2.197   7.433
 5412TIP3   OH237794   3.526   6.089   7.153
 5412TIP3    H137795   3.469   6.089   7.229
 5412TIP3    H237796   3.580   6.168   7.163
 5413TIP3   OH237797   6.848   2.063   8.254
 5413TIP3    H137798   6.764   2.037   8.292
 5413TIP3    H237799   6.903   1.985   8.261
 5414TIP3   OH237800   0.073   1.938   1.460
 5414TIP3    H137801   0.165   1.914   1.457
 5414TIP3    H237802   0.063   2.007   1.395
 5415TIP3   OH237803   4.053   6.620   2.370
 5415TIP3    H137804   4.033   6.695   2.426
 5415TIP3    H237805   4.097   6.558   2.429
 5416TIP3   OH237806   3.016   5.505   1.170
 5416TIP3    H137807   3.083   5.483   1.235
 5416TIP3    H237808   3.015   5.600   1.168
 5417TIP3   OH237809   1.956   6.465   6.195
 5417TIP3    H137810   1.867   6.501   6.200
 5417TIP3    H237811   1.954   6.408   6.118
 5418TIP3   OH237812   4.094   4.091   1.549
 5418TIP3    H137813   4.096   4.127   1.460
 5418TIP3    H237814   4.022   4.136   1.592
 5419TIP3   OH237815   3.144   4.900   0.744
 5419TIP3    H137816   3.067   4.957   0.745
 5419TIP3    H237817   3.207   4.944   0.801
 5420TIP3   OH237818   0.414   4.909   8.225
 5420TIP3    H137819   0.372   4.930   8.308
 5420TIP3    H237820   0.496   4.959   8.226
 5421TIP3   OH237821   1.795   4.384   1.265
 5421TIP3    H137822   1.840   4.302   1.245
 5421TIP3    H237823   1.746   4.365   1.345
 5422TIP3   OH237824   3.078   4.055   6.846
 5422TIP3    H137825   3.169   4.044   6.872
 5422TIP3    H237826   3.072   4.146   6.817
 5423TIP3   OH237827   0.893   6.807   7.539
 5423TIP3    H137828   0.885   6.827   7.632
 5423TIP3    H237829   0.906   6.893   7.497
 5424TIP3   OH237830   0.010   3.114   0.754
 5424TIP3    H137831   6.901   3.193   0.803
 5424TIP3    H237832   0.000   3.042   0.817
 5425TIP3   OH237833   2.450   3.955   8.581
 5425TIP3    H137834   2.450   3.918   8.493
 5425TIP3    H237835   2.364   3.931   0.014
 5426TIP3   OH237836   0.830   2.618   6.681
 5426TIP3    H137837   0.829   2.674   6.759
 5426TIP3    H237838   0.911   2.640   6.636
 5427TIP3   OH237839   5.396   4.582   7.048
 5427TIP3    H137840   5.317   4.636   7.044
 5427TIP3    H237841   5.431   4.598   7.136
 5428TIP3   OH237842   3.054   4.769   0.331
 5428TIP3    H137843   3.043   4.677   0.353
 5428TIP3    H237844   2.976   4.812   0.366
 5429TIP3   OH237845   4.199   3.099   1.714
 5429TIP3    H137846   4.288   3.064   1.709
 5429TIP3    H237847   4.146   3.027   1.747
 5430TIP3   OH237848   4.506   0.011   7.070
 5430TIP3    H137849   4.538   6.853   7.013
 5430TIP3    H237850   4.424   6.890   7.106
 5431TIP3   OH237851   1.334   0.733   7.237
 5431TIP3    H137852   1.314   0.640   7.238
 5431TIP3    H237853   1.254   0.775   7.269
 5432TIP3   OH237854   1.399   4.582   7.094
 5432TIP3    H137855   1.341   4.563   7.167
 5432TIP3    H237856   1.349   4.559   7.016
 5433TIP3   OH237857   4.483   2.812   6.969
 5433TIP3    H137858   4.408   2.805   7.027
 5433TIP3    H237859   4.481   2.903   6.938
 5434TIP3   OH237860   5.119   3.842   0.908
 5434TIP3    H137861   5.089   3.909   0.847
 5434TIP3    H237862   5.081   3.867   0.992
 5435TIP3   OH237863   5.535   5.123   7.826
 5435TIP3    H137864   5.521   5.144   7.918
 5435TIP3    H237865   5.464   5.168   7.780
 5436TIP3   OH237866   6.878   1.032   8.223
 5436TIP3    H137867   0.051   1.038   8.267
 5436TIP3    H237868   6.894   1.065   8.135
 5437TIP3   OH237869   6.205   2.694   7.553
 5437TIP3    H137870   6.227   2.780   7.588
 5437TIP3    H237871   6.206   2.636   7.630
 5438TIP3   OH237872   4.569   1.198   1.440
 5438TIP3    H137873   4.540   1.263   1.504
 5438TIP3    H237874   4.662   1.184   1.461
 5439TIP3   OH237875   4.656   6.176   8.025
 5439TIP3    H137876   4.679   6.084   8.007
 5439TIP3    H237877   4.727   6.208   8.081
 5440TIP3   OH237878   0.620   3.004   6.693
 5440TIP3    H137879   0.584   3.092   6.705
 5440TIP3    H237880   0.629   2.995   6.598
 5441TIP3   OH237881   3.395   4.587   1.117
 5441TIP3    H137882   3.357   4.552   1.198
 5441TIP3    H237883   3.321   4.631   1.073
 5442TIP3   OH237884   4.648   0.205   1.871
 5442TIP3    H137885   4.638   0.246   1.785
 5442TIP3    H237886   4.739   0.176   1.873
 5443TIP3   OH237887   3.886   2.986   7.055
 5443TIP3    H137888   3.948   2.979   6.983
 5443TIP3    H237889   3.885   3.078   7.078
 5444TIP3   OH237890   5.807   6.646   6.481
 5444TIP3    H137891   5.865   6.592   6.534
 5444TIP3    H237892   5.771   6.587   6.415
 5445TIP3   OH237893   2.597   6.827   0.682
 5445TIP3    H137894   2.639   6.742   0.699
 5445TIP3    H237895   2.584   6.865   0.769
 5446TIP3   OH237896   3.613   5.144   1.935
 5446TIP3    H137897   3.647   5.201   2.004
 5446TIP3    H237898   3.575   5.070   1.983
 5447TIP3   OH237899   6.263   5.472   7.743
 5447TIP3    H137900   6.292   5.475   7.834
 5447TIP3    H237901   6.344   5.481   7.692
 5448TIP3   OH237902   4.502   3.030   6.270
 5448TIP3    H137903   4.412   3.060   6.268
 5448TIP3    H237904   4.555   3.107   6.250
 5449TIP3   OH237905   6.211   2.879   6.493
 5449TIP3    H137906   6.130   2.898   6.540
 5449TIP3    H237907   6.241   2.964   6.460
 5450TIP3   OH237908   5.027   2.658   0.034
 5450TIP3    H137909   4.981   2.741   0.021
 5450TIP3    H237910   5.120   2.682   0.033
 5451TIP3   OH237911   0.898   3.592   0.724
 5451TIP3    H137912   0.955   3.544   0.784
 5451TIP3    H237913   0.950   3.603   0.644
 5452TIP3   OH237914   0.200   1.829   6.802
 5452TIP3    H137915   0.247   1.813   6.720
 5452TIP3    H237916   0.219   1.920   6.824
 5453TIP3   OH237917   0.679   1.520   1.053
 5453TIP3    H137918   0.719   1.445   1.097
 5453TIP3    H237919   0.618   1.481   0.990
 5454TIP3   OH237920   3.990   5.367   6.961
 5454TIP3    H137921   4.036   5.395   6.882
 5454TIP3    H237922   3.993   5.271   6.957
 5455TIP3   OH237923   1.368   1.211   1.153
 5455TIP3    H137924   1.294   1.175   1.105
 5455TIP3    H237925   1.376   1.155   1.230
 5456TIP3   OH237926   1.507   5.455   0.716
 5456TIP3    H137927   1.433   5.479   0.660
 5456TIP3    H237928   1.546   5.379   0.673
 5457TIP3   OH237929   5.571   5.194   8.593
 5457TIP3    H137930   5.498   5.144   0.027
 5457TIP3    H237931   5.612   5.134   8.530
 5458TIP3   OH237932   2.543   2.394   0.696
 5458TIP3    H137933   2.506   2.312   0.663
 5458TIP3    H237934   2.624   2.405   0.646
 5459TIP3   OH237935   2.376   1.435   8.042
 5459TIP3    H137936   2.319   1.481   8.103
 5459TIP3    H237937   2.419   1.505   7.993
 5460TIP3   OH237938   6.565   0.118   6.804
 5460TIP3    H137939   6.584   0.036   6.758
 5460TIP3    H237940   6.611   0.185   6.755
 5461TIP3   OH237941   0.390   4.294   1.377
 5461TIP3    H137942   0.323   4.354   1.410
 5461TIP3    H237943   0.473   4.332   1.407
 5462TIP3   OH237944   4.641   5.668   1.261
 5462TIP3    H137945   4.678   5.585   1.233
 5462TIP3    H237946   4.698   5.698   1.332
 5463TIP3   OH237947   4.973   4.024   0.759
 5463TIP3    H137948   4.911   4.015   0.686
 5463TIP3    H237949   4.934   4.092   0.814
 5464TIP3   OH237950   0.120   6.402   7.204
 5464TIP3    H137951   0.197   6.445   7.168
 5464TIP3    H237952   0.046   6.441   7.156
 5465TIP3   OH237953   5.476   3.770   0.703
 5465TIP3    H137954   5.530   3.704   0.661
 5465TIP3    H237955   5.431   3.813   0.630
 5466TIP3   OH237956   0.900   5.377   2.209
 5466TIP3    H137957   0.890   5.307   2.144
 5466TIP3    H237958   0.811   5.390   2.243
 5467TIP3   OH237959   0.459   2.533   1.392
 5467TIP3    H137960   0.473   2.551   1.485
 5467TIP3    H237961   0.530   2.472   1.369
 5468TIP3   OH237962   2.393   0.164   6.676
 5468TIP3    H137963   2.403   0.239   6.734
 5468TIP3    H237964   2.439   0.189   6.596
 5469TIP3   OH237965   2.950   2.203   7.073
 5469TIP3    H137966   3.021   2.177   7.014
 5469TIP3    H237967   2.987   2.274   7.125
 5470TIP3   OH237968   6.514   0.673   7.040
 5470TIP3    H137969   6.425   0.695   7.067
 5470TIP3    H237970   6.508   0.582   7.009
 5471TIP3   OH237971   2.950   3.970   1.105
 5471TIP3    H137972   3.035   4.008   1.083
 5471TIP3    H237973   2.916   3.936   1.022
 5472TIP3   OH237974   0.718   3.334   0.402
 5472TIP3    H137975   0.625   3.335   0.424
 5472TIP3    H237976   0.722   3.294   0.315
 5473TIP3   OH237977   5.536   4.901   1.054
 5473TIP3    H137978   5.614   4.954   1.042
 5473TIP3    H237979   5.464   4.964   1.058
 5474TIP3   OH237980   0.581   1.007   8.401
 5474TIP3    H137981   0.571   1.094   8.439
 5474TIP3    H237982   0.494   0.985   8.369
 5475TIP3   OH237983   0.475   3.970   6.447
 5475TIP3    H137984   0.501   4.026   6.374
 5475TIP3    H237985   0.557   3.945   6.489
 5476TIP3   OH237986   4.571   5.814   2.422
 5476TIP3    H137987   4.636   5.827   2.491
 5476TIP3    H237988   4.497   5.869   2.449
 5477TIP3   OH237989   4.347   1.580   7.200
 5477TIP3    H137990   4.373   1.619   7.284
 5477TIP3    H237991   4.321   1.491   7.223
 5478TIP3   OH237992   1.997   4.712   7.918
 5478TIP3    H137993   2.003   4.700   7.823
 5478TIP3    H237994   2.084   4.693   7.951
 5479TIP3   OH237995   0.427   0.071   7.277
 5479TIP3    H137996   0.472   0.141   7.324
 5479TIP3    H237997   0.334   0.086   7.295
 5480TIP3   OH237998   6.288   6.889   1.480
 5480TIP3    H137999   6.266   6.872   1.388
 5480TIP3    H238000   6.204   6.910   1.521
 5481TIP3   OH238001   5.239   3.807   1.559
 5481TIP3    H138002   5.203   3.718   1.553
 5481TIP3    H238003   5.162   3.864   1.561
 5482TIP3   OH238004   1.258   2.457   7.736
 5482TIP3    H138005   1.216   2.457   7.650
 5482TIP3    H238006   1.273   2.549   7.756
 5483TIP3   OH238007   2.336   6.744   1.382
 5483TIP3    H138008   2.334   6.704   1.469
 5483TIP3    H238009   2.428   6.739   1.356
 5484TIP3   OH238010   3.053   2.394   7.256
 5484TIP3    H138011   3.108   2.327   7.297
 5484TIP3    H238012   3.054   2.467   7.318
 5485TIP3   OH238013   2.948   6.812   6.934
 5485TIP3    H138014   3.018   6.747   6.942
 5485TIP3    H238015   2.868   6.764   6.953
 5486TIP3   OH238016   6.723   2.916   6.820
 5486TIP3    H138017   6.649   2.869   6.858
 5486TIP3    H238018   6.687   3.001   6.794
 5487TIP3   OH238019   6.098   4.179   7.025
 5487TIP3    H138020   6.031   4.161   6.959
 5487TIP3    H238021   6.054   4.164   7.109
 5488TIP3   OH238022   6.054   1.806   6.593
 5488TIP3    H138023   6.102   1.810   6.511
 5488TIP3    H238024   6.115   1.839   6.659
 5489TIP3   OH238025   3.835   1.390   1.328
 5489TIP3    H138026   3.910   1.341   1.293
 5489TIP3    H238027   3.866   1.480   1.332
 5490TIP3   OH238028   4.512   4.856   1.598
 5490TIP3    H138029   4.456   4.931   1.578
 5490TIP3    H238030   4.537   4.821   1.513
 5491TIP3   OH238031   3.012   6.825   1.504
 5491TIP3    H138032   3.102   6.803   1.477
 5491TIP3    H238033   3.003   6.786   1.591
 5492TIP3   OH238034   3.525   6.311   0.578
 5492TIP3    H138035   3.435   6.339   0.564
 5492TIP3    H238036   3.527   6.219   0.555
 5493TIP3   OH238037   5.290   0.448   1.911
 5493TIP3    H138038   5.265   0.527   1.863
 5493TIP3    H238039   5.217   0.388   1.899
 5494TIP3   OH238040   5.634   0.974   0.227
 5494TIP3    H138041   5.544   1.005   0.230
 5494TIP3    H238042   5.629   0.886   0.191
 5495TIP3   OH238043   3.369   6.763   0.684
 5495TIP3    H138044   3.322   6.833   0.729
 5495TIP3    H238045   3.301   6.700   0.659
 5496TIP3   OH238046   1.802   5.396   8.530
 5496TIP3    H138047   1.714   5.375   8.560
 5496TIP3    H238048   1.796   5.390   8.434
 5497TIP3   OH238049   6.081   4.827   7.905
 5497TIP3    H138050   6.162   4.856   7.864
 5497TIP3    H238051   6.094   4.847   7.998
 5498TIP3   OH238052   4.249   0.327   7.625
 5498TIP3    H138053   4.166   0.364   7.656
 5498TIP3    H238054   4.223   0.255   7.568
 5499TIP3   OH238055   5.114   5.147   6.942
 5499TIP3    H138056   5.150   5.103   6.865
 5499TIP3    H238057   5.107   5.079   7.008
 5500TIP3   OH238058   1.342   3.959   1.334
 5500TIP3    H138059   1.309   4.015   1.404
 5500TIP3    H238060   1.386   3.887   1.380
 5501TIP3   OH238061   2.098   4.184   0.035
 5501TIP3    H138062   2.074   4.101   0.077
 5501TIP3    H238063   2.116   4.160   8.547
 5502TIP3   OH238064   0.721   3.070   7.205
 5502TIP3    H138065   0.680   3.031   7.128
 5502TIP3    H238066   0.666   3.145   7.226
 5503TIP3   OH238067   6.355   3.422   0.641
 5503TIP3    H138068   6.400   3.482   0.700
 5503TIP3    H238069   6.316   3.478   0.574
 5504TIP3   OH238070   0.274   5.476   7.037
 5504TIP3    H138071   0.269   5.404   6.974
 5504TIP3    H238072   0.367   5.498   7.041
 5505TIP3   OH238073   1.989   3.101   6.809
 5505TIP3    H138074   1.972   3.017   6.852
 5505TIP3    H238075   2.074   3.128   6.844
 5506TIP3   OH238076   1.364   2.236   7.303
 5506TIP3    H138077   1.348   2.156   7.253
 5506TIP3    H238078   1.281   2.283   7.301
 5507TIP3   OH238079   5.981   6.489   1.884
 5507TIP3    H138080   5.905   6.538   1.915
 5507TIP3    H238081   6.046   6.557   1.865
 5508TIP3   OH238082   1.918   6.856   8.540
 5508TIP3    H138083   1.935   6.818   0.023
 5508TIP3    H238084   1.912   6.780   8.482
 5509TIP3   OH238085   3.625   2.687   7.781
 5509TIP3    H138086   3.637   2.616   7.843
 5509TIP3    H238087   3.688   2.754   7.808
 5510TIP3   OH238088   5.292   2.746   5.950
 5510TIP3    H138089   5.209   2.732   5.996
 5510TIP3    H238090   5.332   2.659   5.947
 5511TIP3   OH238091   2.886   0.925   0.431
 5511TIP3    H138092   2.920   0.941   0.520
 5511TIP3    H238093   2.793   0.905   0.445
 5512TIP3   OH238094   4.148   1.149   8.469
 5512TIP3    H138095   4.126   1.242   8.472
 5512TIP3    H238096   4.197   1.139   8.387
 5513TIP3   OH238097   1.366   2.151   7.844
 5513TIP3    H138098   1.284   2.141   7.795
 5513TIP3    H238099   1.375   2.246   7.856
 5514TIP3   OH238100   5.439   6.026   7.789
 5514TIP3    H138101   5.374   6.093   7.768
 5514TIP3    H238102   5.492   6.064   7.859
 5515TIP3   OH238103   3.287   1.124   7.277
 5515TIP3    H138104   3.313   1.205   7.232
 5515TIP3    H238105   3.370   1.077   7.291
 5516TIP3   OH238106   4.153   0.261   8.576
 5516TIP3    H138107   4.154   0.343   8.526
 5516TIP3    H238108   4.205   0.200   8.525
 5517TIP3   OH238109   0.565   5.086   7.368
 5517TIP3    H138110   0.653   5.076   7.405
 5517TIP3    H238111   0.521   5.149   7.426
 5518TIP3   OH238112   3.438   3.263   1.362
 5518TIP3    H138113   3.514   3.214   1.329
 5518TIP3    H238114   3.382   3.273   1.286
 5519TIP3   OH238115   1.686   4.352   8.181
 5519TIP3    H138116   1.662   4.355   8.274
 5519TIP3    H238117   1.642   4.429   8.143
 5520TIP3   OH238118   4.545   2.526   6.951
 5520TIP3    H138119   4.467   2.489   6.992
 5520TIP3    H238120   4.557   2.611   6.993
 5521TIP3   OH238121   3.357   6.177   7.883
 5521TIP3    H138122   3.434   6.121   7.886
 5521TIP3    H238123   3.287   6.125   7.923
 5522TIP3   OH238124   3.785   4.749   1.049
 5522TIP3    H138125   3.867   4.722   1.008
 5522TIP3    H238126   3.722   4.753   0.977
 5523TIP3   OH238127   2.059   2.371   1.220
 5523TIP3    H138128   2.088   2.412   1.139
 5523TIP3    H238129   2.058   2.443   1.284
 5524TIP3   OH238130   0.613   3.952   6.768
 5524TIP3    H138131   0.608   4.036   6.723
 5524TIP3    H238132   0.656   3.894   6.705
 5525TIP3   OH238133   5.844   6.792   2.003
 5525TIP3    H138134   5.770   6.852   2.009
 5525TIP3    H238135   5.921   6.849   1.992
 5526TIP3   OH238136   1.767   6.525   1.987
 5526TIP3    H138137   1.802   6.579   1.916
 5526TIP3    H238138   1.777   6.435   1.956
 5527TIP3   OH238139   2.874   5.550   6.435
 5527TIP3    H138140   2.958   5.561   6.391
 5527TIP3    H238141   2.894   5.498   6.513
 5528TIP3   OH238142   6.095   0.547   1.457
 5528TIP3    H138143   6.071   0.537   1.549
 5528TIP3    H238144   6.065   0.634   1.433
 5529TIP3   OH238145   3.913   1.573   0.944
 5529TIP3    H138146   3.986   1.632   0.961
 5529TIP3    H238147   3.848   1.627   0.899
 5530TIP3   OH238148   5.218   2.075   0.648
 5530TIP3    H138149   5.300   2.048   0.690
 5530TIP3    H238150   5.207   2.167   0.672
 5531TIP3   OH238151   2.449   5.981   0.458
 5531TIP3    H138152   2.495   5.962   0.377
 5531TIP3    H238153   2.512   6.031   0.510
 5532TIP3   OH238154   2.518   2.957   7.956
 5532TIP3    H138155   2.446   2.906   7.920
 5532TIP3    H238156   2.587   2.893   7.974
 5533TIP3   OH238157   0.037   2.811   1.319
 5533TIP3    H138158   0.052   2.862   1.399
 5533TIP3    H238159   0.096   2.736   1.327
 5534TIP3   OH238160   1.174   0.961   0.573
 5534TIP3    H138161   1.251   1.018   0.569
 5534TIP3    H238162   1.108   1.014   0.618
 5535TIP3   OH238163   2.805   6.081   1.850
 5535TIP3    H138164   2.842   6.168   1.863
 5535TIP3    H238165   2.881   6.025   1.832
 5536TIP3   OH238166   0.326   4.737   0.424
 5536TIP3    H138167   0.421   4.723   0.427
 5536TIP3    H238168   0.289   4.649   0.413
 5537TIP3   OH238169   4.209   4.991   0.999
 5537TIP3    H138170   4.150   4.959   0.930
 5537TIP3    H238171   4.250   5.069   0.961
 5538TIP3   OH238172   2.100   1.751   0.143
 5538TIP3    H138173   2.167   1.819   0.140
 5538TIP3    H238174   2.080   1.732   0.051
 5539TIP3   OH238175   5.342   0.511   7.985
 5539TIP3    H138176   5.328   0.585   8.043
 5539TIP3    H238177   5.255   0.493   7.948
 5540TIP3   OH238178   6.252   6.599   7.486
 5540TIP3    H138179   6.313   6.530   7.459
 5540TIP3    H238180   6.166   6.567   7.460
 5541TIP3   OH238181   4.027   1.464   1.880
 5541TIP3    H138182   3.949   1.432   1.835
 5541TIP3    H238183   3.993   1.523   1.947
 5542TIP3   OH238184   3.135   6.730   7.484
 5542TIP3    H138185   3.192   6.715   7.559
 5542TIP3    H238186   3.052   6.687   7.508
 5543TIP3   OH238187   3.406   0.130   6.882
 5543TIP3    H138188   3.459   0.107   6.806
 5543TIP3    H238189   3.458   0.103   6.957
 5544TIP3   OH238190   4.516   0.937   0.662
 5544TIP3    H138191   4.545   0.847   0.643
 5544TIP3    H238192   4.573   0.992   0.608
 5545TIP3   OH238193   6.109   5.950   1.275
 5545TIP3    H138194   6.118   6.016   1.344
 5545TIP3    H238195   6.032   5.899   1.299
 5546TIP3   OH238196   6.813   0.572   1.301
 5546TIP3    H138197   6.846   0.590   1.212
 5546TIP3    H238198   6.891   0.545   1.350
 5547TIP3   OH238199   3.778   6.710   2.222
 5547TIP3    H138200   3.859   6.680   2.183
 5547TIP3    H238201   3.800   6.795   2.261
 5548TIP3   OH238202   1.939   4.707   6.344
 5548TIP3    H138203   1.899   4.669   6.267
 5548TIP3    H238204   1.991   4.635   6.382
 5549TIP3   OH238205   3.987   5.147   0.123
 5549TIP3    H138206   3.956   5.194   0.046
 5549TIP3    H238207   3.946   5.061   0.118
 5550TIP3   OH238208   5.003   3.150   0.633
 5550TIP3    H138209   4.918   3.116   0.661
 5550TIP3    H238210   5.049   3.169   0.715
 5551TIP3   OH238211   0.729   2.260   8.454
 5551TIP3    H138212   0.729   2.298   8.367
 5551TIP3    H238213   0.661   2.192   8.451
 5552TIP3   OH238214   2.382   1.697   0.909
 5552TIP3    H138215   2.316   1.746   0.859
 5552TIP3    H238216   2.365   1.605   0.888
 5553TIP3   OH238217   0.856   5.820   1.119
 5553TIP3    H138218   0.929   5.758   1.112
 5553TIP3    H238219   0.778   5.766   1.117
 5554TIP3   OH238220   1.109   6.649   7.205
 5554TIP3    H138221   1.088   6.730   7.159
 5554TIP3    H238222   1.204   6.641   7.197
 5555TIP3   OH238223   1.727   1.094   0.694
 5555TIP3    H138224   1.648   1.071   0.645
 5555TIP3    H238225   1.712   1.057   0.781
 5556TIP3   OH238226   2.936   6.711   0.505
 5556TIP3    H138227   2.943   6.619   0.478
 5556TIP3    H238228   2.883   6.708   0.585
 5557TIP3   OH238229   4.991   6.338   2.281
 5557TIP3    H138230   5.081   6.332   2.249
 5557TIP3    H238231   4.938   6.349   2.202
 5558TIP3   OH238232   2.643   2.969   7.459
 5558TIP3    H138233   2.651   3.051   7.509
 5558TIP3    H238234   2.633   2.998   7.368
 5559TIP3   OH238235   3.226   0.777   1.919
 5559TIP3    H138236   3.249   0.766   2.012
 5559TIP3    H238237   3.282   0.849   1.890
 5560TIP3   OH238238   2.971   1.412   7.627
 5560TIP3    H138239   2.885   1.370   7.635
 5560TIP3    H238240   3.033   1.345   7.656
 5561TIP3   OH238241   3.475   3.637   7.491
 5561TIP3    H138242   3.560   3.668   7.461
 5561TIP3    H238243   3.474   3.658   7.585
 5562TIP3   OH238244   4.151   4.192   7.641
 5562TIP3    H138245   4.162   4.284   7.666
 5562TIP3    H238246   4.076   4.162   7.693
 5563TIP3   OH238247   0.160   5.619   1.648
 5563TIP3    H138248   0.189   5.656   1.731
 5563TIP3    H238249   0.236   5.573   1.614
 5564TIP3   OH238250   0.132   4.341   7.739
 5564TIP3    H138251   0.128   4.298   7.653
 5564TIP3    H238252   0.220   4.322   7.771
 5565TIP3   OH238253   4.547   0.317   1.320
 5565TIP3    H138254   4.602   0.290   1.247
 5565TIP3    H238255   4.459   0.289   1.296
 5566TIP3   OH238256   2.473   2.848   7.653
 5566TIP3    H138257   2.563   2.837   7.683
 5566TIP3    H238258   2.478   2.915   7.585
 5567TIP3   OH238259   6.427   2.120   1.656
 5567TIP3    H138260   6.350   2.158   1.699
 5567TIP3    H238261   6.392   2.073   1.581
 5568TIP3   OH238262   2.801   0.123   1.765
 5568TIP3    H138263   2.773   0.187   1.699
 5568TIP3    H238264   2.853   0.173   1.828
 5569TIP3   OH238265   2.439   0.465   0.968
 5569TIP3    H138266   2.522   0.443   1.010
 5569TIP3    H238267   2.412   0.385   0.923
 5570TIP3   OH238268   3.967   2.321   2.276
 5570TIP3    H138269   3.893   2.261   2.286
 5570TIP3    H238270   4.014   2.316   2.359
 5571TIP3   OH238271   1.314   2.961   1.200
 5571TIP3    H138272   1.328   2.897   1.130
 5571TIP3    H238273   1.289   3.041   1.155
 5572TIP3   OH238274   4.391   2.398   7.623
 5572TIP3    H138275   4.383   2.305   7.603
 5572TIP3    H238276   4.462   2.403   7.688
 5573TIP3   OH238277   5.077   1.920   6.769
 5573TIP3    H138278   5.061   1.873   6.851
 5573TIP3    H238279   5.039   2.007   6.783
 5574TIP3   OH238280   0.235   4.336   7.229
 5574TIP3    H138281   0.249   4.263   7.168
 5574TIP3    H238282   0.210   4.409   7.173
 5575TIP3   OH238283   4.582   5.291   1.635
 5575TIP3    H138284   4.647   5.245   1.688
 5575TIP3    H238285   4.531   5.221   1.594
 5576TIP3   OH238286   2.846   1.993   6.891
 5576TIP3    H138287   2.898   2.019   6.815
 5576TIP3    H238288   2.905   2.006   6.965
 5577TIP3   OH238289   4.273   4.195   1.017
 5577TIP3    H138290   4.314   4.132   1.076
 5577TIP3    H238291   4.182   4.165   1.009
 5578TIP3   OH238292   0.918   0.563   1.421
 5578TIP3    H138293   0.993   0.538   1.475
 5578TIP3    H238294   0.957   0.606   1.345
 5579TIP3   OH238295   3.673   6.217   0.209
 5579TIP3    H138296   3.705   6.301   0.241
 5579TIP3    H238297   3.577   6.227   0.210
 5580TIP3   OH238298   4.652   5.302   7.006
 5580TIP3    H138299   4.672   5.303   7.099
 5580TIP3    H238300   4.736   5.313   6.962
 5581TIP3   OH238301   6.863   2.663   8.091
 5581TIP3    H138302   6.778   2.685   8.052
 5581TIP3    H238303   0.001   2.625   8.019
 5582TIP3   OH238304   3.154   1.086   7.513
 5582TIP3    H138305   3.197   1.126   7.438
 5582TIP3    H238306   3.071   1.132   7.520
 5583TIP3   OH238307   3.094   3.430   1.363
 5583TIP3    H138308   3.161   3.482   1.408
 5583TIP3    H238309   3.143   3.374   1.303
 5584TIP3   OH238310   6.578   5.873   1.151
 5584TIP3    H138311   6.645   5.810   1.123
 5584TIP3    H238312   6.555   5.921   1.071
 5585TIP3   OH238313   4.565   0.134   1.548
 5585TIP3    H138314   4.660   0.129   1.563
 5585TIP3    H238315   4.556   0.189   1.470
 5586TIP3   OH238316   5.608   3.737   1.815
 5586TIP3    H138317   5.554   3.791   1.873
 5586TIP3    H238318   5.568   3.747   1.729
 5587TIP3   OH238319   2.931   0.999   2.208
 5587TIP3    H138320   2.853   0.947   2.226
 5587TIP3    H238321   2.979   0.948   2.143
 5588TIP3   OH238322   4.166   2.285   8.553
 5588TIP3    H138323   4.130   2.359   8.602
 5588TIP3    H238324   4.170   2.315   8.462
 5589TIP3   OH238325   0.410   2.501   8.531
 5589TIP3    H138326   0.378   2.482   8.443
 5589TIP3    H238327   0.358   2.577   8.559
 5590TIP3   OH238328   0.909   2.666   0.323
 5590TIP3    H138329   0.823   2.697   0.352
 5590TIP3    H238330   0.967   2.680   0.398
 5591TIP3   OH238331   6.724   2.705   2.079
 5591TIP3    H138332   6.790   2.754   2.128
 5591TIP3    H238333   6.770   2.627   2.049
 5592TIP3   OH238334   3.356   0.495   7.467
 5592TIP3    H138335   3.313   0.422   7.512
 5592TIP3    H238336   3.449   0.473   7.468
 5593TIP3   OH238337   2.587   4.685   8.453
 5593TIP3    H138338   2.589   4.756   8.517
 5593TIP3    H238339   2.630   4.722   8.376
 5594TIP3   OH238340   0.124   5.937   1.617
 5594TIP3    H138341   0.177   6.009   1.584
 5594TIP3    H238342   0.136   5.867   1.553
 5595TIP3   OH238343   3.126   6.325   1.343
 5595TIP3    H138344   3.088   6.403   1.383
 5595TIP3    H238345   3.212   6.315   1.385
 5596TIP3   OH238346   0.953   2.519   1.308
 5596TIP3    H138347   0.955   2.610   1.281
 5596TIP3    H238348   1.014   2.474   1.249
 5597TIP3   OH238349   5.910   2.325   1.889
 5597TIP3    H138350   5.924   2.276   1.970
 5597TIP3    H238351   5.893   2.415   1.917
 5598TIP3   OH238352   1.462   5.489   1.020
 5598TIP3    H138353   1.439   5.489   0.927
 5598TIP3    H238354   1.428   5.572   1.053
 5599TIP3   OH238355   3.469   2.308   0.789
 5599TIP3    H138356   3.502   2.246   0.723
 5599TIP3    H238357   3.488   2.266   0.873
 5600TIP3   OH238358   5.703   0.149   0.312
 5600TIP3    H138359   5.648   0.072   0.328
 5600TIP3    H238360   5.792   0.117   0.326
 5601TIP3   OH238361   1.312   6.844   2.075
 5601TIP3    H138362   1.243   6.907   2.092
 5601TIP3    H238363   1.356   6.833   2.159
 5602TIP3   OH238364   6.055   1.143   1.353
 5602TIP3    H138365   5.964   1.131   1.325
 5602TIP3    H238366   6.064   1.237   1.368
 5603TIP3   OH238367   0.454   5.085   2.159
 5603TIP3    H138368   0.465   5.160   2.218
 5603TIP3    H238369   0.398   5.024   2.207
 5604TIP3   OH238370   0.326   1.883   0.514
 5604TIP3    H138371   0.362   1.903   0.601
 5604TIP3    H238372   0.403   1.871   0.458
 5605TIP3   OH238373   5.848   0.273   7.425
 5605TIP3    H138374   5.777   0.250   7.365
 5605TIP3    H238375   5.837   0.214   7.499
 5606TIP3   OH238376   4.059   4.077   2.632
 5606TIP3    H138377   4.130   4.059   2.693
 5606TIP3    H238378   4.027   4.164   2.657
 5607TIP3   OH238379   1.032   2.964   8.174
 5607TIP3    H138380   1.048   2.895   8.238
 5607TIP3    H238381   1.004   3.039   8.225
 5608TIP3   OH238382   3.059   0.838   0.224
 5608TIP3    H138383   2.983   0.874   0.269
 5608TIP3    H238384   3.087   0.906   0.163
 5609TIP3   OH238385   5.977   1.859   0.976
 5609TIP3    H138386   6.054   1.911   1.001
 5609TIP3    H238387   5.977   1.786   1.039
 5610TIP3   OH238388   2.414   1.372   0.016
 5610TIP3    H138389   2.492   1.320   8.602
 5610TIP3    H238390   2.446   1.461   0.028
 5611TIP3   OH238391   0.429   4.457   1.943
 5611TIP3    H138392   0.510   4.420   1.906
 5611TIP3    H238393   0.394   4.388   1.998
 5612TIP3   OH238394   6.238   5.302   1.715
 5612TIP3    H138395   6.245   5.220   1.667
 5612TIP3    H238396   6.246   5.277   1.807
 5613TIP3   OH238397   2.528   1.641   8.347
 5613TIP3    H138398   2.565   1.690   8.273
 5613TIP3    H238399   2.439   1.677   8.357
 5614TIP3   OH238400   3.850   1.362   7.702
 5614TIP3    H138401   3.757   1.369   7.723
 5614TIP3    H238402   3.890   1.326   7.782
 5615TIP3   OH238403   4.613   6.511   7.383
 5615TIP3    H138404   4.591   6.580   7.320
 5615TIP3    H238405   4.538   6.508   7.443
 5616TIP3   OH238406   1.329   4.383   8.407
 5616TIP3    H138407   1.302   4.380   8.498
 5616TIP3    H238408   1.280   4.312   8.365
 5617TIP3   OH238409   0.810   6.878   0.551
 5617TIP3    H138410   0.789   6.805   0.493
 5617TIP3    H238411   0.905   6.872   0.564
 5618TIP3   OH238412   6.099   6.575   6.087
 5618TIP3    H138413   6.055   6.495   6.115
 5618TIP3    H238414   6.099   6.571   5.992
 5619TIP3   OH238415   5.509   2.519   0.524
 5619TIP3    H138416   5.543   2.542   0.611
 5619TIP3    H238417   5.432   2.575   0.513
 5620TIP3   OH238418   3.813   2.500   7.921
 5620TIP3    H138419   3.752   2.429   7.899
 5620TIP3    H238420   3.876   2.459   7.981
 5621TIP3   OH238421   3.825   6.401   0.334
 5621TIP3    H138422   3.868   6.357   0.407
 5621TIP3    H238423   3.873   6.483   0.323
 5622TIP3   OH238424   1.535   0.333   6.983
 5622TIP3    H138425   1.514   0.263   7.044
 5622TIP3    H238426   1.569   0.404   7.038
 5623TIP3   OH238427   1.082   0.878   8.229
 5623TIP3    H138428   0.991   0.884   8.200
 5623TIP3    H238429   1.095   0.785   8.250
 5624TIP3   OH238430   2.093   3.778   1.033
 5624TIP3    H138431   2.042   3.858   1.046
 5624TIP3    H238432   2.028   3.713   1.006
 5625TIP3   OH238433   1.059   0.330   8.239
 5625TIP3    H138434   1.009   0.291   8.311
 5625TIP3    H238435   1.151   0.318   8.265
 5626TIP3   OH238436   1.887   2.854   6.863
 5626TIP3    H138437   1.833   2.780   6.893
 5626TIP3    H238438   1.875   2.856   6.769
 5627TIP3   OH238439   2.265   0.777   1.422
 5627TIP3    H138440   2.202   0.833   1.467
 5627TIP3    H238441   2.282   0.821   1.339
 5628TIP3   OH238442   5.838   6.778   6.146
 5628TIP3    H138443   5.799   6.865   6.155
 5628TIP3    H238444   5.765   6.717   6.160
 5629TIP3   OH238445   4.384   1.618   1.965
 5629TIP3    H138446   4.405   1.533   1.926
 5629TIP3    H238447   4.464   1.644   2.010
 5630TIP3   OH238448   2.177   0.562   7.121
 5630TIP3    H138449   2.083   0.549   7.109
 5630TIP3    H238450   2.187   0.658   7.123
 5631TIP3   OH238451   5.682   1.074   0.547
 5631TIP3    H138452   5.649   1.142   0.488
 5631TIP3    H238453   5.775   1.092   0.556
 5632TIP3   OH238454   1.476   1.077   1.370
 5632TIP3    H138455   1.504   1.133   1.443
 5632TIP3    H238456   1.417   1.013   1.411
 5633TIP3   OH238457   5.895   2.798   8.528
 5633TIP3    H138458   5.940   2.713   8.523
 5633TIP3    H238459   5.818   2.787   8.472
 5634TIP3   OH238460   1.817   0.419   0.591
 5634TIP3    H138461   1.808   0.511   0.617
 5634TIP3    H238462   1.808   0.370   0.672
 5635TIP3   OH238463   4.944   2.670   7.436
 5635TIP3    H138464   4.989   2.731   7.377
 5635TIP3    H238465   4.955   2.709   7.523
 5636TIP3   OH238466   1.908   6.600   1.582
 5636TIP3    H138467   1.939   6.615   1.671
 5636TIP3    H238468   1.980   6.629   1.526
 5637TIP3   OH238469   3.970   0.290   0.189
 5637TIP3    H138470   3.993   0.308   0.098
 5637TIP3    H238471   4.054   0.293   0.236
 5638TIP3   OH238472   5.896   3.422   7.674
 5638TIP3    H138473   5.917   3.329   7.680
 5638TIP3    H238474   5.853   3.432   7.590
 5639TIP3   OH238475   0.618   6.862   0.104
 5639TIP3    H138476   0.602   6.774   0.138
 5639TIP3    H238477   0.648   6.912   0.180
 5640TIP3   OH238478   0.854   5.280   0.882
 5640TIP3    H138479   0.904   5.351   0.841
 5640TIP3    H238480   0.861   5.208   0.820
 5641TIP3   OH238481   4.923   5.113   7.981
 5641TIP3    H138482   4.906   5.028   8.022
 5641TIP3    H238483   4.954   5.092   7.893
 5642TIP3   OH238484   0.112   5.530   8.511
 5642TIP3    H138485   0.048   5.590   8.549
 5642TIP3    H238486   0.116   5.553   8.419
 5643TIP3   OH238487   5.836   6.548   2.513
 5643TIP3    H138488   5.747   6.584   2.504
 5643TIP3    H238489   5.868   6.541   2.423
 5644TIP3   OH238490   6.566   0.427   8.404
 5644TIP3    H138491   6.493   0.394   8.351
 5644TIP3    H238492   6.526   0.489   8.464
 5645TIP3   OH238493   1.580   2.651   7.340
 5645TIP3    H138494   1.596   2.560   7.362
 5645TIP3    H238495   1.502   2.650   7.286
 5646TIP3   OH238496   0.395   4.378   7.518
 5646TIP3    H138497   0.337   4.453   7.529
 5646TIP3    H238498   0.373   4.344   7.431
 5647TIP3   OH238499   6.210   6.481   2.143
 5647TIP3    H138500   6.282   6.505   2.085
 5647TIP3    H238501   6.131   6.507   2.095
 5648TIP3   OH238502   0.682   0.471   0.661
 5648TIP3    H138503   0.718   0.494   0.575
 5648TIP3    H238504   0.700   0.378   0.670
 5649TIP3   OH238505   5.530   0.238   6.529
 5649TIP3    H138506   5.623   0.224   6.513
 5649TIP3    H238507   5.488   0.224   6.444
 5650TIP3   OH238508   2.195   6.693   7.189
 5650TIP3    H138509   2.231   6.768   7.141
 5650TIP3    H238510   2.200   6.719   7.281
 5651TIP3   OH238511   2.859   1.918   7.509
 5651TIP3    H138512   2.889   1.832   7.538
 5651TIP3    H238513   2.830   1.905   7.418
 5652TIP3   OH238514   4.133   4.499   7.393
 5652TIP3    H138515   4.111   4.592   7.399
 5652TIP3    H238516   4.067   4.455   7.447
 5653TIP3   OH238517   4.133   6.152   1.587
 5653TIP3    H138518   4.072   6.207   1.539
 5653TIP3    H238519   4.104   6.063   1.570
 5654TIP3   OH238520   3.041   6.829   8.151
 5654TIP3    H138521   2.996   6.872   8.224
 5654TIP3    H238522   3.066   6.901   8.093
 5655TIP3   OH238523   3.256   5.529   7.993
 5655TIP3    H138524   3.164   5.505   7.987
 5655TIP3    H238525   3.259   5.596   8.061
 5656TIP3   OH238526   3.422   5.307   0.528
 5656TIP3    H138527   3.371   5.290   0.449
 5656TIP3    H238528   3.447   5.220   0.560
 5657TIP3   OH238529   2.836   6.059   7.780
 5657TIP3    H138530   2.776   6.133   7.786
 5657TIP3    H238531   2.800   5.994   7.839
 5658TIP3   OH238532   2.803   0.479   1.021
 5658TIP3    H138533   2.892   0.498   1.050
 5658TIP3    H238534   2.812   0.457   0.929
 5659TIP3   OH238535   3.391   6.551   6.432
 5659TIP3    H138536   3.394   6.647   6.438
 5659TIP3    H238537   3.362   6.534   6.342
 5660TIP3   OH238538   4.629   2.059   1.429
 5660TIP3    H138539   4.715   2.037   1.394
 5660TIP3    H238540   4.579   1.977   1.423
 5661TIP3   OH238541   5.165   5.726   8.371
 5661TIP3    H138542   5.153   5.682   8.455
 5661TIP3    H238543   5.145   5.660   8.305
 5662TIP3   OH238544   2.714   1.304   7.350
 5662TIP3    H138545   2.718   1.280   7.257
 5662TIP3    H238546   2.633   1.264   7.382
 5663TIP3   OH238547   5.310   3.227   7.699
 5663TIP3    H138548   5.307   3.323   7.700
 5663TIP3    H238549   5.311   3.202   7.791
 5664TIP3   OH238550   1.654   2.062   7.721
 5664TIP3    H138551   1.584   2.010   7.760
 5664TIP3    H238552   1.612   2.106   7.647
 5665TIP3   OH238553   2.506   6.017   8.429
 5665TIP3    H138554   2.595   5.999   8.458
 5665TIP3    H238555   2.465   5.930   8.423
 5666TIP3   OH238556   3.417   3.043   0.611
 5666TIP3    H138557   3.501   3.071   0.645
 5666TIP3    H238558   3.438   2.980   0.542
 5667TIP3   OH238559   6.558   4.861   7.077
 5667TIP3    H138560   6.508   4.780   7.069
 5667TIP3    H238561   6.639   4.835   7.120
 5668TIP3   OH238562   2.107   3.758   2.057
 5668TIP3    H138563   2.177   3.704   2.095
 5668TIP3    H238564   2.102   3.834   2.115
 5669TIP3   OH238565   3.553   0.279   6.440
 5669TIP3    H138566   3.526   0.361   6.480
 5669TIP3    H238567   3.540   0.213   6.507
 5670TIP3   OH238568   1.643   0.865   7.352
 5670TIP3    H138569   1.652   0.904   7.265
 5670TIP3    H238570   1.554   0.829   7.353
 5671TIP3   OH238571   3.356   4.099   6.834
 5671TIP3    H138572   3.444   4.094   6.872
 5671TIP3    H238573   3.341   4.192   6.820
 5672TIP3   OH238574   3.927   4.822   8.594
 5672TIP3    H138575   3.952   4.782   8.511
 5672TIP3    H238576   3.834   4.844   8.584
 5673TIP3   OH238577   3.899   1.802   7.504
 5673TIP3    H138578   3.898   1.717   7.549
 5673TIP3    H238579   3.979   1.844   7.534
 5674TIP3   OH238580   0.658   6.665   0.981
 5674TIP3    H138581   0.735   6.652   1.037
 5674TIP3    H238582   0.593   6.604   1.015
 5675TIP3   OH238583   1.571   3.668   8.395
 5675TIP3    H138584   1.617   3.711   8.467
 5675TIP3    H238585   1.610   3.705   8.316
 5676TIP3   OH238586   5.898   1.074   1.691
 5676TIP3    H138587   5.973   1.018   1.672
 5676TIP3    H238588   5.862   1.040   1.773
 5677TIP3   OH238589   3.283   5.067   8.301
 5677TIP3    H138590   3.376   5.085   8.317
 5677TIP3    H238591   3.283   5.011   8.224
 5678TIP3   OH238592   1.370   4.636   1.467
 5678TIP3    H138593   1.414   4.650   1.551
 5678TIP3    H238594   1.361   4.541   1.461
 5679TIP3   OH238595   5.196   5.744   6.633
 5679TIP3    H138596   5.106   5.713   6.641
 5679TIP3    H238597   5.199   5.789   6.549
 5680TIP3   OH238598   4.264   6.471   8.560
 5680TIP3    H138599   4.192   6.408   8.556
 5680TIP3    H238600   4.221   6.555   8.577
 5681TIP3   OH238601   4.207   6.502   8.135
 5681TIP3    H138602   4.274   6.469   8.196
 5681TIP3    H238603   4.211   6.442   8.061
 5682TIP3   OH238604   0.570   5.603   8.416
 5682TIP3    H138605   0.628   5.536   8.451
 5682TIP3    H238606   0.527   5.641   8.492
 5683TIP3   OH238607   0.836   6.704   8.593
 5683TIP3    H138608   0.794   6.627   8.556
 5683TIP3    H238609   0.824   6.695   0.084
 5684TIP3   OH238610   6.646   0.696   0.427
 5684TIP3    H138611   6.681   0.785   0.424
 5684TIP3    H238612   6.551   0.708   0.430
 5685TIP3   OH238613   5.762   0.178   8.246
 5685TIP3    H138614   5.743   0.163   8.339
 5685TIP3    H238615   5.721   0.263   8.227
 5686TIP3   OH238616   4.101   0.838   1.393
 5686TIP3    H138617   4.169   0.833   1.460
 5686TIP3    H238618   4.150   0.845   1.310
 5687TIP3   OH238619   6.754   1.366   0.102
 5687TIP3    H138620   6.720   1.369   0.191
 5687TIP3    H238621   6.838   1.321   0.109
 5688TIP3   OH238622   2.885   2.919   1.658
 5688TIP3    H138623   2.852   2.859   1.591
 5688TIP3    H238624   2.974   2.889   1.676
 5689TIP3   OH238625   0.231   0.913   0.550
 5689TIP3    H138626   0.312   0.942   0.593
 5689TIP3    H238627   0.240   0.818   0.543
 5690TIP3   OH238628   4.900   0.058   1.442
 5690TIP3    H138629   4.828   0.023   1.390
 5690TIP3    H238630   4.926   6.898   1.499
 5691TIP3   OH238631   5.715   3.868   0.874
 5691TIP3    H138632   5.639   3.868   0.816
 5691TIP3    H238633   5.685   3.825   0.953
 5692TIP3   OH238634   5.159   3.063   0.854
 5692TIP3    H138635   5.125   3.142   0.896
 5692TIP3    H238636   5.124   2.991   0.907
 5693TIP3   OH238637   5.789   6.152   2.150
 5693TIP3    H138638   5.772   6.224   2.210
 5693TIP3    H238639   5.868   6.178   2.102
 5694TIP3   OH238640   2.259   6.574   1.606
 5694TIP3    H138641   2.335   6.578   1.664
 5694TIP3    H238642   2.199   6.641   1.640
 5695TIP3   OH238643   4.680   0.909   0.209
 5695TIP3    H138644   4.713   0.897   0.299
 5695TIP3    H238645   4.647   0.999   0.208
 5696TIP3   OH238646   1.801   2.116   0.019
 5696TIP3    H138647   1.795   2.161   8.538
 5696TIP3    H238648   1.891   2.082   0.022
 5697TIP3   OH238649   5.330   6.741   1.465
 5697TIP3    H138650   5.421   6.768   1.470
 5697TIP3    H238651   5.329   6.668   1.403
 5698TIP3   OH238652   2.098   4.130   1.245
 5698TIP3    H138653   2.156   4.107   1.318
 5698TIP3    H238654   2.010   4.131   1.284
 5699TIP3   OH238655   0.937   1.159   0.203
 5699TIP3    H138656   0.927   1.168   0.108
 5699TIP3    H238657   0.848   1.164   0.237
 5700TIP3   OH238658   3.958   6.516   7.519
 5700TIP3    H138659   4.041   6.549   7.483
 5700TIP3    H238660   3.973   6.422   7.529
 5701TIP3   OH238661   1.894   6.753   1.844
 5701TIP3    H138662   1.917   6.842   1.820
 5701TIP3    H238663   1.828   6.727   1.780
 5702TIP3   OH238664   1.405   2.804   0.784
 5702TIP3    H138665   1.317   2.771   0.764
 5702TIP3    H238666   1.420   2.871   0.717
 5703TIP3   OH238667   5.318   1.727   1.046
 5703TIP3    H138668   5.323   1.820   1.067
 5703TIP3    H238669   5.253   1.692   1.107
 5704TIP3   OH238670   6.055   5.635   7.192
 5704TIP3    H138671   6.100   5.645   7.108
 5704TIP3    H238672   5.984   5.699   7.190
 5705TIP3   OH238673   1.457   0.910   0.904
 5705TIP3    H138674   1.378   0.855   0.906
 5705TIP3    H238675   1.438   0.977   0.839
 5706TIP3   OH238676   0.376   2.934   7.579
 5706TIP3    H138677   0.406   2.893   7.498
 5706TIP3    H238678   0.296   2.981   7.555
 5707TIP3   OH238679   4.886   5.291   6.874
 5707TIP3    H138680   4.871   5.287   6.780
 5707TIP3    H238681   4.964   5.238   6.888
 5708TIP3   OH238682   1.422   3.450   6.066
 5708TIP3    H138683   1.368   3.438   6.145
 5708TIP3    H238684   1.369   3.506   6.010
 5709TIP3   OH238685   4.175   0.576   8.176
 5709TIP3    H138686   4.111   0.529   8.122
 5709TIP3    H238687   4.260   0.548   8.144
 5710TIP3   OH238688   2.194   3.258   0.088
 5710TIP3    H138689   2.248   3.192   0.046
 5710TIP3    H238690   2.148   3.210   0.157
 5711TIP3   OH238691   2.257   5.974   7.112
 5711TIP3    H138692   2.329   5.914   7.095
 5711TIP3    H238693   2.298   6.059   7.122
 5712TIP3   OH238694   6.644   3.438   7.209
 5712TIP3    H138695   6.585   3.509   7.183
 5712TIP3    H238696   6.632   3.430   7.303
 5713TIP3   OH238697   1.205   2.367   8.240
 5713TIP3    H138698   1.207   2.283   8.285
 5713TIP3    H238699   1.114   2.395   8.247
 5714TIP3   OH238700   4.653   4.226   1.617
 5714TIP3    H138701   4.619   4.304   1.662
 5714TIP3    H238702   4.735   4.207   1.662
 5715TIP3   OH238703   5.864   6.814   0.533
 5715TIP3    H138704   5.954   6.817   0.564
 5715TIP3    H238705   5.852   6.724   0.501
 5716TIP3   OH238706   5.065   6.271   1.275
 5716TIP3    H138707   5.141   6.288   1.331
 5716TIP3    H238708   4.990   6.293   1.330
 5717TIP3   OH238709   4.534   1.761   8.325
 5717TIP3    H138710   4.482   1.783   8.247
 5717TIP3    H238711   4.621   1.797   8.306
 5718TIP3   OH238712   2.407   0.942   8.322
 5718TIP3    H138713   2.347   0.876   8.288
 5718TIP3    H238714   2.373   1.025   8.290
 5719TIP3   OH238715   0.963   5.074   7.675
 5719TIP3    H138716   0.899   5.116   7.733
 5719TIP3    H238717   1.044   5.073   7.726
 5720TIP3   OH238718   6.332   5.129   6.457
 5720TIP3    H138719   6.245   5.089   6.465
 5720TIP3    H238720   6.315   5.223   6.458
 5721TIP3   OH238721   5.003   1.804   7.001
 5721TIP3    H138722   5.043   1.718   7.016
 5721TIP3    H238723   4.975   1.833   7.088
 5722TIP3   OH238724   6.085   1.939   1.535
 5722TIP3    H138725   6.047   1.977   1.456
 5722TIP3    H238726   6.093   2.012   1.596
 5723TIP3   OH238727   4.029   6.792   2.648
 5723TIP3    H138728   4.047   6.835   2.564
 5723TIP3    H238729   3.945   6.828   2.676
 5724TIP3   OH238730   0.181   3.809   8.084
 5724TIP3    H138731   0.168   3.753   8.161
 5724TIP3    H238732   0.178   3.749   8.010
 5725TIP3   OH238733   1.243   0.978   7.711
 5725TIP3    H138734   1.171   0.949   7.766
 5725TIP3    H238735   1.233   0.928   7.630
 5726TIP3   OH238736   3.481   1.509   2.135
 5726TIP3    H138737   3.540   1.571   2.178
 5726TIP3    H238738   3.535   1.432   2.119
 5727TIP3   OH238739   5.310   4.762   0.848
 5727TIP3    H138740   5.400   4.752   0.816
 5727TIP3    H238741   5.317   4.824   0.920
 5728TIP3   OH238742   0.396   6.041   0.909
 5728TIP3    H138743   0.382   5.948   0.890
 5728TIP3    H238744   0.490   6.054   0.898
 5729TIP3   OH238745   3.207   1.121   6.994
 5729TIP3    H138746   3.145   1.112   6.922
 5729TIP3    H238747   3.273   1.182   6.962
 5730TIP3   OH238748   4.734   3.464   7.794
 5730TIP3    H138749   4.800   3.463   7.724
 5730TIP3    H238750   4.720   3.557   7.812
 5731TIP3   OH238751   4.541   0.290   7.505
 5731TIP3    H138752   4.607   0.228   7.476
 5731TIP3    H238753   4.460   0.259   7.466
 5732TIP3   OH238754   6.840   5.322   1.389
 5732TIP3    H138755   6.796   5.396   1.432
 5732TIP3    H238756   6.827   5.249   1.450
 5733TIP3   OH238757   5.418   6.344   2.391
 5733TIP3    H138758   5.432   6.427   2.436
 5733TIP3    H238759   5.343   6.361   2.333
 5734TIP3   OH238760   3.613   6.061   0.766
 5734TIP3    H138761   3.678   6.126   0.738
 5734TIP3    H238762   3.531   6.090   0.724
 5735TIP3   OH238763   1.509   2.342   6.352
 5735TIP3    H138764   1.590   2.324   6.305
 5735TIP3    H238765   1.460   2.259   6.349
 5736TIP3   OH238766   6.498   2.152   7.329
 5736TIP3    H138767   6.530   2.108   7.250
 5736TIP3    H238768   6.403   2.149   7.321
 5737TIP3   OH238769   4.602   3.457   0.947
 5737TIP3    H138770   4.605   3.531   0.887
 5737TIP3    H238771   4.646   3.489   1.026
 5738TIP3   OH238772   0.559   0.189   0.243
 5738TIP3    H138773   0.506   0.164   0.319
 5738TIP3    H238774   0.645   0.209   0.279
 5739TIP3   OH238775   1.641   1.901   0.071
 5739TIP3    H138776   1.557   1.940   0.047
 5739TIP3    H238777   1.705   1.970   0.054
 5740TIP3   OH238778   2.339   0.031   7.849
 5740TIP3    H138779   2.322   0.042   7.943
 5740TIP3    H238780   2.290   0.102   7.808
 5741TIP3   OH238781   5.070   4.314   8.437
 5741TIP3    H138782   5.071   4.219   8.443
 5741TIP3    H238783   5.033   4.333   8.351
 5742TIP3   OH238784   1.304   2.659   8.164
 5742TIP3    H138785   1.215   2.659   8.128
 5742TIP3    H238786   1.360   2.679   8.089
 5743TIP3   OH238787   1.110   0.800   0.351
 5743TIP3    H138788   1.115   0.880   0.404
 5743TIP3    H238789   1.194   0.757   0.365
 5744TIP3   OH238790   5.956   4.807   0.219
 5744TIP3    H138791   5.949   4.845   0.131
 5744TIP3    H238792   5.984   4.880   0.275
 5745TIP3   OH238793   0.809   4.644   8.054
 5745TIP3    H138794   0.781   4.729   8.020
 5745TIP3    H238795   0.729   4.605   8.090
 5746TIP3   OH238796   4.047   4.083   7.884
 5746TIP3    H138797   4.053   4.118   7.973
 5746TIP3    H238798   4.121   4.023   7.877
 5747TIP3   OH238799   0.336   3.220   8.600
 5747TIP3    H138800   0.333   3.131   0.030
 5747TIP3    H238801   0.244   3.247   8.597
 5748TIP3   OH238802   5.253   0.540   8.316
 5748TIP3    H138803   5.192   0.560   8.386
 5748TIP3    H238804   5.336   0.579   8.343
 5749TIP3   OH238805   5.407   0.548   2.281
 5749TIP3    H138806   5.464   0.594   2.342
 5749TIP3    H238807   5.335   0.515   2.336
 5750TIP3   OH238808   2.054   3.709   7.275
 5750TIP3    H138809   2.036   3.798   7.244
 5750TIP3    H238810   2.061   3.656   7.196
 5751TIP3   OH238811   2.523   0.295   0.703
 5751TIP3    H138812   2.431   0.268   0.702
 5751TIP3    H238813   2.523   0.383   0.666
 5752TIP3   OH238814   5.639   4.783   8.571
 5752TIP3    H138815   5.692   4.743   8.502
 5752TIP3    H238816   5.606   4.709   0.018
 5753TIP3   OH238817   3.483   0.901   1.043
 5753TIP3    H138818   3.525   0.946   0.970
 5753TIP3    H238819   3.529   0.817   1.048
 5754TIP3   OH238820   4.666   0.043   6.259
 5754TIP3    H138821   4.594   0.009   6.205
 5754TIP3    H238822   4.745   0.010   6.216
 5755TIP3   OH238823   3.985   5.331   0.609
 5755TIP3    H138824   4.001   5.412   0.561
 5755TIP3    H238825   4.001   5.261   0.546
 5756TIP3   OH238826   3.467   2.783   7.286
 5756TIP3    H138827   3.537   2.798   7.222
 5756TIP3    H238828   3.512   2.756   7.366
 5757TIP3   OH238829   6.375   0.992   1.673
 5757TIP3    H138830   6.426   1.011   1.594
 5757TIP3    H238831   6.440   0.975   1.741
 5758TIP3   OH238832   1.143   0.501   1.573
 5758TIP3    H138833   1.114   0.544   1.653
 5758TIP3    H238834   1.181   0.418   1.603
 5759TIP3   OH238835   5.411   2.383   0.242
 5759TIP3    H138836   5.401   2.367   0.336
 5759TIP3    H238837   5.505   2.393   0.228
 5760TIP3   OH238838   6.902   4.794   0.559
 5760TIP3    H138839   0.062   4.765   0.504
 5760TIP3    H238840   6.843   4.718   0.562
 5761TIP3   OH238841   3.431   0.284   7.236
 5761TIP3    H138842   3.449   0.207   7.183
 5761TIP3    H238843   3.516   0.327   7.247
 5762TIP3   OH238844   0.240   6.083   1.417
 5762TIP3    H138845   0.318   6.103   1.366
 5762TIP3    H238846   0.212   6.168   1.452
 5763TIP3   OH238847   3.483   4.783   6.631
 5763TIP3    H138848   3.553   4.849   6.636
 5763TIP3    H238849   3.481   4.757   6.539
 5764TIP3   OH238850   1.032   6.314   0.377
 5764TIP3    H138851   1.095   6.294   0.446
 5764TIP3    H238852   1.009   6.228   0.340
 5765TIP3   OH238853   4.416   1.406   8.221
 5765TIP3    H138854   4.431   1.315   8.246
 5765TIP3    H238855   4.478   1.422   8.150
 5766TIP3   OH238856   4.151   0.038   1.866
 5766TIP3    H138857   4.088   0.066   1.800
 5766TIP3    H238858   4.129   6.858   1.883
 5767TIP3   OH238859   1.129   6.262   0.619
 5767TIP3    H138860   1.200   6.247   0.681
 5767TIP3    H238861   1.090   6.175   0.607
 5768TIP3   OH238862   4.933   4.281   1.754
 5768TIP3    H138863   4.992   4.351   1.781
 5768TIP3    H238864   4.981   4.200   1.774
 5769TIP3   OH238865   6.763   1.135   7.074
 5769TIP3    H138866   6.811   1.154   6.994
 5769TIP3    H238867   6.711   1.057   7.053
 5770TIP3   OH238868   2.982   6.325   1.106
 5770TIP3    H138869   3.058   6.287   1.062
 5770TIP3    H238870   3.004   6.321   1.199
 5771TIP3   OH238871   1.026   2.461   0.175
 5771TIP3    H138872   0.983   2.540   0.208
 5771TIP3    H238873   0.956   2.397   0.168
 5772TIP3   OH238874   4.779   0.750   0.726
 5772TIP3    H138875   4.765   0.702   0.645
 5772TIP3    H238876   4.725   0.705   0.791
 5773TIP3   OH238877   5.614   3.495   1.524
 5773TIP3    H138878   5.527   3.527   1.546
 5773TIP3    H238879   5.670   3.572   1.524
 5774TIP3   OH238880   6.333   4.790   1.752
 5774TIP3    H138881   6.276   4.789   1.829
 5774TIP3    H238882   6.419   4.812   1.786
 5775TIP3   OH238883   0.731   0.973   7.962
 5775TIP3    H138884   0.727   0.880   7.987
 5775TIP3    H238885   0.641   0.995   7.937
 5776TIP3   OH238886   5.992   3.373   8.010
 5776TIP3    H138887   6.061   3.351   7.947
 5776TIP3    H238888   5.969   3.290   8.050
 5777TIP3   OH238889   0.763   4.767   7.256
 5777TIP3    H138890   0.789   4.684   7.215
 5777TIP3    H238891   0.820   4.833   7.216
 5778TIP3   OH238892   6.239   1.873   7.011
 5778TIP3    H138893   6.223   1.871   6.916
 5778TIP3    H238894   6.328   1.907   7.020
 5779TIP3   OH238895   1.897   3.295   7.058
 5779TIP3    H138896   1.831   3.244   7.104
 5779TIP3    H238897   1.918   3.244   6.981
 5780TIP3   OH238898   4.890   6.844   2.150
 5780TIP3    H138899   4.938   0.015   2.154
 5780TIP3    H238900   4.917   6.798   2.230
 5781TIP3   OH238901   4.931   1.138   1.443
 5781TIP3    H138902   4.905   1.069   1.504
 5781TIP3    H238903   4.913   1.219   1.490
 5782TIP3   OH238904   6.597   5.568   0.617
 5782TIP3    H138905   6.687   5.601   0.610
 5782TIP3    H238906   6.606   5.473   0.625
 5783TIP3   OH238907   6.372   5.210   8.323
 5783TIP3    H138908   6.433   5.142   8.294
 5783TIP3    H238909   6.286   5.170   8.315
 5784TIP3   OH238910   0.598   5.599   7.375
 5784TIP3    H138911   0.693   5.590   7.379
 5784TIP3    H238912   0.565   5.526   7.427
 5785TIP3   OH238913   2.483   3.277   1.620
 5785TIP3    H138914   2.532   3.317   1.692
 5785TIP3    H238915   2.524   3.190   1.609
 5786TIP3   OH238916   1.275   0.261   1.607
 5786TIP3    H138917   1.212   0.206   1.654
 5786TIP3    H238918   1.316   0.202   1.544
 5787TIP3   OH238919   6.616   1.580   2.441
 5787TIP3    H138920   6.560   1.510   2.409
 5787TIP3    H238921   6.563   1.659   2.435
 5788TIP3   OH238922   1.939   6.808   7.845
 5788TIP3    H138923   1.914   6.722   7.813
 5788TIP3    H238924   1.911   6.808   7.937
 5789TIP3   OH238925   6.460   1.617   0.393
 5789TIP3    H138926   6.401   1.689   0.375
 5789TIP3    H238927   6.524   1.653   0.455
 5790TIP3   OH238928   2.320   6.175   0.797
 5790TIP3    H138929   2.239   6.179   0.746
 5790TIP3    H238930   2.304   6.232   0.873
 5791TIP3   OH238931   6.011   5.771   0.331
 5791TIP3    H138932   6.038   5.858   0.303
 5791TIP3    H238933   5.977   5.783   0.419
 5792TIP3   OH238934   5.921   6.140   7.015
 5792TIP3    H138935   5.861   6.204   7.053
 5792TIP3    H238936   5.880   6.114   6.933
 5793TIP3   OH238937   3.790   0.493   1.935
 5793TIP3    H138938   3.770   0.553   1.863
 5793TIP3    H238939   3.717   0.502   1.995
 5794TIP3   OH238940   0.369   5.187   7.584
 5794TIP3    H138941   0.413   5.112   7.624
 5794TIP3    H238942   0.401   5.263   7.632
 5795TIP3   OH238943   1.319   5.797   1.631
 5795TIP3    H138944   1.255   5.765   1.695
 5795TIP3    H238945   1.275   5.790   1.547
 5796TIP3   OH238946   2.383   3.644   0.649
 5796TIP3    H138947   2.443   3.678   0.716
 5796TIP3    H238948   2.416   3.556   0.631
 5797TIP3   OH238949   1.565   4.412   6.870
 5797TIP3    H138950   1.619   4.410   6.949
 5797TIP3    H238951   1.573   4.502   6.838
 5798TIP3   OH238952   1.079   2.342   7.950
 5798TIP3    H138953   1.147   2.367   7.888
 5798TIP3    H238954   1.096   2.395   8.028
 5799TIP3   OH238955   6.695   4.988   7.525
 5799TIP3    H138956   6.640   4.926   7.573
 5799TIP3    H238957   6.667   5.074   7.556
 5800TIP3   OH238958   5.304   5.368   2.167
 5800TIP3    H138959   5.258   5.422   2.232
 5800TIP3    H238960   5.251   5.289   2.159
 5801TIP3   OH238961   3.992   2.878   7.329
 5801TIP3    H138962   4.029   2.949   7.381
 5801TIP3    H238963   3.958   2.921   7.251
 5802TIP3   OH238964   2.238   2.084   7.908
 5802TIP3    H138965   2.268   2.006   7.954
 5802TIP3    H238966   2.178   2.050   7.841
 5803TIP3   OH238967   2.563   6.156   0.674
 5803TIP3    H138968   2.539   6.249   0.679
 5803TIP3    H238969   2.501   6.112   0.732
 5804TIP3   OH238970   1.448   1.998   8.045
 5804TIP3    H138971   1.374   2.012   8.104
 5804TIP3    H238972   1.428   2.051   7.968
 5805TIP3   OH238973   1.664   1.235   1.577
 5805TIP3    H138974   1.575   1.268   1.562
 5805TIP3    H238975   1.695   1.285   1.652
 5806TIP3   OH238976   2.477   6.045   1.406
 5806TIP3    H138977   2.449   6.111   1.470
 5806TIP3    H238978   2.565   6.020   1.435
 5807TIP3   OH238979   6.160   6.489   8.138
 5807TIP3    H138980   6.223   6.429   8.098
 5807TIP3    H238981   6.212   6.565   8.163
 5808TIP3   OH238982   1.227   4.261   7.757
 5808TIP3    H138983   1.265   4.336   7.804
 5808TIP3    H238984   1.152   4.234   7.811
 5809TIP3   OH238985   2.619   0.877   0.404
 5809TIP3    H138986   2.540   0.896   0.352
 5809TIP3    H238987   2.589   0.881   0.495
 5810TIP3   OH238988   2.215   1.334   6.997
 5810TIP3    H138989   2.289   1.285   7.032
 5810TIP3    H238990   2.226   1.423   7.031
 5811TIP3   OH238991   3.970   5.649   2.356
 5811TIP3    H138992   3.979   5.560   2.389
 5811TIP3    H238993   4.048   5.694   2.387
 5812TIP3   OH238994   3.271   1.463   1.305
 5812TIP3    H138995   3.220   1.423   1.234
 5812TIP3    H238996   3.273   1.556   1.282
 5813TIP3   OH238997   2.853   5.783   1.686
 5813TIP3    H138998   2.847   5.693   1.657
 5813TIP3    H238999   2.828   5.780   1.779
 5814TIP3   OH239000   1.658   4.404   7.435
 5814TIP3    H139001   1.570   4.392   7.470
 5814TIP3    H239002   1.695   4.477   7.483
 5815TIP3   OH239003   5.058   6.342   6.739
 5815TIP3    H139004   4.965   6.318   6.744
 5815TIP3    H239005   5.087   6.307   6.654
 5816TIP3   OH239006   5.510   1.706   2.069
 5816TIP3    H139007   5.594   1.687   2.111
 5816TIP3    H239008   5.469   1.770   2.127
 5817TIP3   OH239009   6.782   2.406   6.252
 5817TIP3    H139010   6.791   2.322   6.207
 5817TIP3    H239011   6.840   2.398   6.328
 5818TIP3   OH239012   4.981   3.143   0.316
 5818TIP3    H139013   5.024   3.218   0.356
 5818TIP3    H239014   4.888   3.166   0.317
 5819TIP3   OH239015   5.569   2.530   8.173
 5819TIP3    H139016   5.580   2.442   8.137
 5819TIP3    H239017   5.480   2.554   8.148
 5820TIP3   OH239018   5.855   1.884   0.339
 5820TIP3    H139019   5.919   1.948   0.369
 5820TIP3    H239020   5.770   1.925   0.356
 5821TIP3   OH239021   1.500   4.059   0.442
 5821TIP3    H139022   1.464   4.086   0.526
 5821TIP3    H239023   1.424   4.055   0.383
 5822TIP3   OH239024   5.841   1.883   2.036
 5822TIP3    H139025   5.807   1.821   2.101
 5822TIP3    H239026   5.905   1.935   2.084
 5823TIP3   OH239027   4.738   2.390   0.805
 5823TIP3    H139028   4.653   2.378   0.764
 5823TIP3    H239029   4.798   2.338   0.752
 5824TIP3   OH239030   3.690   4.275   2.530
 5824TIP3    H139031   3.702   4.186   2.497
 5824TIP3    H239032   3.773   4.295   2.575
 5825TIP3   OH239033   2.343   1.896   8.079
 5825TIP3    H139034   2.421   1.841   8.080
 5825TIP3    H239035   2.370   1.976   8.124
 5826TIP3   OH239036   5.937   2.582   2.016
 5826TIP3    H139037   6.015   2.542   2.054
 5826TIP3    H239038   5.966   2.614   1.931
 5827TIP3   OH239039   4.612   1.833   7.258
 5827TIP3    H139040   4.707   1.839   7.252
 5827TIP3    H239041   4.592   1.854   7.349
 5828TIP3   OH239042   3.454   5.747   6.046
 5828TIP3    H139043   3.376   5.748   5.990
 5828TIP3    H239044   3.526   5.724   5.987
 5829TIP3   OH239045   5.596   5.448   8.265
 5829TIP3    H139046   5.586   5.449   8.360
 5829TIP3    H239047   5.553   5.529   8.236
 5830TIP3   OH239048   1.673   3.748   0.038
 5830TIP3    H139049   1.756   3.711   0.007
 5830TIP3    H239050   1.691   3.776   0.127
 5831TIP3   OH239051   5.817   5.586   0.961
 5831TIP3    H139052   5.873   5.511   0.980
 5831TIP3    H239053   5.728   5.550   0.963
 5832TIP3   OH239054   6.133   4.878   2.594
 5832TIP3    H139055   6.099   4.811   2.535
 5832TIP3    H239056   6.199   4.925   2.542
 5833TIP3   OH239057   4.304   6.809   1.377
 5833TIP3    H139058   4.244   6.843   1.444
 5833TIP3    H239059   4.303   6.714   1.391
 5834TIP3   OH239060   4.743   1.787   0.601
 5834TIP3    H139061   4.703   1.806   0.686
 5834TIP3    H239062   4.837   1.802   0.615
 5835TIP3   OH239063   5.882   1.577   1.870
 5835TIP3    H139064   5.919   1.491   1.848
 5835TIP3    H239065   5.905   1.590   1.962
 5836TIP3   OH239066   6.801   2.115   0.956
 5836TIP3    H139067   6.721   2.153   0.920
 5836TIP3    H239068   6.872   2.159   0.908
 5837TIP3   OH239069   3.394   0.936   6.506
 5837TIP3    H139070   3.458   0.866   6.522
 5837TIP3    H239071   3.426   0.980   6.427
 5838TIP3   OH239072   1.693   0.295   8.290
 5838TIP3    H139073   1.685   0.201   8.304
 5838TIP3    H239074   1.783   0.316   8.314
 5839TIP3   OH239075   5.056   5.969   2.088
 5839TIP3    H139076   5.148   5.947   2.071
 5839TIP3    H239077   5.033   5.917   2.165
 5840TIP3   OH239078   5.764   1.042   6.845
 5840TIP3    H139079   5.746   1.095   6.768
 5840TIP3    H239080   5.683   0.992   6.859
 5841TIP3   OH239081   1.800   3.278   1.199
 5841TIP3    H139082   1.861   3.253   1.130
 5841TIP3    H239083   1.716   3.290   1.154
 5842TIP3   OH239084   5.473   0.383   6.779
 5842TIP3    H139085   5.456   0.325   6.704
 5842TIP3    H239086   5.476   0.471   6.741
 5843TIP3   OH239087   1.427   6.372   2.088
 5843TIP3    H139088   1.452   6.299   2.145
 5843TIP3    H239089   1.498   6.435   2.099
 5844TIP3   OH239090   5.894   5.096   1.622
 5844TIP3    H139091   5.945   5.055   1.692
 5844TIP3    H239092   5.803   5.093   1.654
 5845TIP3   OH239093   4.716   4.346   2.026
 5845TIP3    H139094   4.628   4.315   2.005
 5845TIP3    H239095   4.767   4.265   2.036
 5846TIP3   OH239096   6.370   4.242   7.004
 5846TIP3    H139097   6.361   4.281   6.917
 5846TIP3    H239098   6.290   4.190   7.014
 5847TIP3   OH239099   1.156   5.109   0.079
 5847TIP3    H139100   1.221   5.102   0.149
 5847TIP3    H239101   1.073   5.090   0.122
 5848TIP3   OH239102   3.811   5.227   7.499
 5848TIP3    H139103   3.853   5.308   7.531
 5848TIP3    H239104   3.774   5.251   7.414
 5849TIP3   OH239105   2.075   6.895   7.403
 5849TIP3    H139106   2.149   0.041   7.386
 5849TIP3    H239107   2.092   6.859   7.490
 5850TIP3   OH239108   2.663   6.789   1.756
 5850TIP3    H139109   2.662   6.765   1.848
 5850TIP3    H239110   2.724   6.863   1.750
 5851TIP3   OH239111   0.877   0.539   0.849
 5851TIP3    H139112   0.824   0.484   0.907
 5851TIP3    H239113   0.821   0.555   0.773
 5852TIP3   OH239114   3.151   0.892   7.170
 5852TIP3    H139115   3.174   0.891   7.077
 5852TIP3    H239116   3.181   0.978   7.201
 5853TIP3   OH239117   3.023   5.171   7.652
 5853TIP3    H139118   3.006   5.154   7.559
 5853TIP3    H239119   2.938   5.157   7.694
 5854TIP3   OH239120   2.625   3.081   0.977
 5854TIP3    H139121   2.631   3.118   1.065
 5854TIP3    H239122   2.586   2.994   0.991
 5855TIP3   OH239123   4.554   3.161   0.943
 5855TIP3    H139124   4.479   3.155   1.003
 5855TIP3    H239125   4.590   3.248   0.959
 5856TIP3   OH239126   0.115   1.182   7.628
 5856TIP3    H139127   0.078   1.269   7.639
 5856TIP3    H239128   0.048   1.123   7.663
 5857TIP3   OH239129   2.981   2.456   8.168
 5857TIP3    H139130   2.939   2.503   8.096
 5857TIP3    H239131   3.035   2.390   8.125
 5858TIP3   OH239132   5.884   2.432   1.627
 5858TIP3    H139133   5.884   2.408   1.720
 5858TIP3    H239134   5.847   2.356   1.583
 5859TIP3   OH239135   3.952   5.775   0.900
 5859TIP3    H139136   4.013   5.754   0.971
 5859TIP3    H239137   4.007   5.793   0.824
 5860TIP3   OH239138   2.112   5.354   7.203
 5860TIP3    H139139   2.053   5.403   7.260
 5860TIP3    H239140   2.056   5.289   7.160
 5861TIP3   OH239141   3.071   4.480   1.973
 5861TIP3    H139142   2.982   4.515   1.968
 5861TIP3    H239143   3.059   4.387   1.991
 5862TIP3   OH239144   2.219   2.561   7.660
 5862TIP3    H139145   2.239   2.633   7.719
 5862TIP3    H239146   2.256   2.588   7.576
 5863TIP3   OH239147   2.665   5.691   7.492
 5863TIP3    H139148   2.643   5.627   7.424
 5863TIP3    H239149   2.683   5.639   7.570
 5864TIP3   OH239150   4.753   4.306   0.003
 5864TIP3    H139151   4.681   4.368   8.598
 5864TIP3    H239152   4.711   4.220   0.002
 5865TIP3   OH239153   0.457   5.561   0.936
 5865TIP3    H139154   0.481   5.635   0.993
 5865TIP3    H239155   0.387   5.517   0.983
 5866TIP3   OH239156   3.089   1.767   6.273
 5866TIP3    H139157   3.055   1.677   6.277
 5866TIP3    H239158   3.041   1.813   6.342
 5867TIP3   OH239159   0.861   3.273   0.854
 5867TIP3    H139160   0.901   3.214   0.791
 5867TIP3    H239161   0.928   3.339   0.871
 5868TIP3   OH239162   0.185   2.549   0.923
 5868TIP3    H139163   0.279   2.567   0.927
 5868TIP3    H239164   0.143   2.629   0.953
 5869TIP3   OH239165   4.696   1.191   2.387
 5869TIP3    H139166   4.761   1.261   2.378
 5869TIP3    H239167   4.652   1.210   2.470
 5870TIP3   OH239168   1.422   2.234   2.119
 5870TIP3    H139169   1.384   2.282   2.046
 5870TIP3    H239170   1.351   2.176   2.148
 5871TIP3   OH239171   1.373   0.792   1.442
 5871TIP3    H139172   1.306   0.729   1.417
 5871TIP3    H239173   1.359   0.808   1.535
 5872TIP3   OH239174   4.742   0.528   5.889
 5872TIP3    H139175   4.769   0.533   5.981
 5872TIP3    H239176   4.690   0.448   5.883
 5873TIP3   OH239177   1.585   0.886   1.200
 5873TIP3    H139178   1.512   0.827   1.180
 5873TIP3    H239179   1.548   0.949   1.262
 5874TIP3   OH239180   4.002   1.375   1.104
 5874TIP3    H139181   3.999   1.465   1.071
 5874TIP3    H239182   4.049   1.326   1.037
 5875TIP3   OH239183   4.450   0.551   2.031
 5875TIP3    H139184   4.472   0.576   2.121
 5875TIP3    H239185   4.531   0.514   1.996
 5876TIP3   OH239186   5.930   3.745   6.868
 5876TIP3    H139187   5.838   3.735   6.892
 5876TIP3    H239188   5.943   3.684   6.796
 5877TIP3   OH239189   1.660   4.404   0.069
 5877TIP3    H139190   1.735   4.355   0.104
 5877TIP3    H239191   1.670   4.492   0.105
 5878TIP3   OH239192   3.831   0.022   0.201
 5878TIP3    H139193   3.893   0.094   0.214
 5878TIP3    H239194   3.763   0.037   0.267
 5879TIP3   OH239195   4.857   3.471   0.213
 5879TIP3    H139196   4.815   3.557   0.207
 5879TIP3    H239197   4.950   3.491   0.222
 5880TIP3   OH239198   6.777   6.227   6.460
 5880TIP3    H139199   6.755   6.134   6.447
 5880TIP3    H239200   6.868   6.225   6.490
 5881TIP3   OH239201   6.623   2.878   1.678
 5881TIP3    H139202   6.675   2.803   1.652
 5881TIP3    H239203   6.658   2.903   1.764
 5882TIP3   OH239204   5.182   1.367   7.772
 5882TIP3    H139205   5.103   1.375   7.719
 5882TIP3    H239206   5.231   1.447   7.754
 5883TIP3   OH239207   6.310   0.308   0.386
 5883TIP3    H139208   6.317   0.212   0.391
 5883TIP3    H239209   6.400   0.339   0.398
 5884TIP3   OH239210   1.692   0.943   8.488
 5884TIP3    H139211   1.621   0.976   8.433
 5884TIP3    H239212   1.772   0.973   8.443
 5885TIP3   OH239213   5.613   5.776   6.832
 5885TIP3    H139214   5.609   5.705   6.768
 5885TIP3    H239215   5.688   5.753   6.888
 5886TIP3   OH239216   3.651   0.746   0.631
 5886TIP3    H139217   3.713   0.715   0.697
 5886TIP3    H239218   3.634   0.669   0.576
 5887TIP3   OH239219   1.011   6.598   7.455
 5887TIP3    H139220   1.025   6.616   7.362
 5887TIP3    H239221   0.987   6.683   7.492
 5888TIP3   OH239222   4.729   3.501   1.166
 5888TIP3    H139223   4.739   3.585   1.211
 5888TIP3    H239224   4.811   3.455   1.182
 5889TIP3   OH239225   1.061   3.223   8.264
 5889TIP3    H139226   0.987   3.280   8.243
 5889TIP3    H239227   1.112   3.273   8.327
 5890TIP3   OH239228   2.005   0.584   8.135
 5890TIP3    H139229   2.003   0.558   8.042
 5890TIP3    H239230   1.914   0.583   8.162
 5891TIP3   OH239231   2.097   4.949   0.520
 5891TIP3    H139232   2.159   4.894   0.568
 5891TIP3    H239233   2.011   4.919   0.550
 5892TIP3   OH239234   2.531   0.705   7.717
 5892TIP3    H139235   2.492   0.775   7.665
 5892TIP3    H239236   2.501   0.624   7.675
 5893TIP3   OH239237   2.355   1.490   0.311
 5893TIP3    H139238   2.447   1.487   0.336
 5893TIP3    H239239   2.355   1.527   0.222
 5894TIP3   OH239240   1.472   6.524   0.164
 5894TIP3    H139241   1.508   6.443   0.127
 5894TIP3    H239242   1.534   6.592   0.137
 5895TIP3   OH239243   2.847   5.413   0.750
 5895TIP3    H139244   2.776   5.393   0.811
 5895TIP3    H239245   2.927   5.398   0.801
 5896TIP3   OH239246   0.865   4.539   7.073
 5896TIP3    H139247   0.811   4.465   7.099
 5896TIP3    H239248   0.851   4.548   6.979
 5897TIP3   OH239249   1.491   0.499   0.621
 5897TIP3    H139250   1.535   0.445   0.687
 5897TIP3    H239251   1.398   0.479   0.632
 5898TIP3   OH239252   1.010   6.434   0.135
 5898TIP3    H139253   1.036   6.392   0.218
 5898TIP3    H239254   1.079   6.499   0.119
 5899TIP3   OH239255   5.060   4.998   1.079
 5899TIP3    H139256   5.019   5.075   1.119
 5899TIP3    H239257   5.154   5.010   1.094
 5900TIP3   OH239258   5.937   0.645   8.417
 5900TIP3    H139259   5.922   0.560   8.459
 5900TIP3    H239260   5.998   0.690   8.475
 5901TIP3   OH239261   2.237   4.318   0.393
 5901TIP3    H139262   2.213   4.344   0.304
 5901TIP3    H239263   2.262   4.226   0.386
 5902TIP3   OH239264   5.314   5.870   8.181
 5902TIP3    H139265   5.300   5.962   8.204
 5902TIP3    H239266   5.250   5.822   8.234
 5903TIP3   OH239267   0.948   5.043   8.019
 5903TIP3    H139268   0.997   5.059   7.938
 5903TIP3    H239269   0.975   4.956   8.047
 5904TIP3   OH239270   1.305   6.041   7.552
 5904TIP3    H139271   1.351   5.992   7.621
 5904TIP3    H239272   1.303   5.981   7.477
 5905TIP3   OH239273   1.693   0.458   6.781
 5905TIP3    H139274   1.641   0.435   6.859
 5905TIP3    H239275   1.635   0.439   6.707
 5906TIP3   OH239276   0.993   4.203   1.180
 5906TIP3    H139277   1.087   4.193   1.166
 5906TIP3    H239278   0.958   4.225   1.093
 5907TIP3   OH239279   0.503   6.625   0.213
 5907TIP3    H139280   0.445   6.566   0.262
 5907TIP3    H239281   0.526   6.576   0.134
 5908TIP3   OH239282   2.979   4.955   1.984
 5908TIP3    H139283   2.997   5.017   2.055
 5908TIP3    H239284   2.892   4.921   2.005
 5909TIP3   OH239285   3.121   0.444   8.003
 5909TIP3    H139286   3.194   0.427   8.062
 5909TIP3    H239287   3.049   0.391   8.036
 5910TIP3   OH239288   6.252   1.111   6.618
 5910TIP3    H139289   6.282   1.201   6.631
 5910TIP3    H239290   6.158   1.118   6.603
 5911TIP3   OH239291   6.411   0.311   0.733
 5911TIP3    H139292   6.396   0.400   0.765
 5911TIP3    H239293   6.400   0.255   0.810
 5912TIP3   OH239294   4.489   3.978   1.663
 5912TIP3    H139295   4.432   3.978   1.586
 5912TIP3    H239296   4.548   4.051   1.649
 5913TIP3   OH239297   5.722   5.013   2.127
 5913TIP3    H139298   5.720   5.027   2.032
 5913TIP3    H239299   5.814   4.997   2.147
 5914TIP3   OH239300   3.710   3.355   8.410
 5914TIP3    H139301   3.758   3.438   8.417
 5914TIP3    H239302   3.776   3.288   8.424
 5915TIP3   OH239303   0.246   0.686   7.219
 5915TIP3    H139304   0.270   0.758   7.160
 5915TIP3    H239305   0.330   0.653   7.251
 5916TIP3   OH239306   3.336   3.771   1.195
 5916TIP3    H139307   3.364   3.803   1.280
 5916TIP3    H239308   3.246   3.805   1.186
 5917TIP3   OH239309   3.563   2.098   0.618
 5917TIP3    H139310   3.638   2.148   0.586
 5917TIP3    H239311   3.508   2.083   0.541
 5918TIP3   OH239312   5.274   2.550   1.589
 5918TIP3    H139313   5.295   2.643   1.586
 5918TIP3    H239314   5.312   2.520   1.672
 5919TIP3   OH239315   5.499   0.027   1.300
 5919TIP3    H139316   5.577   6.885   1.299
 5919TIP3    H239317   5.530   0.115   1.280
 5920TIP3   OH239318   6.255   0.226   2.119
 5920TIP3    H139319   6.250   0.171   2.197
 5920TIP3    H239320   6.195   0.298   2.135
 5921TIP3   OH239321   1.869   4.292   1.854
 5921TIP3    H139322   1.876   4.270   1.946
 5921TIP3    H239323   1.823   4.218   1.814
 5922TIP3   OH239324   4.840   0.755   1.434
 5922TIP3    H139325   4.866   0.823   1.495
 5922TIP3    H239326   4.887   0.775   1.353
 5923TIP3   OH239327   6.491   1.234   2.305
 5923TIP3    H139328   6.511   1.141   2.318
 5923TIP3    H239329   6.562   1.266   2.250
 5924TIP3   OH239330   2.080   0.461   2.094
 5924TIP3    H139331   2.071   0.440   2.001
 5924TIP3    H239332   2.139   0.394   2.128
 5925TIP3   OH239333   6.231   5.641   0.763
 5925TIP3    H139334   6.245   5.632   0.857
 5925TIP3    H239335   6.308   5.690   0.732
 5926TIP3   OH239336   4.891   3.336   8.028
 5926TIP3    H139337   4.933   3.252   8.009
 5926TIP3    H239338   4.859   3.366   7.943
 5927TIP3   OH239339   3.776   0.889   1.802
 5927TIP3    H139340   3.819   0.959   1.753
 5927TIP3    H239341   3.807   0.900   1.892
 5928TIP3   OH239342   0.314   3.230   7.256
 5928TIP3    H139343   0.292   3.156   7.199
 5928TIP3    H239344   0.255   3.300   7.229
 5929TIP3   OH239345   5.183   0.079   6.588
 5929TIP3    H139346   5.138   0.046   6.510
 5929TIP3    H239347   5.139   0.161   6.608
 5930TIP3   OH239348   1.294   6.543   2.427
 5930TIP3    H139349   1.281   6.618   2.486
 5930TIP3    H239350   1.207   6.523   2.394
 5931TIP3   OH239351   4.740   6.267   1.221
 5931TIP3    H139352   4.728   6.175   1.244
 5931TIP3    H239353   4.770   6.309   1.301
 5932TIP3   OH239354   3.379   5.825   0.956
 5932TIP3    H139355   3.369   5.738   0.993
 5932TIP3    H239356   3.442   5.813   0.884
 5933TIP3   OH239357   6.632   6.357   7.785
 5933TIP3    H139358   6.537   6.357   7.785
 5933TIP3    H239359   6.656   6.427   7.724
 5934TIP3   OH239360   3.202   6.902   0.858
 5934TIP3    H139361   3.131   0.054   0.856
 5934TIP3    H239362   3.205   6.872   0.949
 5935TIP3   OH239363   4.802   0.420   0.015
 5935TIP3    H139364   4.791   0.335   8.576
 5935TIP3    H239365   4.789   0.403   0.108
 5936TIP3   OH239366   0.061   6.115   7.689
 5936TIP3    H139367   0.110   6.179   7.739
 5936TIP3    H239368   0.121   6.088   7.619
 5937TIP3   OH239369   1.064   0.010   8.072
 5937TIP3    H139370   1.150   6.883   8.055
 5937TIP3    H239371   1.084   0.092   8.117
 5938TIP3   OH239372   5.066   0.483   6.618
 5938TIP3    H139373   5.093   0.567   6.655
 5938TIP3    H239374   5.133   0.463   6.553
 5939TIP3   OH239375   1.550   1.218   7.845
 5939TIP3    H139376   1.528   1.265   7.925
 5939TIP3    H239377   1.514   1.130   7.859
 5940TIP3   OH239378   0.455   0.020   7.842
 5940TIP3    H139379   0.488   6.899   7.759
 5940TIP3    H239380   0.533   0.053   7.887
 5941TIP3   OH239381   5.438   5.964   7.151
 5941TIP3    H139382   5.371   6.030   7.134
 5941TIP3    H239383   5.468   5.937   7.065
 5942TIP3   OH239384   3.169   3.207   7.516
 5942TIP3    H139385   3.143   3.236   7.429
 5942TIP3    H239386   3.228   3.276   7.547
 5943TIP3   OH239387   2.225   2.744   0.766
 5943TIP3    H139388   2.146   2.702   0.732
 5943TIP3    H239389   2.241   2.817   0.706
 5944TIP3   OH239390   5.226   3.555   0.603
 5944TIP3    H139391   5.291   3.622   0.625
 5944TIP3    H239392   5.151   3.574   0.659
 5945TIP3   OH239393   5.572   6.402   1.848
 5945TIP3    H139394   5.603   6.312   1.857
 5945TIP3    H239395   5.628   6.452   1.907
 5946TIP3   OH239396   2.957   2.511   7.015
 5946TIP3    H139397   2.866   2.536   7.030
 5946TIP3    H239398   2.988   2.481   7.101
 5947TIP3   OH239399   4.804   5.470   0.821
 5947TIP3    H139400   4.836   5.435   0.904
 5947TIP3    H239401   4.866   5.436   0.756
 5948TIP3   OH239402   0.623   4.154   8.314
 5948TIP3    H139403   0.644   4.134   8.223
 5948TIP3    H239404   0.576   4.076   8.345
 5949TIP3   OH239405   4.828   0.048   0.218
 5949TIP3    H139406   4.793   0.063   0.131
 5949TIP3    H239407   4.865   0.132   0.244
 5950TIP3   OH239408   5.047   0.245   0.556
 5950TIP3    H139409   5.071   0.337   0.566
 5950TIP3    H239410   5.086   0.218   0.473
 5951TIP3   OH239411   6.789   4.566   1.893
 5951TIP3    H139412   6.730   4.494   1.869
 5951TIP3    H239413   6.733   4.643   1.899
 5952TIP3   OH239414   1.310   0.437   7.228
 5952TIP3    H139415   1.320   0.484   7.145
 5952TIP3    H239416   1.236   0.379   7.214
 5953TIP3   OH239417   6.050   4.350   0.561
 5953TIP3    H139418   6.059   4.439   0.594
 5953TIP3    H239419   5.969   4.318   0.601
 5954TIP3   OH239420   4.118   1.232   1.382
 5954TIP3    H139421   4.103   1.157   1.325
 5954TIP3    H239422   4.159   1.196   1.460
 5955TIP3   OH239423   1.301   5.355   1.918
 5955TIP3    H139424   1.347   5.271   1.918
 5955TIP3    H239425   1.214   5.335   1.952
 5956TIP3   OH239426   4.552   0.935   2.662
 5956TIP3    H139427   4.509   0.850   2.662
 5956TIP3    H239428   4.644   0.916   2.648
 5957TIP3   OH239429   2.441   2.625   7.502
 5957TIP3    H139430   2.452   2.697   7.565
 5957TIP3    H239431   2.528   2.585   7.495
 5958TIP3   OH239432   2.509   4.253   7.333
 5958TIP3    H139433   2.532   4.316   7.264
 5958TIP3    H239434   2.420   4.277   7.358
 5959TIP3   OH239435   0.589   3.296   7.281
 5959TIP3    H139436   0.586   3.368   7.218
 5959TIP3    H239437   0.497   3.275   7.297
 5960TIP3   OH239438   1.829   1.343   2.400
 5960TIP3    H139439   1.820   1.431   2.364
 5960TIP3    H239440   1.776   1.288   2.342
 5961TIP3   OH239441   2.614   1.487   0.462
 5961TIP3    H139442   2.558   1.443   0.525
 5961TIP3    H239443   2.703   1.468   0.490
 5962TIP3   OH239444   0.353   4.006   1.429
 5962TIP3    H139445   0.261   3.986   1.441
 5962TIP3    H239446   0.354   4.096   1.395
 5963TIP3   OH239447   6.491   4.732   1.973
 5963TIP3    H139448   6.398   4.711   1.976
 5963TIP3    H239449   6.516   4.746   2.065
 5964TIP3   OH239450   2.291   3.702   0.285
 5964TIP3    H139451   2.362   3.760   0.312
 5964TIP3    H239452   2.240   3.688   0.365
 5965TIP3   OH239453   1.267   1.104   7.438
 5965TIP3    H139454   1.286   1.010   7.451
 5965TIP3    H239455   1.230   1.132   7.522
 5966TIP3   OH239456   4.249   6.108   0.997
 5966TIP3    H139457   4.247   6.156   0.914
 5966TIP3    H239458   4.156   6.090   1.016
 5967TIP3   OH239459   3.137   0.803   0.730
 5967TIP3    H139460   3.121   0.772   0.641
 5967TIP3    H239461   3.233   0.800   0.739
 5968TIP3   OH239462   6.308   4.265   0.595
 5968TIP3    H139463   6.218   4.297   0.608
 5968TIP3    H239464   6.359   4.306   0.664
 5969TIP3   OH239465   3.756   4.291   6.446
 5969TIP3    H139466   3.714   4.208   6.419
 5969TIP3    H239467   3.787   4.274   6.535
 5970TIP3   OH239468   0.265   3.571   0.101
 5970TIP3    H139469   0.322   3.521   0.159
 5970TIP3    H239470   0.308   3.566   0.016
 5971TIP3   OH239471   5.606   1.507   8.262
 5971TIP3    H139472   5.533   1.452   8.290
 5971TIP3    H239473   5.594   1.517   8.167
 5972TIP3   OH239474   6.188   2.607   2.143
 5972TIP3    H139475   6.197   2.696   2.108
 5972TIP3    H239476   6.277   2.582   2.167
 5973TIP3   OH239477   4.026   0.685   7.145
 5973TIP3    H139478   4.076   0.660   7.223
 5973TIP3    H239479   4.023   0.605   7.093
 5974TIP3   OH239480   1.997   1.371   8.366
 5974TIP3    H139481   2.033   1.388   8.453
 5974TIP3    H239482   1.920   1.316   8.382
 5975TIP3   OH239483   2.309   0.119   0.633
 5975TIP3    H139484   2.335   0.102   0.543
 5975TIP3    H239485   2.257   0.042   0.658
 5976TIP3   OH239486   3.900   3.556   8.343
 5976TIP3    H139487   3.950   3.475   8.355
 5976TIP3    H239488   3.960   3.614   8.297
 5977TIP3   OH239489   6.559   1.518   0.913
 5977TIP3    H139490   6.556   1.546   1.005
 5977TIP3    H239491   6.564   1.599   0.863
 5978TIP3   OH239492   6.185   3.814   6.709
 5978TIP3    H139493   6.178   3.763   6.628
 5978TIP3    H239494   6.215   3.900   6.680
 5979TIP3   OH239495   3.148   4.377   0.267
 5979TIP3    H139496   3.243   4.392   0.272
 5979TIP3    H239497   3.135   4.295   0.315
 5980TIP3   OH239498   6.468   3.172   8.172
 5980TIP3    H139499   6.555   3.157   8.136
 5980TIP3    H239500   6.469   3.264   8.199
 5981TIP3   OH239501   5.196   6.867   0.411
 5981TIP3    H139502   5.207   0.016   0.338
 5981TIP3    H239503   5.268   6.888   0.471
 5982TIP3   OH239504   3.494   0.853   1.507
 5982TIP3    H139505   3.475   0.937   1.547
 5982TIP3    H239506   3.535   0.875   1.423
 5983TIP3   OH239507   1.402   5.121   1.996
 5983TIP3    H139508   1.481   5.110   2.050
 5983TIP3    H239509   1.384   5.034   1.962
 5984TIP3   OH239510   6.875   5.695   6.282
 5984TIP3    H139511   6.857   5.628   6.347
 5984TIP3    H239512   6.829   5.665   6.203
 5985TIP3   OH239513   2.345   1.691   7.803
 5985TIP3    H139514   2.411   1.761   7.808
 5985TIP3    H239515   2.317   1.692   7.712
 5986TIP3   OH239516   5.473   1.195   7.458
 5986TIP3    H139517   5.538   1.241   7.404
 5986TIP3    H239518   5.403   1.260   7.470
 5987TIP3   OH239519   2.444   2.549   6.445
 5987TIP3    H139520   2.396   2.620   6.403
 5987TIP3    H239521   2.530   2.551   6.405
 5988TIP3   OH239522   1.246   4.227   0.336
 5988TIP3    H139523   1.210   4.281   0.407
 5988TIP3    H239524   1.199   4.144   0.344
 5989TIP3   OH239525   6.400   1.551   7.749
 5989TIP3    H139526   6.340   1.626   7.749
 5989TIP3    H239527   6.342   1.475   7.745
 5990TIP3   OH239528   5.784   5.971   7.678
 5990TIP3    H139529   5.823   6.018   7.605
 5990TIP3    H239530   5.803   6.025   7.755
 5991TIP3   OH239531   1.300   1.686   7.990
 5991TIP3    H139532   1.246   1.707   8.066
 5991TIP3    H239533   1.341   1.769   7.966
 5992TIP3   OH239534   6.294   4.703   3.105
 5992TIP3    H139535   6.253   4.700   3.191
 5992TIP3    H239536   6.225   4.735   3.047
 5993TIP3   OH239537   2.714   6.608   1.547
 5993TIP3    H139538   2.807   6.617   1.523
 5993TIP3    H239539   2.703   6.669   1.621
 5994TIP3   OH239540   6.552   0.662   1.345
 5994TIP3    H139541   6.634   0.612   1.338
 5994TIP3    H239542   6.501   0.615   1.411
 5995TIP3   OH239543   4.793   0.653   1.815
 5995TIP3    H139544   4.850   0.725   1.788
 5995TIP3    H239545   4.831   0.623   1.898
 5996TIP3   OH239546   2.887   0.636   7.425
 5996TIP3    H139547   2.801   0.659   7.392
 5996TIP3    H239548   2.877   0.547   7.458
 5997TIP3   OH239549   1.304   3.792   7.001
 5997TIP3    H139550   1.318   3.740   7.079
 5997TIP3    H239551   1.353   3.873   7.016
 5998TIP3   OH239552   1.308   6.032   1.358
 5998TIP3    H139553   1.303   6.110   1.303
 5998TIP3    H239554   1.293   6.064   1.447
 5999TIP3   OH239555   0.264   5.995   8.592
 5999TIP3    H139556   0.288   6.064   0.051
 5999TIP3    H239557   0.242   6.042   8.511
 6000TIP3   OH239558   1.709   5.593   6.837
 6000TIP3    H139559   1.633   5.630   6.882
 6000TIP3    H239560   1.738   5.662   6.778
 6001TIP3   OH239561   1.094   0.605   8.313
 6001TIP3    H139562   1.031   0.537   8.289
 6001TIP3    H239563   1.176   0.557   8.327
 6002TIP3   OH239564   1.832   5.920   0.866
 6002TIP3    H139565   1.796   5.837   0.834
 6002TIP3    H239566   1.825   5.915   0.961
 6003TIP3   OH239567   6.366   4.646   7.853
 6003TIP3    H139568   6.351   4.597   7.934
 6003TIP3    H239569   6.325   4.593   7.785
 6004TIP3   OH239570   5.264   6.573   7.963
 6004TIP3    H139571   5.354   6.587   7.934
 6004TIP3    H239572   5.210   6.595   7.887
 6005TIP3   OH239573   1.142   1.747   6.978
 6005TIP3    H139574   1.131   1.735   6.883
 6005TIP3    H239575   1.235   1.764   6.989
 6006TIP3   OH239576   1.990   3.981   7.035
 6006TIP3    H139577   1.933   3.911   7.003
 6006TIP3    H239578   2.059   3.988   6.969
 6007TIP3   OH239579   1.555   1.067   8.266
 6007TIP3    H139580   1.622   1.021   8.216
 6007TIP3    H239581   1.472   1.041   8.225
 6008TIP3   OH239582   1.091   0.736   1.205
 6008TIP3    H139583   1.137   0.664   1.161
 6008TIP3    H239584   1.128   0.815   1.167
 6009TIP3   OH239585   5.074   2.894   1.761
 6009TIP3    H139586   4.996   2.905   1.816
 6009TIP3    H239587   5.130   2.968   1.783
 6010TIP3   OH239588   0.087   0.599   1.086
 6010TIP3    H139589   0.049   0.621   1.001
 6010TIP3    H239590   0.145   0.673   1.106
 6011TIP3   OH239591   3.603   6.138   8.458
 6011TIP3    H139592   3.570   6.225   8.480
 6011TIP3    H239593   3.680   6.155   8.404
 6012TIP3   OH239594   5.338   1.778   1.557
 6012TIP3    H139595   5.330   1.761   1.464
 6012TIP3    H239596   5.261   1.829   1.579
 6013TIP3   OH239597   5.668   1.866   7.644
 6013TIP3    H139598   5.618   1.861   7.563
 6013TIP3    H239599   5.662   1.778   7.681
 6014TIP3   OH239600   0.454   3.446   1.750
 6014TIP3    H139601   0.417   3.370   1.706
 6014TIP3    H239602   0.444   3.518   1.687
 6015TIP3   OH239603   6.883   1.384   1.067
 6015TIP3    H139604   6.815   1.410   1.128
 6015TIP3    H239605   0.017   1.466   1.045
 6016TIP3   OH239606   5.311   3.049   0.315
 6016TIP3    H139607   5.351   2.981   0.370
 6016TIP3    H239608   5.252   3.095   0.375
 6017TIP3   OH239609   0.470   6.372   0.612
 6017TIP3    H139610   0.550   6.326   0.590
 6017TIP3    H239611   0.499   6.462   0.631
 6018TIP3   OH239612   6.853   0.016   7.835
 6018TIP3    H139613   6.766   0.012   7.794
 6018TIP3    H239614   6.866   6.841   7.872
 6019TIP3   OH239615   0.828   3.830   6.106
 6019TIP3    H139616   0.839   3.915   6.148
 6019TIP3    H239617   0.859   3.767   6.170
 6020TIP3   OH239618   4.744   4.765   0.947
 6020TIP3    H139619   4.659   4.729   0.921
 6020TIP3    H239620   4.723   4.851   0.984
 6021TIP3   OH239621   2.284   5.179   0.993
 6021TIP3    H139622   2.234   5.101   0.967
 6021TIP3    H239623   2.342   5.196   0.919
 6022TIP3   OH239624   0.065   2.687   7.454
 6022TIP3    H139625   0.038   2.604   7.494
 6022TIP3    H239626   0.128   2.724   7.515
 6023TIP3   OH239627   4.997   0.399   0.866
 6023TIP3    H139628   4.907   0.426   0.848
 6023TIP3    H239629   5.046   0.481   0.872
 6024TIP3   OH239630   3.725   1.444   8.183
 6024TIP3    H139631   3.791   1.513   8.181
 6024TIP3    H239632   3.680   1.451   8.099
 6025TIP3   OH239633   6.513   4.793   1.035
 6025TIP3    H139634   6.461   4.779   0.955
 6025TIP3    H239635   6.574   4.719   1.037
 6026TIP3   OH239636   4.025   3.160   0.931
 6026TIP3    H139637   4.088   3.214   0.979
 6026TIP3    H239638   3.947   3.214   0.925
 6027TIP3   OH239639   6.730   2.675   1.128
 6027TIP3    H139640   6.775   2.628   1.057
 6027TIP3    H239641   6.796   2.734   1.163
 6028TIP3   OH239642   5.550   1.305   2.530
 6028TIP3    H139643   5.503   1.284   2.610
 6028TIP3    H239644   5.614   1.371   2.556
 6029TIP3   OH239645   3.133   6.564   0.799
 6029TIP3    H139646   3.063   6.629   0.793
 6029TIP3    H239647   3.094   6.483   0.765
 6030TIP3   OH239648   6.127   3.682   0.921
 6030TIP3    H139649   6.117   3.755   0.859
 6030TIP3    H239650   6.037   3.656   0.942
 6031TIP3   OH239651   1.819   6.573   7.729
 6031TIP3    H139652   1.763   6.584   7.806
 6031TIP3    H239653   1.779   6.501   7.681
 6032TIP3   OH239654   4.652   3.830   1.966
 6032TIP3    H139655   4.747   3.837   1.953
 6032TIP3    H239656   4.641   3.750   2.017
 6033TIP3   OH239657   2.264   3.670   8.444
 6033TIP3    H139658   2.267   3.576   8.465
 6033TIP3    H239659   2.224   3.710   8.521
 6034TIP3   OH239660   5.186   1.835   6.473
 6034TIP3    H139661   5.092   1.847   6.460
 6034TIP3    H239662   5.204   1.747   6.441
 6035TIP3   OH239663   4.803   1.871   8.309
 6035TIP3    H139664   4.861   1.831   8.374
 6035TIP3    H239665   4.817   1.965   8.320
 6036TIP3   OH239666   6.299   4.324   7.957
 6036TIP3    H139667   6.361   4.295   7.891
 6036TIP3    H239668   6.242   4.387   7.912
 6037TIP3   OH239669   4.882   3.065   7.347
 6037TIP3    H139670   4.825   3.137   7.374
 6037TIP3    H239671   4.832   3.018   7.281
 6038TIP3   OH239672   5.977   2.140   0.365
 6038TIP3    H139673   6.060   2.161   0.408
 6038TIP3    H239674   5.916   2.205   0.399
 6039TIP3   OH239675   4.340   1.222   0.107
 6039TIP3    H139676   4.245   1.224   0.092
 6039TIP3    H239677   4.370   1.309   0.082
 6040TIP3   OH239678   1.369   3.951   7.300
 6040TIP3    H139679   1.395   3.962   7.209
 6040TIP3    H239680   1.304   4.020   7.315
 6041TIP3   OH239681   3.186   2.615   7.536
 6041TIP3    H139682   3.098   2.640   7.564
 6041TIP3    H239683   3.241   2.689   7.560
 6042TIP3   OH239684   5.510   6.852   8.222
 6042TIP3    H139685   5.486   6.885   8.135
 6042TIP3    H239686   5.605   6.862   8.226
 6043TIP3   OH239687   4.918   2.344   0.594
 6043TIP3    H139688   4.884   2.432   0.573
 6043TIP3    H239689   4.867   2.285   0.538
 6044TIP3   OH239690   6.853   4.708   8.564
 6044TIP3    H139691   6.880   4.797   8.586
 6044TIP3    H239692   6.762   4.717   8.535
 6045TIP3   OH239693   1.410   0.015   7.669
 6045TIP3    H139694   1.475   0.082   7.648
 6045TIP3    H239695   1.462   6.852   7.697
 6046TIP3   OH239696   4.404   2.805   7.360
 6046TIP3    H139697   4.481   2.855   7.332
 6046TIP3    H239698   4.352   2.794   7.280
 6047TIP3   OH239699   4.638   6.790   1.567
 6047TIP3    H139700   4.633   6.732   1.643
 6047TIP3    H239701   4.578   6.862   1.587
 6048TIP3   OH239702   5.135   6.579   1.610
 6048TIP3    H139703   5.225   6.547   1.619
 6048TIP3    H239704   5.143   6.657   1.555
 6049TIP3   OH239705   1.951   5.851   6.424
 6049TIP3    H139706   2.037   5.836   6.463
 6049TIP3    H239707   1.968   5.905   6.347
 6050TIP3   OH239708   4.134   1.787   8.393
 6050TIP3    H139709   4.148   1.872   8.435
 6050TIP3    H239710   4.088   1.735   8.459
 6051TIP3   OH239711   5.429   0.557   0.507
 6051TIP3    H139712   5.517   0.555   0.469
 6051TIP3    H239713   5.398   0.646   0.492
 6052TIP3   OH239714   6.390   4.882   6.715
 6052TIP3    H139715   6.372   4.791   6.740
 6052TIP3    H239716   6.312   4.930   6.743
 6053TIP3   OH239717   6.611   6.405   8.198
 6053TIP3    H139718   6.662   6.458   8.260
 6053TIP3    H239719   6.677   6.363   8.143
 6054TIP3   OH239720   6.370   1.333   0.814
 6054TIP3    H139721   6.436   1.400   0.830
 6054TIP3    H239722   6.420   1.252   0.803
 6055TIP3   OH239723   6.746   6.502   7.118
 6055TIP3    H139724   6.694   6.427   7.146
 6055TIP3    H239725   6.750   6.559   7.195
 6056TIP3   OH239726   2.925   5.866   7.310
 6056TIP3    H139727   2.934   5.779   7.351
 6056TIP3    H239728   2.935   5.850   7.217
 6057TIP3   OH239729   3.378   3.505   0.625
 6057TIP3    H139730   3.405   3.450   0.699
 6057TIP3    H239731   3.432   3.584   0.633
 6058TIP3   OH239732   4.496   3.856   6.530
 6058TIP3    H139733   4.420   3.830   6.582
 6058TIP3    H239734   4.530   3.773   6.494
 6059TIP3   OH239735   5.677   4.881   7.744
 6059TIP3    H139736   5.619   4.836   7.682
 6059TIP3    H239737   5.634   4.964   7.762
 6060TIP3   OH239738   2.842   2.823   2.287
 6060TIP3    H139739   2.915   2.876   2.320
 6060TIP3    H239740   2.764   2.874   2.310
 6061TIP3   OH239741   2.671   2.142   7.865
 6061TIP3    H139742   2.620   2.193   7.802
 6061TIP3    H239743   2.707   2.207   7.925
 6062TIP3   OH239744   0.823   2.191   6.971
 6062TIP3    H139745   0.878   2.262   7.003
 6062TIP3    H239746   0.884   2.121   6.946
 6063TIP3   OH239747   6.328   6.367   8.545
 6063TIP3    H139748   6.386   6.435   8.509
 6063TIP3    H239749   6.282   6.333   8.468
 6064TIP3   OH239750   5.220   3.222   8.245
 6064TIP3    H139751   5.129   3.246   8.263
 6064TIP3    H239752   5.240   3.155   8.310
 6065TIP3   OH239753   5.137   6.638   2.722
 6065TIP3    H139754   5.183   6.671   2.799
 6065TIP3    H239755   5.205   6.598   2.668
 6066TIP3   OH239756   3.462   2.207   1.605
 6066TIP3    H139757   3.463   2.287   1.553
 6066TIP3    H239758   3.510   2.229   1.685
 6067TIP3   OH239759   6.235   2.011   0.036
 6067TIP3    H139760   6.142   2.032   0.031
 6067TIP3    H239761   6.269   2.028   8.551
 6068TIP3   OH239762   1.129   3.117   7.951
 6068TIP3    H139763   1.068   3.048   7.975
 6068TIP3    H239764   1.172   3.141   8.033
 6069TIP3   OH239765   2.365   3.450   8.126
 6069TIP3    H139766   2.390   3.389   8.195
 6069TIP3    H239767   2.438   3.511   8.120
 6070TIP3   OH239768   3.349   5.772   7.460
 6070TIP3    H139769   3.359   5.728   7.375
 6070TIP3    H239770   3.273   5.829   7.448
 6071TIP3   OH239771   3.563   2.854   0.919
 6071TIP3    H139772   3.540   2.788   0.985
 6071TIP3    H239773   3.555   2.807   0.836
 6072TIP3   OH239774   4.929   1.520   0.210
 6072TIP3    H139775   4.903   1.609   0.183
 6072TIP3    H239776   5.021   1.529   0.235
 6073TIP3   OH239777   2.780   0.341   2.028
 6073TIP3    H139778   2.861   0.301   1.997
 6073TIP3    H239779   2.809   0.411   2.087
 6074TIP3   OH239780   3.740   2.183   7.711
 6074TIP3    H139781   3.835   2.178   7.707
 6074TIP3    H239782   3.719   2.268   7.672
 6075TIP3   OH239783   5.992   3.015   0.766
 6075TIP3    H139784   5.924   3.055   0.711
 6075TIP3    H239785   5.945   2.987   0.845
 6076TIP3   OH239786   0.878   4.915   1.232
 6076TIP3    H139787   0.886   4.900   1.327
 6076TIP3    H239788   0.952   4.866   1.195
 6077TIP3   OH239789   5.498   4.685   7.976
 6077TIP3    H139790   5.427   4.641   8.023
 6077TIP3    H239791   5.572   4.625   7.983
 6078TIP3   OH239792   2.099   1.362   0.021
 6078TIP3    H139793   2.195   1.357   0.020
 6078TIP3    H239794   2.078   1.418   0.096
 6079TIP3   OH239795   2.755   4.473   8.396
 6079TIP3    H139796   2.823   4.521   8.349
 6079TIP3    H239797   2.701   4.541   8.436
 6080TIP3   OH239798   0.999   6.414   8.248
 6080TIP3    H139799   1.018   6.370   8.164
 6080TIP3    H239800   0.960   6.498   8.222
 6081TIP3   OH239801   4.251   5.986   0.024
 6081TIP3    H139802   4.327   5.979   0.082
 6081TIP3    H239803   4.209   5.900   0.028
 6082TIP3   OH239804   2.219   3.043   7.653
 6082TIP3    H139805   2.204   3.117   7.594
 6082TIP3    H239806   2.308   3.056   7.685
 6083TIP3   OH239807   0.027   5.670   1.403
 6083TIP3    H139808   0.088   5.731   1.361
 6083TIP3    H239809   0.072   5.644   1.483
 6084TIP3   OH239810   5.995   1.816   0.695
 6084TIP3    H139811   6.088   1.796   0.701
 6084TIP3    H239812   5.965   1.821   0.786
 6085TIP3   OH239813   2.754   4.831   7.256
 6085TIP3    H139814   2.710   4.776   7.190
 6085TIP3    H239815   2.806   4.770   7.308
 6086TIP3   OH239816   1.093   2.303   7.250
 6086TIP3    H139817   1.020   2.354   7.213
 6086TIP3    H239818   1.094   2.223   7.198
 6087TIP3   OH239819   1.640   2.930   7.660
 6087TIP3    H139820   1.729   2.896   7.650
 6087TIP3    H239821   1.627   2.934   7.755
 6088TIP3   OH239822   0.161   1.229   1.504
 6088TIP3    H139823   0.094   1.190   1.447
 6088TIP3    H239824   0.124   1.314   1.529
 6089TIP3   OH239825   4.879   5.703   0.578
 6089TIP3    H139826   4.957   5.742   0.617
 6089TIP3    H239827   4.906   5.676   0.491
 6090TIP3   OH239828   4.888   6.513   7.413
 6090TIP3    H139829   4.801   6.522   7.375
 6090TIP3    H239830   4.927   6.600   7.406
 6091TIP3   OH239831   6.327   5.034   0.889
 6091TIP3    H139832   6.342   4.942   0.911
 6091TIP3    H239833   6.237   5.051   0.915
 6092TIP3   OH239834   6.072   6.607   7.917
 6092TIP3    H139835   6.101   6.695   7.940
 6092TIP3    H239836   6.099   6.553   7.992
 6093TIP3   OH239837   1.102   1.793   1.451
 6093TIP3    H139838   1.150   1.816   1.531
 6093TIP3    H239839   1.168   1.756   1.393
 6094TIP3   OH239840   3.455   6.718   7.224
 6094TIP3    H139841   3.469   6.625   7.238
 6094TIP3    H239842   3.477   6.759   7.308
 6095TIP3   OH239843   3.787   0.437   6.252
 6095TIP3    H139844   3.717   0.381   6.217
 6095TIP3    H239845   3.742   0.517   6.279
 6096TIP3   OH239846   0.646   0.196   7.973
 6096TIP3    H139847   0.705   0.268   7.951
 6096TIP3    H239848   0.703   0.128   8.007
 6097TIP3   OH239849   5.303   0.762   7.499
 6097TIP3    H139850   5.218   0.791   7.531
 6097TIP3    H239851   5.319   0.816   7.422
 6098TIP3   OH239852   5.562   2.337   1.957
 6098TIP3    H139853   5.558   2.339   1.861
 6098TIP3    H239854   5.653   2.315   1.976
 6099TIP3   OH239855   3.090   4.183   1.328
 6099TIP3    H139856   3.125   4.132   1.255
 6099TIP3    H239857   3.006   4.141   1.349
 6100TIP3   OH239858   3.330   4.338   0.972
 6100TIP3    H139859   3.369   4.404   1.029
 6100TIP3    H239860   3.403   4.306   0.919
 6101TIP3   OH239861   1.555   3.866   7.483
 6101TIP3    H139862   1.620   3.935   7.497
 6101TIP3    H239863   1.492   3.906   7.423
 6102TIP3   OH239864   2.307   2.325   6.380
 6102TIP3    H139865   2.344   2.404   6.418
 6102TIP3    H239866   2.333   2.255   6.440
 6103TIP3   OH239867   4.417   0.810   7.587
 6103TIP3    H139868   4.334   0.847   7.617
 6103TIP3    H239869   4.394   0.721   7.559
 6104TIP3   OH239870   3.157   6.034   0.318
 6104TIP3    H139871   3.117   6.002   0.398
 6104TIP3    H239872   3.192   5.956   0.275
 6105TIP3   OH239873   4.021   5.829   6.951
 6105TIP3    H139874   3.980   5.867   6.873
 6105TIP3    H239875   4.108   5.801   6.921
 6106TIP3   OH239876   3.914   3.198   7.982
 6106TIP3    H139877   3.947   3.185   7.893
 6106TIP3    H239878   3.822   3.171   7.978
 6107TIP3   OH239879   4.159   2.434   8.302
 6107TIP3    H139880   4.248   2.459   8.278
 6107TIP3    H239881   4.133   2.497   8.369
 6108TIP3   OH239882   0.686   3.684   1.948
 6108TIP3    H139883   0.669   3.727   2.031
 6108TIP3    H239884   0.730   3.750   1.895
 6109TIP3   OH239885   1.881   4.123   7.231
 6109TIP3    H139886   1.930   4.070   7.168
 6109TIP3    H239887   1.902   4.085   7.316
 6110TIP3   OH239888   1.433   6.532   1.668
 6110TIP3    H139889   1.507   6.541   1.607
 6110TIP3    H239890   1.394   6.448   1.646
 6111TIP3   OH239891   6.161   2.253   1.503
 6111TIP3    H139892   6.098   2.283   1.437
 6111TIP3    H239893   6.230   2.209   1.453
 6112TIP3   OH239894   3.556   5.422   8.112
 6112TIP3    H139895   3.488   5.356   8.099
 6112TIP3    H239896   3.508   5.501   8.136
 6113TIP3   OH239897   0.340   1.827   1.386
 6113TIP3    H139898   0.346   1.740   1.427
 6113TIP3    H239899   0.409   1.878   1.429
 6114TIP3   OH239900   2.766   2.713   1.517
 6114TIP3    H139901   2.809   2.675   1.594
 6114TIP3    H239902   2.684   2.664   1.510
 6115TIP3   OH239903   1.687   2.509   6.474
 6115TIP3    H139904   1.627   2.444   6.438
 6115TIP3    H239905   1.755   2.519   6.408
 6116TIP3   OH239906   3.942   4.765   6.965
 6116TIP3    H139907   4.003   4.822   7.011
 6116TIP3    H239908   3.991   4.683   6.953
 6117TIP3   OH239909   0.056   3.005   8.294
 6117TIP3    H139910   0.043   3.000   8.389
 6117TIP3    H239911   0.147   3.034   8.284
 6118TIP3   OH239912   3.722   6.410   7.037
 6118TIP3    H139913   3.773   6.343   7.082
 6118TIP3    H239914   3.756   6.410   6.948
 6119TIP3   OH239915   1.429   4.908   8.600
 6119TIP3    H139916   1.502   4.965   0.023
 6119TIP3    H239917   1.417   4.849   0.071
 6120TIP3   OH239918   6.146   2.397   2.306
 6120TIP3    H139919   6.168   2.489   2.288
 6120TIP3    H239920   6.174   2.350   2.228
 6121TIP3   OH239921   2.628   5.861   6.125
 6121TIP3    H139922   2.558   5.820   6.176
 6121TIP3    H239923   2.702   5.800   6.133
 6122TIP3   OH239924   1.711   5.995   6.323
 6122TIP3    H139925   1.802   5.986   6.297
 6122TIP3    H239926   1.702   6.087   6.349
 6123TIP3   OH239927   4.958   2.683   8.284
 6123TIP3    H139928   4.881   2.689   8.227
 6123TIP3    H239929   4.933   2.620   8.352
 6124TIP3   OH239930   1.772   4.028   1.895
 6124TIP3    H139931   1.692   4.080   1.905
 6124TIP3    H239932   1.831   4.060   1.964
 6125TIP3   OH239933   0.717   0.510   1.825
 6125TIP3    H139934   0.797   0.563   1.825
 6125TIP3    H239935   0.669   0.540   1.903
 6126TIP3   OH239936   4.808   4.728   1.767
 6126TIP3    H139937   4.902   4.743   1.755
 6126TIP3    H239938   4.803   4.677   1.848
 6127TIP3   OH239939   5.116   0.503   7.847
 6127TIP3    H139940   5.073   0.478   7.929
 6127TIP3    H239941   5.054   0.562   7.805
 6128TIP3   OH239942   2.105   5.443   7.863
 6128TIP3    H139943   2.093   5.533   7.835
 6128TIP3    H239944   2.020   5.418   7.901
 6129TIP3   OH239945   3.747   3.809   7.982
 6129TIP3    H139946   3.701   3.734   8.020
 6129TIP3    H239947   3.836   3.803   8.017
 6130TIP3   OH239948   6.528   6.707   6.959
 6130TIP3    H139949   6.604   6.721   6.904
 6130TIP3    H239950   6.520   6.786   7.012
 6131TIP3   OH239951   1.800   5.848   7.800
 6131TIP3    H139952   1.802   5.801   7.717
 6131TIP3    H239953   1.813   5.780   7.866
 6132TIP3   OH239954   0.759   6.275   0.891
 6132TIP3    H139955   0.749   6.309   0.980
 6132TIP3    H239956   0.716   6.340   0.836
 6133TIP3   OH239957   4.696   6.684   2.778
 6133TIP3    H139958   4.671   6.634   2.700
 6133TIP3    H239959   4.743   6.760   2.743
 6134TIP3   OH239960   5.862   0.576   0.189
 6134TIP3    H139961   5.808   0.533   0.255
 6134TIP3    H239962   5.856   0.519   0.112
 6135TIP3   OH239963   0.786   5.296   7.158
 6135TIP3    H139964   0.708   5.254   7.122
 6135TIP3    H239965   0.841   5.223   7.187
 6136TIP3   OH239966   4.076   2.615   7.336
 6136TIP3    H139967   4.046   2.705   7.331
 6136TIP3    H239968   4.096   2.601   7.429
 6137TIP3   OH239969   2.468   5.684   0.507
 6137TIP3    H139970   2.520   5.668   0.586
 6137TIP3    H239971   2.455   5.779   0.506
 6138TIP3   OH239972   1.245   0.481   1.315
 6138TIP3    H139973   1.181   0.423   1.274
 6138TIP3    H239974   1.214   0.493   1.405
 6139TIP3   OH239975   4.528   1.213   2.600
 6139TIP3    H139976   4.435   1.227   2.581
 6139TIP3    H239977   4.534   1.123   2.629
 6140TIP3   OH239978   0.883   6.117   0.688
 6140TIP3    H139979   0.913   6.031   0.719
 6140TIP3    H239980   0.878   6.171   0.766
 6141TIP3   OH239981   3.998   4.190   1.976
 6141TIP3    H139982   3.943   4.209   2.052
 6141TIP3    H239983   3.966   4.106   1.943
 6142TIP3   OH239984   3.123   3.624   0.740
 6142TIP3    H139985   3.070   3.544   0.740
 6142TIP3    H239986   3.212   3.594   0.722
 6143TIP3   OH239987   4.646   6.512   2.549
 6143TIP3    H139988   4.585   6.439   2.544
 6143TIP3    H239989   4.730   6.475   2.522
 6144TIP3   OH239990   6.660   4.982   1.460
 6144TIP3    H139991   6.741   5.011   1.502
 6144TIP3    H239992   6.653   5.036   1.381
 6145TIP3   OH239993   4.521   0.977   1.668
 6145TIP3    H139994   4.476   0.981   1.583
 6145TIP3    H239995   4.476   0.908   1.716
 6146TIP3   OH239996   5.482   5.069   1.340
 6146TIP3    H139997   5.572   5.078   1.307
 6146TIP3    H239998   5.492   5.070   1.436
 6147TIP3   OH239999   4.198   1.548   7.743
 6147TIP3    H140000   4.171   1.532   7.834
 6147TIP3    H240001   4.294   1.551   7.746
 6148TIP3   OH240002   3.905   0.764   6.824
 6148TIP3    H140003   3.937   0.833   6.766
 6148TIP3    H240004   3.967   0.692   6.811
 6149TIP3   OH240005   3.794   5.626   0.139
 6149TIP3    H140006   3.862   5.693   0.150
 6149TIP3    H240007   3.826   5.552   0.191
 6150TIP3   OH240008   2.957   6.679   1.278
 6150TIP3    H140009   2.936   6.691   1.371
 6150TIP3    H240010   2.992   6.590   1.272
 6151TIP3   OH240011   3.777   1.593   7.313
 6151TIP3    H140012   3.785   1.686   7.333
 6151TIP3    H240013   3.864   1.557   7.331
 6152TIP3   OH240014   1.084   4.574   8.381
 6152TIP3    H140015   1.168   4.528   8.384
 6152TIP3    H240016   1.046   4.549   8.296
 6153TIP3   OH240017   2.222   3.053   7.138
 6153TIP3    H140018   2.132   3.029   7.160
 6153TIP3    H240019   2.223   3.149   7.143
 6154TIP3   OH240020   1.725   6.117   1.257
 6154TIP3    H140021   1.736   6.022   1.249
 6154TIP3    H240022   1.680   6.129   1.340
 6155TIP3   OH240023   0.017   3.019   8.563
 6155TIP3    H140024   0.010   3.100   0.011
 6155TIP3    H240025   6.838   2.992   8.550
 6156TIP3   OH240026   4.694   2.898   7.185
 6156TIP3    H140027   4.714   2.810   7.153
 6156TIP3    H240028   4.674   2.948   7.106
 6157TIP3   OH240029   1.349   0.661   6.000
 6157TIP3    H140030   1.364   0.729   6.065
 6157TIP3    H240031   1.262   0.626   6.020
 6158TIP3   OH240032   0.969   6.024   6.800
 6158TIP3    H140033   0.990   5.964   6.728
 6158TIP3    H240034   0.914   6.091   6.760
 6159TIP3   OH240035   1.868   1.360   0.247
 6159TIP3    H140036   1.955   1.399   0.240
 6159TIP3    H240037   1.811   1.432   0.274
 6160TIP3   OH240038   1.312   1.716   1.290
 6160TIP3    H140039   1.400   1.730   1.325
 6160TIP3    H240040   1.319   1.635   1.239
 6161TIP3   OH240041   0.731   0.216   0.695
 6161TIP3    H140042   0.728   0.151   0.625
 6161TIP3    H240043   0.754   0.167   0.773
 6162TIP3   OH240044   6.879   4.827   1.314
 6162TIP3    H140045   6.867   4.899   1.252
 6162TIP3    H240046   6.794   4.817   1.356
 6163TIP3   OH240047   0.869   6.445   8.498
 6163TIP3    H140048   0.916   6.416   8.421
 6163TIP3    H240049   0.933   6.437   8.570
 6164TIP3   OH240050   5.917   3.084   6.878
 6164TIP3    H140051   5.913   3.173   6.842
 6164TIP3    H240052   5.928   3.097   6.972
 6165TIP3   OH240053   5.380   3.412   6.901
 6165TIP3    H140054   5.434   3.388   6.975
 6165TIP3    H240055   5.442   3.441   6.834
 6166TIP3   OH240056   0.755   5.706   0.812
 6166TIP3    H140057   0.786   5.659   0.889
 6166TIP3    H240058   0.660   5.703   0.818
 6167TIP3   OH240059   0.831   4.044   1.794
 6167TIP3    H140060   0.920   4.065   1.767
 6167TIP3    H240061   0.810   4.110   1.860
 6168TIP3   OH240062   0.038   2.954   1.720
 6168TIP3    H140063   6.898   3.025   1.758
 6168TIP3    H240064   0.026   2.881   1.780
 6169TIP3   OH240065   4.259   5.279   7.217
 6169TIP3    H140066   4.336   5.312   7.264
 6169TIP3    H240067   4.186   5.328   7.255
 6170TIP3   OH240068   0.603   1.832   2.274
 6170TIP3    H140069   0.635   1.922   2.275
 6170TIP3    H240070   0.513   1.838   2.243
 6171TIP3   OH240071   5.034   4.838   7.864
 6171TIP3    H140072   5.085   4.912   7.833
 6171TIP3    H240073   5.056   4.831   7.957
 6172TIP3   OH240074   5.422   6.474   1.626
 6172TIP3    H140075   5.467   6.433   1.700
 6172TIP3    H240076   5.470   6.555   1.610
 6173TIP3   OH240077   1.927   4.391   6.566
 6173TIP3    H140078   1.909   4.435   6.649
 6173TIP3    H240079   1.986   4.450   6.519
 6174TIP3   OH240080   1.351   5.973   8.145
 6174TIP3    H140081   1.256   5.981   8.154
 6174TIP3    H240082   1.368   5.999   8.054
 6175TIP3   OH240083   6.576   5.563   8.132
 6175TIP3    H140084   6.631   5.637   8.156
 6175TIP3    H240085   6.635   5.504   8.085
 6176TIP3   OH240086   6.841   3.523   8.592
 6176TIP3    H140087   6.857   3.543   8.500
 6176TIP3    H240088   6.893   3.587   0.037
 6177TIP3   OH240089   6.032   4.324   1.376
 6177TIP3    H140090   5.937   4.319   1.390
 6177TIP3    H240091   6.066   4.361   1.457
 6178TIP3   OH240092   0.543   4.101   0.972
 6178TIP3    H140093   0.624   4.109   0.922
 6178TIP3    H240094   0.561   4.145   1.055
 6179TIP3   OH240095   6.215   3.735   8.240
 6179TIP3    H140096   6.172   3.818   8.262
 6179TIP3    H240097   6.156   3.694   8.177
 6180TIP3   OH240098   1.508   6.377   7.332
 6180TIP3    H140099   1.596   6.365   7.297
 6180TIP3    H240100   1.510   6.463   7.373
 6181TIP3   OH240101   0.213   0.436   8.384
 6181TIP3    H140102   0.162   0.511   8.416
 6181TIP3    H240103   0.240   0.390   8.464
 6182TIP3   OH240104   4.563   5.212   0.294
 6182TIP3    H140105   4.610   5.170   0.366
 6182TIP3    H240106   4.573   5.306   0.311
 6183TIP3   OH240107   2.897   4.988   0.115
 6183TIP3    H140108   2.852   4.912   0.151
 6183TIP3    H240109   2.827   5.047   0.088
 6184TIP3   OH240110   6.191   5.235   7.275
 6184TIP3    H140111   6.262   5.172   7.262
 6184TIP3    H240112   6.111   5.182   7.273
 6185TIP3   OH240113   2.038   6.744   1.397
 6185TIP3    H140114   2.006   6.829   1.425
 6185TIP3    H240115   2.133   6.749   1.409
 6186TIP3   OH240116   3.772   6.408   2.224
 6186TIP3    H140117   3.781   6.433   2.315
 6186TIP3    H240118   3.680   6.383   2.215
 6187TIP3   OH240119   5.375   5.444   1.904
 6187TIP3    H140120   5.330   5.431   1.987
 6187TIP3    H240121   5.466   5.420   1.922
 6188TIP3   OH240122   1.094   4.828   6.894
 6188TIP3    H140123   1.027   4.884   6.932
 6188TIP3    H240124   1.053   4.793   6.815
 6189TIP3   OH240125   1.155   1.503   8.462
 6189TIP3    H140126   1.249   1.488   8.456
 6189TIP3    H240127   1.133   1.479   8.552
 6190TIP3   OH240128   3.007   6.029   1.618
 6190TIP3    H140129   3.097   6.002   1.600
 6190TIP3    H240130   2.960   5.947   1.635
 6191TIP3   OH240131   3.199   2.141   0.878
 6191TIP3    H140132   3.235   2.146   0.790
 6191TIP3    H240133   3.111   2.178   0.871
 6192TIP3   OH240134   0.451   1.347   0.965
 6192TIP3    H140135   0.392   1.339   0.890
 6192TIP3    H240136   0.407   1.299   1.035
 6193TIP3   OH240137   5.939   1.343   6.895
 6193TIP3    H140138   5.984   1.419   6.857
 6193TIP3    H240139   5.869   1.323   6.832
 6194TIP3   OH240140   6.152   0.502   7.810
 6194TIP3    H140141   6.237   0.464   7.789
 6194TIP3    H240142   6.124   0.545   7.729
 6195TIP3   OH240143   6.720   4.997   0.524
 6195TIP3    H140144   6.794   4.937   0.513
 6195TIP3    H240145   6.760   5.080   0.551
 6196TIP3   OH240146   5.154   5.133   8.478
 6196TIP3    H140147   5.205   5.196   8.529
 6196TIP3    H240148   5.220   5.086   8.426
 6197TIP3   OH240149   1.968   0.876   8.351
 6197TIP3    H140150   1.994   0.968   8.361
 6197TIP3    H240151   2.048   0.832   8.322
 6198TIP3   OH240152   6.356   0.467   7.369
 6198TIP3    H140153   6.362   0.372   7.354
 6198TIP3    H240154   6.320   0.502   7.288
 6199TIP3   OH240155   2.873   3.228   7.703
 6199TIP3    H140156   2.797   3.258   7.654
 6199TIP3    H240157   2.945   3.281   7.670
 6200TIP3   OH240158   0.140   6.528   7.497
 6200TIP3    H140159   0.191   6.609   7.496
 6200TIP3    H240160   0.177   6.475   7.426
 6201TIP3   OH240161   1.512   5.938   7.765
 6201TIP3    H140162   1.606   5.930   7.779
 6201TIP3    H240163   1.481   5.990   7.839
 6202TIP3   OH240164   1.553   4.783   6.995
 6202TIP3    H140165   1.529   4.710   7.053
 6202TIP3    H240166   1.567   4.741   6.910
 6203TIP3   OH240167   2.125   5.856   0.873
 6203TIP3    H140168   2.036   5.890   0.870
 6203TIP3    H240169   2.170   5.899   0.800
 6204TIP3   OH240170   5.606   1.283   6.251
 6204TIP3    H140171   5.675   1.262   6.188
 6204TIP3    H240172   5.652   1.322   6.325
 6205TIP3   OH240173   5.300   0.283   7.784
 6205TIP3    H140174   5.375   0.324   7.740
 6205TIP3    H240175   5.241   0.356   7.804
 6206TIP3   OH240176   0.823   1.259   8.279
 6206TIP3    H140177   0.834   1.278   8.186
 6206TIP3    H240178   0.782   1.337   8.315
 6207TIP3   OH240179   6.455   4.577   7.018
 6207TIP3    H140180   6.367   4.613   7.010
 6207TIP3    H240181   6.485   4.564   6.928
 6208TIP3   OH240182   4.172   6.742   0.071
 6208TIP3    H140183   4.113   6.780   0.005
 6208TIP3    H240184   4.114   6.713   0.141
 6209TIP3   OH240185   4.789   0.219   1.171
 6209TIP3    H140186   4.771   0.162   1.245
 6209TIP3    H240187   4.835   0.294   1.208
 6210TIP3   OH240188   3.257   5.025   0.976
 6210TIP3    H140189   3.188   5.009   1.040
 6210TIP3    H240190   3.337   5.029   1.028
 6211TIP3   OH240191   0.536   5.745   8.008
 6211TIP3    H140192   0.576   5.825   8.041
 6211TIP3    H240193   0.462   5.729   8.067
 6212TIP3   OH240194   3.547   0.114   1.503
 6212TIP3    H140195   3.580   0.025   1.496
 6212TIP3    H240196   3.461   0.106   1.544
 6213TIP3   OH240197   4.301   4.274   2.650
 6213TIP3    H140198   4.262   4.360   2.666
 6213TIP3    H240199   4.336   4.280   2.561
 6214TIP3   OH240200   4.628   4.504   7.758
 6214TIP3    H140201   4.699   4.568   7.761
 6214TIP3    H240202   4.609   4.486   7.850
 6215TIP3   OH240203   1.643   3.248   8.247
 6215TIP3    H140204   1.616   3.338   8.230
 6215TIP3    H240205   1.699   3.255   8.324
 6216TIP3   OH240206   4.169   3.275   1.523
 6216TIP3    H140207   4.159   3.201   1.583
 6216TIP3    H240208   4.099   3.336   1.548
 6217TIP3   OH240209   3.948   2.194   1.614
 6217TIP3    H140210   3.900   2.174   1.534
 6217TIP3    H240211   3.926   2.124   1.674
 6218TIP3   OH240212   5.249   5.598   0.649
 6218TIP3    H140213   5.313   5.528   0.635
 6218TIP3    H240214   5.279   5.670   0.593
 6219TIP3   OH240215   5.089   6.206   7.131
 6219TIP3    H140216   5.112   6.199   7.224
 6219TIP3    H240217   5.084   6.300   7.115
 6220TIP3   OH240218   6.800   0.010   8.409
 6220TIP3    H140219   6.818   0.099   8.380
 6220TIP3    H240220   6.886   6.880   8.410
 6221TIP3   OH240221   3.610   6.811   0.860
 6221TIP3    H140222   3.535   6.789   0.804
 6221TIP3    H240223   3.571   6.830   0.945
 6222TIP3   OH240224   0.223   4.484   0.437
 6222TIP3    H140225   0.290   4.444   0.383
 6222TIP3    H240226   0.141   4.442   0.409
 6223TIP3   OH240227   6.433   2.592   2.294
 6223TIP3    H140228   6.466   2.603   2.383
 6223TIP3    H240229   6.465   2.506   2.267
 6224TIP3   OH240230   4.919   6.090   6.957
 6224TIP3    H140231   4.983   6.063   6.892
 6224TIP3    H240232   4.972   6.122   7.031
 6225TIP3   OH240233   5.822   3.511   7.140
 6225TIP3    H140234   5.913   3.500   7.165
 6225TIP3    H240235   5.776   3.530   7.222
 6226TIP3   OH240236   6.209   5.442   8.291
 6226TIP3    H140237   6.126   5.442   8.338
 6226TIP3    H240238   6.259   5.371   8.330
 6227TIP3   OH240239   4.081   2.322   1.937
 6227TIP3    H140240   4.009   2.291   1.991
 6227TIP3    H240241   4.109   2.245   1.887
 6228TIP3   OH240242   0.587   2.056   0.534
 6228TIP3    H140243   0.670   2.078   0.492
 6228TIP3    H240244   0.608   1.985   0.594
 6229TIP3   OH240245   3.954   1.694   2.032
 6229TIP3    H140246   4.005   1.737   2.100
 6229TIP3    H240247   3.869   1.740   2.032
 6230TIP3   OH240248   1.909   0.052   1.488
 6230TIP3    H140249   1.833   6.910   1.511
 6230TIP3    H240250   1.930   0.098   1.570
 6231TIP3   OH240251   5.541   1.693   0.709
 6231TIP3    H140252   5.517   1.740   0.630
 6231TIP3    H240253   5.632   1.666   0.694
 6232TIP3   OH240254   4.182   1.548   8.249
 6232TIP3    H140255   4.202   1.631   8.293
 6232TIP3    H240256   4.267   1.506   8.237
 6233TIP3   OH240257   3.668   0.171   1.233
 6233TIP3    H140258   3.618   0.165   1.314
 6233TIP3    H240259   3.623   0.113   1.173
 6234TIP3   OH240260   1.641   2.707   8.191
 6234TIP3    H140261   1.641   2.803   8.195
 6234TIP3    H240262   1.694   2.681   8.266
 6235TIP3   OH240263   5.695   6.059   7.200
 6235TIP3    H140264   5.701   6.133   7.140
 6235TIP3    H240265   5.602   6.036   7.201
 6236TIP3   OH240266   1.768   3.111   1.417
 6236TIP3    H140267   1.777   3.173   1.345
 6236TIP3    H240268   1.696   3.054   1.391
 6237TIP3   OH240269   3.837   3.675   6.830
 6237TIP3    H140270   3.849   3.631   6.746
 6237TIP3    H240271   3.898   3.631   6.889
 6238TIP3   OH240272   5.046   2.476   7.273
 6238TIP3    H140273   4.975   2.539   7.287
 6238TIP3    H240274   5.114   2.501   7.336
 6239TIP3   OH240275   3.782   6.804   8.018
 6239TIP3    H140276   3.838   6.879   8.038
 6239TIP3    H240277   3.842   6.733   7.997
 6240TIP3   OH240278   5.893   0.627   1.146
 6240TIP3    H140279   5.878   0.695   1.211
 6240TIP3    H240280   5.846   0.656   1.068
 6241TIP3   OH240281   4.243   6.614   0.930
 6241TIP3    H140282   4.196   6.695   0.952
 6241TIP3    H240283   4.317   6.643   0.878
 6242TIP3   OH240284   1.497   6.384   8.033
 6242TIP3    H140285   1.464   6.439   7.962
 6242TIP3    H240286   1.418   6.343   8.069
 6243TIP3   OH240287   3.092   0.791   1.415
 6243TIP3    H140288   3.092   0.695   1.418
 6243TIP3    H240289   3.089   0.818   1.507
 6244TIP3   OH240290   0.205   6.198   2.009
 6244TIP3    H140291   0.238   6.113   1.982
 6244TIP3    H240292   0.110   6.186   2.015
 6245TIP3   OH240293   6.442   6.154   1.427
 6245TIP3    H140294   6.524   6.191   1.395
 6245TIP3    H240295   6.455   6.059   1.423
 6246TIP3   OH240296   3.693   1.813   0.229
 6246TIP3    H140297   3.682   1.793   0.136
 6246TIP3    H240298   3.630   1.757   0.274
 6247TIP3   OH240299   0.220   2.132   8.331
 6247TIP3    H140300   0.210   2.110   8.423
 6247TIP3    H240301   0.136   2.169   8.306
 6248TIP3   OH240302   1.118   0.667   7.941
 6248TIP3    H140303   1.064   0.590   7.920
 6248TIP3    H240304   1.120   0.668   8.037
 6249TIP3   OH240305   6.438   2.800   0.756
 6249TIP3    H140306   6.458   2.769   0.844
 6249TIP3    H240307   6.377   2.872   0.768
 6250TIP3   OH240308   3.145   3.336   7.263
 6250TIP3    H140309   3.167   3.430   7.266
 6250TIP3    H240310   3.054   3.334   7.232
 6251TIP3   OH240311   1.532   1.407   6.096
 6251TIP3    H140312   1.617   1.373   6.126
 6251TIP3    H240313   1.494   1.449   6.174
 6252TIP3   OH240314   1.257   4.239   1.123
 6252TIP3    H140315   1.339   4.278   1.151
 6252TIP3    H240316   1.251   4.257   1.030
 6253TIP3   OH240317   4.004   0.412   7.062
 6253TIP3    H140318   4.005   0.364   7.144
 6253TIP3    H240319   4.055   0.357   7.001
 6254TIP3   OH240320   5.444   4.022   7.199
 6254TIP3    H140321   5.402   4.106   7.182
 6254TIP3    H240322   5.527   4.027   7.151
 6255TIP3   OH240323   5.699   6.610   7.642
 6255TIP3    H140324   5.726   6.530   7.598
 6255TIP3    H240325   5.697   6.676   7.572
 6256TIP3   OH240326   5.145   1.599   8.519
 6256TIP3    H140327   5.194   1.591   8.601
 6256TIP3    H240328   5.191   1.667   8.470
 6257TIP3   OH240329   1.583   1.672   7.418
 6257TIP3    H140330   1.488   1.665   7.419
 6257TIP3    H240331   1.601   1.758   7.380
 6258TIP3   OH240332   3.307   2.635   0.599
 6258TIP3    H140333   3.230   2.691   0.588
 6258TIP3    H240334   3.271   2.549   0.620
 6259TIP3   OH240335   4.435   3.674   7.848
 6259TIP3    H140336   4.527   3.698   7.852
 6259TIP3    H240337   4.425   3.630   7.764
 6260TIP3   OH240338   0.827   2.149   0.752
 6260TIP3    H140339   0.745   2.197   0.741
 6260TIP3    H240340   0.879   2.174   0.676
 6261TIP3   OH240341   3.334   2.364   8.203
 6261TIP3    H140342   3.280   2.415   8.263
 6261TIP3    H240343   3.272   2.306   8.158
 6262TIP3   OH240344   4.766   3.572   8.130
 6262TIP3    H140345   4.746   3.570   8.223
 6262TIP3    H240346   4.794   3.482   8.109
 6263TIP3   OH240347   2.733   0.692   1.488
 6263TIP3    H140348   2.678   0.679   1.565
 6263TIP3    H240349   2.740   0.787   1.480
 6264TIP3   OH240350   3.178   0.739   0.451
 6264TIP3    H140351   3.110   0.788   0.404
 6264TIP3    H240352   3.253   0.740   0.391
 6265TIP3   OH240353   3.312   5.057   1.444
 6265TIP3    H140354   3.331   5.136   1.493
 6265TIP3    H240355   3.223   5.070   1.410
 6266TIP3   OH240356   6.075   5.070   0.991
 6266TIP3    H140357   6.008   5.133   0.966
 6266TIP3    H240358   6.031   5.014   1.055
 6267TIP3   OH240359   6.899   5.282   7.335
 6267TIP3    H140360   0.079   5.307   7.324
 6267TIP3    H240361   6.862   5.350   7.391
 6268TIP3   OH240362   0.973   1.392   7.852
 6268TIP3    H140363   0.974   1.474   7.803
 6268TIP3    H240364   1.041   1.403   7.918
 6269TIP3   OH240365   5.561   6.180   7.997
 6269TIP3    H140366   5.629   6.230   8.042
 6269TIP3    H240367   5.558   6.096   8.043
 6270TIP3   OH240368   6.254   1.841   7.348
 6270TIP3    H140369   6.254   1.771   7.414
 6270TIP3    H240370   6.342   1.839   7.311
 6271TIP3   OH240371   0.072   6.883   8.116
 6271TIP3    H140372   0.163   6.861   8.096
 6271TIP3    H240373   0.077   0.053   8.165
 6272TIP3   OH240374   2.104   0.876   6.647
 6272TIP3    H140375   2.051   0.849   6.722
 6272TIP3    H240376   2.073   0.821   6.575
 6273TIP3   OH240377   1.853   5.998   0.455
 6273TIP3    H140378   1.766   6.038   0.453
 6273TIP3    H240379   1.863   5.957   0.369
 6274TIP3   OH240380   2.570   4.298   6.828
 6274TIP3    H140381   2.638   4.233   6.849
 6274TIP3    H240382   2.618   4.380   6.820
 6275TIP3   OH240383   3.706   0.845   7.512
 6275TIP3    H140384   3.790   0.838   7.558
 6275TIP3    H240385   3.726   0.815   7.423
 6276TIP3   OH240386   4.112   2.028   1.008
 6276TIP3    H140387   4.170   1.968   1.055
 6276TIP3    H240388   4.083   2.090   1.075
 6277TIP3   OH240389   3.346   2.648   8.088
 6277TIP3    H140390   3.284   2.704   8.041
 6277TIP3    H240391   3.328   2.560   8.056
 6278TIP3   OH240392   2.592   3.035   1.654
 6278TIP3    H140393   2.675   2.995   1.681
 6278TIP3    H240394   2.533   2.961   1.640
 6279TIP3   OH240395   3.408   5.583   1.052
 6279TIP3    H140396   3.411   5.526   1.128
 6279TIP3    H240397   3.487   5.561   1.002
 6280TIP3   OH240398   2.770   5.018   0.755
 6280TIP3    H140399   2.729   4.939   0.792
 6280TIP3    H240400   2.858   5.018   0.792
 6281TIP3   OH240401   5.906   1.147   7.073
 6281TIP3    H140402   5.908   1.228   7.023
 6281TIP3    H240403   5.856   1.086   7.019
 6282TIP3   OH240404   1.859   5.829   1.604
 6282TIP3    H140405   1.863   5.790   1.516
 6282TIP3    H240406   1.781   5.790   1.643
 6283TIP3   OH240407   2.357   6.227   7.070
 6283TIP3    H140408   2.339   6.320   7.061
 6283TIP3    H240409   2.453   6.221   7.070
 6284TIP3   OH240410   6.003   5.744   7.747
 6284TIP3    H140411   5.953   5.825   7.758
 6284TIP3    H240412   5.949   5.676   7.787
 6285TIP3   OH240413   4.510   6.351   1.022
 6285TIP3    H140414   4.417   6.359   1.043
 6285TIP3    H240415   4.546   6.300   1.094
 6286TIP3   OH240416   1.161   0.020   1.078
 6286TIP3    H140417   1.221   6.859   1.090
 6286TIP3    H240418   1.074   6.896   1.094
 6287TIP3   OH240419   5.498   0.796   2.385
 6287TIP3    H140420   5.534   0.876   2.348
 6287TIP3    H240421   5.573   0.751   2.424
 6288TIP3   OH240422   4.441   6.441   0.703
 6288TIP3    H140423   4.477   6.360   0.740
 6288TIP3    H240424   4.517   6.488   0.670
 6289TIP3   OH240425   4.584   6.774   2.456
 6289TIP3    H140426   4.500   6.817   2.476
 6289TIP3    H240427   4.565   6.681   2.462
 6290TIP3   OH240428   4.142   0.846   1.899
 6290TIP3    H140429   4.076   0.911   1.875
 6290TIP3    H240430   4.196   0.890   1.965
 6291TIP3   OH240431   6.565   4.288   6.672
 6291TIP3    H140432   6.569   4.244   6.587
 6291TIP3    H240433   6.472   4.303   6.686
 6292TIP3   OH240434   3.194   1.461   0.903
 6292TIP3    H140435   3.156   1.386   0.857
 6292TIP3    H240436   3.158   1.537   0.858
 6293TIP3   OH240437   4.108   0.236   0.888
 6293TIP3    H140438   4.119   0.208   0.979
 6293TIP3    H240439   4.014   0.252   0.879
 6294TIP3   OH240440   6.100   4.679   1.661
 6294TIP3    H140441   6.183   4.704   1.701
 6294TIP3    H240442   6.082   4.591   1.694
 6295TIP3   OH240443   2.517   5.572   0.021
 6295TIP3    H140444   2.562   5.596   0.102
 6295TIP3    H240445   2.425   5.591   0.038
 6296TIP3   OH240446   1.482   6.341   0.761
 6296TIP3    H140447   1.453   6.254   0.736
 6296TIP3    H240448   1.556   6.326   0.820
 6297TIP3   OH240449   0.493   4.419   8.127
 6297TIP3    H140450   0.423   4.406   8.063
 6297TIP3    H240451   0.449   4.421   8.211
 6298TIP3   OH240452   4.207   2.643   6.518
 6298TIP3    H140453   4.202   2.576   6.450
 6298TIP3    H240454   4.269   2.707   6.484
 6299TIP3   OH240455   1.953   1.362   7.119
 6299TIP3    H140456   2.017   1.351   7.049
 6299TIP3    H240457   1.933   1.455   7.119
 6300TIP3   OH240458   3.205   1.271   0.078
 6300TIP3    H140459   3.279   1.222   0.043
 6300TIP3    H240460   3.168   1.215   0.146
 6301TIP3   OH240461   3.612   4.649   8.096
 6301TIP3    H140462   3.630   4.664   8.003
 6301TIP3    H240463   3.619   4.554   8.106
 6302TIP3   OH240464   5.790   0.515   7.616
 6302TIP3    H140465   5.817   0.437   7.567
 6302TIP3    H240466   5.720   0.484   7.673
 6303TIP3   OH240467   1.949   3.992   7.771
 6303TIP3    H140468   2.041   4.002   7.746
 6303TIP3    H240469   1.922   4.080   7.799
 6304TIP3   OH240470   1.891   3.974   1.074
 6304TIP3    H140471   1.800   3.976   1.044
 6304TIP3    H240472   1.886   3.996   1.167
 6305TIP3   OH240473   1.964   2.643   1.810
 6305TIP3    H140474   1.917   2.707   1.864
 6305TIP3    H240475   1.915   2.640   1.728
 6306TIP3   OH240476   0.556   2.527   0.624
 6306TIP3    H140477   0.502   2.567   0.556
 6306TIP3    H240478   0.559   2.594   0.693
 6307TIP3   OH240479   3.608   2.693   8.583
 6307TIP3    H140480   3.528   2.641   8.576
 6307TIP3    H240481   3.609   2.746   8.503
 6308TIP3   OH240482   5.511   4.642   1.162
 6308TIP3    H140483   5.597   4.605   1.184
 6308TIP3    H240484   5.531   4.723   1.116
 6309TIP3   OH240485   3.255   5.607   7.236
 6309TIP3    H140486   3.174   5.605   7.288
 6309TIP3    H240487   3.251   5.527   7.184
 6310TIP3   OH240488   3.917   5.008   8.201
 6310TIP3    H140489   3.821   4.999   8.203
 6310TIP3    H240490   3.933   5.084   8.146
 6311TIP3   OH240491   3.561   2.707   0.684
 6311TIP3    H140492   3.473   2.685   0.653
 6311TIP3    H240493   3.593   2.626   0.724
 6312TIP3   OH240494   5.516   6.248   0.347
 6312TIP3    H140495   5.533   6.241   0.253
 6312TIP3    H240496   5.602   6.263   0.386
 6313TIP3   OH240497   3.031   4.159   0.719
 6313TIP3    H140498   2.992   4.200   0.642
 6313TIP3    H240499   3.028   4.227   0.786
 6314TIP3   OH240500   3.994   0.928   8.550
 6314TIP3    H140501   4.060   0.997   8.558
 6314TIP3    H240502   4.011   0.887   8.465
 6315TIP3   OH240503   5.857   1.591   7.436
 6315TIP3    H140504   5.787   1.557   7.492
 6315TIP3    H240505   5.830   1.567   7.347
 6316TIP3   OH240506   3.976   2.079   8.364
 6316TIP3    H140507   4.032   2.045   8.434
 6316TIP3    H240508   3.927   2.150   8.405
 6317TIP3   OH240509   5.152   1.505   0.448
 6317TIP3    H140510   5.170   1.413   0.428
 6317TIP3    H240511   5.150   1.509   0.543
 6318TIP3   OH240512   4.402   3.442   6.997
 6318TIP3    H140513   4.336   3.495   6.952
 6318TIP3    H240514   4.468   3.506   7.026
 6319TIP3   OH240515   2.869   0.311   8.059
 6319TIP3    H140516   2.855   0.352   8.144
 6319TIP3    H240517   2.788   0.265   8.040
 6320TIP3   OH240518   5.945   3.533   1.559
 6320TIP3    H140519   5.952   3.445   1.523
 6320TIP3    H240520   5.947   3.591   1.483
 6321TIP3   OH240521   5.853   3.889   0.224
 6321TIP3    H140522   5.861   3.984   0.228
 6321TIP3    H240523   5.877   3.866   0.135
 6322TIP3   OH240524   4.698   2.886   8.018
 6322TIP3    H140525   4.647   2.963   7.993
 6322TIP3    H240526   4.776   2.922   8.061
 6323TIP3   OH240527   3.272   4.107   0.200
 6323TIP3    H140528   3.311   4.026   0.234
 6323TIP3    H240529   3.211   4.078   0.132
 6324TIP3   OH240530   5.577   3.790   1.298
 6324TIP3    H140531   5.532   3.873   1.314
 6324TIP3    H240532   5.530   3.751   1.224
 6325TIP3   OH240533   0.985   4.226   7.864
 6325TIP3    H140534   0.956   4.182   7.784
 6325TIP3    H240535   0.905   4.259   7.904
 6326TIP3   OH240536   1.149   1.100   7.091
 6326TIP3    H140537   1.120   1.021   7.137
 6326TIP3    H240538   1.163   1.071   7.001
 6327TIP3   OH240539   5.159   5.060   7.794
 6327TIP3    H140540   5.159   5.156   7.789
 6327TIP3    H240541   5.152   5.031   7.704
 6328TIP3   OH240542   0.866   3.768   1.555
 6328TIP3    H140543   0.925   3.738   1.625
 6328TIP3    H240544   0.917   3.832   1.506
 6329TIP3   OH240545   1.234   5.717   6.999
 6329TIP3    H140546   1.253   5.795   7.052
 6329TIP3    H240547   1.168   5.669   7.049
 6330TIP3   OH240548   1.338   4.375   1.420
 6330TIP3    H140549   1.343   4.291   1.465
 6330TIP3    H240550   1.399   4.365   1.346
 6331TIP3   OH240551   5.124   3.464   0.199
 6331TIP3    H140552   5.145   3.418   0.280
 6331TIP3    H240553   5.193   3.530   0.190
 6332TIP3   OH240554   2.401   5.800   7.405
 6332TIP3    H140555   2.339   5.736   7.370
 6332TIP3    H240556   2.486   5.758   7.398
 6333TIP3   OH240557   4.920   0.547   2.392
 6333TIP3    H140558   4.967   0.518   2.470
 6333TIP3    H240559   4.827   0.533   2.414
 6334TIP3   OH240560   5.574   2.044   0.075
 6334TIP3    H140561   5.647   1.995   0.038
 6334TIP3    H240562   5.584   2.037   0.170
 6335TIP3   OH240563   3.960   5.836   7.512
 6335TIP3    H140564   4.050   5.831   7.544
 6335TIP3    H240565   3.930   5.745   7.508
 6336TIP3   OH240566   6.815   5.579   0.305
 6336TIP3    H140567   6.910   5.585   0.316
 6336TIP3    H240568   6.780   5.621   0.383
 6337TIP3   OH240569   1.917   6.764   7.111
 6337TIP3    H140570   2.011   6.770   7.126
 6337TIP3    H240571   1.883   6.851   7.130
 6338TIP3   OH240572   2.471   2.499   8.466
 6338TIP3    H140573   2.480   2.591   8.441
 6338TIP3    H240574   2.381   2.476   8.444
 6339TIP3   OH240575   1.667   3.628   7.365
 6339TIP3    H140576   1.706   3.633   7.278
 6339TIP3    H240577   1.647   3.719   7.388
 6340TIP3   OH240578   6.192   1.019   8.443
 6340TIP3    H140579   6.163   1.110   8.452
 6340TIP3    H240580   6.248   1.020   8.365
 6341TIP3   OH240581   4.845   6.747   7.656
 6341TIP3    H140582   4.755   6.723   7.679
 6341TIP3    H240583   4.839   6.840   7.632
 6342TIP3   OH240584   5.355   4.978   7.372
 6342TIP3    H140585   5.324   4.960   7.283
 6342TIP3    H240586   5.275   4.977   7.425
 6343TIP3   OH240587   5.530   3.520   6.687
 6343TIP3    H140588   5.617   3.480   6.689
 6343TIP3    H240589   5.524   3.558   6.599
 6344TIP3   OH240590   6.110   6.755   6.437
 6344TIP3    H140591   6.072   6.816   6.500
 6344TIP3    H240592   6.195   6.733   6.475
 6345TIP3   OH240593   6.220   4.415   1.575
 6345TIP3    H140594   6.262   4.336   1.539
 6345TIP3    H240595   6.289   4.482   1.570
 6346TIP3   OH240596   6.254   2.481   8.337
 6346TIP3    H140597   6.324   2.510   8.395
 6346TIP3    H240598   6.293   2.486   8.249
 6347TIP3   OH240599   2.353   6.080   7.397
 6347TIP3    H140600   2.432   6.121   7.433
 6347TIP3    H240601   2.368   5.986   7.408
 6348TIP3   OH240602   6.718   2.761   0.782
 6348TIP3    H140603   6.754   2.757   0.694
 6348TIP3    H240604   6.633   2.803   0.772
 6349TIP3   OH240605   6.232   4.656   1.974
 6349TIP3    H140606   6.164   4.647   2.041
 6349TIP3    H240607   6.252   4.566   1.949
 6350TIP3   OH240608   2.025   0.307   7.284
 6350TIP3    H140609   2.033   0.387   7.335
 6350TIP3    H240610   2.112   0.267   7.287
 6351TIP3   OH240611   5.584   6.642   1.441
 6351TIP3    H140612   5.634   6.718   1.415
 6351TIP3    H240613   5.639   6.567   1.418
 6352TIP3   OH240614   6.719   2.129   7.518
 6352TIP3    H140615   6.726   2.118   7.423
 6352TIP3    H240616   6.799   2.089   7.553
 6353TIP3   OH240617   3.252   6.354   0.538
 6353TIP3    H140618   3.227   6.301   0.462
 6353TIP3    H240619   3.194   6.325   0.608
 6354TIP3   OH240620   0.528   3.070   7.767
 6354TIP3    H140621   0.473   3.015   7.712
 6354TIP3    H240622   0.603   3.014   7.790
 6355TIP3   OH240623   3.060   5.741   6.263
 6355TIP3    H140624   3.111   5.805   6.313
 6355TIP3    H240625   3.126   5.681   6.227
 6356TIP3   OH240626   5.867   3.537   1.270
 6356TIP3    H140627   5.840   3.628   1.267
 6356TIP3    H240628   5.835   3.499   1.188
 6357TIP3   OH240629   1.362   6.073   0.699
 6357TIP3    H140630   1.437   6.040   0.649
 6357TIP3    H240631   1.328   5.996   0.743
 6358TIP3   OH240632   6.011   6.561   6.667
 6358TIP3    H140633   6.078   6.512   6.620
 6358TIP3    H240634   5.982   6.502   6.736
 6359TIP3   OH240635   4.450   4.715   0.142
 6359TIP3    H140636   4.490   4.723   0.229
 6359TIP3    H240637   4.515   4.750   0.082
 6360TIP3   OH240638   3.294   2.969   6.461
 6360TIP3    H140639   3.255   3.048   6.424
 6360TIP3    H240640   3.246   2.897   6.419
 6361TIP3   OH240641   5.975   3.456   2.316
 6361TIP3    H140642   6.055   3.423   2.275
 6361TIP3    H240643   6.006   3.522   2.379
 6362TIP3   OH240644   3.673   3.052   8.058
 6362TIP3    H140645   3.665   3.040   8.152
 6362TIP3    H240646   3.592   3.017   8.022
 6363TIP3   OH240647   2.562   5.927   0.184
 6363TIP3    H140648   2.573   6.022   0.181
 6363TIP3    H240649   2.617   5.894   0.113
 6364TIP3   OH240650   6.837   6.597   1.144
 6364TIP3    H140651   6.866   6.621   1.056
 6364TIP3    H240652   6.838   6.501   1.145
 6365TIP3   OH240653   2.022   6.116   1.215
 6365TIP3    H140654   1.946   6.098   1.270
 6365TIP3    H240655   2.046   6.206   1.236
 6366TIP3   OH240656   6.737   2.668   0.123
 6366TIP3    H140657   6.776   2.589   0.162
 6366TIP3    H240658   6.773   2.740   0.175
 6367TIP3   OH240659   6.621   4.193   7.123
 6367TIP3    H140660   6.661   4.265   7.172
 6367TIP3    H240661   6.528   4.217   7.117
 6368TIP3   OH240662   2.896   2.556   1.703
 6368TIP3    H140663   2.842   2.516   1.772
 6368TIP3    H240664   2.963   2.605   1.751
 6369TIP3   OH240665   2.731   3.528   0.437
 6369TIP3    H140666   2.815   3.494   0.406
 6369TIP3    H240667   2.716   3.606   0.383
 6370TIP3   OH240668   1.152   2.014   0.776
 6370TIP3    H140669   1.242   2.017   0.807
 6370TIP3    H240670   1.099   2.043   0.850
 6371TIP3   OH240671   6.342   3.769   0.637
 6371TIP3    H140672   6.382   3.702   0.693
 6371TIP3    H240673   6.287   3.719   0.576
 6372TIP3   OH240674   2.267   1.777   1.265
 6372TIP3    H140675   2.303   1.825   1.190
 6372TIP3    H240676   2.266   1.842   1.336
 6373TIP3   OH240677   2.424   0.185   0.252
 6373TIP3    H140678   2.481   0.163   0.326
 6373TIP3    H240679   2.477   0.242   0.197
 6374TIP3   OH240680   0.603   4.459   1.429
 6374TIP3    H140681   0.677   4.399   1.441
 6374TIP3    H240682   0.629   4.514   1.355
 6375TIP3   OH240683   0.022   6.380   8.271
 6375TIP3    H140684   6.903   6.323   8.201
 6375TIP3    H240685   0.027   6.466   8.231
 6376TIP3   OH240686   5.586   4.428   8.070
 6376TIP3    H140687   5.669   4.394   8.038
 6376TIP3    H240688   5.520   4.367   8.036
 6377TIP3   OH240689   4.662   4.969   0.484
 6377TIP3    H140690   4.749   4.954   0.447
 6377TIP3    H240691   4.669   5.054   0.527
 6378TIP3   OH240692   6.374   0.763   7.718
 6378TIP3    H140693   6.369   0.824   7.645
 6378TIP3    H240694   6.442   0.799   7.775
 6379TIP3   OH240695   0.214   3.689   1.229
 6379TIP3    H140696   0.305   3.661   1.220
 6379TIP3    H240697   0.216   3.757   1.296
 6380TIP3   OH240698   2.570   2.796   0.006
 6380TIP3    H140699   2.591   2.863   8.544
 6380TIP3    H240700   2.531   2.844   0.078
 6381TIP3   OH240701   4.261   4.670   6.798
 6381TIP3    H140702   4.201   4.599   6.820
 6381TIP3    H240703   4.258   4.676   6.703
 6382TIP3   OH240704   4.801   6.369   7.149
 6382TIP3    H140705   4.804   6.283   7.108
 6382TIP3    H240706   4.714   6.403   7.127
 6383TIP3   OH240707   3.563   4.857   0.018
 6383TIP3    H140708   3.578   4.785   0.079
 6383TIP3    H240709   3.471   4.850   8.597
 6384TIP3   OH240710   2.635   2.097   7.553
 6384TIP3    H140711   2.555   2.050   7.531
 6384TIP3    H240712   2.698   2.028   7.575
 6385TIP3   OH240713   0.841   3.134   6.831
 6385TIP3    H140714   0.749   3.129   6.805
 6385TIP3    H240715   0.886   3.164   6.752
 6386TIP3   OH240716   1.096   1.599   0.574
 6386TIP3    H140717   1.054   1.525   0.530
 6386TIP3    H240718   1.163   1.559   0.629
 6387TIP3   OH240719   2.798   0.066   1.391
 6387TIP3    H140720   2.831   0.080   1.303
 6387TIP3    H240721   2.873   0.031   1.440
 6388TIP3   OH240722   4.878   5.138   1.246
 6388TIP3    H140723   4.883   5.142   1.341
 6388TIP3    H240724   4.948   5.197   1.216
 6389TIP3   OH240725   0.770   0.814   6.157
 6389TIP3    H140726   0.864   0.834   6.159
 6389TIP3    H240727   0.763   0.743   6.094
 6390TIP3   OH240728   3.157   0.653   6.424
 6390TIP3    H140729   3.173   0.562   6.402
 6390TIP3    H240730   3.191   0.663   6.513
 6391TIP3   OH240731   4.315   1.853   1.156
 6391TIP3    H140732   4.409   1.852   1.176
 6391TIP3    H240733   4.295   1.763   1.130
 6392TIP3   OH240734   2.607   2.501   7.773
 6392TIP3    H140735   2.619   2.491   7.678
 6392TIP3    H240736   2.524   2.458   7.791
 6393TIP3   OH240737   4.348   4.254   7.442
 6393TIP3    H140738   4.265   4.207   7.449
 6393TIP3    H240739   4.414   4.186   7.432
 6394TIP3   OH240740   3.452   3.288   8.340
 6394TIP3    H140741   3.543   3.302   8.366
 6394TIP3    H240742   3.424   3.211   8.391
 6395TIP3   OH240743   2.496   2.612   7.221
 6395TIP3    H140744   2.444   2.584   7.296
 6395TIP3    H240745   2.512   2.705   7.236
 6396TIP3   OH240746   4.168   4.313   7.175
 6396TIP3    H140747   4.177   4.268   7.091
 6396TIP3    H240748   4.129   4.246   7.233
 6397TIP3   OH240749   6.213   3.552   7.250
 6397TIP3    H140750   6.303   3.568   7.221
 6397TIP3    H240751   6.176   3.640   7.262
 6398TIP3   OH240752   1.396   5.580   0.036
 6398TIP3    H140753   1.343   5.529   8.577
 6398TIP3    H240754   1.355   5.666   0.037
 6399TIP3   OH240755   0.255   2.487   8.320
 6399TIP3    H140756   0.198   2.430   8.270
 6399TIP3    H240757   0.204   2.567   8.333
 6400TIP3   OH240758   2.784   3.628   0.713
 6400TIP3    H140759   2.789   3.684   0.635
 6400TIP3    H240760   2.765   3.541   0.678
 6401TIP3   OH240761   4.071   5.220   7.875
 6401TIP3    H140762   4.156   5.237   7.916
 6401TIP3    H240763   4.088   5.227   7.782
 6402TIP3   OH240764   6.230   2.231   0.482
 6402TIP3    H140765   6.264   2.307   0.530
 6402TIP3    H240766   6.266   2.241   0.394
 6403TIP3   OH240767   4.689   0.664   7.293
 6403TIP3    H140768   4.729   0.665   7.206
 6403TIP3    H240769   4.608   0.614   7.282
 6404TIP3   OH240770   6.426   2.577   1.439
 6404TIP3    H140771   6.431   2.579   1.535
 6404TIP3    H240772   6.494   2.515   1.413
 6405TIP3   OH240773   3.843   0.198   8.558
 6405TIP3    H140774   3.906   0.195   0.026
 6405TIP3    H240775   3.758   0.182   8.600
 6406TIP3   OH240776   3.291   1.800   7.192
 6406TIP3    H140777   3.213   1.826   7.240
 6406TIP3    H240778   3.346   1.878   7.191
 6407TIP3   OH240779   6.459   4.855   7.627
 6407TIP3    H140780   6.504   4.794   7.568
 6407TIP3    H240781   6.371   4.819   7.637
 6408TIP3   OH240782   0.583   0.496   0.279
 6408TIP3    H140783   0.558   0.406   0.260
 6408TIP3    H240784   0.515   0.550   0.238
 6409TIP3   OH240785   0.740   1.094   1.046
 6409TIP3    H140786   0.682   1.066   0.976
 6409TIP3    H240787   0.806   1.149   1.003
 6410TIP3   OH240788   2.347   5.240   7.084
 6410TIP3    H140789   2.360   5.243   6.989
 6410TIP3    H240790   2.253   5.247   7.096
 6411TIP3   OH240791   6.691   2.442   8.267
 6411TIP3    H140792   6.608   2.440   8.315
 6411TIP3    H240793   6.730   2.526   8.291
 6412TIP3   OH240794   2.986   2.332   0.834
 6412TIP3    H140795   2.931   2.410   0.844
 6412TIP3    H240796   2.924   2.261   0.816
 6413TIP3   OH240797   0.315   6.753   7.607
 6413TIP3    H140798   0.407   6.749   7.580
 6413TIP3    H240799   0.318   6.745   7.702
 6414TIP3   OH240800   6.483   3.721   2.124
 6414TIP3    H140801   6.428   3.645   2.148
 6414TIP3    H240802   6.422   3.782   2.083
 6415TIP3   OH240803   3.597   5.750   7.341
 6415TIP3    H140804   3.565   5.736   7.430
 6415TIP3    H240805   3.630   5.840   7.342
 6416TIP3   OH240806   2.214   6.373   8.395
 6416TIP3    H140807   2.220   6.454   8.446
 6416TIP3    H240808   2.204   6.403   8.305
 6417TIP3   OH240809   2.907   0.200   6.927
 6417TIP3    H140810   2.923   0.111   6.959
 6417TIP3    H240811   2.822   0.194   6.883
 6418TIP3   OH240812   0.176   5.432   7.587
 6418TIP3    H140813   0.230   5.398   7.515
 6418TIP3    H240814   0.152   5.354   7.637
 6419TIP3   OH240815   0.299   4.331   1.042
 6419TIP3    H140816   0.274   4.419   1.069
 6419TIP3    H240817   0.334   4.291   1.121
 6420TIP3   OH240818   3.018   0.649   7.057
 6420TIP3    H140819   3.046   0.559   7.037
 6420TIP3    H240820   3.097   0.702   7.045
 6421TIP3   OH240821   6.371   3.512   7.825
 6421TIP3    H140822   6.385   3.492   7.918
 6421TIP3    H240823   6.316   3.441   7.793
 6422TIP3   OH240824   5.620   2.059   0.350
 6422TIP3    H140825   5.559   2.011   0.406
 6422TIP3    H240826   5.624   2.147   0.390
 6423TIP3   OH240827   6.866   3.506   1.601
 6423TIP3    H140828   6.899   3.541   1.683
 6423TIP3    H240829   0.029   3.509   1.541
 6424TIP3   OH240830   5.307   2.724   6.752
 6424TIP3    H140831   5.361   2.777   6.693
 6424TIP3    H240832   5.225   2.712   6.705
 6425TIP3   OH240833   5.746   6.238   6.794
 6425TIP3    H140834   5.759   6.285   6.711
 6425TIP3    H240835   5.710   6.153   6.768
 6426TIP3   OH240836   0.574   3.656   0.131
 6426TIP3    H140837   0.549   3.745   0.106
 6426TIP3    H240838   0.590   3.661   0.226
 6427TIP3   OH240839   2.191   4.908   0.911
 6427TIP3    H140840   2.123   4.840   0.907
 6427TIP3    H240841   2.230   4.907   0.824
 6428TIP3   OH240842   6.808   5.906   0.161
 6428TIP3    H140843   6.776   5.931   0.074
 6428TIP3    H240844   6.901   5.887   0.147
 6429TIP3   OH240845   2.745   5.347   1.675
 6429TIP3    H140846   2.705   5.401   1.743
 6429TIP3    H240847   2.820   5.398   1.645
 6430TIP3   OH240848   6.173   2.675   6.658
 6430TIP3    H140849   6.197   2.601   6.602
 6430TIP3    H240850   6.180   2.751   6.600
 6431TIP3   OH240851   1.475   4.203   6.702
 6431TIP3    H140852   1.496   4.270   6.767
 6431TIP3    H240853   1.379   4.199   6.702
 6432TIP3   OH240854   3.711   3.087   2.160
 6432TIP3    H140855   3.719   3.052   2.072
 6432TIP3    H240856   3.773   3.159   2.164
 6433TIP3   OH240857   4.383   1.780   0.463
 6433TIP3    H140858   4.420   1.849   0.519
 6433TIP3    H240859   4.457   1.748   0.412
 6434TIP3   OH240860   1.388   2.710   8.557
 6434TIP3    H140861   1.327   2.704   0.027
 6434TIP3    H240862   1.469   2.672   8.591
 6435TIP3   OH240863   5.211   4.979   8.207
 6435TIP3    H140864   5.254   4.950   8.126
 6435TIP3    H240865   5.273   5.039   8.247
 6436TIP3   OH240866   2.846   1.483   1.239
 6436TIP3    H140867   2.912   1.442   1.295
 6436TIP3    H240868   2.888   1.487   1.153
 6437TIP3   OH240869   2.509   3.932   1.434
 6437TIP3    H140870   2.551   3.925   1.348
 6437TIP3    H240871   2.543   3.858   1.484
 6438TIP3   OH240872   5.598   2.592   7.784
 6438TIP3    H140873   5.534   2.659   7.807
 6438TIP3    H240874   5.671   2.605   7.845
 6439TIP3   OH240875   4.836   4.921   7.397
 6439TIP3    H140876   4.779   4.987   7.437
 6439TIP3    H240877   4.785   4.841   7.398
 6440TIP3   OH240878   6.132   1.192   2.134
 6440TIP3    H140879   6.213   1.154   2.099
 6440TIP3    H240880   6.088   1.119   2.176
 6441TIP3   OH240881   6.016   3.162   8.216
 6441TIP3    H140882   5.954   3.137   8.285
 6441TIP3    H240883   6.094   3.108   8.234
 6442TIP3   OH240884   6.120   0.481   1.009
 6442TIP3    H140885   6.196   0.479   1.068
 6442TIP3    H240886   6.057   0.539   1.052
 6443TIP3   OH240887   5.785   6.639   7.911
 6443TIP3    H140888   5.733   6.630   7.832
 6443TIP3    H240889   5.869   6.599   7.889
 6444TIP3   OH240890   2.770   4.206   8.422
 6444TIP3    H140891   2.752   4.296   8.392
 6444TIP3    H240892   2.702   4.189   8.487
 6445TIP3   OH240893   6.162   2.508   0.268
 6445TIP3    H140894   6.139   2.533   0.357
 6445TIP3    H240895   6.225   2.575   0.240
 6446TIP3   OH240896   6.550   3.611   2.527
 6446TIP3    H140897   6.521   3.696   2.494
 6446TIP3    H240898   6.495   3.594   2.603
 6447TIP3   OH240899   2.099   0.527   8.601
 6447TIP3    H140900   2.005   0.529   0.017
 6447TIP3    H240901   2.121   0.434   8.601
 6448TIP3   OH240902   2.471   1.201   6.858
 6448TIP3    H140903   2.560   1.169   6.846
 6448TIP3    H240904   2.466   1.226   6.950
 6449TIP3   OH240905   0.249   1.854   7.475
 6449TIP3    H140906   0.304   1.875   7.550
 6449TIP3    H240907   0.308   1.858   7.400
 6450TIP3   OH240908   1.987   6.648   0.771
 6450TIP3    H140909   1.914   6.592   0.743
 6450TIP3    H240910   2.065   6.597   0.752
 6451TIP3   OH240911   6.829   0.768   8.255
 6451TIP3    H140912   6.853   0.859   8.238
 6451TIP3    H240913   6.772   0.744   8.182
 6452TIP3   OH240914   3.399   5.137   8.018
 6452TIP3    H140915   3.334   5.077   8.055
 6452TIP3    H240916   3.356   5.174   7.941
 6453TIP3   OH240917   6.791   3.236   1.446
 6453TIP3    H140918   6.814   3.190   1.526
 6453TIP3    H240919   6.875   3.255   1.404
 6454TIP3   OH240920   2.612   3.039   8.482
 6454TIP3    H140921   2.632   3.107   8.546
 6454TIP3    H240922   2.663   3.062   8.405
 6455TIP3   OH240923   3.608   6.021   8.085
 6455TIP3    H140924   3.637   6.113   8.087
 6455TIP3    H240925   3.593   6.003   7.992
 6456TIP3   OH240926   6.778   4.765   2.404
 6456TIP3    H140927   6.783   4.672   2.425
 6456TIP3    H240928   6.867   4.798   2.420
 6457TIP3   OH240929   3.148   6.149   0.760
 6457TIP3    H140930   3.206   6.107   0.697
 6457TIP3    H240931   3.152   6.092   0.838
 6458TIP3   OH240932   5.683   5.466   6.320
 6458TIP3    H140933   5.663   5.551   6.281
 6458TIP3    H240934   5.599   5.421   6.327
 6459TIP3   OH240935   1.447   3.916   1.760
 6459TIP3    H140936   1.418   3.930   1.850
 6459TIP3    H240937   1.407   3.834   1.734
 6460TIP3   OH240938   4.084   5.442   6.685
 6460TIP3    H140939   4.092   5.531   6.653
 6460TIP3    H240940   4.157   5.395   6.644
 6461TIP3   OH240941   4.458   4.615   0.777
 6461TIP3    H140942   4.453   4.697   0.827
 6461TIP3    H240943   4.485   4.643   0.689
 6462TIP3   OH240944   5.151   5.607   7.292
 6462TIP3    H140945   5.234   5.655   7.293
 6462TIP3    H240946   5.120   5.615   7.202
 6463TIP3   OH240947   3.179   5.240   6.859
 6463TIP3    H140948   3.127   5.236   6.779
 6463TIP3    H240949   3.169   5.330   6.890
 6464TIP3   OH240950   3.865   4.078   0.252
 6464TIP3    H140951   3.829   4.131   0.182
 6464TIP3    H240952   3.952   4.052   0.221
 6465TIP3   OH240953   2.266   4.635   0.444
 6465TIP3    H140954   2.309   4.656   0.361
 6465TIP3    H240955   2.269   4.539   0.449
 6466TIP3   OH240956   0.053   1.543   6.872
 6466TIP3    H140957   0.125   1.519   6.814
 6466TIP3    H240958   6.891   1.490   6.840
 6467TIP3   OH240959   3.773   5.377   7.975
 6467TIP3    H140960   3.688   5.381   8.018
 6467TIP3    H240961   3.756   5.331   7.893
 6468TIP3   OH240962   0.222   1.161   7.115
 6468TIP3    H140963   0.229   1.112   7.197
 6468TIP3    H240964   0.169   1.106   7.058
 6469TIP3   OH240965   1.758   1.591   7.664
 6469TIP3    H140966   1.702   1.650   7.613
 6469TIP3    H240967   1.715   1.506   7.658
 6470TIP3   OH240968   3.778   0.117   6.700
 6470TIP3    H140969   3.745   0.200   6.735
 6470TIP3    H240970   3.702   0.076   6.660
 6471TIP3   OH240971   1.142   3.088   0.717
 6471TIP3    H140972   1.092   3.080   0.636
 6471TIP3    H240973   1.161   3.182   0.723
 6472TIP3   OH240974   1.791   6.464   0.735
 6472TIP3    H140975   1.860   6.415   0.779
 6472TIP3    H240976   1.770   6.412   0.658
 6473TIP3   OH240977   3.523   4.770   0.936
 6473TIP3    H140978   3.491   4.704   0.998
 6473TIP3    H240979   3.481   4.748   0.853
 6474TIP3   OH240980   2.169   4.090   8.380
 6474TIP3    H140981   2.113   4.013   8.392
 6474TIP3    H240982   2.252   4.053   8.348
 6475TIP3   OH240983   6.627   4.641   8.157
 6475TIP3    H140984   6.545   4.654   8.204
 6475TIP3    H240985   6.681   4.589   8.216
 6476TIP3   OH240986   5.328   1.332   6.219
 6476TIP3    H140987   5.421   1.328   6.195
 6476TIP3    H240988   5.286   1.266   6.163
 6477TIP3   OH240989   5.081   1.436   7.108
 6477TIP3    H140990   4.998   1.483   7.114
 6477TIP3    H240991   5.063   1.350   7.147
 6478TIP3   OH240992   3.460   2.605   2.229
 6478TIP3    H140993   3.533   2.544   2.218
 6478TIP3    H240994   3.500   2.688   2.254
 6479TIP3   OH240995   3.596   3.908   7.602
 6479TIP3    H140996   3.548   3.840   7.650
 6479TIP3    H240997   3.545   3.988   7.617
 6480TIP3   OH240998   0.982   3.451   8.082
 6480TIP3    H140999   1.053   3.488   8.135
 6480TIP3    H241000   0.912   3.517   8.087
 6481TIP3   OH241001   4.883   1.995   8.593
 6481TIP3    H141002   4.915   2.077   8.554
 6481TIP3    H241003   4.962   1.952   0.021
 6482TIP3   OH241004   2.556   4.957   1.208
 6482TIP3    H141005   2.502   4.935   1.284
 6482TIP3    H241006   2.497   4.952   1.133
 6483TIP3   OH241007   6.371   0.908   7.472
 6483TIP3    H141008   6.452   0.932   7.428
 6483TIP3    H241009   6.336   0.835   7.421
 6484TIP3   OH241010   5.476   5.792   1.101
 6484TIP3    H141011   5.433   5.847   1.165
 6484TIP3    H241012   5.453   5.702   1.127
 6485TIP3   OH241013   1.462   0.985   0.314
 6485TIP3    H141014   1.538   0.971   0.371
 6485TIP3    H241015   1.398   0.920   0.343
 6486TIP3   OH241016   0.312   3.995   0.464
 6486TIP3    H141017   0.230   3.947   0.469
 6486TIP3    H241018   0.300   4.069   0.524
 6487TIP3   OH241019   1.216   1.995   8.171
 6487TIP3    H141020   1.135   2.028   8.132
 6487TIP3    H241021   1.195   1.905   8.196
 6488TIP3   OH241022   2.811   0.431   8.294
 6488TIP3    H141023   2.847   0.468   8.374
 6488TIP3    H241024   2.721   0.463   8.291
 6489TIP3   OH241025   1.066   6.635   7.821
 6489TIP3    H141026   1.077   6.560   7.879
 6489TIP3    H241027   1.138   6.627   7.757
 6490TIP3   OH241028   3.264   2.719   7.151
 6490TIP3    H141029   3.308   2.644   7.110
 6490TIP3    H241030   3.329   2.755   7.211
 6491TIP3   OH241031   1.606   1.630   8.207
 6491TIP3    H141032   1.560   1.713   8.193
 6491TIP3    H241033   1.621   1.596   8.119
 6492TIP3   OH241034   5.848   5.020   8.193
 6492TIP3    H141035   5.799   4.974   8.124
 6492TIP3    H241036   5.937   4.987   8.186
 6493TIP3   OH241037   6.347   3.107   7.953
 6493TIP3    H141038   6.386   3.150   8.029
 6493TIP3    H241039   6.310   3.179   7.901
 6494TIP3   OH241040   3.308   4.762   8.197
 6494TIP3    H141041   3.303   4.781   8.290
 6494TIP3    H241042   3.297   4.667   8.191
 6495TIP3   OH241043   3.936   1.628   8.136
 6495TIP3    H141044   3.903   1.709   8.175
 6495TIP3    H241045   4.025   1.620   8.170
 6496TIP3   OH241046   1.687   0.153   0.147
 6496TIP3    H141047   1.665   0.224   0.207
 6496TIP3    H241048   1.745   0.193   0.082
 6497TIP3   OH241049   1.489   5.686   8.366
 6497TIP3    H141050   1.442   5.744   8.426
 6497TIP3    H241051   1.500   5.605   8.414
 6498TIP3   OH241052   1.590   4.225   1.817
 6498TIP3    H141053   1.610   4.313   1.784
 6498TIP3    H241054   1.495   4.225   1.828
 6499TIP3   OH241055   3.519   1.546   1.633
 6499TIP3    H141056   3.475   1.467   1.663
 6499TIP3    H241057   3.498   1.612   1.700
 6500TIP3   OH241058   4.009   1.143   7.270
 6500TIP3    H141059   3.927   1.132   7.319
 6500TIP3    H241060   3.998   1.089   7.192
 6501TIP3   OH241061   0.860   0.162   8.334
 6501TIP3    H141062   0.781   0.150   8.387
 6501TIP3    H241063   0.850   0.100   8.262
 6502TIP3   OH241064   0.425   1.350   1.672
 6502TIP3    H141065   0.446   1.286   1.604
 6502TIP3    H241066   0.507   1.361   1.720
 6503TIP3   OH241067   2.937   6.692   1.719
 6503TIP3    H141068   2.881   6.627   1.762
 6503TIP3    H241069   2.984   6.735   1.791
 6504TIP3   OH241070   2.008   0.513   7.848
 6504TIP3    H141071   2.032   0.602   7.822
 6504TIP3    H241072   2.081   0.459   7.817
 6505TIP3   OH241073   3.844   6.698   0.935
 6505TIP3    H141074   3.854   6.755   1.011
 6505TIP3    H241075   3.772   6.736   0.885
 6506TIP3   OH241076   6.305   5.764   1.556
 6506TIP3    H141077   6.341   5.719   1.633
 6506TIP3    H241078   6.376   5.821   1.527
 6507TIP3   OH241079   0.841   2.014   0.442
 6507TIP3    H141080   0.902   1.962   0.494
 6507TIP3    H241081   0.847   1.977   0.354
 6508TIP3   OH241082   3.424   1.597   8.584
 6508TIP3    H141083   3.477   1.518   8.586
 6508TIP3    H241084   3.341   1.571   0.021
 6509TIP3   OH241085   4.377   5.446   1.389
 6509TIP3    H141086   4.350   5.416   1.476
 6509TIP3    H241087   4.465   5.410   1.378
 6510TIP3   OH241088   5.522   4.784   0.452
 6510TIP3    H141089   5.579   4.823   0.385
 6510TIP3    H241090   5.433   4.803   0.422
 6511TIP3   OH241091   3.061   1.675   7.557
 6511TIP3    H141092   3.092   1.685   7.647
 6511TIP3    H241093   3.072   1.582   7.539
 6512TIP3   OH241094   6.392   2.757   0.459
 6512TIP3    H141095   6.432   2.795   0.538
 6512TIP3    H241096   6.301   2.743   0.483
 6513TIP3   OH241097   4.185   5.811   0.743
 6513TIP3    H141098   4.260   5.763   0.707
 6513TIP3    H241099   4.208   5.903   0.731
 6514TIP3   OH241100   1.191   4.191   7.348
 6514TIP3    H141101   1.096   4.193   7.349
 6514TIP3    H241102   1.216   4.237   7.268
 6515TIP3   OH241103   0.143   6.413   0.904
 6515TIP3    H141104   0.071   6.444   0.848
 6515TIP3    H241105   0.138   6.318   0.899
 6516TIP3   OH241106   2.941   4.670   7.023
 6516TIP3    H141107   2.846   4.675   7.034
 6516TIP3    H241108   2.955   4.590   6.972
 6517TIP3   OH241109   0.693   2.906   2.453
 6517TIP3    H141110   0.733   2.825   2.421
 6517TIP3    H241111   0.742   2.975   2.408
 6518TIP3   OH241112   5.563   2.082   8.315
 6518TIP3    H141113   5.562   2.134   8.395
 6518TIP3    H241114   5.517   2.001   8.338
 6519TIP3   OH241115   3.199   3.212   6.356
 6519TIP3    H141116   3.193   3.304   6.332
 6519TIP3    H241117   3.125   3.197   6.415
 6520TIP3   OH241118   6.717   2.612   1.635
 6520TIP3    H141119   6.774   2.553   1.586
 6520TIP3    H241120   6.646   2.556   1.667
 6521TIP3   OH241121   3.123   2.882   1.458
 6521TIP3    H141122   3.154   2.870   1.548
 6521TIP3    H241123   3.169   2.815   1.408
 6522TIP3   OH241124   6.240   2.537   7.788
 6522TIP3    H141125   6.246   2.442   7.785
 6522TIP3    H241126   6.331   2.566   7.795
 6523TIP3   OH241127   0.627   4.440   0.910
 6523TIP3    H141128   0.562   4.509   0.895
 6523TIP3    H241129   0.588   4.384   0.977
 6524TIP3   OH241130   1.600   3.413   0.999
 6524TIP3    H141131   1.506   3.406   1.015
 6524TIP3    H241132   1.619   3.347   0.932
 6525TIP3   OH241133   1.915   1.966   0.748
 6525TIP3    H141134   1.864   1.910   0.807
 6525TIP3    H241135   1.915   2.052   0.790
 6526TIP3   OH241136   0.801   0.387   7.837
 6526TIP3    H141137   0.755   0.458   7.792
 6526TIP3    H241138   0.835   0.332   7.767
 6527TIP3   OH241139   1.993   0.773   0.025
 6527TIP3    H141140   1.978   0.782   8.534
 6527TIP3    H241141   2.081   0.736   0.032
 6528TIP3   OH241142   0.710   1.343   6.736
 6528TIP3    H141143   0.790   1.396   6.732
 6528TIP3    H241144   0.642   1.404   6.765
 6529TIP3   OH241145   3.361   2.304   7.866
 6529TIP3    H141146   3.335   2.273   7.779
 6529TIP3    H241147   3.413   2.233   7.903
 6530TIP3   OH241148   6.459   2.690   6.037
 6530TIP3    H141149   6.426   2.695   6.127
 6530TIP3    H241150   6.554   2.703   6.045
 6531TIP3   OH241151   5.562   1.962   1.437
 6531TIP3    H141152   5.644   1.952   1.484
 6531TIP3    H241153   5.495   1.937   1.501
 6532TIP3   OH241154   4.777   2.263   1.745
 6532TIP3    H141155   4.688   2.298   1.751
 6532TIP3    H241156   4.780   2.194   1.811
 6533TIP3   OH241157   6.529   4.711   2.252
 6533TIP3    H141158   6.453   4.703   2.310
 6533TIP3    H241159   6.604   4.698   2.310
 6534TIP3   OH241160   0.273   0.197   6.254
 6534TIP3    H141161   0.329   0.125   6.283
 6534TIP3    H241162   0.333   0.271   6.243
 6535TIP3   OH241163   1.615   3.999   0.897
 6535TIP3    H141164   1.561   3.975   0.972
 6535TIP3    H241165   1.565   3.970   0.821
 6536TIP3   OH241166   6.327   2.246   6.746
 6536TIP3    H141167   6.400   2.294   6.784
 6536TIP3    H241168   6.368   2.174   6.698
 6537TIP3   OH241169   5.709   0.589   0.459
 6537TIP3    H141170   5.772   0.590   0.531
 6537TIP3    H241171   5.710   0.678   0.424
 6538TIP3   OH241172   2.146   6.297   6.608
 6538TIP3    H141173   2.125   6.376   6.558
 6538TIP3    H241174   2.209   6.326   6.674
 6539TIP3   OH241175   1.882   1.771   7.477
 6539TIP3    H141176   1.805   1.828   7.470
 6539TIP3    H241177   1.883   1.743   7.569
 6540TIP3   OH241178   6.519   4.493   6.097
 6540TIP3    H141179   6.559   4.566   6.144
 6540TIP3    H241180   6.568   4.416   6.125
 6541TIP3   OH241181   1.869   0.629   7.341
 6541TIP3    H141182   1.911   0.680   7.271
 6541TIP3    H241183   1.866   0.689   7.415
 6542TIP3   OH241184   5.935   0.626   0.626
 6542TIP3    H141185   5.916   0.717   0.648
 6542TIP3    H241186   5.903   0.576   0.701
 6543TIP3   OH241187   6.319   3.333   7.480
 6543TIP3    H141188   6.363   3.274   7.418
 6543TIP3    H241189   6.364   3.417   7.469
 6544TIP3   OH241190   6.903   6.578   0.398
 6544TIP3    H141191   6.857   6.618   0.324
 6544TIP3    H241192   0.031   6.651   0.444
 6545TIP3   OH241193   0.324   6.322   6.832
 6545TIP3    H141194   0.295   6.250   6.888
 6545TIP3    H241195   0.347   6.281   6.749
 6546TIP3   OH241196   6.041   0.390   6.902
 6546TIP3    H141197   5.961   0.362   6.947
 6546TIP3    H241198   6.107   0.396   6.970
 6547TIP3   OH241199   3.347   5.793   8.553
 6547TIP3    H141200   3.303   5.876   8.533
 6547TIP3    H241201   3.440   5.813   8.545
 6548TIP3   OH241202   2.059   6.864   0.627
 6548TIP3    H141203   2.010   6.807   0.686
 6548TIP3    H241204   2.043   6.829   0.540
 6549TIP3   OH241205   1.969   1.614   6.963
 6549TIP3    H141206   2.005   1.638   7.049
 6549TIP3    H241207   2.043   1.623   6.903
 6550TIP3   OH241208   0.551   3.896   8.360
 6550TIP3    H141209   0.474   3.896   8.417
 6550TIP3    H241210   0.523   3.850   8.281
 6551TIP3   OH241211   1.173   1.950   6.743
 6551TIP3    H141212   1.105   2.004   6.703
 6551TIP3    H241213   1.137   1.861   6.739
 6552TIP3   OH241214   3.691   2.517   7.298
 6552TIP3    H141215   3.735   2.569   7.365
 6552TIP3    H241216   3.598   2.519   7.323
 6553TIP3   OH241217   0.122   2.241   7.575
 6553TIP3    H141218   0.076   2.157   7.581
 6553TIP3    H241219   0.194   2.233   7.638
 6554TIP3   OH241220   5.565   5.941   2.301
 6554TIP3    H141221   5.536   5.922   2.211
 6554TIP3    H241222   5.509   5.886   2.356
 6555TIP3   OH241223   1.326   1.752   0.858
 6555TIP3    H141224   1.237   1.778   0.880
 6555TIP3    H241225   1.325   1.657   0.861
 6556TIP3   OH241226   5.906   0.758   6.959
 6556TIP3    H141227   5.937   0.817   6.889
 6556TIP3    H241228   5.845   0.699   6.915
 6557TIP3   OH241229   3.735   3.552   8.101
 6557TIP3    H141230   3.683   3.472   8.093
 6557TIP3    H241231   3.824   3.526   8.078
 6558TIP3   OH241232   5.085   6.649   7.749
 6558TIP3    H141233   5.004   6.654   7.699
 6558TIP3    H241234   5.122   6.737   7.743
 6559TIP3   OH241235   6.644   0.320   7.502
 6559TIP3    H141236   6.559   0.287   7.471
 6559TIP3    H241237   6.705   0.295   7.433
 6560TIP3   OH241238   2.625   3.617   1.323
 6560TIP3    H141239   2.568   3.629   1.399
 6560TIP3    H241240   2.677   3.698   1.319
 6561TIP3   OH241241   0.625   0.448   6.031
 6561TIP3    H141242   0.565   0.449   6.105
 6561TIP3    H241243   0.676   0.367   6.043
 6562TIP3   OH241244   2.417   2.130   7.042
 6562TIP3    H141245   2.398   2.181   7.121
 6562TIP3    H241246   2.481   2.065   7.070
 6563TIP3   OH241247   3.209   5.843   8.044
 6563TIP3    H141248   3.199   5.855   8.139
 6563TIP3    H241249   3.129   5.878   8.007
 6564TIP3   OH241250   6.539   2.262   0.273
 6564TIP3    H141251   6.454   2.281   0.233
 6564TIP3    H241252   6.518   2.205   0.348
 6565TIP3   OH241253   5.562   0.470   7.815
 6565TIP3    H141254   5.494   0.464   7.883
 6565TIP3    H241255   5.538   0.547   7.765
 6566TIP3   OH241256   2.296   0.744   0.395
 6566TIP3    H141257   2.323   0.798   0.320
 6566TIP3    H241258   2.365   0.677   0.401
 6567TIP3   OH241259   5.326   6.879   1.744
 6567TIP3    H141260   5.376   0.044   1.717
 6567TIP3    H241261   5.329   6.821   1.667
 6568TIP3   OH241262   5.757   1.144   1.394
 6568TIP3    H141263   5.771   1.097   1.476
 6568TIP3    H241264   5.665   1.126   1.372
 6569TIP3   OH241265   2.780   1.160   7.583
 6569TIP3    H141266   2.775   1.202   7.497
 6569TIP3    H241267   2.744   1.073   7.569
 6570TIP3   OH241268   2.431   5.501   8.371
 6570TIP3    H141269   2.457   5.509   8.463
 6570TIP3    H241270   2.493   5.556   8.323
 6571TIP3   OH241271   2.235   6.433   0.972
 6571TIP3    H141272   2.213   6.501   0.908
 6571TIP3    H241273   2.330   6.428   0.970
 6572TIP3   OH241274   2.179   1.968   0.488
 6572TIP3    H141275   2.122   1.937   0.559
 6572TIP3    H241276   2.119   1.988   0.416
 6573TIP3   OH241277   0.452   3.589   7.222
 6573TIP3    H141278   0.370   3.633   7.243
 6573TIP3    H241279   0.472   3.618   7.132
 6574TIP3   OH241280   4.820   0.967   1.636
 6574TIP3    H141281   4.726   0.980   1.651
 6574TIP3    H241282   4.862   1.005   1.713
 6575TIP3   OH241283   5.231   2.323   8.175
 6575TIP3    H141284   5.292   2.349   8.244
 6575TIP3    H241285   5.209   2.405   8.131
 6576TIP3   OH241286   6.764   0.862   1.266
 6576TIP3    H141287   6.751   0.852   1.172
 6576TIP3    H241288   6.704   0.798   1.305
 6577TIP3   OH241289   6.756   3.570   0.876
 6577TIP3    H141290   6.719   3.503   0.934
 6577TIP3    H241291   6.757   3.650   0.929
 6578TIP3   OH241292   2.771   0.759   7.042
 6578TIP3    H141293   2.858   0.719   7.044
 6578TIP3    H241294   2.715   0.693   7.002
 6579TIP3   OH241295   6.611   2.195   6.509
 6579TIP3    H141296   6.578   2.171   6.422
 6579TIP3    H241297   6.558   2.145   6.570
 6580TIP3   OH241298   1.306   1.585   1.561
 6580TIP3    H141299   1.396   1.609   1.539
 6580TIP3    H241300   1.275   1.657   1.615
 6581TIP3   OH241301   5.512   3.219   1.785
 6581TIP3    H141302   5.451   3.195   1.715
 6581TIP3    H241303   5.456   3.238   1.860
 6582TIP3   OH241304   1.083   3.024   0.989
 6582TIP3    H141305   0.996   2.985   0.980
 6582TIP3    H241306   1.112   3.040   0.899
 6583TIP3   OH241307   4.311   3.069   8.333
 6583TIP3    H141308   4.284   3.031   8.250
 6583TIP3    H241309   4.348   3.154   8.310
 6584TIP3   OH241310   4.692   0.918   8.176
 6584TIP3    H141311   4.630   0.879   8.238
 6584TIP3    H241312   4.655   1.003   8.154
 6585TIP3   OH241313   2.445   6.284   8.468
 6585TIP3    H141314   2.451   6.192   8.444
 6585TIP3    H241315   2.354   6.298   8.491
 6586TIP3   OH241316   5.985   1.342   1.775
 6586TIP3    H141317   6.076   1.324   1.795
 6586TIP3    H241318   5.955   1.264   1.728
 6587TIP3   OH241319   1.736   5.738   8.235
 6587TIP3    H141320   1.723   5.815   8.291
 6587TIP3    H241321   1.796   5.682   8.284
 6588TIP3   OH241322   4.937   0.804   0.127
 6588TIP3    H141323   4.994   0.876   0.152
 6588TIP3    H241324   4.851   0.845   0.113
 6589TIP3   OH241325   3.361   1.085   1.218
 6589TIP3    H141326   3.383   1.031   1.143
 6589TIP3    H241327   3.296   1.035   1.266
 6590TIP3   OH241328   3.935   2.328   7.329
 6590TIP3    H141329   3.879   2.406   7.324
 6590TIP3    H241330   3.986   2.340   7.409
 6591TIP3   OH241331   2.010   4.877   8.510
 6591TIP3    H141332   2.064   4.835   8.443
 6591TIP3    H241333   1.955   4.939   8.461
 6592TIP3   OH241334   4.770   0.016   6.727
 6592TIP3    H141335   4.820   6.874   6.665
 6592TIP3    H241336   4.682   6.891   6.727
 6593TIP3   OH241337   2.801   0.187   0.318
 6593TIP3    H141338   2.876   0.128   0.321
 6593TIP3    H241339   2.746   0.160   0.392
 6594TIP3   OH241340   6.159   6.832   7.627
 6594TIP3    H141341   6.163   6.846   7.722
 6594TIP3    H241342   6.206   6.749   7.613
 6595TIP3   OH241343   6.635   6.266   0.664
 6595TIP3    H141344   6.627   6.323   0.588
 6595TIP3    H241345   6.584   6.188   0.641
 6596TIP3   OH241346   4.361   5.574   0.051
 6596TIP3    H141347   4.400   5.645   0.102
 6596TIP3    H241348   4.288   5.615   0.004
 6597TIP3   OH241349   2.245   1.294   1.078
 6597TIP3    H141350   2.314   1.233   1.104
 6597TIP3    H241351   2.239   1.284   0.983
 6598TIP3   OH241352   4.015   5.293   0.893
 6598TIP3    H141353   4.016   5.295   0.797
 6598TIP3    H241354   4.095   5.248   0.917
 6599TIP3   OH241355   1.866   2.951   8.297
 6599TIP3    H141356   1.835   2.951   8.388
 6599TIP3    H241357   1.959   2.976   8.303
 6600TIP3   OH241358   4.349   3.707   1.750
 6600TIP3    H141359   4.384   3.658   1.675
 6600TIP3    H241360   4.257   3.682   1.753
 6601TIP3   OH241361   1.665   4.062   0.220
 6601TIP3    H141362   1.704   4.150   0.226
 6601TIP3    H241363   1.622   4.050   0.304
 6602TIP3   OH241364   5.403   2.604   6.512
 6602TIP3    H141365   5.414   2.690   6.552
 6602TIP3    H241366   5.484   2.558   6.531
 6603TIP3   OH241367   3.181   2.649   0.214
 6603TIP3    H141368   3.145   2.576   0.164
 6603TIP3    H241369   3.120   2.660   0.287
 6604TIP3   OH241370   2.479   3.264   0.828
 6604TIP3    H141371   2.511   3.195   0.887
 6604TIP3    H241372   2.454   3.336   0.887
 6605TIP3   OH241373   3.390   6.500   1.363
 6605TIP3    H141374   3.429   6.562   1.301
 6605TIP3    H241375   3.418   6.414   1.331
 6606TIP3   OH241376   0.029   2.318   8.253
 6606TIP3    H141377   6.875   2.361   8.307
 6606TIP3    H241378   6.895   2.243   8.215
 6607TIP3   OH241379   0.186   0.369   7.556
 6607TIP3    H141380   0.115   0.348   7.617
 6607TIP3    H241381   0.266   0.351   7.606
 6608TIP3   OH241382   2.203   0.037   0.351
 6608TIP3    H141383   2.249   0.113   0.313
 6608TIP3    H241384   2.130   0.075   0.400
 6609TIP3   OH241385   3.576   1.724   1.425
 6609TIP3    H141386   3.556   1.644   1.473
 6609TIP3    H241387   3.621   1.695   1.346
 6610TIP3   OH241388   5.271   4.715   0.155
 6610TIP3    H141389   5.240   4.631   0.189
 6610TIP3    H241390   5.260   4.776   0.228
 6611TIP3   OH241391   4.401   4.472   0.287
 6611TIP3    H141392   4.475   4.430   0.330
 6611TIP3    H241393   4.441   4.537   0.229
 6612TIP3   OH241394   2.564   3.704   1.620
 6612TIP3    H141395   2.546   3.678   1.710
 6612TIP3    H241396   2.657   3.729   1.621
 6613TIP3   OH241397   1.605   6.777   0.162
 6613TIP3    H141398   1.527   6.795   0.213
 6613TIP3    H241399   1.656   6.858   0.165
 6614TIP3   OH241400   0.067   1.405   6.605
 6614TIP3    H141401   0.056   1.484   6.553
 6614TIP3    H241402   6.899   1.398   6.656
 6615TIP3   OH241403   0.450   0.264   0.826
 6615TIP3    H141404   0.545   0.273   0.822
 6615TIP3    H241405   0.434   0.223   0.911
 6616TIP3   OH241406   6.523   2.993   7.603
 6616TIP3    H141407   6.535   2.915   7.549
 6616TIP3    H241408   6.548   3.066   7.546
 6617TIP3   OH241409   2.604   0.619   1.712
 6617TIP3    H141410   2.547   0.596   1.638
 6617TIP3    H241411   2.575   0.562   1.783
 6618TIP3   OH241412   5.421   2.767   6.991
 6618TIP3    H141413   5.424   2.861   6.974
 6618TIP3    H241414   5.406   2.727   6.906
 6619TIP3   OH241415   4.864   1.540   7.933
 6619TIP3    H141416   4.894   1.563   8.021
 6619TIP3    H241417   4.945   1.521   7.885
 6620TIP3   OH241418   2.143   5.627   1.955
 6620TIP3    H141419   2.160   5.721   1.956
 6620TIP3    H241420   2.178   5.596   2.039
 6621TIP3   OH241421   1.967   3.082   6.507
 6621TIP3    H141422   1.986   3.123   6.592
 6621TIP3    H241423   1.988   2.989   6.520
 6622TIP3   OH241424   5.676   0.338   6.938
 6622TIP3    H141425   5.674   0.252   6.979
 6622TIP3    H241426   5.590   0.348   6.898
 6623TIP3   OH241427   4.252   0.886   6.972
 6623TIP3    H141428   4.315   0.879   6.900
 6623TIP3    H241429   4.180   0.829   6.946
 6624TIP3   OH241430   2.974   5.509   7.960
 6624TIP3    H141431   2.918   5.570   8.008
 6624TIP3    H241432   2.923   5.429   7.955
 6625TIP3   OH241433   2.180   1.803   7.490
 6625TIP3    H141434   2.213   1.718   7.460
 6625TIP3    H241435   2.085   1.798   7.477
 6626TIP3   OH241436   3.598   4.072   6.964
 6626TIP3    H141437   3.640   3.990   6.940
 6626TIP3    H241438   3.670   4.133   6.978
 6627TIP3   OH241439   5.028   0.582   0.272
 6627TIP3    H141440   5.048   0.603   0.363
 6627TIP3    H241441   4.983   0.659   0.239
 6628TIP3   OH241442   3.998   5.409   2.473
 6628TIP3    H141443   4.015   5.351   2.547
 6628TIP3    H241444   3.976   5.350   2.401
 6629TIP3   OH241445   2.802   6.845   8.293
 6629TIP3    H141446   2.772   6.832   8.203
 6629TIP3    H241447   2.779   6.763   8.338
 6630TIP3   OH241448   0.824   4.323   0.387
 6630TIP3    H141449   0.844   4.397   0.330
 6630TIP3    H241450   0.838   4.357   0.476
 6631TIP3   OH241451   6.011   4.692   2.378
 6631TIP3    H141452   5.939   4.643   2.418
 6631TIP3    H241453   6.020   4.653   2.291
 6632TIP3   OH241454   3.759   4.482   8.484
 6632TIP3    H141455   3.677   4.519   8.452
 6632TIP3    H241456   3.817   4.558   8.495
 6633TIP3   OH241457   4.253   3.830   2.030
 6633TIP3    H141458   4.224   3.904   2.083
 6633TIP3    H241459   4.259   3.757   2.092
 6634TIP3   OH241460   3.450   3.975   0.545
 6634TIP3    H141461   3.459   3.926   0.463
 6634TIP3    H241462   3.412   4.059   0.518
 6635TIP3   OH241463   1.968   2.409   6.372
 6635TIP3    H141464   1.947   2.317   6.382
 6635TIP3    H241465   2.020   2.431   6.450
 6636TIP3   OH241466   0.035   3.339   0.927
 6636TIP3    H141467   0.124   3.364   0.900
 6636TIP3    H241468   6.891   3.401   0.882
 6637TIP3   OH241469   4.465   0.471   1.548
 6637TIP3    H141470   4.512   0.554   1.538
 6637TIP3    H241471   4.483   0.424   1.467
 6638TIP3   OH241472   4.347   4.644   1.173
 6638TIP3    H141473   4.304   4.663   1.256
 6638TIP3    H241474   4.423   4.702   1.171
 6639TIP3   OH241475   4.635   0.479   7.700
 6639TIP3    H141476   4.711   0.431   7.731
 6639TIP3    H241477   4.597   0.424   7.632
 6640TIP3   OH241478   1.143   5.418   1.633
 6640TIP3    H141479   1.173   5.490   1.576
 6640TIP3    H241480   1.128   5.459   1.718
 6641TIP3   OH241481   4.371   0.598   7.901
 6641TIP3    H141482   4.352   0.569   7.812
 6641TIP3    H241483   4.356   0.521   7.956
 6642TIP3   OH241484   5.386   5.732   8.597
 6642TIP3    H141485   5.430   5.816   8.584
 6642TIP3    H241486   5.311   5.735   8.538
 6643TIP3   OH241487   3.874   3.206   0.154
 6643TIP3    H141488   3.921   3.123   0.156
 6643TIP3    H241489   3.793   3.187   0.107
 6644TIP3   OH241490   0.272   1.293   0.748
 6644TIP3    H141491   0.212   1.222   0.769
 6644TIP3    H241492   0.224   1.348   0.687
 6645TIP3   OH241493   2.393   0.932   7.592
 6645TIP3    H141494   2.399   1.010   7.647
 6645TIP3    H241495   2.309   0.940   7.547
 6646TIP3   OH241496   5.372   1.387   8.304
 6646TIP3    H141497   5.306   1.438   8.257
 6646TIP3    H241498   5.335   1.374   8.392
 6647TIP3   OH241499   1.192   3.686   0.190
 6647TIP3    H141500   1.260   3.666   0.126
 6647TIP3    H241501   1.165   3.775   0.169
 6648TIP3   OH241502   5.911   5.985   1.573
 6648TIP3    H141503   5.961   5.967   1.652
 6648TIP3    H241504   5.941   6.071   1.544
 6649TIP3   OH241505   3.513   3.663   6.766
 6649TIP3    H141506   3.605   3.666   6.792
 6649TIP3    H241507   3.489   3.570   6.771
 6650TIP3   OH241508   3.064   3.998   0.028
 6650TIP3    H141509   2.988   4.033   0.074
 6650TIP3    H241510   3.064   3.904   0.049
 6651TIP3   OH241511   2.578   5.257   7.220
 6651TIP3    H141512   2.491   5.246   7.181
 6651TIP3    H241513   2.625   5.177   7.195
 6652TIP3   OH241514   3.417   2.478   1.970
 6652TIP3    H141515   3.442   2.386   1.973
 6652TIP3    H241516   3.442   2.513   2.055
 6653TIP3   OH241517   5.019   6.666   6.747
 6653TIP3    H141518   5.096   6.615   6.721
 6653TIP3    H241519   4.975   6.687   6.665
 6654TIP3   OH241520   2.995   3.355   8.557
 6654TIP3    H141521   2.991   3.272   8.511
 6654TIP3    H241522   2.933   3.412   8.511
 6655TIP3   OH241523   3.220   0.197   2.525
 6655TIP3    H141524   3.247   0.289   2.517
 6655TIP3    H241525   3.213   0.167   2.435
 6656TIP3   OH241526   1.423   6.147   1.884
 6656TIP3    H141527   1.456   6.223   1.932
 6656TIP3    H241528   1.452   6.072   1.935
 6657TIP3   OH241529   2.514   4.157   7.690
 6657TIP3    H141530   2.550   4.093   7.628
 6657TIP3    H241531   2.579   4.160   7.760
 6658TIP3   OH241532   6.469   2.505   0.754
 6658TIP3    H141533   6.507   2.421   0.780
 6658TIP3    H241534   6.498   2.566   0.822
 6659TIP3   OH241535   4.487   2.961   0.735
 6659TIP3    H141536   4.502   3.016   0.813
 6659TIP3    H241537   4.429   3.014   0.680
 6660TIP3   OH241538   6.849   0.659   0.826
 6660TIP3    H141539   6.777   0.723   0.821
 6660TIP3    H241540   6.808   0.576   0.803
 6661TIP3   OH241541   3.265   3.548   1.565
 6661TIP3    H141542   3.243   3.590   1.648
 6661TIP3    H241543   3.356   3.520   1.575
 6662TIP3   OH241544   5.401   6.602   2.191
 6662TIP3    H141545   5.477   6.554   2.225
 6662TIP3    H241546   5.421   6.617   2.099
 6663TIP3   OH241547   3.345   5.433   7.460
 6663TIP3    H141548   3.383   5.454   7.375
 6663TIP3    H241549   3.285   5.360   7.442
 6664TIP3   OH241550   3.235   3.266   0.519
 6664TIP3    H141551   3.298   3.197   0.542
 6664TIP3    H241552   3.279   3.348   0.542
 6665TIP3   OH241553   2.936   1.876   0.589
 6665TIP3    H141554   2.841   1.886   0.580
 6665TIP3    H241555   2.965   1.841   0.505
 6666TIP3   OH241556   2.461   0.351   8.360
 6666TIP3    H141557   2.499   0.410   8.425
 6666TIP3    H241558   2.474   0.396   8.276
 6667TIP3   OH241559   2.683   1.165   0.326
 6667TIP3    H141560   2.707   1.232   0.390
 6667TIP3    H241561   2.653   1.091   0.378
 6668TIP3   OH241562   0.449   3.586   0.740
 6668TIP3    H141563   0.469   3.674   0.774
 6668TIP3    H241564   0.529   3.560   0.694
 6669TIP3   OH241565   4.886   2.890   8.569
 6669TIP3    H141566   4.902   2.984   8.575
 6669TIP3    H241567   4.834   2.879   8.489
 6670TIP3   OH241568   3.227   0.255   1.221
 6670TIP3    H141569   3.197   0.282   1.308
 6670TIP3    H241570   3.305   0.308   1.205
 6671TIP3   OH241571   0.864   2.154   7.597
 6671TIP3    H141572   0.809   2.199   7.533
 6671TIP3    H241573   0.832   2.182   7.682
 6672TIP3   OH241574   0.776   0.430   6.500
 6672TIP3    H141575   0.728   0.348   6.492
 6672TIP3    H241576   0.728   0.479   6.567
 6673TIP3   OH241577   5.780   6.501   1.294
 6673TIP3    H141578   5.731   6.532   1.218
 6673TIP3    H241579   5.872   6.506   1.267
 6674TIP3   OH241580   4.114   0.005   8.118
 6674TIP3    H141581   4.182   0.062   8.082
 6674TIP3    H241582   4.035   0.060   8.120
 6675TIP3   OH241583   5.461   6.666   7.778
 6675TIP3    H141584   5.543   6.693   7.738
 6675TIP3    H241585   5.471   6.573   7.795
 6676TIP3   OH241586   4.854   5.034   6.351
 6676TIP3    H141587   4.906   5.005   6.277
 6676TIP3    H241588   4.879   5.126   6.364
 6677TIP3   OH241589   3.838   6.316   1.028
 6677TIP3    H141590   3.753   6.360   1.026
 6677TIP3    H241591   3.886   6.353   0.954
 6678TIP3   OH241592   0.623   5.381   0.166
 6678TIP3    H141593   0.528   5.396   0.164
 6678TIP3    H241594   0.643   5.367   0.258
 6679TIP3   OH241595   2.540   3.668   8.063
 6679TIP3    H141596   2.598   3.658   7.987
 6679TIP3    H241597   2.600   3.684   8.136
 6680TIP3   OH241598   1.712   2.754   6.603
 6680TIP3    H141599   1.698   2.665   6.569
 6680TIP3    H241600   1.798   2.779   6.570
 6681TIP3   OH241601   6.215   4.087   6.742
 6681TIP3    H141602   6.132   4.060   6.781
 6681TIP3    H241603   6.223   4.180   6.764
 6682TIP3   OH241604   0.481   3.376   0.173
 6682TIP3    H141605   0.540   3.438   0.131
 6682TIP3    H241606   0.436   3.332   0.100
 6683TIP3   OH241607   0.857   3.717   8.310
 6683TIP3    H141608   0.802   3.699   8.387
 6683TIP3    H241609   0.871   3.811   8.312
 6684TIP3   OH241610   2.464   3.202   2.489
 6684TIP3    H141611   2.376   3.164   2.481
 6684TIP3    H241612   2.521   3.140   2.442
 6685TIP3   OH241613   5.394   1.320   7.133
 6685TIP3    H141614   5.458   1.392   7.130
 6685TIP3    H241615   5.362   1.320   7.223
 6686TIP3   OH241616   5.550   3.576   7.458
 6686TIP3    H141617   5.463   3.559   7.494
 6686TIP3    H241618   5.592   3.490   7.451
 6687TIP3   OH241619   0.189   6.286   1.678
 6687TIP3    H141620   0.260   6.222   1.684
 6687TIP3    H241621   0.232   6.367   1.652
 6688TIP3   OH241622   1.199   3.592   7.691
 6688TIP3    H141623   1.280   3.642   7.677
 6688TIP3    H241624   1.218   3.506   7.652
 6689TIP3   OH241625   4.729   3.485   1.502
 6689TIP3    H141626   4.813   3.527   1.521
 6689TIP3    H241627   4.751   3.409   1.448
 6690TIP3   OH241628   6.780   0.115   1.151
 6690TIP3    H141629   6.853   0.172   1.126
 6690TIP3    H241630   6.710   0.175   1.176
 6691TIP3   OH241631   6.076   5.966   8.125
 6691TIP3    H141632   6.135   5.998   8.057
 6691TIP3    H241633   6.047   5.880   8.094
 6692TIP3   OH241634   4.780   5.942   8.269
 6692TIP3    H141635   4.851   5.911   8.325
 6692TIP3    H241636   4.784   5.886   8.191
 6693TIP3   OH241637   1.402   0.522   7.821
 6693TIP3    H141638   1.439   0.551   7.737
 6693TIP3    H241639   1.309   0.540   7.814
 6694TIP3   OH241640   2.111   4.365   8.375
 6694TIP3    H141641   2.051   4.404   8.438
 6694TIP3    H241642   2.084   4.273   8.369
 6695TIP3   OH241643   5.676   5.171   2.343
 6695TIP3    H141644   5.684   5.120   2.263
 6695TIP3    H241645   5.684   5.106   2.413
 6696TIP3   OH241646   5.747   1.009   6.431
 6696TIP3    H141647   5.665   1.057   6.445
 6696TIP3    H241648   5.719   0.923   6.400
 6697TIP3   OH241649   6.286   3.599   0.413
 6697TIP3    H141650   6.228   3.544   0.360
 6697TIP3    H241651   6.363   3.613   0.358
 6698TIP3   OH241652   1.104   1.024   1.540
 6698TIP3    H141653   1.137   0.949   1.590
 6698TIP3    H241654   1.182   1.067   1.507
 6699TIP3   OH241655   4.653   2.329   2.182
 6699TIP3    H141656   4.738   2.365   2.207
 6699TIP3    H241657   4.596   2.405   2.174
 6700TIP3   OH241658   1.405   1.702   0.363
 6700TIP3    H141659   1.467   1.775   0.366
 6700TIP3    H241660   1.319   1.743   0.357
 6701TIP3   OH241661   2.846   6.707   7.669
 6701TIP3    H141662   2.820   6.626   7.625
 6701TIP3    H241663   2.875   6.679   7.756
 6702TIP3   OH241664   4.164   0.682   6.743
 6702TIP3    H141665   4.202   0.766   6.716
 6702TIP3    H241666   4.225   0.616   6.710
 6703TIP3   OH241667   0.903   0.366   8.503
 6703TIP3    H141668   0.839   0.433   8.526
 6703TIP3    H241669   0.851   0.298   8.459
 6704TIP3   OH241670   4.262   0.089   7.354
 6704TIP3    H141671   4.192   0.060   7.413
 6704TIP3    H241672   4.255   0.031   7.278
 6705TIP3   OH241673   1.536   5.798   6.874
 6705TIP3    H141674   1.573   5.823   6.959
 6705TIP3    H241675   1.493   5.878   6.843
 6706TIP3   OH241676   4.619   2.151   7.383
 6706TIP3    H141677   4.545   2.196   7.424
 6706TIP3    H241678   4.622   2.066   7.426
 6707TIP3   OH241679   4.266   6.449   0.506
 6707TIP3    H141680   4.328   6.460   0.578
 6707TIP3    H241681   4.288   6.519   0.444
 6708TIP3   OH241682   5.272   6.262   1.472
 6708TIP3    H141683   5.311   6.183   1.508
 6708TIP3    H241684   5.319   6.334   1.516
 6709TIP3   OH241685   1.588   6.600   6.639
 6709TIP3    H141686   1.608   6.524   6.693
 6709TIP3    H241687   1.673   6.636   6.615
 6710TIP3   OH241688   3.229   6.231   7.126
 6710TIP3    H141689   3.280   6.307   7.097
 6710TIP3    H241690   3.275   6.201   7.205
 6711TIP3   OH241691   0.451   3.818   8.128
 6711TIP3    H141692   0.482   3.735   8.092
 6711TIP3    H241693   0.357   3.818   8.109
 6712TIP3   OH241694   3.413   3.926   2.115
 6712TIP3    H141695   3.421   3.945   2.021
 6712TIP3    H241696   3.407   4.012   2.156
 6713TIP3   OH241697   1.716   5.315   0.327
 6713TIP3    H141698   1.648   5.311   0.259
 6713TIP3    H241699   1.780   5.377   0.293
 6714TIP3   OH241700   4.641   6.135   0.380
 6714TIP3    H141701   4.626   6.222   0.343
 6714TIP3    H241702   4.736   6.122   0.372
 6715TIP3   OH241703   5.502   3.598   6.425
 6715TIP3    H141704   5.564   3.669   6.407
 6715TIP3    H241705   5.424   3.621   6.374
 6716TIP3   OH241706   0.051   2.105   0.554
 6716TIP3    H141707   0.070   2.031   0.612
 6716TIP3    H241708   6.870   2.122   0.566
 6717TIP3   OH241709   1.780   5.584   7.710
 6717TIP3    H141710   1.820   5.531   7.642
 6717TIP3    H241711   1.686   5.568   7.701
 6718TIP3   OH241712   3.615   4.778   2.311
 6718TIP3    H141713   3.691   4.759   2.366
 6718TIP3    H241714   3.547   4.718   2.341
 6719TIP3   OH241715   3.840   4.993   1.173
 6719TIP3    H141716   3.818   4.916   1.120
 6719TIP3    H241717   3.812   4.971   1.261
 6720TIP3   OH241718   4.493   0.841   1.050
 6720TIP3    H141719   4.448   0.788   1.115
 6720TIP3    H241720   4.425   0.869   0.989
 6721TIP3   OH241721   5.804   6.324   6.555
 6721TIP3    H141722   5.894   6.300   6.535
 6721TIP3    H241723   5.768   6.351   6.470
 6722TIP3   OH241724   6.103   4.656   8.470
 6722TIP3    H141725   6.024   4.602   8.479
 6722TIP3    H241726   6.134   4.668   8.559
 6723TIP3   OH241727   3.715   5.413   1.342
 6723TIP3    H141728   3.682   5.502   1.356
 6723TIP3    H241729   3.778   5.422   1.270
 6724TIP3   OH241730   1.576   5.544   1.654
 6724TIP3    H141731   1.518   5.468   1.649
 6724TIP3    H241732   1.584   5.561   1.748
 6725TIP3   OH241733   1.072   2.620   6.941
 6725TIP3    H141734   1.045   2.712   6.942
 6725TIP3    H241735   1.086   2.601   6.848
 6726TIP3   OH241736   3.144   6.431   8.067
 6726TIP3    H141737   3.062   6.481   8.071
 6726TIP3    H241738   3.117   6.340   8.082
 6727TIP3   OH241739   5.840   3.695   7.693
 6727TIP3    H141740   5.752   3.691   7.731
 6727TIP3    H241741   5.878   3.609   7.710
 6728TIP3   OH241742   0.901   5.246   6.442
 6728TIP3    H141743   0.881   5.290   6.360
 6728TIP3    H241744   0.945   5.313   6.495
 6729TIP3   OH241745   2.947   3.943   2.174
 6729TIP3    H141746   2.892   3.872   2.207
 6729TIP3    H241747   3.028   3.936   2.223
 6730TIP3   OH241748   0.955   0.345   1.749
 6730TIP3    H141749   0.935   0.438   1.761
 6730TIP3    H241750   1.037   0.331   1.796
 6731TIP3   OH241751   3.650   6.780   1.449
 6731TIP3    H141752   3.683   6.722   1.380
 6731TIP3    H241753   3.592   6.726   1.501
 6732TIP3   OH241754   1.667   2.654   1.017
 6732TIP3    H141755   1.577   2.685   1.032
 6732TIP3    H241756   1.677   2.581   1.079
 6733TIP3   OH241757   2.884   4.302   8.171
 6733TIP3    H141758   2.825   4.365   8.128
 6733TIP3    H241759   2.831   4.263   8.240
 6734TIP3   OH241760   3.156   6.304   0.280
 6734TIP3    H141761   3.177   6.217   0.312
 6734TIP3    H241762   3.168   6.299   0.185
 6735TIP3   OH241763   2.176   6.836   1.711
 6735TIP3    H141764   2.093   6.876   1.738
 6735TIP3    H241765   2.232   6.841   1.788
 6736TIP3   OH241766   1.453   3.363   7.759
 6736TIP3    H141767   1.487   3.400   7.841
 6736TIP3    H241768   1.482   3.424   7.691
 6737TIP3   OH241769   1.943   2.362   7.148
 6737TIP3    H141770   1.967   2.384   7.238
 6737TIP3    H241771   2.024   2.375   7.098
 6738TIP3   OH241772   4.851   0.824   7.876
 6738TIP3    H141773   4.870   0.916   7.860
 6738TIP3    H241774   4.765   0.810   7.837
 6739TIP3   OH241775   6.854   3.218   7.440
 6739TIP3    H141776   6.828   3.129   7.415
 6739TIP3    H241777   6.849   3.219   7.535
 6740TIP3   OH241778   0.555   5.782   1.074
 6740TIP3    H141779   0.557   5.772   1.169
 6740TIP3    H241780   0.596   5.867   1.058
 6741TIP3   OH241781   5.072   5.942   6.090
 6741TIP3    H141782   5.027   5.901   6.018
 6741TIP3    H241783   5.165   5.926   6.073
 6742TIP3   OH241784   2.442   4.751   7.329
 6742TIP3    H141785   2.389   4.686   7.374
 6742TIP3    H241786   2.530   4.713   7.326
 6743TIP3   OH241787   5.695   4.864   8.035
 6743TIP3    H141788   5.620   4.806   8.043
 6743TIP3    H241789   5.721   4.857   7.943
 6744TIP3   OH241790   3.907   4.461   7.822
 6744TIP3    H141791   3.867   4.374   7.831
 6744TIP3    H241792   3.850   4.519   7.873
 6745TIP3   OH241793   2.981   0.663   8.171
 6745TIP3    H141794   2.990   0.629   8.082
 6745TIP3    H241795   2.906   0.615   8.207
 6746TIP3   OH241796   0.249   1.671   7.962
 6746TIP3    H141797   0.198   1.751   7.960
 6746TIP3    H241798   0.282   1.665   8.052
 6747TIP3   OH241799   3.810   4.230   6.710
 6747TIP3    H141800   3.882   4.269   6.759
 6747TIP3    H241801   3.824   4.136   6.716
 6748TIP3   OH241802   3.219   0.071   1.826
 6748TIP3    H141803   3.265   0.010   1.769
 6748TIP3    H241804   3.230   0.157   1.785
 6749TIP3   OH241805   6.871   5.653   0.609
 6749TIP3    H141806   6.868   5.695   0.695
 6749TIP3    H241807   6.885   5.561   0.628
 6750TIP3   OH241808   1.643   5.970   8.345
 6750TIP3    H141809   1.729   6.000   8.317
 6750TIP3    H241810   1.631   6.010   8.431
 6751TIP3   OH241811   2.358   3.840   7.683
 6751TIP3    H141812   2.437   3.880   7.648
 6751TIP3    H241813   2.292   3.910   7.680
 6752TIP3   OH241814   6.195   0.105   8.427
 6752TIP3    H141815   6.212   0.011   8.425
 6752TIP3    H241816   6.142   0.122   8.349
 6753TIP3   OH241817   3.882   1.934   7.229
 6753TIP3    H141818   3.833   2.017   7.226
 6753TIP3    H241819   3.878   1.908   7.321
 6754TIP3   OH241820   0.381   5.490   8.001
 6754TIP3    H141821   0.374   5.400   8.035
 6754TIP3    H241822   0.472   5.499   7.976
 6755TIP3   OH241823   5.952   0.730   1.780
 6755TIP3    H141824   5.948   0.648   1.730
 6755TIP3    H241825   5.873   0.730   1.832
 6756TIP3   OH241826   1.134   4.184   6.693
 6756TIP3    H141827   1.114   4.140   6.775
 6756TIP3    H241828   1.087   4.132   6.626
 6757TIP3   OH241829   2.557   0.125   0.488
 6757TIP3    H141830   2.529   0.180   0.561
 6757TIP3    H241831   2.567   0.038   0.526
 6758TIP3   OH241832   3.781   5.131   0.511
 6758TIP3    H141833   3.799   5.221   0.540
 6758TIP3    H241834   3.687   5.120   0.525
 6759TIP3   OH241835   5.927   4.040   6.870
 6759TIP3    H141836   5.839   4.057   6.837
 6759TIP3    H241837   5.942   3.947   6.851
 6760TIP3   OH241838   4.847   0.375   7.304
 6760TIP3    H141839   4.785   0.447   7.310
 6760TIP3    H241840   4.933   0.417   7.310
 6761TIP3   OH241841   0.021   0.960   6.335
 6761TIP3    H141842   0.066   0.878   6.319
 6761TIP3    H241843   0.089   1.019   6.367
 6762TIP3   OH241844   3.755   2.280   6.969
 6762TIP3    H141845   3.823   2.338   6.934
 6762TIP3    H241846   3.692   2.271   6.897
 6763TIP3   OH241847   6.641   5.161   0.923
 6763TIP3    H141848   6.605   5.076   0.899
 6763TIP3    H241849   6.699   5.184   0.850
 6764TIP3   OH241850   4.896   6.694   2.365
 6764TIP3    H141851   4.984   6.656   2.362
 6764TIP3    H241852   4.859   6.661   2.446
 6765TIP3   OH241853   5.558   6.333   1.086
 6765TIP3    H141854   5.557   6.420   1.047
 6765TIP3    H241855   5.647   6.321   1.119
 6766TIP3   OH241856   6.398   5.149   0.632
 6766TIP3    H141857   6.377   5.079   0.694
 6766TIP3    H241858   6.345   5.223   0.662
 6767TIP3   OH241859   2.374   1.875   0.348
 6767TIP3    H141860   2.299   1.901   0.402
 6767TIP3    H241861   2.349   1.900   0.259
 6768TIP3   OH241862   4.576   4.753   1.249
 6768TIP3    H141863   4.635   4.821   1.219
 6768TIP3    H241864   4.632   4.692   1.297
 6769TIP3   OH241865   0.138   4.262   6.535
 6769TIP3    H141866   0.201   4.334   6.525
 6769TIP3    H241867   0.187   4.193   6.580
 6770TIP3   OH241868   4.650   5.839   1.655
 6770TIP3    H141869   4.613   5.811   1.571
 6770TIP3    H241870   4.705   5.914   1.633
 6771TIP3   OH241871   1.839   6.052   6.871
 6771TIP3    H141872   1.921   6.095   6.894
 6771TIP3    H241873   1.785   6.121   6.833
 6772TIP3   OH241874   2.493   6.428   0.896
 6772TIP3    H141875   2.487   6.444   0.801
 6772TIP3    H241876   2.576   6.383   0.908
 6773TIP3   OH241877   5.455   3.352   0.315
 6773TIP3    H141878   5.538   3.309   0.336
 6773TIP3    H241879   5.390   3.305   0.368
 6774TIP3   OH241880   0.320   1.249   8.600
 6774TIP3    H141881   0.262   1.311   0.040
 6774TIP3    H241882   0.271   1.220   8.522
 6775TIP3   OH241883   2.235   6.867   5.943
 6775TIP3    H141884   2.156   6.823   5.975
 6775TIP3    H241885   2.205   0.043   5.919
 6776TIP3   OH241886   1.865   4.185   8.477
 6776TIP3    H141887   1.812   4.254   8.436
 6776TIP3    H241888   1.891   4.223   8.561
 6777TIP3   OH241889   3.179   6.666   7.114
 6777TIP3    H141890   3.161   6.628   7.028
 6777TIP3    H241891   3.270   6.643   7.132
 6778TIP3   OH241892   3.243   2.885   0.098
 6778TIP3    H141893   3.298   2.958   0.128
 6778TIP3    H241894   3.242   2.825   0.173
 6779TIP3   OH241895   6.672   4.293   6.239
 6779TIP3    H141896   6.741   4.347   6.278
 6779TIP3    H241897   6.713   4.208   6.226
 6780TIP3   OH241898   6.243   2.213   1.860
 6780TIP3    H141899   6.242   2.308   1.852
 6780TIP3    H241900   6.230   2.197   1.953
 6781TIP3   OH241901   1.083   5.562   2.162
 6781TIP3    H141902   1.041   5.647   2.174
 6781TIP3    H241903   1.024   5.500   2.203
 6782TIP3   OH241904   3.327   5.456   6.694
 6782TIP3    H141905   3.300   5.481   6.605
 6782TIP3    H241906   3.419   5.430   6.684
 6783TIP3   OH241907   2.005   3.970   7.446
 6783TIP3    H141908   1.994   3.888   7.496
 6783TIP3    H241909   2.100   3.979   7.436
 6784TIP3   OH241910   6.254   3.278   7.748
 6784TIP3    H141911   6.180   3.217   7.743
 6784TIP3    H241912   6.271   3.303   7.657
 6785TIP3   OH241913   4.780   3.444   8.494
 6785TIP3    H141914   4.821   3.393   8.565
 6785TIP3    H241915   4.816   3.532   8.505
 6786TIP3   OH241916   6.150   4.982   6.736
 6786TIP3    H141917   6.189   5.066   6.759
 6786TIP3    H241918   6.078   4.971   6.799
 6787TIP3   OH241919   0.893   4.603   0.394
 6787TIP3    H141920   0.976   4.648   0.379
 6787TIP3    H241921   0.876   4.556   0.312
 6788TIP3   OH241922   0.598   4.439   2.246
 6788TIP3    H141923   0.537   4.381   2.201
 6788TIP3    H241924   0.673   4.383   2.266
 6789TIP3   OH241925   3.502   3.705   2.600
 6789TIP3    H141926   3.507   3.640   2.670
 6789TIP3    H241927   3.425   3.680   2.550
 6790TIP3   OH241928   0.718   0.201   7.316
 6790TIP3    H141929   0.766   0.171   7.239
 6790TIP3    H241930   0.691   0.120   7.361
 6791TIP3   OH241931   6.500   2.854   6.983
 6791TIP3    H141932   6.415   2.829   6.947
 6791TIP3    H241933   6.487   2.856   7.077
 6792TIP3   OH241934   4.675   5.713   2.684
 6792TIP3    H141935   4.753   5.673   2.721
 6792TIP3    H241936   4.701   5.804   2.667
 6793TIP3   OH241937   1.036   3.748   1.266
 6793TIP3    H141938   0.976   3.821   1.283
 6793TIP3    H241939   1.098   3.750   1.338
 6794TIP3   OH241940   1.718   6.346   0.493
 6794TIP3    H141941   1.658   6.283   0.453
 6794TIP3    H241942   1.792   6.350   0.433
 6795TIP3   OH241943   3.793   5.818   8.069
 6795TIP3    H141944   3.750   5.903   8.055
 6795TIP3    H241945   3.748   5.759   8.009
 6796TIP3   OH241946   2.445   1.126   7.757
 6796TIP3    H141947   2.388   1.177   7.814
 6796TIP3    H241948   2.498   1.073   7.817
 6797TIP3   OH241949   6.285   2.724   0.157
 6797TIP3    H141950   6.333   2.784   0.215
 6797TIP3    H241951   6.343   2.712   0.082
 6798TIP3   OH241952   4.938   3.753   1.741
 6798TIP3    H141953   4.956   3.730   1.832
 6798TIP3    H241954   4.847   3.727   1.728
 6799TIP3   OH241955   4.663   6.158   7.026
 6799TIP3    H141956   4.679   6.104   7.104
 6799TIP3    H241957   4.717   6.118   6.958
 6800TIP3   OH241958   6.638   5.584   1.919
 6800TIP3    H141959   6.702   5.653   1.938
 6800TIP3    H241960   6.620   5.543   2.003
 6801TIP3   OH241961   6.171   4.801   1.366
 6801TIP3    H141962   6.120   4.881   1.355
 6801TIP3    H241963   6.140   4.764   1.449
 6802TIP3   OH241964   4.926   5.059   0.059
 6802TIP3    H141965   4.847   5.093   0.018
 6802TIP3    H241966   4.997   5.086   0.001
 6803TIP3   OH241967   1.021   6.500   0.763
 6803TIP3    H141968   1.062   6.581   0.735
 6803TIP3    H241969   1.049   6.435   0.698
 6804TIP3   OH241970   3.081   0.079   7.397
 6804TIP3    H141971   3.074   6.903   7.432
 6804TIP3    H241972   3.133   0.070   7.317
 6805TIP3   OH241973   6.706   2.466   0.491
 6805TIP3    H141974   6.692   2.403   0.562
 6805TIP3    H241975   6.620   2.478   0.451
 6806TIP3   OH241976   1.963   4.767   0.906
 6806TIP3    H141977   1.913   4.848   0.893
 6806TIP3    H241978   1.896   4.702   0.930
 6807TIP3   OH241979   2.611   5.109   1.776
 6807TIP3    H141980   2.642   5.067   1.856
 6807TIP3    H241981   2.690   5.145   1.735
 6808TIP3   OH241982   4.677   5.164   0.931
 6808TIP3    H141983   4.611   5.156   0.863
 6808TIP3    H241984   4.760   5.152   0.886
 6809TIP3   OH241985   3.666   5.180   6.512
 6809TIP3    H141986   3.726   5.208   6.582
 6809TIP3    H241987   3.584   5.160   6.558
 6810TIP3   OH241988   2.379   5.114   1.644
 6810TIP3    H141989   2.472   5.115   1.666
 6810TIP3    H241990   2.362   5.024   1.615
 6811TIP3   OH241991   3.866   4.896   7.827
 6811TIP3    H141992   3.813   4.969   7.858
 6811TIP3    H241993   3.913   4.931   7.752
 6812TIP3   OH241994   5.642   2.176   1.273
 6812TIP3    H141995   5.594   2.111   1.325
 6812TIP3    H241996   5.642   2.140   1.184
 6813TIP3   OH241997   4.675   6.540   2.244
 6813TIP3    H141998   4.706   6.499   2.163
 6813TIP3    H241999   4.741   6.606   2.264
 6814TIP3   OH242000   3.491   4.412   0.507
 6814TIP3    H142001   3.440   4.333   0.490
 6814TIP3    H242002   3.429   4.474   0.544
 6815TIP3   OH242003   5.336   2.712   1.303
 6815TIP3    H142004   5.345   2.734   1.395
 6815TIP3    H242005   5.301   2.791   1.262
 6816TIP3   OH242006   5.645   5.896   7.973
 6816TIP3    H142007   5.702   5.833   8.017
 6816TIP3    H242008   5.691   5.917   7.892
 6817TIP3   OH242009   4.564   5.426   0.970
 6817TIP3    H142010   4.628   5.478   0.921
 6817TIP3    H242011   4.587   5.335   0.952
 6818TIP3   OH242012   6.363   0.952   1.035
 6818TIP3    H142013   6.393   1.026   0.982
 6818TIP3    H242014   6.343   0.991   1.121
 6819TIP3   OH242015   5.722   0.775   8.588
 6819TIP3    H142016   5.772   0.717   0.042
 6819TIP3    H242017   5.786   0.838   8.554
 6820TIP3   OH242018   1.337   1.931   7.607
 6820TIP3    H142019   1.316   1.858   7.548
 6820TIP3    H242020   1.256   1.982   7.610
 6821TIP3   OH242021   5.965   1.100   0.562
 6821TIP3    H142022   5.951   1.170   0.498
 6821TIP3    H242023   6.058   1.107   0.584
 6822TIP3   OH242024   6.008   3.377   0.896
 6822TIP3    H142025   6.066   3.355   0.823
 6822TIP3    H242026   6.020   3.304   0.958
 6823TIP3   OH242027   0.473   2.360   8.172
 6823TIP3    H142028   0.404   2.402   8.224
 6823TIP3    H242029   0.479   2.271   8.208
 6824TIP3   OH242030   5.757   5.371   1.615
 6824TIP3    H142031   5.737   5.288   1.658
 6824TIP3    H242032   5.810   5.419   1.679
 6825TIP3   OH242033   5.661   3.669   6.890
 6825TIP3    H142034   5.603   3.627   6.826
 6825TIP3    H242035   5.679   3.601   6.955
 6826TIP3   OH242036   5.352   2.826   1.579
 6826TIP3    H142037   5.308   2.911   1.582
 6826TIP3    H242038   5.400   2.821   1.663
 6827TIP3   OH242039   6.543   1.108   0.810
 6827TIP3    H142040   6.560   1.021   0.775
 6827TIP3    H242041   6.630   1.145   0.827
 6828TIP3   OH242042   2.205   5.805   6.475
 6828TIP3    H142043   2.212   5.832   6.566
 6828TIP3    H242044   2.215   5.710   6.476
 6829TIP3   OH242045   4.860   5.751   7.586
 6829TIP3    H142046   4.800   5.696   7.636
 6829TIP3    H242047   4.812   5.833   7.572
 6830TIP3   OH242048   1.680   5.290   1.513
 6830TIP3    H142049   1.624   5.311   1.438
 6830TIP3    H242050   1.630   5.225   1.563
 6831TIP3   OH242051   0.536   6.460   1.805
 6831TIP3    H142052   0.450   6.472   1.846
 6831TIP3    H242053   0.598   6.468   1.877
 6832TIP3   OH242054   1.439   2.351   6.947
 6832TIP3    H142055   1.405   2.267   6.917
 6832TIP3    H242056   1.437   2.407   6.869
 6833TIP3   OH242057   3.293   4.564   1.617
 6833TIP3    H142058   3.262   4.477   1.590
 6833TIP3    H242059   3.337   4.548   1.701
 6834TIP3   OH242060   3.231   3.612   2.022
 6834TIP3    H142061   3.239   3.532   1.971
 6834TIP3    H242062   3.214   3.680   1.957
 6835TIP3   OH242063   0.255   6.366   7.850
 6835TIP3    H142064   0.330   6.310   7.829
 6835TIP3    H242065   0.273   6.399   7.938
 6836TIP3   OH242066   6.080   3.158   2.349
 6836TIP3    H142067   6.095   3.223   2.280
 6836TIP3    H242068   6.144   3.089   2.332
 6837TIP3   OH242069   6.832   4.476   2.198
 6837TIP3    H142070   6.835   4.410   2.129
 6837TIP3    H242071   6.819   4.426   2.279
 6838TIP3   OH242072   6.091   6.569   7.080
 6838TIP3    H142073   6.035   6.564   7.003
 6838TIP3    H242074   6.031   6.581   7.153
 6839TIP3   OH242075   4.704   2.806   6.320
 6839TIP3    H142076   4.680   2.876   6.259
 6839TIP3    H242077   4.699   2.847   6.407
 6840TIP3   OH242078   2.685   3.798   2.042
 6840TIP3    H142079   2.687   3.762   2.131
 6840TIP3    H242080   2.716   3.727   1.986
 6841TIP3   OH242081   1.816   0.464   0.012
 6841TIP3    H142082   1.752   0.523   8.576
 6841TIP3    H242083   1.830   0.396   8.549
 6842TIP3   OH242084   1.422   0.479   2.247
 6842TIP3    H142085   1.391   0.511   2.163
 6842TIP3    H242086   1.512   0.510   2.254
 6843TIP3   OH242087   1.863   6.373   2.391
 6843TIP3    H142088   1.856   6.465   2.366
 6843TIP3    H242089   1.779   6.352   2.432
 6844TIP3   OH242090   0.981   0.882   6.541
 6844TIP3    H142091   1.061   0.829   6.546
 6844TIP3    H242092   1.013   0.973   6.542
 6845TIP3   OH242093   4.070   2.391   8.053
 6845TIP3    H142094   4.139   2.441   8.009
 6845TIP3    H242095   4.077   2.417   8.145
 6846TIP3   OH242096   1.716   3.380   7.510
 6846TIP3    H142097   1.804   3.361   7.477
 6846TIP3    H242098   1.710   3.475   7.510
 6847TIP3   OH242099   0.576   6.036   1.436
 6847TIP3    H142100   0.515   6.052   1.508
 6847TIP3    H242101   0.550   6.098   1.368
 6848TIP3   OH242102   2.546   4.213   8.591
 6848TIP3    H142103   2.478   4.252   8.536
 6848TIP3    H242104   2.517   4.123   0.002
 6849TIP3   OH242105   2.729   4.102   0.403
 6849TIP3    H142106   2.684   4.177   0.363
 6849TIP3    H242107   2.708   4.108   0.496
 6850TIP3   OH242108   2.051   3.398   8.180
 6850TIP3    H142109   2.050   3.343   8.259
 6850TIP3    H242110   2.019   3.483   8.211
 6851TIP3   OH242111   4.596   4.716   0.359
 6851TIP3    H142112   4.614   4.796   0.410
 6851TIP3    H242113   4.682   4.686   0.330
 6852TIP3   OH242114   0.982   0.890   7.825
 6852TIP3    H142115   0.900   0.912   7.869
 6852TIP3    H242116   1.003   0.802   7.856
 6853TIP3   OH242117   4.946   1.197   7.222
 6853TIP3    H142118   4.867   1.224   7.175
 6853TIP3    H242119   4.963   1.108   7.190
 6854TIP3   OH242120   3.386   1.424   1.862
 6854TIP3    H142121   3.365   1.517   1.854
 6854TIP3    H242122   3.392   1.409   1.956
 6855TIP3   OH242123   2.079   2.581   1.448
 6855TIP3    H142124   2.131   2.621   1.378
 6855TIP3    H242125   2.121   2.611   1.529
 6856TIP3   OH242126   2.002   1.712   1.394
 6856TIP3    H142127   2.086   1.721   1.348
 6856TIP3    H242128   2.006   1.779   1.463
 6857TIP3   OH242129   2.663   1.789   2.027
 6857TIP3    H142130   2.721   1.803   1.952
 6857TIP3    H242131   2.614   1.710   2.005
 6858TIP3   OH242132   1.965   4.126   6.710
 6858TIP3    H142133   1.938   4.199   6.655
 6858TIP3    H242134   1.883   4.087   6.741
 6859TIP3   OH242135   5.145   6.871   1.950
 6859TIP3    H142136   5.210   6.853   1.882
 6859TIP3    H242137   5.111   6.785   1.976
 6860TIP3   OH242138   6.163   4.907   7.340
 6860TIP3    H142139   6.069   4.924   7.347
 6860TIP3    H242140   6.191   4.894   7.430
 6861TIP3   OH242141   3.226   5.873   0.642
 6861TIP3    H142142   3.209   5.794   0.693
 6861TIP3    H242143   3.143   5.893   0.599
 6862TIP3   OH242144   6.085   2.589   0.497
 6862TIP3    H142145   6.104   2.542   0.578
 6862TIP3    H242146   6.076   2.680   0.524
 6863TIP3   OH242147   6.107   0.133   7.484
 6863TIP3    H142148   6.062   0.178   7.556
 6863TIP3    H242149   6.114   0.042   7.512
 6864TIP3   OH242150   5.010   2.103   6.991
 6864TIP3    H142151   5.055   2.029   7.030
 6864TIP3    H242152   4.939   2.064   6.940
 6865TIP3   OH242153   5.799   4.873   6.947
 6865TIP3    H142154   5.741   4.876   7.023
 6865TIP3    H242155   5.749   4.915   6.877
 6866TIP3   OH242156   4.908   4.123   6.712
 6866TIP3    H142157   4.956   4.172   6.645
 6866TIP3    H242158   4.911   4.179   6.790
 6867TIP3   OH242159   5.577   5.413   2.211
 6867TIP3    H142160   5.488   5.382   2.193
 6867TIP3    H242161   5.610   5.352   2.278
 6868TIP3   OH242162   4.050   5.404   7.331
 6868TIP3    H142163   4.000   5.446   7.401
 6868TIP3    H242164   3.991   5.401   7.257
 6869TIP3   OH242165   2.735   6.633   6.964
 6869TIP3    H142166   2.792   6.557   6.950
 6869TIP3    H242167   2.688   6.613   7.045
 6870TIP3   OH242168   3.047   6.613   0.153
 6870TIP3    H142169   2.964   6.632   0.198
 6870TIP3    H242170   3.114   6.625   0.220
 6871TIP3   OH242171   4.264   4.157   1.325
 6871TIP3    H142172   4.357   4.159   1.346
 6871TIP3    H242173   4.238   4.249   1.321
 6872TIP3   OH242174   4.045   4.804   7.491
 6872TIP3    H142175   4.101   4.820   7.416
 6872TIP3    H242176   4.023   4.892   7.524
 6873TIP3   OH242177   4.262   0.922   8.291
 6873TIP3    H142178   4.186   0.864   8.300
 6873TIP3    H242179   4.337   0.867   8.312
 6874TIP3   OH242180   2.058   5.589   6.780
 6874TIP3    H142181   2.097   5.653   6.722
 6874TIP3    H242182   1.985   5.635   6.822
 6875TIP3   OH242183   5.643   5.141   6.754
 6875TIP3    H142184   5.634   5.158   6.660
 6875TIP3    H242185   5.738   5.148   6.770
 6876TIP3   OH242186   3.274   6.655   6.199
 6876TIP3    H142187   3.218   6.604   6.140
 6876TIP3    H242188   3.314   6.721   6.142
 6877TIP3   OH242189   0.080   6.561   1.388
 6877TIP3    H142190   0.051   6.550   1.298
 6877TIP3    H242191   0.001   6.553   1.440
 6878TIP3   OH242192   0.786   5.926   8.518
 6878TIP3    H142193   0.779   5.908   0.009
 6878TIP3    H242194   0.854   5.993   8.511
 6879TIP3   OH242195   1.264   4.507   7.320
 6879TIP3    H142196   1.299   4.439   7.378
 6879TIP3    H242197   1.211   4.562   7.378
 6880TIP3   OH242198   0.781   6.221   7.230
 6880TIP3    H142199   0.840   6.269   7.289
 6880TIP3    H242200   0.772   6.134   7.270
 6881TIP3   OH242201   6.531   0.721   6.698
 6881TIP3    H142202   6.542   0.627   6.688
 6881TIP3    H242203   6.495   0.751   6.615
 6882TIP3   OH242204   4.893   1.619   1.865
 6882TIP3    H142205   4.928   1.690   1.918
 6882TIP3    H242206   4.822   1.660   1.815
 6883TIP3   OH242207   0.607   5.330   6.701
 6883TIP3    H142208   0.614   5.235   6.688
 6883TIP3    H242209   0.680   5.366   6.650
 6884TIP3   OH242210   4.097   0.131   2.890
 6884TIP3    H142211   4.145   0.071   2.833
 6884TIP3    H242212   4.005   0.108   2.878
 6885TIP3   OH242213   1.684   5.552   1.160
 6885TIP3    H142214   1.645   5.498   1.091
 6885TIP3    H242215   1.612   5.575   1.218
 6886TIP3   OH242216   4.654   0.197   8.129
 6886TIP3    H142217   4.601   0.168   8.055
 6886TIP3    H242218   4.744   0.170   8.106
 6887TIP3   OH242219   2.695   0.169   0.894
 6887TIP3    H142220   2.629   0.105   0.920
 6887TIP3    H242221   2.651   0.226   0.831
 6888TIP3   OH242222   5.915   2.971   1.042
 6888TIP3    H142223   5.930   3.011   1.128
 6888TIP3    H242224   5.820   2.959   1.038
 6889TIP3   OH242225   4.528   1.775   0.004
 6889TIP3    H142226   4.571   1.696   0.035
 6889TIP3    H242227   4.532   1.769   8.511
 6890TIP3   OH242228   2.164   3.889   8.124
 6890TIP3    H142229   2.236   3.942   8.156
 6890TIP3    H242230   2.198   3.847   8.045
 6891TIP3   OH242231   4.880   1.282   6.930
 6891TIP3    H142232   4.851   1.192   6.912
 6891TIP3    H242233   4.909   1.315   6.845
 6892TIP3   OH242234   1.045   3.006   1.324
 6892TIP3    H142235   1.101   3.041   1.255
 6892TIP3    H242236   1.095   2.932   1.360
 6893TIP3   OH242237   1.502   5.555   7.660
 6893TIP3    H142238   1.492   5.482   7.598
 6893TIP3    H242239   1.413   5.582   7.680
 6894TIP3   OH242240   0.833   6.133   8.120
 6894TIP3    H142241   0.767   6.202   8.116
 6894TIP3    H242242   0.879   6.149   8.203
 6895TIP3   OH242243   1.794   3.469   7.988
 6895TIP3    H142244   1.699   3.466   7.996
 6895TIP3    H242245   1.822   3.378   7.993
 6896TIP3   OH242246   1.078   4.310   0.786
 6896TIP3    H142247   1.002   4.348   0.831
 6896TIP3    H242248   1.084   4.221   0.820
 6897TIP3   OH242249   6.758   6.786   1.916
 6897TIP3    H142250   6.723   6.868   1.881
 6897TIP3    H242251   6.831   6.813   1.972
 6898TIP3   OH242252   0.748   3.632   1.337
 6898TIP3    H142253   0.806   3.557   1.345
 6898TIP3    H242254   0.777   3.693   1.404
 6899TIP3   OH242255   5.143   5.976   1.267
 6899TIP3    H142256   5.236   5.995   1.260
 6899TIP3    H242257   5.100   6.062   1.265
 6900TIP3   OH242258   4.095   2.847   1.373
 6900TIP3    H142259   4.046   2.790   1.433
 6900TIP3    H242260   4.185   2.843   1.404
 6901TIP3   OH242261   6.393   4.592   8.506
 6901TIP3    H142262   6.360   4.551   8.586
 6901TIP3    H242263   6.325   4.654   8.481
 6902TIP3   OH242264   4.013   5.765   2.108
 6902TIP3    H142265   3.934   5.780   2.055
 6902TIP3    H242266   3.980   5.725   2.188
 6903TIP3   OH242267   4.333   5.370   0.553
 6903TIP3    H142268   4.336   5.422   0.634
 6903TIP3    H242269   4.262   5.410   0.502
 6904TIP3   OH242270   4.936   0.915   7.110
 6904TIP3    H142271   5.024   0.894   7.142
 6904TIP3    H242272   4.937   0.887   7.018
 6905TIP3   OH242273   6.418   5.650   0.957
 6905TIP3    H142274   6.466   5.568   0.962
 6905TIP3    H242275   6.354   5.645   1.029
 6906TIP3   OH242276   4.711   4.501   1.329
 6906TIP3    H142277   4.752   4.477   1.246
 6906TIP3    H242278   4.783   4.498   1.393
 6907TIP3   OH242279   2.531   2.820   1.004
 6907TIP3    H142280   2.597   2.773   1.056
 6907TIP3    H242281   2.493   2.753   0.948
 6908TIP3   OH242282   5.902   6.240   8.589
 6908TIP3    H142283   5.867   6.163   0.031
 6908TIP3    H242284   5.947   6.205   8.513
 6909TIP3   OH242285   0.439   2.861   8.397
 6909TIP3    H142286   0.402   2.925   8.335
 6909TIP3    H242287   0.369   2.845   8.460
 6910TIP3   OH242288   0.589   4.795   6.786
 6910TIP3    H142289   0.581   4.705   6.754
 6910TIP3    H242290   0.559   4.791   6.877
 6911TIP3   OH242291   0.689   5.182   1.452
 6911TIP3    H142292   0.778   5.168   1.482
 6911TIP3    H242293   0.687   5.272   1.422
 6912TIP3   OH242294   2.156   2.988   7.948
 6912TIP3    H142295   2.062   2.970   7.952
 6912TIP3    H242296   2.190   2.923   7.886
 6913TIP3   OH242297   4.082   6.643   6.313
 6913TIP3    H142298   4.156   6.600   6.270
 6913TIP3    H242299   4.005   6.607   6.271
 6914TIP3   OH242300   3.212   5.032   6.615
 6914TIP3    H142301   3.243   4.965   6.553
 6914TIP3    H242302   3.289   5.053   6.668
 6915TIP3   OH242303   3.075   1.260   0.465
 6915TIP3    H142304   3.066   1.182   0.519
 6915TIP3    H242305   3.169   1.273   0.457
 6916TIP3   OH242306   2.070   3.770   0.660
 6916TIP3    H142307   2.115   3.703   0.713
 6916TIP3    H242308   2.053   3.841   0.721
 6917TIP3   OH242309   5.137   3.083   0.115
 6917TIP3    H142310   5.075   3.090   0.187
 6917TIP3    H242311   5.203   3.022   0.146
 6918TIP3   OH242312   3.417   1.319   7.140
 6918TIP3    H142313   3.478   1.333   7.067
 6918TIP3    H242314   3.353   1.390   7.131
 6919TIP3   OH242315   5.806   6.220   1.131
 6919TIP3    H142316   5.900   6.236   1.137
 6919TIP3    H242317   5.799   6.126   1.111
 6920TIP3   OH242318   2.143   1.909   7.154
 6920TIP3    H142319   2.108   1.826   7.186
 6920TIP3    H242320   2.116   1.974   7.219
 6921TIP3   OH242321   1.316   3.893   1.027
 6921TIP3    H142322   1.226   3.919   1.006
 6921TIP3    H242323   1.331   3.929   1.114
 6922TIP3   OH242324   5.815   5.322   6.929
 6922TIP3    H142325   5.828   5.241   6.978
 6922TIP3    H242326   5.728   5.352   6.954
 6923TIP3   OH242327   1.359   6.852   0.327
 6923TIP3    H142328   1.291   6.901   0.374
 6923TIP3    H242329   1.354   6.764   0.363
 6924TIP3   OH242330   3.615   0.038   0.617
 6924TIP3    H142331   3.641   6.886   0.550
 6924TIP3    H242332   3.609   6.899   0.698
 6925TIP3   OH242333   5.968   6.334   0.252
 6925TIP3    H142334   6.048   6.388   0.251
 6925TIP3    H242335   5.956   6.309   0.161
 6926TIP3   OH242336   5.593   0.605   6.945
 6926TIP3    H142337   5.523   0.627   6.884
 6926TIP3    H242338   5.624   0.519   6.916
 6927TIP3   OH242339   4.415   2.114   8.301
 6927TIP3    H142340   4.453   2.100   8.388
 6927TIP3    H242341   4.484   2.087   8.240
 6928TIP3   OH242342   4.583   4.885   1.873
 6928TIP3    H142343   4.548   4.883   1.784
 6928TIP3    H242344   4.671   4.849   1.866
 6929TIP3   OH242345   0.130   3.339   1.840
 6929TIP3    H142346   0.151   3.324   1.932
 6929TIP3    H242347   0.109   3.432   1.834
 6930TIP3   OH242348   6.139   4.027   0.241
 6930TIP3    H142349   6.044   4.017   0.239
 6930TIP3    H242350   6.162   4.017   0.333
 6931TIP3   OH242351   3.169   0.162   7.730
 6931TIP3    H142352   3.202   0.076   7.704
 6931TIP3    H242353   3.224   0.224   7.682
 6932TIP3   OH242354   5.859   0.818   8.225
 6932TIP3    H142355   5.876   0.743   8.281
 6932TIP3    H242356   5.943   0.838   8.185
 6933TIP3   OH242357   2.614   0.256   7.641
 6933TIP3    H142358   2.668   0.331   7.615
 6933TIP3    H242359   2.668   0.180   7.622
 6934TIP3   OH242360   3.208   1.592   7.781
 6934TIP3    H142361   3.185   1.499   7.792
 6934TIP3    H242362   3.210   1.627   7.869
 6935TIP3   OH242363   2.440   3.646   6.712
 6935TIP3    H142364   2.527   3.681   6.696
 6935TIP3    H242365   2.381   3.720   6.700
 6936TIP3   OH242366   0.653   4.728   0.682
 6936TIP3    H142367   0.698   4.651   0.717
 6936TIP3    H242368   0.614   4.698   0.600
 6937TIP3   OH242369   4.186   4.977   1.276
 6937TIP3    H142370   4.273   5.009   1.252
 6937TIP3    H242371   4.140   4.968   1.193
 6938TIP3   OH242372   4.496   4.702   8.338
 6938TIP3    H142373   4.490   4.664   8.426
 6938TIP3    H242374   4.455   4.637   8.281
 6939TIP3   OH242375   0.154   2.623   0.186
 6939TIP3    H142376   0.231   2.584   0.227
 6939TIP3    H242377   0.080   2.574   0.222
 6940TIP3   OH242378   1.536   4.518   0.415
 6940TIP3    H142379   1.567   4.477   0.496
 6940TIP3    H242380   1.537   4.448   0.350
 6941TIP3   OH242381   5.257   6.122   8.284
 6941TIP3    H142382   5.258   6.183   8.211
 6941TIP3    H242383   5.188   6.154   8.342
 6942TIP3   OH242384   0.993   5.905   0.853
 6942TIP3    H142385   1.060   5.946   0.908
 6942TIP3    H242386   0.943   5.850   0.913
 6943TIP3   OH242387   5.354   1.185   1.100
 6943TIP3    H142388   5.347   1.090   1.091
 6943TIP3    H242389   5.276   1.219   1.057
 6944TIP3   OH242390   3.551   0.430   7.753
 6944TIP3    H142391   3.500   0.495   7.802
 6944TIP3    H242392   3.506   0.348   7.768
 6945TIP3   OH242393   0.566   1.907   0.151
 6945TIP3    H142394   0.545   1.892   0.058
 6945TIP3    H242395   0.656   1.938   0.151
 6946TIP3   OH242396   4.157   6.080   7.423
 6946TIP3    H142397   4.248   6.054   7.438
 6946TIP3    H242398   4.122   6.013   7.364
 6947TIP3   OH242399   0.245   2.983   0.127
 6947TIP3    H142400   0.150   2.994   0.128
 6947TIP3    H242401   0.260   2.902   0.078
 6948TIP3   OH242402   0.766   1.387   7.076
 6948TIP3    H142403   0.789   1.480   7.087
 6948TIP3    H242404   0.688   1.388   7.021
 6949TIP3   OH242405   4.907   0.216   6.571
 6949TIP3    H142406   4.848   0.163   6.625
 6949TIP3    H242407   4.950   0.152   6.515
 6950TIP3   OH242408   6.249   5.041   7.017
 6950TIP3    H142409   6.328   5.068   6.969
 6950TIP3    H242410   6.279   4.971   7.074
 6951TIP3   OH242411   5.037   1.224   1.208
 6951TIP3    H142412   5.010   1.313   1.185
 6951TIP3    H242413   4.983   1.201   1.283
 6952TIP3   OH242414   5.287   1.669   7.982
 6952TIP3    H142415   5.218   1.736   7.978
 6952TIP3    H242416   5.335   1.681   7.900
 6953TIP3   OH242417   2.945   6.078   0.128
 6953TIP3    H142418   2.997   6.059   0.207
 6953TIP3    H242419   2.989   6.153   0.089
 6954TIP3   OH242420   4.557   3.639   2.139
 6954TIP3    H142421   4.509   3.588   2.205
 6954TIP3    H242422   4.599   3.709   2.189
 6955TIP3   OH242423   6.726   2.680   6.162
 6955TIP3    H142424   6.721   2.587   6.183
 6955TIP3    H242425   6.813   2.691   6.123
 6956TIP3   OH242426   2.550   3.841   0.250
 6956TIP3    H142427   2.635   3.797   0.254
 6956TIP3    H242428   2.551   3.886   0.165
 6957TIP3   OH242429   3.129   6.030   1.224
 6957TIP3    H142430   3.178   6.109   1.202
 6957TIP3    H242431   3.058   6.060   1.280
 6958TIP3   OH242432   6.012   2.260   8.106
 6958TIP3    H142433   6.073   2.205   8.057
 6958TIP3    H242434   5.964   2.200   8.162
 6959TIP3   OH242435   1.796   5.819   6.720
 6959TIP3    H142436   1.847   5.833   6.641
 6959TIP3    H242437   1.828   5.886   6.781
 6960TIP3   OH242438   4.266   1.133   2.609
 6960TIP3    H142439   4.261   1.089   2.524
 6960TIP3    H242440   4.260   1.062   2.673
 6961TIP3   OH242441   0.061   2.489   1.166
 6961TIP3    H142442   6.902   2.425   1.161
 6961TIP3    H242443   0.114   2.472   1.088
 6962TIP3   OH242444   3.667   0.933   2.226
 6962TIP3    H142445   3.729   0.889   2.169
 6962TIP3    H242446   3.661   0.876   2.303
 6963TIP3   OH242447   1.969   0.940   2.207
 6963TIP3    H142448   1.981   0.995   2.285
 6963TIP3    H242449   1.876   0.918   2.207
 6964TIP3   OH242450   4.967   5.893   8.518
 6964TIP3    H142451   5.030   5.864   8.452
 6964TIP3    H242452   5.008   5.871   8.601
 6965TIP3   OH242453   6.520   4.032   7.701
 6965TIP3    H142454   6.464   3.958   7.719
 6965TIP3    H242455   6.525   4.036   7.606
 6966TIP3   OH242456   2.373   2.693   8.083
 6966TIP3    H142457   2.443   2.689   8.148
 6966TIP3    H242458   2.303   2.639   8.121
 6967TIP3   OH242459   4.086   1.742   1.302
 6967TIP3    H142460   4.012   1.756   1.243
 6967TIP3    H242461   4.164   1.759   1.248
 6968TIP3   OH242462   6.573   3.636   1.456
 6968TIP3    H142463   6.611   3.641   1.368
 6968TIP3    H242464   6.478   3.640   1.442
 6969TIP3   OH242465   0.811   3.317   1.786
 6969TIP3    H142466   0.882   3.356   1.735
 6969TIP3    H242467   0.836   3.225   1.794
 6970TIP3   OH242468   4.729   3.989   8.118
 6970TIP3    H142469   4.764   3.990   8.029
 6970TIP3    H242470   4.695   3.900   8.129
 6971TIP3   OH242471   4.902   1.606   6.388
 6971TIP3    H142472   4.830   1.543   6.382
 6971TIP3    H242473   4.887   1.651   6.471
 6972TIP3   OH242474   4.571   5.299   1.242
 6972TIP3    H142475   4.580   5.350   1.161
 6972TIP3    H242476   4.646   5.326   1.295
 6973TIP3   OH242477   6.330   0.951   7.996
 6973TIP3    H142478   6.372   0.903   7.925
 6973TIP3    H242479   6.357   1.042   7.983
 6974TIP3   OH242480   1.438   5.077   7.391
 6974TIP3    H142481   1.430   5.096   7.298
 6974TIP3    H242482   1.369   5.012   7.408
 6975TIP3   OH242483   0.509   1.135   7.047
 6975TIP3    H142484   0.513   1.128   7.142
 6975TIP3    H242485   0.421   1.166   7.029
 6976TIP3   OH242486   2.542   6.858   0.954
 6976TIP3    H142487   2.466   6.825   1.001
 6976TIP3    H242488   2.615   6.805   0.987
 6977TIP3   OH242489   2.177   0.424   0.420
 6977TIP3    H142490   2.109   0.368   0.457
 6977TIP3    H242491   2.149   0.513   0.440
 6978TIP3   OH242492   5.754   2.989   0.436
 6978TIP3    H142493   5.700   2.928   0.486
 6978TIP3    H242494   5.781   2.938   0.359
 6979TIP3   OH242495   6.621   5.045   8.483
 6979TIP3    H142496   6.694   5.061   8.423
 6979TIP3    H242497   6.624   5.119   8.544
 6980TIP3   OH242498   6.608   1.249   0.524
 6980TIP3    H142499   6.648   1.300   0.594
 6980TIP3    H242500   6.598   1.312   0.452
 6981TIP3   OH242501   4.967   0.307   0.281
 6981TIP3    H142502   4.960   0.401   0.265
 6981TIP3    H242503   5.049   0.281   0.238
 6982TIP3   OH242504   0.570   3.940   7.805
 6982TIP3    H142505   0.567   3.849   7.776
 6982TIP3    H242506   0.553   3.991   7.726
 6983TIP3   OH242507   1.155   4.807   1.582
 6983TIP3    H142508   1.220   4.744   1.551
 6983TIP3    H242509   1.113   4.764   1.656
 6984TIP3   OH242510   5.744   4.113   8.485
 6984TIP3    H142511   5.733   4.205   8.508
 6984TIP3    H242512   5.733   4.110   8.390
 6985TIP3   OH242513   0.490   0.452   1.203
 6985TIP3    H142514   0.426   0.385   1.179
 6985TIP3    H242515   0.469   0.472   1.294
 6986TIP3   OH242516   2.556   2.122   0.941
 6986TIP3    H142517   2.570   2.057   1.010
 6986TIP3    H242518   2.576   2.206   0.983
 6987TIP3   OH242519   4.152   1.122   7.512
 6987TIP3    H142520   4.130   1.211   7.541
 6987TIP3    H242521   4.116   1.117   7.423
 6988TIP3   OH242522   3.084   4.191   2.037
 6988TIP3    H142523   3.014   4.180   2.100
 6988TIP3    H242524   3.110   4.101   2.014
 6989TIP3   OH242525   0.421   2.759   6.362
 6989TIP3    H142526   0.389   2.827   6.422
 6989TIP3    H242527   0.490   2.714   6.410
 6990TIP3   OH242528   4.736   6.758   8.513
 6990TIP3    H142529   4.697   6.827   8.459
 6990TIP3    H242530   4.778   6.700   8.450
 6991TIP3   OH242531   0.466   6.406   1.396
 6991TIP3    H142532   0.554   6.442   1.386
 6991TIP3    H242533   0.470   6.320   1.355
 6992TIP3   OH242534   3.607   2.605   1.525
 6992TIP3    H142535   3.698   2.584   1.506
 6992TIP3    H242536   3.558   2.564   1.454
 6993TIP3   OH242537   4.267   5.686   6.828
 6993TIP3    H142538   4.249   5.640   6.747
 6993TIP3    H242539   4.346   5.737   6.810
 6994TIP3   OH242540   2.550   6.829   7.620
 6994TIP3    H142541   2.486   6.900   7.626
 6994TIP3    H242542   2.633   6.872   7.599
 6995TIP3   OH242543   3.512   1.314   1.254
 6995TIP3    H142544   3.458   1.236   1.241
 6995TIP3    H242545   3.450   1.384   1.272
 6996TIP3   OH242546   4.987   1.937   1.394
 6996TIP3    H142547   4.920   1.988   1.348
 6996TIP3    H242548   5.059   1.999   1.407
 6997TIP3   OH242549   6.821   5.761   1.077
 6997TIP3    H142550   6.803   5.682   1.127
 6997TIP3    H242551   6.902   5.796   1.115
 6998TIP3   OH242552   1.198   1.723   8.274
 6998TIP3    H142553   1.193   1.631   8.300
 6998TIP3    H242554   1.266   1.761   8.330
 6999TIP3   OH242555   3.824   3.956   6.805
 6999TIP3    H142556   3.859   3.983   6.890
 6999TIP3    H242557   3.845   3.863   6.798
 7000TIP3   OH242558   4.337   2.805   0.474
 7000TIP3    H142559   4.277   2.792   0.548
 7000TIP3    H242560   4.283   2.846   0.406
 7001TIP3   OH242561   1.927   4.351   0.451
 7001TIP3    H142562   1.876   4.368   0.531
 7001TIP3    H242563   2.014   4.328   0.483
 7002TIP3   OH242564   5.716   1.022   8.353
 7002TIP3    H142565   5.776   0.954   8.321
 7002TIP3    H242566   5.648   1.027   8.286
 7003TIP3   OH242567   6.489   2.489   1.734
 7003TIP3    H142568   6.399   2.497   1.702
 7003TIP3    H242569   6.480   2.477   1.828
 7004TIP3   OH242570   0.664   0.426   0.990
 7004TIP3    H142571   0.614   0.431   1.071
 7004TIP3    H242572   0.729   0.358   1.006
 7005TIP3   OH242573   0.577   1.191   0.039
 7005TIP3    H142574   0.630   1.234   8.575
 7005TIP3    H242575   0.487   1.216   0.018
 7006TIP3   OH242576   1.770   2.295   0.239
 7006TIP3    H142577   1.676   2.291   0.255
 7006TIP3    H242578   1.782   2.246   0.158
 7007TIP3   OH242579   2.662   2.313   8.534
 7007TIP3    H142580   2.575   2.345   8.513
 7007TIP3    H242581   2.662   2.222   8.504
 7008TIP3   OH242582   0.095   2.373   6.937
 7008TIP3    H142583   0.168   2.432   6.955
 7008TIP3    H242584   0.079   2.381   6.843
 7009TIP3   OH242585   1.421   6.290   6.742
 7009TIP3    H142586   1.378   6.220   6.791
 7009TIP3    H242587   1.476   6.334   6.807
 7010TIP3   OH242588   3.995   3.293   8.408
 7010TIP3    H142589   3.953   3.235   8.345
 7010TIP3    H242590   4.054   3.237   8.457
 7011TIP3   OH242591   3.075   3.070   6.134
 7011TIP3    H142592   2.984   3.040   6.135
 7011TIP3    H242593   3.103   3.066   6.225
 7012TIP3   OH242594   2.801   2.792   0.177
 7012TIP3    H142595   2.797   2.743   0.095
 7012TIP3    H242596   2.727   2.852   0.172
 7013TIP3   OH242597   4.975   1.286   8.189
 7013TIP3    H142598   4.934   1.347   8.250
 7013TIP3    H242599   5.054   1.331   8.159
 7014TIP3   OH242600   4.842   1.469   1.186
 7014TIP3    H142601   4.839   1.485   1.280
 7014TIP3    H242602   4.870   1.552   1.148
 7015TIP3   OH242603   2.179   6.046   1.477
 7015TIP3    H142604   2.272   6.038   1.497
 7015TIP3    H242605   2.166   6.140   1.464
 7016TIP3   OH242606   3.827   0.252   1.789
 7016TIP3    H142607   3.903   0.255   1.732
 7016TIP3    H242608   3.832   0.331   1.842
 7017TIP3   OH242609   3.025   4.200   0.432
 7017TIP3    H142610   3.023   4.110   0.463
 7017TIP3    H242611   2.966   4.202   0.357
 7018TIP3   OH242612   1.877   4.558   6.785
 7018TIP3    H142613   1.892   4.588   6.875
 7018TIP3    H242614   1.872   4.639   6.734
 7019TIP3   OH242615   2.200   0.493   6.063
 7019TIP3    H142616   2.177   0.573   6.016
 7019TIP3    H242617   2.185   0.514   6.155
 7020TIP3   OH242618   0.270   3.200   2.416
 7020TIP3    H142619   0.329   3.152   2.474
 7020TIP3    H242620   0.248   3.279   2.464
 7021TIP3   OH242621   1.460   5.355   0.213
 7021TIP3    H142622   1.423   5.440   0.189
 7021TIP3    H242623   1.434   5.342   0.304
 7022TIP3   OH242624   0.691   4.369   7.161
 7022TIP3    H142625   0.671   4.355   7.253
 7022TIP3    H242626   0.755   4.301   7.140
 7023TIP3   OH242627   0.920   5.602   7.667
 7023TIP3    H142628   0.953   5.599   7.757
 7023TIP3    H242629   0.838   5.651   7.673
 7024TIP3   OH242630   5.125   1.566   0.775
 7024TIP3    H142631   5.043   1.586   0.820
 7024TIP3    H242632   5.179   1.645   0.785
 7025TIP3   OH242633   2.626   0.624   7.280
 7025TIP3    H142634   2.598   0.706   7.239
 7025TIP3    H242635   2.561   0.608   7.348
 7026TIP3   OH242636   1.134   0.149   1.820
 7026TIP3    H142637   1.069   0.091   1.861
 7026TIP3    H242638   1.158   0.210   1.890
 7027TIP3   OH242639   4.502   2.280   1.840
 7027TIP3    H142640   4.471   2.339   1.908
 7027TIP3    H242641   4.456   2.307   1.761
 7028TIP3   OH242642   6.711   6.096   7.808
 7028TIP3    H142643   6.689   6.189   7.810
 7028TIP3    H242644   6.794   6.092   7.760
 7029TIP3   OH242645   0.255   4.950   8.466
 7029TIP3    H142646   0.177   4.987   8.506
 7029TIP3    H242647   0.274   4.872   8.517
 7030TIP3   OH242648   1.743   0.198   8.047
 7030TIP3    H142649   1.729   0.239   8.133
 7030TIP3    H242650   1.710   0.262   7.985
 7031TIP3   OH242651   3.990   5.435   0.002
 7031TIP3    H142652   3.942   5.517   0.016
 7031TIP3    H242653   3.988   5.423   8.510
 7032TIP3   OH242654   4.681   0.904   8.508
 7032TIP3    H142655   4.707   0.927   8.598
 7032TIP3    H242656   4.732   0.826   8.488
 7033TIP3   OH242657   3.030   5.079   1.435
 7033TIP3    H142658   2.974   5.004   1.415
 7033TIP3    H242659   2.999   5.148   1.377
 7034TIP3   OH242660   1.704   1.967   7.426
 7034TIP3    H142661   1.627   2.015   7.456
 7034TIP3    H242662   1.716   1.993   7.335
 7035TIP3   OH242663   0.598   1.522   7.968
 7035TIP3    H142664   0.654   1.453   8.003
 7035TIP3    H242665   0.510   1.485   7.972
 7036TIP3   OH242666   5.323   2.702   0.675
 7036TIP3    H142667   5.267   2.777   0.653
 7036TIP3    H242668   5.318   2.694   0.770
 7037TIP3   OH242669   6.514   5.894   1.432
 7037TIP3    H142670   6.540   5.878   1.341
 7037TIP3    H242671   6.592   5.873   1.483
 7038TIP3   OH242672   6.799   6.422   6.249
 7038TIP3    H142673   6.779   6.360   6.320
 7038TIP3    H242674   6.715   6.435   6.205
 7039TIP3   OH242675   3.801   1.802   1.617
 7039TIP3    H142676   3.786   1.869   1.550
 7039TIP3    H242677   3.729   1.739   1.604
 7040TIP3   OH242678   3.649   2.389   0.293
 7040TIP3    H142679   3.714   2.420   0.230
 7040TIP3    H242680   3.576   2.451   0.285
 7041TIP3   OH242681   2.973   3.010   0.042
 7041TIP3    H142682   3.030   3.054   0.105
 7041TIP3    H242683   2.994   2.917   0.051
 7042TIP3   OH242684   4.621   1.175   8.452
 7042TIP3    H142685   4.642   1.087   8.484
 7042TIP3    H242686   4.541   1.164   8.402
 7043TIP3   OH242687   2.348   0.406   6.791
 7043TIP3    H142688   2.294   0.476   6.755
 7043TIP3    H242689   2.433   0.447   6.808
 7044TIP3   OH242690   4.276   1.146   0.652
 7044TIP3    H142691   4.347   1.152   0.716
 7044TIP3    H242692   4.316   1.101   0.577
 7045TIP3   OH242693   4.283   1.885   1.613
 7045TIP3    H142694   4.328   1.939   1.678
 7045TIP3    H242695   4.216   1.838   1.663
 7046TIP3   OH242696   5.129   1.562   6.871
 7046TIP3    H142697   5.206   1.530   6.824
 7046TIP3    H242698   5.110   1.493   6.935
 7047TIP3   OH242699   3.054   3.482   8.176
 7047TIP3    H142700   3.076   3.438   8.258
 7047TIP3    H242701   3.017   3.414   8.121
 7048TIP3   OH242702   2.780   3.861   1.306
 7048TIP3    H142703   2.773   3.946   1.351
 7048TIP3    H242704   2.840   3.877   1.234
 7049TIP3   OH242705   2.857   3.283   8.006
 7049TIP3    H142706   2.912   3.207   8.025
 7049TIP3    H242707   2.880   3.308   7.917
 7050TIP3   OH242708   5.904   6.366   8.201
 7050TIP3    H142709   5.991   6.369   8.161
 7050TIP3    H242710   5.889   6.273   8.218
 7051TIP3   OH242711   4.870   5.511   1.964
 7051TIP3    H142712   4.907   5.426   1.988
 7051TIP3    H242713   4.923   5.574   2.014
 7052TIP3   OH242714   4.936   6.500   8.083
 7052TIP3    H142715   4.841   6.514   8.078
 7052TIP3    H242716   4.945   6.412   8.120
 7053TIP3   OH242717   4.724   0.398   7.015
 7053TIP3    H142718   4.794   0.334   7.033
 7053TIP3    H242719   4.761   0.482   7.043
 7054TIP3   OH242720   5.526   6.855   0.259
 7054TIP3    H142721   5.445   6.835   0.306
 7054TIP3    H242722   5.501   0.012   0.198
 7055TIP3   OH242723   4.561   6.835   7.452
 7055TIP3    H142724   4.516   6.779   7.389
 7055TIP3    H242725   4.616   6.893   7.399
 7056TIP3   OH242726   4.018   6.128   8.141
 7056TIP3    H142727   4.092   6.151   8.198
 7056TIP3    H242728   4.046   6.046   8.099
 7057TIP3   OH242729   0.645   0.091   7.640
 7057TIP3    H142730   0.731   0.104   7.679
 7057TIP3    H242731   0.646   0.001   7.608
 7058TIP3   OH242732   5.946   2.824   7.476
 7058TIP3    H142733   5.919   2.793   7.562
 7058TIP3    H242734   6.033   2.785   7.463
 7059TIP3   OH242735   4.088   4.226   8.134
 7059TIP3    H142736   4.129   4.169   8.198
 7059TIP3    H242737   4.001   4.243   8.170
 7060TIP3   OH242738   3.375   1.986   0.405
 7060TIP3    H142739   3.348   1.899   0.377
 7060TIP3    H242740   3.386   2.035   0.324
 7061TIP3   OH242741   1.685   0.522   2.281
 7061TIP3    H142742   1.762   0.577   2.270
 7061TIP3    H242743   1.707   0.441   2.235
 7062TIP3   OH242744   1.625   4.196   7.202
 7062TIP3    H142745   1.624   4.289   7.221
 7062TIP3    H242746   1.713   4.167   7.227
 7063TIP3   OH242747   5.747   2.911   8.075
 7063TIP3    H142748   5.792   2.863   8.144
 7063TIP3    H242749   5.654   2.901   8.094
 7064TIP3   OH242750   2.799   3.741   0.269
 7064TIP3    H142751   2.858   3.707   0.202
 7064TIP3    H242752   2.856   3.775   0.337
 7065TIP3   OH242753   0.219   1.129   8.343
 7065TIP3    H142754   0.256   1.127   8.255
 7065TIP3    H242755   0.185   1.218   8.353
 7066TIP3   OH242756   2.711   6.694   6.716
 7066TIP3    H142757   2.621   6.723   6.703
 7066TIP3    H242758   2.729   6.708   6.809
 7067TIP3   OH242759   5.486   2.940   1.825
 7067TIP3    H142760   5.575   2.970   1.842
 7067TIP3    H242761   5.443   2.942   1.910
 7068TIP3   OH242762   1.501   2.494   6.705
 7068TIP3    H142763   1.426   2.514   6.649
 7068TIP3    H242764   1.577   2.506   6.648
 7069TIP3   OH242765   4.968   3.749   2.032
 7069TIP3    H142766   4.979   3.747   2.127
 7069TIP3    H242767   5.020   3.824   2.004
 7070TIP3   OH242768   4.270   4.261   2.034
 7070TIP3    H142769   4.276   4.293   2.124
 7070TIP3    H242770   4.176   4.251   2.018
 7071TIP3   OH242771   6.458   1.209   8.019
 7071TIP3    H142772   6.529   1.150   8.045
 7071TIP3    H242773   6.494   1.297   8.031
 7072LIG      O42774   2.471   6.266   2.483
 7072LIG     C142775   2.601   6.234   2.539
 7072LIG     C242776   2.623   6.315   2.666
 7072LIG     C342777   2.594   6.091   2.575
 7072LIG     H142778   2.680   6.244   2.461
 7072LIG     H242779   2.545   6.314   2.745
 7072LIG     H342780   2.630   6.421   2.635
 7072LIG     H442781   2.709   6.278   2.726
 7072LIG     H542782   2.701   6.060   2.588
 7072LIG     H642783   2.542   6.034   2.495
 7072LIG     H742784   2.534   6.082   2.668
 7072LIG     H842785   2.488   6.348   2.437
   6.91222   6.91222   8.60303
