Title t= 13300.00000 step= 6650000
42785
    1SAPS     N    1   3.792   4.439   6.813
    1SAPS   HN1    2   3.853   4.513   6.852
    1SAPS   HN2    3   3.789   4.447   6.709
    1SAPS   HN3    4   3.701   4.475   6.848
    1SAPS   C12    5   3.811   4.310   6.886
    1SAPS  H12A    6   3.897   4.335   6.947
    1SAPS   C13    7   3.701   4.267   6.983
    1SAPS  O13A    8   3.596   4.333   6.982
    1SAPS  O13B    9   3.709   4.153   7.038
    1SAPS   C11   10   3.834   4.194   6.781
    1SAPS  H11A   11   3.731   4.161   6.756
    1SAPS  H11B   12   3.875   4.116   6.848
    1SAPS     P   13   3.857   4.265   6.529
    1SAPS   O13   14   3.768   4.156   6.495
    1SAPS   O14   15   3.796   4.402   6.542
    1SAPS   O12   16   3.924   4.233   6.675
    1SAPS   O11   17   3.978   4.277   6.440
    1SAPS    C1   18   4.029   4.171   6.368
    1SAPS    HA   19   4.140   4.164   6.363
    1SAPS    HB   20   4.009   4.073   6.416
    1SAPS    C2   21   3.975   4.175   6.223
    1SAPS    HS   22   3.864   4.177   6.234
    1SAPS   O21   23   4.015   4.055   6.154
    1SAPS   C21   24   3.926   3.993   6.075
    1SAPS   O22   25   3.814   4.034   6.046
    1SAPS   C22   26   3.996   3.865   6.021
    1SAPS   H2R   27   4.049   3.826   6.110
    1SAPS   H2S   28   3.913   3.796   5.995
    1SAPS    C3   29   4.014   4.295   6.135
    1SAPS    HX   30   4.123   4.316   6.134
    1SAPS    HY   31   3.982   4.386   6.190
    1SAPS   O31   32   3.953   4.274   6.003
    1SAPS   C31   33   3.830   4.326   5.987
    1SAPS   O32   34   3.779   4.404   6.067
    1SAPS   C32   35   3.765   4.281   5.863
    1SAPS   H2X   36   3.672   4.340   5.845
    1SAPS   H2Y   37   3.758   4.170   5.874
    1SAPS   C23   38   4.093   3.889   5.903
    1SAPS   H3R   39   4.148   3.796   5.878
    1SAPS   H3S   40   4.174   3.952   5.945
    1SAPS   C24   41   4.021   3.950   5.783
    1SAPS   H4R   42   3.965   4.044   5.803
    1SAPS   H4S   43   3.949   3.872   5.753
    1SAPS   C25   44   4.125   3.996   5.682
    1SAPS   H5R   45   4.229   4.005   5.714
    1SAPS   C26   46   4.102   3.979   5.551
    1SAPS   H6R   47   4.168   4.019   5.472
    1SAPS   C27   48   3.974   3.940   5.480
    1SAPS   H7R   49   3.938   4.027   5.420
    1SAPS   H7S   50   3.887   3.911   5.543
    1SAPS   C28   51   3.989   3.824   5.389
    1SAPS   H8R   52   4.001   3.729   5.442
    1SAPS   C29   53   3.969   3.821   5.252
    1SAPS   H9R   54   3.994   3.734   5.189
    1SAPS  C210   55   3.916   3.930   5.164
    1SAPS  H10R   56   3.874   4.010   5.229
    1SAPS  H10S   57   3.837   3.888   5.099
    1SAPS  C211   58   4.022   3.999   5.075
    1SAPS  H11R   59   4.094   4.059   5.132
    1SAPS  C212   60   4.035   4.006   4.942
    1SAPS  H12R   61   4.128   4.052   4.905
    1SAPS  C213   62   3.952   3.935   4.842
    1SAPS  H13R   63   3.877   4.012   4.814
    1SAPS  H13S   64   3.887   3.856   4.884
    1SAPS  C214   65   4.014   3.883   4.713
    1SAPS  H14R   66   4.123   3.892   4.705
    1SAPS  C215   67   3.954   3.808   4.615
    1SAPS  H15R   68   4.011   3.778   4.526
    1SAPS  C216   69   3.811   3.760   4.600
    1SAPS  H16R   70   3.752   3.792   4.689
    1SAPS  H16S   71   3.799   3.650   4.609
    1SAPS  C217   72   3.731   3.804   4.483
    1SAPS  H17R   73   3.771   3.782   4.381
    1SAPS  H17S   74   3.727   3.915   4.477
    1SAPS  C218   75   3.582   3.762   4.491
    1SAPS  H18R   76   3.508   3.818   4.430
    1SAPS  H18S   77   3.554   3.783   4.596
    1SAPS  C219   78   3.544   3.608   4.480
    1SAPS  H19R   79   3.603   3.543   4.549
    1SAPS  H19S   80   3.564   3.571   4.377
    1SAPS  C220   81   3.395   3.593   4.497
    1SAPS  H20R   82   3.369   3.622   4.601
    1SAPS  H20S   83   3.357   3.489   4.494
    1SAPS  H20T   84   3.337   3.662   4.432
    1SAPS   C33   85   3.851   4.323   5.738
    1SAPS   H3X   86   3.941   4.257   5.741
    1SAPS   H3Y   87   3.884   4.429   5.735
    1SAPS   C34   88   3.782   4.298   5.597
    1SAPS   H4X   89   3.689   4.356   5.580
    1SAPS   H4Y   90   3.758   4.190   5.586
    1SAPS   C35   91   3.866   4.329   5.479
    1SAPS   H5X   92   3.951   4.258   5.474
    1SAPS   H5Y   93   3.904   4.433   5.490
    1SAPS   C36   94   3.783   4.299   5.351
    1SAPS   H6X   95   3.682   4.346   5.357
    1SAPS   H6Y   96   3.768   4.191   5.328
    1SAPS   C37   97   3.853   4.354   5.224
    1SAPS   H7X   98   3.957   4.316   5.217
    1SAPS   H7Y   99   3.862   4.465   5.231
    1SAPS   C38  100   3.777   4.327   5.093
    1SAPS   H8X  101   3.672   4.361   5.109
    1SAPS   H8Y  102   3.785   4.217   5.085
    1SAPS   C39  103   3.841   4.380   4.962
    1SAPS   H9X  104   3.950   4.362   4.950
    1SAPS   H9Y  105   3.837   4.491   4.949
    1SAPS  C310  106   3.776   4.321   4.840
    1SAPS  H10X  107   3.674   4.364   4.835
    1SAPS  H10Y  108   3.768   4.211   4.851
    1SAPS  C311  109   3.842   4.353   4.705
    1SAPS  H11X  110   3.936   4.296   4.686
    1SAPS  H11Y  111   3.862   4.462   4.717
    1SAPS  C312  112   3.754   4.313   4.584
    1SAPS  H12X  113   3.657   4.365   4.598
    1SAPS  H12Y  114   3.733   4.205   4.597
    1SAPS  C313  115   3.825   4.349   4.446
    1SAPS  H13X  116   3.926   4.304   4.454
    1SAPS  H13Y  117   3.822   4.460   4.437
    1SAPS  C314  118   3.762   4.292   4.325
    1SAPS  H14X  119   3.751   4.182   4.331
    1SAPS  H14Y  120   3.827   4.313   4.238
    1SAPS  C315  121   3.618   4.341   4.302
    1SAPS  H15X  122   3.550   4.314   4.386
    1SAPS  H15Y  123   3.582   4.289   4.211
    1SAPS  C316  124   3.609   4.496   4.274
    1SAPS  H16X  125   3.678   4.528   4.192
    1SAPS  H16Y  126   3.630   4.559   4.363
    1SAPS  C317  127   3.470   4.539   4.220
    1SAPS  H17X  128   3.400   4.519   4.304
    1SAPS  H17Y  129   3.440   4.461   4.147
    1SAPS  C318  130   3.451   4.679   4.173
    1SAPS  H18X  131   3.344   4.706   4.163
    1SAPS  H18Y  132   3.500   4.701   4.076
    1SAPS  H18Z  133   3.493   4.751   4.247
    2SAPS     N  134   4.355   6.393   6.808
    2SAPS   HN1  135   4.380   6.366   6.905
    2SAPS   HN2  136   4.305   6.310   6.771
    2SAPS   HN3  137   4.436   6.414   6.747
    2SAPS   C12  138   4.263   6.510   6.815
    2SAPS  H12A  139   4.201   6.510   6.727
    2SAPS   C13  140   4.184   6.519   6.944
    2SAPS  O13A  141   4.215   6.469   7.055
    2SAPS  O13B  142   4.094   6.603   6.947
    2SAPS   C11  143   4.349   6.636   6.808
    2SAPS  H11A  144   4.430   6.625   6.883
    2SAPS  H11B  145   4.301   6.734   6.828
    2SAPS     P  146   4.345   6.687   6.540
    2SAPS   O13  147   4.246   6.786   6.568
    2SAPS   O14  148   4.443   6.722   6.440
    2SAPS   O12  149   4.408   6.644   6.674
    2SAPS   O11  150   4.271   6.558   6.495
    2SAPS    C1  151   4.342   6.433   6.479
    2SAPS    HA  152   4.443   6.437   6.524
    2SAPS    HB  153   4.285   6.349   6.525
    2SAPS    C2  154   4.350   6.406   6.326
    2SAPS    HS  155   4.369   6.298   6.308
    2SAPS   O21  156   4.455   6.489   6.273
    2SAPS   C21  157   4.574   6.427   6.263
    2SAPS   O22  158   4.591   6.311   6.292
    2SAPS   C22  159   4.690   6.523   6.222
    2SAPS   H2R  160   4.678   6.622   6.271
    2SAPS   H2S  161   4.781   6.470   6.258
    2SAPS    C3  162   4.217   6.431   6.254
    2SAPS    HX  163   4.202   6.541   6.244
    2SAPS    HY  164   4.137   6.381   6.313
    2SAPS   O31  165   4.221   6.361   6.124
    2SAPS   C31  166   4.268   6.441   6.018
    2SAPS   O32  167   4.294   6.556   6.031
    2SAPS   C32  168   4.268   6.356   5.886
    2SAPS   H2X  169   4.163   6.342   5.854
    2SAPS   H2Y  170   4.309   6.255   5.911
    2SAPS   C23  171   4.696   6.558   6.072
    2SAPS   H3R  172   4.742   6.657   6.053
    2SAPS   H3S  173   4.593   6.580   6.036
    2SAPS   C24  174   4.753   6.445   5.975
    2SAPS   H4R  175   4.681   6.459   5.891
    2SAPS   H4S  176   4.746   6.344   6.019
    2SAPS   C25  177   4.891   6.474   5.926
    2SAPS   H5R  178   4.979   6.460   5.991
    2SAPS   C26  179   4.926   6.475   5.794
    2SAPS   H6R  180   5.027   6.501   5.761
    2SAPS   C27  181   4.825   6.467   5.679
    2SAPS   H7R  182   4.748   6.391   5.702
    2SAPS   H7S  183   4.869   6.421   5.588
    2SAPS   C28  184   4.766   6.599   5.647
    2SAPS   H8R  185   4.769   6.676   5.726
    2SAPS   C29  186   4.707   6.635   5.533
    2SAPS   H9R  187   4.664   6.736   5.540
    2SAPS  C210  188   4.684   6.564   5.400
    2SAPS  H10R  189   4.578   6.561   5.367
    2SAPS  H10S  190   4.733   6.464   5.404
    2SAPS  C211  191   4.763   6.653   5.306
    2SAPS  H11R  192   4.775   6.761   5.326
    2SAPS  C212  193   4.834   6.606   5.196
    2SAPS  H12R  194   4.893   6.676   5.135
    2SAPS  C213  195   4.819   6.466   5.129
    2SAPS  H13R  196   4.789   6.392   5.206
    2SAPS  H13S  197   4.916   6.420   5.100
    2SAPS  C214  198   4.712   6.469   5.019
    2SAPS  H14R  199   4.613   6.507   5.048
    2SAPS  C215  200   4.726   6.429   4.890
    2SAPS  H15R  201   4.658   6.442   4.804
    2SAPS  C216  202   4.846   6.366   4.837
    2SAPS  H16R  203   4.879   6.270   4.884
    2SAPS  H16S  204   4.931   6.434   4.857
    2SAPS  C217  205   4.844   6.340   4.687
    2SAPS  H17R  206   4.806   6.428   4.632
    2SAPS  H17S  207   4.774   6.259   4.658
    2SAPS  C218  208   4.992   6.317   4.647
    2SAPS  H18R  209   5.064   6.387   4.694
    2SAPS  H18S  210   4.990   6.322   4.536
    2SAPS  C219  211   5.046   6.176   4.686
    2SAPS  H19R  212   4.978   6.098   4.645
    2SAPS  H19S  213   5.049   6.168   4.796
    2SAPS  C220  214   5.180   6.139   4.629
    2SAPS  H20R  215   5.192   6.173   4.524
    2SAPS  H20S  216   5.194   6.028   4.631
    2SAPS  H20T  217   5.263   6.165   4.698
    2SAPS   C33  218   4.344   6.419   5.771
    2SAPS   H3X  219   4.450   6.414   5.803
    2SAPS   H3Y  220   4.301   6.521   5.761
    2SAPS   C34  221   4.326   6.345   5.640
    2SAPS   H4X  222   4.221   6.321   5.617
    2SAPS   H4Y  223   4.376   6.246   5.649
    2SAPS   C35  224   4.403   6.396   5.515
    2SAPS   H5X  225   4.510   6.368   5.528
    2SAPS   H5Y  226   4.402   6.507   5.507
    2SAPS   C36  227   4.341   6.346   5.385
    2SAPS   H6X  228   4.235   6.377   5.378
    2SAPS   H6Y  229   4.333   6.236   5.382
    2SAPS   C37  230   4.410   6.380   5.252
    2SAPS   H7X  231   4.517   6.353   5.253
    2SAPS   H7Y  232   4.418   6.490   5.238
    2SAPS   C38  233   4.359   6.299   5.137
    2SAPS   H8X  234   4.381   6.195   5.169
    2SAPS   H8Y  235   4.417   6.311   5.043
    2SAPS   C39  236   4.206   6.308   5.131
    2SAPS   H9X  237   4.168   6.412   5.138
    2SAPS   H9Y  238   4.170   6.254   5.221
    2SAPS  C310  239   4.134   6.247   5.012
    2SAPS  H10X  240   4.024   6.260   5.004
    2SAPS  H10Y  241   4.149   6.137   5.023
    2SAPS  C311  242   4.186   6.292   4.879
    2SAPS  H11X  243   4.290   6.265   4.853
    2SAPS  H11Y  244   4.181   6.403   4.881
    2SAPS  C312  245   4.099   6.230   4.770
    2SAPS  H12X  246   3.990   6.240   4.792
    2SAPS  H12Y  247   4.120   6.121   4.764
    2SAPS  C313  248   4.127   6.302   4.632
    2SAPS  H13X  249   4.086   6.404   4.649
    2SAPS  H13Y  250   4.066   6.269   4.546
    2SAPS  C314  251   4.275   6.303   4.592
    2SAPS  H14X  252   4.314   6.201   4.572
    2SAPS  H14Y  253   4.334   6.347   4.675
    2SAPS  C315  254   4.298   6.395   4.473
    2SAPS  H15X  255   4.245   6.491   4.490
    2SAPS  H15Y  256   4.251   6.356   4.380
    2SAPS  C316  257   4.452   6.406   4.451
    2SAPS  H16X  258   4.493   6.306   4.425
    2SAPS  H16Y  259   4.496   6.433   4.550
    2SAPS  C317  260   4.501   6.514   4.345
    2SAPS  H17X  261   4.463   6.613   4.379
    2SAPS  H17Y  262   4.440   6.487   4.256
    2SAPS  C318  263   4.651   6.495   4.336
    2SAPS  H18X  264   4.688   6.559   4.252
    2SAPS  H18Y  265   4.672   6.389   4.314
    2SAPS  H18Z  266   4.708   6.534   4.423
    3SAPS     N  267   4.591   4.506   6.743
    3SAPS   HN1  268   4.541   4.560   6.670
    3SAPS   HN2  269   4.557   4.408   6.747
    3SAPS   HN3  270   4.574   4.544   6.838
    3SAPS   C12  271   4.741   4.518   6.731
    3SAPS  H12A  272   4.778   4.527   6.832
    3SAPS   C13  273   4.828   4.405   6.660
    3SAPS  O13A  274   4.768   4.313   6.599
    3SAPS  O13B  275   4.953   4.404   6.665
    3SAPS   C11  276   4.769   4.651   6.650
    3SAPS  H11A  277   4.750   4.646   6.541
    3SAPS  H11B  278   4.874   4.681   6.668
    3SAPS     P  279   4.579   4.843   6.628
    3SAPS   O13  280   4.460   4.755   6.614
    3SAPS   O14  281   4.560   4.970   6.703
    3SAPS   O12  282   4.691   4.761   6.702
    3SAPS   O11  283   4.642   4.877   6.483
    3SAPS    C1  284   4.764   4.952   6.493
    3SAPS    HA  285   4.762   5.028   6.574
    3SAPS    HB  286   4.849   4.881   6.502
    3SAPS    C2  287   4.784   5.027   6.361
    3SAPS    HS  288   4.696   5.090   6.337
    3SAPS   O21  289   4.819   4.924   6.267
    3SAPS   C21  290   4.728   4.893   6.182
    3SAPS   O22  291   4.616   4.947   6.160
    3SAPS   C22  292   4.787   4.772   6.099
    3SAPS   H2R  293   4.885   4.807   6.058
    3SAPS   H2S  294   4.799   4.681   6.162
    3SAPS    C3  295   4.906   5.117   6.367
    3SAPS    HX  296   4.993   5.051   6.387
    3SAPS    HY  297   4.886   5.189   6.449
    3SAPS   O31  298   4.937   5.194   6.245
    3SAPS   C31  299   4.864   5.302   6.228
    3SAPS   O32  300   4.768   5.329   6.299
    3SAPS   C32  301   4.909   5.381   6.109
    3SAPS   H2X  302   4.993   5.447   6.137
    3SAPS   H2Y  303   4.824   5.449   6.084
    3SAPS   C23  304   4.696   4.739   5.980
    3SAPS   H3R  305   4.695   4.823   5.907
    3SAPS   H3S  306   4.595   4.711   6.017
    3SAPS   C24  307   4.748   4.624   5.899
    3SAPS   H4R  308   4.660   4.602   5.834
    3SAPS   H4S  309   4.758   4.538   5.970
    3SAPS   C25  310   4.875   4.653   5.822
    3SAPS   H5R  311   4.946   4.717   5.875
    3SAPS   C26  312   4.903   4.619   5.696
    3SAPS   H6R  313   4.999   4.645   5.650
    3SAPS   C27  314   4.829   4.527   5.603
    3SAPS   H7R  315   4.799   4.585   5.513
    3SAPS   H7S  316   4.729   4.507   5.648
    3SAPS   C28  317   4.894   4.402   5.560
    3SAPS   H8R  318   4.957   4.352   5.635
    3SAPS   C29  319   4.892   4.354   5.437
    3SAPS   H9R  320   4.921   4.249   5.421
    3SAPS  C210  321   4.818   4.414   5.314
    3SAPS  H10R  322   4.771   4.512   5.337
    3SAPS  H10S  323   4.727   4.355   5.290
    3SAPS  C211  324   4.907   4.434   5.195
    3SAPS  H11R  325   4.953   4.534   5.192
    3SAPS  C212  326   4.912   4.350   5.090
    3SAPS  H12R  327   4.982   4.384   5.012
    3SAPS  C213  328   4.836   4.217   5.081
    3SAPS  H13R  329   4.807   4.172   5.178
    3SAPS  H13S  330   4.900   4.140   5.033
    3SAPS  C214  331   4.720   4.232   4.984
    3SAPS  H14R  332   4.623   4.246   5.034
    3SAPS  C215  333   4.720   4.234   4.852
    3SAPS  H15R  334   4.625   4.250   4.799
    3SAPS  C216  335   4.843   4.212   4.765
    3SAPS  H16R  336   4.902   4.129   4.812
    3SAPS  H16S  337   4.905   4.301   4.787
    3SAPS  C217  338   4.816   4.200   4.612
    3SAPS  H17R  339   4.912   4.172   4.564
    3SAPS  H17S  340   4.781   4.303   4.588
    3SAPS  C218  341   4.709   4.097   4.575
    3SAPS  H18R  342   4.609   4.125   4.612
    3SAPS  H18S  343   4.720   4.002   4.631
    3SAPS  C219  344   4.711   4.070   4.422
    3SAPS  H19R  345   4.696   4.173   4.383
    3SAPS  H19S  346   4.815   4.044   4.394
    3SAPS  C220  347   4.623   3.962   4.364
    3SAPS  H20R  348   4.517   3.969   4.397
    3SAPS  H20S  349   4.670   3.863   4.382
    3SAPS  H20T  350   4.601   3.974   4.255
    3SAPS   C33  351   4.931   5.295   5.986
    3SAPS   H3X  352   4.845   5.225   5.974
    3SAPS   H3Y  353   5.024   5.238   6.007
    3SAPS   C34  354   4.956   5.374   5.856
    3SAPS   H4X  355   5.060   5.413   5.858
    3SAPS   H4Y  356   4.887   5.461   5.854
    3SAPS   C35  357   4.936   5.297   5.735
    3SAPS   H5X  358   4.836   5.250   5.719
    3SAPS   H5Y  359   4.952   5.362   5.647
    3SAPS   C36  360   5.037   5.181   5.707
    3SAPS   H6X  361   5.021   5.085   5.761
    3SAPS   H6Y  362   5.143   5.206   5.729
    3SAPS   C37  363   5.040   5.132   5.553
    3SAPS   H7X  364   5.021   5.218   5.485
    3SAPS   H7Y  365   4.965   5.052   5.542
    3SAPS   C38  366   5.168   5.060   5.521
    3SAPS   H8X  367   5.173   4.956   5.561
    3SAPS   H8Y  368   5.257   5.111   5.563
    3SAPS   C39  369   5.193   5.029   5.368
    3SAPS   H9X  370   5.273   4.952   5.371
    3SAPS   H9Y  371   5.222   5.124   5.318
    3SAPS  C310  372   5.078   4.971   5.284
    3SAPS  H10X  373   4.989   5.036   5.271
    3SAPS  H10Y  374   5.051   4.871   5.324
    3SAPS  C311  375   5.134   4.948   5.152
    3SAPS  H11X  376   5.226   4.887   5.166
    3SAPS  H11Y  377   5.149   5.046   5.102
    3SAPS  C312  378   5.042   4.857   5.070
    3SAPS  H12X  379   4.939   4.897   5.060
    3SAPS  H12Y  380   5.043   4.752   5.107
    3SAPS  C313  381   5.112   4.851   4.922
    3SAPS  H13X  382   5.215   4.811   4.937
    3SAPS  H13Y  383   5.112   4.957   4.889
    3SAPS  C314  384   5.024   4.771   4.820
    3SAPS  H14X  385   4.958   4.850   4.778
    3SAPS  H14Y  386   4.968   4.690   4.870
    3SAPS  C315  387   5.101   4.709   4.714
    3SAPS  H15X  388   5.186   4.647   4.748
    3SAPS  H15Y  389   5.158   4.789   4.663
    3SAPS  C316  390   5.015   4.623   4.618
    3SAPS  H16X  391   4.947   4.559   4.678
    3SAPS  H16Y  392   5.086   4.548   4.577
    3SAPS  C317  393   4.948   4.715   4.512
    3SAPS  H17X  394   5.016   4.795   4.478
    3SAPS  H17Y  395   4.870   4.766   4.573
    3SAPS  C318  396   4.895   4.643   4.391
    3SAPS  H18X  397   4.859   4.542   4.419
    3SAPS  H18Y  398   4.959   4.634   4.301
    3SAPS  H18Z  399   4.804   4.695   4.354
    4SAPS     N  400   1.743   2.489   6.548
    4SAPS   HN1  401   1.722   2.470   6.448
    4SAPS   HN2  402   1.761   2.590   6.563
    4SAPS   HN3  403   1.833   2.437   6.557
    4SAPS   C12  404   1.633   2.439   6.637
    4SAPS  H12A  405   1.601   2.338   6.615
    4SAPS   C13  406   1.681   2.433   6.783
    4SAPS  O13A  407   1.800   2.451   6.815
    4SAPS  O13B  408   1.602   2.406   6.874
    4SAPS   C11  409   1.497   2.512   6.620
    4SAPS  H11A  410   1.511   2.622   6.628
    4SAPS  H11B  411   1.431   2.468   6.698
    4SAPS     P  412   1.300   2.544   6.451
    4SAPS   O13  413   1.217   2.453   6.364
    4SAPS   O14  414   1.233   2.586   6.572
    4SAPS   O12  415   1.435   2.487   6.492
    4SAPS   O11  416   1.342   2.671   6.369
    4SAPS    C1  417   1.424   2.666   6.256
    4SAPS    HA  418   1.522   2.704   6.290
    4SAPS    HB  419   1.430   2.561   6.220
    4SAPS    C2  420   1.373   2.751   6.134
    4SAPS    HS  421   1.425   2.732   6.038
    4SAPS   O21  422   1.371   2.893   6.156
    4SAPS   C21  423   1.476   2.959   6.181
    4SAPS   O22  424   1.589   2.918   6.167
    4SAPS   C22  425   1.436   3.106   6.224
    4SAPS   H2R  426   1.335   3.129   6.182
    4SAPS   H2S  427   1.439   3.116   6.335
    4SAPS    C3  428   1.225   2.709   6.101
    4SAPS    HX  429   1.173   2.739   6.195
    4SAPS    HY  430   1.227   2.598   6.099
    4SAPS   O31  431   1.185   2.778   5.976
    4SAPS   C31  432   1.076   2.714   5.932
    4SAPS   O32  433   1.016   2.629   5.995
    4SAPS   C32  434   1.025   2.784   5.804
    4SAPS   H2X  435   1.029   2.893   5.823
    4SAPS   H2Y  436   0.919   2.750   5.798
    4SAPS   C23  437   1.530   3.219   6.169
    4SAPS   H3R  438   1.629   3.195   6.214
    4SAPS   H3S  439   1.500   3.320   6.204
    4SAPS   C24  440   1.526   3.223   6.011
    4SAPS   H4R  441   1.574   3.128   5.979
    4SAPS   H4S  442   1.588   3.312   5.987
    4SAPS   C25  443   1.389   3.255   5.961
    4SAPS   H5R  444   1.345   3.343   6.011
    4SAPS   C26  445   1.319   3.193   5.870
    4SAPS   H6R  446   1.223   3.231   5.833
    4SAPS   C27  447   1.356   3.060   5.804
    4SAPS   H7R  448   1.320   2.976   5.867
    4SAPS   H7S  449   1.464   3.036   5.796
    4SAPS   C28  450   1.294   3.043   5.667
    4SAPS   H8R  451   1.217   2.966   5.652
    4SAPS   C29  452   1.319   3.100   5.552
    4SAPS   H9R  453   1.260   3.083   5.461
    4SAPS  C210  454   1.418   3.217   5.539
    4SAPS  H10R  455   1.424   3.277   5.632
    4SAPS  H10S  456   1.372   3.269   5.452
    4SAPS  C211  457   1.558   3.172   5.491
    4SAPS  H11R  458   1.635   3.167   5.569
    4SAPS  C212  459   1.589   3.143   5.364
    4SAPS  H12R  460   1.690   3.104   5.346
    4SAPS  C213  461   1.489   3.137   5.246
    4SAPS  H13R  462   1.403   3.071   5.270
    4SAPS  H13S  463   1.544   3.085   5.165
    4SAPS  C214  464   1.455   3.273   5.189
    4SAPS  H14R  465   1.483   3.360   5.251
    4SAPS  C215  466   1.403   3.304   5.075
    4SAPS  H15R  467   1.388   3.412   5.059
    4SAPS  C216  468   1.371   3.205   4.964
    4SAPS  H16R  469   1.269   3.230   4.928
    4SAPS  H16S  470   1.381   3.098   4.990
    4SAPS  C217  471   1.471   3.233   4.858
    4SAPS  H17R  472   1.570   3.189   4.882
    4SAPS  H17S  473   1.485   3.339   4.830
    4SAPS  C218  474   1.434   3.168   4.721
    4SAPS  H18R  475   1.379   3.073   4.742
    4SAPS  H18S  476   1.523   3.133   4.664
    4SAPS  C219  477   1.350   3.263   4.630
    4SAPS  H19R  478   1.272   3.313   4.692
    4SAPS  H19S  479   1.301   3.194   4.559
    4SAPS  C220  480   1.439   3.357   4.539
    4SAPS  H20R  481   1.489   3.434   4.602
    4SAPS  H20S  482   1.366   3.409   4.474
    4SAPS  H20T  483   1.514   3.288   4.493
    4SAPS   C33  484   1.081   2.728   5.670
    4SAPS   H3X  485   1.058   2.621   5.653
    4SAPS   H3Y  486   1.192   2.740   5.665
    4SAPS   C34  487   1.035   2.818   5.551
    4SAPS   H4X  488   1.049   2.925   5.576
    4SAPS   H4Y  489   0.926   2.804   5.535
    4SAPS   C35  490   1.112   2.772   5.428
    4SAPS   H5X  491   1.129   2.663   5.432
    4SAPS   H5Y  492   1.208   2.825   5.411
    4SAPS   C36  493   1.034   2.784   5.294
    4SAPS   H6X  494   1.029   2.893   5.273
    4SAPS   H6Y  495   0.928   2.761   5.320
    4SAPS   C37  496   1.088   2.702   5.182
    4SAPS   H7X  497   1.004   2.655   5.127
    4SAPS   H7Y  498   1.151   2.619   5.222
    4SAPS   C38  499   1.164   2.785   5.082
    4SAPS   H8X  500   1.240   2.845   5.135
    4SAPS   H8Y  501   1.090   2.856   5.040
    4SAPS   C39  502   1.227   2.703   4.968
    4SAPS   H9X  503   1.153   2.627   4.936
    4SAPS   H9Y  504   1.317   2.649   5.005
    4SAPS  C310  505   1.267   2.796   4.849
    4SAPS  H10X  506   1.347   2.870   4.871
    4SAPS  H10Y  507   1.174   2.856   4.835
    4SAPS  C311  508   1.314   2.717   4.727
    4SAPS  H11X  509   1.228   2.656   4.690
    4SAPS  H11Y  510   1.399   2.648   4.749
    4SAPS  C312  511   1.353   2.810   4.612
    4SAPS  H12X  512   1.440   2.872   4.643
    4SAPS  H12Y  513   1.264   2.873   4.593
    4SAPS  C313  514   1.393   2.733   4.489
    4SAPS  H13X  515   1.310   2.665   4.461
    4SAPS  H13Y  516   1.475   2.665   4.521
    4SAPS  C314  517   1.437   2.826   4.371
    4SAPS  H14X  518   1.479   2.759   4.293
    4SAPS  H14Y  519   1.523   2.889   4.402
    4SAPS  C315  520   1.326   2.907   4.311
    4SAPS  H15X  521   1.268   2.933   4.402
    4SAPS  H15Y  522   1.262   2.859   4.234
    4SAPS  C316  523   1.383   3.034   4.251
    4SAPS  H16X  524   1.482   3.008   4.208
    4SAPS  H16Y  525   1.399   3.108   4.333
    4SAPS  C317  526   1.297   3.113   4.144
    4SAPS  H17X  527   1.190   3.099   4.172
    4SAPS  H17Y  528   1.318   3.069   4.044
    4SAPS  C318  529   1.343   3.253   4.152
    4SAPS  H18X  530   1.304   3.314   4.067
    4SAPS  H18Y  531   1.453   3.249   4.140
    4SAPS  H18Z  532   1.318   3.303   4.248
    5SAPS     N  533   4.530   5.218   6.762
    5SAPS   HN1  534   4.555   5.117   6.750
    5SAPS   HN2  535   4.428   5.224   6.781
    5SAPS   HN3  536   4.549   5.268   6.673
    5SAPS   C12  537   4.600   5.265   6.883
    5SAPS  H12A  538   4.567   5.367   6.894
    5SAPS   C13  539   4.567   5.189   7.020
    5SAPS  O13A  540   4.500   5.082   7.008
    5SAPS  O13B  541   4.637   5.215   7.125
    5SAPS   C11  542   4.753   5.264   6.854
    5SAPS  H11A  543   4.784   5.169   6.805
    5SAPS  H11B  544   4.814   5.275   6.947
    5SAPS     P  545   4.938   5.374   6.705
    5SAPS   O13  546   4.926   5.459   6.585
    5SAPS   O14  547   5.037   5.407   6.804
    5SAPS   O12  548   4.796   5.375   6.773
    5SAPS   O11  549   4.963   5.230   6.659
    5SAPS    C1  550   5.063   5.141   6.716
    5SAPS    HA  551   5.052   5.142   6.826
    5SAPS    HB  552   5.029   5.043   6.677
    5SAPS    C2  553   5.208   5.175   6.667
    5SAPS    HS  554   5.232   5.278   6.701
    5SAPS   O21  555   5.213   5.177   6.522
    5SAPS   C21  556   5.321   5.241   6.474
    5SAPS   O22  557   5.417   5.285   6.536
    5SAPS   C22  558   5.285   5.254   6.326
    5SAPS   H2R  559   5.287   5.158   6.269
    5SAPS   H2S  560   5.179   5.284   6.320
    5SAPS    C3  561   5.322   5.090   6.731
    5SAPS    HX  562   5.307   5.103   6.841
    5SAPS    HY  563   5.425   5.127   6.714
    5SAPS   O31  564   5.308   4.958   6.687
    5SAPS   C31  565   5.402   4.911   6.600
    5SAPS   O32  566   5.505   4.970   6.572
    5SAPS   C32  567   5.364   4.772   6.555
    5SAPS   H2X  568   5.352   4.716   6.650
    5SAPS   H2Y  569   5.452   4.734   6.499
    5SAPS   C23  570   5.379   5.344   6.243
    5SAPS   H3R  571   5.481   5.300   6.240
    5SAPS   H3S  572   5.393   5.446   6.285
    5SAPS   C24  573   5.325   5.365   6.096
    5SAPS   H4R  574   5.383   5.449   6.051
    5SAPS   H4S  575   5.223   5.409   6.093
    5SAPS   C25  576   5.348   5.239   6.010
    5SAPS   H5R  577   5.307   5.146   6.053
    5SAPS   C26  578   5.392   5.251   5.884
    5SAPS   H6R  579   5.399   5.162   5.821
    5SAPS   C27  580   5.435   5.378   5.807
    5SAPS   H7R  581   5.360   5.459   5.815
    5SAPS   H7S  582   5.439   5.348   5.700
    5SAPS   C28  583   5.568   5.430   5.860
    5SAPS   H8R  584   5.569   5.444   5.969
    5SAPS   C29  585   5.680   5.445   5.793
    5SAPS   H9R  586   5.764   5.490   5.847
    5SAPS  C210  587   5.709   5.410   5.644
    5SAPS  H10R  588   5.713   5.503   5.583
    5SAPS  H10S  589   5.626   5.357   5.594
    5SAPS  C211  590   5.833   5.327   5.636
    5SAPS  H11R  591   5.832   5.232   5.691
    5SAPS  C212  592   5.948   5.361   5.570
    5SAPS  H12R  593   6.037   5.301   5.592
    5SAPS  C213  594   5.965   5.490   5.484
    5SAPS  H13R  595   6.005   5.579   5.537
    5SAPS  H13S  596   5.868   5.513   5.436
    5SAPS  C214  597   6.060   5.471   5.374
    5SAPS  H14R  598   6.167   5.477   5.399
    5SAPS  C215  599   6.018   5.447   5.246
    5SAPS  H15R  600   6.103   5.423   5.181
    5SAPS  C216  601   5.883   5.439   5.180
    5SAPS  H16R  602   5.896   5.416   5.072
    5SAPS  H16S  603   5.841   5.541   5.194
    5SAPS  C217  604   5.769   5.344   5.221
    5SAPS  H17R  605   5.745   5.379   5.323
    5SAPS  H17S  606   5.821   5.246   5.223
    5SAPS  C218  607   5.645   5.343   5.134
    5SAPS  H18R  608   5.579   5.260   5.168
    5SAPS  H18S  609   5.671   5.321   5.029
    5SAPS  C219  610   5.554   5.472   5.125
    5SAPS  H19R  611   5.606   5.534   5.048
    5SAPS  H19S  612   5.541   5.516   5.226
    5SAPS  C220  613   5.405   5.439   5.085
    5SAPS  H20R  614   5.397   5.378   4.992
    5SAPS  H20S  615   5.359   5.536   5.055
    5SAPS  H20T  616   5.351   5.391   5.169
    5SAPS   C33  617   5.241   4.769   6.467
    5SAPS   H3X  618   5.150   4.816   6.509
    5SAPS   H3Y  619   5.196   4.669   6.450
    5SAPS   C34  620   5.279   4.829   6.332
    5SAPS   H4X  621   5.359   4.779   6.275
    5SAPS   H4Y  622   5.317   4.933   6.332
    5SAPS   C35  623   5.159   4.826   6.243
    5SAPS   H5X  624   5.097   4.908   6.284
    5SAPS   H5Y  625   5.084   4.744   6.251
    5SAPS   C36  626   5.201   4.838   6.089
    5SAPS   H6X  627   5.298   4.892   6.091
    5SAPS   H6Y  628   5.127   4.906   6.040
    5SAPS   C37  629   5.224   4.710   6.008
    5SAPS   H7X  630   5.130   4.652   6.021
    5SAPS   H7Y  631   5.305   4.645   6.047
    5SAPS   C38  632   5.265   4.747   5.866
    5SAPS   H8X  633   5.362   4.801   5.854
    5SAPS   H8Y  634   5.191   4.818   5.824
    5SAPS   C39  635   5.262   4.630   5.771
    5SAPS   H9X  636   5.157   4.596   5.763
    5SAPS   H9Y  637   5.335   4.555   5.808
    5SAPS  C310  638   5.300   4.680   5.635
    5SAPS  H10X  639   5.411   4.687   5.632
    5SAPS  H10Y  640   5.256   4.780   5.612
    5SAPS  C311  641   5.255   4.582   5.519
    5SAPS  H11X  642   5.146   4.568   5.533
    5SAPS  H11Y  643   5.304   4.487   5.549
    5SAPS  C312  644   5.291   4.615   5.377
    5SAPS  H12X  645   5.397   4.640   5.360
    5SAPS  H12Y  646   5.230   4.696   5.331
    5SAPS  C313  647   5.265   4.485   5.298
    5SAPS  H13X  648   5.163   4.444   5.307
    5SAPS  H13Y  649   5.327   4.407   5.347
    5SAPS  C314  650   5.313   4.513   5.156
    5SAPS  H14X  651   5.419   4.545   5.160
    5SAPS  H14Y  652   5.247   4.596   5.121
    5SAPS  C315  653   5.290   4.390   5.068
    5SAPS  H15X  654   5.187   4.360   5.094
    5SAPS  H15Y  655   5.352   4.308   5.109
    5SAPS  C316  656   5.302   4.419   4.915
    5SAPS  H16X  657   5.398   4.474   4.905
    5SAPS  H16Y  658   5.218   4.485   4.885
    5SAPS  C317  659   5.293   4.286   4.832
    5SAPS  H17X  660   5.229   4.211   4.882
    5SAPS  H17Y  661   5.396   4.245   4.824
    5SAPS  C318  662   5.235   4.305   4.696
    5SAPS  H18X  663   5.126   4.328   4.699
    5SAPS  H18Y  664   5.259   4.217   4.632
    5SAPS  H18Z  665   5.275   4.395   4.646
    6SAPS     N  666   3.401   4.343   6.796
    6SAPS   HN1  667   3.463   4.331   6.879
    6SAPS   HN2  668   3.345   4.261   6.765
    6SAPS   HN3  669   3.471   4.356   6.720
    6SAPS   C12  670   3.317   4.464   6.810
    6SAPS  H12A  671   3.249   4.443   6.891
    6SAPS   C13  672   3.402   4.597   6.844
    6SAPS  O13A  673   3.527   4.598   6.842
    6SAPS  O13B  674   3.334   4.704   6.873
    6SAPS   C11  675   3.245   4.503   6.679
    6SAPS  H11A  676   3.320   4.531   6.601
    6SAPS  H11B  677   3.198   4.603   6.690
    6SAPS     P  678   2.996   4.405   6.672
    6SAPS   O13  679   2.981   4.286   6.757
    6SAPS   O14  680   2.951   4.535   6.724
    6SAPS   O12  681   3.146   4.415   6.628
    6SAPS   O11  682   2.924   4.375   6.534
    6SAPS    C1  683   2.993   4.312   6.421
    6SAPS    HA  684   3.056   4.226   6.452
    6SAPS    HB  685   2.915   4.267   6.355
    6SAPS    C2  686   3.075   4.413   6.337
    6SAPS    HS  687   3.183   4.413   6.365
    6SAPS   O21  688   3.016   4.540   6.358
    6SAPS   C21  689   3.102   4.642   6.348
    6SAPS   O22  690   3.218   4.628   6.332
    6SAPS   C22  691   3.029   4.769   6.386
    6SAPS   H2R  692   2.931   4.760   6.335
    6SAPS   H2S  693   3.003   4.763   6.494
    6SAPS    C3  694   3.056   4.378   6.190
    6SAPS    HX  695   2.951   4.387   6.153
    6SAPS    HY  696   3.094   4.275   6.173
    6SAPS   O31  697   3.128   4.474   6.105
    6SAPS   C31  698   3.258   4.445   6.092
    6SAPS   O32  699   3.324   4.364   6.153
    6SAPS   C32  700   3.321   4.542   5.987
    6SAPS   H2X  701   3.430   4.527   5.972
    6SAPS   H2Y  702   3.308   4.646   6.024
    6SAPS   C23  703   3.119   4.900   6.363
    6SAPS   H3R  704   3.220   4.892   6.408
    6SAPS   H3S  705   3.056   4.985   6.396
    6SAPS   C24  706   3.153   4.920   6.210
    6SAPS   H4R  707   3.193   4.831   6.159
    6SAPS   H4S  708   3.231   4.998   6.197
    6SAPS   C25  709   3.024   4.974   6.153
    6SAPS   H5R  710   2.955   5.026   6.221
    6SAPS   C26  711   2.991   4.971   6.020
    6SAPS   H6R  712   2.900   5.019   5.981
    6SAPS   C27  713   3.074   4.896   5.922
    6SAPS   H7R  714   3.099   4.796   5.963
    6SAPS   H7S  715   3.173   4.947   5.926
    6SAPS   C28  716   3.017   4.871   5.784
    6SAPS   H8R  717   2.965   4.774   5.773
    6SAPS   C29  718   3.032   4.955   5.682
    6SAPS   H9R  719   2.990   4.920   5.586
    6SAPS  C210  720   3.109   5.086   5.700
    6SAPS  H10R  721   3.217   5.060   5.707
    6SAPS  H10S  722   3.086   5.141   5.794
    6SAPS  C211  723   3.088   5.174   5.578
    6SAPS  H11R  724   3.147   5.141   5.491
    6SAPS  C212  725   3.011   5.277   5.554
    6SAPS  H12R  726   3.007   5.334   5.460
    6SAPS  C213  727   2.912   5.337   5.654
    6SAPS  H13R  728   2.901   5.447   5.640
    6SAPS  H13S  729   2.951   5.340   5.758
    6SAPS  C214  730   2.775   5.263   5.642
    6SAPS  H14R  731   2.762   5.181   5.714
    6SAPS  C215  732   2.682   5.289   5.548
    6SAPS  H15R  733   2.589   5.231   5.540
    6SAPS  C216  734   2.695   5.404   5.453
    6SAPS  H16R  735   2.803   5.426   5.438
    6SAPS  H16S  736   2.647   5.494   5.496
    6SAPS  C217  737   2.633   5.375   5.316
    6SAPS  H17R  738   2.672   5.276   5.284
    6SAPS  H17S  739   2.668   5.451   5.243
    6SAPS  C218  740   2.482   5.365   5.323
    6SAPS  H18R  741   2.448   5.446   5.390
    6SAPS  H18S  742   2.467   5.272   5.382
    6SAPS  C219  743   2.408   5.387   5.189
    6SAPS  H19R  744   2.441   5.480   5.139
    6SAPS  H19S  745   2.299   5.400   5.207
    6SAPS  C220  746   2.417   5.266   5.085
    6SAPS  H20R  747   2.524   5.247   5.061
    6SAPS  H20S  748   2.368   5.285   4.987
    6SAPS  H20T  749   2.388   5.173   5.139
    6SAPS   C33  750   3.250   4.534   5.857
    6SAPS   H3X  751   3.281   4.618   5.792
    6SAPS   H3Y  752   3.143   4.563   5.869
    6SAPS   C34  753   3.243   4.401   5.783
    6SAPS   H4X  754   3.181   4.328   5.839
    6SAPS   H4Y  755   3.347   4.363   5.778
    6SAPS   C35  756   3.204   4.413   5.635
    6SAPS   H5X  757   3.136   4.499   5.622
    6SAPS   H5Y  758   3.149   4.324   5.597
    6SAPS   C36  759   3.320   4.430   5.534
    6SAPS   H6X  760   3.404   4.362   5.559
    6SAPS   H6Y  761   3.354   4.533   5.558
    6SAPS   C37  762   3.286   4.414   5.385
    6SAPS   H7X  763   3.271   4.306   5.366
    6SAPS   H7Y  764   3.368   4.443   5.316
    6SAPS   C38  765   3.164   4.502   5.349
    6SAPS   H8X  766   3.169   4.592   5.415
    6SAPS   H8Y  767   3.071   4.451   5.382
    6SAPS   C39  768   3.159   4.551   5.198
    6SAPS   H9X  769   3.249   4.612   5.173
    6SAPS   H9Y  770   3.074   4.622   5.196
    6SAPS  C310  771   3.141   4.437   5.092
    6SAPS  H10X  772   3.077   4.358   5.138
    6SAPS  H10Y  773   3.236   4.382   5.072
    6SAPS  C311  774   3.065   4.485   4.966
    6SAPS  H11X  775   3.078   4.407   4.887
    6SAPS  H11Y  776   3.106   4.581   4.929
    6SAPS  C312  777   2.917   4.526   4.990
    6SAPS  H12X  778   2.898   4.591   5.078
    6SAPS  H12Y  779   2.875   4.428   5.023
    6SAPS  C313  780   2.843   4.587   4.874
    6SAPS  H13X  781   2.740   4.591   4.915
    6SAPS  H13Y  782   2.846   4.505   4.798
    6SAPS  C314  783   2.887   4.718   4.821
    6SAPS  H14X  784   2.822   4.739   4.733
    6SAPS  H14Y  785   2.991   4.703   4.784
    6SAPS  C315  786   2.884   4.831   4.932
    6SAPS  H15X  787   2.958   4.814   5.013
    6SAPS  H15Y  788   2.783   4.837   4.978
    6SAPS  C316  789   2.899   4.974   4.885
    6SAPS  H16X  790   2.847   4.988   4.788
    6SAPS  H16Y  791   3.006   4.990   4.859
    6SAPS  C317  792   2.842   5.076   4.984
    6SAPS  H17X  793   2.892   5.066   5.083
    6SAPS  H17Y  794   2.736   5.050   5.010
    6SAPS  C318  795   2.845   5.212   4.928
    6SAPS  H18X  796   2.920   5.275   4.980
    6SAPS  H18Y  797   2.744   5.254   4.948
    6SAPS  H18Z  798   2.866   5.212   4.819
    7SAPS     N  799   2.026   0.811   6.666
    7SAPS   HN1  800   1.942   0.855   6.708
    7SAPS   HN2  801   2.012   0.834   6.565
    7SAPS   HN3  802   2.040   0.710   6.683
    7SAPS   C12  803   2.151   0.890   6.695
    7SAPS  H12A  804   2.124   0.994   6.686
    7SAPS   C13  805   2.202   0.870   6.834
    7SAPS  O13A  806   2.138   0.817   6.930
    7SAPS  O13B  807   2.309   0.932   6.858
    7SAPS   C11  808   2.252   0.848   6.583
    7SAPS  H11A  809   2.299   0.748   6.597
    7SAPS  H11B  810   2.339   0.917   6.588
    7SAPS     P  811   2.232   0.965   6.346
    7SAPS   O13  812   2.153   0.946   6.219
    7SAPS   O14  813   2.227   1.102   6.401
    7SAPS   O12  814   2.189   0.853   6.454
    7SAPS   O11  815   2.381   0.914   6.325
    7SAPS    C1  816   2.469   1.013   6.265
    7SAPS    HA  817   2.442   1.120   6.280
    7SAPS    HB  818   2.575   1.012   6.299
    7SAPS    C2  819   2.466   1.006   6.111
    7SAPS    HS  820   2.361   0.984   6.081
    7SAPS   O21  821   2.547   0.902   6.066
    7SAPS   C21  822   2.510   0.841   5.955
    7SAPS   O22  823   2.402   0.848   5.899
    7SAPS   C22  824   2.617   0.745   5.909
    7SAPS   H2R  825   2.705   0.809   5.886
    7SAPS   H2S  826   2.631   0.682   6.000
    7SAPS    C3  827   2.505   1.152   6.053
    7SAPS    HX  828   2.610   1.176   6.080
    7SAPS    HY  829   2.429   1.218   6.100
    7SAPS   O31  830   2.508   1.158   5.914
    7SAPS   C31  831   2.383   1.145   5.863
    7SAPS   O32  832   2.281   1.153   5.929
    7SAPS   C32  833   2.396   1.139   5.707
    7SAPS   H2X  834   2.444   1.042   5.679
    7SAPS   H2Y  835   2.466   1.216   5.668
    7SAPS   C23  836   2.573   0.676   5.788
    7SAPS   H3R  837   2.551   0.744   5.703
    7SAPS   H3S  838   2.482   0.618   5.814
    7SAPS   C24  839   2.670   0.560   5.756
    7SAPS   H4R  840   2.626   0.487   5.684
    7SAPS   H4S  841   2.692   0.508   5.851
    7SAPS   C25  842   2.796   0.617   5.701
    7SAPS   H5R  843   2.862   0.673   5.768
    7SAPS   C26  844   2.816   0.631   5.567
    7SAPS   H6R  845   2.905   0.689   5.539
    7SAPS   C27  846   2.729   0.588   5.453
    7SAPS   H7R  847   2.632   0.641   5.464
    7SAPS   H7S  848   2.686   0.488   5.472
    7SAPS   C28  849   2.779   0.592   5.313
    7SAPS   H8R  850   2.756   0.673   5.243
    7SAPS   C29  851   2.858   0.501   5.253
    7SAPS   H9R  852   2.870   0.528   5.147
    7SAPS  C210  853   2.911   0.368   5.291
    7SAPS  H10R  854   2.897   0.354   5.401
    7SAPS  H10S  855   3.021   0.379   5.280
    7SAPS  C211  856   2.852   0.249   5.230
    7SAPS  H11R  857   2.770   0.217   5.295
    7SAPS  C212  858   2.888   0.190   5.114
    7SAPS  H12R  859   2.842   0.093   5.089
    7SAPS  C213  860   3.010   0.225   5.033
    7SAPS  H13R  861   3.064   0.318   5.063
    7SAPS  H13S  862   2.984   0.245   4.927
    7SAPS  C214  863   3.111   0.116   5.012
    7SAPS  H14R  864   3.209   0.152   5.046
    7SAPS  C215  865   3.106   6.894   4.948
    7SAPS  H15R  866   3.195   6.828   4.952
    7SAPS  C216  867   2.989   6.823   4.886
    7SAPS  H16R  868   2.905   6.866   4.945
    7SAPS  H16S  869   2.997   6.715   4.909
    7SAPS  C217  870   2.969   6.859   4.739
    7SAPS  H17R  871   3.063   6.847   4.682
    7SAPS  H17S  872   2.948   0.068   4.733
    7SAPS  C218  873   2.856   6.783   4.655
    7SAPS  H18R  874   2.768   6.779   4.722
    7SAPS  H18S  875   2.881   6.677   4.631
    7SAPS  C219  876   2.816   6.863   4.531
    7SAPS  H19R  877   2.900   6.873   4.460
    7SAPS  H19S  878   2.788   0.068   4.552
    7SAPS  C220  879   2.699   6.795   4.466
    7SAPS  H20R  880   2.720   6.686   4.467
    7SAPS  H20S  881   2.692   6.835   4.362
    7SAPS  H20T  882   2.604   6.816   4.519
    7SAPS   C33  883   2.253   1.164   5.645
    7SAPS   H3X  884   2.214   1.262   5.680
    7SAPS   H3Y  885   2.180   1.097   5.695
    7SAPS   C34  886   2.257   1.162   5.490
    7SAPS   H4X  887   2.156   1.196   5.457
    7SAPS   H4Y  888   2.266   1.060   5.446
    7SAPS   C35  889   2.371   1.249   5.430
    7SAPS   H5X  890   2.461   1.187   5.449
    7SAPS   H5Y  891   2.384   1.343   5.488
    7SAPS   C36  892   2.357   1.262   5.279
    7SAPS   H6X  893   2.260   1.311   5.254
    7SAPS   H6Y  894   2.355   1.161   5.231
    7SAPS   C37  895   2.484   1.323   5.218
    7SAPS   H7X  896   2.562   1.271   5.277
    7SAPS   H7Y  897   2.489   1.431   5.246
    7SAPS   C38  898   2.500   1.304   5.064
    7SAPS   H8X  899   2.520   1.199   5.033
    7SAPS   H8Y  900   2.588   1.366   5.037
    7SAPS   C39  901   2.374   1.353   4.986
    7SAPS   H9X  902   2.360   1.458   5.019
    7SAPS   H9Y  903   2.290   1.283   5.008
    7SAPS  C310  904   2.384   1.357   4.837
    7SAPS  H10X  905   2.469   1.421   4.804
    7SAPS  H10Y  906   2.288   1.399   4.803
    7SAPS  C311  907   2.392   1.215   4.773
    7SAPS  H11X  908   2.314   1.147   4.812
    7SAPS  H11Y  909   2.488   1.168   4.803
    7SAPS  C312  910   2.402   1.220   4.617
    7SAPS  H12X  911   2.326   1.288   4.573
    7SAPS  H12Y  912   2.380   1.127   4.561
    7SAPS  C313  913   2.533   1.273   4.552
    7SAPS  H13X  914   2.615   1.202   4.576
    7SAPS  H13Y  915   2.546   1.372   4.600
    7SAPS  C314  916   2.523   1.288   4.401
    7SAPS  H14X  917   2.446   1.368   4.390
    7SAPS  H14Y  918   2.487   1.186   4.377
    7SAPS  C315  919   2.651   1.313   4.322
    7SAPS  H15X  920   2.730   1.251   4.370
    7SAPS  H15Y  921   2.684   1.418   4.339
    7SAPS  C316  922   2.649   1.272   4.175
    7SAPS  H16X  923   2.590   1.178   4.178
    7SAPS  H16Y  924   2.749   1.249   4.131
    7SAPS  C317  925   2.579   1.374   4.082
    7SAPS  H17X  926   2.611   1.470   4.130
    7SAPS  H17Y  927   2.469   1.376   4.094
    7SAPS  C318  928   2.616   1.364   3.930
    7SAPS  H18X  929   2.573   1.271   3.888
    7SAPS  H18Y  930   2.727   1.367   3.917
    7SAPS  H18Z  931   2.575   1.455   3.879
    8SAPS     N  932   1.747   1.660   6.718
    8SAPS   HN1  933   1.830   1.623   6.666
    8SAPS   HN2  934   1.693   1.585   6.766
    8SAPS   HN3  935   1.682   1.707   6.652
    8SAPS   C12  936   1.801   1.744   6.821
    8SAPS  H12A  937   1.714   1.780   6.873
    8SAPS   C13  938   1.901   1.672   6.920
    8SAPS  O13A  939   1.894   1.548   6.920
    8SAPS  O13B  940   1.952   1.745   7.011
    8SAPS   C11  941   1.866   1.864   6.746
    8SAPS  H11A  942   1.934   1.816   6.673
    8SAPS  H11B  943   1.922   1.927   6.818
    8SAPS     P  944   1.808   2.030   6.569
    8SAPS   O13  945   1.690   2.103   6.522
    8SAPS   O14  946   1.921   2.110   6.625
    8SAPS   O12  947   1.757   1.933   6.682
    8SAPS   O11  948   1.867   1.944   6.449
    8SAPS    C1  949   1.839   1.970   6.310
    8SAPS    HA  950   1.803   1.879   6.256
    8SAPS    HB  951   1.746   2.029   6.295
    8SAPS    C2  952   1.960   2.027   6.237
    8SAPS    HS  953   1.939   2.076   6.140
    8SAPS   O21  954   2.060   1.926   6.225
    8SAPS   C21  955   2.044   1.859   6.108
    8SAPS   O22  956   1.964   1.895   6.017
    8SAPS   C22  957   2.141   1.744   6.093
    8SAPS   H2R  958   2.244   1.785   6.109
    8SAPS   H2S  959   2.125   1.669   6.172
    8SAPS    C3  960   2.027   2.133   6.316
    8SAPS    HX  961   2.053   2.121   6.423
    8SAPS    HY  962   1.956   2.219   6.310
    8SAPS   O31  963   2.143   2.180   6.245
    8SAPS   C31  964   2.265   2.133   6.296
    8SAPS   O32  965   2.277   2.053   6.385
    8SAPS   C32  966   2.378   2.187   6.210
    8SAPS   H2X  967   2.447   2.252   6.268
    8SAPS   H2Y  968   2.334   2.251   6.130
    8SAPS   C23  969   2.130   1.687   5.943
    8SAPS   H3R  970   2.177   1.756   5.869
    8SAPS   H3S  971   2.023   1.691   5.913
    8SAPS   C24  972   2.175   1.543   5.933
    8SAPS   H4R  973   2.167   1.509   5.828
    8SAPS   H4S  974   2.103   1.477   5.986
    8SAPS   C25  975   2.317   1.515   5.978
    8SAPS   H5R  976   2.327   1.438   6.056
    8SAPS   C26  977   2.430   1.566   5.917
    8SAPS   H6R  978   2.529   1.542   5.960
    8SAPS   C27  979   2.439   1.651   5.791
    8SAPS   H7R  980   2.539   1.697   5.778
    8SAPS   H7S  981   2.371   1.736   5.813
    8SAPS   C28  982   2.376   1.590   5.666
    8SAPS   H8R  983   2.284   1.531   5.680
    8SAPS   C29  984   2.413   1.617   5.538
    8SAPS   H9R  985   2.346   1.575   5.462
    8SAPS  C210  986   2.522   1.704   5.487
    8SAPS  H10R  987   2.563   1.781   5.556
    8SAPS  H10S  988   2.463   1.763   5.414
    8SAPS  C211  989   2.629   1.619   5.430
    8SAPS  H11R  990   2.645   1.535   5.500
    8SAPS  C212  991   2.690   1.631   5.313
    8SAPS  H12R  992   2.754   1.548   5.280
    8SAPS  C213  993   2.674   1.756   5.224
    8SAPS  H13R  994   2.580   1.813   5.241
    8SAPS  H13S  995   2.663   1.728   5.117
    8SAPS  C214  996   2.801   1.835   5.241
    8SAPS  H14R  997   2.829   1.861   5.344
    8SAPS  C215  998   2.884   1.859   5.145
    8SAPS  H15R  999   2.967   1.925   5.175
    8SAPS  C216 1000   2.860   1.845   5.000
    8SAPS  H16R 1001   2.856   1.949   4.959
    8SAPS  H16S 1002   2.767   1.794   4.969
    8SAPS  C217 1003   2.980   1.780   4.946
    8SAPS  H17R 1004   2.987   1.683   4.999
    8SAPS  H17S 1005   3.068   1.845   4.962
    8SAPS  C218 1006   2.967   1.754   4.794
    8SAPS  H18R 1007   2.961   1.846   4.732
    8SAPS  H18S 1008   2.869   1.702   4.789
    8SAPS  C219 1009   3.080   1.652   4.747
    8SAPS  H19R 1010   3.082   1.631   4.638
    8SAPS  H19S 1011   3.053   1.550   4.779
    8SAPS  C220 1012   3.215   1.686   4.811
    8SAPS  H20R 1013   3.248   1.789   4.786
    8SAPS  H20S 1014   3.291   1.613   4.776
    8SAPS  H20T 1015   3.211   1.690   4.921
    8SAPS   C33 1016   2.458   2.068   6.144
    8SAPS   H3X 1017   2.470   1.984   6.216
    8SAPS   H3Y 1018   2.558   2.095   6.103
    8SAPS   C34 1019   2.384   2.019   6.021
    8SAPS   H4X 1020   2.277   2.020   6.049
    8SAPS   H4Y 1021   2.415   1.919   5.981
    8SAPS   C35 1022   2.396   2.114   5.905
    8SAPS   H5X 1023   2.503   2.118   5.875
    8SAPS   H5Y 1024   2.363   2.216   5.933
    8SAPS   C36 1025   2.314   2.055   5.790
    8SAPS   H6X 1026   2.205   2.061   5.811
    8SAPS   H6Y 1027   2.335   1.948   5.770
    8SAPS   C37 1028   2.332   2.135   5.653
    8SAPS   H7X 1029   2.395   2.225   5.671
    8SAPS   H7Y 1030   2.237   2.184   5.621
    8SAPS   C38 1031   2.385   2.052   5.545
    8SAPS   H8X 1032   2.312   1.974   5.515
    8SAPS   H8Y 1033   2.476   2.002   5.586
    8SAPS   C39 1034   2.426   2.122   5.419
    8SAPS   H9X 1035   2.483   2.047   5.359
    8SAPS   H9Y 1036   2.500   2.205   5.425
    8SAPS  C310 1037   2.302   2.182   5.344
    8SAPS  H10X 1038   2.265   2.264   5.409
    8SAPS  H10Y 1039   2.220   2.109   5.327
    8SAPS  C311 1040   2.322   2.249   5.207
    8SAPS  H11X 1041   2.345   2.165   5.138
    8SAPS  H11Y 1042   2.395   2.333   5.200
    8SAPS  C312 1043   2.191   2.303   5.161
    8SAPS  H12X 1044   2.152   2.379   5.232
    8SAPS  H12Y 1045   2.118   2.219   5.161
    8SAPS  C313 1046   2.194   2.369   5.025
    8SAPS  H13X 1047   2.261   2.458   5.033
    8SAPS  H13Y 1048   2.092   2.411   5.010
    8SAPS  C314 1049   2.244   2.278   4.907
    8SAPS  H14X 1050   2.191   2.181   4.909
    8SAPS  H14Y 1051   2.351   2.253   4.926
    8SAPS  C315 1052   2.226   2.350   4.770
    8SAPS  H15X 1053   2.294   2.436   4.752
    8SAPS  H15Y 1054   2.119   2.380   4.765
    8SAPS  C316 1055   2.256   2.240   4.669
    8SAPS  H16X 1056   2.172   2.168   4.682
    8SAPS  H16Y 1057   2.354   2.195   4.693
    8SAPS  C317 1058   2.276   2.288   4.529
    8SAPS  H17X 1059   2.258   2.201   4.462
    8SAPS  H17Y 1060   2.375   2.331   4.504
    8SAPS  C318 1061   2.173   2.397   4.485
    8SAPS  H18X 1062   2.069   2.398   4.524
    8SAPS  H18Y 1063   2.176   2.404   4.374
    8SAPS  H18Z 1064   2.212   2.495   4.520
    9SAPS     N 1065   1.530   5.245   7.051
    9SAPS   HN1 1066   1.585   5.324   7.014
    9SAPS   HN2 1067   1.532   5.256   7.155
    9SAPS   HN3 1068   1.552   5.148   7.020
    9SAPS   C12 1069   1.396   5.290   7.001
    9SAPS  H12A 1070   1.325   5.216   7.037
    9SAPS   C13 1071   1.345   5.428   7.044
    9SAPS  O13A 1072   1.424   5.500   7.104
    9SAPS  O13B 1073   1.226   5.459   7.028
    9SAPS   C11 1074   1.403   5.271   6.842
    9SAPS  H11A 1075   1.478   5.350   6.818
    9SAPS  H11B 1076   1.302   5.295   6.803
    9SAPS     P 1077   1.326   5.032   6.775
    9SAPS   O13 1078   1.360   4.895   6.820
    9SAPS   O14 1079   1.190   5.075   6.825
    9SAPS   O12 1080   1.440   5.137   6.810
    9SAPS   O11 1081   1.326   5.037   6.615
    9SAPS    C1 1082   1.440   5.089   6.551
    9SAPS    HA 1083   1.423   5.198   6.537
    9SAPS    HB 1084   1.539   5.082   6.602
    9SAPS    C2 1085   1.465   5.013   6.412
    9SAPS    HS 1086   1.540   5.073   6.358
    9SAPS   O21 1087   1.348   4.991   6.325
    9SAPS   C21 1088   1.312   5.111   6.282
    9SAPS   O22 1089   1.363   5.221   6.302
    9SAPS   C22 1090   1.194   5.095   6.195
    9SAPS   H2R 1091   1.226   5.054   6.098
    9SAPS   H2S 1092   1.132   5.009   6.230
    9SAPS    C3 1093   1.526   4.871   6.450
    9SAPS    HX 1094   1.449   4.822   6.514
    9SAPS    HY 1095   1.620   4.880   6.508
    9SAPS   O31 1096   1.557   4.798   6.336
    9SAPS   C31 1097   1.459   4.707   6.297
    9SAPS   O32 1098   1.355   4.681   6.361
    9SAPS   C32 1099   1.498   4.653   6.158
    9SAPS   H2X 1100   1.460   4.549   6.150
    9SAPS   H2Y 1101   1.609   4.648   6.150
    9SAPS   C23 1102   1.110   5.220   6.167
    9SAPS   H3R 1103   1.128   5.256   6.064
    9SAPS   H3S 1104   1.147   5.300   6.235
    9SAPS   C24 1105   0.961   5.189   6.184
    9SAPS   H4R 1106   0.965   5.150   6.288
    9SAPS   H4S 1107   0.924   5.109   6.116
    9SAPS   C25 1108   0.884   5.323   6.186
    9SAPS   H5R 1109   0.905   5.391   6.270
    9SAPS   C26 1110   0.808   5.365   6.079
    9SAPS   H6R 1111   0.765   5.466   6.079
    9SAPS   C27 1112   0.789   5.282   5.956
    9SAPS   H7R 1113   0.740   5.186   5.984
    9SAPS   H7S 1114   0.888   5.261   5.912
    9SAPS   C28 1115   0.696   5.353   5.868
    9SAPS   H8R 1116   0.601   5.380   5.916
    9SAPS   C29 1117   0.712   5.382   5.741
    9SAPS   H9R 1118   0.639   5.453   5.698
    9SAPS  C210 1119   0.823   5.354   5.645
    9SAPS  H10R 1120   0.782   5.303   5.556
    9SAPS  H10S 1121   0.886   5.275   5.691
    9SAPS  C211 1122   0.900   5.475   5.603
    9SAPS  H11R 1123   0.960   5.522   5.682
    9SAPS  C212 1124   0.914   5.527   5.478
    9SAPS  H12R 1125   0.987   5.609   5.476
    9SAPS  C213 1126   0.848   5.483   5.347
    9SAPS  H13R 1127   0.746   5.444   5.365
    9SAPS  H13S 1128   0.911   5.409   5.293
    9SAPS  C214 1129   0.838   5.606   5.256
    9SAPS  H14R 1130   0.880   5.698   5.298
    9SAPS  C215 1131   0.787   5.595   5.129
    9SAPS  H15R 1132   0.782   5.686   5.069
    9SAPS  C216 1133   0.722   5.476   5.052
    9SAPS  H16R 1134   0.614   5.497   5.040
    9SAPS  H16S 1135   0.720   5.380   5.108
    9SAPS  C217 1136   0.780   5.452   4.910
    9SAPS  H17R 1137   0.758   5.348   4.879
    9SAPS  H17S 1138   0.890   5.456   4.921
    9SAPS  C218 1139   0.708   5.538   4.805
    9SAPS  H18R 1140   0.743   5.643   4.811
    9SAPS  H18S 1141   0.597   5.531   4.817
    9SAPS  C219 1142   0.735   5.482   4.659
    9SAPS  H19R 1143   0.841   5.488   4.626
    9SAPS  H19S 1144   0.694   5.556   4.587
    9SAPS  C220 1145   0.671   5.349   4.625
    9SAPS  H20R 1146   0.561   5.344   4.643
    9SAPS  H20S 1147   0.720   5.273   4.690
    9SAPS  H20T 1148   0.687   5.327   4.518
    9SAPS   C33 1149   1.453   4.742   6.040
    9SAPS   H3X 1150   1.504   4.840   6.043
    9SAPS   H3Y 1151   1.347   4.771   6.054
    9SAPS   C34 1152   1.477   4.667   5.912
    9SAPS   H4X 1153   1.451   4.561   5.935
    9SAPS   H4Y 1154   1.584   4.667   5.882
    9SAPS   C35 1155   1.398   4.718   5.785
    9SAPS   H5X 1156   1.419   4.827   5.778
    9SAPS   H5Y 1157   1.290   4.711   5.808
    9SAPS   C36 1158   1.416   4.656   5.646
    9SAPS   H6X 1159   1.396   4.548   5.666
    9SAPS   H6Y 1160   1.517   4.672   5.601
    9SAPS   C37 1161   1.317   4.702   5.538
    9SAPS   H7X 1162   1.294   4.810   5.523
    9SAPS   H7Y 1163   1.218   4.659   5.563
    9SAPS   C38 1164   1.368   4.672   5.399
    9SAPS   H8X 1165   1.390   4.563   5.394
    9SAPS   H8Y 1166   1.451   4.733   5.359
    9SAPS   C39 1167   1.255   4.689   5.289
    9SAPS   H9X 1168   1.242   4.797   5.267
    9SAPS   H9Y 1169   1.161   4.650   5.333
    9SAPS  C310 1170   1.301   4.623   5.155
    9SAPS  H10X 1171   1.281   4.514   5.167
    9SAPS  H10Y 1172   1.412   4.628   5.143
    9SAPS  C311 1173   1.231   4.689   5.033
    9SAPS  H11X 1174   1.258   4.795   5.050
    9SAPS  H11Y 1175   1.122   4.666   5.032
    9SAPS  C312 1176   1.298   4.647   4.902
    9SAPS  H12X 1177   1.403   4.682   4.898
    9SAPS  H12Y 1178   1.250   4.708   4.823
    9SAPS  C313 1179   1.283   4.499   4.871
    9SAPS  H13X 1180   1.200   4.454   4.931
    9SAPS  H13Y 1181   1.384   4.465   4.903
    9SAPS  C314 1182   1.239   4.470   4.727
    9SAPS  H14X 1183   1.309   4.523   4.660
    9SAPS  H14Y 1184   1.132   4.497   4.716
    9SAPS  C315 1185   1.244   4.317   4.697
    9SAPS  H15X 1186   1.172   4.261   4.761
    9SAPS  H15Y 1187   1.345   4.289   4.733
    9SAPS  C316 1188   1.216   4.284   4.548
    9SAPS  H16X 1189   1.222   4.174   4.537
    9SAPS  H16Y 1190   1.289   4.330   4.479
    9SAPS  C317 1191   1.071   4.316   4.501
    9SAPS  H17X 1192   1.061   4.425   4.519
    9SAPS  H17Y 1193   1.000   4.257   4.563
    9SAPS  C318 1194   1.062   4.301   4.347
    9SAPS  H18X 1195   0.958   4.303   4.307
    9SAPS  H18Y 1196   1.123   4.214   4.314
    9SAPS  H18Z 1197   1.119   4.389   4.312
   10SAPS     N 1198   1.936   5.424   6.668
   10SAPS   HN1 1199   2.006   5.366   6.619
   10SAPS   HN2 1200   1.854   5.415   6.604
   10SAPS   HN3 1201   1.982   5.517   6.669
   10SAPS   C12 1202   1.890   5.389   6.800
   10SAPS  H12A 1203   1.975   5.407   6.865
   10SAPS   C13 1204   1.775   5.471   6.852
   10SAPS  O13A 1205   1.743   5.575   6.797
   10SAPS  O13B 1206   1.739   5.445   6.970
   10SAPS   C11 1207   1.855   5.236   6.808
   10SAPS  H11A 1208   1.752   5.227   6.769
   10SAPS  H11B 1209   1.850   5.206   6.915
   10SAPS     P 1210   1.883   5.020   6.660
   10SAPS   O13 1211   1.988   4.935   6.602
   10SAPS   O14 1212   1.785   4.952   6.741
   10SAPS   O12 1213   1.946   5.147   6.740
   10SAPS   O11 1214   1.807   5.101   6.541
   10SAPS    C1 1215   1.880   5.169   6.432
   10SAPS    HA 1216   1.818   5.257   6.402
   10SAPS    HB 1217   1.989   5.189   6.443
   10SAPS    C2 1218   1.871   5.073   6.310
   10SAPS    HS 1219   1.771   5.023   6.312
   10SAPS   O21 1220   1.978   4.973   6.325
   10SAPS   C21 1221   1.959   4.861   6.260
   10SAPS   O22 1222   1.858   4.827   6.196
   10SAPS   C22 1223   2.084   4.774   6.262
   10SAPS   H2R 1224   2.161   4.829   6.321
   10SAPS   H2S 1225   2.058   4.682   6.318
   10SAPS    C3 1226   1.891   5.160   6.179
   10SAPS    HX 1227   1.992   5.207   6.176
   10SAPS    HY 1228   1.822   5.247   6.185
   10SAPS   O31 1229   1.873   5.088   6.053
   10SAPS   C31 1230   1.753   5.076   6.000
   10SAPS   O32 1231   1.651   5.113   6.055
   10SAPS   C32 1232   1.765   5.009   5.864
   10SAPS   H2X 1233   1.727   4.905   5.873
   10SAPS   H2Y 1234   1.870   4.998   5.830
   10SAPS   C23 1235   2.132   4.739   6.126
   10SAPS   H3R 1236   2.039   4.693   6.085
   10SAPS   H3S 1237   2.205   4.656   6.123
   10SAPS   C24 1238   2.170   4.862   6.039
   10SAPS   H4R 1239   2.076   4.907   6.002
   10SAPS   H4S 1240   2.217   4.818   5.949
   10SAPS   C25 1241   2.268   4.967   6.096
   10SAPS   H5R 1242   2.302   4.941   6.197
   10SAPS   C26 1243   2.327   5.059   6.018
   10SAPS   H6R 1244   2.382   5.139   6.070
   10SAPS   C27 1245   2.293   5.095   5.877
   10SAPS   H7R 1246   2.328   5.015   5.809
   10SAPS   H7S 1247   2.357   5.185   5.862
   10SAPS   C28 1248   2.147   5.137   5.851
   10SAPS   H8R 1249   2.077   5.108   5.931
   10SAPS   C29 1250   2.100   5.189   5.737
   10SAPS   H9R 1251   1.999   5.231   5.732
   10SAPS  C210 1252   2.184   5.202   5.607
   10SAPS  H10R 1253   2.291   5.232   5.616
   10SAPS  H10S 1254   2.149   5.284   5.542
   10SAPS  C211 1255   2.197   5.068   5.545
   10SAPS  H11R 1256   2.267   4.995   5.589
   10SAPS  C212 1257   2.134   5.030   5.429
   10SAPS  H12R 1258   2.148   4.929   5.388
   10SAPS  C213 1259   2.025   5.095   5.353
   10SAPS  H13R 1260   1.963   5.157   5.421
   10SAPS  H13S 1261   1.952   5.016   5.326
   10SAPS  C214 1262   2.081   5.182   5.248
   10SAPS  H14R 1263   2.168   5.237   5.286
   10SAPS  C215 1264   2.044   5.190   5.116
   10SAPS  H15R 1265   2.085   5.272   5.055
   10SAPS  C216 1266   1.946   5.109   5.034
   10SAPS  H16R 1267   1.877   5.183   4.988
   10SAPS  H16S 1268   1.890   5.035   5.096
   10SAPS  C217 1269   2.014   5.022   4.923
   10SAPS  H17R 1270   1.933   4.975   4.863
   10SAPS  H17S 1271   2.065   4.934   4.969
   10SAPS  C218 1272   2.116   5.092   4.832
   10SAPS  H18R 1273   2.153   5.030   4.748
   10SAPS  H18S 1274   2.198   5.117   4.902
   10SAPS  C219 1275   2.055   5.218   4.766
   10SAPS  H19R 1276   2.139   5.269   4.715
   10SAPS  H19S 1277   2.011   5.284   4.844
   10SAPS  C220 1278   1.941   5.199   4.660
   10SAPS  H20R 1279   1.890   5.298   4.648
   10SAPS  H20S 1280   1.862   5.125   4.686
   10SAPS  H20T 1281   1.969   5.163   4.558
   10SAPS   C33 1282   1.679   5.081   5.752
   10SAPS   H3X 1283   1.728   5.177   5.723
   10SAPS   H3Y 1284   1.584   5.114   5.799
   10SAPS   C34 1285   1.669   5.012   5.620
   10SAPS   H4X 1286   1.582   4.943   5.611
   10SAPS   H4Y 1287   1.755   4.944   5.602
   10SAPS   C35 1288   1.647   5.121   5.508
   10SAPS   H5X 1289   1.737   5.181   5.483
   10SAPS   H5Y 1290   1.566   5.188   5.544
   10SAPS   C36 1291   1.611   5.051   5.375
   10SAPS   H6X 1292   1.518   4.992   5.386
   10SAPS   H6Y 1293   1.694   4.981   5.354
   10SAPS   C37 1294   1.591   5.140   5.256
   10SAPS   H7X 1295   1.692   5.182   5.236
   10SAPS   H7Y 1296   1.511   5.212   5.284
   10SAPS   C38 1297   1.541   5.073   5.125
   10SAPS   H8X 1298   1.440   5.031   5.145
   10SAPS   H8Y 1299   1.617   4.997   5.098
   10SAPS   C39 1300   1.534   5.185   5.020
   10SAPS   H9X 1301   1.629   5.242   5.016
   10SAPS   H9Y 1302   1.457   5.259   5.049
   10SAPS  C310 1303   1.510   5.134   4.877
   10SAPS  H10X 1304   1.408   5.090   4.873
   10SAPS  H10Y 1305   1.592   5.066   4.845
   10SAPS  C311 1306   1.500   5.246   4.766
   10SAPS  H11X 1307   1.592   5.303   4.742
   10SAPS  H11Y 1308   1.433   5.326   4.804
   10SAPS  C312 1309   1.447   5.181   4.642
   10SAPS  H12X 1310   1.433   5.260   4.566
   10SAPS  H12Y 1311   1.345   5.139   4.654
   10SAPS  C313 1312   1.528   5.067   4.572
   10SAPS  H13X 1313   1.561   4.986   4.641
   10SAPS  H13Y 1314   1.624   5.105   4.529
   10SAPS  C314 1315   1.449   4.992   4.456
   10SAPS  H14X 1316   1.526   4.932   4.403
   10SAPS  H14Y 1317   1.427   5.073   4.385
   10SAPS  C315 1318   1.345   4.898   4.502
   10SAPS  H15X 1319   1.264   4.967   4.534
   10SAPS  H15Y 1320   1.386   4.834   4.583
   10SAPS  C316 1321   1.294   4.812   4.389
   10SAPS  H16X 1322   1.357   4.772   4.306
   10SAPS  H16Y 1323   1.223   4.881   4.338
   10SAPS  C317 1324   1.194   4.712   4.447
   10SAPS  H17X 1325   1.190   4.724   4.557
   10SAPS  H17Y 1326   1.226   4.610   4.418
   10SAPS  C318 1327   1.053   4.718   4.391
   10SAPS  H18X 1328   1.053   4.739   4.282
   10SAPS  H18Y 1329   1.003   4.807   4.436
   10SAPS  H18Z 1330   0.997   4.625   4.414
   11SAPS     N 1331   3.471   2.121   2.358
   11SAPS   HN1 1332   3.528   2.192   2.408
   11SAPS   HN2 1333   3.427   2.057   2.427
   11SAPS   HN3 1334   3.534   2.070   2.293
   11SAPS   C12 1335   3.379   2.186   2.260
   11SAPS  H12A 1336   3.425   2.270   2.210
   11SAPS   C13 1337   3.311   2.099   2.154
   11SAPS  O13A 1338   3.343   1.977   2.141
   11SAPS  O13B 1339   3.265   2.163   2.059
   11SAPS   C11 1340   3.272   2.265   2.351
   11SAPS  H11A 1341   3.241   2.187   2.424
   11SAPS  H11B 1342   3.181   2.279   2.289
   11SAPS     P 1343   3.261   2.520   2.414
   11SAPS   O13 1344   3.187   2.547   2.291
   11SAPS   O14 1345   3.186   2.541   2.536
   11SAPS   O12 1346   3.324   2.380   2.415
   11SAPS   O11 1347   3.393   2.607   2.408
   11SAPS    C1 1348   3.475   2.629   2.519
   11SAPS    HA 1349   3.452   2.554   2.597
   11SAPS    HB 1350   3.584   2.623   2.498
   11SAPS    C2 1351   3.432   2.768   2.580
   11SAPS    HS 1352   3.322   2.757   2.590
   11SAPS   O21 1353   3.466   2.884   2.505
   11SAPS   C21 1354   3.393   2.992   2.544
   11SAPS   O22 1355   3.315   2.991   2.639
   11SAPS   C22 1356   3.420   3.116   2.466
   11SAPS   H2R 1357   3.529   3.118   2.445
   11SAPS   H2S 1358   3.366   3.114   2.368
   11SAPS    C3 1359   3.499   2.769   2.719
   11SAPS    HX 1360   3.490   2.866   2.772
   11SAPS    HY 1361   3.609   2.757   2.712
   11SAPS   O31 1362   3.464   2.660   2.804
   11SAPS   C31 1363   3.343   2.655   2.866
   11SAPS   O32 1364   3.246   2.727   2.837
   11SAPS   C32 1365   3.342   2.554   2.980
   11SAPS   H2X 1366   3.392   2.464   2.937
   11SAPS   H2Y 1367   3.240   2.517   3.007
   11SAPS   C23 1368   3.378   3.250   2.532
   11SAPS   H3R 1369   3.405   3.255   2.640
   11SAPS   H3S 1370   3.268   3.242   2.531
   11SAPS   C24 1371   3.421   3.369   2.442
   11SAPS   H4R 1372   3.354   3.452   2.470
   11SAPS   H4S 1373   3.394   3.333   2.341
   11SAPS   C25 1374   3.570   3.405   2.464
   11SAPS   H5R 1375   3.644   3.357   2.398
   11SAPS   C26 1376   3.616   3.503   2.549
   11SAPS   H6R 1377   3.722   3.529   2.548
   11SAPS   C27 1378   3.535   3.581   2.649
   11SAPS   H7R 1379   3.507   3.517   2.735
   11SAPS   H7S 1380   3.439   3.615   2.606
   11SAPS   C28 1381   3.615   3.693   2.708
   11SAPS   H8R 1382   3.651   3.767   2.635
   11SAPS   C29 1383   3.648   3.705   2.835
   11SAPS   H9R 1384   3.684   3.805   2.862
   11SAPS  C210 1385   3.631   3.615   2.957
   11SAPS  H10R 1386   3.535   3.560   2.945
   11SAPS  H10S 1387   3.601   3.680   3.041
   11SAPS  C211 1388   3.727   3.511   2.982
   11SAPS  H11R 1389   3.792   3.496   2.895
   11SAPS  C212 1390   3.739   3.452   3.100
   11SAPS  H12R 1391   3.817   3.374   3.103
   11SAPS  C213 1392   3.650   3.464   3.229
   11SAPS  H13R 1393   3.624   3.366   3.276
   11SAPS  H13S 1394   3.549   3.506   3.208
   11SAPS  C214 1395   3.719   3.543   3.335
   11SAPS  H14R 1396   3.769   3.634   3.297
   11SAPS  C215 1397   3.731   3.527   3.467
   11SAPS  H15R 1398   3.766   3.616   3.521
   11SAPS  C216 1399   3.670   3.414   3.548
   11SAPS  H16R 1400   3.599   3.357   3.484
   11SAPS  H16S 1401   3.592   3.461   3.611
   11SAPS  C217 1402   3.762   3.316   3.613
   11SAPS  H17R 1403   3.822   3.370   3.688
   11SAPS  H17S 1404   3.830   3.290   3.529
   11SAPS  C218 1405   3.693   3.193   3.667
   11SAPS  H18R 1406   3.770   3.113   3.655
   11SAPS  H18S 1407   3.614   3.162   3.595
   11SAPS  C219 1408   3.651   3.209   3.808
   11SAPS  H19R 1409   3.560   3.270   3.829
   11SAPS  H19S 1410   3.740   3.253   3.859
   11SAPS  C220 1411   3.625   3.072   3.872
   11SAPS  H20R 1412   3.559   3.009   3.808
   11SAPS  H20S 1413   3.577   3.078   3.972
   11SAPS  H20T 1414   3.716   3.008   3.879
   11SAPS   C33 1415   3.412   2.606   3.108
   11SAPS   H3X 1416   3.338   2.670   3.161
   11SAPS   H3Y 1417   3.497   2.673   3.081
   11SAPS   C34 1418   3.464   2.491   3.196
   11SAPS   H4X 1419   3.566   2.519   3.229
   11SAPS   H4Y 1420   3.479   2.392   3.148
   11SAPS   C35 1421   3.367   2.449   3.310
   11SAPS   H5X 1422   3.412   2.352   3.340
   11SAPS   H5Y 1423   3.270   2.424   3.262
   11SAPS   C36 1424   3.351   2.548   3.423
   11SAPS   H6X 1425   3.331   2.647   3.378
   11SAPS   H6Y 1426   3.445   2.568   3.478
   11SAPS   C37 1427   3.238   2.492   3.515
   11SAPS   H7X 1428   3.257   2.383   3.527
   11SAPS   H7Y 1429   3.134   2.506   3.479
   11SAPS   C38 1430   3.263   2.526   3.665
   11SAPS   H8X 1431   3.370   2.505   3.686
   11SAPS   H8Y 1432   3.197   2.461   3.727
   11SAPS   C39 1433   3.241   2.678   3.691
   11SAPS   H9X 1434   3.158   2.724   3.634
   11SAPS   H9Y 1435   3.333   2.733   3.663
   11SAPS  C310 1436   3.220   2.704   3.842
   11SAPS  H10X 1437   3.242   2.809   3.872
   11SAPS  H10Y 1438   3.297   2.648   3.900
   11SAPS  C311 1439   3.076   2.687   3.895
   11SAPS  H11X 1440   3.049   2.582   3.869
   11SAPS  H11Y 1441   3.008   2.758   3.841
   11SAPS  C312 1442   3.054   2.712   4.037
   11SAPS  H12X 1443   3.112   2.796   4.081
   11SAPS  H12Y 1444   3.081   2.621   4.094
   11SAPS  C313 1445   2.905   2.740   4.079
   11SAPS  H13X 1446   2.864   2.824   4.020
   11SAPS  H13Y 1447   2.896   2.767   4.187
   11SAPS  C314 1448   2.819   2.615   4.078
   11SAPS  H14X 1449   2.874   2.528   4.119
   11SAPS  H14Y 1450   2.789   2.599   3.972
   11SAPS  C315 1451   2.692   2.628   4.160
   11SAPS  H15X 1452   2.629   2.708   4.115
   11SAPS  H15Y 1453   2.719   2.665   4.261
   11SAPS  C316 1454   2.613   2.495   4.169
   11SAPS  H16X 1455   2.675   2.428   4.233
   11SAPS  H16Y 1456   2.578   2.449   4.074
   11SAPS  C317 1457   2.481   2.532   4.243
   11SAPS  H17X 1458   2.426   2.437   4.262
   11SAPS  H17Y 1459   2.424   2.602   4.177
   11SAPS  C318 1460   2.500   2.604   4.378
   11SAPS  H18X 1461   2.413   2.596   4.446
   11SAPS  H18Y 1462   2.522   2.711   4.359
   11SAPS  H18Z 1463   2.589   2.563   4.430
   12SAPS     N 1464   2.321   2.525   2.073
   12SAPS   HN1 1465   2.299   2.459   2.150
   12SAPS   HN2 1466   2.383   2.599   2.111
   12SAPS   HN3 1467   2.237   2.572   2.033
   12SAPS   C12 1468   2.400   2.464   1.962
   12SAPS  H12A 1469   2.338   2.387   1.919
   12SAPS   C13 1470   2.425   2.538   1.836
   12SAPS  O13A 1471   2.389   2.654   1.825
   12SAPS  O13B 1472   2.485   2.480   1.743
   12SAPS   C11 1473   2.529   2.391   1.999
   12SAPS  H11A 1474   2.583   2.466   2.061
   12SAPS  H11B 1475   2.590   2.368   1.909
   12SAPS     P 1476   2.605   2.153   2.084
   12SAPS   O13 1477   2.629   2.105   1.948
   12SAPS   O14 1478   2.724   2.183   2.169
   12SAPS   O12 1479   2.498   2.271   2.078
   12SAPS   O11 1480   2.523   2.039   2.158
   12SAPS    C1 1481   2.397   2.053   2.206
   12SAPS    HA 1482   2.331   2.102   2.131
   12SAPS    HB 1483   2.339   1.960   2.226
   12SAPS    C2 1484   2.392   2.131   2.336
   12SAPS    HS 1485   2.459   2.219   2.325
   12SAPS   O21 1486   2.446   2.054   2.447
   12SAPS   C21 1487   2.482   2.121   2.557
   12SAPS   O22 1488   2.512   2.243   2.556
   12SAPS   C22 1489   2.495   2.031   2.674
   12SAPS   H2R 1490   2.493   1.925   2.639
   12SAPS   H2S 1491   2.586   2.056   2.732
   12SAPS    C3 1492   2.249   2.182   2.370
   12SAPS    HX 1493   2.194   2.089   2.392
   12SAPS    HY 1494   2.202   2.222   2.277
   12SAPS   O31 1495   2.227   2.271   2.482
   12SAPS   C31 1496   2.267   2.398   2.452
   12SAPS   O32 1497   2.306   2.435   2.343
   12SAPS   C32 1498   2.259   2.480   2.582
   12SAPS   H2X 1499   2.206   2.431   2.667
   12SAPS   H2Y 1500   2.204   2.576   2.574
   12SAPS   C23 1501   2.377   2.068   2.764
   12SAPS   H3R 1502   2.279   2.047   2.716
   12SAPS   H3S 1503   2.369   2.176   2.792
   12SAPS   C24 1504   2.390   1.995   2.903
   12SAPS   H4R 1505   2.411   1.888   2.885
   12SAPS   H4S 1506   2.292   2.005   2.954
   12SAPS   C25 1507   2.501   2.053   2.989
   12SAPS   H5R 1508   2.604   2.042   2.951
   12SAPS   C26 1509   2.494   2.090   3.117
   12SAPS   H6R 1510   2.589   2.127   3.159
   12SAPS   C27 1511   2.376   2.100   3.215
   12SAPS   H7R 1512   2.276   2.078   3.173
   12SAPS   H7S 1513   2.370   2.200   3.263
   12SAPS   C28 1514   2.406   1.993   3.314
   12SAPS   H8R 1515   2.438   1.894   3.279
   12SAPS   C29 1516   2.385   2.011   3.448
   12SAPS   H9R 1517   2.418   1.918   3.497
   12SAPS  C210 1518   2.339   2.129   3.530
   12SAPS  H10R 1519   2.228   2.141   3.528
   12SAPS  H10S 1520   2.379   2.219   3.478
   12SAPS  C211 1521   2.396   2.135   3.672
   12SAPS  H11R 1522   2.493   2.085   3.683
   12SAPS  C212 1523   2.339   2.186   3.781
   12SAPS  H12R 1524   2.382   2.172   3.881
   12SAPS  C213 1525   2.212   2.263   3.794
   12SAPS  H13R 1526   2.131   2.187   3.795
   12SAPS  H13S 1527   2.202   2.323   3.702
   12SAPS  C214 1528   2.177   2.357   3.899
   12SAPS  H14R 1529   2.145   2.455   3.862
   12SAPS  C215 1530   2.195   2.342   4.030
   12SAPS  H15R 1531   2.173   2.430   4.091
   12SAPS  C216 1532   2.230   2.220   4.104
   12SAPS  H16R 1533   2.326   2.231   4.158
   12SAPS  H16S 1534   2.249   2.135   4.035
   12SAPS  C217 1535   2.123   2.170   4.207
   12SAPS  H17R 1536   2.087   2.259   4.263
   12SAPS  H17S 1537   2.185   2.111   4.278
   12SAPS  C218 1538   2.011   2.098   4.138
   12SAPS  H18R 1539   2.052   2.029   4.061
   12SAPS  H18S 1540   1.950   2.176   4.089
   12SAPS  C219 1541   1.917   2.019   4.238
   12SAPS  H19R 1542   1.887   2.097   4.310
   12SAPS  H19S 1543   1.970   1.934   4.287
   12SAPS  C220 1544   1.792   1.972   4.174
   12SAPS  H20R 1545   1.717   2.045   4.138
   12SAPS  H20S 1546   1.739   1.907   4.247
   12SAPS  H20T 1547   1.826   1.907   4.091
   12SAPS   C33 1548   2.399   2.498   2.648
   12SAPS   H3X 1549   2.470   2.520   2.565
   12SAPS   H3Y 1550   2.423   2.405   2.704
   12SAPS   C34 1551   2.411   2.611   2.747
   12SAPS   H4X 1552   2.394   2.708   2.697
   12SAPS   H4Y 1553   2.517   2.604   2.779
   12SAPS   C35 1554   2.308   2.604   2.862
   12SAPS   H5X 1555   2.207   2.594   2.818
   12SAPS   H5Y 1556   2.315   2.694   2.927
   12SAPS   C36 1557   2.331   2.482   2.951
   12SAPS   H6X 1558   2.427   2.495   3.006
   12SAPS   H6Y 1559   2.334   2.383   2.902
   12SAPS   C37 1560   2.225   2.469   3.066
   12SAPS   H7X 1561   2.220   2.366   3.106
   12SAPS   H7Y 1562   2.120   2.494   3.040
   12SAPS   C38 1563   2.265   2.550   3.189
   12SAPS   H8X 1564   2.292   2.655   3.160
   12SAPS   H8Y 1565   2.352   2.500   3.237
   12SAPS   C39 1566   2.152   2.547   3.290
   12SAPS   H9X 1567   2.128   2.439   3.300
   12SAPS   H9Y 1568   2.063   2.594   3.244
   12SAPS  C310 1569   2.187   2.602   3.428
   12SAPS  H10X 1570   2.250   2.693   3.418
   12SAPS  H10Y 1571   2.246   2.521   3.476
   12SAPS  C311 1572   2.071   2.627   3.526
   12SAPS  H11X 1573   2.023   2.527   3.532
   12SAPS  H11Y 1574   1.995   2.700   3.492
   12SAPS  C312 1575   2.101   2.667   3.667
   12SAPS  H12X 1576   2.153   2.765   3.670
   12SAPS  H12Y 1577   2.174   2.595   3.710
   12SAPS  C313 1578   1.979   2.685   3.761
   12SAPS  H13X 1579   1.943   2.587   3.800
   12SAPS  H13Y 1580   1.898   2.748   3.717
   12SAPS  C314 1581   2.032   2.756   3.899
   12SAPS  H14X 1582   2.060   2.860   3.871
   12SAPS  H14Y 1583   2.121   2.704   3.940
   12SAPS  C315 1584   1.916   2.772   4.003
   12SAPS  H15X 1585   1.870   2.673   4.024
   12SAPS  H15Y 1586   1.845   2.834   3.944
   12SAPS  C316 1587   1.969   2.836   4.136
   12SAPS  H16X 1588   1.891   2.864   4.210
   12SAPS  H16Y 1589   2.024   2.926   4.100
   12SAPS  C317 1590   2.072   2.758   4.222
   12SAPS  H17X 1591   2.168   2.756   4.166
   12SAPS  H17Y 1592   2.039   2.658   4.257
   12SAPS  C318 1593   2.117   2.839   4.348
   12SAPS  H18X 1594   2.213   2.793   4.380
   12SAPS  H18Y 1595   2.040   2.843   4.427
   12SAPS  H18Z 1596   2.126   2.946   4.319
   13SAPS     N 1597   4.918   1.126   2.105
   13SAPS   HN1 1598   4.964   1.123   2.198
   13SAPS   HN2 1599   4.814   1.122   2.115
   13SAPS   HN3 1600   4.947   1.042   2.051
   13SAPS   C12 1601   4.961   1.253   2.043
   13SAPS  H12A 1602   5.068   1.262   2.043
   13SAPS   C13 1603   4.917   1.278   1.896
   13SAPS  O13A 1604   4.875   1.179   1.834
   13SAPS  O13B 1605   4.955   1.381   1.830
   13SAPS   C11 1606   4.891   1.370   2.112
   13SAPS  H11A 1607   4.917   1.463   2.056
   13SAPS  H11B 1608   4.929   1.382   2.216
   13SAPS     P 1609   4.663   1.437   2.231
   13SAPS   O13 1610   4.700   1.582   2.226
   13SAPS   O14 1611   4.523   1.404   2.212
   13SAPS   O12 1612   4.750   1.354   2.126
   13SAPS   O11 1613   4.704   1.380   2.375
   13SAPS    C1 1614   4.762   1.253   2.398
   13SAPS    HA 1615   4.686   1.175   2.377
   13SAPS    HB 1616   4.850   1.243   2.331
   13SAPS    C2 1617   4.818   1.248   2.545
   13SAPS    HS 1618   4.896   1.170   2.533
   13SAPS   O21 1619   4.709   1.218   2.637
   13SAPS   C21 1620   4.708   1.084   2.674
   13SAPS   O22 1621   4.792   1.007   2.634
   13SAPS   C22 1622   4.592   1.050   2.772
   13SAPS   H2R 1623   4.561   1.138   2.833
   13SAPS   H2S 1624   4.509   1.008   2.712
   13SAPS    C3 1625   4.902   1.370   2.591
   13SAPS    HX 1626   4.836   1.458   2.576
   13SAPS    HY 1627   4.991   1.382   2.527
   13SAPS   O31 1628   4.944   1.334   2.719
   13SAPS   C31 1629   4.882   1.385   2.824
   13SAPS   O32 1630   4.781   1.458   2.824
   13SAPS   C32 1631   4.956   1.331   2.950
   13SAPS   H2X 1632   5.048   1.391   2.968
   13SAPS   H2Y 1633   4.984   1.225   2.935
   13SAPS   C23 1634   4.613   0.935   2.874
   13SAPS   H3R 1635   4.673   0.856   2.824
   13SAPS   H3S 1636   4.516   0.893   2.907
   13SAPS   C24 1637   4.715   0.958   2.981
   13SAPS   H4R 1638   4.809   1.000   2.937
   13SAPS   H4S 1639   4.744   0.860   3.023
   13SAPS   C25 1640   4.673   1.052   3.094
   13SAPS   H5R 1641   4.606   1.135   3.067
   13SAPS   C26 1642   4.694   1.033   3.225
   13SAPS   H6R 1643   4.649   1.103   3.297
   13SAPS   C27 1644   4.786   0.932   3.289
   13SAPS   H7R 1645   4.865   0.983   3.348
   13SAPS   H7S 1646   4.837   0.861   3.220
   13SAPS   C28 1647   4.726   0.837   3.383
   13SAPS   H8R 1648   4.659   0.770   3.328
   13SAPS   C29 1649   4.753   0.816   3.515
   13SAPS   H9R 1650   4.704   0.732   3.566
   13SAPS  C210 1651   4.842   0.895   3.612
   13SAPS  H10R 1652   4.880   0.991   3.570
   13SAPS  H10S 1653   4.930   0.833   3.638
   13SAPS  C211 1654   4.778   0.935   3.741
   13SAPS  H11R 1655   4.696   1.006   3.723
   13SAPS  C212 1656   4.808   0.917   3.868
   13SAPS  H12R 1657   4.736   0.947   3.946
   13SAPS  C213 1658   4.918   0.832   3.921
   13SAPS  H13R 1659   4.981   0.811   3.832
   13SAPS  H13S 1660   4.873   0.732   3.942
   13SAPS  C214 1661   5.006   0.876   4.042
   13SAPS  H14R 1662   5.116   0.881   4.031
   13SAPS  C215 1663   4.960   0.897   4.166
   13SAPS  H15R 1664   5.036   0.927   4.239
   13SAPS  C216 1665   4.813   0.896   4.210
   13SAPS  H16R 1666   4.763   0.819   4.147
   13SAPS  H16S 1667   4.768   0.994   4.183
   13SAPS  C217 1668   4.787   0.849   4.357
   13SAPS  H17R 1669   4.841   0.754   4.377
   13SAPS  H17S 1670   4.678   0.840   4.373
   13SAPS  C218 1671   4.845   0.957   4.459
   13SAPS  H18R 1672   4.800   1.055   4.433
   13SAPS  H18S 1673   4.956   0.952   4.452
   13SAPS  C219 1674   4.779   0.937   4.597
   13SAPS  H19R 1675   4.807   0.832   4.622
   13SAPS  H19S 1676   4.670   0.957   4.593
   13SAPS  C220 1677   4.858   1.027   4.696
   13SAPS  H20R 1678   4.870   1.129   4.655
   13SAPS  H20S 1679   4.955   0.983   4.727
   13SAPS  H20T 1680   4.797   1.031   4.789
   13SAPS   C33 1681   4.880   1.346   3.080
   13SAPS   H3X 1682   4.790   1.282   3.071
   13SAPS   H3Y 1683   4.851   1.452   3.100
   13SAPS   C34 1684   4.963   1.299   3.202
   13SAPS   H4X 1685   5.052   1.365   3.214
   13SAPS   H4Y 1686   5.003   1.198   3.181
   13SAPS   C35 1687   4.890   1.301   3.338
   13SAPS   H5X 1688   4.947   1.245   3.415
   13SAPS   H5Y 1689   4.786   1.266   3.321
   13SAPS   C36 1690   4.867   1.438   3.398
   13SAPS   H6X 1691   4.793   1.482   3.327
   13SAPS   H6Y 1692   4.951   1.510   3.408
   13SAPS   C37 1693   4.826   1.429   3.542
   13SAPS   H7X 1694   4.912   1.416   3.612
   13SAPS   H7Y 1695   4.761   1.340   3.557
   13SAPS   C38 1696   4.743   1.551   3.586
   13SAPS   H8X 1697   4.797   1.641   3.549
   13SAPS   H8Y 1698   4.756   1.561   3.696
   13SAPS   C39 1699   4.604   1.555   3.538
   13SAPS   H9X 1700   4.536   1.473   3.571
   13SAPS   H9Y 1701   4.602   1.547   3.427
   13SAPS  C310 1702   4.544   1.698   3.558
   13SAPS  H10X 1703   4.446   1.706   3.506
   13SAPS  H10Y 1704   4.608   1.780   3.518
   13SAPS  C311 1705   4.528   1.742   3.702
   13SAPS  H11X 1706   4.486   1.845   3.708
   13SAPS  H11Y 1707   4.625   1.757   3.755
   13SAPS  C312 1708   4.451   1.652   3.803
   13SAPS  H12X 1709   4.511   1.563   3.828
   13SAPS  H12Y 1710   4.352   1.621   3.761
   13SAPS  C313 1711   4.419   1.723   3.935
   13SAPS  H13X 1712   4.358   1.816   3.934
   13SAPS  H13Y 1713   4.517   1.738   3.987
   13SAPS  C314 1714   4.358   1.638   4.043
   13SAPS  H14X 1715   4.413   1.545   4.068
   13SAPS  H14Y 1716   4.255   1.615   4.007
   13SAPS  C315 1717   4.346   1.716   4.172
   13SAPS  H15X 1718   4.260   1.786   4.166
   13SAPS  H15Y 1719   4.436   1.779   4.192
   13SAPS  C316 1720   4.330   1.622   4.292
   13SAPS  H16X 1721   4.404   1.540   4.287
   13SAPS  H16Y 1722   4.228   1.579   4.289
   13SAPS  C317 1723   4.359   1.705   4.418
   13SAPS  H17X 1724   4.270   1.771   4.431
   13SAPS  H17Y 1725   4.451   1.768   4.419
   13SAPS  C318 1726   4.371   1.608   4.538
   13SAPS  H18X 1727   4.465   1.617   4.596
   13SAPS  H18Y 1728   4.356   1.503   4.507
   13SAPS  H18Z 1729   4.284   1.625   4.605
   14SAPS     N 1730   4.487   3.298   2.084
   14SAPS   HN1 1731   4.548   3.343   2.155
   14SAPS   HN2 1732   4.389   3.332   2.091
   14SAPS   HN3 1733   4.473   3.196   2.095
   14SAPS   C12 1734   4.535   3.334   1.954
   14SAPS  H12A 1735   4.631   3.288   1.936
   14SAPS   C13 1736   4.442   3.290   1.830
   14SAPS  O13A 1737   4.332   3.235   1.839
   14SAPS  O13B 1738   4.495   3.303   1.715
   14SAPS   C11 1739   4.567   3.480   1.939
   14SAPS  H11A 1740   4.478   3.533   1.979
   14SAPS  H11B 1741   4.566   3.505   1.831
   14SAPS     P 1742   4.742   3.665   1.998
   14SAPS   O13 1743   4.841   3.661   1.894
   14SAPS   O14 1744   4.637   3.770   1.993
   14SAPS   O12 1745   4.681   3.523   2.006
   14SAPS   O11 1746   4.829   3.679   2.126
   14SAPS    C1 1747   4.787   3.631   2.249
   14SAPS    HA 1748   4.795   3.713   2.323
   14SAPS    HB 1749   4.680   3.604   2.254
   14SAPS    C2 1750   4.869   3.499   2.294
   14SAPS    HS 1751   4.862   3.421   2.215
   14SAPS   O21 1752   4.813   3.456   2.418
   14SAPS   C21 1753   4.690   3.402   2.419
   14SAPS   O22 1754   4.634   3.365   2.316
   14SAPS   C22 1755   4.630   3.394   2.565
   14SAPS   H2R 1756   4.523   3.365   2.553
   14SAPS   H2S 1757   4.687   3.326   2.631
   14SAPS    C3 1758   5.019   3.524   2.305
   14SAPS    HX 1759   5.052   3.583   2.217
   14SAPS    HY 1760   5.074   3.427   2.312
   14SAPS   O31 1761   5.046   3.592   2.432
   14SAPS   C31 1762   5.169   3.639   2.442
   14SAPS   O32 1763   5.256   3.642   2.361
   14SAPS   C32 1764   5.193   3.701   2.581
   14SAPS   H2X 1765   5.099   3.689   2.638
   14SAPS   H2Y 1766   5.175   3.810   2.566
   14SAPS   C23 1767   4.620   3.537   2.627
   14SAPS   H3R 1768   4.532   3.528   2.695
   14SAPS   H3S 1769   4.599   3.620   2.556
   14SAPS   C24 1770   4.741   3.576   2.709
   14SAPS   H4R 1771   4.830   3.579   2.644
   14SAPS   H4S 1772   4.753   3.505   2.793
   14SAPS   C25 1773   4.741   3.708   2.779
   14SAPS   H5R 1774   4.794   3.789   2.726
   14SAPS   C26 1775   4.686   3.741   2.895
   14SAPS   H6R 1776   4.691   3.848   2.922
   14SAPS   C27 1777   4.612   3.653   2.992
   14SAPS   H7R 1778   4.545   3.577   2.947
   14SAPS   H7S 1779   4.533   3.712   3.043
   14SAPS   C28 1780   4.722   3.584   3.075
   14SAPS   H8R 1781   4.771   3.492   3.039
   14SAPS   C29 1782   4.762   3.627   3.198
   14SAPS   H9R 1783   4.846   3.567   3.238
   14SAPS  C210 1784   4.712   3.744   3.283
   14SAPS  H10R 1785   4.619   3.786   3.238
   14SAPS  H10S 1786   4.777   3.831   3.258
   14SAPS  C211 1787   4.698   3.715   3.434
   14SAPS  H11R 1788   4.777   3.756   3.499
   14SAPS  C212 1789   4.620   3.626   3.497
   14SAPS  H12R 1790   4.629   3.609   3.606
   14SAPS  C213 1791   4.521   3.528   3.439
   14SAPS  H13R 1792   4.508   3.541   3.330
   14SAPS  H13S 1793   4.423   3.547   3.487
   14SAPS  C214 1794   4.566   3.386   3.457
   14SAPS  H14R 1795   4.597   3.326   3.370
   14SAPS  C215 1796   4.557   3.323   3.580
   14SAPS  H15R 1797   4.607   3.227   3.595
   14SAPS  C216 1798   4.511   3.373   3.714
   14SAPS  H16R 1799   4.427   3.313   3.757
   14SAPS  H16S 1800   4.464   3.473   3.701
   14SAPS  C217 1801   4.630   3.378   3.808
   14SAPS  H17R 1802   4.691   3.463   3.771
   14SAPS  H17S 1803   4.696   3.292   3.786
   14SAPS  C218 1804   4.589   3.388   3.948
   14SAPS  H18R 1805   4.526   3.298   3.967
   14SAPS  H18S 1806   4.528   3.481   3.955
   14SAPS  C219 1807   4.708   3.387   4.050
   14SAPS  H19R 1808   4.781   3.312   4.013
   14SAPS  H19S 1809   4.667   3.355   4.148
   14SAPS  C220 1810   4.771   3.524   4.043
   14SAPS  H20R 1811   4.698   3.602   4.073
   14SAPS  H20S 1812   4.805   3.545   3.939
   14SAPS  H20T 1813   4.859   3.516   4.109
   14SAPS   C33 1814   5.331   3.667   2.652
   14SAPS   H3X 1815   5.392   3.759   2.641
   14SAPS   H3Y 1816   5.381   3.585   2.596
   14SAPS   C34 1817   5.311   3.618   2.797
   14SAPS   H4X 1818   5.412   3.605   2.842
   14SAPS   H4Y 1819   5.269   3.515   2.795
   14SAPS   C35 1820   5.231   3.716   2.879
   14SAPS   H5X 1821   5.127   3.714   2.841
   14SAPS   H5Y 1822   5.284   3.814   2.875
   14SAPS   C36 1823   5.219   3.678   3.029
   14SAPS   H6X 1824   5.317   3.668   3.080
   14SAPS   H6Y 1825   5.179   3.574   3.026
   14SAPS   C37 1826   5.119   3.769   3.099
   14SAPS   H7X 1827   5.030   3.793   3.037
   14SAPS   H7Y 1828   5.169   3.868   3.103
   14SAPS   C38 1829   5.097   3.733   3.252
   14SAPS   H8X 1830   5.092   3.622   3.256
   14SAPS   H8Y 1831   4.994   3.766   3.278
   14SAPS   C39 1832   5.209   3.780   3.341
   14SAPS   H9X 1833   5.208   3.890   3.325
   14SAPS   H9Y 1834   5.312   3.755   3.307
   14SAPS  C310 1835   5.203   3.739   3.496
   14SAPS  H10X 1836   5.152   3.641   3.501
   14SAPS  H10Y 1837   5.124   3.801   3.545
   14SAPS  C311 1838   5.344   3.737   3.556
   14SAPS  H11X 1839   5.383   3.838   3.582
   14SAPS  H11Y 1840   5.417   3.698   3.482
   14SAPS  C312 1841   5.334   3.658   3.692
   14SAPS  H12X 1842   5.433   3.674   3.740
   14SAPS  H12Y 1843   5.314   3.553   3.662
   14SAPS  C313 1844   5.239   3.692   3.798
   14SAPS  H13X 1845   5.141   3.717   3.752
   14SAPS  H13Y 1846   5.284   3.776   3.855
   14SAPS  C314 1847   5.215   3.578   3.894
   14SAPS  H14X 1848   5.299   3.507   3.910
   14SAPS  H14Y 1849   5.143   3.507   3.848
   14SAPS  C315 1850   5.146   3.609   4.032
   14SAPS  H15X 1851   5.122   3.515   4.087
   14SAPS  H15Y 1852   5.045   3.643   4.001
   14SAPS  C316 1853   5.215   3.708   4.117
   14SAPS  H16X 1854   5.210   3.808   4.068
   14SAPS  H16Y 1855   5.325   3.692   4.115
   14SAPS  C317 1856   5.167   3.726   4.267
   14SAPS  H17X 1857   5.057   3.741   4.268
   14SAPS  H17Y 1858   5.230   3.812   4.297
   14SAPS  C318 1859   5.207   3.611   4.355
   14SAPS  H18X 1860   5.170   3.514   4.316
   14SAPS  H18Y 1861   5.165   3.622   4.458
   14SAPS  H18Z 1862   5.317   3.602   4.362
   15SAPS     N 1863   4.186   3.823   1.936
   15SAPS   HN1 1864   4.234   3.805   2.026
   15SAPS   HN2 1865   4.231   3.780   1.853
   15SAPS   HN3 1866   4.184   3.925   1.915
   15SAPS   C12 1867   4.047   3.765   1.939
   15SAPS  H12A 1868   3.986   3.813   2.014
   15SAPS   C13 1869   3.971   3.788   1.810
   15SAPS  O13A 1870   4.027   3.857   1.715
   15SAPS  O13B 1871   3.852   3.758   1.805
   15SAPS   C11 1872   4.035   3.615   1.976
   15SAPS  H11A 1873   4.052   3.553   1.885
   15SAPS  H11B 1874   3.930   3.591   2.003
   15SAPS     P 1875   4.123   3.431   2.148
   15SAPS   O13 1876   4.033   3.341   2.076
   15SAPS   O14 1877   4.257   3.379   2.165
   15SAPS   O12 1878   4.121   3.580   2.085
   15SAPS   O11 1879   4.065   3.452   2.291
   15SAPS    C1 1880   3.969   3.555   2.318
   15SAPS    HA 1881   3.939   3.624   2.236
   15SAPS    HB 1882   3.873   3.518   2.360
   15SAPS    C2 1883   4.030   3.648   2.426
   15SAPS    HS 1884   4.126   3.677   2.378
   15SAPS   O21 1885   4.047   3.590   2.557
   15SAPS   C21 1886   4.166   3.573   2.592
   15SAPS   O22 1887   4.269   3.581   2.526
   15SAPS   C22 1888   4.148   3.533   2.735
   15SAPS   H2R 1889   4.040   3.534   2.760
   15SAPS   H2S 1890   4.185   3.428   2.739
   15SAPS    C3 1891   3.953   3.784   2.435
   15SAPS    HX 1892   3.850   3.760   2.470
   15SAPS    HY 1893   3.940   3.828   2.334
   15SAPS   O31 1894   4.023   3.872   2.524
   15SAPS   C31 1895   3.949   3.961   2.586
   15SAPS   O32 1896   3.827   3.971   2.569
   15SAPS   C32 1897   4.032   4.041   2.683
   15SAPS   H2X 1898   3.993   4.144   2.672
   15SAPS   H2Y 1899   4.138   4.038   2.649
   15SAPS   C23 1900   4.217   3.623   2.836
   15SAPS   H3R 1901   4.173   3.725   2.827
   15SAPS   H3S 1902   4.327   3.637   2.827
   15SAPS   C24 1903   4.197   3.566   2.974
   15SAPS   H4R 1904   4.288   3.584   3.033
   15SAPS   H4S 1905   4.192   3.456   2.959
   15SAPS   C25 1906   4.074   3.638   3.035
   15SAPS   H5R 1907   4.002   3.682   2.964
   15SAPS   C26 1908   4.044   3.643   3.165
   15SAPS   H6R 1909   3.964   3.709   3.203
   15SAPS   C27 1910   4.125   3.578   3.275
   15SAPS   H7R 1911   4.180   3.486   3.247
   15SAPS   H7S 1912   4.043   3.544   3.341
   15SAPS   C28 1913   4.224   3.681   3.332
   15SAPS   H8R 1914   4.295   3.712   3.254
   15SAPS   C29 1915   4.234   3.731   3.459
   15SAPS   H9R 1916   4.332   3.779   3.474
   15SAPS  C210 1917   4.141   3.704   3.571
   15SAPS  H10R 1918   4.038   3.732   3.539
   15SAPS  H10S 1919   4.163   3.770   3.657
   15SAPS  C211 1920   4.127   3.562   3.619
   15SAPS  H11R 1921   4.115   3.492   3.534
   15SAPS  C212 1922   4.115   3.525   3.747
   15SAPS  H12R 1923   4.120   3.417   3.766
   15SAPS  C213 1924   4.113   3.614   3.867
   15SAPS  H13R 1925   4.061   3.554   3.945
   15SAPS  H13S 1926   4.051   3.705   3.853
   15SAPS  C214 1927   4.248   3.659   3.905
   15SAPS  H14R 1928   4.329   3.677   3.833
   15SAPS  C215 1929   4.292   3.673   4.029
   15SAPS  H15R 1930   4.393   3.715   4.043
   15SAPS  C216 1931   4.218   3.653   4.159
   15SAPS  H16R 1932   4.235   3.546   4.186
   15SAPS  H16S 1933   4.108   3.670   4.156
   15SAPS  C217 1934   4.267   3.748   4.268
   15SAPS  H17R 1935   4.374   3.733   4.291
   15SAPS  H17S 1936   4.228   3.715   4.367
   15SAPS  C218 1937   4.232   3.889   4.233
   15SAPS  H18R 1938   4.281   3.926   4.141
   15SAPS  H18S 1939   4.280   3.955   4.309
   15SAPS  C219 1940   4.082   3.921   4.211
   15SAPS  H19R 1941   4.027   3.894   4.304
   15SAPS  H19S 1942   4.044   3.859   4.127
   15SAPS  C220 1943   4.053   4.070   4.176
   15SAPS  H20R 1944   4.107   4.130   4.252
   15SAPS  H20S 1945   3.945   4.095   4.179
   15SAPS  H20T 1946   4.073   4.095   4.070
   15SAPS   C33 1947   4.025   3.995   2.828
   15SAPS   H3X 1948   4.114   4.012   2.893
   15SAPS   H3Y 1949   4.026   3.884   2.827
   15SAPS   C34 1950   3.909   4.054   2.908
   15SAPS   H4X 1951   3.810   4.018   2.874
   15SAPS   H4Y 1952   3.911   4.165   2.904
   15SAPS   C35 1953   3.912   4.014   3.052
   15SAPS   H5X 1954   3.998   4.055   3.109
   15SAPS   H5Y 1955   3.922   3.904   3.064
   15SAPS   C36 1956   3.779   4.069   3.129
   15SAPS   H6X 1957   3.694   4.003   3.102
   15SAPS   H6Y 1958   3.762   4.175   3.101
   15SAPS   C37 1959   3.788   4.092   3.275
   15SAPS   H7X 1960   3.712   4.166   3.307
   15SAPS   H7Y 1961   3.891   4.131   3.293
   15SAPS   C38 1962   3.764   3.958   3.355
   15SAPS   H8X 1963   3.850   3.889   3.344
   15SAPS   H8Y 1964   3.675   3.915   3.304
   15SAPS   C39 1965   3.737   3.977   3.502
   15SAPS   H9X 1966   3.744   3.882   3.559
   15SAPS   H9Y 1967   3.636   4.021   3.515
   15SAPS  C310 1968   3.831   4.075   3.570
   15SAPS  H10X 1969   3.806   4.182   3.551
   15SAPS  H10Y 1970   3.935   4.055   3.539
   15SAPS  C311 1971   3.840   4.056   3.730
   15SAPS  H11X 1972   3.925   4.116   3.770
   15SAPS  H11Y 1973   3.862   3.948   3.739
   15SAPS  C312 1974   3.706   4.079   3.801
   15SAPS  H12X 1975   3.626   4.039   3.736
   15SAPS  H12Y 1976   3.685   4.188   3.809
   15SAPS  C313 1977   3.710   4.010   3.943
   15SAPS  H13X 1978   3.649   4.078   4.007
   15SAPS  H13Y 1979   3.817   3.993   3.964
   15SAPS  C314 1980   3.644   3.875   3.951
   15SAPS  H14X 1981   3.716   3.801   3.909
   15SAPS  H14Y 1982   3.553   3.873   3.888
   15SAPS  C315 1983   3.596   3.841   4.098
   15SAPS  H15X 1984   3.559   3.936   4.142
   15SAPS  H15Y 1985   3.683   3.822   4.164
   15SAPS  C316 1986   3.499   3.724   4.107
   15SAPS  H16X 1987   3.404   3.755   4.058
   15SAPS  H16Y 1988   3.491   3.717   4.218
   15SAPS  C317 1989   3.557   3.592   4.048
   15SAPS  H17X 1990   3.658   3.583   4.093
   15SAPS  H17Y 1991   3.566   3.610   3.939
   15SAPS  C318 1992   3.471   3.472   4.080
   15SAPS  H18X 1993   3.513   3.369   4.067
   15SAPS  H18Y 1994   3.391   3.472   4.004
   15SAPS  H18Z 1995   3.420   3.479   4.179
   16SAPS     N 1996   5.540   3.797   2.141
   16SAPS   HN1 1997   5.503   3.894   2.134
   16SAPS   HN2 1998   5.466   3.730   2.112
   16SAPS   HN3 1999   5.575   3.786   2.238
   16SAPS   C12 2000   5.670   3.791   2.054
   16SAPS  H12A 2001   5.751   3.751   2.113
   16SAPS   C13 2002   5.662   3.696   1.931
   16SAPS  O13A 2003   5.557   3.632   1.917
   16SAPS  O13B 2004   5.766   3.678   1.863
   16SAPS   C11 2005   5.700   3.937   2.002
   16SAPS  H11A 2006   5.626   3.965   1.924
   16SAPS  H11B 2007   5.797   3.940   1.949
   16SAPS     P 2008   5.750   4.180   2.082
   16SAPS   O13 2009   5.866   4.218   2.165
   16SAPS   O14 2010   5.771   4.189   1.933
   16SAPS   O12 2011   5.706   4.028   2.113
   16SAPS   O11 2012   5.629   4.267   2.116
   16SAPS    C1 2013   5.592   4.261   2.260
   16SAPS    HA 2014   5.482   4.264   2.266
   16SAPS    HB 2015   5.636   4.170   2.309
   16SAPS    C2 2016   5.641   4.382   2.336
   16SAPS    HS 2017   5.747   4.367   2.367
   16SAPS   O21 2018   5.555   4.403   2.448
   16SAPS   C21 2019   5.586   4.319   2.554
   16SAPS   O22 2020   5.675   4.240   2.555
   16SAPS   C22 2021   5.480   4.342   2.661
   16SAPS   H2R 2022   5.497   4.450   2.680
   16SAPS   H2S 2023   5.383   4.324   2.610
   16SAPS    C3 2024   5.631   4.509   2.242
   16SAPS    HX 2025   5.524   4.520   2.215
   16SAPS    HY 2026   5.689   4.495   2.149
   16SAPS   O31 2027   5.671   4.623   2.319
   16SAPS   C31 2028   5.794   4.663   2.293
   16SAPS   O32 2029   5.871   4.605   2.225
   16SAPS   C32 2030   5.824   4.779   2.384
   16SAPS   H2X 2031   5.733   4.839   2.406
   16SAPS   H2Y 2032   5.873   4.857   2.321
   16SAPS   C23 2033   5.485   4.258   2.792
   16SAPS   H3R 2034   5.589   4.252   2.831
   16SAPS   H3S 2035   5.457   4.154   2.763
   16SAPS   C24 2036   5.394   4.316   2.907
   16SAPS   H4R 2037   5.411   4.250   2.995
   16SAPS   H4S 2038   5.288   4.307   2.875
   16SAPS   C25 2039   5.420   4.462   2.943
   16SAPS   H5R 2040   5.405   4.541   2.867
   16SAPS   C26 2041   5.457   4.502   3.064
   16SAPS   H6R 2042   5.453   4.610   3.084
   16SAPS   C27 2043   5.486   4.406   3.176
   16SAPS   H7R 2044   5.543   4.315   3.147
   16SAPS   H7S 2045   5.393   4.362   3.218
   16SAPS   C28 2046   5.571   4.466   3.279
   16SAPS   H8R 2047   5.651   4.526   3.233
   16SAPS   C29 2048   5.564   4.441   3.414
   16SAPS   H9R 2049   5.644   4.478   3.479
   16SAPS  C210 2050   5.474   4.350   3.488
   16SAPS  H10R 2051   5.372   4.357   3.445
   16SAPS  H10S 2052   5.463   4.382   3.594
   16SAPS  C211 2053   5.503   4.206   3.474
   16SAPS  H11R 2054   5.437   4.161   3.398
   16SAPS  C212 2055   5.598   4.129   3.536
   16SAPS  H12R 2056   5.599   4.020   3.525
   16SAPS  C213 2057   5.676   4.192   3.653
   16SAPS  H13R 2058   5.708   4.113   3.724
   16SAPS  H13S 2059   5.601   4.250   3.711
   16SAPS  C214 2060   5.798   4.265   3.604
   16SAPS  H14R 2061   5.808   4.264   3.494
   16SAPS  C215 2062   5.881   4.334   3.679
   16SAPS  H15R 2063   5.975   4.375   3.640
   16SAPS  C216 2064   5.861   4.345   3.834
   16SAPS  H16R 2065   5.958   4.362   3.885
   16SAPS  H16S 2066   5.795   4.268   3.880
   16SAPS  C217 2067   5.778   4.474   3.857
   16SAPS  H17R 2068   5.684   4.470   3.798
   16SAPS  H17S 2069   5.826   4.568   3.824
   16SAPS  C218 2070   5.727   4.495   4.000
   16SAPS  H18R 2071   5.814   4.464   4.062
   16SAPS  H18S 2072   5.640   4.430   4.019
   16SAPS  C219 2073   5.698   4.641   4.041
   16SAPS  H19R 2074   5.622   4.691   3.977
   16SAPS  H19S 2075   5.791   4.699   4.023
   16SAPS  C220 2076   5.648   4.659   4.182
   16SAPS  H20R 2077   5.606   4.760   4.201
   16SAPS  H20S 2078   5.720   4.631   4.261
   16SAPS  H20T 2079   5.570   4.584   4.205
   16SAPS   C33 2080   5.912   4.745   2.508
   16SAPS   H3X 2081   5.936   4.839   2.561
   16SAPS   H3Y 2082   6.008   4.695   2.484
   16SAPS   C34 2083   5.833   4.666   2.615
   16SAPS   H4X 2084   5.791   4.572   2.574
   16SAPS   H4Y 2085   5.743   4.728   2.633
   16SAPS   C35 2086   5.927   4.643   2.738
   16SAPS   H5X 2087   5.977   4.741   2.746
   16SAPS   H5Y 2088   6.003   4.568   2.706
   16SAPS   C36 2089   5.862   4.611   2.870
   16SAPS   H6X 2090   5.841   4.503   2.885
   16SAPS   H6Y 2091   5.765   4.666   2.865
   16SAPS   C37 2092   5.949   4.642   2.995
   16SAPS   H7X 2093   5.983   4.747   2.978
   16SAPS   H7Y 2094   6.039   4.578   3.000
   16SAPS   C38 2095   5.873   4.619   3.119
   16SAPS   H8X 2096   5.837   4.514   3.118
   16SAPS   H8Y 2097   5.785   4.687   3.113
   16SAPS   C39 2098   5.953   4.646   3.247
   16SAPS   H9X 2099   5.994   4.749   3.242
   16SAPS   H9Y 2100   6.037   4.573   3.248
   16SAPS  C310 2101   5.875   4.637   3.384
   16SAPS  H10X 2102   5.863   4.529   3.405
   16SAPS  H10Y 2103   5.777   4.680   3.356
   16SAPS  C311 2104   5.946   4.692   3.506
   16SAPS  H11X 2105   5.905   4.642   3.597
   16SAPS  H11Y 2106   5.916   4.793   3.540
   16SAPS  C312 2107   6.098   4.680   3.512
   16SAPS  H12X 2108   6.149   4.744   3.436
   16SAPS  H12Y 2109   6.120   4.572   3.494
   16SAPS  C313 2110   6.163   4.715   3.648
   16SAPS  H13X 2111   6.106   4.652   3.720
   16SAPS  H13Y 2112   6.142   4.822   3.664
   16SAPS  C314 2113   6.310   4.692   3.673
   16SAPS  H14X 2114   6.380   4.725   3.593
   16SAPS  H14Y 2115   6.326   4.582   3.673
   16SAPS  C315 2116   6.363   4.732   3.814
   16SAPS  H15X 2117   6.470   4.703   3.825
   16SAPS  H15Y 2118   6.298   4.680   3.888
   16SAPS  C316 2119   6.349   4.886   3.838
   16SAPS  H16X 2120   6.244   4.917   3.824
   16SAPS  H16Y 2121   6.403   4.945   3.760
   16SAPS  C317 2122   6.384   4.925   3.985
   16SAPS  H17X 2123   6.494   4.918   4.001
   16SAPS  H17Y 2124   6.335   4.845   4.044
   16SAPS  C318 2125   6.320   5.063   4.017
   16SAPS  H18X 2126   6.366   5.147   3.962
   16SAPS  H18Y 2127   6.330   5.091   4.124
   16SAPS  H18Z 2128   6.213   5.050   3.989
   17SAPS     N 2129   1.166   1.367   1.801
   17SAPS   HN1 2130   1.081   1.417   1.835
   17SAPS   HN2 2131   1.129   1.271   1.786
   17SAPS   HN3 2132   1.243   1.365   1.871
   17SAPS   C12 2133   1.214   1.417   1.669
   17SAPS  H12A 2134   1.303   1.360   1.645
   17SAPS   C13 2135   1.118   1.411   1.551
   17SAPS  O13A 2136   1.006   1.350   1.574
   17SAPS  O13B 2137   1.139   1.470   1.440
   17SAPS   C11 2138   1.272   1.564   1.695
   17SAPS  H11A 2139   1.180   1.622   1.721
   17SAPS  H11B 2140   1.323   1.600   1.603
   17SAPS     P 2141   1.505   1.536   1.818
   17SAPS   O13 2142   1.517   1.388   1.837
   17SAPS   O14 2143   1.565   1.588   1.695
   17SAPS   O12 2144   1.352   1.570   1.811
   17SAPS   O11 2145   1.545   1.610   1.950
   17SAPS    C1 2146   1.542   1.756   1.940
   17SAPS    HA 2147   1.649   1.784   1.941
   17SAPS    HB 2148   1.497   1.799   1.848
   17SAPS    C2 2149   1.471   1.827   2.059
   17SAPS    HS 2150   1.522   1.925   2.060
   17SAPS   O21 2151   1.490   1.756   2.187
   17SAPS   C21 2152   1.610   1.779   2.242
   17SAPS   O22 2153   1.690   1.862   2.196
   17SAPS   C22 2154   1.612   1.715   2.380
   17SAPS   H2R 2155   1.511   1.681   2.410
   17SAPS   H2S 2156   1.665   1.618   2.370
   17SAPS    C3 2157   1.323   1.844   2.037
   17SAPS    HX 2158   1.272   1.747   2.017
   17SAPS    HY 2159   1.313   1.909   1.948
   17SAPS   O31 2160   1.246   1.912   2.141
   17SAPS   C31 2161   1.260   2.044   2.141
   17SAPS   O32 2162   1.348   2.106   2.085
   17SAPS   C32 2163   1.159   2.111   2.234
   17SAPS   H2X 2164   1.057   2.089   2.197
   17SAPS   H2Y 2165   1.186   2.218   2.219
   17SAPS   C23 2166   1.693   1.796   2.485
   17SAPS   H3R 2167   1.789   1.821   2.435
   17SAPS   H3S 2168   1.714   1.735   2.576
   17SAPS   C24 2169   1.629   1.931   2.531
   17SAPS   H4R 2170   1.623   2.003   2.447
   17SAPS   H4S 2171   1.697   1.968   2.610
   17SAPS   C25 2172   1.495   1.901   2.592
   17SAPS   H5R 2173   1.419   1.872   2.518
   17SAPS   C26 2174   1.460   1.910   2.723
   17SAPS   H6R 2175   1.356   1.883   2.748
   17SAPS   C27 2176   1.554   1.936   2.838
   17SAPS   H7R 2177   1.661   1.928   2.809
   17SAPS   H7S 2178   1.553   1.859   2.917
   17SAPS   C28 2179   1.533   2.070   2.896
   17SAPS   H8R 2180   1.550   2.157   2.831
   17SAPS   C29 2181   1.509   2.097   3.024
   17SAPS   H9R 2182   1.486   2.200   3.056
   17SAPS  C210 2183   1.455   1.991   3.124
   17SAPS  H10R 2184   1.375   1.929   3.079
   17SAPS  H10S 2185   1.401   2.043   3.206
   17SAPS  C211 2186   1.562   1.907   3.187
   17SAPS  H11R 2187   1.655   1.965   3.192
   17SAPS  C212 2188   1.568   1.781   3.232
   17SAPS  H12R 2189   1.656   1.739   3.283
   17SAPS  C213 2190   1.456   1.688   3.228
   17SAPS  H13R 2191   1.391   1.709   3.140
   17SAPS  H13S 2192   1.390   1.703   3.315
   17SAPS  C214 2193   1.512   1.543   3.239
   17SAPS  H14R 2194   1.574   1.523   3.327
   17SAPS  C215 2195   1.503   1.446   3.146
   17SAPS  H15R 2196   1.554   1.350   3.163
   17SAPS  C216 2197   1.429   1.462   3.021
   17SAPS  H16R 2198   1.338   1.522   3.040
   17SAPS  H16S 2199   1.387   1.365   2.985
   17SAPS  C217 2200   1.510   1.527   2.911
   17SAPS  H17R 2201   1.596   1.462   2.886
   17SAPS  H17S 2202   1.561   1.619   2.948
   17SAPS  C218 2203   1.431   1.575   2.778
   17SAPS  H18R 2204   1.497   1.608   2.696
   17SAPS  H18S 2205   1.374   1.667   2.806
   17SAPS  C219 2206   1.325   1.477   2.719
   17SAPS  H19R 2207   1.253   1.534   2.656
   17SAPS  H19S 2208   1.257   1.450   2.803
   17SAPS  C220 2209   1.374   1.352   2.646
   17SAPS  H20R 2210   1.437   1.289   2.712
   17SAPS  H20S 2211   1.438   1.387   2.562
   17SAPS  H20T 2212   1.288   1.295   2.603
   17SAPS   C33 2213   1.190   2.084   2.387
   17SAPS   H3X 2214   1.287   2.130   2.417
   17SAPS   H3Y 2215   1.187   1.976   2.414
   17SAPS   C34 2216   1.093   2.156   2.478
   17SAPS   H4X 2217   0.993   2.107   2.471
   17SAPS   H4Y 2218   1.080   2.263   2.451
   17SAPS   C35 2219   1.142   2.154   2.626
   17SAPS   H5X 2220   1.210   2.241   2.637
   17SAPS   H5Y 2221   1.200   2.060   2.638
   17SAPS   C36 2222   1.028   2.169   2.732
   17SAPS   H6X 2223   0.965   2.080   2.712
   17SAPS   H6Y 2224   0.970   2.262   2.711
   17SAPS   C37 2225   1.093   2.190   2.873
   17SAPS   H7X 2226   1.157   2.280   2.871
   17SAPS   H7Y 2227   1.151   2.100   2.903
   17SAPS   C38 2228   0.994   2.220   2.992
   17SAPS   H8X 2229   0.922   2.135   2.991
   17SAPS   H8Y 2230   0.936   2.312   2.969
   17SAPS   C39 2231   1.050   2.243   3.131
   17SAPS   H9X 2232   0.970   2.282   3.196
   17SAPS   H9Y 2233   1.137   2.312   3.136
   17SAPS  C310 2234   1.083   2.115   3.206
   17SAPS  H10X 2235   1.178   2.083   3.159
   17SAPS  H10Y 2236   1.002   2.047   3.172
   17SAPS  C311 2237   1.111   2.128   3.355
   17SAPS  H11X 2238   1.042   2.202   3.401
   17SAPS  H11Y 2239   1.207   2.183   3.368
   17SAPS  C312 2240   1.113   2.002   3.434
   17SAPS  H12X 2241   1.185   1.933   3.386
   17SAPS  H12Y 2242   1.011   1.959   3.434
   17SAPS  C313 2243   1.165   2.025   3.575
   17SAPS  H13X 2244   1.168   1.925   3.623
   17SAPS  H13Y 2245   1.104   2.089   3.643
   17SAPS  C314 2246   1.303   2.093   3.585
   17SAPS  H14X 2247   1.299   2.199   3.550
   17SAPS  H14Y 2248   1.377   2.051   3.513
   17SAPS  C315 2249   1.372   2.079   3.728
   17SAPS  H15X 2250   1.481   2.082   3.707
   17SAPS  H15Y 2251   1.342   1.980   3.769
   17SAPS  C316 2252   1.340   2.195   3.825
   17SAPS  H16X 2253   1.363   2.291   3.774
   17SAPS  H16Y 2254   1.413   2.201   3.908
   17SAPS  C317 2255   1.196   2.191   3.880
   17SAPS  H17X 2256   1.151   2.094   3.907
   17SAPS  H17Y 2257   1.142   2.239   3.795
   17SAPS  C318 2258   1.198   2.276   4.003
   17SAPS  H18X 2259   1.102   2.294   4.056
   17SAPS  H18Y 2260   1.229   2.376   3.966
   17SAPS  H18Z 2261   1.277   2.251   4.077
   18SAPS     N 2262   4.480   2.280   2.214
   18SAPS   HN1 2263   4.523   2.245   2.126
   18SAPS   HN2 2264   4.446   2.377   2.200
   18SAPS   HN3 2265   4.558   2.287   2.283
   18SAPS   C12 2266   4.378   2.188   2.264
   18SAPS  H12A 2267   4.325   2.157   2.175
   18SAPS   C13 2268   4.416   2.056   2.327
   18SAPS  O13A 2269   4.541   2.025   2.313
   18SAPS  O13B 2270   4.331   1.967   2.356
   18SAPS   C11 2271   4.289   2.269   2.352
   18SAPS  H11A 2272   4.339   2.292   2.448
   18SAPS  H11B 2273   4.203   2.212   2.394
   18SAPS     P 2274   4.096   2.432   2.259
   18SAPS   O13 2275   4.095   2.458   2.115
   18SAPS   O14 2276   4.016   2.324   2.304
   18SAPS   O12 2277   4.247   2.395   2.297
   18SAPS   O11 2278   4.062   2.565   2.335
   18SAPS    C1 2279   4.144   2.630   2.428
   18SAPS    HA 2280   4.249   2.643   2.395
   18SAPS    HB 2281   4.105   2.732   2.447
   18SAPS    C2 2282   4.122   2.563   2.568
   18SAPS    HS 2283   4.164   2.460   2.569
   18SAPS   O21 2284   3.983   2.552   2.589
   18SAPS   C21 2285   3.949   2.443   2.670
   18SAPS   O22 2286   4.018   2.345   2.689
   18SAPS   C22 2287   3.810   2.464   2.706
   18SAPS   H2R 2288   3.773   2.561   2.667
   18SAPS   H2S 2289   3.747   2.380   2.672
   18SAPS    C3 2290   4.203   2.639   2.679
   18SAPS    HX 2291   4.197   2.749   2.665
   18SAPS    HY 2292   4.310   2.609   2.668
   18SAPS   O31 2293   4.178   2.598   2.808
   18SAPS   C31 2294   4.221   2.682   2.908
   18SAPS   O32 2295   4.255   2.798   2.896
   18SAPS   C32 2296   4.221   2.597   3.038
   18SAPS   H2X 2297   4.275   2.501   3.029
   18SAPS   H2Y 2298   4.112   2.577   3.049
   18SAPS   C23 2299   3.794   2.476   2.867
   18SAPS   H3R 2300   3.706   2.543   2.878
   18SAPS   H3S 2301   3.873   2.538   2.915
   18SAPS   C24 2302   3.749   2.353   2.946
   18SAPS   H4R 2303   3.670   2.291   2.898
   18SAPS   H4S 2304   3.688   2.387   3.032
   18SAPS   C25 2305   3.868   2.263   2.980
   18SAPS   H5R 2306   3.931   2.239   2.893
   18SAPS   C26 2307   3.910   2.220   3.100
   18SAPS   H6R 2308   4.003   2.162   3.105
   18SAPS   C27 2309   3.845   2.251   3.231
   18SAPS   H7R 2310   3.789   2.160   3.262
   18SAPS   H7S 2311   3.762   2.323   3.219
   18SAPS   C28 2312   3.944   2.312   3.328
   18SAPS   H8R 2313   4.010   2.391   3.289
   18SAPS   C29 2314   3.952   2.296   3.462
   18SAPS   H9R 2315   4.019   2.365   3.517
   18SAPS  C210 2316   3.871   2.198   3.545
   18SAPS  H10R 2317   3.933   2.176   3.635
   18SAPS  H10S 2318   3.857   2.103   3.489
   18SAPS  C211 2319   3.731   2.250   3.571
   18SAPS  H11R 2320   3.683   2.287   3.479
   18SAPS  C212 2321   3.664   2.269   3.685
   18SAPS  H12R 2322   3.568   2.322   3.682
   18SAPS  C213 2323   3.718   2.247   3.823
   18SAPS  H13R 2324   3.687   2.335   3.883
   18SAPS  H13S 2325   3.828   2.252   3.837
   18SAPS  C214 2326   3.663   2.124   3.886
   18SAPS  H14R 2327   3.586   2.076   3.824
   18SAPS  C215 2328   3.673   2.100   4.017
   18SAPS  H15R 2329   3.636   2.004   4.055
   18SAPS  C216 2330   3.746   2.181   4.121
   18SAPS  H16R 2331   3.796   2.268   4.072
   18SAPS  H16S 2332   3.828   2.128   4.174
   18SAPS  C217 2333   3.647   2.220   4.231
   18SAPS  H17R 2334   3.589   2.132   4.266
   18SAPS  H17S 2335   3.573   2.295   4.194
   18SAPS  C218 2336   3.722   2.279   4.353
   18SAPS  H18R 2337   3.647   2.316   4.426
   18SAPS  H18S 2338   3.769   2.374   4.321
   18SAPS  C219 2339   3.822   2.187   4.431
   18SAPS  H19R 2340   3.880   2.247   4.504
   18SAPS  H19S 2341   3.898   2.146   4.360
   18SAPS  C220 2342   3.754   2.079   4.514
   18SAPS  H20R 2343   3.671   2.038   4.453
   18SAPS  H20S 2344   3.721   2.123   4.610
   18SAPS  H20T 2345   3.820   1.991   4.531
   18SAPS   C33 2346   4.271   2.675   3.159
   18SAPS   H3X 2347   4.209   2.766   3.175
   18SAPS   H3Y 2348   4.371   2.724   3.146
   18SAPS   C34 2349   4.269   2.607   3.302
   18SAPS   H4X 2350   4.357   2.548   3.337
   18SAPS   H4Y 2351   4.178   2.542   3.304
   18SAPS   C35 2352   4.251   2.701   3.421
   18SAPS   H5X 2353   4.189   2.789   3.394
   18SAPS   H5Y 2354   4.349   2.753   3.430
   18SAPS   C36 2355   4.202   2.620   3.546
   18SAPS   H6X 2356   4.285   2.555   3.582
   18SAPS   H6Y 2357   4.114   2.556   3.522
   18SAPS   C37 2358   4.164   2.716   3.663
   18SAPS   H7X 2359   4.095   2.793   3.623
   18SAPS   H7Y 2360   4.259   2.765   3.694
   18SAPS   C38 2361   4.116   2.628   3.776
   18SAPS   H8X 2362   4.178   2.536   3.786
   18SAPS   H8Y 2363   4.016   2.588   3.749
   18SAPS   C39 2364   4.106   2.710   3.899
   18SAPS   H9X 2365   4.044   2.802   3.894
   18SAPS   H9Y 2366   4.212   2.732   3.927
   18SAPS  C310 2367   4.048   2.629   4.022
   18SAPS  H10X 2368   4.113   2.540   4.035
   18SAPS  H10Y 2369   3.946   2.605   3.985
   18SAPS  C311 2370   4.047   2.700   4.150
   18SAPS  H11X 2371   3.998   2.800   4.149
   18SAPS  H11Y 2372   4.148   2.730   4.184
   18SAPS  C312 2373   3.984   2.634   4.268
   18SAPS  H12X 2374   4.058   2.558   4.302
   18SAPS  H12Y 2375   3.886   2.588   4.241
   18SAPS  C313 2376   3.949   2.740   4.369
   18SAPS  H13X 2377   3.852   2.781   4.333
   18SAPS  H13Y 2378   4.018   2.826   4.371
   18SAPS  C314 2379   3.929   2.688   4.512
   18SAPS  H14X 2380   3.851   2.610   4.522
   18SAPS  H14Y 2381   3.894   2.776   4.570
   18SAPS  C315 2382   4.053   2.627   4.583
   18SAPS  H15X 2383   4.098   2.535   4.540
   18SAPS  H15Y 2384   4.033   2.596   4.687
   18SAPS  C316 2385   4.165   2.732   4.601
   18SAPS  H16X 2386   4.117   2.819   4.650
   18SAPS  H16Y 2387   4.206   2.759   4.501
   18SAPS  C317 2388   4.270   2.678   4.706
   18SAPS  H17X 2389   4.325   2.592   4.663
   18SAPS  H17Y 2390   4.228   2.634   4.798
   18SAPS  C318 2391   4.366   2.783   4.743
   18SAPS  H18X 2392   4.418   2.742   4.832
   18SAPS  H18Y 2393   4.303   2.871   4.769
   18SAPS  H18Z 2394   4.429   2.816   4.658
   19SAPS     N 2395   3.777   4.921   1.983
   19SAPS   HN1 2396   3.719   4.845   1.943
   19SAPS   HN2 2397   3.875   4.888   1.985
   19SAPS   HN3 2398   3.754   4.940   2.083
   19SAPS   C12 2399   3.764   5.042   1.901
   19SAPS  H12A 2400   3.804   5.011   1.805
   19SAPS   C13 2401   3.624   5.102   1.893
   19SAPS  O13A 2402   3.526   5.045   1.948
   19SAPS  O13B 2403   3.601   5.200   1.817
   19SAPS   C11 2404   3.857   5.144   1.968
   19SAPS  H11A 2405   3.808   5.181   2.061
   19SAPS  H11B 2406   3.867   5.233   1.903
   19SAPS     P 2407   4.075   5.098   2.122
   19SAPS   O13 2408   4.204   5.034   2.098
   19SAPS   O14 2409   4.077   5.238   2.161
   19SAPS   O12 2410   3.982   5.095   1.993
   19SAPS   O11 2411   3.993   5.013   2.227
   19SAPS    C1 2412   4.021   4.878   2.255
   19SAPS    HA 2413   3.927   4.821   2.272
   19SAPS    HB 2414   4.072   4.821   2.175
   19SAPS    C2 2415   4.107   4.858   2.388
   19SAPS    HS 2416   4.098   4.750   2.414
   19SAPS   O21 2417   4.067   4.943   2.495
   19SAPS   C21 2418   3.949   4.921   2.544
   19SAPS   O22 2419   3.871   4.829   2.518
   19SAPS   C22 2420   3.907   5.034   2.637
   19SAPS   H2R 2421   3.982   5.032   2.719
   19SAPS   H2S 2422   3.924   5.131   2.587
   19SAPS    C3 2423   4.265   4.871   2.370
   19SAPS    HX 2424   4.269   4.973   2.326
   19SAPS    HY 2425   4.291   4.793   2.294
   19SAPS   O31 2426   4.344   4.838   2.486
   19SAPS   C31 2427   4.371   4.934   2.567
   19SAPS   O32 2428   4.327   5.048   2.560
   19SAPS   C32 2429   4.464   4.881   2.676
   19SAPS   H2X 2430   4.573   4.864   2.664
   19SAPS   H2Y 2431   4.417   4.785   2.706
   19SAPS   C23 2432   3.772   5.007   2.708
   19SAPS   H3R 2433   3.775   4.916   2.772
   19SAPS   H3S 2434   3.682   5.006   2.643
   19SAPS   C24 2435   3.749   5.123   2.806
   19SAPS   H4R 2436   3.756   5.223   2.758
   19SAPS   H4S 2437   3.839   5.127   2.872
   19SAPS   C25 2438   3.626   5.091   2.887
   19SAPS   H5R 2439   3.544   5.032   2.842
   19SAPS   C26 2440   3.606   5.130   3.010
   19SAPS   H6R 2441   3.510   5.100   3.056
   19SAPS   C27 2442   3.694   5.217   3.096
   19SAPS   H7R 2443   3.759   5.273   3.026
   19SAPS   H7S 2444   3.751   5.161   3.172
   19SAPS   C28 2445   3.615   5.324   3.165
   19SAPS   H8R 2446   3.553   5.380   3.093
   19SAPS   C29 2447   3.626   5.351   3.299
   19SAPS   H9R 2448   3.564   5.431   3.340
   19SAPS  C210 2449   3.713   5.275   3.396
   19SAPS  H10R 2450   3.762   5.350   3.461
   19SAPS  H10S 2451   3.797   5.231   3.338
   19SAPS  C211 2452   3.644   5.162   3.467
   19SAPS  H11R 2453   3.623   5.074   3.404
   19SAPS  C212 2454   3.615   5.153   3.599
   19SAPS  H12R 2455   3.569   5.060   3.637
   19SAPS  C213 2456   3.632   5.270   3.692
   19SAPS  H13R 2457   3.570   5.357   3.661
   19SAPS  H13S 2458   3.739   5.294   3.674
   19SAPS  C214 2459   3.594   5.234   3.831
   19SAPS  H14R 2460   3.500   5.178   3.840
   19SAPS  C215 2461   3.669   5.240   3.939
   19SAPS  H15R 2462   3.626   5.218   4.038
   19SAPS  C216 2463   3.811   5.284   3.937
   19SAPS  H16R 2464   3.817   5.379   3.880
   19SAPS  H16S 2465   3.888   5.215   3.896
   19SAPS  C217 2466   3.861   5.317   4.079
   19SAPS  H17R 2467   3.972   5.331   4.081
   19SAPS  H17S 2468   3.844   5.234   4.152
   19SAPS  C218 2469   3.811   5.456   4.136
   19SAPS  H18R 2470   3.701   5.468   4.138
   19SAPS  H18S 2471   3.843   5.526   4.056
   19SAPS  C219 2472   3.864   5.481   4.276
   19SAPS  H19R 2473   3.974   5.469   4.270
   19SAPS  H19S 2474   3.830   5.395   4.338
   19SAPS  C220 2475   3.826   5.608   4.345
   19SAPS  H20R 2476   3.833   5.695   4.275
   19SAPS  H20S 2477   3.891   5.637   4.430
   19SAPS  H20T 2478   3.721   5.597   4.380
   19SAPS   C33 2479   4.469   4.990   2.790
   19SAPS   H3X 2480   4.368   5.035   2.803
   19SAPS   H3Y 2481   4.534   5.076   2.763
   19SAPS   C34 2482   4.510   4.936   2.927
   19SAPS   H4X 2483   4.604   4.877   2.917
   19SAPS   H4Y 2484   4.433   4.866   2.968
   19SAPS   C35 2485   4.540   5.043   3.036
   19SAPS   H5X 2486   4.443   5.095   3.051
   19SAPS   H5Y 2487   4.623   5.109   3.004
   19SAPS   C36 2488   4.600   4.978   3.166
   19SAPS   H6X 2489   4.705   4.963   3.135
   19SAPS   H6Y 2490   4.552   4.883   3.198
   19SAPS   C37 2491   4.600   5.073   3.283
   19SAPS   H7X 2492   4.493   5.089   3.307
   19SAPS   H7Y 2493   4.646   5.168   3.250
   19SAPS   C38 2494   4.681   5.007   3.402
   19SAPS   H8X 2495   4.781   4.971   3.371
   19SAPS   H8Y 2496   4.617   4.923   3.436
   19SAPS   C39 2497   4.698   5.107   3.521
   19SAPS   H9X 2498   4.601   5.137   3.568
   19SAPS   H9Y 2499   4.758   5.199   3.501
   19SAPS  C310 2500   4.777   5.036   3.633
   19SAPS  H10X 2501   4.868   4.999   3.581
   19SAPS  H10Y 2502   4.722   4.946   3.669
   19SAPS  C311 2503   4.804   5.128   3.757
   19SAPS  H11X 2504   4.711   5.181   3.788
   19SAPS  H11Y 2505   4.874   5.205   3.719
   19SAPS  C312 2506   4.873   5.053   3.873
   19SAPS  H12X 2507   4.961   4.994   3.839
   19SAPS  H12Y 2508   4.797   4.974   3.895
   19SAPS  C313 2509   4.900   5.152   3.986
   19SAPS  H13X 2510   4.805   5.188   4.030
   19SAPS  H13Y 2511   4.951   5.238   3.937
   19SAPS  C314 2512   4.991   5.101   4.100
   19SAPS  H14X 2513   5.026   5.182   4.168
   19SAPS  H14Y 2514   5.089   5.077   4.052
   19SAPS  C315 2515   4.927   4.988   4.179
   19SAPS  H15X 2516   4.994   4.940   4.254
   19SAPS  H15Y 2517   4.894   4.911   4.106
   19SAPS  C316 2518   4.811   5.029   4.259
   19SAPS  H16X 2519   4.755   4.950   4.313
   19SAPS  H16Y 2520   4.737   5.078   4.192
   19SAPS  C317 2521   4.849   5.125   4.371
   19SAPS  H17X 2522   4.858   5.217   4.309
   19SAPS  H17Y 2523   4.949   5.110   4.417
   19SAPS  C318 2524   4.738   5.148   4.468
   19SAPS  H18X 2525   4.676   5.240   4.460
   19SAPS  H18Y 2526   4.774   5.144   4.573
   19SAPS  H18Z 2527   4.667   5.064   4.451
   20SAPS     N 2528   4.652   6.609   2.098
   20SAPS   HN1 2529   4.588   6.628   2.178
   20SAPS   HN2 2530   4.706   6.520   2.107
   20SAPS   HN3 2531   4.722   6.685   2.090
   20SAPS   C12 2532   4.573   6.604   1.969
   20SAPS  H12A 2533   4.496   6.680   1.979
   20SAPS   C13 2534   4.647   6.639   1.845
   20SAPS  O13A 2535   4.775   6.657   1.848
   20SAPS  O13B 2536   4.580   6.655   1.743
   20SAPS   C11 2537   4.501   6.461   1.950
   20SAPS  H11A 2538   4.578   6.383   1.932
   20SAPS  H11B 2539   4.444   6.473   1.855
   20SAPS     P 2540   4.378   6.279   2.078
   20SAPS   O13 2541   4.237   6.274   2.117
   20SAPS   O14 2542   4.406   6.195   1.954
   20SAPS   O12 2543   4.419   6.428   2.061
   20SAPS   O11 2544   4.479   6.235   2.195
   20SAPS    C1 2545   4.495   6.308   2.313
   20SAPS    HA 2546   4.602   6.335   2.313
   20SAPS    HB 2547   4.445   6.408   2.318
   20SAPS    C2 2548   4.466   6.232   2.439
   20SAPS    HS 2549   4.462   6.306   2.523
   20SAPS   O21 2550   4.563   6.133   2.471
   20SAPS   C21 2551   4.679   6.180   2.525
   20SAPS   O22 2552   4.705   6.299   2.545
   20SAPS   C22 2553   4.770   6.066   2.549
   20SAPS   H2R 2554   4.730   5.986   2.614
   20SAPS   H2S 2555   4.795   6.021   2.451
   20SAPS    C3 2556   4.327   6.160   2.442
   20SAPS    HX 2557   4.334   6.065   2.384
   20SAPS    HY 2558   4.265   6.232   2.384
   20SAPS   O31 2559   4.277   6.146   2.576
   20SAPS   C31 2560   4.281   6.023   2.627
   20SAPS   O32 2561   4.300   5.917   2.564
   20SAPS   C32 2562   4.233   6.025   2.772
   20SAPS   H2X 2563   4.123   6.003   2.773
   20SAPS   H2Y 2564   4.245   6.131   2.803
   20SAPS   C23 2565   4.910   6.097   2.601
   20SAPS   H3R 2566   4.957   6.185   2.552
   20SAPS   H3S 2567   4.970   6.007   2.574
   20SAPS   C24 2568   4.912   6.121   2.751
   20SAPS   H4R 2569   4.890   6.028   2.806
   20SAPS   H4S 2570   4.845   6.204   2.780
   20SAPS   C25 2571   5.053   6.155   2.796
   20SAPS   H5R 2572   5.111   6.219   2.729
   20SAPS   C26 2573   5.113   6.110   2.911
   20SAPS   H6R 2574   5.208   6.158   2.937
   20SAPS   C27 2575   5.051   6.034   3.020
   20SAPS   H7R 2576   5.082   5.928   3.018
   20SAPS   H7S 2577   4.941   6.034   3.011
   20SAPS   C28 2578   5.082   6.084   3.158
   20SAPS   H8R 2579   5.124   6.185   3.165
   20SAPS   C29 2580   5.075   5.999   3.270
   20SAPS   H9R 2581   5.110   6.038   3.367
   20SAPS  C210 2582   5.019   5.854   3.266
   20SAPS  H10R 2583   4.984   5.827   3.165
   20SAPS  H10S 2584   4.932   5.846   3.335
   20SAPS  C211 2585   5.119   5.753   3.307
   20SAPS  H11R 2586   5.203   5.735   3.238
   20SAPS  C212 2587   5.126   5.681   3.421
   20SAPS  H12R 2588   5.215   5.617   3.434
   20SAPS  C213 2589   5.016   5.680   3.530
   20SAPS  H13R 2590   5.016   5.575   3.567
   20SAPS  H13S 2591   4.916   5.701   3.487
   20SAPS  C214 2592   5.042   5.773   3.648
   20SAPS  H14R 2593   4.983   5.865   3.633
   20SAPS  C215 2594   5.125   5.768   3.758
   20SAPS  H15R 2595   5.126   5.849   3.832
   20SAPS  C216 2596   5.214   5.654   3.799
   20SAPS  H16R 2597   5.318   5.690   3.787
   20SAPS  H16S 2598   5.198   5.570   3.728
   20SAPS  C217 2599   5.183   5.582   3.932
   20SAPS  H17R 2600   5.270   5.515   3.951
   20SAPS  H17S 2601   5.088   5.525   3.934
   20SAPS  C218 2602   5.176   5.679   4.057
   20SAPS  H18R 2603   5.077   5.731   4.054
   20SAPS  H18S 2604   5.255   5.756   4.041
   20SAPS  C219 2605   5.184   5.613   4.192
   20SAPS  H19R 2606   5.121   5.522   4.198
   20SAPS  H19S 2607   5.150   5.682   4.272
   20SAPS  C220 2608   5.328   5.580   4.242
   20SAPS  H20R 2609   5.372   5.675   4.281
   20SAPS  H20S 2610   5.387   5.528   4.163
   20SAPS  H20T 2611   5.315   5.513   4.330
   20SAPS   C33 2612   4.290   5.925   2.873
   20SAPS   H3X 2613   4.272   5.821   2.840
   20SAPS   H3Y 2614   4.232   5.944   2.966
   20SAPS   C34 2615   4.437   5.951   2.901
   20SAPS   H4X 2616   4.443   6.059   2.925
   20SAPS   H4Y 2617   4.502   5.929   2.814
   20SAPS   C35 2618   4.483   5.881   3.031
   20SAPS   H5X 2619   4.585   5.924   3.045
   20SAPS   H5Y 2620   4.489   5.772   3.011
   20SAPS   C36 2621   4.398   5.912   3.159
   20SAPS   H6X 2622   4.293   5.878   3.147
   20SAPS   H6Y 2623   4.407   6.022   3.170
   20SAPS   C37 2624   4.441   5.831   3.273
   20SAPS   H7X 2625   4.549   5.826   3.299
   20SAPS   H7Y 2626   4.396   5.730   3.258
   20SAPS   C38 2627   4.364   5.892   3.403
   20SAPS   H8X 2628   4.256   5.903   3.378
   20SAPS   H8Y 2629   4.405   5.995   3.414
   20SAPS   C39 2630   4.367   5.807   3.527
   20SAPS   H9X 2631   4.468   5.814   3.573
   20SAPS   H9Y 2632   4.345   5.701   3.503
   20SAPS  C310 2633   4.264   5.848   3.638
   20SAPS  H10X 2634   4.172   5.881   3.585
   20SAPS  H10Y 2635   4.316   5.928   3.693
   20SAPS  C311 2636   4.223   5.736   3.731
   20SAPS  H11X 2637   4.318   5.708   3.781
   20SAPS  H11Y 2638   4.185   5.643   3.684
   20SAPS  C312 2639   4.127   5.784   3.837
   20SAPS  H12X 2640   4.028   5.808   3.792
   20SAPS  H12Y 2641   4.166   5.874   3.889
   20SAPS  C313 2642   4.089   5.681   3.943
   20SAPS  H13X 2643   4.041   5.595   3.891
   20SAPS  H13Y 2644   4.016   5.721   4.016
   20SAPS  C314 2645   4.216   5.636   4.020
   20SAPS  H14X 2646   4.261   5.732   4.052
   20SAPS  H14Y 2647   4.293   5.582   3.961
   20SAPS  C315 2648   4.181   5.552   4.146
   20SAPS  H15X 2649   4.137   5.459   4.104
   20SAPS  H15Y 2650   4.094   5.601   4.195
   20SAPS  C316 2651   4.291   5.524   4.240
   20SAPS  H16X 2652   4.256   5.452   4.317
   20SAPS  H16Y 2653   4.318   5.613   4.301
   20SAPS  C317 2654   4.424   5.456   4.190
   20SAPS  H17X 2655   4.487   5.539   4.152
   20SAPS  H17Y 2656   4.395   5.394   4.103
   20SAPS  C318 2657   4.506   5.363   4.281
   20SAPS  H18X 2658   4.567   5.413   4.360
   20SAPS  H18Y 2659   4.568   5.296   4.217
   20SAPS  H18Z 2660   4.425   5.299   4.321
   21CHL1    C3 2661   1.433   4.152   5.876
   21CHL1    H3 2662   1.532   4.192   5.843
   21CHL1    O3 2663   1.402   4.183   6.009
   21CHL1   H3' 2664   1.313   4.151   6.020
   21CHL1    C4 2665   1.323   4.214   5.791
   21CHL1   H4A 2666   1.225   4.175   5.826
   21CHL1   H4B 2667   1.320   4.321   5.819
   21CHL1    C5 2668   1.349   4.185   5.648
   21CHL1    C6 2669   1.360   4.285   5.559
   21CHL1    H6 2670   1.341   4.389   5.590
   21CHL1    C7 2671   1.369   4.267   5.409
   21CHL1   H7A 2672   1.290   4.326   5.359
   21CHL1   H7B 2673   1.471   4.296   5.376
   21CHL1    C8 2674   1.357   4.112   5.367
   21CHL1    H8 2675   1.249   4.088   5.358
   21CHL1   C14 2676   1.426   4.087   5.233
   21CHL1   H14 2677   1.534   4.107   5.251
   21CHL1   C15 2678   1.388   4.187   5.117
   21CHL1  H15A 2679   1.278   4.197   5.121
   21CHL1  H15B 2680   1.434   4.288   5.118
   21CHL1   C16 2681   1.421   4.109   4.992
   21CHL1  H16A 2682   1.338   4.107   4.918
   21CHL1  H16B 2683   1.511   4.151   4.943
   21CHL1   C17 2684   1.479   3.969   5.033
   21CHL1   H17 2685   1.586   3.989   5.057
   21CHL1   C13 2686   1.414   3.944   5.175
   21CHL1   C18 2687   1.269   3.893   5.171
   21CHL1  H18A 2688   1.261   3.794   5.120
   21CHL1  H18B 2689   1.213   3.898   5.267
   21CHL1  H18C 2690   1.228   3.965   5.097
   21CHL1   C12 2691   1.499   3.857   5.268
   21CHL1  H12A 2692   1.487   3.749   5.241
   21CHL1  H12B 2693   1.606   3.882   5.258
   21CHL1   C11 2694   1.444   3.878   5.413
   21CHL1  H11A 2695   1.343   3.834   5.423
   21CHL1  H11B 2696   1.513   3.821   5.480
   21CHL1    C9 2697   1.424   4.024   5.465
   21CHL1    H9 2698   1.529   4.061   5.468
   21CHL1   C10 2699   1.375   4.041   5.614
   21CHL1   C19 2700   1.248   3.951   5.622
   21CHL1  H19A 2701   1.188   3.966   5.714
   21CHL1  H19B 2702   1.193   3.961   5.526
   21CHL1  H19C 2703   1.273   3.842   5.620
   21CHL1    C1 2704   1.485   3.985   5.699
   21CHL1   H1A 2705   1.495   3.878   5.670
   21CHL1   H1B 2706   1.583   4.034   5.683
   21CHL1    C2 2707   1.453   4.003   5.847
   21CHL1   H2A 2708   1.536   3.972   5.914
   21CHL1   H2B 2709   1.373   3.934   5.879
   21CHL1   C20 2710   1.464   3.867   4.912
   21CHL1   H20 2711   1.355   3.853   4.898
   21CHL1   C21 2712   1.511   3.729   4.955
   21CHL1  H21A 2713   1.476   3.662   4.874
   21CHL1  H21B 2714   1.457   3.688   5.042
   21CHL1  H21C 2715   1.622   3.728   4.963
   21CHL1   C22 2716   1.527   3.919   4.777
   21CHL1  H22A 2717   1.551   4.028   4.772
   21CHL1  H22B 2718   1.622   3.864   4.765
   21CHL1   C23 2719   1.432   3.899   4.654
   21CHL1  H23A 2720   1.385   3.798   4.651
   21CHL1  H23B 2721   1.348   3.971   4.671
   21CHL1   C24 2722   1.499   3.923   4.520
   21CHL1  H24A 2723   1.578   4.001   4.520
   21CHL1  H24B 2724   1.549   3.826   4.497
   21CHL1   C25 2725   1.408   3.948   4.400
   21CHL1   H25 2726   1.347   4.040   4.413
   21CHL1   C26 2727   1.488   3.976   4.268
   21CHL1  H26A 2728   1.556   4.063   4.274
   21CHL1  H26B 2729   1.541   3.890   4.222
   21CHL1  H26C 2730   1.419   4.013   4.189
   21CHL1   C27 2731   1.316   3.833   4.371
   21CHL1  H27A 2732   1.228   3.872   4.314
   21CHL1  H27B 2733   1.371   3.754   4.317
   21CHL1  H27C 2734   1.275   3.793   4.466
   22CHL1    C3 2735   1.716   2.079   5.815
   22CHL1    H3 2736   1.641   2.160   5.822
   22CHL1    O3 2737   1.734   2.031   5.949
   22CHL1   H3' 2738   1.817   1.983   5.946
   22CHL1    C4 2739   1.656   1.955   5.733
   22CHL1   H4A 2740   1.724   1.869   5.744
   22CHL1   H4B 2741   1.563   1.916   5.780
   22CHL1    C5 2742   1.635   1.993   5.585
   22CHL1    C6 2743   1.521   1.998   5.527
   22CHL1    H6 2744   1.430   1.957   5.574
   22CHL1    C7 2745   1.498   2.047   5.386
   22CHL1   H7A 2746   1.421   1.987   5.332
   22CHL1   H7B 2747   1.454   2.149   5.379
   22CHL1    C8 2748   1.628   2.046   5.303
   22CHL1    H8 2749   1.653   1.939   5.289
   22CHL1   C14 2750   1.602   2.114   5.161
   22CHL1   H14 2751   1.573   2.220   5.179
   22CHL1   C15 2752   1.479   2.073   5.072
   22CHL1  H15A 2753   1.478   1.962   5.067
   22CHL1  H15B 2754   1.385   2.116   5.113
   22CHL1   C16 2755   1.507   2.140   4.937
   22CHL1  H16A 2756   1.491   2.066   4.855
   22CHL1  H16B 2757   1.450   2.230   4.909
   22CHL1   C17 2758   1.654   2.188   4.945
   22CHL1   H17 2759   1.655   2.297   4.967
   22CHL1   C13 2760   1.714   2.111   5.067
   22CHL1   C18 2761   1.758   1.962   5.036
   22CHL1  H18A 2762   1.683   1.897   4.984
   22CHL1  H18B 2763   1.846   1.958   4.968
   22CHL1  H18C 2764   1.780   1.919   5.136
   22CHL1   C12 2765   1.824   2.191   5.139
   22CHL1  H12A 2766   1.922   2.185   5.088
   22CHL1  H12B 2767   1.792   2.297   5.138
   22CHL1   C11 2768   1.861   2.138   5.282
   22CHL1  H11A 2769   1.924   2.051   5.255
   22CHL1  H11B 2770   1.923   2.212   5.337
   22CHL1    C9 2771   1.738   2.110   5.373
   22CHL1    H9 2772   1.690   2.205   5.404
   22CHL1   C10 2773   1.770   2.041   5.518
   22CHL1   C19 2774   1.860   1.919   5.482
   22CHL1  H19A 2775   1.885   1.862   5.573
   22CHL1  H19B 2776   1.803   1.865   5.403
   22CHL1  H19C 2777   1.948   1.955   5.425
   22CHL1    C1 2778   1.855   2.145   5.607
   22CHL1   H1A 2779   1.958   2.147   5.564
   22CHL1   H1B 2780   1.799   2.240   5.592
   22CHL1    C2 2781   1.854   2.121   5.762
   22CHL1   H2A 2782   1.900   2.201   5.824
   22CHL1   H2B 2783   1.921   2.033   5.772
   22CHL1   C20 2784   1.728   2.187   4.808
   22CHL1   H20 2785   1.720   2.084   4.767
   22CHL1   C21 2786   1.875   2.221   4.818
   22CHL1  H21A 2787   1.921   2.146   4.886
   22CHL1  H21B 2788   1.893   2.322   4.860
   22CHL1  H21C 2789   1.922   2.216   4.717
   22CHL1   C22 2790   1.655   2.279   4.708
   22CHL1  H22A 2791   1.547   2.252   4.717
   22CHL1  H22B 2792   1.664   2.382   4.750
   22CHL1   C23 2793   1.698   2.267   4.564
   22CHL1  H23A 2794   1.806   2.288   4.552
   22CHL1  H23B 2795   1.687   2.164   4.526
   22CHL1   C24 2796   1.631   2.375   4.479
   22CHL1  H24A 2797   1.525   2.344   4.469
   22CHL1  H24B 2798   1.623   2.474   4.528
   22CHL1   C25 2799   1.696   2.383   4.338
   22CHL1   H25 2800   1.735   2.281   4.317
   22CHL1   C26 2801   1.603   2.410   4.221
   22CHL1  H26A 2802   1.658   2.415   4.124
   22CHL1  H26B 2803   1.528   2.328   4.229
   22CHL1  H26C 2804   1.565   2.512   4.245
   22CHL1   C27 2805   1.818   2.477   4.338
   22CHL1  H27A 2806   1.887   2.453   4.421
   22CHL1  H27B 2807   1.871   2.462   4.242
   22CHL1  H27C 2808   1.781   2.581   4.355
   23CHL1    C3 2809   0.893   3.982   5.694
   23CHL1    H3 2810   0.977   3.915   5.669
   23CHL1    O3 2811   0.899   3.996   5.838
   23CHL1   H3' 2812   0.950   4.074   5.862
   23CHL1    C4 2813   0.902   4.118   5.624
   23CHL1   H4A 2814   0.811   4.170   5.662
   23CHL1   H4B 2815   0.989   4.165   5.675
   23CHL1    C5 2816   0.905   4.112   5.472
   23CHL1    C6 2817   0.998   4.165   5.397
   23CHL1    H6 2818   1.082   4.219   5.444
   23CHL1    C7 2819   0.999   4.168   5.248
   23CHL1   H7A 2820   1.008   4.276   5.226
   23CHL1   H7B 2821   1.093   4.123   5.211
   23CHL1    C8 2822   0.869   4.111   5.186
   23CHL1    H8 2823   0.790   4.188   5.197
   23CHL1   C14 2824   0.883   4.081   5.032
   23CHL1   H14 2825   0.970   4.012   5.020
   23CHL1   C15 2826   0.921   4.194   4.946
   23CHL1  H15A 2827   0.872   4.289   4.974
   23CHL1  H15B 2828   1.029   4.216   4.959
   23CHL1   C16 2829   0.889   4.151   4.808
   23CHL1  H16A 2830   0.824   4.222   4.753
   23CHL1  H16B 2831   0.987   4.146   4.756
   23CHL1   C17 2832   0.822   4.011   4.824
   23CHL1   H17 2833   0.898   3.930   4.824
   23CHL1   C13 2834   0.768   4.014   4.966
   23CHL1   C18 2835   0.645   4.111   4.960
   23CHL1  H18A 2836   0.672   4.215   4.931
   23CHL1  H18B 2837   0.559   4.070   4.904
   23CHL1  H18C 2838   0.605   4.132   5.061
   23CHL1   C12 2839   0.735   3.879   5.035
   23CHL1  H12A 2840   0.651   3.821   4.993
   23CHL1  H12B 2841   0.830   3.821   5.040
   23CHL1   C11 2842   0.706   3.896   5.188
   23CHL1  H11A 2843   0.605   3.941   5.200
   23CHL1  H11B 2844   0.697   3.795   5.232
   23CHL1    C9 2845   0.819   3.980   5.261
   23CHL1    H9 2846   0.911   3.918   5.260
   23CHL1   C10 2847   0.794   4.023   5.412
   23CHL1   C19 2848   0.672   4.113   5.423
   23CHL1  H19A 2849   0.691   4.208   5.368
   23CHL1  H19B 2850   0.581   4.060   5.388
   23CHL1  H19C 2851   0.658   4.145   5.528
   23CHL1    C1 2852   0.762   3.896   5.490
   23CHL1   H1A 2853   0.658   3.864   5.467
   23CHL1   H1B 2854   0.844   3.825   5.466
   23CHL1    C2 2855   0.763   3.913   5.642
   23CHL1   H2A 2856   0.756   3.810   5.683
   23CHL1   H2B 2857   0.678   3.975   5.677
   23CHL1   C20 2858   0.730   3.974   4.702
   23CHL1   H20 2859   0.637   4.034   4.712
   23CHL1   C21 2860   0.713   3.819   4.702
   23CHL1  H21A 2861   0.659   3.782   4.613
   23CHL1  H21B 2862   0.652   3.793   4.791
   23CHL1  H21C 2863   0.812   3.769   4.699
   23CHL1   C22 2864   0.782   4.020   4.557
   23CHL1  H22A 2865   0.796   4.130   4.566
   23CHL1  H22B 2866   0.881   3.971   4.545
   23CHL1   C23 2867   0.694   4.002   4.428
   23CHL1  H23A 2868   0.670   3.897   4.401
   23CHL1  H23B 2869   0.598   4.057   4.436
   23CHL1   C24 2870   0.766   4.069   4.304
   23CHL1  H24A 2871   0.771   4.179   4.320
   23CHL1  H24B 2872   0.867   4.030   4.282
   23CHL1   C25 2873   0.702   4.058   4.163
   23CHL1   H25 2874   0.691   3.952   4.134
   23CHL1   C26 2875   0.566   4.117   4.160
   23CHL1  H26A 2876   0.514   4.093   4.065
   23CHL1  H26B 2877   0.493   4.087   4.238
   23CHL1  H26C 2878   0.570   4.228   4.168
   23CHL1   C27 2879   0.793   4.136   4.061
   23CHL1  H27A 2880   0.759   4.099   3.962
   23CHL1  H27B 2881   0.789   4.247   4.068
   23CHL1  H27C 2882   0.900   4.105   4.060
   24CHL1    C3 2883   3.408   5.516   6.226
   24CHL1    H3 2884   3.513   5.549   6.210
   24CHL1    O3 2885   3.387   5.515   6.369
   24CHL1   H3' 2886   3.293   5.531   6.376
   24CHL1    C4 2887   3.317   5.619   6.152
   24CHL1   H4A 2888   3.211   5.591   6.167
   24CHL1   H4B 2889   3.329   5.719   6.199
   24CHL1    C5 2890   3.358   5.616   6.009
   24CHL1    C6 2891   3.404   5.721   5.945
   24CHL1    H6 2892   3.400   5.817   5.998
   24CHL1    C7 2893   3.446   5.724   5.807
   24CHL1   H7A 2894   3.402   5.817   5.765
   24CHL1   H7B 2895   3.556   5.732   5.804
   24CHL1    C8 2896   3.405   5.609   5.715
   24CHL1    H8 2897   3.296   5.621   5.695
   24CHL1   C14 2898   3.485   5.602   5.586
   24CHL1   H14 2899   3.591   5.595   5.621
   24CHL1   C15 2900   3.497   5.719   5.491
   24CHL1  H15A 2901   3.398   5.759   5.461
   24CHL1  H15B 2902   3.562   5.795   5.539
   24CHL1   C16 2903   3.562   5.657   5.368
   24CHL1  H16A 2904   3.514   5.695   5.275
   24CHL1  H16B 2905   3.670   5.682   5.361
   24CHL1   C17 2906   3.549   5.506   5.376
   24CHL1   H17 2907   3.647   5.465   5.410
   24CHL1   C13 2908   3.456   5.478   5.498
   24CHL1   C18 2909   3.311   5.473   5.453
   24CHL1  H18A 2910   3.272   5.377   5.413
   24CHL1  H18B 2911   3.238   5.505   5.531
   24CHL1  H18C 2912   3.306   5.563   5.387
   24CHL1   C12 2913   3.495   5.354   5.581
   24CHL1  H12A 2914   3.484   5.261   5.521
   24CHL1  H12B 2915   3.603   5.352   5.604
   24CHL1   C11 2916   3.417   5.346   5.715
   24CHL1  H11A 2917   3.313   5.312   5.693
   24CHL1  H11B 2918   3.455   5.266   5.782
   24CHL1    C9 2919   3.433   5.482   5.795
   24CHL1    H9 2920   3.542   5.481   5.819
   24CHL1   C10 2921   3.369   5.476   5.936
   24CHL1   C19 2922   3.221   5.429   5.917
   24CHL1  H19A 2923   3.167   5.435   6.014
   24CHL1  H19B 2924   3.163   5.484   5.841
   24CHL1  H19C 2925   3.216   5.321   5.891
   24CHL1    C1 2926   3.439   5.367   6.023
   24CHL1   H1A 2927   3.414   5.268   5.980
   24CHL1   H1B 2928   3.550   5.375   6.021
   24CHL1    C2 2929   3.396   5.374   6.170
   24CHL1   H2A 2930   3.466   5.302   6.217
   24CHL1   H2B 2931   3.292   5.336   6.176
   24CHL1   C20 2932   3.514   5.441   5.242
   24CHL1   H20 2933   3.408   5.470   5.226
   24CHL1   C21 2934   3.512   5.280   5.248
   24CHL1  H21A 2935   3.614   5.239   5.261
   24CHL1  H21B 2936   3.465   5.247   5.152
   24CHL1  H21C 2937   3.438   5.255   5.327
   24CHL1   C22 2938   3.596   5.490   5.122
   24CHL1  H22A 2939   3.597   5.601   5.111
   24CHL1  H22B 2940   3.704   5.465   5.130
   24CHL1   C23 2941   3.544   5.447   4.982
   24CHL1  H23A 2942   3.529   5.337   4.979
   24CHL1  H23B 2943   3.442   5.484   4.958
   24CHL1   C24 2944   3.638   5.471   4.866
   24CHL1  H24A 2945   3.587   5.457   4.768
   24CHL1  H24B 2946   3.673   5.576   4.854
   24CHL1   C25 2947   3.759   5.380   4.862
   24CHL1   H25 2948   3.808   5.393   4.961
   24CHL1   C26 2949   3.724   5.229   4.831
   24CHL1  H26A 2950   3.813   5.163   4.822
   24CHL1  H26B 2951   3.652   5.182   4.902
   24CHL1  H26C 2952   3.678   5.230   4.730
   24CHL1   C27 2953   3.849   5.420   4.746
   24CHL1  H27A 2954   3.883   5.524   4.764
   24CHL1  H27B 2955   3.934   5.348   4.747
   24CHL1  H27C 2956   3.789   5.409   4.654
   25CHL1    C3 2957   5.781   6.361   5.680
   25CHL1    H3 2958   5.826   6.463   5.681
   25CHL1    O3 2959   5.836   6.297   5.798
   25CHL1   H3' 2960   5.814   6.349   5.875
   25CHL1    C4 2961   5.622   6.368   5.679
   25CHL1   H4A 2962   5.594   6.263   5.702
   25CHL1   H4B 2963   5.594   6.434   5.764
   25CHL1    C5 2964   5.568   6.427   5.546
   25CHL1    C6 2965   5.487   6.538   5.546
   25CHL1    H6 2966   5.458   6.594   5.637
   25CHL1    C7 2967   5.424   6.595   5.423
   25CHL1   H7A 2968   5.322   6.637   5.437
   25CHL1   H7B 2969   5.489   6.682   5.398
   25CHL1    C8 2970   5.428   6.487   5.306
   25CHL1    H8 2971   5.367   6.398   5.334
   25CHL1   C14 2972   5.392   6.550   5.174
   25CHL1   H14 2973   5.469   6.630   5.166
   25CHL1   C15 2974   5.253   6.619   5.169
   25CHL1  H15A 2975   5.180   6.562   5.230
   25CHL1  H15B 2976   5.258   6.714   5.225
   25CHL1   C16 2977   5.223   6.634   5.023
   25CHL1  H16A 2978   5.125   6.590   4.995
   25CHL1  H16B 2979   5.215   6.740   4.992
   25CHL1   C17 2980   5.345   6.568   4.948
   25CHL1   H17 2981   5.419   6.650   4.942
   25CHL1   C13 2982   5.400   6.462   5.052
   25CHL1   C18 2983   5.306   6.339   5.057
   25CHL1  H18A 2984   5.338   6.263   4.982
   25CHL1  H18B 2985   5.320   6.286   5.154
   25CHL1  H18C 2986   5.198   6.359   5.042
   25CHL1   C12 2987   5.546   6.429   5.039
   25CHL1  H12A 2988   5.585   6.381   4.947
   25CHL1  H12B 2989   5.603   6.524   5.048
   25CHL1   C11 2990   5.589   6.348   5.162
   25CHL1  H11A 2991   5.524   6.258   5.171
   25CHL1  H11B 2992   5.699   6.335   5.149
   25CHL1    C9 2993   5.571   6.435   5.291
   25CHL1    H9 2994   5.642   6.521   5.284
   25CHL1   C10 2995   5.613   6.355   5.423
   25CHL1   C19 2996   5.561   6.204   5.422
   25CHL1  H19A 2997   5.615   6.144   5.346
   25CHL1  H19B 2998   5.600   6.158   5.515
   25CHL1  H19C 2999   5.450   6.202   5.417
   25CHL1    C1 3000   5.764   6.343   5.420
   25CHL1   H1A 3001   5.796   6.278   5.335
   25CHL1   H1B 3002   5.810   6.442   5.401
   25CHL1    C2 3003   5.828   6.290   5.551
   25CHL1   H2A 3004   5.938   6.302   5.557
   25CHL1   H2B 3005   5.807   6.183   5.572
   25CHL1   C20 3006   5.301   6.522   4.813
   25CHL1   H20 3007   5.215   6.454   4.830
   25CHL1   C21 3008   5.409   6.438   4.735
   25CHL1  H21A 3009   5.510   6.483   4.739
   25CHL1  H21B 3010   5.365   6.435   4.633
   25CHL1  H21C 3011   5.403   6.334   4.776
   25CHL1   C22 3012   5.247   6.629   4.718
   25CHL1  H22A 3013   5.226   6.568   4.628
   25CHL1  H22B 3014   5.155   6.677   4.756
   25CHL1   C23 3015   5.355   6.731   4.677
   25CHL1  H23A 3016   5.379   6.796   4.765
   25CHL1  H23B 3017   5.447   6.684   4.637
   25CHL1   C24 3018   5.304   6.825   4.565
   25CHL1  H24A 3019   5.398   6.869   4.525
   25CHL1  H24B 3020   5.265   6.752   4.490
   25CHL1   C25 3021   5.212   0.042   4.609
   25CHL1   H25 3022   5.118   0.013   4.662
   25CHL1   C26 3023   5.286   0.137   4.698
   25CHL1  H26A 3024   5.388   0.164   4.664
   25CHL1  H26B 3025   5.237   0.236   4.712
   25CHL1  H26C 3026   5.307   0.098   4.799
   25CHL1   C27 3027   5.165   0.119   4.487
   25CHL1  H27A 3028   5.247   0.171   4.432
   25CHL1  H27B 3029   5.123   0.049   4.412
   25CHL1  H27C 3030   5.094   0.198   4.519
   26CHL1    C3 3031   3.705   3.590   5.954
   26CHL1    H3 3032   3.799   3.640   5.921
   26CHL1    O3 3033   3.712   3.534   6.082
   26CHL1   H3' 3034   3.761   3.597   6.136
   26CHL1    C4 3035   3.600   3.711   5.966
   26CHL1   H4A 3036   3.502   3.686   6.012
   26CHL1   H4B 3037   3.641   3.782   6.041
   26CHL1    C5 3038   3.576   3.766   5.827
   26CHL1    C6 3039   3.621   3.890   5.803
   26CHL1    H6 3040   3.656   3.956   5.884
   26CHL1    C7 3041   3.593   3.957   5.670
   26CHL1   H7A 3042   3.533   4.046   5.699
   26CHL1   H7B 3043   3.690   3.977   5.620
   26CHL1    C8 3044   3.505   3.875   5.578
   26CHL1    H8 3045   3.401   3.867   5.617
   26CHL1   C14 3046   3.522   3.929   5.436
   26CHL1   H14 3047   3.631   3.942   5.419
   26CHL1   C15 3048   3.463   4.069   5.425
   26CHL1  H15A 3049   3.360   4.081   5.465
   26CHL1  H15B 3050   3.528   4.146   5.474
   26CHL1   C16 3051   3.469   4.092   5.276
   26CHL1  H16A 3052   3.376   4.139   5.236
   26CHL1  H16B 3053   3.552   4.162   5.256
   26CHL1   C17 3054   3.498   3.947   5.211
   26CHL1   H17 3055   3.608   3.940   5.200
   26CHL1   C13 3056   3.461   3.847   5.321
   26CHL1   C18 3057   3.307   3.846   5.339
   26CHL1  H18A 3058   3.250   3.773   5.278
   26CHL1  H18B 3059   3.282   3.833   5.447
   26CHL1  H18C 3060   3.265   3.941   5.298
   26CHL1   C12 3061   3.525   3.711   5.332
   26CHL1  H12A 3062   3.501   3.642   5.248
   26CHL1  H12B 3063   3.634   3.733   5.333
   26CHL1   C11 3064   3.493   3.646   5.464
   26CHL1  H11A 3065   3.384   3.630   5.478
   26CHL1  H11B 3066   3.538   3.544   5.463
   26CHL1    C9 3067   3.550   3.725   5.578
   26CHL1    H9 3068   3.660   3.728   5.564
   26CHL1   C10 3069   3.528   3.662   5.722
   26CHL1   C19 3070   3.392   3.628   5.748
   26CHL1  H19A 3071   3.376   3.566   5.839
   26CHL1  H19B 3072   3.337   3.725   5.757
   26CHL1  H19C 3073   3.346   3.561   5.673
   26CHL1    C1 3074   3.622   3.536   5.720
   26CHL1   H1A 3075   3.578   3.445   5.673
   26CHL1   H1B 3076   3.724   3.560   5.683
   26CHL1    C2 3077   3.670   3.481   5.859
   26CHL1   H2A 3078   3.758   3.414   5.845
   26CHL1   H2B 3079   3.584   3.418   5.888
   26CHL1   C20 3080   3.442   3.937   5.063
   26CHL1   H20 3081   3.332   3.937   5.076
   26CHL1   C21 3082   3.485   3.794   5.000
   26CHL1  H21A 3083   3.428   3.716   5.054
   26CHL1  H21B 3084   3.594   3.779   5.016
   26CHL1  H21C 3085   3.464   3.786   4.891
   26CHL1   C22 3086   3.472   4.055   4.969
   26CHL1  H22A 3087   3.458   4.157   5.011
   26CHL1  H22B 3088   3.575   4.052   4.928
   26CHL1   C23 3089   3.384   4.047   4.845
   26CHL1  H23A 3090   3.404   3.958   4.781
   26CHL1  H23B 3091   3.279   4.034   4.881
   26CHL1   C24 3092   3.398   4.173   4.759
   26CHL1  H24A 3093   3.346   4.247   4.824
   26CHL1  H24B 3094   3.504   4.206   4.759
   26CHL1   C25 3095   3.325   4.159   4.630
   26CHL1   H25 3096   3.238   4.094   4.650
   26CHL1   C26 3097   3.271   4.295   4.570
   26CHL1  H26A 3098   3.194   4.317   4.648
   26CHL1  H26B 3099   3.350   4.370   4.551
   26CHL1  H26C 3100   3.203   4.274   4.484
   26CHL1   C27 3101   3.413   4.080   4.524
   26CHL1  H27A 3102   3.360   4.080   4.426
   26CHL1  H27B 3103   3.507   4.137   4.508
   26CHL1  H27C 3104   3.440   3.977   4.555
   27CHL1    C3 3105   0.043   3.100   5.878
   27CHL1    H3 3106   6.858   3.032   5.854
   27CHL1    O3 3107   0.042   3.145   6.010
   27CHL1   H3' 3108   0.117   3.205   6.006
   27CHL1    C4 3109   0.181   3.021   5.855
   27CHL1   H4A 3110   0.265   3.079   5.899
   27CHL1   H4B 3111   0.178   2.925   5.912
   27CHL1    C5 3112   0.210   2.986   5.706
   27CHL1    C6 3113   0.235   2.859   5.667
   27CHL1    H6 3114   0.250   2.778   5.741
   27CHL1    C7 3115   0.257   2.821   5.525
   27CHL1   H7A 3116   0.340   2.750   5.509
   27CHL1   H7B 3117   0.170   2.775   5.474
   27CHL1    C8 3118   0.281   2.942   5.425
   27CHL1    H8 3119   0.385   2.975   5.444
   27CHL1   C14 3120   0.269   2.910   5.277
   27CHL1   H14 3121   0.164   2.884   5.254
   27CHL1   C15 3122   0.345   2.784   5.222
   27CHL1  H15A 3123   0.449   2.781   5.260
   27CHL1  H15B 3124   0.295   2.692   5.260
   27CHL1   C16 3125   0.355   2.801   5.075
   27CHL1  H16A 3126   0.459   2.794   5.036
   27CHL1  H16B 3127   0.302   2.713   5.033
   27CHL1   C17 3128   0.284   2.939   5.046
   27CHL1   H17 3129   0.177   2.915   5.031
   27CHL1   C13 3130   0.292   3.016   5.179
   27CHL1   C18 3131   0.435   3.070   5.186
   27CHL1  H18A 3132   0.459   3.124   5.280
   27CHL1  H18B 3133   0.511   2.990   5.171
   27CHL1  H18C 3134   0.450   3.143   5.103
   27CHL1   C12 3135   0.191   3.126   5.209
   27CHL1  H12A 3136   0.200   3.215   5.142
   27CHL1  H12B 3137   0.090   3.084   5.189
   27CHL1   C11 3138   0.192   3.173   5.355
   27CHL1  H11A 3139   0.289   3.222   5.378
   27CHL1  H11B 3140   0.115   3.252   5.360
   27CHL1    C9 3141   0.180   3.052   5.454
   27CHL1    H9 3142   0.079   3.012   5.433
   27CHL1   C10 3143   0.186   3.096   5.605
   27CHL1   C19 3144   0.307   3.196   5.633
   27CHL1  H19A 3145   0.320   3.205   5.743
   27CHL1  H19B 3146   0.405   3.169   5.588
   27CHL1  H19C 3147   0.289   3.293   5.584
   27CHL1    C1 3148   0.045   3.166   5.632
   27CHL1   H1A 3149   0.032   3.254   5.566
   27CHL1   H1B 3150   6.866   3.090   5.614
   27CHL1    C2 3151   0.029   3.224   5.772
   27CHL1   H2A 3152   6.829   3.269   5.793
   27CHL1   H2B 3153   0.112   3.294   5.795
   27CHL1   C20 3154   0.341   3.004   4.913
   27CHL1   H20 3155   0.451   2.990   4.921
   27CHL1   C21 3156   0.291   3.149   4.890
   27CHL1  H21A 3157   0.320   3.228   4.963
   27CHL1  H21B 3158   0.181   3.142   4.897
   27CHL1  H21C 3159   0.333   3.179   4.792
   27CHL1   C22 3160   0.310   2.931   4.786
   27CHL1  H22A 3161   0.372   2.992   4.716
   27CHL1  H22B 3162   0.348   2.827   4.790
   27CHL1   C23 3163   0.173   2.935   4.724
   27CHL1  H23A 3164   0.100   2.936   4.808
   27CHL1  H23B 3165   0.164   3.033   4.671
   27CHL1   C24 3166   0.154   2.819   4.623
   27CHL1  H24A 3167   0.232   2.830   4.545
   27CHL1  H24B 3168   0.177   2.722   4.672
   27CHL1   C25 3169   0.013   2.810   4.563
   27CHL1   H25 3170   6.835   2.838   4.636
   27CHL1   C26 3171   6.892   2.923   4.453
   27CHL1  H26A 3172   6.787   2.939   4.419
   27CHL1  H26B 3173   0.031   3.015   4.502
   27CHL1  H26C 3174   0.052   2.904   4.362
   27CHL1   C27 3175   6.881   2.675   4.507
   27CHL1  H27A 3176   6.879   2.594   4.582
   27CHL1  H27B 3177   0.064   2.653   4.436
   27CHL1  H27C 3178   6.784   2.676   4.454
   28CHL1    C3 3179   5.258   2.826   5.973
   28CHL1    H3 3180   5.203   2.917   5.942
   28CHL1    O3 3181   5.293   2.849   6.110
   28CHL1   H3' 3182   5.335   2.769   6.143
   28CHL1    C4 3183   5.175   2.699   5.962
   28CHL1   H4A 3184   5.228   2.612   6.005
   28CHL1   H4B 3185   5.082   2.716   6.021
   28CHL1    C5 3186   5.133   2.659   5.815
   28CHL1    C6 3187   5.005   2.644   5.770
   28CHL1    H6 3188   4.915   2.646   5.834
   28CHL1    C7 3189   4.977   2.596   5.633
   28CHL1   H7A 3190   4.910   2.508   5.650
   28CHL1   H7B 3191   4.911   2.669   5.582
   28CHL1    C8 3192   5.090   2.540   5.552
   28CHL1    H8 3193   5.108   2.437   5.591
   28CHL1   C14 3194   5.058   2.537   5.404
   28CHL1   H14 3195   5.050   2.644   5.375
   28CHL1   C15 3196   4.931   2.462   5.355
   28CHL1  H15A 3197   4.925   2.364   5.407
   28CHL1  H15B 3198   4.839   2.521   5.375
   28CHL1   C16 3199   4.958   2.439   5.204
   28CHL1  H16A 3200   4.940   2.331   5.185
   28CHL1  H16B 3201   4.882   2.488   5.139
   28CHL1   C17 3202   5.110   2.478   5.169
   28CHL1   H17 3203   5.111   2.579   5.124
   28CHL1   C13 3204   5.170   2.485   5.313
   28CHL1   C18 3205   5.213   2.340   5.350
   28CHL1  H18A 3206   5.130   2.269   5.326
   28CHL1  H18B 3207   5.297   2.311   5.284
   28CHL1  H18C 3208   5.237   2.326   5.458
   28CHL1   C12 3209   5.290   2.581   5.329
   28CHL1  H12A 3210   5.382   2.548   5.276
   28CHL1  H12B 3211   5.274   2.684   5.290
   28CHL1   C11 3212   5.329   2.589   5.478
   28CHL1  H11A 3213   5.369   2.490   5.509
   28CHL1  H11B 3214   5.413   2.661   5.482
   28CHL1    C9 3215   5.213   2.625   5.570
   28CHL1    H9 3216   5.178   2.721   5.527
   28CHL1   C10 3217   5.254   2.640   5.723
   28CHL1   C19 3218   5.325   2.507   5.773
   28CHL1  H19A 3219   5.426   2.509   5.726
   28CHL1  H19B 3220   5.333   2.497   5.884
   28CHL1  H19C 3221   5.260   2.420   5.747
   28CHL1    C1 3222   5.343   2.776   5.734
   28CHL1   H1A 3223   5.439   2.760   5.679
   28CHL1   H1B 3224   5.288   2.867   5.702
   28CHL1    C2 3225   5.383   2.797   5.887
   28CHL1   H2A 3226   5.443   2.890   5.901
   28CHL1   H2B 3227   5.437   2.713   5.937
   28CHL1   C20 3228   5.168   2.388   5.063
   28CHL1   H20 3229   5.191   2.287   5.105
   28CHL1   C21 3230   5.303   2.446   5.023
   28CHL1  H21A 3231   5.370   2.394   4.951
   28CHL1  H21B 3232   5.376   2.442   5.107
   28CHL1  H21C 3233   5.298   2.551   4.987
   28CHL1   C22 3234   5.081   2.377   4.938
   28CHL1  H22A 3235   4.982   2.333   4.962
   28CHL1  H22B 3236   5.056   2.476   4.895
   28CHL1   C23 3237   5.155   2.295   4.833
   28CHL1  H23A 3238   5.238   2.349   4.782
   28CHL1  H23B 3239   5.196   2.199   4.872
   28CHL1   C24 3240   5.066   2.260   4.713
   28CHL1  H24A 3241   4.964   2.245   4.753
   28CHL1  H24B 3242   5.058   2.342   4.638
   28CHL1   C25 3243   5.111   2.133   4.644
   28CHL1   H25 3244   5.139   2.057   4.720
   28CHL1   C26 3245   5.003   2.082   4.547
   28CHL1  H26A 3246   5.000   2.132   4.448
   28CHL1  H26B 3247   5.016   1.973   4.534
   28CHL1  H26C 3248   4.899   2.100   4.583
   28CHL1   C27 3249   5.250   2.154   4.572
   28CHL1  H27A 3250   5.321   2.188   4.650
   28CHL1  H27B 3251   5.279   2.057   4.527
   28CHL1  H27C 3252   5.241   2.235   4.495
   29CHL1    C3 3253   2.633   4.532   6.112
   29CHL1    H3 3254   2.616   4.433   6.065
   29CHL1    O3 3255   2.641   4.520   6.250
   29CHL1   H3' 3256   2.666   4.608   6.281
   29CHL1    C4 3257   2.749   4.598   6.044
   29CHL1   H4A 3258   2.774   4.695   6.091
   29CHL1   H4B 3259   2.840   4.537   6.062
   29CHL1    C5 3260   2.726   4.611   5.890
   29CHL1    C6 3261   2.796   4.554   5.794
   29CHL1    H6 3262   2.880   4.489   5.824
   29CHL1    C7 3263   2.797   4.575   5.643
   29CHL1   H7A 3264   2.897   4.598   5.602
   29CHL1   H7B 3265   2.773   4.477   5.596
   29CHL1    C8 3266   2.697   4.695   5.612
   29CHL1    H8 3267   2.745   4.794   5.624
   29CHL1   C14 3268   2.655   4.680   5.469
   29CHL1   H14 3269   2.591   4.590   5.471
   29CHL1   C15 3270   2.761   4.654   5.353
   29CHL1  H15A 3271   2.858   4.707   5.364
   29CHL1  H15B 3272   2.793   4.547   5.354
   29CHL1   C16 3273   2.694   4.702   5.229
   29CHL1  H16A 3274   2.757   4.788   5.197
   29CHL1  H16B 3275   2.698   4.617   5.158
   29CHL1   C17 3276   2.548   4.742   5.264
   29CHL1   H17 3277   2.481   4.654   5.254
   29CHL1   C13 3278   2.554   4.782   5.410
   29CHL1   C18 3279   2.607   4.930   5.423
   29CHL1  H18A 3280   2.622   4.957   5.530
   29CHL1  H18B 3281   2.712   4.934   5.387
   29CHL1  H18C 3282   2.540   5.008   5.383
   29CHL1   C12 3283   2.424   4.763   5.495
   29CHL1  H12A 3284   2.344   4.832   5.460
   29CHL1  H12B 3285   2.390   4.658   5.481
   29CHL1   C11 3286   2.455   4.788   5.654
   29CHL1  H11A 3287   2.489   4.893   5.671
   29CHL1  H11B 3288   2.359   4.770   5.706
   29CHL1    C9 3289   2.570   4.691   5.703
   29CHL1    H9 3290   2.531   4.588   5.692
   29CHL1   C10 3291   2.604   4.695   5.847
   29CHL1   C19 3292   2.627   4.840   5.893
   29CHL1  H19A 3293   2.528   4.889   5.900
   29CHL1  H19B 3294   2.667   4.842   5.996
   29CHL1  H19C 3295   2.693   4.887   5.818
   29CHL1    C1 3296   2.488   4.629   5.923
   29CHL1   H1A 3297   2.395   4.688   5.908
   29CHL1   H1B 3298   2.470   4.530   5.877
   29CHL1    C2 3299   2.506   4.617   6.077
   29CHL1   H2A 3300   2.408   4.583   6.118
   29CHL1   H2B 3301   2.523   4.720   6.116
   29CHL1   C20 3302   2.490   4.848   5.167
   29CHL1   H20 3303   2.553   4.940   5.171
   29CHL1   C21 3304   2.346   4.887   5.200
   29CHL1  H21A 3305   2.294   4.940   5.117
   29CHL1  H21B 3306   2.348   4.960   5.283
   29CHL1  H21C 3307   2.291   4.794   5.227
   29CHL1   C22 3308   2.499   4.799   5.021
   29CHL1  H22A 3309   2.586   4.733   4.998
   29CHL1  H22B 3310   2.403   4.749   4.998
   29CHL1   C23 3311   2.484   4.913   4.919
   29CHL1  H23A 3312   2.414   4.995   4.944
   29CHL1  H23B 3313   2.581   4.966   4.918
   29CHL1   C24 3314   2.462   4.874   4.768
   29CHL1  H24A 3315   2.494   4.770   4.748
   29CHL1  H24B 3316   2.353   4.878   4.752
   29CHL1   C25 3317   2.540   4.954   4.656
   29CHL1   H25 3318   2.648   4.927   4.662
   29CHL1   C26 3319   2.495   4.893   4.519
   29CHL1  H26A 3320   2.524   4.787   4.502
   29CHL1  H26B 3321   2.385   4.899   4.510
   29CHL1  H26C 3322   2.540   4.947   4.433
   29CHL1   C27 3323   2.527   5.107   4.676
   29CHL1  H27A 3324   2.555   5.163   4.584
   29CHL1  H27B 3325   2.418   5.120   4.689
   29CHL1  H27C 3326   2.576   5.160   4.760
   30CHL1    C3 3327   2.542   4.025   5.964
   30CHL1    H3 3328   2.460   3.952   5.948
   30CHL1    O3 3329   2.601   4.001   6.091
   30CHL1   H3' 3330   2.533   3.997   6.159
   30CHL1    C4 3331   2.647   3.994   5.856
   30CHL1   H4A 3332   2.729   4.065   5.878
   30CHL1   H4B 3333   2.678   3.888   5.863
   30CHL1    C5 3334   2.591   4.025   5.715
   30CHL1    C6 3335   2.594   3.931   5.618
   30CHL1    H6 3336   2.653   3.840   5.637
   30CHL1    C7 3337   2.520   3.944   5.486
   30CHL1   H7A 3338   2.586   3.900   5.408
   30CHL1   H7B 3339   2.420   3.897   5.480
   30CHL1    C8 3340   2.510   4.093   5.452
   30CHL1    H8 3341   2.614   4.129   5.437
   30CHL1   C14 3342   2.434   4.105   5.324
   30CHL1   H14 3343   2.330   4.073   5.344
   30CHL1   C15 3344   2.481   4.024   5.195
   30CHL1  H15A 3345   2.592   4.017   5.195
   30CHL1  H15B 3346   2.439   3.921   5.191
   30CHL1   C16 3347   2.444   4.113   5.072
   30CHL1  H16A 3348   2.540   4.151   5.029
   30CHL1  H16B 3349   2.391   4.057   4.992
   30CHL1   C17 3350   2.373   4.241   5.132
   30CHL1   H17 3351   2.272   4.195   5.137
   30CHL1   C13 3352   2.423   4.254   5.272
   30CHL1   C18 3353   2.566   4.312   5.260
   30CHL1  H18A 3354   2.628   4.240   5.202
   30CHL1  H18B 3355   2.580   4.411   5.212
   30CHL1  H18C 3356   2.619   4.329   5.357
   30CHL1   C12 3357   2.335   4.326   5.375
   30CHL1  H12A 3358   2.330   4.436   5.360
   30CHL1  H12B 3359   2.229   4.292   5.371
   30CHL1   C11 3360   2.403   4.311   5.513
   30CHL1  H11A 3361   2.494   4.374   5.505
   30CHL1  H11B 3362   2.339   4.358   5.591
   30CHL1    C9 3363   2.437   4.167   5.566
   30CHL1    H9 3364   2.338   4.118   5.578
   30CHL1   C10 3365   2.514   4.159   5.695
   30CHL1   C19 3366   2.624   4.274   5.695
   30CHL1  H19A 3367   2.697   4.265   5.778
   30CHL1  H19B 3368   2.680   4.298   5.602
   30CHL1  H19C 3369   2.573   4.368   5.724
   30CHL1    C1 3370   2.419   4.184   5.810
   30CHL1   H1A 3371   2.383   4.289   5.804
   30CHL1   H1B 3372   2.326   4.124   5.799
   30CHL1    C2 3373   2.483   4.166   5.948
   30CHL1   H2A 3374   2.404   4.184   6.024
   30CHL1   H2B 3375   2.569   4.235   5.961
   30CHL1   C20 3376   2.360   4.370   5.043
   30CHL1   H20 3377   2.454   4.428   5.059
   30CHL1   C21 3378   2.229   4.440   5.070
   30CHL1  H21A 3379   2.144   4.369   5.060
   30CHL1  H21B 3380   2.210   4.531   5.010
   30CHL1  H21C 3381   2.222   4.478   5.174
   30CHL1   C22 3382   2.363   4.333   4.892
   30CHL1  H22A 3383   2.438   4.254   4.869
   30CHL1  H22B 3384   2.264   4.292   4.865
   30CHL1   C23 3385   2.397   4.445   4.792
   30CHL1  H23A 3386   2.379   4.548   4.830
   30CHL1  H23B 3387   2.507   4.447   4.774
   30CHL1   C24 3388   2.333   4.415   4.654
   30CHL1  H24A 3389   2.358   4.311   4.624
   30CHL1  H24B 3390   2.224   4.408   4.676
   30CHL1   C25 3391   2.360   4.512   4.545
   30CHL1   H25 3392   2.335   4.613   4.585
   30CHL1   C26 3393   2.504   4.520   4.496
   30CHL1  H26A 3394   2.512   4.594   4.414
   30CHL1  H26B 3395   2.571   4.555   4.578
   30CHL1  H26C 3396   2.543   4.421   4.465
   30CHL1   C27 3397   2.272   4.481   4.419
   30CHL1  H27A 3398   2.165   4.466   4.443
   30CHL1  H27B 3399   2.273   4.572   4.356
   30CHL1  H27C 3400   2.310   4.392   4.364
   31CHL1    C3 3401   1.932   4.159   6.230
   31CHL1    H3 3402   1.995   4.083   6.180
   31CHL1    O3 3403   1.934   4.123   6.369
   31CHL1   H3' 3404   1.875   4.182   6.417
   31CHL1    C4 3405   1.999   4.295   6.212
   31CHL1   H4A 3406   1.945   4.357   6.287
   31CHL1   H4B 3407   2.103   4.284   6.248
   31CHL1    C5 3408   2.004   4.346   6.071
   31CHL1    C6 3409   2.121   4.378   6.009
   31CHL1    H6 3410   2.218   4.371   6.060
   31CHL1    C7 3411   2.127   4.421   5.866
   31CHL1   H7A 3412   2.180   4.518   5.878
   31CHL1   H7B 3413   2.185   4.360   5.793
   31CHL1    C8 3414   1.993   4.464   5.803
   31CHL1    H8 3415   1.967   4.561   5.850
   31CHL1   C14 3416   1.996   4.480   5.651
   31CHL1   H14 3417   2.010   4.376   5.614
   31CHL1   C15 3418   2.106   4.562   5.587
   31CHL1  H15A 3419   2.133   4.665   5.619
   31CHL1  H15B 3420   2.199   4.501   5.600
   31CHL1   C16 3421   2.064   4.576   5.437
   31CHL1  H16A 3422   2.061   4.685   5.419
   31CHL1  H16B 3423   2.133   4.537   5.359
   31CHL1   C17 3424   1.921   4.519   5.426
   31CHL1   H17 3425   1.937   4.413   5.398
   31CHL1   C13 3426   1.870   4.524   5.576
   31CHL1   C18 3427   1.830   4.670   5.614
   31CHL1  H18A 3428   1.892   4.741   5.555
   31CHL1  H18B 3429   1.722   4.682   5.590
   31CHL1  H18C 3430   1.850   4.699   5.720
   31CHL1   C12 3431   1.758   4.421   5.618
   31CHL1  H12A 3432   1.657   4.449   5.580
   31CHL1  H12B 3433   1.790   4.322   5.581
   31CHL1   C11 3434   1.753   4.413   5.775
   31CHL1  H11A 3435   1.700   4.502   5.812
   31CHL1  H11B 3436   1.681   4.334   5.804
   31CHL1    C9 3437   1.881   4.365   5.844
   31CHL1    H9 3438   1.906   4.264   5.805
   31CHL1   C10 3439   1.874   4.348   5.997
   31CHL1   C19 3440   1.780   4.462   6.045
   31CHL1  H19A 3441   1.782   4.465   6.156
   31CHL1  H19B 3442   1.810   4.564   6.013
   31CHL1  H19C 3443   1.673   4.436   6.031
   31CHL1    C1 3444   1.796   4.218   6.034
   31CHL1   H1A 3445   1.695   4.231   5.990
   31CHL1   H1B 3446   1.818   4.122   5.981
   31CHL1    C2 3447   1.792   4.179   6.176
   31CHL1   H2A 3448   1.738   4.081   6.179
   31CHL1   H2B 3449   1.742   4.258   6.236
   31CHL1   C20 3450   1.837   4.576   5.314
   31CHL1   H20 3451   1.830   4.687   5.322
   31CHL1   C21 3452   1.691   4.523   5.319
   31CHL1  H21A 3453   1.685   4.412   5.331
   31CHL1  H21B 3454   1.624   4.547   5.233
   31CHL1  H21C 3455   1.642   4.582   5.399
   31CHL1   C22 3456   1.903   4.560   5.168
   31CHL1  H22A 3457   1.987   4.633   5.166
   31CHL1  H22B 3458   1.940   4.459   5.142
   31CHL1   C23 3459   1.804   4.601   5.053
   31CHL1  H23A 3460   1.734   4.516   5.037
   31CHL1  H23B 3461   1.740   4.683   5.092
   31CHL1   C24 3462   1.879   4.659   4.932
   31CHL1  H24A 3463   1.925   4.758   4.953
   31CHL1  H24B 3464   1.961   4.587   4.909
   31CHL1   C25 3465   1.802   4.655   4.793
   31CHL1   H25 3466   1.765   4.550   4.787
   31CHL1   C26 3467   1.678   4.748   4.792
   31CHL1  H26A 3468   1.605   4.721   4.713
   31CHL1  H26B 3469   1.628   4.759   4.890
   31CHL1  H26C 3470   1.704   4.851   4.760
   31CHL1   C27 3471   1.899   4.684   4.672
   31CHL1  H27A 3472   1.851   4.695   4.573
   31CHL1  H27B 3473   1.933   4.787   4.697
   31CHL1  H27C 3474   1.971   4.599   4.673
   32CHL1    C3 3475   1.491   2.364   5.642
   32CHL1    H3 3476   1.540   2.270   5.608
   32CHL1    O3 3477   1.424   2.341   5.771
   32CHL1   H3' 3478   1.368   2.418   5.782
   32CHL1    C4 3479   1.595   2.472   5.660
   32CHL1   H4A 3480   1.545   2.560   5.706
   32CHL1   H4B 3481   1.672   2.441   5.733
   32CHL1    C5 3482   1.661   2.520   5.529
   32CHL1    C6 3483   1.789   2.512   5.510
   32CHL1    H6 3484   1.849   2.481   5.597
   32CHL1    C7 3485   1.862   2.557   5.387
   32CHL1   H7A 3486   1.955   2.613   5.411
   32CHL1   H7B 3487   1.888   2.462   5.336
   32CHL1    C8 3488   1.777   2.631   5.287
   32CHL1    H8 3489   1.768   2.739   5.313
   32CHL1   C14 3490   1.840   2.624   5.146
   32CHL1   H14 3491   1.850   2.517   5.119
   32CHL1   C15 3492   1.985   2.673   5.123
   32CHL1  H15A 3493   1.994   2.774   5.168
   32CHL1  H15B 3494   2.060   2.599   5.158
   32CHL1   C16 3495   1.986   2.688   4.970
   32CHL1  H16A 3496   2.003   2.797   4.958
   32CHL1  H16B 3497   2.065   2.630   4.917
   32CHL1   C17 3498   1.846   2.666   4.918
   32CHL1   H17 3499   1.841   2.556   4.901
   32CHL1   C13 3500   1.745   2.686   5.035
   32CHL1   C18 3501   1.722   2.843   5.058
   32CHL1  H18A 3502   1.823   2.888   5.049
   32CHL1  H18B 3503   1.657   2.896   4.985
   32CHL1  H18C 3504   1.694   2.853   5.165
   32CHL1   C12 3505   1.613   2.611   5.026
   32CHL1  H12A 3506   1.554   2.639   4.936
   32CHL1  H12B 3507   1.623   2.502   5.005
   32CHL1   C11 3508   1.539   2.619   5.163
   32CHL1  H11A 3509   1.505   2.724   5.177
   32CHL1  H11B 3510   1.464   2.537   5.165
   32CHL1    C9 3511   1.632   2.576   5.278
   32CHL1    H9 3512   1.662   2.471   5.257
   32CHL1   C10 3513   1.564   2.564   5.418
   32CHL1   C19 3514   1.502   2.698   5.453
   32CHL1  H19A 3515   1.481   2.712   5.561
   32CHL1  H19B 3516   1.558   2.790   5.426
   32CHL1  H19C 3517   1.406   2.722   5.403
   32CHL1    C1 3518   1.449   2.454   5.408
   32CHL1   H1A 3519   1.373   2.487   5.334
   32CHL1   H1B 3520   1.508   2.371   5.364
   32CHL1    C2 3521   1.388   2.410   5.542
   32CHL1   H2A 3522   1.311   2.333   5.522
   32CHL1   H2B 3523   1.341   2.506   5.574
   32CHL1   C20 3524   1.823   2.737   4.781
   32CHL1   H20 3525   1.713   2.747   4.797
   32CHL1   C21 3526   1.847   2.641   4.663
   32CHL1  H21A 3527   1.775   2.558   4.680
   32CHL1  H21B 3528   1.952   2.606   4.657
   32CHL1  H21C 3529   1.828   2.699   4.570
   32CHL1   C22 3530   1.896   2.877   4.753
   32CHL1  H22A 3531   1.872   2.944   4.837
   32CHL1  H22B 3532   2.006   2.857   4.755
   32CHL1   C23 3533   1.845   2.949   4.629
   32CHL1  H23A 3534   1.849   2.886   4.538
   32CHL1  H23B 3535   1.739   2.981   4.637
   32CHL1   C24 3536   1.931   3.070   4.608
   32CHL1  H24A 3537   1.933   3.150   4.684
   32CHL1  H24B 3538   2.036   3.034   4.611
   32CHL1   C25 3539   1.916   3.117   4.459
   32CHL1   H25 3540   1.936   3.028   4.396
   32CHL1   C26 3541   1.780   3.176   4.432
   32CHL1  H26A 3542   1.770   3.189   4.322
   32CHL1  H26B 3543   1.694   3.112   4.462
   32CHL1  H26C 3544   1.763   3.267   4.492
   32CHL1   C27 3545   2.017   3.236   4.432
   32CHL1  H27A 3546   2.121   3.211   4.401
   32CHL1  H27B 3547   1.978   3.307   4.356
   32CHL1  H27C 3548   2.036   3.291   4.527
   33CHL1    C3 3549   0.381   1.495   5.392
   33CHL1    H3 3550   0.475   1.441   5.368
   33CHL1    O3 3551   0.318   1.432   5.499
   33CHL1   H3' 3552   0.353   1.344   5.514
   33CHL1    C4 3553   0.417   1.639   5.421
   33CHL1   H4A 3554   0.315   1.681   5.434
   33CHL1   H4B 3555   0.478   1.648   5.514
   33CHL1    C5 3556   0.471   1.716   5.304
   33CHL1    C6 3557   0.582   1.790   5.316
   33CHL1    H6 3558   0.624   1.789   5.418
   33CHL1    C7 3559   0.659   1.856   5.207
   33CHL1   H7A 3560   0.687   1.961   5.230
   33CHL1   H7B 3561   0.750   1.793   5.194
   33CHL1    C8 3562   0.576   1.858   5.074
   33CHL1    H8 3563   0.499   1.935   5.096
   33CHL1   C14 3564   0.669   1.896   4.962
   33CHL1   H14 3565   0.742   1.812   4.961
   33CHL1   C15 3566   0.744   2.025   4.979
   33CHL1  H15A 3567   0.669   2.086   5.034
   33CHL1  H15B 3568   0.832   2.023   5.047
   33CHL1   C16 3569   0.777   2.074   4.845
   33CHL1  H16A 3570   0.732   2.172   4.819
   33CHL1  H16B 3571   0.888   2.082   4.839
   33CHL1   C17 3572   0.727   1.955   4.748
   33CHL1   H17 3573   0.811   1.885   4.768
   33CHL1   C13 3574   0.606   1.902   4.826
   33CHL1   C18 3575   0.483   1.995   4.820
   33CHL1  H18A 3576   0.404   1.980   4.898
   33CHL1  H18B 3577   0.519   2.098   4.840
   33CHL1  H18C 3578   0.442   1.996   4.717
   33CHL1   C12 3579   0.558   1.759   4.794
   33CHL1  H12A 3580   0.499   1.754   4.700
   33CHL1  H12B 3581   0.646   1.692   4.778
   33CHL1   C11 3582   0.464   1.707   4.901
   33CHL1  H11A 3583   0.369   1.760   4.882
   33CHL1  H11B 3584   0.435   1.601   4.882
   33CHL1    C9 3585   0.507   1.716   5.048
   33CHL1    H9 3586   0.586   1.639   5.054
   33CHL1   C10 3587   0.409   1.680   5.164
   33CHL1   C19 3588   0.285   1.767   5.150
   33CHL1  H19A 3589   0.304   1.873   5.123
   33CHL1  H19B 3590   0.234   1.718   5.064
   33CHL1  H19C 3591   0.228   1.757   5.245
   33CHL1    C1 3592   0.372   1.531   5.152
   33CHL1   H1A 3593   0.306   1.512   5.064
   33CHL1   H1B 3594   0.464   1.470   5.137
   33CHL1    C2 3595   0.286   1.483   5.272
   33CHL1   H2A 3596   0.264   1.375   5.257
   33CHL1   H2B 3597   0.195   1.538   5.302
   33CHL1   C20 3598   0.711   1.990   4.600
   33CHL1   H20 3599   0.608   2.027   4.582
   33CHL1   C21 3600   0.724   1.857   4.519
   33CHL1  H21A 3601   0.656   1.783   4.565
   33CHL1  H21B 3602   0.826   1.816   4.537
   33CHL1  H21C 3603   0.708   1.869   4.409
   33CHL1   C22 3604   0.820   2.093   4.548
   33CHL1  H22A 3605   0.812   2.185   4.610
   33CHL1  H22B 3606   0.913   2.045   4.585
   33CHL1   C23 3607   0.837   2.135   4.395
   33CHL1  H23A 3608   0.910   2.218   4.398
   33CHL1  H23B 3609   0.881   2.053   4.333
   33CHL1   C24 3610   0.717   2.178   4.324
   33CHL1  H24A 3611   0.633   2.106   4.335
   33CHL1  H24B 3612   0.688   2.262   4.391
   33CHL1   C25 3613   0.733   2.234   4.178
   33CHL1   H25 3614   0.631   2.255   4.140
   33CHL1   C26 3615   0.805   2.373   4.162
   33CHL1  H26A 3616   0.766   2.448   4.235
   33CHL1  H26B 3617   0.914   2.363   4.179
   33CHL1  H26C 3618   0.808   2.410   4.057
   33CHL1   C27 3619   0.800   2.131   4.081
   33CHL1  H27A 3620   0.909   2.115   4.099
   33CHL1  H27B 3621   0.745   2.036   4.096
   33CHL1  H27C 3622   0.784   2.165   3.977
   34CHL1    C3 3623   1.820   2.693   6.040
   34CHL1    H3 3624   1.890   2.609   6.022
   34CHL1    O3 3625   1.761   2.664   6.164
   34CHL1   H3' 3626   1.708   2.738   6.195
   34CHL1    C4 3627   1.891   2.830   6.048
   34CHL1   H4A 3628   1.819   2.906   6.084
   34CHL1   H4B 3629   1.965   2.803   6.126
   34CHL1    C5 3630   1.964   2.866   5.918
   34CHL1    C6 3631   2.095   2.891   5.906
   34CHL1    H6 3632   2.153   2.888   6.000
   34CHL1    C7 3633   2.158   2.966   5.793
   34CHL1   H7A 3634   2.214   3.059   5.815
   34CHL1   H7B 3635   2.233   2.897   5.749
   34CHL1    C8 3636   2.061   3.002   5.676
   34CHL1    H8 3637   2.009   3.100   5.684
   34CHL1   C14 3638   2.126   3.020   5.539
   34CHL1   H14 3639   2.170   2.920   5.521
   34CHL1   C15 3640   2.254   3.105   5.539
   34CHL1  H15A 3641   2.238   3.208   5.579
   34CHL1  H15B 3642   2.332   3.047   5.593
   34CHL1   C16 3643   2.277   3.124   5.390
   34CHL1  H16A 3644   2.296   3.233   5.378
   34CHL1  H16B 3645   2.366   3.069   5.353
   34CHL1   C17 3646   2.152   3.078   5.315
   34CHL1   H17 3647   2.181   2.977   5.280
   34CHL1   C13 3648   2.040   3.054   5.423
   34CHL1   C18 3649   1.975   3.193   5.438
   34CHL1  H18A 3650   2.054   3.269   5.454
   34CHL1  H18B 3651   1.922   3.222   5.344
   34CHL1  H18C 3652   1.902   3.186   5.522
   34CHL1   C12 3653   1.931   2.949   5.407
   34CHL1  H12A 3654   1.873   2.978   5.317
   34CHL1  H12B 3655   1.987   2.855   5.386
   34CHL1   C11 3656   1.855   2.921   5.539
   34CHL1  H11A 3657   1.793   3.013   5.548
   34CHL1  H11B 3658   1.789   2.834   5.518
   34CHL1    C9 3659   1.947   2.899   5.663
   34CHL1    H9 3660   2.006   2.806   5.647
   34CHL1   C10 3661   1.866   2.872   5.794
   34CHL1   C19 3662   1.754   2.986   5.800
   34CHL1  H19A 3663   1.805   3.076   5.759
   34CHL1  H19B 3664   1.665   2.961   5.739
   34CHL1  H19C 3665   1.725   2.996   5.906
   34CHL1    C1 3666   1.792   2.733   5.787
   34CHL1   H1A 3667   1.716   2.722   5.706
   34CHL1   H1B 3668   1.868   2.656   5.763
   34CHL1    C2 3669   1.719   2.698   5.922
   34CHL1   H2A 3670   1.668   2.601   5.909
   34CHL1   H2B 3671   1.649   2.779   5.950
   34CHL1   C20 3672   2.129   3.152   5.181
   34CHL1   H20 3673   2.078   3.249   5.199
   34CHL1   C21 3674   2.026   3.073   5.095
   34CHL1  H21A 3675   1.990   3.126   5.004
   34CHL1  H21B 3676   1.935   3.051   5.155
   34CHL1  H21C 3677   2.062   2.969   5.075
   34CHL1   C22 3678   2.253   3.168   5.089
   34CHL1  H22A 3679   2.327   3.231   5.143
   34CHL1  H22B 3680   2.309   3.074   5.071
   34CHL1   C23 3681   2.239   3.232   4.947
   34CHL1  H23A 3682   2.159   3.178   4.892
   34CHL1  H23B 3683   2.199   3.334   4.963
   34CHL1   C24 3684   2.375   3.245   4.877
   34CHL1  H24A 3685   2.439   3.317   4.933
   34CHL1  H24B 3686   2.433   3.150   4.882
   34CHL1   C25 3687   2.380   3.299   4.733
   34CHL1   H25 3688   2.322   3.234   4.664
   34CHL1   C26 3689   2.314   3.434   4.723
   34CHL1  H26A 3690   2.340   3.491   4.815
   34CHL1  H26B 3691   2.347   3.480   4.627
   34CHL1  H26C 3692   2.203   3.433   4.720
   34CHL1   C27 3693   2.524   3.308   4.679
   34CHL1  H27A 3694   2.585   3.215   4.683
   34CHL1  H27B 3695   2.514   3.340   4.574
   34CHL1  H27C 3696   2.585   3.388   4.726
   35CHL1    C3 3697   3.892   5.940   6.063
   35CHL1    H3 3698   3.912   5.831   6.078
   35CHL1    O3 3699   3.847   5.973   6.189
   35CHL1   H3' 3700   3.839   6.067   6.202
   35CHL1    C4 3701   4.021   6.010   6.008
   35CHL1   H4A 3702   4.003   6.119   6.005
   35CHL1   H4B 3703   4.107   5.988   6.074
   35CHL1    C5 3704   4.067   5.958   5.873
   35CHL1    C6 3705   4.188   5.902   5.847
   35CHL1    H6 3706   4.260   5.903   5.930
   35CHL1    C7 3707   4.232   5.858   5.714
   35CHL1   H7A 3708   4.336   5.895   5.698
   35CHL1   H7B 3709   4.251   5.748   5.723
   35CHL1    C8 3710   4.144   5.885   5.594
   35CHL1    H8 3711   4.158   5.989   5.558
   35CHL1   C14 3712   4.171   5.788   5.486
   35CHL1   H14 3713   4.126   5.693   5.521
   35CHL1   C15 3714   4.319   5.761   5.436
   35CHL1  H15A 3715   4.380   5.853   5.432
   35CHL1  H15B 3716   4.354   5.687   5.512
   35CHL1   C16 3717   4.301   5.693   5.301
   35CHL1  H16A 3718   4.346   5.767   5.232
   35CHL1  H16B 3719   4.349   5.593   5.285
   35CHL1   C17 3720   4.149   5.692   5.273
   35CHL1   H17 3721   4.100   5.601   5.312
   35CHL1   C13 3722   4.094   5.810   5.354
   35CHL1   C18 3723   4.138   5.943   5.290
   35CHL1  H18A 3724   4.091   6.026   5.347
   35CHL1  H18B 3725   4.248   5.962   5.285
   35CHL1  H18C 3726   4.107   5.956   5.184
   35CHL1   C12 3727   3.940   5.807   5.391
   35CHL1  H12A 3728   3.895   5.821   5.290
   35CHL1  H12B 3729   3.901   5.710   5.428
   35CHL1   C11 3730   3.906   5.903   5.507
   35CHL1  H11A 3731   3.914   6.009   5.473
   35CHL1  H11B 3732   3.799   5.888   5.532
   35CHL1    C9 3733   3.997   5.882   5.633
   35CHL1    H9 3734   3.981   5.775   5.661
   35CHL1   C10 3735   3.961   5.961   5.757
   35CHL1   C19 3736   3.937   6.106   5.710
   35CHL1  H19A 3737   3.856   6.115   5.636
   35CHL1  H19B 3738   3.908   6.175   5.792
   35CHL1  H19C 3739   4.024   6.146   5.654
   35CHL1    C1 3740   3.828   5.899   5.826
   35CHL1   H1A 3741   3.740   5.903   5.757
   35CHL1   H1B 3742   3.847   5.790   5.836
   35CHL1    C2 3743   3.778   5.965   5.962
   35CHL1   H2A 3744   3.683   5.913   5.985
   35CHL1   H2B 3745   3.764   6.075   5.967
   35CHL1   C20 3746   4.119   5.690   5.118
   35CHL1   H20 3747   4.145   5.785   5.067
   35CHL1   C21 3748   3.969   5.667   5.076
   35CHL1  H21A 3749   3.894   5.746   5.093
   35CHL1  H21B 3750   3.939   5.572   5.125
   35CHL1  H21C 3751   3.958   5.647   4.967
   35CHL1   C22 3752   4.209   5.578   5.051
   35CHL1  H22A 3753   4.314   5.606   5.072
   35CHL1  H22B 3754   4.197   5.480   5.103
   35CHL1   C23 3755   4.195   5.556   4.902
   35CHL1  H23A 3756   4.259   5.471   4.871
   35CHL1  H23B 3757   4.092   5.522   4.876
   35CHL1   C24 3758   4.227   5.673   4.810
   35CHL1  H24A 3759   4.150   5.753   4.807
   35CHL1  H24B 3760   4.320   5.725   4.838
   35CHL1   C25 3761   4.239   5.627   4.664
   35CHL1   H25 3762   4.189   5.528   4.654
   35CHL1   C26 3763   4.176   5.725   4.565
   35CHL1  H26A 3764   4.215   5.827   4.589
   35CHL1  H26B 3765   4.204   5.697   4.461
   35CHL1  H26C 3766   4.068   5.739   4.586
   35CHL1   C27 3767   4.387   5.608   4.631
   35CHL1  H27A 3768   4.405   5.557   4.534
   35CHL1  H27B 3769   4.443   5.704   4.641
   35CHL1  H27C 3770   4.429   5.533   4.701
   36CHL1    C3 3771   6.620   4.257   5.913
   36CHL1    H3 3772   6.694   4.179   5.942
   36CHL1    O3 3773   6.572   4.326   6.027
   36CHL1   H3' 3774   6.531   4.257   6.078
   36CHL1    C4 3775   6.682   4.360   5.820
   36CHL1   H4A 3776   6.616   4.448   5.800
   36CHL1   H4B 3777   6.780   4.391   5.861
   36CHL1    C5 3778   6.724   4.321   5.676
   36CHL1    C6 3779   6.846   4.349   5.621
   36CHL1    H6 3780   0.017   4.392   5.693
   36CHL1    C7 3781   6.885   4.309   5.481
   36CHL1   H7A 3782   0.048   4.390   5.437
   36CHL1   H7B 3783   0.041   4.214   5.474
   36CHL1    C8 3784   6.758   4.272   5.402
   36CHL1    H8 3785   6.707   4.365   5.370
   36CHL1   C14 3786   6.799   4.199   5.278
   36CHL1   H14 3787   6.848   4.102   5.301
   36CHL1   C15 3788   6.896   4.270   5.184
   36CHL1  H15A 3789   6.857   4.368   5.149
   36CHL1  H15B 3790   0.096   4.278   5.231
   36CHL1   C16 3791   6.888   4.183   5.056
   36CHL1  H16A 3792   6.879   4.259   4.975
   36CHL1  H16B 3793   0.077   4.120   5.039
   36CHL1   C17 3794   6.767   4.092   5.066
   36CHL1   H17 3795   6.802   3.991   5.096
   36CHL1   C13 3796   6.688   4.149   5.184
   36CHL1   C18 3797   6.610   4.276   5.123
   36CHL1  H18A 3798   6.518   4.234   5.077
   36CHL1  H18B 3799   6.585   4.341   5.209
   36CHL1  H18C 3800   6.665   4.341   5.052
   36CHL1   C12 3801   6.599   4.056   5.263
   36CHL1  H12A 3802   6.510   4.026   5.204
   36CHL1  H12B 3803   6.657   3.965   5.288
   36CHL1   C11 3804   6.548   4.114   5.399
   36CHL1  H11A 3805   6.467   4.187   5.376
   36CHL1  H11B 3806   6.506   4.027   5.454
   36CHL1    C9 3807   6.664   4.178   5.479
   36CHL1    H9 3808   6.725   4.088   5.499
   36CHL1   C10 3809   6.613   4.241   5.607
   36CHL1   C19 3810   6.508   4.348   5.566
   36CHL1  H19A 3811   6.543   4.423   5.491
   36CHL1  H19B 3812   6.409   4.303   5.545
   36CHL1  H19C 3813   6.474   4.402   5.657
   36CHL1    C1 3814   6.557   4.143   5.702
   36CHL1   H1A 3815   6.470   4.092   5.655
   36CHL1   H1B 3816   6.638   4.074   5.733
   36CHL1    C2 3817   6.507   4.197   5.832
   36CHL1   H2A 3818   6.456   4.111   5.881
   36CHL1   H2B 3819   6.435   4.278   5.809
   36CHL1   C20 3820   6.687   4.056   4.929
   36CHL1   H20 3821   6.643   4.144   4.878
   36CHL1   C21 3822   6.563   3.970   4.963
   36CHL1  H21A 3823   6.533   3.900   4.882
   36CHL1  H21B 3824   6.474   4.028   4.993
   36CHL1  H21C 3825   6.587   3.902   5.048
   36CHL1   C22 3826   6.783   3.983   4.837
   36CHL1  H22A 3827   6.880   4.036   4.829
   36CHL1  H22B 3828   6.808   3.888   4.890
   36CHL1   C23 3829   6.733   3.963   4.688
   36CHL1  H23A 3830   6.638   3.907   4.697
   36CHL1  H23B 3831   6.716   4.065   4.647
   36CHL1   C24 3832   6.831   3.885   4.597
   36CHL1  H24A 3833   0.034   3.923   4.585
   36CHL1  H24B 3834   6.850   3.782   4.635
   36CHL1   C25 3835   6.772   3.879   4.456
   36CHL1   H25 3836   6.753   3.981   4.415
   36CHL1   C26 3837   6.872   3.822   4.350
   36CHL1  H26A 3838   6.855   3.876   4.254
   36CHL1  H26B 3839   0.080   3.829   4.376
   36CHL1  H26C 3840   6.858   3.714   4.328
   36CHL1   C27 3841   6.641   3.798   4.445
   36CHL1  H27A 3842   6.654   3.690   4.466
   36CHL1  H27B 3843   6.561   3.841   4.509
   36CHL1  H27C 3844   6.607   3.810   4.340
   37CHL1    C3 3845   0.687   0.395   5.323
   37CHL1    H3 3846   0.777   0.341   5.360
   37CHL1    O3 3847   0.602   0.410   5.439
   37CHL1   H3' 3848   0.517   0.441   5.406
   37CHL1    C4 3849   0.731   0.535   5.279
   37CHL1   H4A 3850   0.648   0.608   5.281
   37CHL1   H4B 3851   0.802   0.570   5.357
   37CHL1    C5 3852   0.812   0.527   5.152
   37CHL1    C6 3853   0.928   0.596   5.135
   37CHL1    H6 3854   0.966   0.660   5.216
   37CHL1    C7 3855   1.023   0.591   5.023
   37CHL1   H7A 3856   1.063   0.690   4.993
   37CHL1   H7B 3857   1.112   0.526   5.037
   37CHL1    C8 3858   0.958   0.526   4.894
   37CHL1    H8 3859   0.889   0.601   4.849
   37CHL1   C14 3860   1.065   0.487   4.789
   37CHL1   H14 3861   1.126   0.411   4.842
   37CHL1   C15 3862   1.176   0.593   4.753
   37CHL1  H15A 3863   1.128   0.688   4.724
   37CHL1  H15B 3864   1.244   0.608   4.840
   37CHL1   C16 3865   1.245   0.534   4.629
   37CHL1  H16A 3866   1.252   0.615   4.554
   37CHL1  H16B 3867   1.346   0.489   4.634
   37CHL1   C17 3868   1.147   0.421   4.582
   37CHL1   H17 3869   1.182   0.320   4.615
   37CHL1   C13 3870   1.012   0.435   4.655
   37CHL1   C18 3871   0.923   0.541   4.596
   37CHL1  H18A 3872   0.972   0.641   4.598
   37CHL1  H18B 3873   0.913   0.508   4.491
   37CHL1  H18C 3874   0.820   0.540   4.637
   37CHL1   C12 3875   0.942   0.308   4.690
   37CHL1  H12A 3876   0.896   0.254   4.605
   37CHL1  H12B 3877   1.018   0.236   4.726
   37CHL1   C11 3878   0.828   0.330   4.799
   37CHL1  H11A 3879   0.750   0.385   4.742
   37CHL1  H11B 3880   0.791   0.228   4.827
   37CHL1    C9 3881   0.877   0.404   4.930
   37CHL1    H9 3882   0.944   0.328   4.976
   37CHL1   C10 3883   0.766   0.432   5.036
   37CHL1   C19 3884   0.653   0.501   4.969
   37CHL1  H19A 3885   0.568   0.522   5.038
   37CHL1  H19B 3886   0.680   0.601   4.929
   37CHL1  H19C 3887   0.601   0.440   4.893
   37CHL1    C1 3888   0.711   0.296   5.095
   37CHL1   H1A 3889   0.658   0.230   5.023
   37CHL1   H1B 3890   0.797   0.243   5.141
   37CHL1    C2 3891   0.615   0.318   5.209
   37CHL1   H2A 3892   0.598   0.212   5.240
   37CHL1   H2B 3893   0.524   0.364   5.167
   37CHL1   C20 3894   1.151   0.405   4.428
   37CHL1   H20 3895   1.103   0.499   4.393
   37CHL1   C21 3896   1.067   0.280   4.379
   37CHL1  H21A 3897   1.094   0.186   4.432
   37CHL1  H21B 3898   1.079   0.273   4.269
   37CHL1  H21C 3899   0.958   0.299   4.386
   37CHL1   C22 3900   1.301   0.391   4.374
   37CHL1  H22A 3901   1.298   0.403   4.264
   37CHL1  H22B 3902   1.348   0.481   4.420
   37CHL1   C23 3903   1.381   0.268   4.423
   37CHL1  H23A 3904   1.365   0.257   4.532
   37CHL1  H23B 3905   1.335   0.174   4.385
   37CHL1   C24 3906   1.530   0.263   4.377
   37CHL1  H24A 3907   1.565   0.164   4.412
   37CHL1  H24B 3908   1.549   0.277   4.269
   37CHL1   C25 3909   1.623   0.370   4.437
   37CHL1   H25 3910   1.593   0.472   4.403
   37CHL1   C26 3911   1.615   0.367   4.590
   37CHL1  H26A 3912   1.511   0.388   4.623
   37CHL1  H26B 3913   1.650   0.267   4.620
   37CHL1  H26C 3914   1.677   0.445   4.639
   37CHL1   C27 3915   1.766   0.341   4.387
   37CHL1  H27A 3916   1.806   0.244   4.426
   37CHL1  H27B 3917   1.774   0.348   4.277
   37CHL1  H27C 3918   1.831   0.426   4.418
   38CHL1    C3 3919   1.344   1.187   5.974
   38CHL1    H3 3920   1.453   1.196   5.989
   38CHL1    O3 3921   1.276   1.155   6.097
   38CHL1   H3' 3922   1.181   1.166   6.082
   38CHL1    C4 3923   1.285   1.320   5.930
   38CHL1   H4A 3924   1.174   1.322   5.930
   38CHL1   H4B 3925   1.321   1.392   6.006
   38CHL1    C5 3926   1.343   1.368   5.792
   38CHL1    C6 3927   1.405   1.487   5.779
   38CHL1    H6 3928   1.415   1.562   5.858
   38CHL1    C7 3929   1.452   1.531   5.643
   38CHL1   H7A 3930   1.435   1.640   5.634
   38CHL1   H7B 3931   1.563   1.518   5.641
   38CHL1    C8 3932   1.397   1.466   5.522
   38CHL1    H8 3933   1.294   1.501   5.503
   38CHL1   C14 3934   1.475   1.492   5.394
   38CHL1   H14 3935   1.579   1.460   5.417
   38CHL1   C15 3936   1.497   1.639   5.360
   38CHL1  H15A 3937   1.408   1.703   5.344
   38CHL1  H15B 3938   1.570   1.685   5.431
   38CHL1   C16 3939   1.559   1.633   5.222
   38CHL1  H16A 3940   1.514   1.708   5.153
   38CHL1  H16B 3941   1.666   1.661   5.231
   38CHL1   C17 3942   1.533   1.488   5.166
   38CHL1   H17 3943   1.626   1.432   5.188
   38CHL1   C13 3944   1.431   1.422   5.267
   38CHL1   C18 3945   1.289   1.459   5.230
   38CHL1  H18A 3946   1.214   1.422   5.303
   38CHL1  H18B 3947   1.272   1.568   5.221
   38CHL1  H18C 3948   1.259   1.413   5.133
   38CHL1   C12 3949   1.443   1.267   5.292
   38CHL1  H12A 3950   1.405   1.204   5.209
   38CHL1  H12B 3951   1.550   1.252   5.320
   38CHL1   C11 3952   1.363   1.224   5.425
   38CHL1  H11A 3953   1.257   1.240   5.400
   38CHL1  H11B 3954   1.383   1.116   5.442
   38CHL1    C9 3955   1.403   1.313   5.548
   38CHL1    H9 3956   1.509   1.284   5.565
   38CHL1   C10 3957   1.327   1.272   5.678
   38CHL1   C19 3958   1.172   1.266   5.641
   38CHL1  H19A 3959   1.116   1.244   5.735
   38CHL1  H19B 3960   1.132   1.363   5.605
   38CHL1  H19C 3961   1.146   1.193   5.562
   38CHL1    C1 3962   1.375   1.125   5.721
   38CHL1   H1A 3963   1.352   1.049   5.644
   38CHL1   H1B 3964   1.486   1.129   5.718
   38CHL1    C2 3965   1.319   1.079   5.862
   38CHL1   H2A 3966   1.374   0.989   5.896
   38CHL1   H2B 3967   1.213   1.047   5.855
   38CHL1   C20 3968   1.511   1.490   5.016
   38CHL1   H20 3969   1.409   1.527   4.994
   38CHL1   C21 3970   1.526   1.348   4.966
   38CHL1  H21A 3971   1.458   1.283   5.025
   38CHL1  H21B 3972   1.624   1.298   4.960
   38CHL1  H21C 3973   1.484   1.347   4.863
   38CHL1   C22 3974   1.614   1.586   4.947
   38CHL1  H22A 3975   1.599   1.693   4.973
   38CHL1  H22B 3976   1.717   1.550   4.969
   38CHL1   C23 3977   1.601   1.603   4.794
   38CHL1  H23A 3978   1.611   1.503   4.748
   38CHL1  H23B 3979   1.501   1.644   4.770
   38CHL1   C24 3980   1.717   1.688   4.738
   38CHL1  H24A 3981   1.706   1.798   4.750
   38CHL1  H24B 3982   1.811   1.663   4.792
   38CHL1   C25 3983   1.767   1.669   4.595
   38CHL1   H25 3984   1.772   1.561   4.571
   38CHL1   C26 3985   1.667   1.727   4.495
   38CHL1  H26A 3986   1.638   1.834   4.509
   38CHL1  H26B 3987   1.714   1.722   4.394
   38CHL1  H26C 3988   1.575   1.665   4.500
   38CHL1   C27 3989   1.898   1.745   4.578
   38CHL1  H27A 3990   1.881   1.849   4.612
   38CHL1  H27B 3991   1.974   1.709   4.652
   38CHL1  H27C 3992   1.933   1.740   4.473
   39CHL1    C3 3993   3.025   2.054   6.295
   39CHL1    H3 3994   3.128   2.096   6.295
   39CHL1    O3 3995   2.969   2.054   6.420
   39CHL1   H3' 3996   3.023   1.991   6.467
   39CHL1    C4 3997   2.956   2.164   6.208
   39CHL1   H4A 3998   2.849   2.137   6.196
   39CHL1   H4B 3999   2.955   2.256   6.270
   39CHL1    C5 4000   3.020   2.181   6.073
   39CHL1    C6 4001   3.063   2.298   6.032
   39CHL1    H6 4002   3.064   2.376   6.110
   39CHL1    C7 4003   3.137   2.313   5.906
   39CHL1   H7A 4004   3.113   2.406   5.850
   39CHL1   H7B 4005   3.247   2.312   5.922
   39CHL1    C8 4006   3.110   2.196   5.811
   39CHL1    H8 4007   3.004   2.207   5.778
   39CHL1   C14 4008   3.192   2.194   5.676
   39CHL1   H14 4009   3.295   2.161   5.700
   39CHL1   C15 4010   3.207   2.325   5.597
   39CHL1  H15A 4011   3.113   2.384   5.604
   39CHL1  H15B 4012   3.286   2.395   5.632
   39CHL1   C16 4013   3.239   2.291   5.443
   39CHL1  H16A 4014   3.163   2.345   5.383
   39CHL1  H16B 4015   3.339   2.335   5.419
   39CHL1   C17 4016   3.237   2.140   5.434
   39CHL1   H17 4017   3.343   2.111   5.453
   39CHL1   C13 4018   3.147   2.100   5.562
   39CHL1   C18 4019   3.000   2.126   5.526
   39CHL1  H18A 4020   2.976   2.231   5.500
   39CHL1  H18B 4021   2.987   2.071   5.430
   39CHL1  H18C 4022   2.929   2.096   5.606
   39CHL1   C12 4023   3.164   1.960   5.620
   39CHL1  H12A 4024   3.126   1.881   5.552
   39CHL1  H12B 4025   3.273   1.943   5.635
   39CHL1   C11 4026   3.091   1.941   5.755
   39CHL1  H11A 4027   2.983   1.935   5.728
   39CHL1  H11B 4028   3.120   1.841   5.792
   39CHL1    C9 4029   3.117   2.054   5.869
   39CHL1    H9 4030   3.222   2.038   5.903
   39CHL1   C10 4031   3.027   2.041   5.995
   39CHL1   C19 4032   2.886   1.996   5.954
   39CHL1  H19A 4033   2.809   2.010   6.032
   39CHL1  H19B 4034   2.844   2.054   5.869
   39CHL1  H19C 4035   2.881   1.889   5.922
   39CHL1    C1 4036   3.085   1.930   6.096
   39CHL1   H1A 4037   3.079   1.833   6.041
   39CHL1   H1B 4038   3.191   1.950   6.124
   39CHL1    C2 4039   3.014   1.912   6.229
   39CHL1   H2A 4040   3.059   1.844   6.304
   39CHL1   H2B 4041   2.908   1.881   6.215
   39CHL1   C20 4042   3.210   2.085   5.290
   39CHL1   H20 4043   3.105   2.105   5.262
   39CHL1   C21 4044   3.219   1.934   5.286
   39CHL1  H21A 4045   3.312   1.907   5.340
   39CHL1  H21B 4046   3.221   1.896   5.181
   39CHL1  H21C 4047   3.129   1.897   5.340
   39CHL1   C22 4048   3.306   2.143   5.193
   39CHL1  H22A 4049   3.288   2.252   5.198
   39CHL1  H22B 4050   3.409   2.125   5.229
   39CHL1   C23 4051   3.276   2.123   5.048
   39CHL1  H23A 4052   3.362   2.160   4.988
   39CHL1  H23B 4053   3.255   2.016   5.026
   39CHL1   C24 4054   3.151   2.188   4.989
   39CHL1  H24A 4055   3.057   2.156   5.039
   39CHL1  H24B 4056   3.146   2.297   5.011
   39CHL1   C25 4057   3.132   2.165   4.841
   39CHL1   H25 4058   3.162   2.061   4.818
   39CHL1   C26 4059   2.988   2.190   4.805
   39CHL1  H26A 4060   2.958   2.295   4.828
   39CHL1  H26B 4061   2.964   2.170   4.699
   39CHL1  H26C 4062   2.921   2.116   4.853
   39CHL1   C27 4063   3.219   2.254   4.756
   39CHL1  H27A 4064   3.196   2.361   4.775
   39CHL1  H27B 4065   3.325   2.230   4.779
   39CHL1  H27C 4066   3.209   2.244   4.646
   40CHL1    C3 4067   3.644   4.890   6.312
   40CHL1    H3 4068   3.634   4.785   6.346
   40CHL1    O3 4069   3.668   4.967   6.436
   40CHL1   H3' 4070   3.763   4.973   6.446
   40CHL1    C4 4071   3.765   4.913   6.222
   40CHL1   H4A 4072   3.794   5.020   6.212
   40CHL1   H4B 4073   3.850   4.870   6.278
   40CHL1    C5 4074   3.741   4.857   6.083
   40CHL1    C6 4075   3.832   4.765   6.022
   40CHL1    H6 4076   3.920   4.727   6.077
   40CHL1    C7 4077   3.816   4.719   5.878
   40CHL1   H7A 4078   3.919   4.707   5.840
   40CHL1   H7B 4079   3.780   4.614   5.877
   40CHL1    C8 4080   3.720   4.812   5.795
   40CHL1    H8 4081   3.786   4.898   5.770
   40CHL1   C14 4082   3.683   4.751   5.657
   40CHL1   H14 4083   3.624   4.659   5.680
   40CHL1   C15 4084   3.797   4.707   5.561
   40CHL1  H15A 4085   3.876   4.786   5.563
   40CHL1  H15B 4086   3.835   4.614   5.609
   40CHL1   C16 4087   3.730   4.679   5.424
   40CHL1  H16A 4088   3.784   4.729   5.341
   40CHL1  H16B 4089   3.725   4.569   5.407
   40CHL1   C17 4090   3.586   4.744   5.440
   40CHL1   H17 4091   3.526   4.651   5.453
   40CHL1   C13 4092   3.586   4.831   5.573
   40CHL1   C18 4093   3.648   4.964   5.537
   40CHL1  H18A 4094   3.742   4.955   5.479
   40CHL1  H18B 4095   3.574   5.023   5.479
   40CHL1  H18C 4096   3.688   5.025   5.620
   40CHL1   C12 4097   3.453   4.847   5.640
   40CHL1  H12A 4098   3.386   4.919   5.588
   40CHL1  H12B 4099   3.397   4.752   5.654
   40CHL1   C11 4100   3.479   4.905   5.783
   40CHL1  H11A 4101   3.513   5.009   5.761
   40CHL1  H11B 4102   3.380   4.916   5.832
   40CHL1    C9 4103   3.591   4.837   5.871
   40CHL1    H9 4104   3.548   4.742   5.908
   40CHL1   C10 4105   3.620   4.913   6.009
   40CHL1   C19 4106   3.643   5.063   5.979
   40CHL1  H19A 4107   3.665   5.120   6.072
   40CHL1  H19B 4108   3.742   5.064   5.929
   40CHL1  H19C 4109   3.564   5.117   5.922
   40CHL1    C1 4110   3.495   4.883   6.103
   40CHL1   H1A 4111   3.395   4.918   6.069
   40CHL1   H1B 4112   3.479   4.773   6.107
   40CHL1    C2 4113   3.514   4.940   6.247
   40CHL1   H2A 4114   3.431   4.917   6.316
   40CHL1   H2B 4115   3.514   5.051   6.242
   40CHL1   C20 4116   3.533   4.795   5.303
   40CHL1   H20 4117   3.581   4.895   5.295
   40CHL1   C21 4118   3.383   4.831   5.323
   40CHL1  H21A 4119   3.338   4.741   5.371
   40CHL1  H21B 4120   3.323   4.832   5.229
   40CHL1  H21C 4121   3.373   4.926   5.380
   40CHL1   C22 4122   3.548   4.692   5.187
   40CHL1  H22A 4123   3.652   4.653   5.181
   40CHL1  H22B 4124   3.488   4.602   5.210
   40CHL1   C23 4125   3.515   4.743   5.042
   40CHL1  H23A 4126   3.427   4.811   5.049
   40CHL1  H23B 4127   3.591   4.820   5.015
   40CHL1   C24 4128   3.528   4.649   4.925
   40CHL1  H24A 4129   3.627   4.599   4.926
   40CHL1  H24B 4130   3.459   4.561   4.929
   40CHL1   C25 4131   3.485   4.722   4.797
   40CHL1   H25 4132   3.541   4.819   4.800
   40CHL1   C26 4133   3.522   4.637   4.670
   40CHL1  H26A 4134   3.511   4.694   4.576
   40CHL1  H26B 4135   3.626   4.598   4.675
   40CHL1  H26C 4136   3.463   4.543   4.664
   40CHL1   C27 4137   3.332   4.750   4.788
   40CHL1  H27A 4138   3.304   4.816   4.872
   40CHL1  H27B 4139   3.314   4.783   4.683
   40CHL1  H27C 4140   3.275   4.657   4.807
   41CHL1    C3 4141   0.449   5.055   5.796
   41CHL1    H3 4142   0.556   5.053   5.765
   41CHL1    O3 4143   0.451   5.054   5.941
   41CHL1   H3' 4144   0.363   5.084   5.963
   41CHL1    C4 4145   0.382   5.171   5.729
   41CHL1   H4A 4146   0.276   5.167   5.760
   41CHL1   H4B 4147   0.437   5.262   5.761
   41CHL1    C5 4148   0.401   5.152   5.580
   41CHL1    C6 4149   0.454   5.253   5.509
   41CHL1    H6 4150   0.488   5.344   5.561
   41CHL1    C7 4151   0.445   5.249   5.358
   41CHL1   H7A 4152   0.388   5.341   5.334
   41CHL1   H7B 4153   0.548   5.253   5.316
   41CHL1    C8 4154   0.359   5.144   5.287
   41CHL1    H8 4155   0.255   5.180   5.297
   41CHL1   C14 4156   0.407   5.126   5.141
   41CHL1   H14 4157   0.512   5.089   5.146
   41CHL1   C15 4158   0.429   5.247   5.044
   41CHL1  H15A 4159   0.341   5.313   5.053
   41CHL1  H15B 4160   0.521   5.300   5.079
   41CHL1   C16 4161   0.455   5.181   4.909
   41CHL1  H16A 4162   0.387   5.221   4.831
   41CHL1  H16B 4163   0.553   5.210   4.864
   41CHL1   C17 4164   0.428   5.034   4.932
   41CHL1   H17 4165   0.529   4.999   4.964
   41CHL1   C13 4166   0.344   5.020   5.056
   41CHL1   C18 4167   0.196   5.053   5.032
   41CHL1  H18A 4168   0.195   5.150   4.978
   41CHL1  H18B 4169   0.141   4.977   4.974
   41CHL1  H18C 4170   0.148   5.054   5.133
   41CHL1   C12 4171   0.352   4.884   5.136
   41CHL1  H12A 4172   0.307   4.789   5.099
   41CHL1  H12B 4173   0.461   4.865   5.132
   41CHL1   C11 4174   0.302   4.893   5.287
   41CHL1  H11A 4175   0.192   4.911   5.280
   41CHL1  H11B 4176   0.313   4.789   5.324
   41CHL1    C9 4177   0.376   5.006   5.362
   41CHL1    H9 4178   0.480   4.967   5.351
   41CHL1   C10 4179   0.346   5.020   5.512
   41CHL1   C19 4180   0.193   5.024   5.527
   41CHL1  H19A 4181   0.158   5.041   5.631
   41CHL1  H19B 4182   0.148   5.105   5.466
   41CHL1  H19C 4183   0.153   4.926   5.491
   41CHL1    C1 4184   0.387   4.895   5.593
   41CHL1   H1A 4185   0.327   4.803   5.576
   41CHL1   H1B 4186   0.490   4.877   5.556
   41CHL1    C2 4187   0.385   4.918   5.745
   41CHL1   H2A 4188   0.439   4.840   5.803
   41CHL1   H2B 4189   0.279   4.924   5.776
   41CHL1   C20 4190   0.393   4.962   4.809
   41CHL1   H20 4191   0.307   5.018   4.767
   41CHL1   C21 4192   0.354   4.813   4.811
   41CHL1  H21A 4193   0.332   4.779   4.707
   41CHL1  H21B 4194   0.273   4.790   4.883
   41CHL1  H21C 4195   0.443   4.759   4.849
   41CHL1   C22 4196   0.491   4.967   4.694
   41CHL1  H22A 4197   0.548   5.061   4.680
   41CHL1  H22B 4198   0.568   4.887   4.693
   41CHL1   C23 4199   0.413   4.963   4.563
   41CHL1  H23A 4200   0.353   4.871   4.545
   41CHL1  H23B 4201   0.342   5.047   4.552
   41CHL1   C24 4202   0.511   4.981   4.443
   41CHL1  H24A 4203   0.575   5.072   4.453
   41CHL1  H24B 4204   0.575   4.890   4.434
   41CHL1   C25 4205   0.435   4.974   4.309
   41CHL1   H25 4206   0.379   4.878   4.310
   41CHL1   C26 4207   0.331   5.093   4.284
   41CHL1  H26A 4208   0.387   5.188   4.291
   41CHL1  H26B 4209   0.274   5.076   4.189
   41CHL1  H26C 4210   0.257   5.090   4.367
   41CHL1   C27 4211   0.534   4.972   4.194
   41CHL1  H27A 4212   0.580   4.872   4.181
   41CHL1  H27B 4213   0.488   5.003   4.098
   41CHL1  H27C 4214   0.609   5.053   4.210
   42CHL1    C3 4215   5.253   4.208   6.204
   42CHL1    H3 4216   5.164   4.145   6.226
   42CHL1    O3 4217   5.299   4.269   6.321
   42CHL1   H3' 4218   5.231   4.333   6.342
   42CHL1    C4 4219   5.358   4.116   6.142
   42CHL1   H4A 4220   5.460   4.159   6.149
   42CHL1   H4B 4221   5.357   4.032   6.215
   42CHL1    C5 4222   5.312   4.058   6.008
   42CHL1    C6 4223   5.295   3.922   5.986
   42CHL1    H6 4224   5.303   3.863   6.079
   42CHL1    C7 4225   5.273   3.864   5.852
   42CHL1   H7A 4226   5.347   3.782   5.842
   42CHL1   H7B 4227   5.168   3.828   5.847
   42CHL1    C8 4228   5.303   3.968   5.741
   42CHL1    H8 4229   5.413   3.976   5.728
   42CHL1   C14 4230   5.263   3.923   5.602
   42CHL1   H14 4231   5.156   3.900   5.617
   42CHL1   C15 4232   5.320   3.789   5.550
   42CHL1  H15A 4233   5.429   3.777   5.567
   42CHL1  H15B 4234   5.261   3.707   5.596
   42CHL1   C16 4235   5.302   3.798   5.397
   42CHL1  H16A 4236   5.394   3.803   5.334
   42CHL1  H16B 4237   5.249   3.709   5.358
   42CHL1   C17 4238   5.225   3.931   5.373
   42CHL1   H17 4239   5.120   3.898   5.388
   42CHL1   C13 4240   5.277   4.024   5.489
   42CHL1   C18 4241   5.433   4.061   5.456
   42CHL1  H18A 4242   5.425   4.152   5.391
   42CHL1  H18B 4243   5.488   4.071   5.552
   42CHL1  H18C 4244   5.490   3.984   5.400
   42CHL1   C12 4245   5.191   4.152   5.525
   42CHL1  H12A 4246   5.198   4.220   5.438
   42CHL1  H12B 4247   5.082   4.130   5.530
   42CHL1   C11 4248   5.247   4.205   5.656
   42CHL1  H11A 4249   5.353   4.232   5.638
   42CHL1  H11B 4250   5.196   4.301   5.680
   42CHL1    C9 4251   5.245   4.105   5.769
   42CHL1    H9 4252   5.137   4.083   5.781
   42CHL1   C10 4253   5.287   4.165   5.901
   42CHL1   C19 4254   5.424   4.237   5.880
   42CHL1  H19A 4255   5.476   4.252   5.977
   42CHL1  H19B 4256   5.484   4.181   5.805
   42CHL1  H19C 4257   5.401   4.338   5.839
   42CHL1    C1 4258   5.174   4.259   5.964
   42CHL1   H1A 4259   5.169   4.351   5.901
   42CHL1   H1B 4260   5.074   4.210   5.968
   42CHL1    C2 4261   5.210   4.317   6.103
   42CHL1   H2A 4262   5.137   4.389   6.146
   42CHL1   H2B 4263   5.303   4.375   6.088
   42CHL1   C20 4264   5.235   3.984   5.226
   42CHL1   H20 4265   5.316   4.060   5.217
   42CHL1   C21 4266   5.104   4.047   5.209
   42CHL1  H21A 4267   5.112   4.110   5.118
   42CHL1  H21B 4268   5.069   4.117   5.288
   42CHL1  H21C 4269   5.019   3.978   5.192
   42CHL1   C22 4270   5.263   3.877   5.118
   42CHL1  H22A 4271   5.365   3.834   5.117
   42CHL1  H22B 4272   5.186   3.800   5.142
   42CHL1   C23 4273   5.258   3.915   4.962
   42CHL1  H23A 4274   5.152   3.944   4.942
   42CHL1  H23B 4275   5.330   4.000   4.959
   42CHL1   C24 4276   5.313   3.803   4.875
   42CHL1  H24A 4277   5.414   3.773   4.912
   42CHL1  H24B 4278   5.251   3.713   4.894
   42CHL1   C25 4279   5.315   3.839   4.725
   42CHL1   H25 4280   5.331   3.949   4.720
   42CHL1   C26 4281   5.415   3.762   4.642
   42CHL1  H26A 4282   5.507   3.741   4.701
   42CHL1  H26B 4283   5.354   3.673   4.614
   42CHL1  H26C 4284   5.432   3.823   4.551
   42CHL1   C27 4285   5.172   3.829   4.679
   42CHL1  H27A 4286   5.100   3.904   4.718
   42CHL1  H27B 4287   5.186   3.833   4.569
   42CHL1  H27C 4288   5.132   3.728   4.701
   43CHL1    C3 4289   6.224   2.420   5.743
   43CHL1    H3 4290   6.120   2.457   5.731
   43CHL1    O3 4291   6.246   2.441   5.877
   43CHL1   H3' 4292   6.340   2.457   5.880
   43CHL1    C4 4293   6.245   2.269   5.707
   43CHL1   H4A 4294   6.348   2.240   5.736
   43CHL1   H4B 4295   6.180   2.210   5.776
   43CHL1    C5 4296   6.222   2.238   5.558
   43CHL1    C6 4297   6.130   2.146   5.518
   43CHL1    H6 4298   6.089   2.094   5.606
   43CHL1    C7 4299   6.085   2.113   5.383
   43CHL1   H7A 4300   6.079   2.002   5.374
   43CHL1   H7B 4301   5.985   2.159   5.369
   43CHL1    C8 4302   6.187   2.175   5.278
   43CHL1    H8 4303   6.273   2.106   5.275
   43CHL1   C14 4304   6.130   2.171   5.141
   43CHL1   H14 4305   6.041   2.238   5.153
   43CHL1   C15 4306   6.089   2.037   5.074
   43CHL1  H15A 4307   6.154   1.948   5.091
   43CHL1  H15B 4308   5.994   2.004   5.122
   43CHL1   C16 4309   6.090   2.061   4.928
   43CHL1  H16A 4310   6.151   1.984   4.876
   43CHL1  H16B 4311   5.988   2.053   4.885
   43CHL1   C17 4312   6.139   2.206   4.918
   43CHL1   H17 4313   6.048   2.268   4.935
   43CHL1   C13 4314   6.224   2.235   5.036
   43CHL1   C18 4315   6.360   2.153   5.019
   43CHL1  H18A 4316   6.337   2.060   4.963
   43CHL1  H18B 4317   6.440   2.220   4.982
   43CHL1  H18C 4318   6.405   2.119   5.115
   43CHL1   C12 4319   6.253   2.380   5.064
   43CHL1  H12A 4320   6.315   2.417   4.979
   43CHL1  H12B 4321   6.160   2.439   5.077
   43CHL1   C11 4322   6.326   2.389   5.200
   43CHL1  H11A 4323   6.425   2.340   5.199
   43CHL1  H11B 4324   6.338   2.498   5.217
   43CHL1    C9 4325   6.239   2.316   5.315
   43CHL1    H9 4326   6.148   2.380   5.311
   43CHL1   C10 4327   6.292   2.333   5.460
   43CHL1   C19 4328   6.445   2.309   5.453
   43CHL1  H19A 4329   6.457   2.215   5.395
   43CHL1  H19B 4330   6.491   2.392   5.396
   43CHL1  H19C 4331   6.498   2.301   5.551
   43CHL1    C1 4332   6.276   2.483   5.501
   43CHL1   H1A 4333   6.342   2.547   5.438
   43CHL1   H1B 4334   6.170   2.515   5.495
   43CHL1    C2 4335   6.309   2.512   5.657
   43CHL1   H2A 4336   6.301   2.621   5.675
   43CHL1   H2B 4337   6.416   2.487   5.675
   43CHL1   C20 4338   6.186   2.256   4.778
   43CHL1   H20 4339   6.234   2.355   4.789
   43CHL1   C21 4340   6.056   2.268   4.697
   43CHL1  H21A 4341   6.073   2.328   4.605
   43CHL1  H21B 4342   5.979   2.320   4.758
   43CHL1  H21C 4343   6.008   2.172   4.670
   43CHL1   C22 4344   6.290   2.157   4.712
   43CHL1  H22A 4345   6.379   2.126   4.770
   43CHL1  H22B 4346   6.235   2.063   4.692
   43CHL1   C23 4347   6.348   2.199   4.569
   43CHL1  H23A 4348   6.278   2.244   4.496
   43CHL1  H23B 4349   6.431   2.272   4.578
   43CHL1   C24 4350   6.416   2.066   4.511
   43CHL1  H24A 4351   6.457   2.007   4.595
   43CHL1  H24B 4352   6.328   2.013   4.467
   43CHL1   C25 4353   6.525   2.090   4.406
   43CHL1   H25 4354   6.539   1.994   4.352
   43CHL1   C26 4355   6.485   2.197   4.305
   43CHL1  H26A 4356   6.489   2.298   4.350
   43CHL1  H26B 4357   6.556   2.194   4.220
   43CHL1  H26C 4358   6.380   2.176   4.277
   43CHL1   C27 4359   6.657   2.126   4.475
   43CHL1  H27A 4360   6.697   2.047   4.542
   43CHL1  H27B 4361   6.724   2.158   4.392
   43CHL1  H27C 4362   6.645   2.216   4.538
   44CHL1    C3 4363   6.783   3.583   5.888
   44CHL1    H3 4364   6.815   3.477   5.875
   44CHL1    O3 4365   6.779   3.614   6.026
   44CHL1   H3' 4366   6.748   3.704   6.036
   44CHL1    C4 4367   6.891   3.668   5.809
   44CHL1   H4A 4368   6.881   3.778   5.820
   44CHL1   H4B 4369   0.082   3.639   5.865
   44CHL1    C5 4370   6.890   3.628   5.661
   44CHL1    C6 4371   0.100   3.586   5.596
   44CHL1    H6 4372   0.199   3.589   5.643
   44CHL1    C7 4373   0.108   3.534   5.456
   44CHL1   H7A 4374   0.187   3.582   5.393
   44CHL1   H7B 4375   0.113   3.423   5.466
   44CHL1    C8 4376   6.875   3.567   5.376
   44CHL1    H8 4377   6.884   3.675   5.347
   44CHL1   C14 4378   6.867   3.487   5.248
   44CHL1   H14 4379   6.849   3.380   5.271
   44CHL1   C15 4380   0.095   3.486   5.166
   44CHL1  H15A 4381   0.143   3.585   5.154
   44CHL1  H15B 4382   0.165   3.408   5.202
   44CHL1   C16 4383   0.042   3.442   5.029
   44CHL1  H16A 4384   0.082   3.506   4.947
   44CHL1  H16B 4385   0.080   3.340   5.008
   44CHL1   C17 4386   6.785   3.433   5.035
   44CHL1   H17 4387   6.763   3.328   5.066
   44CHL1   C13 4388   6.757   3.526   5.152
   44CHL1   C18 4389   6.770   3.670   5.106
   44CHL1  H18A 4390   6.854   3.686   5.035
   44CHL1  H18B 4391   6.675   3.695   5.054
   44CHL1  H18C 4392   6.750   3.751   5.180
   44CHL1   C12 4393   6.620   3.510   5.226
   44CHL1  H12A 4394   6.540   3.552   5.162
   44CHL1  H12B 4395   6.603   3.403   5.250
   44CHL1   C11 4396   6.627   3.580   5.368
   44CHL1  H11A 4397   6.624   3.688   5.340
   44CHL1  H11B 4398   6.541   3.542   5.428
   44CHL1    C9 4399   6.748   3.548   5.452
   44CHL1    H9 4400   6.745   3.438   5.466
   44CHL1   C10 4401   6.753   3.619   5.591
   44CHL1   C19 4402   6.720   3.771   5.558
   44CHL1  H19A 4403   6.623   3.783   5.505
   44CHL1  H19B 4404   6.708   3.828   5.652
   44CHL1  H19C 4405   6.790   3.819   5.486
   44CHL1    C1 4406   6.639   3.554   5.684
   44CHL1   H1A 4407   6.538   3.572   5.641
   44CHL1   H1B 4408   6.652   3.444   5.673
   44CHL1    C2 4409   6.643   3.591   5.825
   44CHL1   H2A 4410   6.586   3.518   5.886
   44CHL1   H2B 4411   6.616   3.698   5.835
   44CHL1   C20 4412   6.726   3.452   4.894
   44CHL1   H20 4413   6.748   3.553   4.853
   44CHL1   C21 4414   6.576   3.431   4.890
   44CHL1  H21A 4415   6.555   3.323   4.906
   44CHL1  H21B 4416   6.539   3.456   4.789
   44CHL1  H21C 4417   6.523   3.498   4.961
   44CHL1   C22 4418   6.792   3.352   4.790
   44CHL1  H22A 4419   0.000   3.372   4.804
   44CHL1  H22B 4420   6.770   3.245   4.806
   44CHL1   C23 4421   6.757   3.385   4.644
   44CHL1  H23A 4422   6.649   3.378   4.619
   44CHL1  H23B 4423   6.780   3.492   4.625
   44CHL1   C24 4424   6.829   3.294   4.548
   44CHL1  H24A 4425   0.016   3.243   4.593
   44CHL1  H24B 4426   6.762   3.210   4.521
   44CHL1   C25 4427   6.874   3.369   4.415
   44CHL1   H25 4428   0.025   3.460   4.453
   44CHL1   C26 4429   0.070   3.289   4.325
   44CHL1  H26A 4430   0.157   3.260   4.388
   44CHL1  H26B 4431   0.015   3.194   4.308
   44CHL1  H26C 4432   0.094   3.341   4.230
   44CHL1   C27 4433   6.755   3.421   4.331
   44CHL1  H27A 4434   6.797   3.481   4.247
   44CHL1  H27B 4435   6.691   3.338   4.294
   44CHL1  H27C 4436   6.674   3.471   4.389
   45CHL1    C3 4437   6.338   4.774   5.820
   45CHL1    H3 4438   6.419   4.846   5.797
   45CHL1    O3 4439   6.338   4.739   5.960
   45CHL1   H3' 4440   6.422   4.769   5.996
   45CHL1    C4 4441   6.197   4.837   5.786
   45CHL1   H4A 4442   6.108   4.773   5.805
   45CHL1   H4B 4443   6.179   4.919   5.859
   45CHL1    C5 4444   6.189   4.883   5.644
   45CHL1    C6 4445   6.172   5.010   5.607
   45CHL1    H6 4446   6.168   5.091   5.682
   45CHL1    C7 4447   6.157   5.054   5.465
   45CHL1   H7A 4448   6.069   5.122   5.458
   45CHL1   H7B 4449   6.246   5.119   5.443
   45CHL1    C8 4450   6.146   4.934   5.362
   45CHL1    H8 4451   6.039   4.910   5.381
   45CHL1   C14 4452   6.165   4.969   5.216
   45CHL1   H14 4453   6.276   4.972   5.218
   45CHL1   C15 4454   6.115   5.107   5.165
   45CHL1  H15A 4455   6.008   5.131   5.184
   45CHL1  H15B 4456   6.190   5.180   5.201
   45CHL1   C16 4457   6.126   5.092   5.011
   45CHL1  H16A 4458   6.029   5.129   4.972
   45CHL1  H16B 4459   6.194   5.169   4.969
   45CHL1   C17 4460   6.157   4.939   4.980
   45CHL1   H17 4461   6.265   4.939   4.951
   45CHL1   C13 4462   6.137   4.857   5.115
   45CHL1   C18 4463   5.991   4.810   5.126
   45CHL1  H18A 4464   5.928   4.901   5.113
   45CHL1  H18B 4465   5.969   4.730   5.052
   45CHL1  H18C 4466   5.970   4.766   5.226
   45CHL1   C12 4467   6.237   4.749   5.144
   45CHL1  H12A 4468   6.194   4.673   5.075
   45CHL1  H12B 4469   6.340   4.779   5.116
   45CHL1   C11 4470   6.226   4.699   5.292
   45CHL1  H11A 4471   6.130   4.644   5.288
   45CHL1  H11B 4472   6.299   4.619   5.313
   45CHL1    C9 4473   6.234   4.817   5.398
   45CHL1    H9 4474   6.337   4.857   5.388
   45CHL1   C10 4475   6.216   4.767   5.542
   45CHL1   C19 4476   6.085   4.676   5.557
   45CHL1  H19A 4477   5.996   4.743   5.554
   45CHL1  H19B 4478   6.084   4.594   5.483
   45CHL1  H19C 4479   6.074   4.623   5.653
   45CHL1    C1 4480   6.348   4.691   5.582
   45CHL1   H1A 4481   6.371   4.602   5.520
   45CHL1   H1B 4482   6.433   4.757   5.559
   45CHL1    C2 4483   6.359   4.651   5.734
   45CHL1   H2A 4484   6.460   4.609   5.752
   45CHL1   H2B 4485   6.282   4.571   5.747
   45CHL1   C20 4486   6.089   4.889   4.852
   45CHL1   H20 4487   5.981   4.876   4.873
   45CHL1   C21 4488   6.135   4.749   4.815
   45CHL1  H21A 4489   6.242   4.737   4.787
   45CHL1  H21B 4490   6.091   4.720   4.717
   45CHL1  H21C 4491   6.105   4.676   4.893
   45CHL1   C22 4492   6.122   4.984   4.727
   45CHL1  H22A 4493   6.124   5.095   4.740
   45CHL1  H22B 4494   6.225   4.958   4.697
   45CHL1   C23 4495   6.020   4.964   4.617
   45CHL1  H23A 4496   6.026   4.862   4.574
   45CHL1  H23B 4497   5.919   4.974   4.662
   45CHL1   C24 4498   6.047   5.049   4.496
   45CHL1  H24A 4499   6.025   5.155   4.518
   45CHL1  H24B 4500   6.153   5.031   4.467
   45CHL1   C25 4501   5.975   5.023   4.361
   45CHL1   H25 4502   5.875   4.981   4.386
   45CHL1   C26 4503   5.964   5.147   4.274
   45CHL1  H26A 4504   5.926   5.232   4.334
   45CHL1  H26B 4505   6.067   5.172   4.239
   45CHL1  H26C 4506   5.901   5.146   4.182
   45CHL1   C27 4507   6.040   4.907   4.289
   45CHL1  H27A 4508   6.035   4.821   4.360
   45CHL1  H27B 4509   5.974   4.889   4.201
   45CHL1  H27C 4510   6.147   4.923   4.263
   46CHL1    C3 4511   2.008   6.140   5.921
   46CHL1    H3 4512   2.072   6.071   5.863
   46CHL1    O3 4513   2.076   6.178   6.038
   46CHL1   H3' 4514   2.100   6.094   6.078
   46CHL1    C4 4515   1.989   6.269   5.841
   46CHL1   H4A 4516   1.930   6.340   5.903
   46CHL1   H4B 4517   2.090   6.311   5.820
   46CHL1    C5 4518   1.902   6.250   5.718
   46CHL1    C6 4519   1.949   6.280   5.603
   46CHL1    H6 4520   2.053   6.314   5.588
   46CHL1    C7 4521   1.868   6.253   5.473
   46CHL1   H7A 4522   1.872   6.342   5.407
   46CHL1   H7B 4523   1.914   6.165   5.424
   46CHL1    C8 4524   1.719   6.230   5.492
   46CHL1    H8 4525   1.667   6.322   5.526
   46CHL1   C14 4526   1.657   6.171   5.368
   46CHL1   H14 4527   1.700   6.069   5.355
   46CHL1   C15 4528   1.686   6.248   5.235
   46CHL1  H15A 4529   1.667   6.356   5.252
   46CHL1  H15B 4530   1.790   6.238   5.198
   46CHL1   C16 4531   1.584   6.198   5.138
   46CHL1  H16A 4532   1.523   6.285   5.108
   46CHL1  H16B 4533   1.641   6.163   5.049
   46CHL1   C17 4534   1.490   6.094   5.222
   46CHL1   H17 4535   1.530   5.991   5.216
   46CHL1   C13 4536   1.507   6.141   5.370
   46CHL1   C18 4537   1.423   6.268   5.400
   46CHL1  H18A 4538   1.442   6.312   5.500
   46CHL1  H18B 4539   1.440   6.346   5.323
   46CHL1  H18C 4540   1.314   6.251   5.388
   46CHL1   C12 4541   1.484   6.039   5.477
   46CHL1  H12A 4542   1.376   6.024   5.499
   46CHL1  H12B 4543   1.522   5.941   5.443
   46CHL1   C11 4544   1.546   6.084   5.616
   46CHL1  H11A 4545   1.486   6.168   5.656
   46CHL1  H11B 4546   1.535   5.999   5.687
   46CHL1    C9 4547   1.702   6.125   5.605
   46CHL1    H9 4548   1.753   6.034   5.567
   46CHL1   C10 4549   1.764   6.168   5.738
   46CHL1   C19 4550   1.662   6.257   5.802
   46CHL1  H19A 4551   1.571   6.198   5.828
   46CHL1  H19B 4552   1.706   6.297   5.896
   46CHL1  H19C 4553   1.631   6.340   5.736
   46CHL1    C1 4554   1.793   6.047   5.827
   46CHL1   H1A 4555   1.701   5.990   5.851
   46CHL1   H1B 4556   1.851   5.983   5.757
   46CHL1    C2 4557   1.879   6.071   5.954
   46CHL1   H2A 4558   1.911   5.973   5.995
   46CHL1   H2B 4559   1.819   6.124   6.030
   46CHL1   C20 4560   1.342   6.079   5.165
   46CHL1   H20 4561   1.298   6.179   5.184
   46CHL1   C21 4562   1.270   5.979   5.255
   46CHL1  H21A 4563   1.169   5.955   5.215
   46CHL1  H21B 4564   1.248   6.028   5.352
   46CHL1  H21C 4565   1.322   5.881   5.261
   46CHL1   C22 4566   1.345   6.048   5.015
   46CHL1  H22A 4567   1.401   6.125   4.958
   46CHL1  H22B 4568   1.393   5.949   5.000
   46CHL1   C23 4569   1.206   6.032   4.954
   46CHL1  H23A 4570   1.163   5.940   4.997
   46CHL1  H23B 4571   1.141   6.117   4.986
   46CHL1   C24 4572   1.209   6.005   4.803
   46CHL1  H24A 4573   1.243   6.098   4.752
   46CHL1  H24B 4574   1.284   5.924   4.788
   46CHL1   C25 4575   1.077   5.966   4.736
   46CHL1   H25 4576   0.998   6.031   4.779
   46CHL1   C26 4577   1.092   5.998   4.585
   46CHL1  H26A 4578   0.988   5.987   4.546
   46CHL1  H26B 4579   1.124   6.102   4.565
   46CHL1  H26C 4580   1.163   5.938   4.523
   46CHL1   C27 4581   1.045   5.821   4.756
   46CHL1  H27A 4582   1.043   5.801   4.865
   46CHL1  H27B 4583   0.954   5.811   4.692
   46CHL1  H27C 4584   1.125   5.759   4.709
   47CHL1    C3 4585   3.814   5.412   6.172
   47CHL1    H3 4586   3.734   5.341   6.143
   47CHL1    O3 4587   3.791   5.457   6.303
   47CHL1   H3' 4588   3.735   5.535   6.293
   47CHL1    C4 4589   3.956   5.346   6.161
   47CHL1   H4A 4590   4.018   5.426   6.208
   47CHL1   H4B 4591   3.949   5.259   6.230
   47CHL1    C5 4592   3.999   5.301   6.025
   47CHL1    C6 4593   4.039   5.171   6.005
   47CHL1    H6 4594   4.050   5.099   6.088
   47CHL1    C7 4595   4.077   5.109   5.875
   47CHL1   H7A 4596   4.176   5.060   5.870
   47CHL1   H7B 4597   4.000   5.031   5.856
   47CHL1    C8 4598   4.081   5.213   5.754
   47CHL1    H8 4599   4.180   5.264   5.760
   47CHL1   C14 4600   4.042   5.147   5.614
   47CHL1   H14 4601   3.934   5.122   5.621
   47CHL1   C15 4602   4.118   5.022   5.574
   47CHL1  H15A 4603   4.228   5.033   5.589
   47CHL1  H15B 4604   4.076   4.924   5.607
   47CHL1   C16 4605   4.092   5.012   5.423
   47CHL1  H16A 4606   4.188   5.012   5.367
   47CHL1  H16B 4607   4.031   4.921   5.406
   47CHL1   C17 4608   4.004   5.136   5.371
   47CHL1   H17 4609   3.899   5.108   5.393
   47CHL1   C13 4610   4.040   5.236   5.485
   47CHL1   C18 4611   4.186   5.301   5.459
   47CHL1  H18A 4612   4.186   5.388   5.389
   47CHL1  H18B 4613   4.243   5.337   5.547
   47CHL1  H18C 4614   4.252   5.232   5.403
   47CHL1   C12 4615   3.926   5.337   5.514
   47CHL1  H12A 4616   3.925   5.414   5.435
   47CHL1  H12B 4617   3.824   5.293   5.508
   47CHL1   C11 4618   3.946   5.414   5.647
   47CHL1  H11A 4619   4.036   5.478   5.632
   47CHL1  H11B 4620   3.854   5.474   5.663
   47CHL1    C9 4621   3.969   5.325   5.775
   47CHL1    H9 4622   3.877   5.263   5.774
   47CHL1   C10 4623   3.967   5.400   5.908
   47CHL1   C19 4624   4.066   5.523   5.911
   47CHL1  H19A 4625   4.028   5.607   5.850
   47CHL1  H19B 4626   4.077   5.566   6.013
   47CHL1  H19C 4627   4.165   5.498   5.868
   47CHL1    C1 4628   3.826   5.468   5.940
   47CHL1   H1A 4629   3.815   5.549   5.865
   47CHL1   H1B 4630   3.737   5.404   5.920
   47CHL1    C2 4631   3.804   5.529   6.074
   47CHL1   H2A 4632   3.707   5.582   6.080
   47CHL1   H2B 4633   3.886   5.603   6.087
   47CHL1   C20 4634   4.028   5.172   5.228
   47CHL1   H20 4635   4.123   5.227   5.212
   47CHL1   C21 4636   3.923   5.270   5.186
   47CHL1  H21A 4637   3.937   5.271   5.076
   47CHL1  H21B 4638   3.928   5.373   5.228
   47CHL1  H21C 4639   3.820   5.230   5.193
   47CHL1   C22 4640   4.035   5.051   5.131
   47CHL1  H22A 4641   4.048   5.080   5.025
   47CHL1  H22B 4642   4.120   4.987   5.161
   47CHL1   C23 4643   3.909   4.963   5.131
   47CHL1  H23A 4644   3.887   4.930   5.235
   47CHL1  H23B 4645   3.822   5.022   5.097
   47CHL1   C24 4646   3.933   4.826   5.056
   47CHL1  H24A 4647   4.023   4.772   5.094
   47CHL1  H24B 4648   3.847   4.760   5.080
   47CHL1   C25 4649   3.954   4.838   4.905
   47CHL1   H25 4650   4.007   4.935   4.888
   47CHL1   C26 4651   4.044   4.725   4.845
   47CHL1  H26A 4652   4.034   4.739   4.735
   47CHL1  H26B 4653   4.149   4.723   4.881
   47CHL1  H26C 4654   4.001   4.627   4.873
   47CHL1   C27 4655   3.817   4.831   4.829
   47CHL1  H27A 4656   3.821   4.865   4.724
   47CHL1  H27B 4657   3.766   4.732   4.838
   47CHL1  H27C 4658   3.748   4.900   4.883
   48CHL1    C3 4659   0.548   6.220   5.619
   48CHL1    H3 4660   0.574   6.123   5.572
   48CHL1    O3 4661   0.606   6.210   5.747
   48CHL1   H3' 4662   0.572   6.291   5.786
   48CHL1    C4 4663   0.586   6.344   5.536
   48CHL1   H4A 4664   0.558   6.431   5.599
   48CHL1   H4B 4665   0.695   6.341   5.519
   48CHL1    C5 4666   0.516   6.350   5.405
   48CHL1    C6 4667   0.576   6.345   5.283
   48CHL1    H6 4668   0.686   6.338   5.280
   48CHL1    C7 4669   0.513   6.352   5.153
   48CHL1   H7A 4670   0.579   6.413   5.088
   48CHL1   H7B 4671   0.500   6.251   5.108
   48CHL1    C8 4672   0.374   6.415   5.163
   48CHL1    H8 4673   0.365   6.523   5.189
   48CHL1   C14 4674   0.299   6.394   5.033
   48CHL1   H14 4675   0.317   6.287   5.010
   48CHL1   C15 4676   0.362   6.464   4.914
   48CHL1  H15A 4677   0.384   6.565   4.955
   48CHL1  H15B 4678   0.451   6.411   4.873
   48CHL1   C16 4679   0.250   6.459   4.813
   48CHL1  H16A 4680   0.243   6.557   4.762
   48CHL1  H16B 4681   0.270   6.374   4.745
   48CHL1   C17 4682   0.124   6.404   4.890
   48CHL1   H17 4683   0.126   6.293   4.881
   48CHL1   C13 4684   0.153   6.432   5.036
   48CHL1   C18 4685   0.135   6.586   5.063
   48CHL1  H18A 4686   0.039   6.622   5.021
   48CHL1  H18B 4687   0.136   6.600   5.174
   48CHL1  H18C 4688   0.216   6.656   5.032
   48CHL1   C12 4689   0.081   6.347   5.140
   48CHL1  H12A 4690   6.876   6.380   5.154
   48CHL1  H12B 4691   0.090   6.241   5.108
   48CHL1   C11 4692   0.147   6.359   5.281
   48CHL1  H11A 4693   0.112   6.455   5.324
   48CHL1  H11B 4694   0.091   6.282   5.338
   48CHL1    C9 4695   0.301   6.339   5.277
   48CHL1    H9 4696   0.309   6.230   5.253
   48CHL1   C10 4697   0.365   6.350   5.423
   48CHL1   C19 4698   0.316   6.488   5.487
   48CHL1  H19A 4699   0.341   6.576   5.424
   48CHL1  H19B 4700   0.206   6.501   5.494
   48CHL1  H19C 4701   0.352   6.508   5.590
   48CHL1    C1 4702   0.313   6.229   5.512
   48CHL1   H1A 4703   0.205   6.243   5.531
   48CHL1   H1B 4704   0.326   6.137   5.451
   48CHL1    C2 4705   0.392   6.213   5.642
   48CHL1   H2A 4706   0.357   6.122   5.693
   48CHL1   H2B 4707   0.362   6.297   5.708
   48CHL1   C20 4708   6.892   6.450   4.831
   48CHL1   H20 4709   0.002   6.560   4.830
   48CHL1   C21 4710   6.773   6.396   4.918
   48CHL1  H21A 4711   6.784   6.290   4.948
   48CHL1  H21B 4712   6.761   6.456   5.010
   48CHL1  H21C 4713   6.674   6.403   4.866
   48CHL1   C22 4714   6.872   6.406   4.683
   48CHL1  H22A 4715   6.785   6.453   4.632
   48CHL1  H22B 4716   0.059   6.447   4.628
   48CHL1   C23 4717   6.865   6.256   4.668
   48CHL1  H23A 4718   0.037   6.208   4.738
   48CHL1  H23B 4719   6.771   6.221   4.714
   48CHL1   C24 4720   6.875   6.208   4.522
   48CHL1  H24A 4721   6.792   6.265   4.475
   48CHL1  H24B 4722   0.068   6.245   4.474
   48CHL1   C25 4723   6.859   6.060   4.489
   48CHL1   H25 4724   6.758   6.020   4.509
   48CHL1   C26 4725   6.892   6.039   4.340
   48CHL1  H26A 4726   0.098   6.069   4.326
   48CHL1  H26B 4727   6.884   5.933   4.308
   48CHL1  H26C 4728   6.818   6.096   4.280
   48CHL1   C27 4729   0.065   5.970   4.558
   48CHL1  H27A 4730   0.025   5.868   4.539
   48CHL1  H27B 4731   0.165   5.991   4.516
   48CHL1  H27C 4732   0.063   5.995   4.666
   49CHL1    C3 4733   3.977   4.543   2.728
   49CHL1    H3 4734   3.905   4.627   2.737
   49CHL1    O3 4735   3.982   4.512   2.587
   49CHL1   H3' 4736   4.048   4.442   2.582
   49CHL1    C4 4737   4.112   4.588   2.780
   49CHL1   H4A 4738   4.181   4.502   2.761
   49CHL1   H4B 4739   4.142   4.685   2.736
   49CHL1    C5 4740   4.124   4.607   2.930
   49CHL1    C6 4741   4.163   4.724   2.987
   49CHL1    H6 4742   4.209   4.797   2.920
   49CHL1    C7 4743   4.177   4.749   3.138
   49CHL1   H7A 4744   4.283   4.780   3.148
   49CHL1   H7B 4745   4.114   4.830   3.180
   49CHL1    C8 4746   4.167   4.623   3.221
   49CHL1    H8 4747   4.253   4.558   3.192
   49CHL1   C14 4748   4.161   4.657   3.372
   49CHL1   H14 4749   4.065   4.706   3.400
   49CHL1   C15 4750   4.264   4.743   3.444
   49CHL1  H15A 4751   4.356   4.698   3.400
   49CHL1  H15B 4752   4.255   4.853   3.429
   49CHL1   C16 4753   4.261   4.694   3.593
   49CHL1  H16A 4754   4.367   4.674   3.619
   49CHL1  H16B 4755   4.215   4.779   3.648
   49CHL1   C17 4756   4.158   4.575   3.603
   49CHL1   H17 4757   4.060   4.626   3.619
   49CHL1   C13 4758   4.159   4.524   3.456
   49CHL1   C18 4759   4.283   4.430   3.440
   49CHL1  H18A 4760   4.259   4.338   3.497
   49CHL1  H18B 4761   4.287   4.403   3.332
   49CHL1  H18C 4762   4.378   4.482   3.464
   49CHL1   C12 4763   4.029   4.440   3.417
   49CHL1  H12A 4764   4.025   4.345   3.474
   49CHL1  H12B 4765   3.936   4.498   3.435
   49CHL1   C11 4766   4.018   4.419   3.270
   49CHL1  H11A 4767   4.088   4.339   3.238
   49CHL1  H11B 4768   3.915   4.385   3.245
   49CHL1    C9 4769   4.048   4.537   3.169
   49CHL1    H9 4770   3.951   4.591   3.164
   49CHL1   C10 4771   4.073   4.489   3.019
   49CHL1   C19 4772   4.188   4.384   3.005
   49CHL1  H19A 4773   4.166   4.304   3.079
   49CHL1  H19B 4774   4.194   4.328   2.909
   49CHL1  H19C 4775   4.287   4.423   3.037
   49CHL1    C1 4776   3.941   4.440   2.963
   49CHL1   H1A 4777   3.920   4.341   3.009
   49CHL1   H1B 4778   3.859   4.508   2.995
   49CHL1    C2 4779   3.937   4.414   2.802
   49CHL1   H2A 4780   3.833   4.380   2.783
   49CHL1   H2B 4781   4.016   4.342   2.771
   49CHL1   C20 4782   4.172   4.493   3.722
   49CHL1   H20 4783   4.266   4.433   3.720
   49CHL1   C21 4784   4.053   4.397   3.743
   49CHL1  H21A 4785   4.057   4.350   3.844
   49CHL1  H21B 4786   4.042   4.307   3.678
   49CHL1  H21C 4787   3.960   4.455   3.726
   49CHL1   C22 4788   4.182   4.572   3.855
   49CHL1  H22A 4789   4.242   4.664   3.840
   49CHL1  H22B 4790   4.082   4.604   3.892
   49CHL1   C23 4791   4.252   4.496   3.967
   49CHL1  H23A 4792   4.221   4.390   3.956
   49CHL1  H23B 4793   4.361   4.491   3.948
   49CHL1   C24 4794   4.222   4.556   4.107
   49CHL1  H24A 4795   4.271   4.655   4.119
   49CHL1  H24B 4796   4.118   4.562   4.146
   49CHL1   C25 4797   4.288   4.457   4.208
   49CHL1   H25 4798   4.264   4.354   4.172
   49CHL1   C26 4799   4.436   4.463   4.217
   49CHL1  H26A 4800   4.468   4.552   4.276
   49CHL1  H26B 4801   4.476   4.382   4.282
   49CHL1  H26C 4802   4.499   4.467   4.125
   49CHL1   C27 4803   4.230   4.476   4.342
   49CHL1  H27A 4804   4.232   4.380   4.398
   49CHL1  H27B 4805   4.282   4.550   4.407
   49CHL1  H27C 4806   4.123   4.505   4.338
   50CHL1    C3 4807   4.151   1.777   3.219
   50CHL1    H3 4808   4.241   1.772   3.284
   50CHL1    O3 4809   4.184   1.785   3.086
   50CHL1   H3' 4810   4.135   1.720   3.034
   50CHL1    C4 4811   4.062   1.656   3.250
   50CHL1   H4A 4812   3.974   1.663   3.183
   50CHL1   H4B 4813   4.116   1.563   3.221
   50CHL1    C5 4814   4.020   1.642   3.397
   50CHL1    C6 4815   4.053   1.525   3.464
   50CHL1    H6 4816   4.099   1.439   3.412
   50CHL1    C7 4817   4.024   1.507   3.607
   50CHL1   H7A 4818   3.952   1.422   3.606
   50CHL1   H7B 4819   4.109   1.481   3.674
   50CHL1    C8 4820   3.940   1.619   3.679
   50CHL1    H8 4821   3.831   1.608   3.661
   50CHL1   C14 4822   3.954   1.605   3.834
   50CHL1   H14 4823   4.062   1.602   3.858
   50CHL1   C15 4824   3.911   1.472   3.905
   50CHL1  H15A 4825   3.810   1.442   3.868
   50CHL1  H15B 4826   3.982   1.387   3.909
   50CHL1   C16 4827   3.889   1.512   4.049
   50CHL1  H16A 4828   3.786   1.486   4.081
   50CHL1  H16B 4829   3.957   1.450   4.111
   50CHL1   C17 4830   3.920   1.663   4.061
   50CHL1   H17 4831   4.029   1.674   4.076
   50CHL1   C13 4832   3.889   1.719   3.920
   50CHL1   C18 4833   3.737   1.718   3.903
   50CHL1  H18A 4834   3.688   1.623   3.933
   50CHL1  H18B 4835   3.689   1.808   3.946
   50CHL1  H18C 4836   3.707   1.735   3.798
   50CHL1   C12 4837   3.956   1.851   3.874
   50CHL1  H12A 4838   3.909   1.940   3.921
   50CHL1  H12B 4839   4.067   1.843   3.877
   50CHL1   C11 4840   3.935   1.870   3.718
   50CHL1  H11A 4841   3.825   1.873   3.706
   50CHL1  H11B 4842   3.980   1.967   3.688
   50CHL1    C9 4843   3.986   1.757   3.628
   50CHL1    H9 4844   4.096   1.755   3.644
   50CHL1   C10 4845   3.967   1.769   3.473
   50CHL1   C19 4846   3.818   1.793   3.445
   50CHL1  H19A 4847   3.765   1.706   3.489
   50CHL1  H19B 4848   3.778   1.882   3.498
   50CHL1  H19C 4849   3.795   1.800   3.336
   50CHL1    C1 4850   4.049   1.888   3.423
   50CHL1   H1A 4851   3.997   1.980   3.458
   50CHL1   H1B 4852   4.146   1.895   3.478
   50CHL1    C2 4853   4.070   1.904   3.275
   50CHL1   H2A 4854   4.123   2.001   3.261
   50CHL1   H2B 4855   3.972   1.903   3.224
   50CHL1   C20 4856   3.847   1.721   4.184
   50CHL1   H20 4857   3.741   1.746   4.163
   50CHL1   C21 4858   3.926   1.848   4.216
   50CHL1  H21A 4859   4.019   1.821   4.270
   50CHL1  H21B 4860   3.868   1.915   4.283
   50CHL1  H21C 4861   3.949   1.907   4.125
   50CHL1   C22 4862   3.844   1.618   4.306
   50CHL1  H22A 4863   3.774   1.536   4.279
   50CHL1  H22B 4864   3.940   1.561   4.311
   50CHL1   C23 4865   3.810   1.679   4.444
   50CHL1  H23A 4866   3.904   1.727   4.479
   50CHL1  H23B 4867   3.740   1.765   4.438
   50CHL1   C24 4868   3.759   1.574   4.544
   50CHL1  H24A 4869   3.672   1.515   4.509
   50CHL1  H24B 4870   3.841   1.502   4.563
   50CHL1   C25 4871   3.712   1.634   4.673
   50CHL1   H25 4872   3.795   1.701   4.705
   50CHL1   C26 4873   3.590   1.728   4.674
   50CHL1  H26A 4874   3.500   1.696   4.618
   50CHL1  H26B 4875   3.562   1.760   4.776
   50CHL1  H26C 4876   3.620   1.823   4.624
   50CHL1   C27 4877   3.674   1.523   4.775
   50CHL1  H27A 4878   3.583   1.473   4.737
   50CHL1  H27B 4879   3.750   1.445   4.796
   50CHL1  H27C 4880   3.647   1.569   4.872
   51CHL1    C3 4881   3.793   3.031   2.549
   51CHL1    H3 4882   3.708   2.962   2.527
   51CHL1    O3 4883   3.832   3.105   2.432
   51CHL1   H3' 4884   3.905   3.153   2.472
   51CHL1    C4 4885   3.750   3.140   2.650
   51CHL1   H4A 4886   3.842   3.202   2.651
   51CHL1   H4B 4887   3.664   3.200   2.613
   51CHL1    C5 4888   3.727   3.088   2.793
   51CHL1    C6 4889   3.610   3.117   2.862
   51CHL1    H6 4890   3.531   3.175   2.812
   51CHL1    C7 4891   3.583   3.057   2.998
   51CHL1   H7A 4892   3.532   3.133   3.060
   51CHL1   H7B 4893   3.516   2.969   2.982
   51CHL1    C8 4894   3.704   3.004   3.077
   51CHL1    H8 4895   3.766   3.090   3.109
   51CHL1   C14 4896   3.657   2.913   3.197
   51CHL1   H14 4897   3.585   2.839   3.154
   51CHL1   C15 4898   3.572   2.981   3.306
   51CHL1  H15A 4899   3.629   3.074   3.326
   51CHL1  H15B 4900   3.469   3.007   3.272
   51CHL1   C16 4901   3.578   2.889   3.424
   51CHL1  H16A 4902   3.607   2.939   3.519
   51CHL1  H16B 4903   3.481   2.838   3.437
   51CHL1   C17 4904   3.695   2.787   3.390
   51CHL1   H17 4905   3.647   2.703   3.335
   51CHL1   C13 4906   3.769   2.844   3.266
   51CHL1   C18 4907   3.874   2.940   3.330
   51CHL1  H18A 4908   3.972   2.891   3.353
   51CHL1  H18B 4909   3.893   3.021   3.257
   51CHL1  H18C 4910   3.822   2.985   3.417
   51CHL1   C12 4911   3.835   2.745   3.165
   51CHL1  H12A 4912   3.926   2.691   3.200
   51CHL1  H12B 4913   3.765   2.671   3.122
   51CHL1   C11 4914   3.884   2.826   3.041
   51CHL1  H11A 4915   3.967   2.891   3.074
   51CHL1  H11B 4916   3.919   2.753   2.966
   51CHL1    C9 4917   3.784   2.916   2.975
   51CHL1    H9 4918   3.702   2.849   2.942
   51CHL1   C10 4919   3.831   2.991   2.846
   51CHL1   C19 4920   3.962   3.066   2.899
   51CHL1  H19A 4921   3.944   3.116   2.996
   51CHL1  H19B 4922   4.040   2.992   2.925
   51CHL1  H19C 4923   3.995   3.147   2.830
   51CHL1    C1 4924   3.879   2.891   2.732
   51CHL1   H1A 4925   3.969   2.836   2.768
   51CHL1   H1B 4926   3.802   2.813   2.712
   51CHL1    C2 4927   3.914   2.953   2.597
   51CHL1   H2A 4928   3.937   2.873   2.524
   51CHL1   H2B 4929   4.001   3.022   2.608
   51CHL1   C20 4930   3.757   2.724   3.514
   51CHL1   H20 4931   3.807   2.808   3.568
   51CHL1   C21 4932   3.856   2.617   3.462
   51CHL1  H21A 4933   3.946   2.669   3.424
   51CHL1  H21B 4934   3.812   2.548   3.386
   51CHL1  H21C 4935   3.880   2.552   3.549
   51CHL1   C22 4936   3.668   2.675   3.621
   51CHL1  H22A 4937   3.574   2.735   3.625
   51CHL1  H22B 4938   3.656   2.568   3.595
   51CHL1   C23 4939   3.706   2.682   3.768
   51CHL1  H23A 4940   3.797   2.618   3.772
   51CHL1  H23B 4941   3.737   2.784   3.799
   51CHL1   C24 4942   3.597   2.621   3.858
   51CHL1  H24A 4943   3.504   2.680   3.847
   51CHL1  H24B 4944   3.577   2.519   3.818
   51CHL1   C25 4945   3.632   2.630   4.009
   51CHL1   H25 4946   3.723   2.570   4.032
   51CHL1   C26 4947   3.665   2.767   4.063
   51CHL1  H26A 4948   3.767   2.792   4.028
   51CHL1  H26B 4949   3.594   2.846   4.028
   51CHL1  H26C 4950   3.660   2.759   4.174
   51CHL1   C27 4951   3.509   2.584   4.096
   51CHL1  H27A 4952   3.436   2.667   4.104
   51CHL1  H27B 4953   3.458   2.498   4.048
   51CHL1  H27C 4954   3.553   2.562   4.195
   52CHL1    C3 4955   3.062   4.558   2.548
   52CHL1    H3 4956   2.957   4.550   2.512
   52CHL1    O3 4957   3.144   4.552   2.438
   52CHL1   H3' 4958   3.232   4.536   2.472
   52CHL1    C4 4959   3.079   4.689   2.628
   52CHL1   H4A 4960   3.186   4.711   2.649
   52CHL1   H4B 4961   3.041   4.770   2.562
   52CHL1    C5 4962   3.012   4.679   2.761
   52CHL1    C6 4963   2.934   4.783   2.796
   52CHL1    H6 4964   2.911   4.865   2.728
   52CHL1    C7 4965   2.875   4.793   2.938
   52CHL1   H7A 4966   2.897   4.890   2.988
   52CHL1   H7B 4967   2.765   4.775   2.940
   52CHL1    C8 4968   2.942   4.691   3.031
   52CHL1    H8 4969   3.038   4.738   3.061
   52CHL1   C14 4970   2.866   4.690   3.159
   52CHL1   H14 4971   2.766   4.647   3.137
   52CHL1   C15 4972   2.849   4.822   3.228
   52CHL1  H15A 4973   2.951   4.865   3.221
   52CHL1  H15B 4974   2.778   4.883   3.168
   52CHL1   C16 4975   2.799   4.782   3.366
   52CHL1  H16A 4976   2.868   4.830   3.438
   52CHL1  H16B 4977   2.692   4.806   3.384
   52CHL1   C17 4978   2.815   4.634   3.386
   52CHL1   H17 4979   2.718   4.589   3.355
   52CHL1   C13 4980   2.919   4.593   3.267
   52CHL1   C18 4981   3.062   4.630   3.306
   52CHL1  H18A 4982   3.062   4.721   3.370
   52CHL1  H18B 4983   3.110   4.557   3.374
   52CHL1  H18C 4984   3.113   4.639   3.208
   52CHL1   C12 4985   2.910   4.450   3.209
   52CHL1  H12A 4986   2.933   4.368   3.281
   52CHL1  H12B 4987   2.805   4.432   3.177
   52CHL1   C11 4988   2.992   4.442   3.080
   52CHL1  H11A 4989   3.102   4.443   3.092
   52CHL1  H11B 4990   2.959   4.348   3.029
   52CHL1    C9 4991   2.953   4.551   2.974
   52CHL1    H9 4992   2.854   4.526   2.931
   52CHL1   C10 4993   3.044   4.552   2.849
   52CHL1   C19 4994   3.196   4.554   2.890
   52CHL1  H19A 4995   3.215   4.630   2.969
   52CHL1  H19B 4996   3.234   4.454   2.923
   52CHL1  H19C 4997   3.255   4.591   2.804
   52CHL1    C1 4998   3.011   4.428   2.757
   52CHL1   H1A 4999   3.035   4.330   2.804
   52CHL1   H1B 5000   2.902   4.429   2.735
   52CHL1    C2 5001   3.096   4.435   2.632
   52CHL1   H2A 5002   3.081   4.348   2.565
   52CHL1   H2B 5003   3.205   4.429   2.653
   52CHL1   C20 5004   2.828   4.589   3.533
   52CHL1   H20 5005   2.916   4.628   3.589
   52CHL1   C21 5006   2.842   4.438   3.531
   52CHL1  H21A 5007   2.763   4.398   3.465
   52CHL1  H21B 5008   2.843   4.403   3.637
   52CHL1  H21C 5009   2.940   4.406   3.489
   52CHL1   C22 5010   2.708   4.637   3.627
   52CHL1  H22A 5011   2.680   4.743   3.608
   52CHL1  H22B 5012   2.625   4.575   3.587
   52CHL1   C23 5013   2.726   4.628   3.781
   52CHL1  H23A 5014   2.773   4.530   3.803
   52CHL1  H23B 5015   2.792   4.712   3.814
   52CHL1   C24 5016   2.591   4.641   3.852
   52CHL1  H24A 5017   2.565   4.749   3.855
   52CHL1  H24B 5018   2.506   4.590   3.802
   52CHL1   C25 5019   2.599   4.585   4.002
   52CHL1   H25 5020   2.679   4.508   4.004
   52CHL1   C26 5021   2.644   4.703   4.103
   52CHL1  H26A 5022   2.728   4.766   4.066
   52CHL1  H26B 5023   2.556   4.763   4.133
   52CHL1  H26C 5024   2.687   4.662   4.197
   52CHL1   C27 5025   2.457   4.531   4.047
   52CHL1  H27A 5026   2.381   4.609   4.023
   52CHL1  H27B 5027   2.438   4.441   3.984
   52CHL1  H27C 5028   2.465   4.507   4.155
   53CHL1    C3 5029   3.069   3.142   2.901
   53CHL1    H3 5030   3.038   3.247   2.921
   53CHL1    O3 5031   3.078   3.111   2.761
   53CHL1   H3' 5032   3.156   3.056   2.759
   53CHL1    C4 5033   3.207   3.129   2.964
   53CHL1   H4A 5034   3.248   3.028   2.941
   53CHL1   H4B 5035   3.269   3.202   2.908
   53CHL1    C5 5036   3.214   3.154   3.113
   53CHL1    C6 5037   3.281   3.255   3.172
   53CHL1    H6 5038   3.347   3.322   3.116
   53CHL1    C7 5039   3.285   3.283   3.318
   53CHL1   H7A 5040   3.384   3.320   3.354
   53CHL1   H7B 5041   3.228   3.376   3.338
   53CHL1    C8 5042   3.222   3.169   3.402
   53CHL1    H8 5043   3.296   3.087   3.413
   53CHL1   C14 5044   3.186   3.232   3.537
   53CHL1   H14 5045   3.106   3.303   3.507
   53CHL1   C15 5046   3.300   3.302   3.619
   53CHL1  H15A 5047   3.388   3.235   3.629
   53CHL1  H15B 5048   3.329   3.405   3.587
   53CHL1   C16 5049   3.237   3.315   3.755
   53CHL1  H16A 5050   3.308   3.281   3.834
   53CHL1  H16B 5051   3.209   3.421   3.772
   53CHL1   C17 5052   3.110   3.224   3.750
   53CHL1   H17 5053   3.027   3.294   3.728
   53CHL1   C13 5054   3.125   3.132   3.627
   53CHL1   C18 5055   3.223   3.019   3.655
   53CHL1  H18A 5056   3.263   2.971   3.564
   53CHL1  H18B 5057   3.310   3.053   3.717
   53CHL1  H18C 5058   3.179   2.936   3.715
   53CHL1   C12 5059   3.000   3.069   3.563
   53CHL1  H12A 5060   2.943   2.996   3.624
   53CHL1  H12B 5061   2.920   3.140   3.535
   53CHL1   C11 5062   3.020   3.007   3.424
   53CHL1  H11A 5063   3.081   2.916   3.445
   53CHL1  H11B 5064   2.925   2.973   3.376
   53CHL1    C9 5065   3.100   3.107   3.337
   53CHL1    H9 5066   3.031   3.193   3.328
   53CHL1   C10 5067   3.113   3.058   3.190
   53CHL1   C19 5068   3.175   2.916   3.198
   53CHL1  H19A 5069   3.110   2.840   3.247
   53CHL1  H19B 5070   3.193   2.875   3.096
   53CHL1  H19C 5071   3.272   2.911   3.251
   53CHL1    C1 5072   2.975   3.058   3.130
   53CHL1   H1A 5073   2.904   2.990   3.183
   53CHL1   H1B 5074   2.927   3.156   3.152
   53CHL1    C2 5075   2.971   3.041   2.975
   53CHL1   H2A 5076   2.867   3.064   2.944
   53CHL1   H2B 5077   3.001   2.940   2.940
   53CHL1   C20 5078   3.062   3.167   3.889
   53CHL1   H20 5079   3.141   3.092   3.911
   53CHL1   C21 5080   2.936   3.082   3.880
   53CHL1  H21A 5081   2.949   2.972   3.882
   53CHL1  H21B 5082   2.887   3.102   3.783
   53CHL1  H21C 5083   2.858   3.108   3.954
   53CHL1   C22 5084   3.063   3.267   4.004
   53CHL1  H22A 5085   3.154   3.330   3.997
   53CHL1  H22B 5086   2.981   3.343   4.006
   53CHL1   C23 5087   3.080   3.194   4.137
   53CHL1  H23A 5088   3.013   3.106   4.147
   53CHL1  H23B 5089   3.182   3.150   4.143
   53CHL1   C24 5090   3.061   3.285   4.258
   53CHL1  H24A 5091   3.076   3.224   4.350
   53CHL1  H24B 5092   3.150   3.352   4.262
   53CHL1   C25 5093   2.926   3.346   4.276
   53CHL1   H25 5094   2.902   3.418   4.195
   53CHL1   C26 5095   2.811   3.238   4.279
   53CHL1  H26A 5096   2.811   3.178   4.373
   53CHL1  H26B 5097   2.708   3.274   4.258
   53CHL1  H26C 5098   2.828   3.161   4.201
   53CHL1   C27 5099   2.916   3.434   4.398
   53CHL1  H27A 5100   2.938   3.371   4.487
   53CHL1  H27B 5101   2.997   3.510   4.407
   53CHL1  H27C 5102   2.815   3.478   4.412
   54CHL1    C3 5103   2.538   3.296   2.802
   54CHL1    H3 5104   2.527   3.405   2.783
   54CHL1    O3 5105   2.540   3.242   2.671
   54CHL1   H3' 5106   2.512   3.150   2.676
   54CHL1    C4 5107   2.668   3.270   2.868
   54CHL1   H4A 5108   2.691   3.161   2.870
   54CHL1   H4B 5109   2.745   3.317   2.803
   54CHL1    C5 5110   2.679   3.327   3.002
   54CHL1    C6 5111   2.771   3.421   3.041
   54CHL1    H6 5112   2.842   3.458   2.965
   54CHL1    C7 5113   2.787   3.471   3.179
   54CHL1   H7A 5114   2.896   3.470   3.201
   54CHL1   H7B 5115   2.753   3.577   3.179
   54CHL1    C8 5116   2.718   3.385   3.279
   54CHL1    H8 5117   2.779   3.293   3.284
   54CHL1   C14 5118   2.716   3.461   3.414
   54CHL1   H14 5119   2.664   3.556   3.389
   54CHL1   C15 5120   2.849   3.503   3.471
   54CHL1  H15A 5121   2.918   3.416   3.472
   54CHL1  H15B 5122   2.888   3.593   3.418
   54CHL1   C16 5123   2.808   3.545   3.612
   54CHL1  H16A 5124   2.871   3.488   3.684
   54CHL1  H16B 5125   2.831   3.651   3.639
   54CHL1   C17 5126   2.658   3.513   3.628
   54CHL1   H17 5127   2.595   3.600   3.599
   54CHL1   C13 5128   2.631   3.401   3.524
   54CHL1   C18 5129   2.694   3.269   3.570
   54CHL1  H18A 5130   2.637   3.206   3.641
   54CHL1  H18B 5131   2.708   3.193   3.490
   54CHL1  H18C 5132   2.789   3.280   3.626
   54CHL1   C12 5133   2.487   3.374   3.471
   54CHL1  H12A 5134   2.417   3.322   3.541
   54CHL1  H12B 5135   2.437   3.469   3.445
   54CHL1   C11 5136   2.500   3.282   3.354
   54CHL1  H11A 5137   2.538   3.183   3.385
   54CHL1  H11B 5138   2.397   3.261   3.318
   54CHL1    C9 5139   2.575   3.347   3.237
   54CHL1    H9 5140   2.534   3.449   3.220
   54CHL1   C10 5141   2.569   3.279   3.099
   54CHL1   C19 5142   2.598   3.126   3.134
   54CHL1  H19A 5143   2.673   3.112   3.214
   54CHL1  H19B 5144   2.503   3.077   3.164
   54CHL1  H19C 5145   2.628   3.067   3.044
   54CHL1    C1 5146   2.428   3.296   3.033
   54CHL1   H1A 5147   2.354   3.246   3.100
   54CHL1   H1B 5148   2.403   3.404   3.036
   54CHL1    C2 5149   2.418   3.247   2.886
   54CHL1   H2A 5150   2.322   3.276   2.838
   54CHL1   H2B 5151   2.416   3.136   2.887
   54CHL1   C20 5152   2.611   3.487   3.776
   54CHL1   H20 5153   2.662   3.403   3.828
   54CHL1   C21 5154   2.461   3.437   3.776
   54CHL1  H21A 5155   2.421   3.428   3.879
   54CHL1  H21B 5156   2.454   3.339   3.723
   54CHL1  H21C 5157   2.400   3.510   3.717
   54CHL1   C22 5158   2.628   3.621   3.853
   54CHL1  H22A 5159   2.723   3.676   3.832
   54CHL1  H22B 5160   2.544   3.689   3.827
   54CHL1   C23 5161   2.623   3.596   4.011
   54CHL1  H23A 5162   2.533   3.536   4.037
   54CHL1  H23B 5163   2.706   3.522   4.013
   54CHL1   C24 5164   2.632   3.726   4.098
   54CHL1  H24A 5165   2.708   3.787   4.044
   54CHL1  H24B 5166   2.532   3.774   4.090
   54CHL1   C25 5167   2.683   3.708   4.245
   54CHL1   H25 5168   2.787   3.670   4.245
   54CHL1   C26 5169   2.686   3.851   4.314
   54CHL1  H26A 5170   2.589   3.904   4.304
   54CHL1  H26B 5171   2.709   3.846   4.423
   54CHL1  H26C 5172   2.769   3.908   4.268
   54CHL1   C27 5173   2.595   3.614   4.322
   54CHL1  H27A 5174   2.617   3.596   4.430
   54CHL1  H27B 5175   2.498   3.667   4.334
   54CHL1  H27C 5176   2.583   3.514   4.273
   55CHL1    C3 5177   3.760   6.284   2.448
   55CHL1    H3 5178   3.760   6.395   2.444
   55CHL1    O3 5179   3.736   6.247   2.311
   55CHL1   H3' 5180   3.731   6.152   2.324
   55CHL1    C4 5181   3.897   6.234   2.496
   55CHL1   H4A 5182   3.901   6.127   2.466
   55CHL1   H4B 5183   3.976   6.279   2.433
   55CHL1    C5 5184   3.927   6.252   2.651
   55CHL1    C6 5185   4.033   6.319   2.687
   55CHL1    H6 5186   4.101   6.365   2.615
   55CHL1    C7 5187   4.067   6.332   2.836
   55CHL1   H7A 5188   4.174   6.320   2.864
   55CHL1   H7B 5189   4.025   6.426   2.875
   55CHL1    C8 5190   3.995   6.233   2.923
   55CHL1    H8 5191   4.028   6.128   2.908
   55CHL1   C14 5192   4.010   6.267   3.070
   55CHL1   H14 5193   3.968   6.370   3.081
   55CHL1   C15 5194   4.156   6.290   3.120
   55CHL1  H15A 5195   4.235   6.222   3.082
   55CHL1  H15B 5196   4.177   6.395   3.094
   55CHL1   C16 5197   4.146   6.274   3.271
   55CHL1  H16A 5198   4.216   6.193   3.301
   55CHL1  H16B 5199   4.181   6.364   3.325
   55CHL1   C17 5200   3.998   6.227   3.302
   55CHL1   H17 5201   3.943   6.322   3.317
   55CHL1   C13 5202   3.936   6.171   3.171
   55CHL1   C18 5203   3.982   6.025   3.154
   55CHL1  H18A 5204   3.923   5.965   3.227
   55CHL1  H18B 5205   3.969   5.990   3.049
   55CHL1  H18C 5206   4.089   6.012   3.180
   55CHL1   C12 5207   3.789   6.182   3.139
   55CHL1  H12A 5208   3.748   6.109   3.212
   55CHL1  H12B 5209   3.751   6.285   3.158
   55CHL1   C11 5210   3.755   6.153   2.996
   55CHL1  H11A 5211   3.760   6.043   2.983
   55CHL1  H11B 5212   3.649   6.185   2.985
   55CHL1    C9 5213   3.842   6.233   2.886
   55CHL1    H9 5214   3.811   6.339   2.896
   55CHL1   C10 5215   3.818   6.196   2.740
   55CHL1   C19 5216   3.823   6.036   2.733
   55CHL1  H19A 5217   3.826   5.999   2.628
   55CHL1  H19B 5218   3.918   5.994   2.774
   55CHL1  H19C 5219   3.735   5.994   2.785
   55CHL1    C1 5220   3.680   6.243   2.687
   55CHL1   H1A 5221   3.601   6.207   2.756
   55CHL1   H1B 5222   3.677   6.354   2.694
   55CHL1    C2 5223   3.653   6.224   2.539
   55CHL1   H2A 5224   3.553   6.267   2.523
   55CHL1   H2B 5225   3.633   6.115   2.526
   55CHL1   C20 5226   3.982   6.150   3.436
   55CHL1   H20 5227   4.038   6.054   3.440
   55CHL1   C21 5228   3.832   6.124   3.473
   55CHL1  H21A 5229   3.823   6.109   3.583
   55CHL1  H21B 5230   3.799   6.027   3.429
   55CHL1  H21C 5231   3.773   6.208   3.430
   55CHL1   C22 5232   4.031   6.244   3.553
   55CHL1  H22A 5233   4.107   6.315   3.513
   55CHL1  H22B 5234   3.945   6.309   3.583
   55CHL1   C23 5235   4.078   6.162   3.669
   55CHL1  H23A 5236   4.000   6.090   3.702
   55CHL1  H23B 5237   4.157   6.099   3.623
   55CHL1   C24 5238   4.122   6.260   3.774
   55CHL1  H24A 5239   4.208   6.322   3.742
   55CHL1  H24B 5240   4.040   6.335   3.785
   55CHL1   C25 5241   4.153   6.183   3.903
   55CHL1   H25 5242   4.195   6.084   3.874
   55CHL1   C26 5243   4.254   6.246   4.000
   55CHL1  H26A 5244   4.259   6.356   3.994
   55CHL1  H26B 5245   4.239   6.200   4.100
   55CHL1  H26C 5246   4.352   6.214   3.960
   55CHL1   C27 5247   4.026   6.129   3.968
   55CHL1  H27A 5248   4.033   6.071   4.063
   55CHL1  H27B 5249   3.967   6.214   4.008
   55CHL1  H27C 5250   3.957   6.088   3.891
   56CHL1    C3 5251   5.531   2.105   2.751
   56CHL1    H3 5252   5.501   1.998   2.755
   56CHL1    O3 5253   5.499   2.163   2.625
   56CHL1   H3' 5254   5.534   2.252   2.630
   56CHL1    C4 5255   5.457   2.193   2.854
   56CHL1   H4A 5256   5.456   2.302   2.830
   56CHL1   H4B 5257   5.349   2.167   2.842
   56CHL1    C5 5258   5.500   2.181   2.998
   56CHL1    C6 5259   5.405   2.184   3.096
   56CHL1    H6 5260   5.297   2.198   3.084
   56CHL1    C7 5261   5.443   2.151   3.237
   56CHL1   H7A 5262   5.390   2.219   3.307
   56CHL1   H7B 5263   5.405   2.048   3.257
   56CHL1    C8 5264   5.594   2.152   3.269
   56CHL1    H8 5265   5.626   2.258   3.281
   56CHL1   C14 5266   5.620   2.080   3.403
   56CHL1   H14 5267   5.590   1.973   3.390
   56CHL1   C15 5268   5.547   2.128   3.521
   56CHL1  H15A 5269   5.558   2.238   3.532
   56CHL1  H15B 5270   5.436   2.122   3.516
   56CHL1   C16 5271   5.617   2.048   3.631
   56CHL1  H16A 5272   5.656   2.111   3.713
   56CHL1  H16B 5273   5.556   1.967   3.677
   56CHL1   C17 5274   5.753   1.997   3.581
   56CHL1   H17 5275   5.736   1.890   3.556
   56CHL1   C13 5276   5.767   2.066   3.447
   56CHL1   C18 5277   5.813   2.214   3.469
   56CHL1  H18A 5278   5.747   2.255   3.548
   56CHL1  H18B 5279   5.917   2.220   3.508
   56CHL1  H18C 5280   5.797   2.280   3.381
   56CHL1   C12 5281   5.846   2.001   3.341
   56CHL1  H12A 5282   5.956   2.006   3.360
   56CHL1  H12B 5283   5.835   1.891   3.349
   56CHL1   C11 5284   5.819   2.065   3.205
   56CHL1  H11A 5285   5.864   2.166   3.215
   56CHL1  H11B 5286   5.874   2.004   3.130
   56CHL1    C9 5287   5.670   2.078   3.163
   56CHL1    H9 5288   5.629   1.978   3.140
   56CHL1   C10 5289   5.655   2.156   3.017
   56CHL1   C19 5290   5.723   2.295   3.014
   56CHL1  H19A 5291   5.698   2.350   2.921
   56CHL1  H19B 5292   5.693   2.359   3.099
   56CHL1  H19C 5293   5.834   2.288   3.011
   56CHL1    C1 5294   5.718   2.067   2.911
   56CHL1   H1A 5295   5.828   2.050   2.915
   56CHL1   H1B 5296   5.689   1.962   2.933
   56CHL1    C2 5297   5.680   2.105   2.769
   56CHL1   H2A 5298   5.726   2.035   2.697
   56CHL1   H2B 5299   5.727   2.203   2.745
   56CHL1   C20 5300   5.867   1.991   3.680
   56CHL1   H20 5301   5.887   2.097   3.708
   56CHL1   C21 5302   5.992   1.921   3.619
   56CHL1  H21A 5303   6.054   1.974   3.544
   56CHL1  H21B 5304   5.972   1.821   3.576
   56CHL1  H21C 5305   6.051   1.904   3.712
   56CHL1   C22 5306   5.830   1.929   3.818
   56CHL1  H22A 5307   5.924   1.934   3.876
   56CHL1  H22B 5308   5.763   1.995   3.877
   56CHL1   C23 5309   5.779   1.783   3.829
   56CHL1  H23A 5310   5.678   1.788   3.783
   56CHL1  H23B 5311   5.826   1.706   3.764
   56CHL1   C24 5312   5.762   1.714   3.968
   56CHL1  H24A 5313   5.849   1.722   4.036
   56CHL1  H24B 5314   5.680   1.766   4.022
   56CHL1   C25 5315   5.707   1.574   3.954
   56CHL1   H25 5316   5.639   1.571   3.866
   56CHL1   C26 5317   5.823   1.467   3.945
   56CHL1  H26A 5318   5.886   1.464   4.037
   56CHL1  H26B 5319   5.772   1.369   3.929
   56CHL1  H26C 5320   5.887   1.482   3.855
   56CHL1   C27 5321   5.627   1.533   4.077
   56CHL1  H27A 5322   5.543   1.605   4.090
   56CHL1  H27B 5323   5.579   1.433   4.067
   56CHL1  H27C 5324   5.690   1.534   4.168
   57CHL1    C3 5325   4.410   0.154   2.805
   57CHL1    H3 5326   4.473   0.231   2.854
   57CHL1    O3 5327   4.428   0.163   2.664
   57CHL1   H3' 5328   4.422   0.255   2.639
   57CHL1    C4 5329   4.427   0.013   2.849
   57CHL1   H4A 5330   4.368   6.839   2.790
   57CHL1   H4B 5331   4.528   6.894   2.805
   57CHL1    C5 5332   4.412   6.879   2.991
   57CHL1    C6 5333   4.503   6.824   3.069
   57CHL1    H6 5334   4.597   6.795   3.019
   57CHL1    C7 5335   4.489   6.797   3.211
   57CHL1   H7A 5336   4.527   6.695   3.232
   57CHL1   H7B 5337   4.565   6.861   3.261
   57CHL1    C8 5338   4.341   6.802   3.260
   57CHL1    H8 5339   4.298   6.702   3.235
   57CHL1   C14 5340   4.332   6.813   3.413
   57CHL1   H14 5341   4.372   0.015   3.430
   57CHL1   C15 5342   4.417   6.712   3.502
   57CHL1  H15A 5343   4.408   6.615   3.449
   57CHL1  H15B 5344   4.527   6.727   3.499
   57CHL1   C16 5345   4.348   6.721   3.640
   57CHL1  H16A 5346   4.328   6.626   3.693
   57CHL1  H16B 5347   4.407   6.762   3.725
   57CHL1   C17 5348   4.217   6.807   3.624
   57CHL1   H17 5349   4.262   0.007   3.642
   57CHL1   C13 5350   4.192   6.811   3.472
   57CHL1   C18 5351   4.128   6.677   3.433
   57CHL1  H18A 5352   4.178   6.585   3.468
   57CHL1  H18B 5353   4.024   6.667   3.469
   57CHL1  H18C 5354   4.108   6.666   3.324
   57CHL1   C12 5355   4.124   0.037   3.415
   57CHL1  H12A 5356   4.017   0.029   3.444
   57CHL1  H12B 5357   4.170   0.135   3.440
   57CHL1   C11 5358   4.122   0.034   3.255
   57CHL1  H11A 5359   4.050   6.854   3.227
   57CHL1  H11B 5360   4.088   0.137   3.231
   57CHL1    C9 5361   4.264   0.022   3.195
   57CHL1    H9 5362   4.320   0.109   3.237
   57CHL1   C10 5363   4.270   0.024   3.040
   57CHL1   C19 5364   4.168   6.822   2.995
   57CHL1  H19A 5365   4.180   6.722   3.043
   57CHL1  H19B 5366   4.071   6.870   3.019
   57CHL1  H19C 5367   4.174   6.811   2.884
   57CHL1    C1 5368   4.242   0.168   2.993
   57CHL1   H1A 5369   4.139   0.195   3.022
   57CHL1   H1B 5370   4.309   0.234   3.051
   57CHL1    C2 5371   4.265   0.196   2.841
   57CHL1   H2A 5372   4.235   0.301   2.821
   57CHL1   H2B 5373   4.205   0.121   2.783
   57CHL1   C20 5374   4.098   6.767   3.710
   57CHL1   H20 5375   4.058   6.668   3.679
   57CHL1   C21 5376   3.986   6.865   3.707
   57CHL1  H21A 5377   4.018   0.070   3.694
   57CHL1  H21B 5378   3.916   6.851   3.792
   57CHL1  H21C 5379   3.927   6.850   3.614
   57CHL1   C22 5380   4.138   6.750   3.858
   57CHL1  H22A 5381   4.242   6.718   3.876
   57CHL1  H22B 5382   4.114   6.841   3.917
   57CHL1   C23 5383   4.047   6.648   3.928
   57CHL1  H23A 5384   3.945   6.691   3.919
   57CHL1  H23B 5385   4.047   6.555   3.868
   57CHL1   C24 5386   4.084   6.613   4.076
   57CHL1  H24A 5387   4.049   6.512   4.107
   57CHL1  H24B 5388   4.192   6.601   4.098
   57CHL1   C25 5389   4.055   6.718   4.185
   57CHL1   H25 5390   4.101   6.817   4.162
   57CHL1   C26 5391   3.905   6.732   4.211
   57CHL1  H26A 5392   3.873   6.632   4.249
   57CHL1  H26B 5393   3.880   6.815   4.281
   57CHL1  H26C 5394   3.855   6.756   4.115
   57CHL1   C27 5395   4.134   6.676   4.316
   57CHL1  H27A 5396   4.238   6.650   4.287
   57CHL1  H27B 5397   4.126   6.754   4.395
   57CHL1  H27C 5398   4.093   6.583   4.361
   58CHL1    C3 5399   4.229   0.593   2.812
   58CHL1    H3 5400   4.290   0.501   2.804
   58CHL1    O3 5401   4.174   0.625   2.683
   58CHL1   H3' 5402   4.122   0.551   2.652
   58CHL1    C4 5403   4.106   0.577   2.903
   58CHL1   H4A 5404   4.036   0.663   2.897
   58CHL1   H4B 5405   4.040   0.497   2.865
   58CHL1    C5 5406   4.135   0.556   3.046
   58CHL1    C6 5407   4.088   0.452   3.120
   58CHL1    H6 5408   4.020   0.376   3.076
   58CHL1    C7 5409   4.106   0.428   3.265
   58CHL1   H7A 5410   4.006   0.404   3.306
   58CHL1   H7B 5411   4.172   0.339   3.272
   58CHL1    C8 5412   4.164   0.551   3.337
   58CHL1    H8 5413   4.075   0.616   3.349
   58CHL1   C14 5414   4.221   0.515   3.471
   58CHL1   H14 5415   4.309   0.447   3.464
   58CHL1   C15 5416   4.122   0.440   3.561
   58CHL1  H15A 5417   4.022   0.489   3.556
   58CHL1  H15B 5418   4.124   0.332   3.538
   58CHL1   C16 5419   4.182   0.468   3.699
   58CHL1  H16A 5420   4.110   0.488   3.782
   58CHL1  H16B 5421   4.230   0.371   3.724
   58CHL1   C17 5422   4.303   0.575   3.685
   58CHL1   H17 5423   4.397   0.518   3.669
   58CHL1   C13 5424   4.278   0.642   3.549
   58CHL1   C18 5425   4.166   0.748   3.567
   58CHL1  H18A 5426   4.082   0.709   3.627
   58CHL1  H18B 5427   4.208   0.837   3.618
   58CHL1  H18C 5428   4.128   0.782   3.468
   58CHL1   C12 5429   4.398   0.694   3.474
   58CHL1  H12A 5430   4.440   0.784   3.524
   58CHL1  H12B 5431   4.475   0.614   3.476
   58CHL1   C11 5432   4.351   0.734   3.326
   58CHL1  H11A 5433   4.287   0.820   3.355
   58CHL1  H11B 5434   4.432   0.786   3.271
   58CHL1    C9 5435   4.279   0.616   3.252
   58CHL1    H9 5436   4.353   0.539   3.223
   58CHL1   C10 5437   4.226   0.660   3.112
   58CHL1   C19 5438   4.150   0.791   3.130
   58CHL1  H19A 5439   4.215   0.872   3.167
   58CHL1  H19B 5440   4.102   0.824   3.035
   58CHL1  H19C 5441   4.064   0.785   3.201
   58CHL1    C1 5442   4.340   0.691   3.014
   58CHL1   H1A 5443   4.406   0.775   3.044
   58CHL1   H1B 5444   4.401   0.598   3.013
   58CHL1    C2 5445   4.301   0.717   2.869
   58CHL1   H2A 5446   4.393   0.739   2.811
   58CHL1   H2B 5447   4.232   0.802   2.847
   58CHL1   C20 5448   4.317   0.656   3.812
   58CHL1   H20 5449   4.224   0.712   3.839
   58CHL1   C21 5450   4.434   0.764   3.790
   58CHL1  H21A 5451   4.441   0.813   3.889
   58CHL1  H21B 5452   4.409   0.840   3.713
   58CHL1  H21C 5453   4.533   0.718   3.766
   58CHL1   C22 5454   4.355   0.575   3.934
   58CHL1  H22A 5455   4.266   0.517   3.964
   58CHL1  H22B 5456   4.435   0.500   3.914
   58CHL1   C23 5457   4.394   0.651   4.067
   58CHL1  H23A 5458   4.493   0.701   4.062
   58CHL1  H23B 5459   4.318   0.730   4.088
   58CHL1   C24 5460   4.421   0.568   4.191
   58CHL1  H24A 5461   4.318   0.539   4.219
   58CHL1  H24B 5462   4.479   0.476   4.169
   58CHL1   C25 5463   4.496   0.637   4.302
   58CHL1   H25 5464   4.596   0.669   4.266
   58CHL1   C26 5465   4.427   0.765   4.349
   58CHL1  H26A 5466   4.407   0.840   4.270
   58CHL1  H26B 5467   4.334   0.736   4.403
   58CHL1  H26C 5468   4.484   0.815   4.431
   58CHL1   C27 5469   4.536   0.542   4.425
   58CHL1  H27A 5470   4.567   0.446   4.378
   58CHL1  H27B 5471   4.632   0.580   4.466
   58CHL1  H27C 5472   4.454   0.537   4.501
   59CHL1    C3 5473   2.320   4.976   2.754
   59CHL1    H3 5474   2.209   4.989   2.752
   59CHL1    O3 5475   2.370   4.981   2.625
   59CHL1   H3' 5476   2.465   4.993   2.622
   59CHL1    C4 5477   2.389   5.090   2.836
   59CHL1   H4A 5478   2.497   5.077   2.811
   59CHL1   H4B 5479   2.370   5.187   2.786
   59CHL1    C5 5480   2.381   5.095   2.987
   59CHL1    C6 5481   2.353   5.204   3.050
   59CHL1    H6 5482   2.328   5.292   2.989
   59CHL1    C7 5483   2.308   5.213   3.194
   59CHL1   H7A 5484   2.349   5.305   3.240
   59CHL1   H7B 5485   2.198   5.228   3.193
   59CHL1    C8 5486   2.348   5.083   3.268
   59CHL1    H8 5487   2.458   5.068   3.281
   59CHL1   C14 5488   2.275   5.078   3.402
   59CHL1   H14 5489   2.167   5.069   3.381
   59CHL1   C15 5490   2.286   5.208   3.483
   59CHL1  H15A 5491   2.396   5.223   3.483
   59CHL1  H15B 5492   2.235   5.296   3.439
   59CHL1   C16 5493   2.224   5.159   3.620
   59CHL1  H16A 5494   2.289   5.198   3.702
   59CHL1  H16B 5495   2.116   5.184   3.623
   59CHL1   C17 5496   2.232   4.997   3.619
   59CHL1   H17 5497   2.129   4.971   3.589
   59CHL1   C13 5498   2.314   4.962   3.492
   59CHL1   C18 5499   2.472   4.956   3.509
   59CHL1  H18A 5500   2.538   4.960   3.420
   59CHL1  H18B 5501   2.513   5.029   3.581
   59CHL1  H18C 5502   2.497   4.857   3.553
   59CHL1   C12 5503   2.259   4.834   3.423
   59CHL1  H12A 5504   2.280   4.746   3.487
   59CHL1  H12B 5505   2.148   4.842   3.413
   59CHL1   C11 5506   2.319   4.829   3.283
   59CHL1  H11A 5507   2.427   4.802   3.291
   59CHL1  H11B 5508   2.272   4.746   3.227
   59CHL1    C9 5509   2.304   4.963   3.190
   59CHL1    H9 5510   2.195   4.961   3.168
   59CHL1   C10 5511   2.376   4.950   3.052
   59CHL1   C19 5512   2.530   4.904   3.074
   59CHL1  H19A 5513   2.586   4.955   3.156
   59CHL1  H19B 5514   2.521   4.795   3.092
   59CHL1  H19C 5515   2.586   4.923   2.980
   59CHL1    C1 5516   2.298   4.842   2.964
   59CHL1   H1A 5517   2.304   4.737   3.001
   59CHL1   H1B 5518   2.190   4.867   2.967
   59CHL1    C2 5519   2.353   4.843   2.819
   59CHL1   H2A 5520   2.304   4.760   2.764
   59CHL1   H2B 5521   2.462   4.822   2.822
   59CHL1   C20 5522   2.272   4.936   3.756
   59CHL1   H20 5523   2.372   4.973   3.787
   59CHL1   C21 5524   2.266   4.788   3.754
   59CHL1  H21A 5525   2.347   4.747   3.691
   59CHL1  H21B 5526   2.173   4.750   3.706
   59CHL1  H21C 5527   2.282   4.745   3.855
   59CHL1   C22 5528   2.169   4.986   3.867
   59CHL1  H22A 5529   2.068   5.014   3.829
   59CHL1  H22B 5530   2.137   4.894   3.920
   59CHL1   C23 5531   2.206   5.109   3.959
   59CHL1  H23A 5532   2.313   5.108   3.989
   59CHL1  H23B 5533   2.179   5.197   3.898
   59CHL1   C24 5534   2.103   5.098   4.083
   59CHL1  H24A 5535   2.116   5.190   4.143
   59CHL1  H24B 5536   2.008   5.098   4.026
   59CHL1   C25 5537   2.113   4.968   4.171
   59CHL1   H25 5538   2.103   4.873   4.114
   59CHL1   C26 5539   2.252   4.952   4.245
   59CHL1  H26A 5540   2.281   5.041   4.304
   59CHL1  H26B 5541   2.245   4.865   4.314
   59CHL1  H26C 5542   2.328   4.931   4.167
   59CHL1   C27 5543   2.000   4.978   4.273
   59CHL1  H27A 5544   2.001   4.893   4.344
   59CHL1  H27B 5545   2.014   5.078   4.320
   59CHL1  H27C 5546   1.907   4.989   4.212
   60CHL1    C3 5547   5.554   6.141   2.524
   60CHL1    H3 5548   5.496   6.235   2.526
   60CHL1    O3 5549   5.589   6.103   2.393
   60CHL1   H3' 5550   5.681   6.126   2.382
   60CHL1    C4 5551   5.681   6.154   2.604
   60CHL1   H4A 5552   5.746   6.068   2.577
   60CHL1   H4B 5553   5.735   6.242   2.564
   60CHL1    C5 5554   5.668   6.161   2.753
   60CHL1    C6 5555   5.726   6.261   2.822
   60CHL1    H6 5556   5.792   6.331   2.769
   60CHL1    C7 5557   5.721   6.281   2.971
   60CHL1   H7A 5558   5.825   6.294   3.008
   60CHL1   H7B 5559   5.674   6.372   3.011
   60CHL1    C8 5560   5.673   6.146   3.035
   60CHL1    H8 5561   5.758   6.074   3.025
   60CHL1   C14 5562   5.636   6.167   3.181
   60CHL1   H14 5563   5.547   6.233   3.180
   60CHL1   C15 5564   5.740   6.234   3.269
   60CHL1  H15A 5565   5.844   6.194   3.263
   60CHL1  H15B 5566   5.737   6.341   3.239
   60CHL1   C16 5567   5.678   6.213   3.411
   60CHL1  H16A 5568   5.760   6.178   3.477
   60CHL1  H16B 5569   5.628   6.305   3.449
   60CHL1   C17 5570   5.561   6.109   3.397
   60CHL1   H17 5571   5.461   6.156   3.387
   60CHL1   C13 5572   5.590   6.047   3.257
   60CHL1   C18 5573   5.700   5.937   3.266
   60CHL1  H18A 5574   5.795   5.979   3.305
   60CHL1  H18B 5575   5.654   5.854   3.323
   60CHL1  H18C 5576   5.723   5.895   3.166
   60CHL1   C12 5577   5.461   5.992   3.189
   60CHL1  H12A 5578   5.423   5.899   3.236
   60CHL1  H12B 5579   5.373   6.059   3.202
   60CHL1   C11 5580   5.493   5.961   3.042
   60CHL1  H11A 5581   5.562   5.875   3.033
   60CHL1  H11B 5582   5.404   5.926   2.986
   60CHL1    C9 5583   5.551   6.085   2.967
   60CHL1    H9 5584   5.467   6.158   2.965
   60CHL1   C10 5585   5.581   6.055   2.818
   60CHL1   C19 5586   5.660   5.921   2.812
   60CHL1  H19A 5587   5.597   5.832   2.838
   60CHL1  H19B 5588   5.713   5.903   2.717
   60CHL1  H19C 5589   5.744   5.928   2.884
   60CHL1    C1 5590   5.455   6.051   2.738
   60CHL1   H1A 5591   5.381   5.978   2.779
   60CHL1   H1B 5592   5.409   6.152   2.749
   60CHL1    C2 5593   5.460   6.037   2.584
   60CHL1   H2A 5594   5.360   6.034   2.536
   60CHL1   H2B 5595   5.511   5.941   2.562
   60CHL1   C20 5596   5.548   6.014   3.518
   60CHL1   H20 5597   5.639   5.950   3.522
   60CHL1   C21 5598   5.433   5.905   3.506
   60CHL1  H21A 5599   5.472   5.813   3.457
   60CHL1  H21B 5600   5.358   5.951   3.439
   60CHL1  H21C 5601   5.393   5.892   3.609
   60CHL1   C22 5602   5.542   6.092   3.652
   60CHL1  H22A 5603   5.621   6.170   3.653
   60CHL1  H22B 5604   5.447   6.149   3.659
   60CHL1   C23 5605   5.565   6.006   3.777
   60CHL1  H23A 5606   5.497   5.919   3.781
   60CHL1  H23B 5607   5.672   5.974   3.783
   60CHL1   C24 5608   5.537   6.085   3.904
   60CHL1  H24A 5609   5.566   6.189   3.876
   60CHL1  H24B 5610   5.428   6.078   3.923
   60CHL1   C25 5611   5.602   6.033   4.035
   60CHL1   H25 5612   5.712   6.047   4.029
   60CHL1   C26 5613   5.548   6.120   4.152
   60CHL1  H26A 5614   5.437   6.108   4.157
   60CHL1  H26B 5615   5.585   6.090   4.252
   60CHL1  H26C 5616   5.575   6.226   4.130
   60CHL1   C27 5617   5.570   5.885   4.063
   60CHL1  H27A 5618   5.462   5.866   4.086
   60CHL1  H27B 5619   5.606   5.819   3.982
   60CHL1  H27C 5620   5.622   5.854   4.156
   61CHL1    C3 5621   5.124   2.701   3.062
   61CHL1    H3 5622   5.199   2.782   3.050
   61CHL1    O3 5623   5.066   2.705   2.931
   61CHL1   H3' 5624   5.086   2.623   2.884
   61CHL1    C4 5625   5.207   2.578   3.095
   61CHL1   H4A 5626   5.153   2.483   3.078
   61CHL1   H4B 5627   5.289   2.595   3.021
   61CHL1    C5 5628   5.261   2.566   3.240
   61CHL1    C6 5629   5.386   2.526   3.261
   61CHL1    H6 5630   5.450   2.502   3.175
   61CHL1    C7 5631   5.452   2.519   3.391
   61CHL1   H7A 5632   5.501   2.421   3.410
   61CHL1   H7B 5633   5.525   2.601   3.410
   61CHL1    C8 5634   5.354   2.550   3.507
   61CHL1    H8 5635   5.309   2.452   3.531
   61CHL1   C14 5636   5.434   2.599   3.632
   61CHL1   H14 5637   5.489   2.694   3.610
   61CHL1   C15 5638   5.550   2.525   3.681
   61CHL1  H15A 5639   5.521   2.419   3.698
   61CHL1  H15B 5640   5.642   2.535   3.619
   61CHL1   C16 5641   5.582   2.588   3.822
   61CHL1  H16A 5642   5.593   2.502   3.892
   61CHL1  H16B 5643   5.676   2.648   3.827
   61CHL1   C17 5644   5.467   2.679   3.853
   61CHL1   H17 5645   5.479   2.784   3.821
   61CHL1   C13 5646   5.354   2.636   3.758
   61CHL1   C18 5647   5.276   2.510   3.816
   61CHL1  H18A 5648   5.352   2.440   3.855
   61CHL1  H18B 5649   5.204   2.530   3.898
   61CHL1  H18C 5650   5.220   2.469   3.729
   61CHL1   C12 5651   5.248   2.744   3.716
   61CHL1  H12A 5652   5.176   2.772   3.797
   61CHL1  H12B 5653   5.293   2.839   3.680
   61CHL1   C11 5654   5.161   2.703   3.595
   61CHL1  H11A 5655   5.086   2.634   3.639
   61CHL1  H11B 5656   5.111   2.795   3.558
   61CHL1    C9 5657   5.245   2.652   3.475
   61CHL1    H9 5658   5.304   2.743   3.452
   61CHL1   C10 5659   5.163   2.620   3.348
   61CHL1   C19 5660   5.060   2.515   3.382
   61CHL1  H19A 5661   4.993   2.481   3.300
   61CHL1  H19B 5662   5.116   2.424   3.410
   61CHL1  H19C 5663   4.994   2.554   3.463
   61CHL1    C1 5664   5.099   2.752   3.299
   61CHL1   H1A 5665   5.028   2.792   3.375
   61CHL1   H1B 5666   5.170   2.838   3.301
   61CHL1    C2 5667   5.024   2.736   3.172
   61CHL1   H2A 5668   4.963   2.827   3.153
   61CHL1   H2B 5669   4.973   2.637   3.168
   61CHL1   C20 5670   5.443   2.684   4.003
   61CHL1   H20 5671   5.417   2.591   4.058
   61CHL1   C21 5672   5.333   2.784   4.040
   61CHL1  H21A 5673   5.233   2.737   4.030
   61CHL1  H21B 5674   5.336   2.877   3.979
   61CHL1  H21C 5675   5.341   2.816   4.146
   61CHL1   C22 5676   5.571   2.741   4.084
   61CHL1  H22A 5677   5.552   2.744   4.193
   61CHL1  H22B 5678   5.648   2.662   4.077
   61CHL1   C23 5679   5.635   2.875   4.037
   61CHL1  H23A 5680   5.611   2.893   3.930
   61CHL1  H23B 5681   5.591   2.962   4.091
   61CHL1   C24 5682   5.790   2.881   4.051
   61CHL1  H24A 5683   5.826   2.776   4.042
   61CHL1  H24B 5684   5.825   2.942   3.965
   61CHL1   C25 5685   5.841   2.959   4.174
   61CHL1   H25 5686   5.776   3.049   4.183
   61CHL1   C26 5687   5.839   2.884   4.314
   61CHL1  H26A 5688   5.734   2.861   4.345
   61CHL1  H26B 5689   5.890   2.787   4.303
   61CHL1  H26C 5690   5.898   2.945   4.387
   61CHL1   C27 5691   5.986   3.012   4.147
   61CHL1  H27A 5692   6.023   3.083   4.224
   61CHL1  H27B 5693   6.057   2.927   4.144
   61CHL1  H27C 5694   5.991   3.061   4.047
   62CHL1    C3 5695   1.565   1.012   2.686
   62CHL1    H3 5696   1.546   1.120   2.701
   62CHL1    O3 5697   1.576   0.994   2.549
   62CHL1   H3' 5698   1.583   0.898   2.543
   62CHL1    C4 5699   1.699   0.978   2.750
   62CHL1   H4A 5700   1.725   0.873   2.725
   62CHL1   H4B 5701   1.774   1.045   2.704
   62CHL1    C5 5702   1.694   0.989   2.902
   62CHL1    C6 5703   1.792   1.057   2.975
   62CHL1    H6 5704   1.881   1.095   2.922
   62CHL1    C7 5705   1.795   1.072   3.126
   62CHL1   H7A 5706   1.893   1.043   3.170
   62CHL1   H7B 5707   1.749   1.169   3.155
   62CHL1    C8 5708   1.708   0.969   3.196
   62CHL1    H8 5709   1.758   0.870   3.192
   62CHL1   C14 5710   1.681   1.019   3.336
   62CHL1   H14 5711   1.630   1.117   3.329
   62CHL1   C15 5712   1.806   1.049   3.421
   62CHL1  H15A 5713   1.884   0.971   3.411
   62CHL1  H15B 5714   1.856   1.140   3.383
   62CHL1   C16 5715   1.750   1.041   3.567
   62CHL1  H16A 5716   1.806   0.961   3.620
   62CHL1  H16B 5717   1.783   1.139   3.608
   62CHL1   C17 5718   1.598   1.014   3.560
   62CHL1   H17 5719   1.555   1.117   3.552
   62CHL1   C13 5720   1.589   0.943   3.420
   62CHL1   C18 5721   1.644   0.793   3.445
   62CHL1  H18A 5722   1.655   0.731   3.354
   62CHL1  H18B 5723   1.743   0.796   3.495
   62CHL1  H18C 5724   1.582   0.731   3.515
   62CHL1   C12 5725   1.445   0.934   3.351
   62CHL1  H12A 5726   1.374   0.861   3.396
   62CHL1  H12B 5727   1.400   1.035   3.345
   62CHL1   C11 5728   1.465   0.878   3.206
   62CHL1  H11A 5729   1.502   0.773   3.202
   62CHL1  H11B 5730   1.368   0.893   3.155
   62CHL1    C9 5731   1.566   0.958   3.121
   62CHL1    H9 5732   1.522   1.060   3.125
   62CHL1   C10 5733   1.578   0.919   2.977
   62CHL1   C19 5734   1.617   0.766   2.972
   62CHL1  H19A 5735   1.542   0.700   3.020
   62CHL1  H19B 5736   1.623   0.736   2.865
   62CHL1  H19C 5737   1.715   0.744   3.021
   62CHL1    C1 5738   1.448   0.955   2.897
   62CHL1   H1A 5739   1.378   0.880   2.940
   62CHL1   H1B 5740   1.409   1.057   2.920
   62CHL1    C2 5741   1.453   0.931   2.747
   62CHL1   H2A 5742   1.356   0.954   2.699
   62CHL1   H2B 5743   1.482   0.826   2.723
   62CHL1   C20 5744   1.547   0.949   3.683
   62CHL1   H20 5745   1.601   0.853   3.694
   62CHL1   C21 5746   1.398   0.926   3.687
   62CHL1  H21A 5747   1.373   0.878   3.784
   62CHL1  H21B 5748   1.369   0.856   3.606
   62CHL1  H21C 5749   1.335   1.016   3.669
   62CHL1   C22 5750   1.594   1.024   3.819
   62CHL1  H22A 5751   1.557   0.962   3.904
   62CHL1  H22B 5752   1.705   1.017   3.825
   62CHL1   C23 5753   1.539   1.170   3.836
   62CHL1  H23A 5754   1.568   1.240   3.754
   62CHL1  H23B 5755   1.430   1.176   3.817
   62CHL1   C24 5756   1.546   1.219   3.983
   62CHL1  H24A 5757   1.481   1.309   3.984
   62CHL1  H24B 5758   1.496   1.140   4.043
   62CHL1   C25 5759   1.688   1.238   4.035
   62CHL1   H25 5760   1.738   1.140   4.024
   62CHL1   C26 5761   1.763   1.339   3.942
   62CHL1  H26A 5762   1.866   1.351   3.983
   62CHL1  H26B 5763   1.765   1.295   3.840
   62CHL1  H26C 5764   1.719   1.441   3.943
   62CHL1   C27 5765   1.691   1.285   4.183
   62CHL1  H27A 5766   1.602   1.245   4.236
   62CHL1  H27B 5767   1.787   1.252   4.228
   62CHL1  H27C 5768   1.697   1.396   4.187
   63CHL1    C3 5769   4.250   5.407   2.776
   63CHL1    H3 5770   4.334   5.334   2.778
   63CHL1    O3 5771   4.223   5.448   2.644
   63CHL1   H3' 5772   4.191   5.372   2.595
   63CHL1    C4 5773   4.127   5.347   2.839
   63CHL1   H4A 5774   4.038   5.409   2.815
   63CHL1   H4B 5775   4.097   5.260   2.777
   63CHL1    C5 5776   4.137   5.304   2.981
   63CHL1    C6 5777   4.124   5.177   3.025
   63CHL1    H6 5778   4.098   5.096   2.955
   63CHL1    C7 5779   4.114   5.138   3.169
   63CHL1   H7A 5780   4.022   5.078   3.182
   63CHL1   H7B 5781   4.197   5.070   3.197
   63CHL1    C8 5782   4.115   5.255   3.266
   63CHL1    H8 5783   4.016   5.304   3.276
   63CHL1   C14 5784   4.151   5.193   3.399
   63CHL1   H14 5785   4.254   5.157   3.383
   63CHL1   C15 5786   4.069   5.081   3.460
   63CHL1  H15A 5787   3.961   5.106   3.475
   63CHL1  H15B 5788   4.079   4.985   3.405
   63CHL1   C16 5789   4.116   5.069   3.604
   63CHL1  H16A 5790   4.034   5.058   3.678
   63CHL1  H16B 5791   4.184   4.981   3.605
   63CHL1   C17 5792   4.200   5.194   3.639
   63CHL1   H17 5793   4.305   5.160   3.628
   63CHL1   C13 5794   4.168   5.293   3.523
   63CHL1   C18 5795   4.037   5.367   3.551
   63CHL1  H18A 5796   3.973   5.294   3.606
   63CHL1  H18B 5797   4.059   5.464   3.601
   63CHL1  H18C 5798   3.983   5.383   3.455
   63CHL1   C12 5799   4.272   5.403   3.474
   63CHL1  H12A 5800   4.274   5.479   3.555
   63CHL1  H12B 5801   4.373   5.357   3.476
   63CHL1   C11 5802   4.225   5.465   3.342
   63CHL1  H11A 5803   4.121   5.500   3.359
   63CHL1  H11B 5804   4.292   5.550   3.315
   63CHL1    C9 5805   4.210   5.361   3.224
   63CHL1    H9 5806   4.308   5.310   3.223
   63CHL1   C10 5807   4.171   5.414   3.082
   63CHL1   C19 5808   4.060   5.521   3.096
   63CHL1  H19A 5809   4.025   5.550   2.995
   63CHL1  H19B 5810   3.976   5.494   3.163
   63CHL1  H19C 5811   4.110   5.611   3.138
   63CHL1    C1 5812   4.291   5.487   3.014
   63CHL1   H1A 5813   4.317   5.582   3.067
   63CHL1   H1B 5814   4.381   5.423   3.029
   63CHL1    C2 5815   4.287   5.530   2.861
   63CHL1   H2A 5816   4.386   5.571   2.831
   63CHL1   H2B 5817   4.212   5.611   2.849
   63CHL1   C20 5818   4.183   5.234   3.781
   63CHL1   H20 5819   4.079   5.270   3.798
   63CHL1   C21 5820   4.264   5.357   3.811
   63CHL1  H21A 5821   4.212   5.450   3.781
   63CHL1  H21B 5822   4.367   5.347   3.770
   63CHL1  H21C 5823   4.275   5.361   3.921
   63CHL1   C22 5824   4.210   5.122   3.885
   63CHL1  H22A 5825   4.171   5.155   3.984
   63CHL1  H22B 5826   4.149   5.032   3.861
   63CHL1   C23 5827   4.359   5.077   3.889
   63CHL1  H23A 5828   4.393   5.044   3.788
   63CHL1  H23B 5829   4.432   5.149   3.930
   63CHL1   C24 5830   4.377   4.950   3.971
   63CHL1  H24A 5831   4.362   4.980   4.077
   63CHL1  H24B 5832   4.304   4.872   3.942
   63CHL1   C25 5833   4.514   4.885   3.970
   63CHL1   H25 5834   4.586   4.970   3.962
   63CHL1   C26 5835   4.538   4.828   4.113
   63CHL1  H26A 5836   4.600   4.736   4.116
   63CHL1  H26B 5837   4.557   4.909   4.186
   63CHL1  H26C 5838   4.435   4.794   4.139
   63CHL1   C27 5839   4.520   4.768   3.872
   63CHL1  H27A 5840   4.483   4.803   3.773
   63CHL1  H27B 5841   4.620   4.721   3.863
   63CHL1  H27C 5842   4.448   4.689   3.904
   64CHL1    C3 5843   2.773   2.467   2.882
   64CHL1    H3 5844   2.663   2.487   2.883
   64CHL1    O3 5845   2.811   2.435   2.746
   64CHL1   H3' 5846   2.906   2.436   2.758
   64CHL1    C4 5847   2.853   2.592   2.926
   64CHL1   H4A 5848   2.963   2.577   2.929
   64CHL1   H4B 5849   2.845   2.667   2.845
   64CHL1    C5 5850   2.807   2.635   3.060
   64CHL1    C6 5851   2.772   2.763   3.083
   64CHL1    H6 5852   2.789   2.834   3.000
   64CHL1    C7 5853   2.716   2.816   3.217
   64CHL1   H7A 5854   2.742   2.916   3.256
   64CHL1   H7B 5855   2.607   2.825   3.193
   64CHL1    C8 5856   2.728   2.712   3.330
   64CHL1    H8 5857   2.832   2.707   3.368
   64CHL1   C14 5858   2.636   2.748   3.451
   64CHL1   H14 5859   2.536   2.732   3.404
   64CHL1   C15 5860   2.638   2.898   3.494
   64CHL1  H15A 5861   2.743   2.933   3.500
   64CHL1  H15B 5862   2.591   2.968   3.422
   64CHL1   C16 5863   2.586   2.893   3.641
   64CHL1  H16A 5864   2.666   2.917   3.714
   64CHL1  H16B 5865   2.501   2.964   3.646
   64CHL1   C17 5866   2.534   2.743   3.656
   64CHL1   H17 5867   2.440   2.732   3.598
   64CHL1   C13 5868   2.633   2.657   3.574
   64CHL1   C18 5869   2.773   2.654   3.639
   64CHL1  H18A 5870   2.839   2.605   3.564
   64CHL1  H18B 5871   2.815   2.754   3.661
   64CHL1  H18C 5872   2.763   2.597   3.734
   64CHL1   C12 5873   2.576   2.518   3.517
   64CHL1  H12A 5874   2.562   2.445   3.600
   64CHL1  H12B 5875   2.474   2.538   3.477
   64CHL1   C11 5876   2.665   2.466   3.406
   64CHL1  H11A 5877   2.763   2.435   3.448
   64CHL1  H11B 5878   2.623   2.370   3.368
   64CHL1    C9 5879   2.694   2.568   3.285
   64CHL1    H9 5880   2.591   2.573   3.244
   64CHL1   C10 5881   2.792   2.525   3.169
   64CHL1   C19 5882   2.934   2.512   3.234
   64CHL1  H19A 5883   2.988   2.605   3.262
   64CHL1  H19B 5884   2.921   2.450   3.326
   64CHL1  H19C 5885   3.005   2.450   3.176
   64CHL1    C1 5886   2.735   2.387   3.114
   64CHL1   H1A 5887   2.774   2.307   3.182
   64CHL1   H1B 5888   2.624   2.389   3.112
   64CHL1    C2 5889   2.787   2.346   2.971
   64CHL1   H2A 5890   2.721   2.267   2.931
   64CHL1   H2B 5891   2.896   2.325   2.975
   64CHL1   C20 5892   2.519   2.709   3.810
   64CHL1   H20 5893   2.616   2.726   3.862
   64CHL1   C21 5894   2.483   2.557   3.816
   64CHL1  H21A 5895   2.402   2.534   3.743
   64CHL1  H21B 5896   2.466   2.520   3.919
   64CHL1  H21C 5897   2.571   2.493   3.794
   64CHL1   C22 5898   2.413   2.792   3.885
   64CHL1  H22A 5899   2.327   2.817   3.819
   64CHL1  H22B 5900   2.370   2.718   3.956
   64CHL1   C23 5901   2.460   2.920   3.963
   64CHL1  H23A 5902   2.561   2.900   4.003
   64CHL1  H23B 5903   2.457   3.008   3.895
   64CHL1   C24 5904   2.381   2.954   4.095
   64CHL1  H24A 5905   2.275   2.972   4.064
   64CHL1  H24B 5906   2.388   2.868   4.164
   64CHL1   C25 5907   2.437   3.081   4.163
   64CHL1   H25 5908   2.548   3.071   4.166
   64CHL1   C26 5909   2.405   3.207   4.083
   64CHL1  H26A 5910   2.297   3.233   4.092
   64CHL1  H26B 5911   2.467   3.298   4.099
   64CHL1  H26C 5912   2.402   3.184   3.974
   64CHL1   C27 5913   2.389   3.092   4.309
   64CHL1  H27A 5914   2.432   3.005   4.364
   64CHL1  H27B 5915   2.421   3.186   4.359
   64CHL1  H27C 5916   2.280   3.081   4.332
   65CHL1    C3 5917   0.764   0.819   2.579
   65CHL1    H3 5918   0.725   0.923   2.586
   65CHL1    O3 5919   0.757   0.774   2.445
   65CHL1   H3' 5920   0.690   0.829   2.403
   65CHL1    C4 5921   0.916   0.818   2.612
   65CHL1   H4A 5922   0.953   0.715   2.589
   65CHL1   H4B 5923   0.976   0.870   2.534
   65CHL1    C5 5924   0.940   0.864   2.758
   65CHL1    C6 5925   1.018   0.965   2.785
   65CHL1    H6 5926   1.071   1.019   2.705
   65CHL1    C7 5927   1.034   1.019   2.930
   65CHL1   H7A 5928   1.134   1.063   2.951
   65CHL1   H7B 5929   0.971   1.109   2.947
   65CHL1    C8 5930   0.996   0.922   3.038
   65CHL1    H8 5931   1.077   0.848   3.048
   65CHL1   C14 5932   0.990   0.997   3.169
   65CHL1   H14 5933   0.907   1.071   3.167
   65CHL1   C15 5934   1.115   1.068   3.223
   65CHL1  H15A 5935   1.198   0.996   3.241
   65CHL1  H15B 5936   1.147   1.162   3.172
   65CHL1   C16 5937   1.079   1.103   3.371
   65CHL1  H16A 5938   1.167   1.087   3.438
   65CHL1  H16B 5939   1.041   1.206   3.386
   65CHL1   C17 5940   0.956   1.016   3.405
   65CHL1   H17 5941   0.863   1.076   3.393
   65CHL1   C13 5942   0.944   0.908   3.289
   65CHL1   C18 5943   1.045   0.792   3.304
   65CHL1  H18A 5944   1.047   0.729   3.213
   65CHL1  H18B 5945   1.144   0.833   3.334
   65CHL1  H18C 5946   1.006   0.721   3.380
   65CHL1   C12 5947   0.801   0.857   3.259
   65CHL1  H12A 5948   0.758   0.791   3.338
   65CHL1  H12B 5949   0.739   0.949   3.253
   65CHL1   C11 5950   0.801   0.781   3.126
   65CHL1  H11A 5951   0.867   0.692   3.137
   65CHL1  H11B 5952   0.700   0.740   3.106
   65CHL1    C9 5953   0.856   0.860   3.003
   65CHL1    H9 5954   0.796   0.952   2.985
   65CHL1   C10 5955   0.855   0.788   2.864
   65CHL1   C19 5956   0.930   0.651   2.876
   65CHL1  H19A 5957   1.028   0.659   2.928
   65CHL1  H19B 5958   0.874   0.600   2.957
   65CHL1  H19C 5959   0.933   0.596   2.779
   65CHL1    C1 5960   0.713   0.772   2.819
   65CHL1   H1A 5961   0.658   0.700   2.884
   65CHL1   H1B 5962   0.681   0.879   2.823
   65CHL1    C2 5963   0.691   0.721   2.675
   65CHL1   H2A 5964   0.586   0.722   2.640
   65CHL1   H2B 5965   0.739   0.621   2.661
   65CHL1   C20 5966   0.977   0.978   3.553
   65CHL1   H20 5967   1.072   0.920   3.556
   65CHL1   C21 5968   0.869   0.877   3.591
   65CHL1  H21A 5969   0.770   0.911   3.555
   65CHL1  H21B 5970   0.855   0.859   3.699
   65CHL1  H21C 5971   0.877   0.781   3.535
   65CHL1   C22 5972   0.976   1.098   3.651
   65CHL1  H22A 5973   1.050   1.172   3.614
   65CHL1  H22B 5974   0.876   1.146   3.648
   65CHL1   C23 5975   1.013   1.063   3.796
   65CHL1  H23A 5976   0.934   0.996   3.838
   65CHL1  H23B 5977   1.109   1.011   3.780
   65CHL1   C24 5978   1.037   1.192   3.879
   65CHL1  H24A 5979   1.114   1.249   3.823
   65CHL1  H24B 5980   0.951   1.260   3.862
   65CHL1   C25 5981   1.077   1.169   4.025
   65CHL1   H25 5982   0.998   1.108   4.073
   65CHL1   C26 5983   1.210   1.101   4.030
   65CHL1  H26A 5984   1.209   1.012   3.964
   65CHL1  H26B 5985   1.298   1.164   4.003
   65CHL1  H26C 5986   1.220   1.078   4.138
   65CHL1   C27 5987   1.084   1.309   4.099
   65CHL1  H27A 5988   1.102   1.293   4.207
   65CHL1  H27B 5989   1.165   1.374   4.060
   65CHL1  H27C 5990   0.983   1.354   4.090
   66CHL1    C3 5991   4.544   2.365   3.127
   66CHL1    H3 5992   4.500   2.466   3.143
   66CHL1    O3 5993   4.595   2.355   2.995
   66CHL1   H3' 5994   4.689   2.335   3.003
   66CHL1    C4 5995   4.661   2.357   3.231
   66CHL1   H4A 5996   4.707   2.258   3.216
   66CHL1   H4B 5997   4.737   2.435   3.208
   66CHL1    C5 5998   4.605   2.368   3.373
   66CHL1    C6 5999   4.642   2.468   3.460
   66CHL1    H6 6000   4.717   2.542   3.429
   66CHL1    C7 6001   4.588   2.478   3.602
   66CHL1   H7A 6002   4.669   2.498   3.675
   66CHL1   H7B 6003   4.511   2.558   3.605
   66CHL1    C8 6004   4.521   2.348   3.641
   66CHL1    H8 6005   4.600   2.272   3.655
   66CHL1   C14 6006   4.444   2.359   3.768
   66CHL1   H14 6007   4.364   2.434   3.750
   66CHL1   C15 6008   4.527   2.408   3.885
   66CHL1  H15A 6009   4.618   2.346   3.896
   66CHL1  H15B 6010   4.549   2.517   3.886
   66CHL1   C16 6011   4.442   2.377   4.011
   66CHL1  H16A 6012   4.506   2.334   4.090
   66CHL1  H16B 6013   4.417   2.477   4.053
   66CHL1   C17 6014   4.327   2.290   3.960
   66CHL1   H17 6015   4.252   2.372   3.947
   66CHL1   C13 6016   4.369   2.239   3.819
   66CHL1   C18 6017   4.459   2.121   3.847
   66CHL1  H18A 6018   4.398   2.031   3.868
   66CHL1  H18B 6019   4.516   2.097   3.755
   66CHL1  H18C 6020   4.521   2.129   3.938
   66CHL1   C12 6021   4.266   2.207   3.715
   66CHL1  H12A 6022   4.207   2.118   3.745
   66CHL1  H12B 6023   4.193   2.291   3.714
   66CHL1   C11 6024   4.331   2.184   3.582
   66CHL1  H11A 6025   4.389   2.091   3.598
   66CHL1  H11B 6026   4.252   2.162   3.507
   66CHL1    C9 6027   4.433   2.297   3.535
   66CHL1    H9 6028   4.368   2.387   3.528
   66CHL1   C10 6029   4.504   2.264   3.401
   66CHL1   C19 6030   4.584   2.126   3.422
   66CHL1  H19A 6031   4.510   2.043   3.423
   66CHL1  H19B 6032   4.664   2.109   3.347
   66CHL1  H19C 6033   4.631   2.126   3.523
   66CHL1    C1 6034   4.400   2.240   3.295
   66CHL1   H1A 6035   4.369   2.134   3.291
   66CHL1   H1B 6036   4.305   2.293   3.314
   66CHL1    C2 6037   4.449   2.248   3.148
   66CHL1   H2A 6038   4.363   2.254   3.079
   66CHL1   H2B 6039   4.509   2.159   3.120
   66CHL1   C20 6040   4.270   2.200   4.062
   66CHL1   H20 6041   4.333   2.111   4.084
   66CHL1   C21 6042   4.136   2.156   4.019
   66CHL1  H21A 6043   4.144   2.089   3.931
   66CHL1  H21B 6044   4.068   2.241   3.997
   66CHL1  H21C 6045   4.092   2.089   4.096
   66CHL1   C22 6046   4.238   2.281   4.197
   66CHL1  H22A 6047   4.329   2.329   4.239
   66CHL1  H22B 6048   4.153   2.351   4.179
   66CHL1   C23 6049   4.214   2.186   4.319
   66CHL1  H23A 6050   4.124   2.126   4.293
   66CHL1  H23B 6051   4.295   2.111   4.334
   66CHL1   C24 6052   4.189   2.262   4.449
   66CHL1  H24A 6053   4.253   2.350   4.470
   66CHL1  H24B 6054   4.085   2.301   4.445
   66CHL1   C25 6055   4.202   2.176   4.578
   66CHL1   H25 6056   4.114   2.109   4.586
   66CHL1   C26 6057   4.332   2.102   4.593
   66CHL1  H26A 6058   4.425   2.164   4.595
   66CHL1  H26B 6059   4.334   2.050   4.691
   66CHL1  H26C 6060   4.351   2.016   4.524
   66CHL1   C27 6061   4.186   2.273   4.697
   66CHL1  H27A 6062   4.286   2.315   4.720
   66CHL1  H27B 6063   4.164   2.215   4.789
   66CHL1  H27C 6064   4.103   2.344   4.676
   67CHL1    C3 6065   4.582   6.572   2.787
   67CHL1    H3 6066   4.576   6.667   2.844
   67CHL1    O3 6067   4.562   6.599   2.647
   67CHL1   H3' 6068   4.473   6.569   2.624
   67CHL1    C4 6069   4.720   6.497   2.808
   67CHL1   H4A 6070   4.720   6.405   2.746
   67CHL1   H4B 6071   4.796   6.562   2.759
   67CHL1    C5 6072   4.736   6.470   2.957
   67CHL1    C6 6073   4.841   6.518   3.023
   67CHL1    H6 6074   4.911   6.591   2.981
   67CHL1    C7 6075   4.867   6.486   3.167
   67CHL1   H7A 6076   4.971   6.447   3.175
   67CHL1   H7B 6077   4.858   6.579   3.227
   67CHL1    C8 6078   4.777   6.372   3.217
   67CHL1    H8 6079   4.825   6.278   3.184
   67CHL1   C14 6080   4.784   6.365   3.370
   67CHL1   H14 6081   4.744   6.463   3.404
   67CHL1   C15 6082   4.929   6.375   3.429
   67CHL1  H15A 6083   5.006   6.322   3.369
   67CHL1  H15B 6084   4.958   6.482   3.432
   67CHL1   C16 6085   4.914   6.311   3.568
   67CHL1  H16A 6086   4.969   6.214   3.568
   67CHL1  H16B 6087   4.951   6.382   3.644
   67CHL1   C17 6088   4.759   6.267   3.585
   67CHL1   H17 6089   4.710   6.355   3.632
   67CHL1   C13 6090   4.704   6.261   3.443
   67CHL1   C18 6091   4.753   6.112   3.398
   67CHL1  H18A 6092   4.737   6.097   3.289
   67CHL1  H18B 6093   4.862   6.098   3.410
   67CHL1  H18C 6094   4.703   6.027   3.450
   67CHL1   C12 6095   4.555   6.288   3.410
   67CHL1  H12A 6096   4.498   6.201   3.450
   67CHL1  H12B 6097   4.510   6.380   3.453
   67CHL1   C11 6098   4.541   6.294   3.256
   67CHL1  H11A 6099   4.563   6.193   3.217
   67CHL1  H11B 6100   4.437   6.326   3.231
   67CHL1    C9 6101   4.633   6.393   3.179
   67CHL1    H9 6102   4.603   6.495   3.210
   67CHL1   C10 6103   4.622   6.395   3.028
   67CHL1   C19 6104   4.634   6.252   2.966
   67CHL1  H19A 6105   4.720   6.200   3.014
   67CHL1  H19B 6106   4.540   6.197   2.989
   67CHL1  H19C 6107   4.639   6.244   2.856
   67CHL1    C1 6108   4.492   6.456   2.988
   67CHL1   H1A 6109   4.404   6.402   3.028
   67CHL1   H1B 6110   4.484   6.560   3.028
   67CHL1    C2 6111   4.465   6.482   2.838
   67CHL1   H2A 6112   4.374   6.542   2.819
   67CHL1   H2B 6113   4.453   6.380   2.795
   67CHL1   C20 6114   4.734   6.159   3.690
   67CHL1   H20 6115   4.806   6.077   3.670
   67CHL1   C21 6116   4.595   6.102   3.695
   67CHL1  H21A 6117   4.571   6.066   3.593
   67CHL1  H21B 6118   4.514   6.170   3.729
   67CHL1  H21C 6119   4.592   6.019   3.769
   67CHL1   C22 6120   4.780   6.213   3.834
   67CHL1  H22A 6121   4.854   6.296   3.833
   67CHL1  H22B 6122   4.687   6.245   3.885
   67CHL1   C23 6123   4.841   6.095   3.916
   67CHL1  H23A 6124   4.768   6.011   3.920
   67CHL1  H23B 6125   4.921   6.057   3.849
   67CHL1   C24 6126   4.886   6.137   4.054
   67CHL1  H24A 6127   4.919   6.241   4.070
   67CHL1  H24B 6128   4.803   6.116   4.126
   67CHL1   C25 6129   5.010   6.061   4.109
   67CHL1   H25 6130   4.997   5.953   4.090
   67CHL1   C26 6131   5.138   6.091   4.027
   67CHL1  H26A 6132   5.124   6.083   3.917
   67CHL1  H26B 6133   5.168   6.192   4.063
   67CHL1  H26C 6134   5.210   6.016   4.066
   67CHL1   C27 6135   5.043   6.085   4.259
   67CHL1  H27A 6136   4.953   6.068   4.322
   67CHL1  H27B 6137   5.131   6.024   4.287
   67CHL1  H27C 6138   5.076   6.188   4.283
   68CHL1    C3 6139   1.796   5.052   2.664
   68CHL1    H3 6140   1.687   5.029   2.664
   68CHL1    O3 6141   1.848   5.033   2.531
   68CHL1   H3' 6142   1.943   5.044   2.539
   68CHL1    C4 6143   1.824   5.192   2.714
   68CHL1   H4A 6144   1.932   5.211   2.695
   68CHL1   H4B 6145   1.754   5.255   2.654
   68CHL1    C5 6146   1.792   5.220   2.857
   68CHL1    C6 6147   1.714   5.321   2.897
   68CHL1    H6 6148   1.674   5.384   2.817
   68CHL1    C7 6149   1.685   5.357   3.038
   68CHL1   H7A 6150   1.697   5.465   3.062
   68CHL1   H7B 6151   1.579   5.332   3.059
   68CHL1    C8 6152   1.776   5.285   3.136
   68CHL1    H8 6153   1.873   5.338   3.131
   68CHL1   C14 6154   1.725   5.305   3.283
   68CHL1   H14 6155   1.620   5.270   3.272
   68CHL1   C15 6156   1.707   5.444   3.339
   68CHL1  H15A 6157   1.795   5.508   3.314
   68CHL1  H15B 6158   1.613   5.497   3.314
   68CHL1   C16 6159   1.695   5.423   3.492
   68CHL1  H16A 6160   1.774   5.477   3.547
   68CHL1  H16B 6161   1.600   5.462   3.536
   68CHL1   C17 6162   1.724   5.264   3.511
   68CHL1   H17 6163   1.628   5.209   3.496
   68CHL1   C13 6164   1.800   5.220   3.382
   68CHL1   C18 6165   1.947   5.278   3.388
   68CHL1  H18A 6166   1.949   5.388   3.403
   68CHL1  H18B 6167   2.007   5.232   3.469
   68CHL1  H18C 6168   1.999   5.250   3.294
   68CHL1   C12 6169   1.780   5.074   3.343
   68CHL1  H12A 6170   1.832   5.004   3.413
   68CHL1  H12B 6171   1.673   5.046   3.330
   68CHL1   C11 6172   1.859   5.046   3.210
   68CHL1  H11A 6173   1.967   5.064   3.231
   68CHL1  H11B 6174   1.843   4.942   3.177
   68CHL1    C9 6175   1.789   5.138   3.101
   68CHL1    H9 6176   1.682   5.107   3.098
   68CHL1   C10 6177   1.852   5.118   2.960
   68CHL1   C19 6178   2.001   5.128   2.981
   68CHL1  H19A 6179   2.056   5.133   2.885
   68CHL1  H19B 6180   2.036   5.211   3.046
   68CHL1  H19C 6181   2.043   5.039   3.033
   68CHL1    C1 6182   1.818   4.977   2.904
   68CHL1   H1A 6183   1.883   4.900   2.950
   68CHL1   H1B 6184   1.711   4.951   2.913
   68CHL1    C2 6185   1.855   4.945   2.756
   68CHL1   H2A 6186   1.826   4.843   2.725
   68CHL1   H2B 6187   1.964   4.959   2.743
   68CHL1   C20 6188   1.780   5.234   3.652
   68CHL1   H20 6189   1.874   5.293   3.662
   68CHL1   C21 6190   1.818   5.085   3.673
   68CHL1  H21A 6191   1.723   5.027   3.669
   68CHL1  H21B 6192   1.869   5.063   3.769
   68CHL1  H21C 6193   1.887   5.044   3.596
   68CHL1   C22 6194   1.672   5.277   3.760
   68CHL1  H22A 6195   1.629   5.378   3.741
   68CHL1  H22B 6196   1.593   5.199   3.766
   68CHL1   C23 6197   1.715   5.275   3.908
   68CHL1  H23A 6198   1.763   5.178   3.934
   68CHL1  H23B 6199   1.794   5.354   3.917
   68CHL1   C24 6200   1.596   5.299   3.999
   68CHL1  H24A 6201   1.544   5.393   3.970
   68CHL1  H24B 6202   1.519   5.219   3.987
   68CHL1   C25 6203   1.630   5.311   4.149
   68CHL1   H25 6204   1.532   5.327   4.198
   68CHL1   C26 6205   1.704   5.193   4.206
   68CHL1  H26A 6206   1.670   5.095   4.166
   68CHL1  H26B 6207   1.812   5.206   4.181
   68CHL1  H26C 6208   1.694   5.183   4.316
   68CHL1   C27 6209   1.705   5.448   4.173
   68CHL1  H27A 6210   1.642   5.524   4.122
   68CHL1  H27B 6211   1.726   5.478   4.278
   68CHL1  H27C 6212   1.806   5.436   4.129
   69CHL1    C3 6213   0.715   3.070   2.772
   69CHL1    H3 6214   0.623   3.008   2.764
   69CHL1    O3 6215   0.774   3.106   2.649
   69CHL1   H3' 6216   0.861   3.134   2.676
   69CHL1    C4 6217   0.686   3.201   2.854
   69CHL1   H4A 6218   0.785   3.253   2.855
   69CHL1   H4B 6219   0.612   3.257   2.793
   69CHL1    C5 6220   0.630   3.155   2.987
   69CHL1    C6 6221   0.510   3.193   3.033
   69CHL1    H6 6222   0.464   3.270   2.969
   69CHL1    C7 6223   0.447   3.147   3.163
   69CHL1   H7A 6224   0.421   3.240   3.217
   69CHL1   H7B 6225   0.366   3.078   3.132
   69CHL1    C8 6226   0.543   3.067   3.258
   69CHL1    H8 6227   0.617   3.135   3.306
   69CHL1   C14 6228   0.476   2.986   3.371
   69CHL1   H14 6229   0.408   2.910   3.326
   69CHL1   C15 6230   0.401   3.080   3.463
   69CHL1  H15A 6231   0.455   3.174   3.488
   69CHL1  H15B 6232   0.306   3.119   3.420
   69CHL1   C16 6233   0.375   2.999   3.593
   69CHL1  H16A 6234   0.415   3.067   3.671
   69CHL1  H16B 6235   0.267   2.985   3.618
   69CHL1   C17 6236   0.471   2.873   3.578
   69CHL1   H17 6237   0.411   2.792   3.532
   69CHL1   C13 6238   0.572   2.908   3.465
   69CHL1   C18 6239   0.666   3.005   3.531
   69CHL1  H18A 6240   0.620   3.090   3.587
   69CHL1  H18B 6241   0.732   2.956   3.606
   69CHL1  H18C 6242   0.733   3.056   3.458
   69CHL1   C12 6243   0.642   2.801   3.383
   69CHL1  H12A 6244   0.719   2.747   3.441
   69CHL1  H12B 6245   0.562   2.741   3.333
   69CHL1   C11 6246   0.720   2.873   3.265
   69CHL1  H11A 6247   0.806   2.930   3.307
   69CHL1  H11B 6248   0.763   2.797   3.196
   69CHL1    C9 6249   0.622   2.966   3.176
   69CHL1    H9 6250   0.549   2.895   3.133
   69CHL1   C10 6251   0.707   3.042   3.063
   69CHL1   C19 6252   0.832   3.110   3.127
   69CHL1  H19A 6253   0.899   3.164   3.056
   69CHL1  H19B 6254   0.798   3.190   3.198
   69CHL1  H19C 6255   0.899   3.041   3.182
   69CHL1    C1 6256   0.770   2.934   2.969
   69CHL1   H1A 6257   0.846   2.868   3.015
   69CHL1   H1B 6258   0.690   2.866   2.933
   69CHL1    C2 6259   0.830   2.983   2.838
   69CHL1   H2A 6260   0.841   2.896   2.769
   69CHL1   H2B 6261   0.924   3.040   2.853
   69CHL1   C20 6262   0.517   2.817   3.705
   69CHL1   H20 6263   0.571   2.888   3.772
   69CHL1   C21 6264   0.605   2.695   3.666
   69CHL1  H21A 6265   0.710   2.730   3.655
   69CHL1  H21B 6266   0.572   2.647   3.571
   69CHL1  H21C 6267   0.611   2.626   3.752
   69CHL1   C22 6268   0.400   2.773   3.799
   69CHL1  H22A 6269   0.315   2.844   3.804
   69CHL1  H22B 6270   0.356   2.682   3.752
   69CHL1   C23 6271   0.431   2.736   3.944
   69CHL1  H23A 6272   0.515   2.663   3.944
   69CHL1  H23B 6273   0.466   2.819   4.008
   69CHL1   C24 6274   0.319   2.673   4.021
   69CHL1  H24A 6275   0.227   2.736   4.020
   69CHL1  H24B 6276   0.293   2.577   3.972
   69CHL1   C25 6277   0.347   2.642   4.172
   69CHL1   H25 6278   0.352   2.738   4.228
   69CHL1   C26 6279   0.234   2.546   4.225
   69CHL1  H26A 6280   0.259   2.449   4.178
   69CHL1  H26B 6281   0.250   2.536   4.335
   69CHL1  H26C 6282   0.129   2.577   4.207
   69CHL1   C27 6283   0.477   2.563   4.189
   69CHL1  H27A 6284   0.492   2.534   4.295
   69CHL1  H27B 6285   0.488   2.472   4.126
   69CHL1  H27C 6286   0.556   2.641   4.180
   70CHL1    C3 6287   2.800   1.101   2.236
   70CHL1    H3 6288   2.820   0.996   2.208
   70CHL1    O3 6289   2.819   1.173   2.112
   70CHL1   H3' 6290   2.804   1.261   2.147
   70CHL1    C4 6291   2.661   1.127   2.304
   70CHL1   H4A 6292   2.651   1.237   2.287
   70CHL1   H4B 6293   2.587   1.079   2.238
   70CHL1    C5 6294   2.651   1.077   2.449
   70CHL1    C6 6295   2.555   0.995   2.482
   70CHL1    H6 6296   2.479   0.974   2.405
   70CHL1    C7 6297   2.525   0.944   2.619
   70CHL1   H7A 6298   2.420   0.964   2.650
   70CHL1   H7B 6299   2.529   0.833   2.617
   70CHL1    C8 6300   2.623   0.999   2.726
   70CHL1    H8 6301   2.588   1.100   2.753
   70CHL1   C14 6302   2.635   0.913   2.846
   70CHL1   H14 6303   2.663   0.812   2.809
   70CHL1   C15 6304   2.504   0.877   2.920
   70CHL1  H15A 6305   2.454   0.972   2.949
   70CHL1  H15B 6306   2.436   0.811   2.863
   70CHL1   C16 6307   2.551   0.807   3.047
   70CHL1  H16A 6308   2.497   0.848   3.135
   70CHL1  H16B 6309   2.517   0.701   3.045
   70CHL1   C17 6310   2.703   0.841   3.061
   70CHL1   H17 6311   2.755   0.749   3.026
   70CHL1   C13 6312   2.735   0.954   2.955
   70CHL1   C18 6313   2.715   1.090   3.025
   70CHL1  H18A 6314   2.799   1.129   3.086
   70CHL1  H18B 6315   2.685   1.171   2.955
   70CHL1  H18C 6316   2.625   1.096   3.090
   70CHL1   C12 6317   2.875   0.959   2.889
   70CHL1  H12A 6318   2.945   1.000   2.965
   70CHL1  H12B 6319   2.916   0.864   2.848
   70CHL1   C11 6320   2.868   1.066   2.777
   70CHL1  H11A 6321   2.840   1.163   2.822
   70CHL1  H11B 6322   2.969   1.072   2.731
   70CHL1    C9 6323   2.768   1.028   2.667
   70CHL1    H9 6324   2.808   0.932   2.626
   70CHL1   C10 6325   2.765   1.122   2.541
   70CHL1   C19 6326   2.736   1.269   2.582
   70CHL1  H19A 6327   2.799   1.298   2.669
   70CHL1  H19B 6328   2.744   1.336   2.493
   70CHL1  H19C 6329   2.638   1.284   2.632
   70CHL1    C1 6330   2.902   1.110   2.468
   70CHL1   H1A 6331   2.968   1.171   2.532
   70CHL1   H1B 6332   2.927   1.002   2.461
   70CHL1    C2 6333   2.914   1.158   2.324
   70CHL1   H2A 6334   3.005   1.113   2.279
   70CHL1   H2B 6335   2.906   1.269   2.325
   70CHL1   C20 6336   2.750   0.856   3.203
   70CHL1   H20 6337   2.703   0.947   3.247
   70CHL1   C21 6338   2.908   0.867   3.216
   70CHL1  H21A 6339   2.935   0.871   3.323
   70CHL1  H21B 6340   2.934   0.970   3.184
   70CHL1  H21C 6341   2.962   0.777   3.179
   70CHL1   C22 6342   2.702   0.747   3.309
   70CHL1  H22A 6343   2.710   0.785   3.412
   70CHL1  H22B 6344   2.592   0.729   3.310
   70CHL1   C23 6345   2.760   0.606   3.303
   70CHL1  H23A 6346   2.751   0.570   3.199
   70CHL1  H23B 6347   2.870   0.601   3.320
   70CHL1   C24 6348   2.698   0.509   3.402
   70CHL1  H24A 6349   2.722   0.546   3.504
   70CHL1  H24B 6350   2.589   0.493   3.394
   70CHL1   C25 6351   2.757   0.367   3.387
   70CHL1   H25 6352   2.868   0.370   3.393
   70CHL1   C26 6353   2.712   0.280   3.504
   70CHL1  H26A 6354   2.606   0.301   3.527
   70CHL1  H26B 6355   2.705   0.176   3.467
   70CHL1  H26C 6356   2.792   0.292   3.580
   70CHL1   C27 6357   2.714   0.297   3.253
   70CHL1  H27A 6358   2.743   0.190   3.264
   70CHL1  H27B 6359   2.606   0.303   3.228
   70CHL1  H27C 6360   2.772   0.347   3.172
   71CHL1    C3 6361   6.002   0.060   2.812
   71CHL1    H3 6362   6.002   0.143   2.886
   71CHL1    O3 6363   6.005   0.111   2.685
   71CHL1   H3' 6364   5.997   0.039   2.623
   71CHL1    C4 6365   6.119   6.871   2.833
   71CHL1   H4A 6366   6.094   6.788   2.764
   71CHL1   H4B 6367   6.218   0.018   2.810
   71CHL1    C5 6368   6.113   6.827   2.975
   71CHL1    C6 6369   6.213   6.856   3.060
   71CHL1    H6 6370   6.307   6.899   3.025
   71CHL1    C7 6371   6.224   6.805   3.200
   71CHL1   H7A 6372   6.327   6.768   3.219
   71CHL1   H7B 6373   6.200   6.883   3.275
   71CHL1    C8 6374   6.123   6.695   3.238
   71CHL1    H8 6375   6.161   6.595   3.208
   71CHL1   C14 6376   6.104   6.678   3.391
   71CHL1   H14 6377   6.064   6.778   3.421
   71CHL1   C15 6378   6.234   6.665   3.479
   71CHL1  H15A 6379   6.297   6.585   3.436
   71CHL1  H15B 6380   6.287   6.763   3.482
   71CHL1   C16 6381   6.168   6.622   3.617
   71CHL1  H16A 6382   6.211   6.522   3.640
   71CHL1  H16B 6383   6.187   6.697   3.697
   71CHL1   C17 6384   6.008   6.602   3.591
   71CHL1   H17 6385   5.955   6.699   3.605
   71CHL1   C13 6386   5.997   6.584   3.442
   71CHL1   C18 6387   6.028   6.436   3.413
   71CHL1  H18A 6388   6.103   6.398   3.487
   71CHL1  H18B 6389   5.938   6.371   3.410
   71CHL1  H18C 6390   6.074   6.412   3.315
   71CHL1   C12 6391   5.864   6.629   3.383
   71CHL1  H12A 6392   5.779   6.561   3.401
   71CHL1  H12B 6393   5.834   6.726   3.429
   71CHL1   C11 6394   5.881   6.630   3.228
   71CHL1  H11A 6395   5.893   6.524   3.200
   71CHL1  H11B 6396   5.784   6.661   3.183
   71CHL1    C9 6397   5.989   6.729   3.174
   71CHL1    H9 6398   5.959   6.826   3.219
   71CHL1   C10 6399   5.992   6.758   3.024
   71CHL1   C19 6400   5.979   6.615   2.955
   71CHL1  H19A 6401   5.876   6.581   2.982
   71CHL1  H19B 6402   5.979   6.624   2.845
   71CHL1  H19C 6403   6.054   6.544   2.994
   71CHL1    C1 6404   5.868   6.846   2.983
   71CHL1   H1A 6405   5.778   6.791   3.019
   71CHL1   H1B 6406   5.867   0.038   3.046
   71CHL1    C2 6407   5.873   6.891   2.841
   71CHL1   H2A 6408   5.788   0.060   2.829
   71CHL1   H2B 6409   5.847   6.803   2.778
   71CHL1   C20 6410   5.934   6.511   3.693
   71CHL1   H20 6411   5.992   6.416   3.693
   71CHL1   C21 6412   5.793   6.495   3.650
   71CHL1  H21A 6413   5.777   6.434   3.558
   71CHL1  H21B 6414   5.754   6.598   3.637
   71CHL1  H21C 6415   5.735   6.458   3.737
   71CHL1   C22 6416   5.940   6.562   3.835
   71CHL1  H22A 6417   6.036   6.615   3.856
   71CHL1  H22B 6418   5.868   6.646   3.847
   71CHL1   C23 6419   5.910   6.450   3.934
   71CHL1  H23A 6420   5.882   6.496   4.032
   71CHL1  H23B 6421   5.814   6.402   3.907
   71CHL1   C24 6422   6.024   6.348   3.949
   71CHL1  H24A 6423   6.081   6.346   3.853
   71CHL1  H24B 6424   6.106   6.374   4.020
   71CHL1   C25 6425   5.981   6.205   3.975
   71CHL1   H25 6426   5.913   6.200   4.062
   71CHL1   C26 6427   5.913   6.154   3.844
   71CHL1  H26A 6428   5.978   6.163   3.754
   71CHL1  H26B 6429   5.881   6.048   3.861
   71CHL1  H26C 6430   5.817   6.204   3.820
   71CHL1   C27 6431   6.108   6.125   4.013
   71CHL1  H27A 6432   6.175   6.113   3.925
   71CHL1  H27B 6433   6.159   6.182   4.093
   71CHL1  H27C 6434   6.090   6.025   4.059
   72CHL1    C3 6435   0.286   5.154   2.277
   72CHL1    H3 6436   0.228   5.249   2.267
   72CHL1    O3 6437   0.340   5.127   2.145
   72CHL1   H3' 6438   0.341   5.221   2.124
   72CHL1    C4 6439   0.393   5.172   2.378
   72CHL1   H4A 6440   0.458   5.083   2.389
   72CHL1   H4B 6441   0.461   5.256   2.349
   72CHL1    C5 6442   0.338   5.193   2.513
   72CHL1    C6 6443   0.364   5.306   2.584
   72CHL1    H6 6444   0.421   5.382   2.527
   72CHL1    C7 6445   0.327   5.328   2.729
   72CHL1   H7A 6446   0.411   5.368   2.789
   72CHL1   H7B 6447   0.251   5.410   2.731
   72CHL1    C8 6448   0.260   5.209   2.802
   72CHL1    H8 6449   0.345   5.143   2.830
   72CHL1   C14 6450   0.177   5.256   2.916
   72CHL1   H14 6451   0.089   5.311   2.875
   72CHL1   C15 6452   0.238   5.366   3.006
   72CHL1  H15A 6453   0.347   5.356   3.026
   72CHL1  H15B 6454   0.232   5.463   2.953
   72CHL1   C16 6455   0.167   5.349   3.136
   72CHL1  H16A 6456   0.244   5.325   3.213
   72CHL1  H16B 6457   0.114   5.432   3.188
   72CHL1   C17 6458   0.063   5.232   3.117
   72CHL1   H17 6459   6.869   5.274   3.074
   72CHL1   C13 6460   0.119   5.148   3.002
   72CHL1   C18 6461   0.227   5.048   3.054
   72CHL1  H18A 6462   0.175   4.968   3.111
   72CHL1  H18B 6463   0.281   4.999   2.970
   72CHL1  H18C 6464   0.302   5.094   3.122
   72CHL1   C12 6465   0.026   5.074   2.910
   72CHL1  H12A 6466   6.885   4.985   2.963
   72CHL1  H12B 6467   6.839   5.131   2.873
   72CHL1   C11 6468   0.094   5.029   2.779
   72CHL1  H11A 6469   0.164   4.947   2.808
   72CHL1  H11B 6470   0.026   4.980   2.705
   72CHL1    C9 6471   0.175   5.130   2.702
   72CHL1    H9 6472   0.095   5.203   2.676
   72CHL1   C10 6473   0.245   5.080   2.571
   72CHL1   C19 6474   0.338   4.959   2.608
   72CHL1  H19A 6475   0.396   4.931   2.518
   72CHL1  H19B 6476   0.408   4.997   2.686
   72CHL1  H19C 6477   0.274   4.875   2.641
   72CHL1    C1 6478   0.136   5.041   2.461
   72CHL1   H1A 6479   0.093   4.941   2.483
   72CHL1   H1B 6480   0.056   5.118   2.462
   72CHL1    C2 6481   0.194   5.034   2.316
   72CHL1   H2A 6482   0.119   5.028   2.234
   72CHL1   H2B 6483   0.246   4.938   2.295
   72CHL1   C20 6484   0.029   5.160   3.247
   72CHL1   H20 6485   0.127   5.118   3.277
   72CHL1   C21 6486   6.832   5.049   3.229
   72CHL1  H21A 6487   6.751   5.076   3.158
   72CHL1  H21B 6488   6.803   4.992   3.320
   72CHL1  H21C 6489   6.876   4.969   3.165
   72CHL1   C22 6490   6.888   5.252   3.360
   72CHL1  H22A 6491   0.059   5.336   3.376
   72CHL1  H22B 6492   6.805   5.313   3.319
   72CHL1   C23 6493   6.863   5.188   3.498
   72CHL1  H23A 6494   6.776   5.119   3.503
   72CHL1  H23B 6495   0.052   5.134   3.536
   72CHL1   C24 6496   6.843   5.293   3.604
   72CHL1  H24A 6497   0.036   5.352   3.596
   72CHL1  H24B 6498   6.755   5.358   3.584
   72CHL1   C25 6499   6.834   5.230   3.744
   72CHL1   H25 6500   0.017   5.157   3.756
   72CHL1   C26 6501   6.840   5.345   3.849
   72CHL1  H26A 6502   0.013   5.422   3.815
   72CHL1  H26B 6503   6.741   5.395   3.843
   72CHL1  H26C 6504   6.861   5.314   3.954
   72CHL1   C27 6505   6.707   5.151   3.761
   72CHL1  H27A 6506   6.692   5.065   3.692
   72CHL1  H27B 6507   6.706   5.115   3.866
   72CHL1  H27C 6508   6.620   5.221   3.753
   73CHL1    C3 6509   1.262   5.198   2.679
   73CHL1    H3 6510   1.202   5.280   2.633
   73CHL1    O3 6511   1.320   5.118   2.579
   73CHL1   H3' 6512   1.367   5.181   2.524
   73CHL1    C4 6513   1.385   5.248   2.759
   73CHL1   H4A 6514   1.446   5.159   2.786
   73CHL1   H4B 6515   1.444   5.320   2.700
   73CHL1    C5 6516   1.335   5.316   2.882
   73CHL1    C6 6517   1.354   5.447   2.905
   73CHL1    H6 6518   1.409   5.508   2.832
   73CHL1    C7 6519   1.334   5.522   3.035
   73CHL1   H7A 6520   1.423   5.579   3.069
   73CHL1   H7B 6521   1.244   5.586   3.025
   73CHL1    C8 6522   1.295   5.416   3.148
   73CHL1    H8 6523   1.388   5.370   3.187
   73CHL1   C14 6524   1.239   5.487   3.273
   73CHL1   H14 6525   1.146   5.542   3.247
   73CHL1   C15 6526   1.335   5.588   3.343
   73CHL1  H15A 6527   1.436   5.545   3.363
   73CHL1  H15B 6528   1.337   5.684   3.287
   73CHL1   C16 6529   1.257   5.607   3.476
   73CHL1  H16A 6530   1.338   5.595   3.553
   73CHL1  H16B 6531   1.231   5.713   3.499
   73CHL1   C17 6532   1.146   5.493   3.492
   73CHL1   H17 6533   1.048   5.533   3.458
   73CHL1   C13 6534   1.195   5.389   3.383
   73CHL1   C18 6535   1.320   5.309   3.440
   73CHL1  H18A 6536   1.394   5.373   3.493
   73CHL1  H18B 6537   1.284   5.229   3.508
   73CHL1  H18C 6538   1.379   5.258   3.361
   73CHL1   C12 6539   1.080   5.299   3.329
   73CHL1  H12A 6540   1.041   5.220   3.396
   73CHL1  H12B 6541   0.995   5.366   3.303
   73CHL1   C11 6542   1.117   5.225   3.199
   73CHL1  H11A 6543   1.186   5.141   3.223
   73CHL1  H11B 6544   1.024   5.187   3.151
   73CHL1    C9 6545   1.191   5.315   3.096
   73CHL1    H9 6546   1.104   5.377   3.066
   73CHL1   C10 6547   1.250   5.230   2.979
   73CHL1   C19 6548   1.352   5.120   3.040
   73CHL1  H19A 6549   1.421   5.081   2.963
   73CHL1  H19B 6550   1.415   5.161   3.122
   73CHL1  H19C 6551   1.285   5.046   3.088
   73CHL1    C1 6552   1.137   5.177   2.895
   73CHL1   H1A 6553   1.075   5.110   2.958
   73CHL1   H1B 6554   1.082   5.263   2.853
   73CHL1    C2 6555   1.178   5.099   2.766
   73CHL1   H2A 6556   1.090   5.059   2.711
   73CHL1   H2B 6557   1.239   5.010   2.795
   73CHL1   C20 6558   1.135   5.448   3.641
   73CHL1   H20 6559   1.219   5.381   3.667
   73CHL1   C21 6560   1.002   5.367   3.644
   73CHL1  H21A 6561   1.006   5.268   3.594
   73CHL1  H21B 6562   0.919   5.421   3.593
   73CHL1  H21C 6563   0.987   5.347   3.752
   73CHL1   C22 6564   1.146   5.562   3.747
   73CHL1  H22A 6565   1.145   5.666   3.708
   73CHL1  H22B 6566   1.046   5.565   3.795
   73CHL1   C23 6567   1.269   5.559   3.842
   73CHL1  H23A 6568   1.272   5.450   3.867
   73CHL1  H23B 6569   1.359   5.594   3.787
   73CHL1   C24 6570   1.241   5.626   3.982
   73CHL1  H24A 6571   1.132   5.610   4.000
   73CHL1  H24B 6572   1.306   5.576   4.057
   73CHL1   C25 6573   1.290   5.776   3.993
   73CHL1   H25 6574   1.394   5.787   3.954
   73CHL1   C26 6575   1.205   5.870   3.903
   73CHL1  H26A 6576   1.208   5.974   3.940
   73CHL1  H26B 6577   1.239   5.857   3.798
   73CHL1  H26C 6578   1.099   5.841   3.917
   73CHL1   C27 6579   1.288   5.833   4.135
   73CHL1  H27A 6580   1.342   5.930   4.137
   73CHL1  H27B 6581   1.185   5.839   4.178
   73CHL1  H27C 6582   1.346   5.763   4.199
   74CHL1    C3 6583   0.890   4.427   2.420
   74CHL1    H3 6584   0.792   4.478   2.429
   74CHL1    O3 6585   0.893   4.382   2.280
   74CHL1   H3' 6586   0.973   4.331   2.276
   74CHL1    C4 6587   1.017   4.507   2.456
   74CHL1   H4A 6588   1.105   4.443   2.438
   74CHL1   H4B 6589   1.032   4.601   2.398
   74CHL1    C5 6590   1.002   4.556   2.602
   74CHL1    C6 6591   1.003   4.685   2.631
   74CHL1    H6 6592   1.023   4.759   2.551
   74CHL1    C7 6593   1.004   4.742   2.772
   74CHL1   H7A 6594   1.076   4.824   2.793
   74CHL1   H7B 6595   0.899   4.779   2.779
   74CHL1    C8 6596   1.022   4.628   2.880
   74CHL1    H8 6597   1.132   4.609   2.876
   74CHL1   C14 6598   0.983   4.677   3.012
   74CHL1   H14 6599   0.878   4.712   3.008
   74CHL1   C15 6600   1.051   4.810   3.057
   74CHL1  H15A 6601   1.156   4.830   3.026
   74CHL1  H15B 6602   1.005   4.890   2.995
   74CHL1   C16 6603   1.033   4.814   3.211
   74CHL1  H16A 6604   1.133   4.818   3.259
   74CHL1  H16B 6605   0.975   4.905   3.235
   74CHL1   C17 6606   0.971   4.672   3.249
   74CHL1   H17 6607   0.862   4.686   3.264
   74CHL1   C13 6608   0.997   4.583   3.123
   74CHL1   C18 6609   1.144   4.527   3.141
   74CHL1  H18A 6610   1.179   4.479   3.047
   74CHL1  H18B 6611   1.222   4.603   3.158
   74CHL1  H18C 6612   1.147   4.446   3.217
   74CHL1   C12 6613   0.896   4.466   3.098
   74CHL1  H12A 6614   0.899   4.396   3.185
   74CHL1  H12B 6615   0.795   4.510   3.088
   74CHL1   C11 6616   0.940   4.397   2.965
   74CHL1  H11A 6617   1.029   4.336   2.991
   74CHL1  H11B 6618   0.858   4.325   2.943
   74CHL1    C9 6619   0.949   4.500   2.847
   74CHL1    H9 6620   0.848   4.542   2.830
   74CHL1   C10 6621   0.987   4.440   2.707
   74CHL1   C19 6622   1.125   4.373   2.719
   74CHL1  H19A 6623   1.151   4.330   2.619
   74CHL1  H19B 6624   1.212   4.438   2.744
   74CHL1  H19C 6625   1.132   4.289   2.791
   74CHL1    C1 6626   0.875   4.343   2.660
   74CHL1   H1A 6627   0.871   4.254   2.726
   74CHL1   H1B 6628   0.779   4.394   2.682
   74CHL1    C2 6629   0.877   4.301   2.514
   74CHL1   H2A 6630   0.782   4.247   2.493
   74CHL1   H2B 6631   0.968   4.243   2.490
   74CHL1   C20 6632   1.018   4.623   3.387
   74CHL1   H20 6633   1.126   4.602   3.381
   74CHL1   C21 6634   0.945   4.495   3.418
   74CHL1  H21A 6635   0.939   4.483   3.528
   74CHL1  H21B 6636   0.995   4.401   3.389
   74CHL1  H21C 6637   0.837   4.495   3.389
   74CHL1   C22 6638   0.999   4.724   3.503
   74CHL1  H22A 6639   1.028   4.659   3.588
   74CHL1  H22B 6640   1.081   4.799   3.501
   74CHL1   C23 6641   0.860   4.797   3.532
   74CHL1  H23A 6642   0.859   4.898   3.485
   74CHL1  H23B 6643   0.768   4.753   3.488
   74CHL1   C24 6644   0.846   4.815   3.687
   74CHL1  H24A 6645   0.840   4.718   3.741
   74CHL1  H24B 6646   0.937   4.864   3.726
   74CHL1   C25 6647   0.720   4.890   3.733
   74CHL1   H25 6648   0.631   4.840   3.688
   74CHL1   C26 6649   0.716   4.904   3.885
   74CHL1  H26A 6650   0.623   4.951   3.923
   74CHL1  H26B 6651   0.721   4.798   3.917
   74CHL1  H26C 6652   0.805   4.962   3.918
   74CHL1   C27 6653   0.728   5.037   3.691
   74CHL1  H27A 6654   0.637   5.094   3.720
   74CHL1  H27B 6655   0.814   5.087   3.740
   74CHL1  H27C 6656   0.748   5.055   3.584
   75CHL1    C3 6657   0.637   3.632   2.539
   75CHL1    H3 6658   0.546   3.569   2.532
   75CHL1    O3 6659   0.696   3.665   2.415
   75CHL1   H3' 6660   0.764   3.729   2.436
   75CHL1    C4 6661   0.586   3.762   2.593
   75CHL1   H4A 6662   0.675   3.827   2.609
   75CHL1   H4B 6663   0.515   3.815   2.526
   75CHL1    C5 6664   0.529   3.746   2.738
   75CHL1    C6 6665   0.404   3.797   2.765
   75CHL1    H6 6666   0.340   3.844   2.689
   75CHL1    C7 6667   0.362   3.790   2.906
   75CHL1   H7A 6668   0.303   3.879   2.939
   75CHL1   H7B 6669   0.275   3.722   2.913
   75CHL1    C8 6670   0.463   3.750   3.021
   75CHL1    H8 6671   0.525   3.842   3.030
   75CHL1   C14 6672   0.397   3.705   3.144
   75CHL1   H14 6673   0.343   3.612   3.119
   75CHL1   C15 6674   0.285   3.799   3.213
   75CHL1  H15A 6675   0.316   3.906   3.212
   75CHL1  H15B 6676   0.190   3.796   3.155
   75CHL1   C16 6677   0.273   3.744   3.349
   75CHL1  H16A 6678   0.282   3.832   3.417
   75CHL1  H16B 6679   0.183   3.683   3.376
   75CHL1   C17 6680   0.383   3.647   3.367
   75CHL1   H17 6681   0.346   3.546   3.343
   75CHL1   C13 6682   0.493   3.673   3.259
   75CHL1   C18 6683   0.576   3.800   3.300
   75CHL1  H18A 6684   0.633   3.837   3.211
   75CHL1  H18B 6685   0.515   3.882   3.344
   75CHL1  H18C 6686   0.650   3.770   3.376
   75CHL1   C12 6687   0.574   3.550   3.213
   75CHL1  H12A 6688   0.641   3.519   3.295
   75CHL1  H12B 6689   0.503   3.468   3.190
   75CHL1   C11 6690   0.645   3.572   3.079
   75CHL1  H11A 6691   0.723   3.649   3.100
   75CHL1  H11B 6692   0.691   3.478   3.042
   75CHL1    C9 6693   0.552   3.636   2.974
   75CHL1    H9 6694   0.475   3.563   2.940
   75CHL1   C10 6695   0.630   3.674   2.841
   75CHL1   C19 6696   0.747   3.763   2.876
   75CHL1  H19A 6697   0.788   3.802   2.780
   75CHL1  H19B 6698   0.708   3.844   2.941
   75CHL1  H19C 6699   0.822   3.701   2.930
   75CHL1    C1 6700   0.690   3.551   2.765
   75CHL1   H1A 6701   0.762   3.500   2.832
   75CHL1   H1B 6702   0.609   3.475   2.771
   75CHL1    C2 6703   0.745   3.565   2.623
   75CHL1   H2A 6704   0.764   3.465   2.579
   75CHL1   H2B 6705   0.837   3.624   2.642
   75CHL1   C20 6706   0.431   3.652   3.515
   75CHL1   H20 6707   0.490   3.741   3.547
   75CHL1   C21 6708   0.529   3.536   3.542
   75CHL1  H21A 6709   0.552   3.521   3.650
   75CHL1  H21B 6710   0.627   3.557   3.494
   75CHL1  H21C 6711   0.490   3.440   3.501
   75CHL1   C22 6712   0.316   3.647   3.617
   75CHL1  H22A 6713   0.259   3.742   3.612
   75CHL1  H22B 6714   0.236   3.576   3.588
   75CHL1   C23 6715   0.357   3.622   3.764
   75CHL1  H23A 6716   0.361   3.513   3.785
   75CHL1  H23B 6717   0.450   3.681   3.773
   75CHL1   C24 6718   0.260   3.676   3.874
   75CHL1  H24A 6719   0.257   3.787   3.866
   75CHL1  H24B 6720   0.160   3.629   3.859
   75CHL1   C25 6721   0.294   3.634   4.021
   75CHL1   H25 6722   0.323   3.527   4.013
   75CHL1   C26 6723   0.425   3.707   4.062
   75CHL1  H26A 6724   0.419   3.808   4.106
   75CHL1  H26B 6725   0.455   3.652   4.155
   75CHL1  H26C 6726   0.498   3.689   3.980
   75CHL1   C27 6727   0.173   3.646   4.117
   75CHL1  H27A 6728   0.098   3.567   4.094
   75CHL1  H27B 6729   0.191   3.633   4.226
   75CHL1  H27C 6730   0.119   3.741   4.101
   76CHL1    C3 6731   6.881   5.562   2.146
   76CHL1    H3 6732   6.778   5.543   2.108
   76CHL1    O3 6733   0.068   5.586   2.030
   76CHL1   H3' 6734   0.153   5.602   2.070
   76CHL1    C4 6735   6.878   5.681   2.242
   76CHL1   H4A 6736   0.080   5.718   2.267
   76CHL1   H4B 6737   6.827   5.757   2.178
   76CHL1    C5 6738   6.804   5.651   2.371
   76CHL1    C6 6739   6.703   5.732   2.409
   76CHL1    H6 6740   6.689   5.828   2.357
   76CHL1    C7 6741   6.620   5.722   2.526
   76CHL1   H7A 6742   6.613   5.811   2.591
   76CHL1   H7B 6743   6.513   5.705   2.501
   76CHL1    C8 6744   6.664   5.606   2.611
   76CHL1    H8 6745   6.743   5.638   2.682
   76CHL1   C14 6746   6.556   5.561   2.705
   76CHL1   H14 6747   6.470   5.513   2.654
   76CHL1   C15 6748   6.487   5.675   2.785
   76CHL1  H15A 6749   6.563   5.748   2.820
   76CHL1  H15B 6750   6.413   5.730   2.723
   76CHL1   C16 6751   6.415   5.606   2.904
   76CHL1  H16A 6752   6.443   5.662   2.996
   76CHL1  H16B 6753   6.304   5.596   2.905
   76CHL1   C17 6754   6.463   5.456   2.905
   76CHL1   H17 6755   6.397   5.388   2.845
   76CHL1   C13 6756   6.592   5.458   2.812
   76CHL1   C18 6757   6.707   5.513   2.899
   76CHL1  H18A 6758   6.802   5.509   2.843
   76CHL1  H18B 6759   6.697   5.608   2.956
   76CHL1  H18C 6760   6.713   5.438   2.981
   76CHL1   C12 6761   6.630   5.327   2.740
   76CHL1  H12A 6762   6.655   5.248   2.814
   76CHL1  H12B 6763   6.544   5.283   2.685
   76CHL1   C11 6764   6.745   5.355   2.638
   76CHL1  H11A 6765   6.840   5.386   2.687
   76CHL1  H11B 6766   6.768   5.267   2.575
   76CHL1    C9 6767   6.717   5.479   2.541
   76CHL1    H9 6768   6.626   5.448   2.485
   76CHL1   C10 6769   6.829   5.511   2.434
   76CHL1   C19 6770   0.055   5.513   2.516
   76CHL1  H19A 6771   0.143   5.548   2.456
   76CHL1  H19B 6772   0.043   5.573   2.609
   76CHL1  H19C 6773   0.086   5.411   2.547
   76CHL1    C1 6774   6.841   5.396   2.334
   76CHL1   H1A 6775   6.859   5.301   2.389
   76CHL1   H1B 6776   6.739   5.376   2.296
   76CHL1    C2 6777   0.029   5.433   2.209
   76CHL1   H2A 6778   0.037   5.359   2.126
   76CHL1   H2B 6779   0.131   5.453   2.247
   76CHL1   C20 6780   6.465   5.396   3.043
   76CHL1   H20 6781   6.540   5.443   3.110
   76CHL1   C21 6782   6.508   5.249   3.042
   76CHL1  H21A 6783   6.514   5.199   3.141
   76CHL1  H21B 6784   6.614   5.239   3.009
   76CHL1  H21C 6785   6.445   5.192   2.970
   76CHL1   C22 6786   6.329   5.409   3.119
   76CHL1  H22A 6787   6.342   5.370   3.222
   76CHL1  H22B 6788   6.297   5.515   3.133
   76CHL1   C23 6789   6.212   5.325   3.058
   76CHL1  H23A 6790   6.157   5.363   2.969
   76CHL1  H23B 6791   6.240   5.226   3.015
   76CHL1   C24 6792   6.101   5.303   3.165
   76CHL1  H24A 6793   6.152   5.240   3.241
   76CHL1  H24B 6794   6.082   5.398   3.219
   76CHL1   C25 6795   5.970   5.227   3.128
   76CHL1   H25 6796   5.937   5.276   3.034
   76CHL1   C26 6797   6.000   5.078   3.098
   76CHL1  H26A 6798   6.064   5.055   3.010
   76CHL1  H26B 6799   6.047   5.039   3.191
   76CHL1  H26C 6800   5.907   5.019   3.087
   76CHL1   C27 6801   5.863   5.247   3.238
   76CHL1  H27A 6802   5.773   5.185   3.215
   76CHL1  H27B 6803   5.906   5.222   3.337
   76CHL1  H27C 6804   5.833   5.354   3.249
   77SOPE     N 6805   2.711   3.704   6.534
   77SOPE   HN1 6806   2.667   3.670   6.446
   77SOPE   HN2 6807   2.761   3.623   6.577
   77SOPE   HN3 6808   2.642   3.734   6.606
   77SOPE   C12 6809   2.808   3.809   6.494
   77SOPE  H12A 6810   2.755   3.891   6.442
   77SOPE  H12B 6811   2.882   3.772   6.419
   77SOPE   C11 6812   2.858   3.884   6.621
   77SOPE  H11A 6813   2.764   3.917   6.669
   77SOPE  H11B 6814   2.913   3.973   6.585
   77SOPE     P 6815   3.084   3.748   6.674
   77SOPE   O13 6816   3.073   3.607   6.627
   77SOPE   O14 6817   3.175   3.764   6.793
   77SOPE   O12 6818   2.942   3.804   6.710
   77SOPE   O11 6819   3.126   3.837   6.552
   77SOPE    C1 6820   3.240   3.831   6.471
   77SOPE    HA 6821   3.286   3.731   6.480
   77SOPE    HB 6822   3.307   3.911   6.509
   77SOPE    C2 6823   3.200   3.854   6.319
   77SOPE    HS 6824   3.174   3.959   6.292
   77SOPE   O21 6825   3.102   3.757   6.284
   77SOPE   C21 6826   3.001   3.790   6.196
   77SOPE   O22 6827   2.958   3.903   6.169
   77SOPE   C22 6828   2.939   3.666   6.148
   77SOPE   H2R 6829   2.838   3.694   6.110
   77SOPE   H2S 6830   2.913   3.599   6.232
   77SOPE    C3 6831   3.326   3.827   6.233
   77SOPE    HX 6832   3.353   3.721   6.253
   77SOPE    HY 6833   3.418   3.887   6.250
   77SOPE   O31 6834   3.288   3.835   6.102
   77SOPE   C31 6835   3.321   3.945   6.038
   77SOPE   O32 6836   3.399   4.029   6.080
   77SOPE   C32 6837   3.237   3.947   5.910
   77SOPE   H2X 6838   3.190   3.848   5.891
   77SOPE   H2Y 6839   3.314   3.975   5.836
   77SOPE   C23 6840   3.014   3.596   6.031
   77SOPE   H3R 6841   3.049   3.498   6.070
   77SOPE   H3S 6842   3.107   3.651   6.005
   77SOPE   C24 6843   2.940   3.592   5.895
   77SOPE   H4R 6844   2.836   3.568   5.926
   77SOPE   H4S 6845   2.936   3.690   5.843
   77SOPE   C25 6846   2.994   3.488   5.799
   77SOPE   H5R 6847   3.104   3.497   5.792
   77SOPE   H5S 6848   2.970   3.390   5.846
   77SOPE   C26 6849   2.930   3.490   5.663
   77SOPE   H6R 6850   2.963   3.397   5.612
   77SOPE   H6S 6851   2.824   3.483   5.695
   77SOPE   C27 6852   2.936   3.613   5.572
   77SOPE   H7R 6853   2.908   3.699   5.636
   77SOPE   H7S 6854   3.041   3.637   5.542
   77SOPE   C28 6855   2.839   3.606   5.454
   77SOPE   H8R 6856   2.746   3.561   5.497
   77SOPE   H8S 6857   2.797   3.700   5.412
   77SOPE   C29 6858   2.884   3.520   5.337
   77SOPE   H91 6859   2.990   3.490   5.328
   77SOPE  C210 6860   2.800   3.492   5.235
   77SOPE  H101 6861   2.833   3.432   5.149
   77SOPE  C211 6862   2.656   3.533   5.248
   77SOPE  H11R 6863   2.609   3.510   5.345
   77SOPE  H11S 6864   2.593   3.477   5.176
   77SOPE  C212 6865   2.621   3.683   5.209
   77SOPE  H12R 6866   2.671   3.757   5.275
   77SOPE  H12S 6867   2.516   3.720   5.199
   77SOPE  C213 6868   2.690   3.721   5.072
   77SOPE  H13R 6869   2.800   3.719   5.086
   77SOPE  H13S 6870   2.661   3.827   5.057
   77SOPE  C214 6871   2.648   3.626   4.953
   77SOPE  H14R 6872   2.540   3.604   4.971
   77SOPE  H14S 6873   2.702   3.531   4.935
   77SOPE  C215 6874   2.672   3.701   4.817
   77SOPE  H15R 6875   2.616   3.797   4.814
   77SOPE  H15S 6876   2.626   3.637   4.739
   77SOPE  C216 6877   2.823   3.726   4.790
   77SOPE  H16R 6878   2.887   3.648   4.837
   77SOPE  H16S 6879   2.855   3.822   4.836
   77SOPE  C217 6880   2.858   3.733   4.644
   77SOPE  H17R 6881   2.812   3.823   4.598
   77SOPE  H17S 6882   2.821   3.642   4.593
   77SOPE  C218 6883   3.014   3.746   4.630
   77SOPE  H18R 6884   3.051   3.755   4.526
   77SOPE  H18S 6885   3.058   3.661   4.687
   77SOPE  H18T 6886   3.045   3.839   4.683
   77SOPE   C33 6887   3.127   4.046   5.927
   77SOPE   H3X 6888   3.178   4.144   5.940
   77SOPE   H3Y 6889   3.073   4.038   6.023
   77SOPE   C34 6890   3.030   4.056   5.807
   77SOPE   H4X 6891   2.995   4.161   5.799
   77SOPE   H4Y 6892   2.940   3.991   5.820
   77SOPE   C35 6893   3.089   4.017   5.669
   77SOPE   H5X 6894   3.117   3.910   5.677
   77SOPE   H5Y 6895   3.179   4.075   5.642
   77SOPE   C36 6896   2.978   4.023   5.561
   77SOPE   H6X 6897   2.934   4.124   5.572
   77SOPE   H6Y 6898   2.891   3.959   5.586
   77SOPE   C37 6899   3.018   4.003   5.415
   77SOPE   H7X 6900   3.060   3.902   5.394
   77SOPE   H7Y 6901   3.104   4.069   5.389
   77SOPE   C38 6902   2.907   4.026   5.319
   77SOPE   H8X 6903   2.845   4.118   5.329
   77SOPE   H8Y 6904   2.842   3.936   5.329
   77SOPE   C39 6905   2.967   4.036   5.173
   77SOPE   H9X 6906   3.006   3.935   5.149
   77SOPE   H9Y 6907   3.053   4.107   5.173
   77SOPE  C310 6908   2.859   4.082   5.080
   77SOPE  H10X 6909   2.812   4.182   5.096
   77SOPE  H10Y 6910   2.769   4.016   5.081
   77SOPE  C311 6911   2.909   4.091   4.932
   77SOPE  H11X 6912   2.945   3.987   4.914
   77SOPE  H11Y 6913   2.993   4.163   4.922
   77SOPE  C312 6914   2.805   4.143   4.834
   77SOPE  H12X 6915   2.777   4.247   4.860
   77SOPE  H12Y 6916   2.713   4.080   4.841
   77SOPE  C313 6917   2.850   4.136   4.683
   77SOPE  H13X 6918   2.893   4.041   4.645
   77SOPE  H13Y 6919   2.932   4.210   4.675
   77SOPE  C314 6920   2.731   4.175   4.594
   77SOPE  H14X 6921   2.687   4.261   4.648
   77SOPE  H14Y 6922   2.643   4.109   4.593
   77SOPE  C315 6923   2.774   4.236   4.457
   77SOPE  H15X 6924   2.689   4.268   4.393
   77SOPE  H15Y 6925   2.828   4.162   4.395
   77SOPE  C316 6926   2.872   4.361   4.460
   77SOPE  H16X 6927   2.961   4.336   4.521
   77SOPE  H16Y 6928   2.829   4.450   4.512
   77SOPE  C317 6929   2.910   4.408   4.320
   77SOPE  H17X 6930   2.822   4.462   4.277
   77SOPE  H17Y 6931   2.934   4.318   4.260
   77SOPE  C318 6932   3.030   4.503   4.333
   77SOPE  H18X 6933   3.008   4.608   4.362
   77SOPE  H18Y 6934   3.071   4.525   4.232
   77SOPE  H18Z 6935   3.111   4.456   4.392
   78SOPE     N 6936   2.206   3.207   6.906
   78SOPE   HN1 6937   2.215   3.122   6.966
   78SOPE   HN2 6938   2.107   3.228   6.882
   78SOPE   HN3 6939   2.253   3.191   6.815
   78SOPE   C12 6940   2.262   3.336   6.966
   78SOPE  H12A 6941   2.371   3.323   6.983
   78SOPE  H12B 6942   2.222   3.350   7.069
   78SOPE   C11 6943   2.213   3.453   6.876
   78SOPE  H11A 6944   2.257   3.549   6.910
   78SOPE  H11B 6945   2.103   3.456   6.887
   78SOPE     P 6946   2.222   3.548   6.628
   78SOPE   O13 6947   2.300   3.663   6.680
   78SOPE   O14 6948   2.080   3.571   6.597
   78SOPE   O12 6949   2.240   3.426   6.737
   78SOPE   O11 6950   2.290   3.490   6.506
   78SOPE    C1 6951   2.318   3.350   6.475
   78SOPE    HA 6952   2.269   3.280   6.547
   78SOPE    HB 6953   2.427   3.334   6.469
   78SOPE    C2 6954   2.268   3.318   6.331
   78SOPE    HS 6955   2.261   3.207   6.327
   78SOPE   O21 6956   2.364   3.371   6.236
   78SOPE   C21 6957   2.343   3.329   6.114
   78SOPE   O22 6958   2.273   3.234   6.084
   78SOPE   C22 6959   2.408   3.411   6.013
   78SOPE   H2R 6960   2.513   3.440   6.038
   78SOPE   H2S 6961   2.357   3.509   6.020
   78SOPE    C3 6962   2.123   3.379   6.314
   78SOPE    HX 6963   2.135   3.489   6.318
   78SOPE    HY 6964   2.067   3.347   6.405
   78SOPE   O31 6965   2.061   3.358   6.190
   78SOPE   C31 6966   1.965   3.265   6.186
   78SOPE   O32 6967   1.913   3.210   6.281
   78SOPE   C32 6968   1.938   3.241   6.036
   78SOPE   H2X 6969   1.836   3.198   6.031
   78SOPE   H2Y 6970   2.013   3.164   6.004
   78SOPE   C23 6971   2.384   3.358   5.868
   78SOPE   H3R 6972   2.278   3.344   5.842
   78SOPE   H3S 6973   2.433   3.258   5.867
   78SOPE   C24 6974   2.458   3.451   5.761
   78SOPE   H4R 6975   2.567   3.448   5.783
   78SOPE   H4S 6976   2.451   3.406   5.660
   78SOPE   C25 6977   2.415   3.598   5.748
   78SOPE   H5R 6978   2.392   3.657   5.839
   78SOPE   H5S 6979   2.488   3.662   5.694
   78SOPE   C26 6980   2.283   3.602   5.666
   78SOPE   H6R 6981   2.198   3.544   5.707
   78SOPE   H6S 6982   2.251   3.708   5.667
   78SOPE   C27 6983   2.309   3.569   5.514
   78SOPE   H7R 6984   2.403   3.616   5.478
   78SOPE   H7S 6985   2.315   3.460   5.498
   78SOPE   C28 6986   2.194   3.618   5.422
   78SOPE   H8R 6987   2.101   3.565   5.450
   78SOPE   H8S 6988   2.173   3.725   5.444
   78SOPE   C29 6989   2.225   3.577   5.281
   78SOPE   H91 6990   2.262   3.474   5.271
   78SOPE  C210 6991   2.194   3.640   5.169
   78SOPE  H101 6992   2.227   3.588   5.078
   78SOPE  C211 6993   2.131   3.777   5.159
   78SOPE  H11R 6994   2.161   3.843   5.243
   78SOPE  H11S 6995   2.021   3.781   5.152
   78SOPE  C212 6996   2.181   3.861   5.031
   78SOPE  H12R 6997   2.290   3.853   5.048
   78SOPE  H12S 6998   2.145   3.966   5.041
   78SOPE  C213 6999   2.154   3.804   4.893
   78SOPE  H13R 7000   2.048   3.774   4.886
   78SOPE  H13S 7001   2.193   3.702   4.872
   78SOPE  C214 7002   2.204   3.892   4.783
   78SOPE  H14R 7003   2.291   3.954   4.815
   78SOPE  H14S 7004   2.121   3.963   4.763
   78SOPE  C215 7005   2.237   3.812   4.655
   78SOPE  H15R 7006   2.181   3.717   4.639
   78SOPE  H15S 7007   2.338   3.773   4.680
   78SOPE  C216 7008   2.228   3.890   4.525
   78SOPE  H16R 7009   2.126   3.930   4.505
   78SOPE  H16S 7010   2.242   3.819   4.441
   78SOPE  C217 7011   2.340   4.002   4.508
   78SOPE  H17R 7012   2.437   3.949   4.509
   78SOPE  H17S 7013   2.334   4.070   4.596
   78SOPE  C218 7014   2.317   4.078   4.379
   78SOPE  H18R 7015   2.385   4.166   4.386
   78SOPE  H18S 7016   2.210   4.103   4.364
   78SOPE  H18T 7017   2.364   4.025   4.293
   78SOPE   C33 7018   1.941   3.355   5.931
   78SOPE   H3X 7019   1.978   3.313   5.835
   78SOPE   H3Y 7020   2.007   3.437   5.969
   78SOPE   C34 7021   1.804   3.419   5.902
   78SOPE   H4X 7022   1.766   3.439   6.004
   78SOPE   H4Y 7023   1.736   3.343   5.857
   78SOPE   C35 7024   1.807   3.548   5.818
   78SOPE   H5X 7025   1.906   3.593   5.839
   78SOPE   H5Y 7026   1.733   3.619   5.861
   78SOPE   C36 7027   1.803   3.531   5.664
   78SOPE   H6X 7028   1.886   3.472   5.621
   78SOPE   H6Y 7029   1.821   3.634   5.625
   78SOPE   C37 7030   1.669   3.476   5.608
   78SOPE   H7X 7031   1.589   3.541   5.649
   78SOPE   H7Y 7032   1.657   3.378   5.658
   78SOPE   C38 7033   1.655   3.470   5.454
   78SOPE   H8X 7034   1.548   3.474   5.423
   78SOPE   H8Y 7035   1.702   3.373   5.426
   78SOPE   C39 7036   1.745   3.574   5.375
   78SOPE   H9X 7037   1.851   3.568   5.408
   78SOPE   H9Y 7038   1.701   3.674   5.397
   78SOPE  C310 7039   1.743   3.552   5.222
   78SOPE  H10X 7040   1.789   3.640   5.172
   78SOPE  H10Y 7041   1.636   3.559   5.192
   78SOPE  C311 7042   1.819   3.420   5.174
   78SOPE  H11X 7043   1.794   3.330   5.233
   78SOPE  H11Y 7044   1.928   3.437   5.184
   78SOPE  C312 7045   1.781   3.371   5.031
   78SOPE  H12X 7046   1.675   3.337   5.028
   78SOPE  H12Y 7047   1.840   3.277   5.020
   78SOPE  C313 7048   1.839   3.467   4.939
   78SOPE  H13X 7049   1.950   3.465   4.940
   78SOPE  H13Y 7050   1.808   3.568   4.972
   78SOPE  C314 7051   1.778   3.463   4.795
   78SOPE  H14X 7052   1.681   3.517   4.802
   78SOPE  H14Y 7053   1.760   3.362   4.752
   78SOPE  C315 7054   1.864   3.542   4.689
   78SOPE  H15X 7055   1.954   3.479   4.676
   78SOPE  H15Y 7056   1.907   3.640   4.718
   78SOPE  C316 7057   1.796   3.564   4.555
   78SOPE  H16X 7058   1.686   3.582   4.561
   78SOPE  H16Y 7059   1.815   3.486   4.478
   78SOPE  C317 7060   1.859   3.693   4.502
   78SOPE  H17X 7061   1.969   3.677   4.499
   78SOPE  H17Y 7062   1.834   3.778   4.569
   78SOPE  C318 7063   1.822   3.742   4.368
   78SOPE  H18X 7064   1.839   3.660   4.295
   78SOPE  H18Y 7065   1.886   3.829   4.347
   78SOPE  H18Z 7066   1.714   3.771   4.365
   79SOPE     N 7067   4.512   0.843   6.366
   79SOPE   HN1 7068   4.476   0.772   6.299
   79SOPE   HN2 7069   4.502   0.930   6.310
   79SOPE   HN3 7070   4.614   0.824   6.376
   79SOPE   C12 7071   4.456   0.835   6.506
   79SOPE  H12A 7072   4.542   0.869   6.567
   79SOPE  H12B 7073   4.455   0.727   6.532
   79SOPE   C11 7074   4.336   0.918   6.534
   79SOPE  H11A 7075   4.336   0.922   6.645
   79SOPE  H11B 7076   4.243   0.865   6.507
   79SOPE     P 7077   4.339   1.189   6.542
   79SOPE   O13 7078   4.379   1.302   6.447
   79SOPE   O14 7079   4.420   1.173   6.660
   79SOPE   O12 7080   4.330   1.048   6.469
   79SOPE   O11 7081   4.194   1.206   6.583
   79SOPE    C1 7082   4.106   1.254   6.476
   79SOPE    HA 7083   4.149   1.334   6.413
   79SOPE    HB 7084   4.019   1.301   6.526
   79SOPE    C2 7085   4.050   1.147   6.375
   79SOPE    HS 7086   4.039   1.049   6.427
   79SOPE   O21 7087   4.135   1.156   6.261
   79SOPE   C21 7088   4.172   1.035   6.202
   79SOPE   O22 7089   4.145   0.929   6.243
   79SOPE   C22 7090   4.235   1.063   6.068
   79SOPE   H2R 7091   4.273   0.969   6.024
   79SOPE   H2S 7092   4.324   1.131   6.074
   79SOPE    C3 7093   3.906   1.185   6.325
   79SOPE    HX 7094   3.839   1.165   6.412
   79SOPE    HY 7095   3.865   1.117   6.247
   79SOPE   O31 7096   3.902   1.317   6.272
   79SOPE   C31 7097   3.807   1.401   6.318
   79SOPE   O32 7098   3.722   1.372   6.400
   79SOPE   C32 7099   3.837   1.542   6.244
   79SOPE   H2X 7100   3.937   1.579   6.276
   79SOPE   H2Y 7101   3.766   1.614   6.289
   79SOPE   C23 7102   4.133   1.131   5.971
   79SOPE   H3R 7103   4.120   1.240   5.990
   79SOPE   H3S 7104   4.039   1.073   5.976
   79SOPE   C24 7105   4.169   1.107   5.823
   79SOPE   H4R 7106   4.183   1.000   5.800
   79SOPE   H4S 7107   4.084   1.150   5.767
   79SOPE   C25 7108   4.302   1.169   5.773
   79SOPE   H5R 7109   4.383   1.116   5.828
   79SOPE   H5S 7110   4.324   1.150   5.666
   79SOPE   C26 7111   4.319   1.316   5.811
   79SOPE   H6R 7112   4.238   1.378   5.769
   79SOPE   H6S 7113   4.309   1.317   5.921
   79SOPE   C27 7114   4.455   1.376   5.783
   79SOPE   H7R 7115   4.531   1.325   5.845
   79SOPE   H7S 7116   4.475   1.359   5.675
   79SOPE   C28 7117   4.475   1.519   5.821
   79SOPE   H8R 7118   4.438   1.526   5.926
   79SOPE   H8S 7119   4.580   1.552   5.840
   79SOPE   C29 7120   4.397   1.617   5.737
   79SOPE   H91 7121   4.303   1.655   5.780
   79SOPE  C210 7122   4.443   1.667   5.621
   79SOPE  H101 7123   4.380   1.749   5.583
   79SOPE  C211 7124   4.571   1.661   5.542
   79SOPE  H11R 7125   4.632   1.578   5.583
   79SOPE  H11S 7126   4.640   1.747   5.553
   79SOPE  C212 7127   4.548   1.633   5.391
   79SOPE  H12R 7128   4.524   1.525   5.381
   79SOPE  H12S 7129   4.650   1.641   5.346
   79SOPE  C213 7130   4.455   1.732   5.315
   79SOPE  H13R 7131   4.469   1.834   5.357
   79SOPE  H13S 7132   4.347   1.720   5.335
   79SOPE  C214 7133   4.474   1.747   5.157
   79SOPE  H14R 7134   4.584   1.737   5.149
   79SOPE  H14S 7135   4.421   1.838   5.121
   79SOPE  C215 7136   4.418   1.627   5.073
   79SOPE  H15R 7137   4.438   1.528   5.118
   79SOPE  H15S 7138   4.459   1.649   4.972
   79SOPE  C216 7139   4.269   1.648   5.053
   79SOPE  H16R 7140   4.257   1.754   5.022
   79SOPE  H16S 7141   4.211   1.626   5.145
   79SOPE  C217 7142   4.209   1.569   4.933
   79SOPE  H17R 7143   4.251   1.621   4.845
   79SOPE  H17S 7144   4.099   1.580   4.934
   79SOPE  C218 7145   4.238   1.416   4.933
   79SOPE  H18R 7146   4.191   1.372   4.842
   79SOPE  H18S 7147   4.191   1.371   5.023
   79SOPE  H18T 7148   4.346   1.393   4.922
   79SOPE   C33 7149   3.810   1.543   6.093
   79SOPE   H3X 7150   3.790   1.645   6.054
   79SOPE   H3Y 7151   3.724   1.480   6.064
   79SOPE   C34 7152   3.931   1.492   6.006
   79SOPE   H4X 7153   3.970   1.398   6.049
   79SOPE   H4Y 7154   4.001   1.578   6.015
   79SOPE   C35 7155   3.886   1.490   5.864
   79SOPE   H5X 7156   3.852   1.594   5.850
   79SOPE   H5Y 7157   3.799   1.424   5.847
   79SOPE   C36 7158   4.003   1.447   5.772
   79SOPE   H6X 7159   4.021   1.344   5.810
   79SOPE   H6Y 7160   4.091   1.514   5.785
   79SOPE   C37 7161   3.975   1.442   5.621
   79SOPE   H7X 7162   3.949   1.547   5.593
   79SOPE   H7Y 7163   3.895   1.367   5.605
   79SOPE   C38 7164   4.093   1.404   5.531
   79SOPE   H8X 7165   4.134   1.313   5.579
   79SOPE   H8Y 7166   4.178   1.475   5.527
   79SOPE   C39 7167   4.049   1.348   5.393
   79SOPE   H9X 7168   3.993   1.424   5.335
   79SOPE   H9Y 7169   3.990   1.254   5.404
   79SOPE  C310 7170   4.169   1.298   5.306
   79SOPE  H10X 7171   4.249   1.375   5.314
   79SOPE  H10Y 7172   4.135   1.289   5.201
   79SOPE  C311 7173   4.230   1.163   5.346
   79SOPE  H11X 7174   4.159   1.085   5.380
   79SOPE  H11Y 7175   4.304   1.180   5.426
   79SOPE  C312 7176   4.307   1.104   5.222
   79SOPE  H12X 7177   4.242   1.087   5.133
   79SOPE  H12Y 7178   4.329   0.998   5.247
   79SOPE  C313 7179   4.440   1.172   5.182
   79SOPE  H13X 7180   4.421   1.280   5.161
   79SOPE  H13Y 7181   4.492   1.128   5.095
   79SOPE  C314 7182   4.540   1.173   5.297
   79SOPE  H14X 7183   4.495   1.220   5.387
   79SOPE  H14Y 7184   4.624   1.241   5.269
   79SOPE  C315 7185   4.600   1.032   5.330
   79SOPE  H15X 7186   4.620   0.997   5.226
   79SOPE  H15Y 7187   4.519   0.969   5.372
   79SOPE  C316 7188   4.716   1.040   5.425
   79SOPE  H16X 7189   4.793   1.102   5.375
   79SOPE  H16Y 7190   4.754   0.939   5.452
   79SOPE  C317 7191   4.672   1.116   5.548
   79SOPE  H17X 7192   4.573   1.072   5.571
   79SOPE  H17Y 7193   4.650   1.224   5.532
   79SOPE  C318 7194   4.771   1.108   5.661
   79SOPE  H18X 7195   4.862   1.167   5.640
   79SOPE  H18Y 7196   4.808   1.007   5.687
   79SOPE  H18Z 7197   4.729   1.149   5.756
   80SOPE     N 7198   1.757   3.145   6.643
   80SOPE   HN1 7199   1.778   3.043   6.637
   80SOPE   HN2 7200   1.836   3.210   6.661
   80SOPE   HN3 7201   1.689   3.164   6.719
   80SOPE   C12 7202   1.689   3.169   6.515
   80SOPE  H12A 7203   1.589   3.121   6.524
   80SOPE  H12B 7204   1.746   3.122   6.431
   80SOPE   C11 7205   1.669   3.323   6.491
   80SOPE  H11A 7206   1.622   3.333   6.391
   80SOPE  H11B 7207   1.770   3.369   6.481
   80SOPE     P 7208   1.587   3.530   6.635
   80SOPE   O13 7209   1.698   3.565   6.725
   80SOPE   O14 7210   1.453   3.558   6.696
   80SOPE   O12 7211   1.598   3.378   6.604
   80SOPE   O11 7212   1.590   3.598   6.494
   80SOPE    C1 7213   1.633   3.729   6.479
   80SOPE    HA 7214   1.674   3.778   6.570
   80SOPE    HB 7215   1.550   3.801   6.462
   80SOPE    C2 7216   1.735   3.755   6.372
   80SOPE    HS 7217   1.762   3.863   6.370
   80SOPE   O21 7218   1.696   3.694   6.247
   80SOPE   C21 7219   1.593   3.742   6.196
   80SOPE   O22 7220   1.538   3.849   6.222
   80SOPE   C22 7221   1.528   3.632   6.108
   80SOPE   H2R 7222   1.491   3.556   6.180
   80SOPE   H2S 7223   1.615   3.603   6.045
   80SOPE    C3 7224   1.882   3.691   6.400
   80SOPE    HX 7225   1.860   3.582   6.414
   80SOPE    HY 7226   1.915   3.728   6.499
   80SOPE   O31 7227   1.972   3.696   6.289
   80SOPE   C31 7228   2.082   3.770   6.302
   80SOPE   O32 7229   2.113   3.835   6.396
   80SOPE   C32 7230   2.169   3.746   6.182
   80SOPE   H2X 7231   2.161   3.643   6.142
   80SOPE   H2Y 7232   2.273   3.742   6.221
   80SOPE   C23 7233   1.419   3.671   6.006
   80SOPE   H3R 7234   1.390   3.576   5.955
   80SOPE   H3S 7235   1.450   3.742   5.926
   80SOPE   C24 7236   1.286   3.727   6.067
   80SOPE   H4R 7237   1.248   3.657   6.145
   80SOPE   H4S 7238   1.319   3.826   6.103
   80SOPE   C25 7239   1.163   3.751   5.991
   80SOPE   H5R 7240   1.084   3.792   6.057
   80SOPE   H5S 7241   1.176   3.821   5.906
   80SOPE   C26 7242   1.106   3.606   5.939
   80SOPE   H6R 7243   1.184   3.546   5.887
   80SOPE   H6S 7244   1.076   3.551   6.031
   80SOPE   C27 7245   0.977   3.627   5.858
   80SOPE   H7R 7246   0.905   3.670   5.931
   80SOPE   H7S 7247   1.001   3.698   5.776
   80SOPE   C28 7248   0.914   3.503   5.803
   80SOPE   H8R 7249   0.896   3.429   5.883
   80SOPE   H8S 7250   0.814   3.516   5.756
   80SOPE   C29 7251   1.015   3.448   5.704
   80SOPE   H91 7252   1.080   3.367   5.739
   80SOPE  C210 7253   1.055   3.485   5.582
   80SOPE  H101 7254   1.139   3.433   5.535
   80SOPE  C211 7255   0.996   3.596   5.498
   80SOPE  H11R 7256   1.013   3.693   5.551
   80SOPE  H11S 7257   0.885   3.590   5.501
   80SOPE  C212 7258   1.046   3.611   5.349
   80SOPE  H12R 7259   1.155   3.629   5.357
   80SOPE  H12S 7260   0.995   3.704   5.316
   80SOPE  C213 7261   1.024   3.498   5.260
   80SOPE  H13R 7262   0.917   3.487   5.233
   80SOPE  H13S 7263   1.039   3.407   5.322
   80SOPE  C214 7264   1.104   3.480   5.130
   80SOPE  H14R 7265   1.110   3.372   5.107
   80SOPE  H14S 7266   1.205   3.526   5.131
   80SOPE  C215 7267   1.034   3.554   5.010
   80SOPE  H15R 7268   1.031   3.659   5.045
   80SOPE  H15S 7269   0.929   3.527   4.987
   80SOPE  C216 7270   1.109   3.544   4.875
   80SOPE  H16R 7271   1.122   3.434   4.863
   80SOPE  H16S 7272   1.213   3.581   4.883
   80SOPE  C217 7273   1.037   3.601   4.758
   80SOPE  H17R 7274   1.025   3.711   4.773
   80SOPE  H17S 7275   0.942   3.548   4.740
   80SOPE  C218 7276   1.119   3.581   4.627
   80SOPE  H18R 7277   1.093   3.631   4.532
   80SOPE  H18S 7278   1.114   3.475   4.592
   80SOPE  H18T 7279   1.225   3.603   4.648
   80SOPE   C33 7280   2.166   3.864   6.078
   80SOPE   H3X 7281   2.255   3.859   6.012
   80SOPE   H3Y 7282   2.182   3.962   6.129
   80SOPE   C34 7283   2.055   3.873   5.973
   80SOPE   H4X 7284   1.953   3.887   6.015
   80SOPE   H4Y 7285   2.055   3.774   5.922
   80SOPE   C35 7286   2.099   3.978   5.870
   80SOPE   H5X 7287   2.201   3.952   5.835
   80SOPE   H5Y 7288   2.104   4.081   5.911
   80SOPE   C36 7289   2.002   3.999   5.750
   80SOPE   H6X 7290   2.019   4.097   5.700
   80SOPE   H6Y 7291   1.897   3.993   5.785
   80SOPE   C37 7292   2.024   3.900   5.636
   80SOPE   H7X 7293   1.990   3.806   5.684
   80SOPE   H7Y 7294   2.131   3.881   5.618
   80SOPE   C38 7295   1.929   3.925   5.516
   80SOPE   H8X 7296   1.825   3.938   5.552
   80SOPE   H8Y 7297   1.929   3.830   5.457
   80SOPE   C39 7298   1.965   4.032   5.416
   80SOPE   H9X 7299   2.068   4.025   5.376
   80SOPE   H9Y 7300   1.969   4.127   5.475
   80SOPE  C310 7301   1.873   4.059   5.298
   80SOPE  H10X 7302   1.770   4.095   5.319
   80SOPE  H10Y 7303   1.868   3.957   5.255
   80SOPE  C311 7304   1.947   4.151   5.193
   80SOPE  H11X 7305   2.049   4.110   5.181
   80SOPE  H11Y 7306   1.969   4.256   5.223
   80SOPE  C312 7307   1.863   4.156   5.063
   80SOPE  H12X 7308   1.771   4.217   5.080
   80SOPE  H12Y 7309   1.828   4.052   5.050
   80SOPE  C313 7310   1.936   4.198   4.943
   80SOPE  H13X 7311   2.036   4.151   4.950
   80SOPE  H13Y 7312   1.944   4.307   4.963
   80SOPE  C314 7313   1.863   4.184   4.809
   80SOPE  H14X 7314   1.758   4.221   4.816
   80SOPE  H14Y 7315   1.852   4.076   4.789
   80SOPE  C315 7316   1.921   4.251   4.690
   80SOPE  H15X 7317   2.026   4.218   4.676
   80SOPE  H15Y 7318   1.910   4.361   4.697
   80SOPE  C316 7319   1.843   4.219   4.567
   80SOPE  H16X 7320   1.742   4.265   4.577
   80SOPE  H16Y 7321   1.844   4.108   4.555
   80SOPE  C317 7322   1.918   4.272   4.439
   80SOPE  H17X 7323   2.020   4.231   4.422
   80SOPE  H17Y 7324   1.936   4.381   4.448
   80SOPE  C318 7325   1.839   4.259   4.309
   80SOPE  H18X 7326   1.729   4.265   4.328
   80SOPE  H18Y 7327   1.859   4.155   4.278
   80SOPE  H18Z 7328   1.881   4.328   4.233
   81SOPE     N 7329   4.864   1.923   6.769
   81SOPE   HN1 7330   4.778   1.958   6.818
   81SOPE   HN2 7331   4.891   1.839   6.823
   81SOPE   HN3 7332   4.939   1.994   6.767
   81SOPE   C12 7333   4.817   1.903   6.622
   81SOPE  H12A 7334   4.886   1.950   6.549
   81SOPE  H12B 7335   4.721   1.959   6.613
   81SOPE   C11 7336   4.800   1.752   6.590
   81SOPE  H11A 7337   4.764   1.751   6.484
   81SOPE  H11B 7338   4.718   1.722   6.659
   81SOPE     P 7339   4.901   1.522   6.582
   81SOPE   O13 7340   4.760   1.485   6.613
   81SOPE   O14 7341   5.008   1.437   6.632
   81SOPE   O12 7342   4.919   1.677   6.617
   81SOPE   O11 7343   4.928   1.519   6.424
   81SOPE    C1 7344   5.043   1.588   6.367
   81SOPE    HA 7345   5.138   1.547   6.410
   81SOPE    HB 7346   5.048   1.696   6.392
   81SOPE    C2 7347   5.041   1.550   6.216
   81SOPE    HS 7348   5.136   1.585   6.170
   81SOPE   O21 7349   4.932   1.618   6.157
   81SOPE   C21 7350   4.946   1.751   6.166
   81SOPE   O22 7351   5.053   1.818   6.170
   81SOPE   C22 7352   4.809   1.826   6.160
   81SOPE   H2R 7353   4.834   1.934   6.167
   81SOPE   H2S 7354   4.764   1.794   6.257
   81SOPE    C3 7355   5.044   1.399   6.185
   81SOPE    HX 7356   4.946   1.356   6.216
   81SOPE    HY 7357   5.115   1.346   6.252
   81SOPE   O31 7358   5.085   1.390   6.044
   81SOPE   C31 7359   4.985   1.369   5.954
   81SOPE   O32 7360   4.869   1.347   5.977
   81SOPE   C32 7361   5.037   1.381   5.814
   81SOPE   H2X 7362   5.072   1.279   5.786
   81SOPE   H2Y 7363   5.125   1.448   5.815
   81SOPE   C23 7364   4.726   1.792   6.040
   81SOPE   H3R 7365   4.691   1.687   6.040
   81SOPE   H3S 7366   4.783   1.812   5.947
   81SOPE   C24 7367   4.604   1.885   6.029
   81SOPE   H4R 7368   4.544   1.872   6.121
   81SOPE   H4S 7369   4.634   1.993   6.026
   81SOPE   C25 7370   4.534   1.871   5.898
   81SOPE   H5R 7371   4.611   1.848   5.821
   81SOPE   H5S 7372   4.459   1.790   5.910
   81SOPE   C26 7373   4.465   1.999   5.853
   81SOPE   H6R 7374   4.364   1.969   5.818
   81SOPE   H6S 7375   4.445   2.068   5.938
   81SOPE   C27 7376   4.541   2.059   5.741
   81SOPE   H7R 7377   4.648   2.071   5.772
   81SOPE   H7S 7378   4.536   1.985   5.659
   81SOPE   C28 7379   4.469   2.184   5.688
   81SOPE   H8R 7380   4.517   2.212   5.592
   81SOPE   H8S 7381   4.358   2.182   5.675
   81SOPE   C29 7382   4.475   2.311   5.772
   81SOPE   H91 7383   4.406   2.303   5.857
   81SOPE  C210 7384   4.545   2.425   5.755
   81SOPE  H101 7385   4.555   2.505   5.829
   81SOPE  C211 7386   4.624   2.468   5.631
   81SOPE  H11R 7387   4.688   2.386   5.591
   81SOPE  H11S 7388   4.700   2.540   5.667
   81SOPE  C212 7389   4.553   2.521   5.501
   81SOPE  H12R 7390   4.472   2.450   5.474
   81SOPE  H12S 7391   4.636   2.525   5.427
   81SOPE  C213 7392   4.494   2.658   5.514
   81SOPE  H13R 7393   4.582   2.720   5.543
   81SOPE  H13S 7394   4.424   2.652   5.600
   81SOPE  C214 7395   4.427   2.697   5.378
   81SOPE  H14R 7396   4.369   2.791   5.390
   81SOPE  H14S 7397   4.358   2.620   5.337
   81SOPE  C215 7398   4.532   2.739   5.276
   81SOPE  H15R 7399   4.607   2.660   5.253
   81SOPE  H15S 7400   4.589   2.814   5.333
   81SOPE  C216 7401   4.490   2.808   5.141
   81SOPE  H16R 7402   4.475   2.918   5.153
   81SOPE  H16S 7403   4.399   2.760   5.101
   81SOPE  C217 7404   4.593   2.782   5.031
   81SOPE  H17R 7405   4.566   2.849   4.947
   81SOPE  H17S 7406   4.579   2.681   4.987
   81SOPE  C218 7407   4.742   2.813   5.068
   81SOPE  H18R 7408   4.804   2.828   4.977
   81SOPE  H18S 7409   4.790   2.738   5.135
   81SOPE  H18T 7410   4.753   2.905   5.130
   81SOPE   C33 7411   4.927   1.435   5.723
   81SOPE   H3X 7412   4.917   1.540   5.760
   81SOPE   H3Y 7413   4.826   1.393   5.742
   81SOPE   C34 7414   4.970   1.433   5.575
   81SOPE   H4X 7415   5.008   1.330   5.559
   81SOPE   H4Y 7416   5.058   1.498   5.561
   81SOPE   C35 7417   4.853   1.468   5.476
   81SOPE   H5X 7418   4.818   1.572   5.491
   81SOPE   H5Y 7419   4.768   1.404   5.508
   81SOPE   C36 7420   4.899   1.428   5.332
   81SOPE   H6X 7421   4.924   1.320   5.330
   81SOPE   H6Y 7422   4.988   1.485   5.297
   81SOPE   C37 7423   4.801   1.466   5.214
   81SOPE   H7X 7424   4.799   1.577   5.204
   81SOPE   H7Y 7425   4.702   1.426   5.243
   81SOPE   C38 7426   4.838   1.393   5.082
   81SOPE   H8X 7427   4.833   1.285   5.107
   81SOPE   H8Y 7428   4.934   1.430   5.039
   81SOPE   C39 7429   4.716   1.421   4.985
   81SOPE   H9X 7430   4.717   1.531   4.970
   81SOPE   H9Y 7431   4.617   1.389   5.024
   81SOPE  C310 7432   4.748   1.365   4.846
   81SOPE  H10X 7433   4.722   1.258   4.841
   81SOPE  H10Y 7434   4.854   1.386   4.819
   81SOPE  C311 7435   4.665   1.428   4.728
   81SOPE  H11X 7436   4.692   1.535   4.722
   81SOPE  H11Y 7437   4.555   1.427   4.742
   81SOPE  C312 7438   4.692   1.345   4.604
   81SOPE  H12X 7439   4.685   1.235   4.616
   81SOPE  H12Y 7440   4.798   1.364   4.577
   81SOPE  C313 7441   4.606   1.365   4.480
   81SOPE  H13X 7442   4.602   1.475   4.461
   81SOPE  H13Y 7443   4.506   1.325   4.508
   81SOPE  C314 7444   4.664   1.283   4.362
   81SOPE  H14X 7445   4.647   1.175   4.384
   81SOPE  H14Y 7446   4.772   1.306   4.351
   81SOPE  C315 7447   4.594   1.302   4.226
   81SOPE  H15X 7448   4.558   1.407   4.234
   81SOPE  H15Y 7449   4.503   1.239   4.230
   81SOPE  C316 7450   4.690   1.282   4.116
   81SOPE  H16X 7451   4.756   1.196   4.142
   81SOPE  H16Y 7452   4.752   1.374   4.111
   81SOPE  C317 7453   4.611   1.262   3.988
   81SOPE  H17X 7454   4.536   1.345   3.993
   81SOPE  H17Y 7455   4.554   1.168   4.000
   81SOPE  C318 7456   4.709   1.278   3.866
   81SOPE  H18X 7457   4.775   1.367   3.870
   81SOPE  H18Y 7458   4.647   1.280   3.774
   81SOPE  H18Z 7459   4.771   1.190   3.839
   82SOPE     N 7460   1.818   1.345   6.430
   82SOPE   HN1 7461   1.832   1.444   6.461
   82SOPE   HN2 7462   1.887   1.293   6.488
   82SOPE   HN3 7463   1.844   1.341   6.329
   82SOPE   C12 7464   1.675   1.303   6.459
   82SOPE  H12A 7465   1.611   1.388   6.428
   82SOPE  H12B 7466   1.676   1.287   6.569
   82SOPE   C11 7467   1.655   1.161   6.391
   82SOPE  H11A 7468   1.672   1.181   6.283
   82SOPE  H11B 7469   1.548   1.135   6.406
   82SOPE     P 7470   1.751   0.919   6.417
   82SOPE   O13 7471   1.642   0.844   6.490
   82SOPE   O14 7472   1.888   0.871   6.444
   82SOPE   O12 7473   1.744   1.070   6.451
   82SOPE   O11 7474   1.724   0.907   6.261
   82SOPE    C1 7475   1.815   0.936   6.157
   82SOPE    HA 7476   1.907   0.873   6.170
   82SOPE    HB 7477   1.843   1.042   6.142
   82SOPE    C2 7478   1.761   0.880   6.018
   82SOPE    HS 7479   1.735   0.773   6.033
   82SOPE   O21 7480   1.856   0.895   5.909
   82SOPE   C21 7481   1.890   0.783   5.848
   82SOPE   O22 7482   1.831   0.672   5.860
   82SOPE   C22 7483   1.991   0.801   5.744
   82SOPE   H2R 7484   2.026   0.703   5.705
   82SOPE   H2S 7485   2.084   0.846   5.783
   82SOPE    C3 7486   1.623   0.943   5.984
   82SOPE    HX 7487   1.657   1.048   5.972
   82SOPE    HY 7488   1.549   0.946   6.066
   82SOPE   O31 7489   1.572   0.905   5.857
   82SOPE   C31 7490   1.511   0.787   5.850
   82SOPE   O32 7491   1.486   0.723   5.947
   82SOPE   C32 7492   1.488   0.758   5.703
   82SOPE   H2X 7493   1.578   0.714   5.653
   82SOPE   H2Y 7494   1.463   0.855   5.654
   82SOPE   C23 7495   1.957   0.871   5.615
   82SOPE   H3R 7496   2.047   0.862   5.550
   82SOPE   H3S 7497   1.945   0.982   5.623
   82SOPE   C24 7498   1.825   0.829   5.548
   82SOPE   H4R 7499   1.816   0.718   5.555
   82SOPE   H4S 7500   1.741   0.872   5.606
   82SOPE   C25 7501   1.815   0.878   5.402
   82SOPE   H5R 7502   1.900   0.828   5.351
   82SOPE   H5S 7503   1.723   0.826   5.368
   82SOPE   C26 7504   1.800   1.030   5.363
   82SOPE   H6R 7505   1.728   1.073   5.436
   82SOPE   H6S 7506   1.898   1.080   5.381
   82SOPE   C27 7507   1.746   1.044   5.224
   82SOPE   H7R 7508   1.649   0.993   5.210
   82SOPE   H7S 7509   1.735   1.153   5.201
   82SOPE   C28 7510   1.850   0.987   5.119
   82SOPE   H8R 7511   1.834   0.877   5.126
   82SOPE   H8S 7512   1.805   1.021   5.024
   82SOPE   C29 7513   1.988   1.039   5.140
   82SOPE   H91 7514   2.053   0.976   5.203
   82SOPE  C210 7515   2.043   1.147   5.086
   82SOPE  H101 7516   2.153   1.144   5.076
   82SOPE  C211 7517   1.966   1.239   4.994
   82SOPE  H11R 7518   1.979   1.342   5.034
   82SOPE  H11S 7519   1.857   1.226   5.006
   82SOPE  C212 7520   1.995   1.228   4.840
   82SOPE  H12R 7521   2.105   1.222   4.827
   82SOPE  H12S 7522   1.953   1.325   4.806
   82SOPE  C213 7523   1.929   1.114   4.766
   82SOPE  H13R 7524   1.827   1.105   4.808
   82SOPE  H13S 7525   1.979   1.015   4.778
   82SOPE  C214 7526   1.919   1.134   4.611
   82SOPE  H14R 7527   1.848   1.218   4.593
   82SOPE  H14S 7528   1.887   1.042   4.558
   82SOPE  C215 7529   2.055   1.173   4.547
   82SOPE  H15R 7530   2.121   1.084   4.544
   82SOPE  H15S 7531   2.108   1.231   4.625
   82SOPE  C216 7532   2.033   1.248   4.417
   82SOPE  H16R 7533   1.957   1.327   4.436
   82SOPE  H16S 7534   1.998   1.176   4.340
   82SOPE  C217 7535   2.154   1.324   4.357
   82SOPE  H17R 7536   2.238   1.252   4.362
   82SOPE  H17S 7537   2.179   1.416   4.415
   82SOPE  C218 7538   2.132   1.358   4.211
   82SOPE  H18R 7539   2.042   1.418   4.187
   82SOPE  H18S 7540   2.121   1.269   4.145
   82SOPE  H18T 7541   2.213   1.416   4.163
   82SOPE   C33 7542   1.362   0.664   5.689
   82SOPE   H3X 7543   1.275   0.719   5.731
   82SOPE   H3Y 7544   1.382   0.567   5.740
   82SOPE   C34 7545   1.320   0.648   5.538
   82SOPE   H4X 7546   1.315   0.746   5.486
   82SOPE   H4Y 7547   1.218   0.605   5.537
   82SOPE   C35 7548   1.417   0.562   5.448
   82SOPE   H5X 7549   1.405   0.454   5.470
   82SOPE   H5Y 7550   1.521   0.599   5.460
   82SOPE   C36 7551   1.382   0.578   5.303
   82SOPE   H6X 7552   1.272   0.557   5.299
   82SOPE   H6Y 7553   1.421   0.487   5.251
   82SOPE   C37 7554   1.422   0.712   5.237
   82SOPE   H7X 7555   1.520   0.749   5.275
   82SOPE   H7Y 7556   1.343   0.785   5.264
   82SOPE   C38 7557   1.431   0.704   5.090
   82SOPE   H8X 7558   1.428   0.806   5.046
   82SOPE   H8Y 7559   1.333   0.666   5.052
   82SOPE   C39 7560   1.553   0.631   5.037
   82SOPE   H9X 7561   1.559   0.532   5.088
   82SOPE   H9Y 7562   1.644   0.676   5.082
   82SOPE  C310 7563   1.565   0.622   4.883
   82SOPE  H10X 7564   1.488   0.558   4.834
   82SOPE  H10Y 7565   1.662   0.577   4.854
   82SOPE  C311 7566   1.563   0.764   4.819
   82SOPE  H11X 7567   1.640   0.819   4.878
   82SOPE  H11Y 7568   1.462   0.808   4.831
   82SOPE  C312 7569   1.603   0.760   4.672
   82SOPE  H12X 7570   1.568   0.858   4.635
   82SOPE  H12Y 7571   1.545   0.687   4.611
   82SOPE  C313 7572   1.753   0.746   4.647
   82SOPE  H13X 7573   1.791   0.649   4.686
   82SOPE  H13Y 7574   1.812   0.815   4.710
   82SOPE  C314 7575   1.777   0.761   4.498
   82SOPE  H14X 7576   1.755   0.866   4.471
   82SOPE  H14Y 7577   1.703   0.708   4.435
   82SOPE  C315 7578   1.921   0.735   4.451
   82SOPE  H15X 7579   1.957   0.632   4.470
   82SOPE  H15Y 7580   1.986   0.804   4.508
   82SOPE  C316 7581   1.931   0.752   4.299
   82SOPE  H16X 7582   1.857   0.688   4.247
   82SOPE  H16Y 7583   2.033   0.710   4.281
   82SOPE  C317 7584   1.932   0.899   4.250
   82SOPE  H17X 7585   2.024   0.951   4.283
   82SOPE  H17Y 7586   1.843   0.950   4.293
   82SOPE  C318 7587   1.941   0.923   4.099
   82SOPE  H18X 7588   1.840   0.912   4.055
   82SOPE  H18Y 7589   2.006   0.846   4.051
   82SOPE  H18Z 7590   1.972   1.028   4.075
   83SOPE     N 7591   1.336   2.253   1.792
   83SOPE   HN1 7592   1.252   2.198   1.821
   83SOPE   HN2 7593   1.326   2.259   1.688
   83SOPE   HN3 7594   1.407   2.177   1.795
   83SOPE   C12 7595   1.373   2.380   1.866
   83SOPE  H12A 7596   1.483   2.385   1.879
   83SOPE  H12B 7597   1.327   2.359   1.965
   83SOPE   C11 7598   1.326   2.507   1.790
   83SOPE  H11A 7599   1.324   2.598   1.854
   83SOPE  H11B 7600   1.218   2.494   1.767
   83SOPE     P 7601   1.536   2.603   1.647
   83SOPE   O13 7602   1.502   2.729   1.581
   83SOPE   O14 7603   1.639   2.517   1.585
   83SOPE   O12 7604   1.403   2.527   1.666
   83SOPE   O11 7605   1.572   2.637   1.799
   83SOPE    C1 7606   1.696   2.688   1.844
   83SOPE    HA 7607   1.709   2.795   1.818
   83SOPE    HB 7608   1.785   2.631   1.809
   83SOPE    C2 7609   1.693   2.691   2.001
   83SOPE    HS 7610   1.796   2.720   2.033
   83SOPE   O21 7611   1.648   2.570   2.063
   83SOPE   C21 7612   1.730   2.467   2.053
   83SOPE   O22 7613   1.836   2.463   1.994
   83SOPE   C22 7614   1.665   2.341   2.116
   83SOPE   H2R 7615   1.627   2.286   2.027
   83SOPE   H2S 7616   1.576   2.371   2.175
   83SOPE    C3 7617   1.583   2.797   2.053
   83SOPE    HX 7618   1.480   2.759   2.035
   83SOPE    HY 7619   1.603   2.893   2.002
   83SOPE   O31 7620   1.602   2.825   2.194
   83SOPE   C31 7621   1.511   2.924   2.241
   83SOPE   O32 7622   1.432   2.981   2.170
   83SOPE   C32 7623   1.533   2.941   2.390
   83SOPE   H2X 7624   1.641   2.966   2.403
   83SOPE   H2Y 7625   1.524   2.839   2.433
   83SOPE   C23 7626   1.756   2.251   2.210
   83SOPE   H3R 7627   1.860   2.241   2.173
   83SOPE   H3S 7628   1.723   2.145   2.215
   83SOPE   C24 7629   1.761   2.308   2.354
   83SOPE   H4R 7630   1.815   2.404   2.342
   83SOPE   H4S 7631   1.662   2.336   2.396
   83SOPE   C25 7632   1.845   2.237   2.464
   83SOPE   H5R 7633   1.795   2.138   2.470
   83SOPE   H5S 7634   1.946   2.213   2.426
   83SOPE   C26 7635   1.860   2.310   2.598
   83SOPE   H6R 7636   1.917   2.403   2.580
   83SOPE   H6S 7637   1.765   2.324   2.655
   83SOPE   C27 7638   1.953   2.234   2.697
   83SOPE   H7R 7639   1.941   2.124   2.698
   83SOPE   H7S 7640   2.057   2.250   2.661
   83SOPE   C28 7641   1.927   2.281   2.842
   83SOPE   H8R 7642   1.918   2.391   2.856
   83SOPE   H8S 7643   1.824   2.242   2.860
   83SOPE   C29 7644   2.026   2.222   2.940
   83SOPE   H91 7645   2.129   2.214   2.902
   83SOPE  C210 7646   1.999   2.163   3.058
   83SOPE  H101 7647   2.080   2.124   3.122
   83SOPE  C211 7648   1.864   2.144   3.114
   83SOPE  H11R 7649   1.843   2.038   3.140
   83SOPE  H11S 7650   1.785   2.164   3.038
   83SOPE  C212 7651   1.839   2.227   3.237
   83SOPE  H12R 7652   1.732   2.224   3.264
   83SOPE  H12S 7653   1.871   2.331   3.212
   83SOPE  C213 7654   1.911   2.181   3.365
   83SOPE  H13R 7655   1.900   2.258   3.445
   83SOPE  H13S 7656   2.019   2.170   3.341
   83SOPE  C214 7657   1.848   2.045   3.407
   83SOPE  H14R 7658   1.849   1.967   3.328
   83SOPE  H14S 7659   1.742   2.062   3.437
   83SOPE  C215 7660   1.899   2.009   3.543
   83SOPE  H15R 7661   1.888   2.102   3.602
   83SOPE  H15S 7662   2.009   1.990   3.541
   83SOPE  C216 7663   1.810   1.897   3.596
   83SOPE  H16R 7664   1.825   1.804   3.537
   83SOPE  H16S 7665   1.700   1.912   3.601
   83SOPE  C217 7666   1.846   1.878   3.745
   83SOPE  H17R 7667   1.793   1.964   3.791
   83SOPE  H17S 7668   1.954   1.895   3.764
   83SOPE  C218 7669   1.814   1.748   3.814
   83SOPE  H18R 7670   1.906   1.705   3.858
   83SOPE  H18S 7671   1.771   1.678   3.740
   83SOPE  H18T 7672   1.738   1.773   3.892
   83SOPE   C33 7673   1.443   3.047   2.470
   83SOPE   H3X 7674   1.333   3.038   2.451
   83SOPE   H3Y 7675   1.478   3.143   2.426
   83SOPE   C34 7676   1.447   3.031   2.618
   83SOPE   H4X 7677   1.549   3.069   2.642
   83SOPE   H4Y 7678   1.442   2.924   2.646
   83SOPE   C35 7679   1.336   3.116   2.688
   83SOPE   H5X 7680   1.235   3.087   2.653
   83SOPE   H5Y 7681   1.359   3.221   2.658
   83SOPE   C36 7682   1.350   3.120   2.842
   83SOPE   H6X 7683   1.303   3.214   2.877
   83SOPE   H6Y 7684   1.458   3.129   2.864
   83SOPE   C37 7685   1.287   3.004   2.905
   83SOPE   H7X 7686   1.332   2.905   2.884
   83SOPE   H7Y 7687   1.181   3.009   2.873
   83SOPE   C38 7688   1.286   3.002   3.057
   83SOPE   H8X 7689   1.385   2.963   3.090
   83SOPE   H8Y 7690   1.217   2.917   3.075
   83SOPE   C39 7691   1.233   3.129   3.130
   83SOPE   H9X 7692   1.129   3.155   3.103
   83SOPE   H9Y 7693   1.285   3.225   3.109
   83SOPE  C310 7694   1.239   3.113   3.284
   83SOPE  H10X 7695   1.244   3.212   3.334
   83SOPE  H10Y 7696   1.338   3.065   3.298
   83SOPE  C311 7697   1.116   3.048   3.352
   83SOPE  H11X 7698   1.093   2.959   3.291
   83SOPE  H11Y 7699   1.033   3.120   3.336
   83SOPE  C312 7700   1.135   3.021   3.500
   83SOPE  H12X 7701   1.135   3.123   3.546
   83SOPE  H12Y 7702   1.239   2.983   3.515
   83SOPE  C313 7703   1.035   2.928   3.577
   83SOPE  H13X 7704   1.077   2.826   3.564
   83SOPE  H13Y 7705   0.937   2.937   3.526
   83SOPE  C314 7706   1.035   2.968   3.733
   83SOPE  H14X 7707   1.009   3.075   3.747
   83SOPE  H14Y 7708   1.143   2.960   3.757
   83SOPE  C315 7709   0.952   2.883   3.826
   83SOPE  H15X 7710   0.959   2.773   3.810
   83SOPE  H15Y 7711   0.851   2.902   3.782
   83SOPE  C316 7712   0.963   2.922   3.981
   83SOPE  H16X 7713   0.897   3.008   4.003
   83SOPE  H16Y 7714   1.068   2.954   3.996
   83SOPE  C317 7715   0.920   2.797   4.061
   83SOPE  H17X 7716   0.966   2.814   4.161
   83SOPE  H17Y 7717   0.963   2.703   4.020
   83SOPE  C318 7718   0.774   2.780   4.087
   83SOPE  H18X 7719   0.756   2.673   4.111
   83SOPE  H18Y 7720   0.724   2.809   3.992
   83SOPE  H18Z 7721   0.738   2.840   4.173
   84SOPE     N 7722   0.691   1.204   2.184
   84SOPE   HN1 7723   0.714   1.139   2.105
   84SOPE   HN2 7724   0.717   1.303   2.163
   84SOPE   HN3 7725   0.748   1.170   2.264
   84SOPE   C12 7726   0.551   1.198   2.238
   84SOPE  H12A 7727   0.486   1.197   2.148
   84SOPE  H12B 7728   0.530   1.287   2.301
   84SOPE   C11 7729   0.537   1.064   2.312
   84SOPE  H11A 7730   0.430   1.045   2.339
   84SOPE  H11B 7731   0.601   1.076   2.402
   84SOPE     P 7732   0.511   0.880   2.136
   84SOPE   O13 7733   0.577   0.757   2.084
   84SOPE   O14 7734   0.429   0.964   2.048
   84SOPE   O12 7735   0.599   0.951   2.238
   84SOPE   O11 7736   0.405   0.818   2.237
   84SOPE    C1 7737   0.454   0.733   2.340
   84SOPE    HA 7738   0.514   0.796   2.409
   84SOPE    HB 7739   0.524   0.656   2.301
   84SOPE    C2 7740   0.341   0.678   2.427
   84SOPE    HS 7741   0.258   0.657   2.356
   84SOPE   O21 7742   0.317   0.771   2.536
   84SOPE   C21 7743   0.214   0.848   2.508
   84SOPE   O22 7744   0.127   0.821   2.430
   84SOPE   C22 7745   0.232   0.976   2.579
   84SOPE   H2R 7746   0.171   1.065   2.552
   84SOPE   H2S 7747   0.333   1.011   2.549
   84SOPE    C3 7748   0.373   0.537   2.491
   84SOPE    HX 7749   0.461   0.553   2.557
   84SOPE    HY 7750   0.410   0.464   2.416
   84SOPE   O31 7751   0.272   0.483   2.572
   84SOPE   C31 7752   0.161   0.432   2.508
   84SOPE   O32 7753   0.147   0.437   2.386
   84SOPE   C32 7754   0.058   0.389   2.612
   84SOPE   H2X 7755   0.090   0.285   2.630
   84SOPE   H2Y 7756   6.857   0.393   2.566
   84SOPE   C23 7757   0.212   0.954   2.731
   84SOPE   H3R 7758   0.281   0.872   2.758
   84SOPE   H3S 7759   0.110   0.915   2.750
   84SOPE   C24 7760   0.257   1.072   2.817
   84SOPE   H4R 7761   0.360   1.094   2.781
   84SOPE   H4S 7762   0.201   1.166   2.798
   84SOPE   C25 7763   0.266   1.058   2.967
   84SOPE   H5R 7764   0.319   1.149   3.002
   84SOPE   H5S 7765   0.173   1.060   3.028
   84SOPE   C26 7766   0.354   0.934   3.008
   84SOPE   H6R 7767   0.281   0.850   3.000
   84SOPE   H6S 7768   0.425   0.934   2.923
   84SOPE   C27 7769   0.421   0.939   3.147
   84SOPE   H7R 7770   0.485   0.848   3.136
   84SOPE   H7S 7771   0.484   1.029   3.166
   84SOPE   C28 7772   0.321   0.915   3.263
   84SOPE   H8R 7773   0.256   1.005   3.258
   84SOPE   H8S 7774   0.271   0.817   3.248
   84SOPE   C29 7775   0.410   0.907   3.382
   84SOPE   H91 7776   0.463   1.002   3.398
   84SOPE  C210 7777   0.429   0.802   3.465
   84SOPE  H101 7778   0.493   0.813   3.554
   84SOPE  C211 7779   0.344   0.677   3.459
   84SOPE  H11R 7780   0.392   0.583   3.424
   84SOPE  H11S 7781   0.250   0.689   3.399
   84SOPE  C212 7782   0.295   0.635   3.597
   84SOPE  H12R 7783   0.217   0.557   3.579
   84SOPE  H12S 7784   0.241   0.717   3.649
   84SOPE  C213 7785   0.401   0.568   3.690
   84SOPE  H13R 7786   0.468   0.649   3.724
   84SOPE  H13S 7787   0.461   0.500   3.625
   84SOPE  C214 7788   0.346   0.500   3.816
   84SOPE  H14R 7789   0.271   0.420   3.800
   84SOPE  H14S 7790   0.299   0.585   3.871
   84SOPE  C215 7791   0.456   0.438   3.910
   84SOPE  H15R 7792   0.531   0.517   3.931
   84SOPE  H15S 7793   0.511   0.358   3.856
   84SOPE  C216 7794   0.394   0.373   4.031
   84SOPE  H16R 7795   0.293   0.333   4.010
   84SOPE  H16S 7796   0.379   0.456   4.104
   84SOPE  C217 7797   0.483   0.267   4.091
   84SOPE  H17R 7798   0.510   0.205   4.003
   84SOPE  H17S 7799   0.427   0.199   4.160
   84SOPE  C218 7800   0.603   0.316   4.172
   84SOPE  H18R 7801   0.664   0.236   4.218
   84SOPE  H18S 7802   0.552   0.374   4.252
   84SOPE  H18T 7803   0.674   0.380   4.115
   84SOPE   C33 7804   0.066   0.459   2.753
   84SOPE   H3X 7805   0.150   0.428   2.819
   84SOPE   H3Y 7806   6.876   0.422   2.807
   84SOPE   C34 7807   0.057   0.618   2.760
   84SOPE   H4X 7808   6.866   0.657   2.710
   84SOPE   H4Y 7809   0.150   0.653   2.710
   84SOPE   C35 7810   0.063   0.672   2.908
   84SOPE   H5X 7811   0.037   0.780   2.909
   84SOPE   H5Y 7812   0.168   0.654   2.940
   84SOPE   C36 7813   6.865   0.603   3.000
   84SOPE   H6X 7814   6.877   0.493   2.991
   84SOPE   H6Y 7815   6.765   0.611   2.951
   84SOPE   C37 7816   6.874   0.656   3.145
   84SOPE   H7X 7817   6.878   0.767   3.153
   84SOPE   H7Y 7818   0.057   0.606   3.197
   84SOPE   C38 7819   6.753   0.594   3.222
   84SOPE   H8X 7820   6.739   0.494   3.176
   84SOPE   H8Y 7821   6.666   0.653   3.186
   84SOPE   C39 7822   6.777   0.589   3.375
   84SOPE   H9X 7823   6.762   0.689   3.420
   84SOPE   H9Y 7824   6.883   0.557   3.387
   84SOPE  C310 7825   6.695   0.481   3.453
   84SOPE  H10X 7826   6.714   0.373   3.431
   84SOPE  H10Y 7827   6.587   0.503   3.436
   84SOPE  C311 7828   6.713   0.483   3.601
   84SOPE  H11X 7829   6.681   0.584   3.635
   84SOPE  H11Y 7830   6.821   0.478   3.624
   84SOPE  C312 7831   6.643   0.376   3.680
   84SOPE  H12X 7832   6.675   0.279   3.637
   84SOPE  H12Y 7833   6.532   0.379   3.676
   84SOPE  C313 7834   6.672   0.378   3.831
   84SOPE  H13X 7835   6.641   0.475   3.876
   84SOPE  H13Y 7836   6.783   0.368   3.835
   84SOPE  C314 7837   6.610   0.261   3.915
   84SOPE  H14X 7838   6.641   0.167   3.864
   84SOPE  H14Y 7839   6.499   0.268   3.909
   84SOPE  C315 7840   6.655   0.254   4.062
   84SOPE  H15X 7841   6.666   0.355   4.106
   84SOPE  H15Y 7842   6.757   0.209   4.062
   84SOPE  C316 7843   6.552   0.178   4.146
   84SOPE  H16X 7844   6.525   0.078   4.107
   84SOPE  H16Y 7845   6.456   0.235   4.153
   84SOPE  C317 7846   6.585   0.155   4.297
   84SOPE  H17X 7847   6.600   0.257   4.340
   84SOPE  H17Y 7848   6.680   0.098   4.290
   84SOPE  C318 7849   6.491   0.063   4.374
   84SOPE  H18X 7850   6.536   0.018   4.465
   84SOPE  H18Y 7851   6.445   6.887   4.307
   84SOPE  H18Z 7852   6.406   0.121   4.415
   85SOPE     N 7853   5.039   4.051   1.675
   85SOPE   HN1 7854   4.949   4.091   1.643
   85SOPE   HN2 7855   5.105   4.128   1.697
   85SOPE   HN3 7856   5.075   3.988   1.601
   85SOPE   C12 7857   5.039   3.969   1.806
   85SOPE  H12A 7858   5.134   3.979   1.863
   85SOPE  H12B 7859   5.021   3.865   1.770
   85SOPE   C11 7860   4.913   4.013   1.881
   85SOPE  H11A 7861   4.898   3.936   1.960
   85SOPE  H11B 7862   4.819   4.005   1.822
   85SOPE     P 7863   5.002   4.206   2.051
   85SOPE   O13 7864   4.965   4.349   2.073
   85SOPE   O14 7865   5.146   4.185   2.037
   85SOPE   O12 7866   4.920   4.146   1.927
   85SOPE   O11 7867   4.958   4.112   2.169
   85SOPE    C1 7868   4.839   4.132   2.249
   85SOPE    HA 7869   4.774   4.042   2.241
   85SOPE    HB 7870   4.772   4.214   2.215
   85SOPE    C2 7871   4.861   4.141   2.403
   85SOPE    HS 7872   4.766   4.165   2.455
   85SOPE   O21 7873   4.944   4.247   2.430
   85SOPE   C21 7874   4.906   4.372   2.411
   85SOPE   O22 7875   4.796   4.408   2.378
   85SOPE   C22 7876   5.020   4.468   2.431
   85SOPE   H2R 7877   5.055   4.508   2.333
   85SOPE   H2S 7878   5.109   4.411   2.464
   85SOPE    C3 7879   4.931   4.019   2.465
   85SOPE    HX 7880   5.035   4.018   2.425
   85SOPE    HY 7881   4.876   3.927   2.436
   85SOPE   O31 7882   4.936   4.030   2.607
   85SOPE   C31 7883   5.044   4.054   2.674
   85SOPE   O32 7884   5.159   4.068   2.635
   85SOPE   C32 7885   5.017   4.050   2.826
   85SOPE   H2X 7886   5.108   4.066   2.887
   85SOPE   H2Y 7887   4.983   3.946   2.845
   85SOPE   C23 7888   4.991   4.581   2.536
   85SOPE   H3R 7889   4.896   4.634   2.513
   85SOPE   H3S 7890   5.072   4.657   2.530
   85SOPE   C24 7891   4.998   4.530   2.679
   85SOPE   H4R 7892   4.936   4.440   2.702
   85SOPE   H4S 7893   5.097   4.480   2.681
   85SOPE   C25 7894   4.974   4.635   2.792
   85SOPE   H5R 7895   5.019   4.733   2.767
   85SOPE   H5S 7896   4.863   4.644   2.804
   85SOPE   C26 7897   5.034   4.597   2.929
   85SOPE   H6R 7898   4.968   4.514   2.962
   85SOPE   H6S 7899   5.143   4.573   2.926
   85SOPE   C27 7900   5.020   4.715   3.033
   85SOPE   H7R 7901   5.114   4.773   3.025
   85SOPE   H7S 7902   4.946   4.790   2.997
   85SOPE   C28 7903   4.972   4.672   3.167
   85SOPE   H8R 7904   4.939   4.765   3.217
   85SOPE   H8S 7905   4.886   4.611   3.131
   85SOPE   C29 7906   5.069   4.587   3.252
   85SOPE   H91 7907   5.111   4.498   3.202
   85SOPE  C210 7908   5.114   4.622   3.365
   85SOPE  H101 7909   5.187   4.555   3.413
   85SOPE  C211 7910   5.069   4.745   3.442
   85SOPE  H11R 7911   4.971   4.793   3.424
   85SOPE  H11S 7912   5.134   4.834   3.432
   85SOPE  C212 7913   5.069   4.687   3.586
   85SOPE  H12R 7914   5.175   4.654   3.599
   85SOPE  H12S 7915   4.994   4.605   3.593
   85SOPE  C213 7916   5.022   4.787   3.701
   85SOPE  H13R 7917   4.915   4.808   3.680
   85SOPE  H13S 7918   5.087   4.877   3.699
   85SOPE  C214 7919   5.026   4.708   3.829
   85SOPE  H14R 7920   5.005   4.599   3.821
   85SOPE  H14S 7921   4.944   4.741   3.896
   85SOPE  C215 7922   5.158   4.734   3.916
   85SOPE  H15R 7923   5.183   4.842   3.918
   85SOPE  H15S 7924   5.239   4.687   3.856
   85SOPE  C216 7925   5.142   4.680   4.057
   85SOPE  H16R 7926   5.106   4.575   4.048
   85SOPE  H16S 7927   5.070   4.746   4.108
   85SOPE  C217 7928   5.279   4.668   4.133
   85SOPE  H17R 7929   5.315   4.772   4.120
   85SOPE  H17S 7930   5.348   4.593   4.088
   85SOPE  C218 7931   5.266   4.627   4.285
   85SOPE  H18R 7932   5.370   4.633   4.324
   85SOPE  H18S 7933   5.224   4.524   4.296
   85SOPE  H18T 7934   5.203   4.699   4.342
   85SOPE   C33 7935   4.899   4.136   2.871
   85SOPE   H3X 7936   4.810   4.127   2.805
   85SOPE   H3Y 7937   4.929   4.242   2.861
   85SOPE   C34 7938   4.866   4.103   3.012
   85SOPE   H4X 7939   4.810   4.009   3.031
   85SOPE   H4Y 7940   4.789   4.176   3.043
   85SOPE   C35 7941   4.975   4.135   3.111
   85SOPE   H5X 7942   5.030   4.228   3.082
   85SOPE   H5Y 7943   5.047   4.052   3.123
   85SOPE   C36 7944   4.915   4.159   3.253
   85SOPE   H6X 7945   4.836   4.084   3.274
   85SOPE   H6Y 7946   4.865   4.258   3.254
   85SOPE   C37 7947   5.023   4.140   3.359
   85SOPE   H7X 7948   5.114   4.202   3.341
   85SOPE   H7Y 7949   5.057   4.034   3.359
   85SOPE   C38 7950   4.969   4.165   3.501
   85SOPE   H8X 7951   4.903   4.077   3.521
   85SOPE   H8Y 7952   4.922   4.264   3.517
   85SOPE   C39 7953   5.082   4.146   3.604
   85SOPE   H9X 7954   5.164   4.219   3.591
   85SOPE   H9Y 7955   5.133   4.050   3.580
   85SOPE  C310 7956   5.039   4.139   3.748
   85SOPE  H10X 7957   4.939   4.093   3.741
   85SOPE  H10Y 7958   5.016   4.240   3.789
   85SOPE  C311 7959   5.138   4.067   3.837
   85SOPE  H11X 7960   5.154   3.960   3.810
   85SOPE  H11Y 7961   5.096   4.069   3.940
   85SOPE  C312 7962   5.277   4.133   3.840
   85SOPE  H12X 7963   5.266   4.241   3.863
   85SOPE  H12Y 7964   5.312   4.134   3.735
   85SOPE  C313 7965   5.381   4.068   3.928
   85SOPE  H13X 7966   5.480   4.113   3.905
   85SOPE  H13Y 7967   5.389   3.960   3.902
   85SOPE  C314 7968   5.383   4.069   4.081
   85SOPE  H14X 7969   5.306   3.997   4.115
   85SOPE  H14Y 7970   5.359   4.171   4.117
   85SOPE  C315 7971   5.511   4.022   4.147
   85SOPE  H15X 7972   5.559   3.930   4.107
   85SOPE  H15Y 7973   5.496   4.000   4.255
   85SOPE  C316 7974   5.630   4.132   4.158
   85SOPE  H16X 7975   5.575   4.215   4.208
   85SOPE  H16Y 7976   5.663   4.163   4.057
   85SOPE  C317 7977   5.758   4.097   4.245
   85SOPE  H17X 7978   5.803   4.006   4.200
   85SOPE  H17Y 7979   5.733   4.079   4.352
   85SOPE  C318 7980   5.864   4.210   4.227
   85SOPE  H18X 7981   5.950   4.207   4.297
   85SOPE  H18Y 7982   5.822   4.311   4.245
   85SOPE  H18Z 7983   5.907   4.208   4.125
   86SOPE     N 7984   4.740   1.802   2.391
   86SOPE   HN1 7985   4.822   1.856   2.357
   86SOPE   HN2 7986   4.728   1.721   2.327
   86SOPE   HN3 7987   4.656   1.862   2.395
   86SOPE   C12 7988   4.788   1.728   2.515
   86SOPE  H12A 7989   4.748   1.625   2.523
   86SOPE  H12B 7990   4.738   1.782   2.598
   86SOPE   C11 7991   4.939   1.726   2.528
   86SOPE  H11A 7992   4.968   1.682   2.626
   86SOPE  H11B 7993   4.987   1.826   2.534
   86SOPE     P 7994   5.136   1.645   2.372
   86SOPE   O13 7995   5.179   1.783   2.332
   86SOPE   O14 7996   5.156   1.536   2.278
   86SOPE   O12 7997   4.983   1.645   2.424
   86SOPE   O11 7998   5.211   1.601   2.503
   86SOPE    C1 7999   5.266   1.473   2.509
   86SOPE    HA 8000   5.358   1.456   2.450
   86SOPE    HB 8001   5.199   1.396   2.466
   86SOPE    C2 8002   5.301   1.440   2.656
   86SOPE    HS 8003   5.207   1.422   2.713
   86SOPE   O21 8004   5.373   1.556   2.701
   86SOPE   C21 8005   5.362   1.567   2.834
   86SOPE   O22 8006   5.281   1.516   2.912
   86SOPE   C22 8007   5.487   1.637   2.882
   86SOPE   H2R 8008   5.478   1.739   2.838
   86SOPE   H2S 8009   5.580   1.590   2.843
   86SOPE    C3 8010   5.387   1.322   2.670
   86SOPE    HX 8011   5.486   1.352   2.629
   86SOPE    HY 8012   5.341   1.243   2.607
   86SOPE   O31 8013   5.413   1.279   2.803
   86SOPE   C31 8014   5.320   1.194   2.851
   86SOPE   O32 8015   5.217   1.159   2.796
   86SOPE   C32 8016   5.370   1.147   2.982
   86SOPE   H2X 8017   5.406   1.235   3.041
   86SOPE   H2Y 8018   5.463   1.089   2.963
   86SOPE   C23 8019   5.497   1.659   3.035
   86SOPE   H3R 8020   5.403   1.702   3.076
   86SOPE   H3S 8021   5.578   1.735   3.042
   86SOPE   C24 8022   5.541   1.532   3.101
   86SOPE   H4R 8023   5.473   1.447   3.079
   86SOPE   H4S 8024   5.639   1.503   3.057
   86SOPE   C25 8025   5.557   1.555   3.250
   86SOPE   H5R 8026   5.603   1.466   3.299
   86SOPE   H5S 8027   5.608   1.653   3.258
   86SOPE   C26 8028   5.425   1.582   3.329
   86SOPE   H6R 8029   5.359   1.654   3.277
   86SOPE   H6S 8030   5.378   1.481   3.323
   86SOPE   C27 8031   5.434   1.638   3.473
   86SOPE   H7R 8032   5.503   1.577   3.534
   86SOPE   H7S 8033   5.477   1.741   3.477
   86SOPE   C28 8034   5.300   1.646   3.549
   86SOPE   H8R 8035   5.317   1.698   3.646
   86SOPE   H8S 8036   5.234   1.717   3.495
   86SOPE   C29 8037   5.223   1.514   3.563
   86SOPE   H91 8038   5.220   1.454   3.471
   86SOPE  C210 8039   5.157   1.463   3.666
   86SOPE  H101 8040   5.111   1.365   3.644
   86SOPE  C211 8041   5.133   1.532   3.793
   86SOPE  H11R 8042   5.224   1.546   3.855
   86SOPE  H11S 8043   5.071   1.460   3.851
   86SOPE  C212 8044   5.049   1.659   3.760
   86SOPE  H12R 8045   4.954   1.647   3.704
   86SOPE  H12S 8046   5.111   1.733   3.706
   86SOPE  C213 8047   5.000   1.720   3.895
   86SOPE  H13R 8048   4.926   1.798   3.867
   86SOPE  H13S 8049   5.078   1.777   3.950
   86SOPE  C214 8050   4.909   1.630   3.990
   86SOPE  H14R 8051   4.963   1.543   4.033
   86SOPE  H14S 8052   4.831   1.595   3.919
   86SOPE  C215 8053   4.835   1.707   4.101
   86SOPE  H15R 8054   4.777   1.788   4.052
   86SOPE  H15S 8055   4.910   1.765   4.159
   86SOPE  C216 8056   4.755   1.629   4.207
   86SOPE  H16R 8057   4.803   1.530   4.222
   86SOPE  H16S 8058   4.655   1.605   4.163
   86SOPE  C217 8059   4.753   1.706   4.346
   86SOPE  H17R 8060   4.854   1.701   4.392
   86SOPE  H17S 8061   4.681   1.660   4.417
   86SOPE  C218 8062   4.737   1.854   4.354
   86SOPE  H18R 8063   4.812   1.922   4.308
   86SOPE  H18S 8064   4.730   1.876   4.462
   86SOPE  H18T 8065   4.640   1.876   4.305
   86SOPE   C33 8066   5.262   1.069   3.054
   86SOPE   H3X 8067   5.210   0.992   2.994
   86SOPE   H3Y 8068   5.177   1.134   3.082
   86SOPE   C34 8069   5.319   1.000   3.183
   86SOPE   H4X 8070   5.406   0.935   3.161
   86SOPE   H4Y 8071   5.242   0.924   3.207
   86SOPE   C35 8072   5.334   1.096   3.302
   86SOPE   H5X 8073   5.249   1.167   3.293
   86SOPE   H5Y 8074   5.427   1.156   3.299
   86SOPE   C36 8075   5.335   1.027   3.439
   86SOPE   H6X 8076   5.359   1.105   3.515
   86SOPE   H6Y 8077   5.415   0.950   3.435
   86SOPE   C37 8078   5.204   0.964   3.488
   86SOPE   H7X 8079   5.179   0.879   3.421
   86SOPE   H7Y 8080   5.131   1.046   3.472
   86SOPE   C38 8081   5.220   0.928   3.634
   86SOPE   H8X 8082   5.131   0.869   3.662
   86SOPE   H8Y 8083   5.248   1.016   3.695
   86SOPE   C39 8084   5.321   0.817   3.671
   86SOPE   H9X 8085   5.426   0.844   3.647
   86SOPE   H9Y 8086   5.279   0.732   3.612
   86SOPE  C310 8087   5.304   0.793   3.818
   86SOPE  H10X 8088   5.195   0.783   3.838
   86SOPE  H10Y 8089   5.346   0.877   3.877
   86SOPE  C311 8090   5.364   0.658   3.872
   86SOPE  H11X 8091   5.475   0.656   3.881
   86SOPE  H11Y 8092   5.343   0.583   3.793
   86SOPE  C312 8093   5.310   0.609   4.005
   86SOPE  H12X 8094   5.365   0.516   4.032
   86SOPE  H12Y 8095   5.207   0.567   4.014
   86SOPE  C313 8096   5.331   0.704   4.117
   86SOPE  H13X 8097   5.256   0.784   4.134
   86SOPE  H13Y 8098   5.419   0.765   4.085
   86SOPE  C314 8099   5.369   0.643   4.253
   86SOPE  H14X 8100   5.436   0.721   4.297
   86SOPE  H14Y 8101   5.424   0.547   4.256
   86SOPE  C315 8102   5.244   0.629   4.339
   86SOPE  H15X 8103   5.172   0.574   4.274
   86SOPE  H15Y 8104   5.196   0.723   4.375
   86SOPE  C316 8105   5.265   0.538   4.465
   86SOPE  H16X 8106   5.302   0.443   4.421
   86SOPE  H16Y 8107   5.163   0.518   4.506
   86SOPE  C317 8108   5.357   0.594   4.565
   86SOPE  H17X 8109   5.319   0.696   4.589
   86SOPE  H17Y 8110   5.453   0.627   4.520
   86SOPE  C318 8111   5.396   0.505   4.677
   86SOPE  H18X 8112   5.452   0.422   4.627
   86SOPE  H18Y 8113   5.310   0.460   4.731
   86SOPE  H18Z 8114   5.466   0.553   4.749
   87SOPE     N 8115   0.153   0.965   2.024
   87SOPE   HN1 8116   0.137   0.867   2.056
   87SOPE   HN2 8117   0.110   0.980   1.931
   87SOPE   HN3 8118   0.256   0.967   2.011
   87SOPE   C12 8119   0.113   1.066   2.133
   87SOPE  H12A 8120   0.129   1.172   2.104
   87SOPE  H12B 8121   0.165   1.033   2.225
   87SOPE   C11 8122   6.861   1.045   2.151
   87SOPE  H11A 8123   6.829   1.115   2.232
   87SOPE  H11B 8124   6.841   0.939   2.174
   87SOPE     P 8125   6.637   1.040   2.018
   87SOPE   O13 8126   6.622   0.954   1.896
   87SOPE   O14 8127   6.563   1.172   2.014
   87SOPE   O12 8128   6.786   1.080   2.034
   87SOPE   O11 8129   6.598   0.963   2.145
   87SOPE    C1 8130   6.559   0.828   2.151
   87SOPE    HA 8131   6.588   0.796   2.253
   87SOPE    HB 8132   6.621   0.765   2.082
   87SOPE    C2 8133   6.410   0.792   2.133
   87SOPE    HS 8134   6.385   0.829   2.031
   87SOPE   O21 8135   6.337   0.859   2.236
   87SOPE   C21 8136   6.206   0.850   2.241
   87SOPE   O22 8137   6.131   0.814   2.150
   87SOPE   C22 8138   6.159   0.890   2.376
   87SOPE   H2R 8139   6.072   0.829   2.407
   87SOPE   H2S 8140   6.141   0.999   2.368
   87SOPE    C3 8141   6.388   0.640   2.123
   87SOPE    HX 8142   6.454   0.596   2.046
   87SOPE    HY 8143   6.285   0.621   2.085
   87SOPE   O31 8144   6.416   0.574   2.252
   87SOPE   C31 8145   6.510   0.483   2.257
   87SOPE   O32 8146   6.574   0.449   2.157
   87SOPE   C32 8147   6.529   0.439   2.401
   87SOPE   H2X 8148   6.465   0.504   2.464
   87SOPE   H2Y 8149   6.634   0.454   2.432
   87SOPE   C23 8150   6.265   0.874   2.491
   87SOPE   H3R 8151   6.355   0.935   2.468
   87SOPE   H3S 8152   6.300   0.771   2.513
   87SOPE   C24 8153   6.221   0.944   2.622
   87SOPE   H4R 8154   6.198   1.049   2.596
   87SOPE   H4S 8155   6.128   0.900   2.665
   87SOPE   C25 8156   6.312   0.935   2.737
   87SOPE   H5R 8157   6.326   0.829   2.767
   87SOPE   H5S 8158   6.405   0.974   2.689
   87SOPE   C26 8159   6.271   1.032   2.853
   87SOPE   H6R 8160   6.268   1.138   2.820
   87SOPE   H6S 8161   6.174   0.995   2.891
   87SOPE   C27 8162   6.364   1.036   2.974
   87SOPE   H7R 8163   6.468   1.053   2.938
   87SOPE   H7S 8164   6.334   1.119   3.041
   87SOPE   C28 8165   6.365   0.911   3.061
   87SOPE   H8R 8166   6.401   0.834   2.990
   87SOPE   H8S 8167   6.443   0.918   3.139
   87SOPE   C29 8168   6.232   0.894   3.126
   87SOPE   H91 8169   6.152   0.969   3.128
   87SOPE  C210 8170   6.184   0.768   3.163
   87SOPE  H101 8171   6.080   0.758   3.199
   87SOPE  C211 8172   6.271   0.646   3.183
   87SOPE  H11R 8173   6.356   0.643   3.112
   87SOPE  H11S 8174   6.216   0.552   3.160
   87SOPE  C212 8175   6.341   0.641   3.322
   87SOPE  H12R 8176   6.396   0.735   3.343
   87SOPE  H12S 8177   6.420   0.564   3.310
   87SOPE  C213 8178   6.236   0.610   3.435
   87SOPE  H13R 8179   6.184   0.515   3.412
   87SOPE  H13S 8180   6.151   0.682   3.434
   87SOPE  C214 8181   6.308   0.616   3.567
   87SOPE  H14R 8182   6.364   0.711   3.581
   87SOPE  H14S 8183   6.380   0.531   3.565
   87SOPE  C215 8184   6.224   0.595   3.694
   87SOPE  H15R 8185   6.157   0.507   3.683
   87SOPE  H15S 8186   6.168   0.691   3.702
   87SOPE  C216 8187   6.311   0.575   3.821
   87SOPE  H16R 8188   6.399   0.639   3.799
   87SOPE  H16S 8189   6.333   0.466   3.820
   87SOPE  C217 8190   6.238   0.632   3.945
   87SOPE  H17R 8191   6.131   0.612   3.927
   87SOPE  H17S 8192   6.253   0.742   3.947
   87SOPE  C218 8193   6.271   0.569   4.079
   87SOPE  H18R 8194   6.381   0.557   4.087
   87SOPE  H18S 8195   6.234   0.466   4.096
   87SOPE  H18T 8196   6.256   0.641   4.162
   87SOPE   C33 8197   6.485   0.287   2.438
   87SOPE   H3X 8198   6.529   0.232   2.352
   87SOPE   H3Y 8199   6.375   0.275   2.425
   87SOPE   C34 8200   6.538   0.235   2.569
   87SOPE   H4X 8201   6.644   0.209   2.549
   87SOPE   H4Y 8202   6.497   0.134   2.594
   87SOPE   C35 8203   6.535   0.315   2.696
   87SOPE   H5X 8204   6.436   0.365   2.703
   87SOPE   H5Y 8205   6.623   0.382   2.693
   87SOPE   C36 8206   6.543   0.228   2.826
   87SOPE   H6X 8207   6.615   0.143   2.819
   87SOPE   H6Y 8208   6.446   0.174   2.829
   87SOPE   C37 8209   6.561   0.302   2.961
   87SOPE   H7X 8210   6.509   0.400   2.966
   87SOPE   H7Y 8211   6.660   0.334   2.998
   87SOPE   C38 8212   6.497   0.212   3.070
   87SOPE   H8X 8213   6.561   0.121   3.065
   87SOPE   H8Y 8214   6.392   0.201   3.034
   87SOPE   C39 8215   6.489   0.281   3.207
   87SOPE   H9X 8216   6.428   0.373   3.197
   87SOPE   H9Y 8217   6.590   0.305   3.247
   87SOPE  C310 8218   6.418   0.187   3.304
   87SOPE  H10X 8219   6.480   0.095   3.305
   87SOPE  H10Y 8220   6.314   0.156   3.281
   87SOPE  C311 8221   6.414   0.223   3.454
   87SOPE  H11X 8222   6.361   0.320   3.469
   87SOPE  H11Y 8223   6.517   0.230   3.495
   87SOPE  C312 8224   6.337   0.119   3.532
   87SOPE  H12X 8225   6.391   0.021   3.526
   87SOPE  H12Y 8226   6.232   0.107   3.500
   87SOPE  C313 8227   6.328   0.155   3.680
   87SOPE  H13X 8228   6.280   0.254   3.693
   87SOPE  H13Y 8229   6.428   0.172   3.726
   87SOPE  C314 8230   6.266   0.044   3.763
   87SOPE  H14X 8231   6.333   6.856   3.766
   87SOPE  H14Y 8232   6.165   0.016   3.724
   87SOPE  C315 8233   6.235   0.078   3.911
   87SOPE  H15X 8234   6.178   0.173   3.911
   87SOPE  H15Y 8235   6.334   0.099   3.957
   87SOPE  C316 8236   6.162   6.865   3.992
   87SOPE  H16X 8237   6.073   6.824   3.939
   87SOPE  H16Y 8238   6.119   0.017   4.080
   87SOPE  C317 8239   6.254   6.748   4.030
   87SOPE  H17X 8240   6.359   6.785   4.020
   87SOPE  H17Y 8241   6.250   6.664   3.957
   87SOPE  C318 8242   6.227   6.684   4.166
   87SOPE  H18X 8243   6.261   6.751   4.248
   87SOPE  H18Y 8244   6.276   6.585   4.179
   87SOPE  H18Z 8245   6.118   6.677   4.185
   88SOPE     N 8246   1.682   6.290   1.787
   88SOPE   HN1 8247   1.714   6.291   1.886
   88SOPE   HN2 8248   1.603   6.223   1.782
   88SOPE   HN3 8249   1.760   6.236   1.744
   88SOPE   C12 8250   1.660   6.419   1.714
   88SOPE  H12A 8251   1.607   6.406   1.617
   88SOPE  H12B 8252   1.764   6.457   1.700
   88SOPE   C11 8253   1.595   6.525   1.807
   88SOPE  H11A 8254   1.496   6.489   1.843
   88SOPE  H11B 8255   1.577   6.620   1.751
   88SOPE     P 8256   1.637   6.613   2.051
   88SOPE   O13 8257   1.517   6.704   2.023
   88SOPE   O14 8258   1.756   6.676   2.108
   88SOPE   O12 8259   1.682   6.546   1.916
   88SOPE   O11 8260   1.591   6.490   2.141
   88SOPE    C1 8261   1.573   6.511   2.281
   88SOPE    HA 8262   1.490   6.581   2.304
   88SOPE    HB 8263   1.669   6.534   2.331
   88SOPE    C2 8264   1.524   6.375   2.333
   88SOPE    HS 8265   1.418   6.363   2.302
   88SOPE   O21 8266   1.531   6.383   2.481
   88SOPE   C21 8267   1.474   6.276   2.542
   88SOPE   O22 8268   1.385   6.215   2.494
   88SOPE   C22 8269   1.520   6.273   2.691
   88SOPE   H2R 8270   1.557   6.376   2.711
   88SOPE   H2S 8271   1.603   6.201   2.692
   88SOPE    C3 8272   1.613   6.260   2.288
   88SOPE    HX 8273   1.582   6.257   2.181
   88SOPE    HY 8274   1.567   6.169   2.331
   88SOPE   O31 8275   1.753   6.281   2.321
   88SOPE   C31 8276   1.807   6.219   2.426
   88SOPE   O32 8277   1.755   6.133   2.495
   88SOPE   C32 8278   1.944   6.280   2.445
   88SOPE   H2X 8279   1.971   6.321   2.345
   88SOPE   H2Y 8280   2.019   6.197   2.451
   88SOPE   C23 8281   1.406   6.220   2.790
   88SOPE   H3R 8282   1.426   6.233   2.899
   88SOPE   H3S 8283   1.395   6.110   2.779
   88SOPE   C24 8284   1.271   6.281   2.762
   88SOPE   H4R 8285   1.277   6.389   2.737
   88SOPE   H4S 8286   1.232   6.222   2.676
   88SOPE   C25 8287   1.164   6.281   2.873
   88SOPE   H5R 8288   1.137   6.176   2.897
   88SOPE   H5S 8289   1.208   6.330   2.963
   88SOPE   C26 8290   1.034   6.352   2.828
   88SOPE   H6R 8291   1.076   6.445   2.784
   88SOPE   H6S 8292   0.994   6.291   2.743
   88SOPE   C27 8293   0.939   6.351   2.944
   88SOPE   H7R 8294   0.925   6.251   2.989
   88SOPE   H7S 8295   0.980   6.417   3.024
   88SOPE   C28 8296   0.795   6.393   2.916
   88SOPE   H8R 8297   0.739   6.316   2.858
   88SOPE   H8S 8298   0.747   6.389   3.016
   88SOPE   C29 8299   0.790   6.518   2.828
   88SOPE   H91 8300   0.816   6.504   2.722
   88SOPE  C210 8301   0.742   6.641   2.863
   88SOPE  H101 8302   0.726   6.718   2.786
   88SOPE  C211 8303   0.681   6.691   2.995
   88SOPE  H11R 8304   0.747   6.762   3.051
   88SOPE  H11S 8305   0.647   6.598   3.044
   88SOPE  C212 8306   0.549   6.769   2.963
   88SOPE  H12R 8307   0.469   6.708   2.915
   88SOPE  H12S 8308   0.575   6.850   2.891
   88SOPE  C213 8309   0.499   6.829   3.099
   88SOPE  H13R 8310   0.419   0.004   3.082
   88SOPE  H13S 8311   0.587   6.876   3.148
   88SOPE  C214 8312   0.445   6.719   3.188
   88SOPE  H14R 8313   0.517   6.635   3.193
   88SOPE  H14S 8314   0.351   6.676   3.147
   88SOPE  C215 8315   0.406   6.767   3.332
   88SOPE  H15R 8316   0.349   6.685   3.379
   88SOPE  H15S 8317   0.346   6.859   3.318
   88SOPE  C216 8318   0.516   6.804   3.434
   88SOPE  H16R 8319   0.463   6.856   3.516
   88SOPE  H16S 8320   0.588   6.867   3.378
   88SOPE  C217 8321   0.613   6.691   3.478
   88SOPE  H17R 8322   0.650   6.652   3.380
   88SOPE  H17S 8323   0.564   6.602   3.523
   88SOPE  C218 8324   0.736   6.731   3.561
   88SOPE  H18R 8325   0.700   6.772   3.658
   88SOPE  H18S 8326   0.794   6.810   3.510
   88SOPE  H18T 8327   0.795   6.644   3.597
   88SOPE   C33 8328   1.958   6.381   2.561
   88SOPE   H3X 8329   1.898   6.472   2.540
   88SOPE   H3Y 8330   2.065   6.406   2.582
   88SOPE   C34 8331   1.910   6.319   2.693
   88SOPE   H4X 8332   1.933   6.211   2.703
   88SOPE   H4Y 8333   1.802   6.339   2.707
   88SOPE   C35 8334   1.988   6.374   2.806
   88SOPE   H5X 8335   2.095   6.393   2.782
   88SOPE   H5Y 8336   1.979   6.301   2.889
   88SOPE   C36 8337   1.935   6.511   2.853
   88SOPE   H6X 8338   1.945   6.562   2.755
   88SOPE   H6Y 8339   2.020   6.551   2.913
   88SOPE   C37 8340   1.794   6.538   2.906
   88SOPE   H7X 8341   1.725   6.515   2.822
   88SOPE   H7Y 8342   1.792   6.647   2.930
   88SOPE   C38 8343   1.763   6.463   3.033
   88SOPE   H8X 8344   1.807   6.507   3.126
   88SOPE   H8Y 8345   1.806   6.362   3.016
   88SOPE   C39 8346   1.618   6.421   3.045
   88SOPE   H9X 8347   1.600   6.315   3.017
   88SOPE   H9Y 8348   1.557   6.481   2.973
   88SOPE  C310 8349   1.556   6.419   3.181
   88SOPE  H10X 8350   1.445   6.416   3.176
   88SOPE  H10Y 8351   1.581   6.509   3.242
   88SOPE  C311 8352   1.593   6.296   3.265
   88SOPE  H11X 8353   1.703   6.292   3.281
   88SOPE  H11Y 8354   1.551   6.210   3.209
   88SOPE  C312 8355   1.528   6.313   3.406
   88SOPE  H12X 8356   1.418   6.302   3.396
   88SOPE  H12Y 8357   1.565   6.411   3.443
   88SOPE  C313 8358   1.582   6.209   3.506
   88SOPE  H13X 8359   1.687   6.240   3.521
   88SOPE  H13Y 8360   1.582   6.114   3.447
   88SOPE  C314 8361   1.508   6.205   3.637
   88SOPE  H14X 8362   1.412   6.152   3.617
   88SOPE  H14Y 8363   1.492   6.312   3.662
   88SOPE  C315 8364   1.588   6.136   3.745
   88SOPE  H15X 8365   1.613   6.031   3.716
   88SOPE  H15Y 8366   1.521   6.125   3.833
   88SOPE  C316 8367   1.710   6.226   3.791
   88SOPE  H16X 8368   1.675   6.330   3.809
   88SOPE  H16Y 8369   1.781   6.234   3.706
   88SOPE  C317 8370   1.796   6.182   3.905
   88SOPE  H17X 8371   1.821   6.075   3.893
   88SOPE  H17Y 8372   1.750   6.175   4.005
   88SOPE  C318 8373   1.925   6.271   3.900
   88SOPE  H18X 8374   1.983   6.249   3.808
   88SOPE  H18Y 8375   1.986   6.253   3.991
   88SOPE  H18Z 8376   1.889   6.376   3.897
   89SAPC     N 8377   4.402   3.764   6.815
   89SAPC   C12 8378   4.440   3.837   6.677
   89SAPC  H12A 8379   4.461   3.939   6.705
   89SAPC  H12B 8380   4.346   3.853   6.625
   89SAPC   C13 8381   4.271   3.822   6.854
   89SAPC  H13A 8382   4.285   3.925   6.886
   89SAPC  H13B 8383   4.186   3.821   6.788
   89SAPC  H13C 8384   4.244   3.767   6.943
   89SAPC   C14 8385   4.383   3.618   6.801
   89SAPC  H14A 8386   4.293   3.597   6.745
   89SAPC  H14B 8387   4.468   3.574   6.751
   89SAPC  H14C 8388   4.373   3.579   6.901
   89SAPC   C15 8389   4.504   3.785   6.922
   89SAPC  H15A 8390   4.601   3.764   6.879
   89SAPC  H15B 8391   4.516   3.888   6.949
   89SAPC  H15C 8392   4.493   3.716   7.005
   89SAPC   C11 8393   4.547   3.774   6.586
   89SAPC  H11A 8394   4.580   3.845   6.508
   89SAPC  H11B 8395   4.504   3.679   6.547
   89SAPC     P 8396   4.738   3.611   6.650
   89SAPC   O13 8397   4.854   3.621   6.743
   89SAPC   O14 8398   4.657   3.488   6.667
   89SAPC   O12 8399   4.659   3.744   6.664
   89SAPC   O11 8400   4.798   3.616   6.500
   89SAPC    C1 8401   4.904   3.700   6.450
   89SAPC    HA 8402   4.931   3.783   6.519
   89SAPC    HB 8403   4.993   3.635   6.435
   89SAPC    C2 8404   4.876   3.746   6.304
   89SAPC    HS 8405   4.806   3.832   6.315
   89SAPC   O21 8406   4.824   3.642   6.227
   89SAPC   C21 8407   4.723   3.654   6.144
   89SAPC   O22 8408   4.644   3.747   6.139
   89SAPC   C22 8409   4.713   3.520   6.070
   89SAPC   H2R 8410   4.792   3.517   5.993
   89SAPC   H2S 8411   4.720   3.440   6.147
   89SAPC    C3 8412   4.989   3.810   6.221
   89SAPC    HX 8413   5.049   3.718   6.204
   89SAPC    HY 8414   5.060   3.870   6.281
   89SAPC   O31 8415   4.945   3.865   6.094
   89SAPC   C31 8416   4.868   3.972   6.106
   89SAPC   O32 8417   4.844   4.023   6.212
   89SAPC   C32 8418   4.826   4.022   5.966
   89SAPC   H2X 8419   4.800   3.931   5.908
   89SAPC   H2Y 8420   4.914   4.068   5.917
   89SAPC   C23 8421   4.578   3.497   5.983
   89SAPC   H3R 8422   4.491   3.545   6.032
   89SAPC   H3S 8423   4.569   3.386   5.988
   89SAPC   C24 8424   4.615   3.529   5.832
   89SAPC   H4R 8425   4.532   3.479   5.777
   89SAPC   H4S 8426   4.716   3.495   5.799
   89SAPC   C25 8427   4.601   3.675   5.807
   89SAPC   H5R 8428   4.517   3.717   5.864
   89SAPC   C26 8429   4.678   3.759   5.742
   89SAPC   H6R 8430   4.640   3.862   5.738
   89SAPC   C27 8431   4.800   3.732   5.659
   89SAPC   H7R 8432   4.790   3.645   5.591
   89SAPC   H7S 8433   4.874   3.690   5.730
   89SAPC   C28 8434   4.843   3.869   5.603
   89SAPC   H8R 8435   4.896   3.927   5.680
   89SAPC   C29 8436   4.851   3.924   5.480
   89SAPC   H9R 8437   4.894   4.023   5.461
   89SAPC  C210 8438   4.792   3.855   5.357
   89SAPC  H10R 8439   4.781   3.943   5.290
   89SAPC  H10S 8440   4.689   3.819   5.379
   89SAPC  C211 8441   4.874   3.749   5.293
   89SAPC  H11R 8442   4.937   3.697   5.367
   89SAPC  C212 8443   4.899   3.732   5.160
   89SAPC  H12R 8444   4.940   3.637   5.123
   89SAPC  C213 8445   4.829   3.802   5.045
   89SAPC  H13R 8446   4.907   3.840   4.976
   89SAPC  H13S 8447   4.762   3.884   5.078
   89SAPC  C214 8448   4.741   3.697   4.983
   89SAPC  H14R 8449   4.673   3.646   5.053
   89SAPC  C215 8450   4.754   3.660   4.861
   89SAPC  H15R 8451   4.689   3.583   4.819
   89SAPC  C216 8452   4.863   3.699   4.766
   89SAPC  H16R 8453   4.958   3.690   4.824
   89SAPC  H16S 8454   4.848   3.804   4.733
   89SAPC  C217 8455   4.859   3.612   4.650
   89SAPC  H17R 8456   4.922   3.653   4.568
   89SAPC  H17S 8457   4.759   3.593   4.605
   89SAPC  C218 8458   4.917   3.465   4.674
   89SAPC  H18R 8459   4.853   3.404   4.741
   89SAPC  H18S 8460   5.012   3.490   4.726
   89SAPC  C219 8461   4.959   3.385   4.550
   89SAPC  H19R 8462   4.991   3.283   4.578
   89SAPC  H19S 8463   5.049   3.436   4.509
   89SAPC  C220 8464   4.836   3.379   4.451
   89SAPC  H20R 8465   4.883   3.320   4.370
   89SAPC  H20S 8466   4.808   3.480   4.413
   89SAPC  H20T 8467   4.748   3.327   4.495
   89SAPC   C33 8468   4.708   4.130   5.967
   89SAPC   H3X 8469   4.732   4.208   6.042
   89SAPC   H3Y 8470   4.609   4.090   5.996
   89SAPC   C34 8471   4.697   4.190   5.833
   89SAPC   H4X 8472   4.715   4.102   5.768
   89SAPC   H4Y 8473   4.785   4.256   5.822
   89SAPC   C35 8474   4.575   4.272   5.805
   89SAPC   H5X 8475   4.594   4.365   5.748
   89SAPC   H5Y 8476   4.527   4.310   5.898
   89SAPC   C36 8477   4.476   4.182   5.713
   89SAPC   H6X 8478   4.381   4.240   5.710
   89SAPC   H6Y 8479   4.446   4.084   5.756
   89SAPC   C37 8480   4.522   4.176   5.563
   89SAPC   H7X 8481   4.630   4.156   5.572
   89SAPC   H7Y 8482   4.494   4.267   5.504
   89SAPC   C38 8483   4.462   4.052   5.484
   89SAPC   H8X 8484   4.352   4.056   5.499
   89SAPC   H8Y 8485   4.491   3.954   5.527
   89SAPC   C39 8486   4.480   4.064   5.340
   89SAPC   H9X 8487   4.586   4.082   5.313
   89SAPC   H9Y 8488   4.430   4.153   5.294
   89SAPC  C310 8489   4.423   3.945   5.260
   89SAPC  H10X 8490   4.314   3.940   5.280
   89SAPC  H10Y 8491   4.465   3.852   5.304
   89SAPC  C311 8492   4.445   3.955   5.107
   89SAPC  H11X 8493   4.554   3.952   5.090
   89SAPC  H11Y 8494   4.405   4.054   5.075
   89SAPC  C312 8495   4.379   3.849   5.022
   89SAPC  H12X 8496   4.268   3.859   5.025
   89SAPC  H12Y 8497   4.408   3.756   5.075
   89SAPC  C313 8498   4.428   3.851   4.875
   89SAPC  H13X 8499   4.536   3.877   4.862
   89SAPC  H13Y 8500   4.373   3.930   4.821
   89SAPC  C314 8501   4.404   3.709   4.814
   89SAPC  H14X 8502   4.296   3.683   4.818
   89SAPC  H14Y 8503   4.457   3.643   4.887
   89SAPC  C315 8504   4.444   3.702   4.662
   89SAPC  H15X 8505   4.552   3.729   4.655
   89SAPC  H15Y 8506   4.392   3.786   4.612
   89SAPC  C316 8507   4.402   3.570   4.594
   89SAPC  H16X 8508   4.423   3.584   4.486
   89SAPC  H16Y 8509   4.295   3.546   4.615
   89SAPC  C317 8510   4.487   3.446   4.631
   89SAPC  H17X 8511   4.589   3.486   4.652
   89SAPC  H17Y 8512   4.480   3.376   4.546
   89SAPC  C318 8513   4.436   3.375   4.752
   89SAPC  H18X 8514   4.479   3.412   4.848
   89SAPC  H18Y 8515   4.447   3.265   4.741
   89SAPC  H18Z 8516   4.325   3.381   4.759
   90SAPC     N 8517   2.974   6.234   7.092
   90SAPC   C12 8518   3.121   6.275   7.064
   90SAPC  H12A 8519   3.165   6.201   6.997
   90SAPC  H12B 8520   3.173   6.268   7.158
   90SAPC   C13 8521   2.916   6.321   7.196
   90SAPC  H13A 8522   2.974   6.325   7.287
   90SAPC  H13B 8523   2.909   6.419   7.151
   90SAPC  H13C 8524   2.816   6.285   7.215
   90SAPC   C14 8525   2.887   6.240   6.969
   90SAPC  H14A 8526   2.795   6.185   6.983
   90SAPC  H14B 8527   2.857   6.343   6.952
   90SAPC  H14C 8528   2.929   6.201   6.878
   90SAPC   C15 8529   2.993   6.096   7.148
   90SAPC  H15A 8530   2.902   6.069   7.199
   90SAPC  H15B 8531   3.029   6.022   7.078
   90SAPC  H15C 8532   3.068   6.097   7.225
   90SAPC   C11 8533   3.150   6.414   7.009
   90SAPC  H11A 8534   3.260   6.412   7.000
   90SAPC  H11B 8535   3.105   6.490   7.077
   90SAPC     P 8536   3.093   6.554   6.802
   90SAPC   O13 8537   2.954   6.579   6.750
   90SAPC   O14 8538   3.163   6.654   6.884
   90SAPC   O12 8539   3.094   6.423   6.878
   90SAPC   O11 8540   3.184   6.511   6.684
   90SAPC    C1 8541   3.256   6.613   6.612
   90SAPC    HA 8542   3.294   6.690   6.683
   90SAPC    HB 8543   3.337   6.569   6.550
   90SAPC    C2 8544   3.157   6.674   6.504
   90SAPC    HS 8545   3.088   6.729   6.570
   90SAPC   O21 8546   3.080   6.576   6.433
   90SAPC   C21 8547   2.993   6.640   6.359
   90SAPC   O22 8548   2.956   6.753   6.369
   90SAPC   C22 8549   2.941   6.543   6.245
   90SAPC   H2R 8550   3.036   6.491   6.219
   90SAPC   H2S 8551   2.868   6.472   6.291
   90SAPC    C3 8552   3.242   6.772   6.414
   90SAPC    HX 8553   3.300   6.820   6.495
   90SAPC    HY 8554   3.180   6.854   6.373
   90SAPC   O31 8555   3.326   6.702   6.312
   90SAPC   C31 8556   3.287   6.715   6.187
   90SAPC   O32 8557   3.186   6.778   6.152
   90SAPC   C32 8558   3.372   6.632   6.097
   90SAPC   H2X 8559   3.362   6.527   6.130
   90SAPC   H2Y 8560   3.477   6.668   6.100
   90SAPC   C23 8561   2.878   6.626   6.132
   90SAPC   H3R 8562   2.929   6.724   6.142
   90SAPC   H3S 8563   2.771   6.644   6.152
   90SAPC   C24 8564   2.895   6.571   5.993
   90SAPC   H4R 8565   3.004   6.560   5.972
   90SAPC   H4S 8566   2.848   6.643   5.923
   90SAPC   C25 8567   2.822   6.436   5.980
   90SAPC   H5R 8568   2.712   6.432   5.981
   90SAPC   C26 8569   2.886   6.318   5.959
   90SAPC   H6R 8570   2.821   6.229   5.963
   90SAPC   C27 8571   3.035   6.294   5.958
   90SAPC   H7R 8572   3.052   6.189   5.991
   90SAPC   H7S 8573   3.091   6.360   6.028
   90SAPC   C28 8574   3.100   6.319   5.826
   90SAPC   H8R 8575   3.152   6.415   5.813
   90SAPC   C29 8576   3.108   6.238   5.724
   90SAPC   H9R 8577   3.159   6.273   5.633
   90SAPC  C210 8578   3.030   6.114   5.706
   90SAPC  H10R 8579   2.950   6.112   5.784
   90SAPC  H10S 8580   3.095   6.024   5.707
   90SAPC  C211 8581   2.964   6.120   5.566
   90SAPC  H11R 8582   2.865   6.166   5.555
   90SAPC  C212 8583   3.017   6.087   5.444
   90SAPC  H12R 8584   2.958   6.093   5.352
   90SAPC  C213 8585   3.152   6.018   5.429
   90SAPC  H13R 8586   3.219   6.048   5.513
   90SAPC  H13S 8587   3.201   6.047   5.334
   90SAPC  C214 8588   3.135   5.866   5.408
   90SAPC  H14R 8589   3.136   5.809   5.502
   90SAPC  C215 8590   3.116   5.805   5.290
   90SAPC  H15R 8591   3.098   5.697   5.290
   90SAPC  C216 8592   3.122   5.863   5.152
   90SAPC  H16R 8593   3.141   5.971   5.137
   90SAPC  H16S 8594   3.029   5.841   5.096
   90SAPC  C217 8595   3.231   5.792   5.067
   90SAPC  H17R 8596   3.228   5.682   5.077
   90SAPC  H17S 8597   3.331   5.824   5.102
   90SAPC  C218 8598   3.219   5.822   4.923
   90SAPC  H18R 8599   3.236   5.931   4.909
   90SAPC  H18S 8600   3.116   5.796   4.889
   90SAPC  C219 8601   3.328   5.763   4.828
   90SAPC  H19R 8602   3.302   5.656   4.811
   90SAPC  H19S 8603   3.425   5.770   4.881
   90SAPC  C220 8604   3.338   5.826   4.685
   90SAPC  H20R 8605   3.241   5.835   4.631
   90SAPC  H20S 8606   3.411   5.763   4.631
   90SAPC  H20T 8607   3.366   5.934   4.689
   90SAPC   C33 8608   3.341   6.627   5.943
   90SAPC   H3X 8609   3.241   6.580   5.927
   90SAPC   H3Y 8610   3.412   6.554   5.900
   90SAPC   C34 8611   3.342   6.764   5.870
   90SAPC   H4X 8612   3.432   6.822   5.899
   90SAPC   H4Y 8613   3.257   6.829   5.901
   90SAPC   C35 8614   3.336   6.749   5.719
   90SAPC   H5X 8615   3.442   6.745   5.687
   90SAPC   H5Y 8616   3.293   6.838   5.668
   90SAPC   C36 8617   3.260   6.632   5.663
   90SAPC   H6X 8618   3.153   6.641   5.691
   90SAPC   H6Y 8619   3.294   6.536   5.708
   90SAPC   C37 8620   3.284   6.625   5.512
   90SAPC   H7X 8621   3.394   6.626   5.499
   90SAPC   H7Y 8622   3.248   6.716   5.460
   90SAPC   C38 8623   3.222   6.503   5.449
   90SAPC   H8X 8624   3.115   6.511   5.477
   90SAPC   H8Y 8625   3.259   6.405   5.485
   90SAPC   C39 8626   3.243   6.512   5.295
   90SAPC   H9X 8627   3.352   6.524   5.274
   90SAPC   H9Y 8628   3.193   6.599   5.247
   90SAPC  C310 8629   3.196   6.378   5.235
   90SAPC  H10X 8630   3.085   6.384   5.231
   90SAPC  H10Y 8631   3.238   6.298   5.300
   90SAPC  C311 8632   3.228   6.354   5.091
   90SAPC  H11X 8633   3.196   6.251   5.064
   90SAPC  H11Y 8634   3.339   6.358   5.086
   90SAPC  C312 8635   3.156   6.454   4.997
   90SAPC  H12X 8636   3.192   6.557   5.017
   90SAPC  H12Y 8637   3.050   6.452   5.029
   90SAPC  C313 8638   3.174   6.426   4.847
   90SAPC  H13X 8639   3.133   6.511   4.788
   90SAPC  H13Y 8640   3.116   6.334   4.822
   90SAPC  C314 8641   3.315   6.377   4.827
   90SAPC  H14X 8642   3.323   6.270   4.859
   90SAPC  H14Y 8643   3.379   6.431   4.900
   90SAPC  C315 8644   3.364   6.377   4.684
   90SAPC  H15X 8645   3.463   6.327   4.695
   90SAPC  H15Y 8646   3.373   6.480   4.641
   90SAPC  C316 8647   3.283   6.298   4.587
   90SAPC  H16X 8648   3.182   6.342   4.601
   90SAPC  H16Y 8649   3.268   6.191   4.613
   90SAPC  C317 8650   3.316   6.305   4.439
   90SAPC  H17X 8651   3.344   6.407   4.403
   90SAPC  H17Y 8652   3.225   6.279   4.382
   90SAPC  C318 8653   3.413   6.196   4.381
   90SAPC  H18X 8654   3.501   6.180   4.446
   90SAPC  H18Y 8655   3.460   6.236   4.288
   90SAPC  H18Z 8656   3.351   6.105   4.364
   91SAPC     N 8657   6.629   6.356   6.263
   91SAPC   C12 8658   6.589   6.211   6.250
   91SAPC  H12A 8659   6.515   6.196   6.173
   91SAPC  H12B 8660   6.550   6.179   6.346
   91SAPC   C13 8661   6.509   6.448   6.240
   91SAPC  H13A 8662   6.480   6.431   6.137
   91SAPC  H13B 8663   6.428   6.435   6.309
   91SAPC  H13C 8664   6.533   6.553   6.247
   91SAPC   C14 8665   6.685   6.378   6.406
   91SAPC  H14A 8666   6.614   6.360   6.486
   91SAPC  H14B 8667   6.769   6.313   6.427
   91SAPC  H14C 8668   6.712   6.482   6.413
   91SAPC   C15 8669   6.742   6.392   6.173
   91SAPC  H15A 8670   6.716   6.366   6.071
   91SAPC  H15B 8671   6.753   6.499   6.182
   91SAPC  H15C 8672   6.827   6.335   6.206
   91SAPC   C11 8673   6.696   6.104   6.232
   91SAPC  H11A 8674   6.759   6.126   6.144
   91SAPC  H11B 8675   6.648   6.010   6.197
   91SAPC     P 8676   0.022   6.115   6.374
   91SAPC   O13 8677   0.027   6.213   6.489
   91SAPC   O14 8678   0.092   5.989   6.390
   91SAPC   O12 8679   6.774   6.072   6.352
   91SAPC   O11 8680   0.066   6.182   6.240
   91SAPC    C1 8681   0.182   6.151   6.170
   91SAPC    HA 8682   0.261   6.227   6.188
   91SAPC    HB 8683   0.231   6.059   6.208
   91SAPC    C2 8684   0.165   6.149   6.017
   91SAPC    HS 8685   0.265   6.135   5.970
   91SAPC   O21 8686   0.097   6.264   5.969
   91SAPC   C21 8687   0.167   6.377   5.963
   91SAPC   O22 8688   0.281   6.399   6.000
   91SAPC   C22 8689   0.080   6.482   5.898
   91SAPC   H2R 8690   6.896   6.507   5.966
   91SAPC   H2S 8691   0.140   6.575   5.885
   91SAPC    C3 8692   0.079   6.032   5.973
   91SAPC    HX 8693   6.877   6.069   5.995
   91SAPC    HY 8694   0.099   5.947   6.042
   91SAPC   O31 8695   0.109   5.993   5.840
   91SAPC   C31 8696   0.015   6.021   5.747
   91SAPC   O32 8697   6.832   6.112   5.761
   91SAPC   C32 8698   0.063   5.948   5.617
   91SAPC   H2X 8699   0.048   5.841   5.645
   91SAPC   H2Y 8700   0.171   5.968   5.600
   91SAPC   C23 8701   0.034   6.439   5.761
   91SAPC   H3R 8702   6.870   6.349   5.759
   91SAPC   H3S 8703   0.125   6.399   5.712
   91SAPC   C24 8704   6.872   6.565   5.684
   91SAPC   H4R 8705   0.044   6.650   5.684
   91SAPC   H4S 8706   6.792   6.604   5.751
   91SAPC   C25 8707   6.828   6.553   5.540
   91SAPC   H5R 8708   0.000   6.599   5.471
   91SAPC   C26 8709   6.725   6.489   5.485
   91SAPC   H6R 8710   6.722   6.497   5.376
   91SAPC   C27 8711   6.621   6.403   5.554
   91SAPC   H7R 8712   6.527   6.449   5.518
   91SAPC   H7S 8713   6.624   6.427   5.662
   91SAPC   C28 8714   6.623   6.261   5.513
   91SAPC   H8R 8715   6.649   6.202   5.602
   91SAPC   C29 8716   6.577   6.219   5.397
   91SAPC   H9R 8717   6.563   6.110   5.394
   91SAPC  C210 8718   6.533   6.305   5.280
   91SAPC  H10R 8719   6.610   6.294   5.201
   91SAPC  H10S 8720   6.551   6.410   5.310
   91SAPC  C211 8721   6.388   6.277   5.249
   91SAPC  H11R 8722   6.313   6.333   5.307
   91SAPC  C212 8723   6.342   6.184   5.166
   91SAPC  H12R 8724   6.233   6.181   5.150
   91SAPC  C213 8725   6.429   6.097   5.079
   91SAPC  H13R 8726   6.363   6.012   5.049
   91SAPC  H13S 8727   6.515   6.056   5.136
   91SAPC  C214 8728   6.490   6.148   4.950
   91SAPC  H14R 8729   6.597   6.175   4.957
   91SAPC  C215 8730   6.431   6.135   4.824
   91SAPC  H15R 8731   6.470   6.189   4.736
   91SAPC  C216 8732   6.294   6.076   4.799
   91SAPC  H16R 8733   6.206   6.139   4.824
   91SAPC  H16S 8734   6.286   5.976   4.846
   91SAPC  C217 8735   6.278   6.048   4.648
   91SAPC  H17R 8736   6.364   5.993   4.605
   91SAPC  H17S 8737   6.281   6.144   4.592
   91SAPC  C218 8738   6.155   5.958   4.624
   91SAPC  H18R 8739   6.057   6.002   4.652
   91SAPC  H18S 8740   6.153   5.868   4.690
   91SAPC  C219 8741   6.137   5.915   4.477
   91SAPC  H19R 8742   6.050   5.846   4.473
   91SAPC  H19S 8743   6.222   5.853   4.441
   91SAPC  C220 8744   6.123   6.036   4.383
   91SAPC  H20R 8745   6.201   6.109   4.412
   91SAPC  H20S 8746   6.015   6.057   4.397
   91SAPC  H20T 8747   6.126   6.005   4.276
   91SAPC   C33 8748   6.881   5.970   5.493
   91SAPC   H3X 8749   6.880   6.078   5.468
   91SAPC   H3Y 8750   6.772   5.950   5.507
   91SAPC   C34 8751   0.016   5.883   5.375
   91SAPC   H4X 8752   6.877   5.781   5.396
   91SAPC   H4Y 8753   0.126   5.867   5.369
   91SAPC   C35 8754   6.842   5.943   5.253
   91SAPC   H5X 8755   6.885   6.045   5.242
   91SAPC   H5Y 8756   6.732   5.958   5.258
   91SAPC   C36 8757   6.862   5.870   5.114
   91SAPC   H6X 8758   6.847   5.763   5.142
   91SAPC   H6Y 8759   0.064   5.873   5.072
   91SAPC   C37 8760   6.769   5.907   4.996
   91SAPC   H7X 8761   6.796   6.005   4.952
   91SAPC   H7Y 8762   6.666   5.916   5.036
   91SAPC   C38 8763   6.776   5.802   4.884
   91SAPC   H8X 8764   6.762   5.699   4.923
   91SAPC   H8Y 8765   6.874   5.804   4.833
   91SAPC   C39 8766   6.672   5.831   4.780
   91SAPC   H9X 8767   6.704   5.922   4.725
   91SAPC   H9Y 8768   6.571   5.861   4.817
   91SAPC  C310 8769   6.657   5.727   4.673
   91SAPC  H10X 8770   6.637   5.629   4.721
   91SAPC  H10Y 8771   6.755   5.707   4.625
   91SAPC  C311 8772   6.564   5.786   4.554
   91SAPC  H11X 8773   6.595   5.889   4.527
   91SAPC  H11Y 8774   6.462   5.792   4.597
   91SAPC  C312 8775   6.547   5.682   4.433
   91SAPC  H12X 8776   6.442   5.676   4.398
   91SAPC  H12Y 8777   6.567   5.579   4.471
   91SAPC  C313 8778   6.641   5.716   4.317
   91SAPC  H13X 8779   6.750   5.718   4.341
   91SAPC  H13Y 8780   6.604   5.819   4.296
   91SAPC  C314 8781   6.625   5.636   4.188
   91SAPC  H14X 8782   6.520   5.639   4.152
   91SAPC  H14Y 8783   6.659   5.531   4.206
   91SAPC  C315 8784   6.719   5.699   4.084
   91SAPC  H15X 8785   6.712   5.810   4.083
   91SAPC  H15Y 8786   6.699   5.670   3.978
   91SAPC  C316 8787   6.873   5.657   4.092
   91SAPC  H16X 8788   6.885   5.548   4.079
   91SAPC  H16Y 8789   0.001   5.675   4.198
   91SAPC  C317 8790   0.065   5.733   4.001
   91SAPC  H17X 8791   0.045   5.837   4.034
   91SAPC  H17Y 8792   0.037   5.725   3.894
   91SAPC  C318 8793   0.205   5.691   4.006
   91SAPC  H18X 8794   0.231   5.586   3.980
   91SAPC  H18Y 8795   0.249   5.704   4.107
   91SAPC  H18Z 8796   0.275   5.745   3.938
   92SAPC     N 8797   5.989   5.753   6.475
   92SAPC   C12 8798   5.979   5.742   6.623
   92SAPC  H12A 8799   5.945   5.643   6.648
   92SAPC  H12B 8800   5.909   5.811   6.669
   92SAPC   C13 8801   6.070   5.646   6.407
   92SAPC  H13A 8802   6.074   5.660   6.300
   92SAPC  H13B 8803   6.173   5.654   6.438
   92SAPC  H13C 8804   6.048   5.542   6.425
   92SAPC   C14 8805   5.850   5.730   6.416
   92SAPC  H14A 8806   5.804   5.648   6.470
   92SAPC  H14B 8807   5.791   5.819   6.429
   92SAPC  H14C 8808   5.854   5.711   6.309
   92SAPC   C15 8809   6.031   5.891   6.418
   92SAPC  H15A 8810   5.992   5.899   6.318
   92SAPC  H15B 8811   5.981   5.964   6.481
   92SAPC  H15C 8812   6.138   5.907   6.423
   92SAPC   C11 8813   6.111   5.749   6.704
   92SAPC  H11A 8814   6.081   5.750   6.811
   92SAPC  H11B 8815   6.165   5.845   6.692
   92SAPC     P 8816   6.179   5.501   6.739
   92SAPC   O13 8817   6.237   5.474   6.872
   92SAPC   O14 8818   6.038   5.460   6.717
   92SAPC   O12 8819   6.207   5.648   6.682
   92SAPC   O11 8820   6.262   5.420   6.634
   92SAPC    C1 8821   6.402   5.442   6.625
   92SAPC    HA 8822   6.445   5.479   6.721
   92SAPC    HB 8823   6.457   5.347   6.609
   92SAPC    C2 8824   6.440   5.531   6.509
   92SAPC    HS 8825   6.369   5.617   6.508
   92SAPC   O21 8826   6.423   5.460   6.389
   92SAPC   C21 8827   6.412   5.531   6.282
   92SAPC   O22 8828   6.392   5.654   6.280
   92SAPC   C22 8829   6.444   5.436   6.165
   92SAPC   H2R 8830   6.554   5.423   6.163
   92SAPC   H2S 8831   6.407   5.332   6.178
   92SAPC    C3 8832   6.585   5.584   6.533
   92SAPC    HX 8833   6.650   5.494   6.542
   92SAPC    HY 8834   6.581   5.630   6.634
   92SAPC   O31 8835   6.632   5.678   6.429
   92SAPC   C31 8836   6.724   5.629   6.349
   92SAPC   O32 8837   6.780   5.520   6.359
   92SAPC   C32 8838   6.748   5.729   6.235
   92SAPC   H2X 8839   6.807   5.808   6.286
   92SAPC   H2Y 8840   6.646   5.759   6.202
   92SAPC   C23 8841   6.392   5.482   6.024
   92SAPC   H3R 8842   6.483   5.522   5.976
   92SAPC   H3S 8843   6.326   5.569   6.046
   92SAPC   C24 8844   6.328   5.375   5.941
   92SAPC   H4R 8845   6.265   5.318   6.012
   92SAPC   H4S 8846   6.410   5.305   5.915
   92SAPC   C25 8847   6.250   5.422   5.823
   92SAPC   H5R 8848   6.149   5.379   5.814
   92SAPC   C26 8849   6.298   5.498   5.720
   92SAPC   H6R 8850   6.232   5.524   5.636
   92SAPC   C27 8851   6.442   5.544   5.707
   92SAPC   H7R 8852   6.472   5.544   5.600
   92SAPC   H7S 8853   6.513   5.482   5.764
   92SAPC   C28 8854   6.454   5.694   5.744
   92SAPC   H8R 8855   6.463   5.725   5.849
   92SAPC   C29 8856   6.459   5.798   5.656
   92SAPC   H9R 8857   6.450   5.899   5.698
   92SAPC  C210 8858   6.451   5.802   5.507
   92SAPC  H10R 8859   6.418   5.906   5.487
   92SAPC  H10S 8860   6.369   5.735   5.473
   92SAPC  C211 8861   6.576   5.744   5.432
   92SAPC  H11R 8862   6.666   5.713   5.488
   92SAPC  C212 8863   6.574   5.701   5.305
   92SAPC  H12R 8864   6.668   5.672   5.255
   92SAPC  C213 8865   6.455   5.712   5.219
   92SAPC  H13R 8866   6.432   5.821   5.215
   92SAPC  H13S 8867   6.375   5.648   5.262
   92SAPC  C214 8868   6.472   5.659   5.074
   92SAPC  H14R 8869   6.574   5.628   5.045
   92SAPC  C215 8870   6.372   5.649   4.985
   92SAPC  H15R 8871   6.397   5.612   4.884
   92SAPC  C216 8872   6.228   5.666   5.021
   92SAPC  H16R 8873   6.188   5.768   5.000
   92SAPC  H16S 8874   6.207   5.645   5.128
   92SAPC  C217 8875   6.144   5.573   4.947
   92SAPC  H17R 8876   6.037   5.574   4.978
   92SAPC  H17S 8877   6.177   5.469   4.969
   92SAPC  C218 8878   6.126   5.600   4.802
   92SAPC  H18R 8879   6.181   5.694   4.778
   92SAPC  H18S 8880   6.023   5.620   4.767
   92SAPC  C219 8881   6.187   5.494   4.706
   92SAPC  H19R 8882   6.137   5.397   4.725
   92SAPC  H19S 8883   6.294   5.481   4.732
   92SAPC  C220 8884   6.180   5.534   4.559
   92SAPC  H20R 8885   6.182   5.443   4.496
   92SAPC  H20S 8886   6.268   5.598   4.541
   92SAPC  H20T 8887   6.091   5.599   4.543
   92SAPC   C33 8888   6.833   5.693   6.118
   92SAPC   H3X 8889   0.024   5.647   6.162
   92SAPC   H3Y 8890   6.861   5.786   6.065
   92SAPC   C34 8891   6.765   5.602   6.014
   92SAPC   H4X 8892   6.666   5.647   5.990
   92SAPC   H4Y 8893   6.757   5.497   6.050
   92SAPC   C35 8894   6.826   5.602   5.872
   92SAPC   H5X 8895   6.883   5.696   5.854
   92SAPC   H5Y 8896   6.745   5.576   5.801
   92SAPC   C36 8897   0.031   5.487   5.855
   92SAPC   H6X 8898   6.869   5.396   5.866
   92SAPC   H6Y 8899   0.106   5.488   5.938
   92SAPC   C37 8900   0.109   5.485   5.719
   92SAPC   H7X 8901   0.172   5.394   5.724
   92SAPC   H7Y 8902   0.173   5.575   5.713
   92SAPC   C38 8903   0.025   5.484   5.590
   92SAPC   H8X 8904   6.836   5.549   5.600
   92SAPC   H8Y 8905   6.889   5.380   5.574
   92SAPC   C39 8906   0.108   5.508   5.465
   92SAPC   H9X 8907   0.199   5.445   5.454
   92SAPC   H9Y 8908   0.146   5.613   5.464
   92SAPC  C310 8909   0.018   5.482   5.342
   92SAPC  H10X 8910   6.831   5.550   5.331
   92SAPC  H10Y 8911   6.874   5.380   5.349
   92SAPC  C311 8912   0.102   5.502   5.221
   92SAPC  H11X 8913   0.199   5.448   5.215
   92SAPC  H11Y 8914   0.132   5.609   5.224
   92SAPC  C312 8915   0.032   5.480   5.083
   92SAPC  H12X 8916   6.831   5.523   5.097
   92SAPC  H12Y 8917   0.029   5.370   5.071
   92SAPC  C313 8918   0.114   5.535   4.967
   92SAPC  H13X 8919   0.218   5.497   4.975
   92SAPC  H13Y 8920   0.112   5.646   4.956
   92SAPC  C314 8921   0.069   5.480   4.827
   92SAPC  H14X 8922   6.882   5.538   4.789
   92SAPC  H14Y 8923   0.036   5.373   4.829
   92SAPC  C315 8924   0.186   5.471   4.721
   92SAPC  H15X 8925   0.269   5.424   4.780
   92SAPC  H15Y 8926   0.216   5.574   4.691
   92SAPC  C316 8927   0.161   5.384   4.601
   92SAPC  H16X 8928   0.144   5.280   4.637
   92SAPC  H16Y 8929   0.255   5.378   4.542
   92SAPC  C317 8930   0.050   5.432   4.508
   92SAPC  H17X 8931   0.065   5.542   4.503
   92SAPC  H17Y 8932   6.850   5.407   4.550
   92SAPC  C318 8933   0.066   5.389   4.359
   92SAPC  H18X 8934   6.889   5.431   4.292
   92SAPC  H18Y 8935   0.062   5.278   4.365
   92SAPC  H18Z 8936   0.160   5.419   4.307
   93SAPC     N 8937   0.899   6.794   6.456
   93SAPC   C12 8938   0.948   0.007   6.368
   93SAPC  H12A 8939   0.995   0.082   6.429
   93SAPC  H12B 8940   0.869   0.058   6.315
   93SAPC   C13 8941   1.018   6.706   6.505
   93SAPC  H13A 8942   1.072   6.657   6.425
   93SAPC  H13B 8943   1.089   6.763   6.563
   93SAPC  H13C 8944   0.993   6.628   6.576
   93SAPC   C14 8945   0.823   6.844   6.573
   93SAPC  H14A 8946   0.737   0.004   6.548
   93SAPC  H14B 8947   0.799   6.759   6.636
   93SAPC  H14C 8948   0.885   6.900   6.641
   93SAPC   C15 8949   0.808   6.707   6.373
   93SAPC  H15A 8950   0.798   6.613   6.425
   93SAPC  H15B 8951   0.708   6.747   6.370
   93SAPC  H15C 8952   0.858   6.682   6.281
   93SAPC   C11 8953   1.053   6.874   6.251
   93SAPC  H11A 8954   1.141   6.823   6.297
   93SAPC  H11B 8955   1.090   0.068   6.206
   93SAPC     P 8956   0.914   6.825   6.031
   93SAPC   O13 8957   0.861   6.711   5.957
   93SAPC   O14 8958   0.821   0.029   6.084
   93SAPC   O12 8959   0.998   6.782   6.156
   93SAPC   O11 8960   1.034   6.879   5.945
   93SAPC    C1 8961   1.156   6.822   5.886
   93SAPC    HA 8962   1.240   6.893   5.897
   93SAPC    HB 8963   1.176   6.726   5.939
   93SAPC    C2 8964   1.129   6.785   5.739
   93SAPC    HS 8965   1.232   6.776   5.699
   93SAPC   O21 8966   1.054   6.894   5.681
   93SAPC   C21 8967   1.120   0.106   5.653
   93SAPC   O22 8968   1.235   0.124   5.684
   93SAPC   C22 8969   1.026   0.194   5.564
   93SAPC   H2R 8970   0.958   0.129   5.505
   93SAPC   H2S 8971   0.972   0.255   5.640
   93SAPC    C3 8972   1.044   6.651   5.724
   93SAPC    HX 8973   0.939   6.689   5.718
   93SAPC    HY 8974   1.055   6.583   5.810
   93SAPC   O31 8975   1.099   6.598   5.603
   93SAPC   C31 8976   1.027   6.495   5.554
   93SAPC   O32 8977   0.936   6.435   5.604
   93SAPC   C32 8978   1.102   6.446   5.431
   93SAPC   H2X 8979   1.030   6.396   5.363
   93SAPC   H2Y 8980   1.184   6.384   5.474
   93SAPC   C23 8981   1.081   0.290   5.452
   93SAPC   H3R 8982   1.189   0.309   5.471
   93SAPC   H3S 8983   1.033   0.389   5.461
   93SAPC   C24 8984   1.080   0.240   5.307
   93SAPC   H4R 8985   1.099   0.321   5.234
   93SAPC   H4S 8986   0.974   0.223   5.280
   93SAPC   C25 8987   1.154   0.105   5.291
   93SAPC   H5R 8988   1.096   0.012   5.298
   93SAPC   C26 8989   1.261   0.098   5.212
   93SAPC   H6R 8990   1.300   6.896   5.199
   93SAPC   C27 8991   1.353   0.209   5.164
   93SAPC   H7R 8992   1.462   0.188   5.171
   93SAPC   H7S 8993   1.329   0.292   5.234
   93SAPC   C28 8994   1.330   0.253   5.021
   93SAPC   H8R 8995   1.281   0.352   5.020
   93SAPC   C29 8996   1.357   0.182   4.910
   93SAPC   H9R 8997   1.337   0.220   4.808
   93SAPC  C210 8998   1.431   0.050   4.891
   93SAPC  H10R 8999   1.353   6.872   4.877
   93SAPC  H10S 9000   1.477   0.013   4.984
   93SAPC  C211 9001   1.540   0.052   4.788
   93SAPC  H11R 9002   1.630   0.114   4.802
   93SAPC  C212 9003   1.550   6.866   4.692
   93SAPC  H12R 9004   1.637   6.871   4.626
   93SAPC  C213 9005   1.459   6.755   4.658
   93SAPC  H13R 9006   1.439   6.697   4.750
   93SAPC  H13S 9007   1.521   6.679   4.607
   93SAPC  C214 9008   1.326   6.757   4.586
   93SAPC  H14R 9009   1.247   6.803   4.647
   93SAPC  C215 9010   1.295   6.719   4.460
   93SAPC  H15R 9011   1.195   6.740   4.421
   93SAPC  C216 9012   1.390   6.671   4.352
   93SAPC  H16R 9013   1.329   6.590   4.307
   93SAPC  H16S 9014   1.480   6.629   4.402
   93SAPC  C217 9015   1.417   6.773   4.243
   93SAPC  H17R 9016   1.476   6.860   4.281
   93SAPC  H17S 9017   1.327   6.815   4.192
   93SAPC  C218 9018   1.511   6.719   4.129
   93SAPC  H18R 9019   1.588   6.659   4.182
   93SAPC  H18S 9020   1.553   6.803   4.070
   93SAPC  C219 9021   1.428   6.642   4.025
   93SAPC  H19R 9022   1.362   6.717   3.977
   93SAPC  H19S 9023   1.367   6.572   4.085
   93SAPC  C220 9024   1.521   6.570   3.932
   93SAPC  H20R 9025   1.587   6.646   3.886
   93SAPC  H20S 9026   1.459   6.528   3.849
   93SAPC  H20T 9027   1.589   6.493   3.975
   93SAPC   C33 9028   1.164   6.564   5.355
   93SAPC   H3X 9029   1.266   6.573   5.399
   93SAPC   H3Y 9030   1.108   6.660   5.358
   93SAPC   C34 9031   1.173   6.509   5.210
   93SAPC   H4X 9032   1.068   6.497   5.175
   93SAPC   H4Y 9033   1.218   6.408   5.220
   93SAPC   C35 9034   1.265   6.586   5.117
   93SAPC   H5X 9035   1.372   6.574   5.145
   93SAPC   H5Y 9036   1.234   6.692   5.129
   93SAPC   C36 9037   1.251   6.561   4.967
   93SAPC   H6X 9038   1.284   6.648   4.907
   93SAPC   H6Y 9039   1.143   6.554   4.946
   93SAPC   C37 9040   1.310   6.425   4.920
   93SAPC   H7X 9041   1.243   6.342   4.948
   93SAPC   H7Y 9042   1.405   6.406   4.975
   93SAPC   C38 9043   1.353   6.383   4.771
   93SAPC   H8X 9044   1.380   6.275   4.777
   93SAPC   H8Y 9045   1.446   6.432   4.734
   93SAPC   C39 9046   1.260   6.388   4.651
   93SAPC   H9X 9047   1.240   6.494   4.623
   93SAPC   H9Y 9048   1.168   6.331   4.677
   93SAPC  C310 9049   1.316   6.324   4.524
   93SAPC  H10X 9050   1.336   6.217   4.543
   93SAPC  H10Y 9051   1.400   6.386   4.487
   93SAPC  C311 9052   1.211   6.328   4.415
   93SAPC  H11X 9053   1.188   6.426   4.368
   93SAPC  H11Y 9054   1.111   6.309   4.459
   93SAPC  C312 9055   1.239   6.221   4.312
   93SAPC  H12X 9056   1.251   6.117   4.348
   93SAPC  H12Y 9057   1.333   6.237   4.256
   93SAPC  C313 9058   1.131   6.204   4.201
   93SAPC  H13X 9059   1.163   6.118   4.138
   93SAPC  H13Y 9060   1.138   6.295   4.139
   93SAPC  C314 9061   0.989   6.195   4.252
   93SAPC  H14X 9062   0.957   6.291   4.297
   93SAPC  H14Y 9063   0.977   6.115   4.329
   93SAPC  C315 9064   0.894   6.145   4.146
   93SAPC  H15X 9065   0.911   6.035   4.147
   93SAPC  H15Y 9066   0.939   6.173   4.049
   93SAPC  C316 9067   0.750   6.189   4.159
   93SAPC  H16X 9068   0.748   6.289   4.207
   93SAPC  H16Y 9069   0.695   6.118   4.225
   93SAPC  C317 9070   0.679   6.190   4.020
   93SAPC  H17X 9071   0.704   6.096   3.966
   93SAPC  H17Y 9072   0.717   6.280   3.967
   93SAPC  C318 9073   0.526   6.213   4.050
   93SAPC  H18X 9074   0.501   6.314   4.090
   93SAPC  H18Y 9075   0.485   6.144   4.127
   93SAPC  H18Z 9076   0.461   6.219   3.961
   94SAPC     N 9077   0.638   5.340   6.683
   94SAPC   C12 9078   0.489   5.294   6.689
   94SAPC  H12A 9079   0.453   5.306   6.791
   94SAPC  H12B 9080   0.496   5.188   6.670
   94SAPC   C13 9081   0.725   5.244   6.764
   94SAPC  H13A 9082   0.733   5.150   6.710
   94SAPC  H13B 9083   0.822   5.289   6.769
   94SAPC  H13C 9084   0.684   5.219   6.861
   94SAPC   C14 9085   0.684   5.339   6.539
   94SAPC  H14A 9086   0.684   5.235   6.509
   94SAPC  H14B 9087   0.621   5.401   6.478
   94SAPC  H14C 9088   0.788   5.366   6.529
   94SAPC   C15 9089   0.643   5.480   6.735
   94SAPC  H15A 9090   0.568   5.536   6.681
   94SAPC  H15B 9091   0.623   5.475   6.841
   94SAPC  H15C 9092   0.734   5.532   6.707
   94SAPC   C11 9093   0.392   5.358   6.585
   94SAPC  H11A 9094   0.293   5.310   6.601
   94SAPC  H11B 9095   0.436   5.351   6.483
   94SAPC     P 9096   0.391   5.614   6.521
   94SAPC   O13 9097   0.382   5.731   6.614
   94SAPC   O14 9098   0.518   5.597   6.445
   94SAPC   O12 9099   0.371   5.494   6.614
   94SAPC   O11 9100   0.267   5.600   6.433
   94SAPC    C1 9101   0.223   5.491   6.352
   94SAPC    HA 9102   0.212   5.400   6.415
   94SAPC    HB 9103   0.123   5.519   6.313
   94SAPC    C2 9104   0.316   5.457   6.228
   94SAPC    HS 9105   0.422   5.463   6.260
   94SAPC   O21 9106   0.278   5.551   6.132
   94SAPC   C21 9107   0.383   5.583   6.051
   94SAPC   O22 9108   0.496   5.536   6.054
   94SAPC   C22 9109   0.337   5.697   5.963
   94SAPC   H2R 9110   0.256   5.657   5.899
   94SAPC   H2S 9111   0.294   5.778   6.027
   94SAPC    C3 9112   0.288   5.313   6.167
   94SAPC    HX 9113   0.321   5.238   6.243
   94SAPC    HY 9114   0.348   5.301   6.075
   94SAPC   O31 9115   0.143   5.306   6.128
   94SAPC   C31 9116   0.109   5.198   6.065
   94SAPC   O32 9117   0.190   5.120   6.012
   94SAPC   C32 9118   6.853   5.189   6.061
   94SAPC   H2X 9119   6.816   5.291   6.036
   94SAPC   H2Y 9120   6.807   5.160   6.157
   94SAPC   C23 9121   0.440   5.749   5.868
   94SAPC   H3R 9122   0.529   5.775   5.930
   94SAPC   H3S 9123   0.413   5.848   5.825
   94SAPC   C24 9124   0.481   5.657   5.750
   94SAPC   H4R 9125   0.395   5.628   5.687
   94SAPC   H4S 9126   0.515   5.559   5.791
   94SAPC   C25 9127   0.589   5.710   5.675
   94SAPC   H5R 9128   0.684   5.697   5.728
   94SAPC   C26 9129   0.580   5.758   5.548
   94SAPC   H6R 9130   0.672   5.789   5.497
   94SAPC   C27 9131   0.460   5.777   5.458
   94SAPC   H7R 9132   0.490   5.867   5.400
   94SAPC   H7S 9133   0.368   5.795   5.517
   94SAPC   C28 9134   0.423   5.653   5.363
   94SAPC   H8R 9135   0.386   5.564   5.416
   94SAPC   C29 9136   0.421   5.662   5.230
   94SAPC   H9R 9137   0.400   5.566   5.180
   94SAPC  C210 9138   0.470   5.775   5.148
   94SAPC  H10R 9139   0.499   5.740   5.047
   94SAPC  H10S 9140   0.556   5.825   5.198
   94SAPC  C211 9141   0.365   5.889   5.142
   94SAPC  H11R 9142   0.333   5.926   5.241
   94SAPC  C212 9143   0.331   5.955   5.028
   94SAPC  H12R 9144   0.246   6.024   5.039
   94SAPC  C213 9145   0.380   5.936   4.883
   94SAPC  H13R 9146   0.300   5.884   4.826
   94SAPC  H13S 9147   0.473   5.875   4.881
   94SAPC  C214 9148   0.402   6.066   4.814
   94SAPC  H14R 9149   0.382   6.156   4.874
   94SAPC  C215 9150   0.434   6.070   4.679
   94SAPC  H15R 9151   0.445   6.166   4.627
   94SAPC  C216 9152   0.461   5.950   4.599
   94SAPC  H16R 9153   0.391   5.941   4.513
   94SAPC  H16S 9154   0.477   5.852   4.650
   94SAPC  C217 9155   0.595   5.979   4.529
   94SAPC  H17R 9156   0.676   5.974   4.605
   94SAPC  H17S 9157   0.587   6.079   4.482
   94SAPC  C218 9158   0.628   5.882   4.413
   94SAPC  H18R 9159   0.635   5.780   4.456
   94SAPC  H18S 9160   0.726   5.912   4.371
   94SAPC  C219 9161   0.523   5.871   4.301
   94SAPC  H19R 9162   0.502   5.975   4.267
   94SAPC  H19S 9163   0.432   5.819   4.338
   94SAPC  C220 9164   0.570   5.774   4.188
   94SAPC  H20R 9165   0.660   5.824   4.147
   94SAPC  H20S 9166   0.496   5.776   4.104
   94SAPC  H20T 9167   0.596   5.675   4.231
   94SAPC   C33 9168   6.808   5.109   5.938
   94SAPC   H3X 9169   6.794   4.999   5.952
   94SAPC   H3Y 9170   6.873   5.131   5.851
   94SAPC   C34 9171   6.669   5.167   5.898
   94SAPC   H4X 9172   6.677   5.278   5.895
   94SAPC   H4Y 9173   6.605   5.144   5.986
   94SAPC   C35 9174   6.604   5.113   5.769
   94SAPC   H5X 9175   6.495   5.129   5.780
   94SAPC   H5Y 9176   6.627   5.006   5.748
   94SAPC   C36 9177   6.640   5.187   5.645
   94SAPC   H6X 9178   6.751   5.188   5.639
   94SAPC   H6Y 9179   6.604   5.292   5.638
   94SAPC   C37 9180   6.582   5.119   5.518
   94SAPC   H7X 9181   6.472   5.120   5.538
   94SAPC   H7Y 9182   6.629   5.018   5.518
   94SAPC   C38 9183   6.612   5.188   5.387
   94SAPC   H8X 9184   6.720   5.181   5.365
   94SAPC   H8Y 9185   6.597   5.295   5.414
   94SAPC   C39 9186   6.522   5.145   5.270
   94SAPC   H9X 9187   6.414   5.161   5.286
   94SAPC   H9Y 9188   6.544   5.042   5.234
   94SAPC  C310 9189   6.549   5.241   5.154
   94SAPC  H10X 9190   6.658   5.257   5.139
   94SAPC  H10Y 9191   6.504   5.339   5.182
   94SAPC  C311 9192   6.482   5.190   5.025
   94SAPC  H11X 9193   6.373   5.209   5.037
   94SAPC  H11Y 9194   6.495   5.079   5.027
   94SAPC  C312 9195   6.529   5.240   4.893
   94SAPC  H12X 9196   6.638   5.220   4.890
   94SAPC  H12Y 9197   6.520   5.351   4.899
   94SAPC  C313 9198   6.454   5.178   4.785
   94SAPC  H13X 9199   6.357   5.233   4.780
   94SAPC  H13Y 9200   6.427   5.071   4.796
   94SAPC  C314 9201   6.522   5.196   4.642
   94SAPC  H14X 9202   6.623   5.150   4.639
   94SAPC  H14Y 9203   6.550   5.303   4.630
   94SAPC  C315 9204   6.431   5.155   4.517
   94SAPC  H15X 9205   6.348   5.228   4.513
   94SAPC  H15Y 9206   6.383   5.056   4.529
   94SAPC  C316 9207   6.516   5.134   4.387
   94SAPC  H16X 9208   6.452   5.112   4.299
   94SAPC  H16Y 9209   6.580   5.044   4.400
   94SAPC  C317 9210   6.604   5.257   4.348
   94SAPC  H17X 9211   6.676   5.290   4.426
   94SAPC  H17Y 9212   6.527   5.336   4.337
   94SAPC  C318 9213   6.694   5.220   4.229
   94SAPC  H18X 9214   6.632   5.186   4.143
   94SAPC  H18Y 9215   6.774   5.150   4.262
   94SAPC  H18Z 9216   6.740   5.316   4.195
   95SAPC     N 9217   3.240   6.055   1.889
   95SAPC   C12 9218   3.184   6.027   2.022
   95SAPC  H12A 9219   3.078   6.006   2.017
   95SAPC  H12B 9220   3.204   6.117   2.079
   95SAPC   C13 9221   3.367   6.125   1.893
   95SAPC  H13A 9222   3.448   6.061   1.925
   95SAPC  H13B 9223   3.389   6.170   1.797
   95SAPC  H13C 9224   3.368   6.207   1.963
   95SAPC   C14 9225   3.268   5.933   1.807
   95SAPC  H14A 9226   3.177   5.877   1.790
   95SAPC  H14B 9227   3.319   5.943   1.712
   95SAPC  H14C 9228   3.339   5.873   1.861
   95SAPC   C15 9229   3.143   6.138   1.820
   95SAPC  H15A 9230   3.171   6.149   1.716
   95SAPC  H15B 9231   3.043   6.097   1.815
   95SAPC  H15C 9232   3.131   6.238   1.858
   95SAPC   C11 9233   3.249   5.911   2.093
   95SAPC  H11A 9234   3.233   5.818   2.035
   95SAPC  H11B 9235   3.198   5.887   2.189
   95SAPC     P 9236   3.457   6.022   2.220
   95SAPC   O13 9237   3.605   6.013   2.205
   95SAPC   O14 9238   3.399   6.158   2.207
   95SAPC   O12 9239   3.396   5.920   2.108
   95SAPC   O11 9240   3.424   5.959   2.358
   95SAPC    C1 9241   3.422   5.819   2.392
   95SAPC    HA 9242   3.321   5.785   2.424
   95SAPC    HB 9243   3.447   5.750   2.308
   95SAPC    C2 9244   3.532   5.790   2.502
   95SAPC    HS 9245   3.497   5.689   2.531
   95SAPC   O21 9246   3.523   5.879   2.612
   95SAPC   C21 9247   3.421   5.869   2.689
   95SAPC   O22 9248   3.323   5.804   2.675
   95SAPC   C22 9249   3.440   5.964   2.808
   95SAPC   H2R 9250   3.532   5.954   2.869
   95SAPC   H2S 9251   3.439   6.068   2.769
   95SAPC    C3 9252   3.669   5.782   2.448
   95SAPC    HX 9253   3.710   5.884   2.431
   95SAPC    HY 9254   3.680   5.735   2.348
   95SAPC   O31 9255   3.766   5.724   2.537
   95SAPC   C31 9256   3.761   5.589   2.546
   95SAPC   O32 9257   3.691   5.519   2.471
   95SAPC   C32 9258   3.851   5.547   2.655
   95SAPC   H2X 9259   3.944   5.608   2.645
   95SAPC   H2Y 9260   3.887   5.445   2.629
   95SAPC   C23 9261   3.322   5.955   2.907
   95SAPC   H3R 9262   3.317   5.851   2.946
   95SAPC   H3S 9263   3.219   5.973   2.868
   95SAPC   C24 9264   3.337   6.040   3.042
   95SAPC   H4R 9265   3.333   6.143   3.003
   95SAPC   H4S 9266   3.431   6.011   3.095
   95SAPC   C25 9267   3.221   6.015   3.136
   95SAPC   H5R 9268   3.124   5.997   3.087
   95SAPC   C26 9269   3.233   6.008   3.271
   95SAPC   H6R 9270   3.138   5.997   3.326
   95SAPC   C27 9271   3.368   6.015   3.350
   95SAPC   H7R 9272   3.459   6.050   3.298
   95SAPC   H7S 9273   3.389   5.908   3.368
   95SAPC   C28 9274   3.355   6.098   3.473
   95SAPC   H8R 9275   3.382   6.204   3.462
   95SAPC   C29 9276   3.292   6.068   3.592
   95SAPC   H9R 9277   3.305   6.139   3.675
   95SAPC  C210 9278   3.227   5.937   3.622
   95SAPC  H10R 9279   3.299   5.854   3.640
   95SAPC  H10S 9280   3.171   5.909   3.530
   95SAPC  C211 9281   3.128   5.956   3.735
   95SAPC  H11R 9282   3.177   5.947   3.833
   95SAPC  C212 9283   2.991   5.957   3.716
   95SAPC  H12R 9284   2.931   5.979   3.805
   95SAPC  C213 9285   2.922   5.942   3.586
   95SAPC  H13R 9286   2.936   6.019   3.507
   95SAPC  H13S 9287   2.814   5.953   3.611
   95SAPC  C214 9288   2.940   5.801   3.527
   95SAPC  H14R 9289   2.971   5.725   3.600
   95SAPC  C215 9290   2.906   5.770   3.401
   95SAPC  H15R 9291   2.919   5.666   3.369
   95SAPC  C216 9292   2.852   5.863   3.293
   95SAPC  H16R 9293   2.910   5.857   3.198
   95SAPC  H16S 9294   2.854   5.974   3.307
   95SAPC  C217 9295   2.712   5.818   3.253
   95SAPC  H17R 9296   2.644   5.805   3.340
   95SAPC  H17S 9297   2.719   5.719   3.203
   95SAPC  C218 9298   2.652   5.929   3.161
   95SAPC  H18R 9299   2.716   5.912   3.072
   95SAPC  H18S 9300   2.662   6.030   3.205
   95SAPC  C219 9301   2.503   5.907   3.133
   95SAPC  H19R 9302   2.494   5.799   3.110
   95SAPC  H19S 9303   2.465   5.958   3.042
   95SAPC  C220 9304   2.419   5.945   3.257
   95SAPC  H20R 9305   2.459   6.035   3.307
   95SAPC  H20S 9306   2.423   5.871   3.340
   95SAPC  H20T 9307   2.312   5.952   3.227
   95SAPC   C33 9308   3.782   5.546   2.788
   95SAPC   H3X 9309   3.838   5.481   2.859
   95SAPC   H3Y 9310   3.688   5.488   2.778
   95SAPC   C34 9311   3.753   5.674   2.855
   95SAPC   H4X 9312   3.678   5.736   2.803
   95SAPC   H4Y 9313   3.852   5.724   2.845
   95SAPC   C35 9314   3.708   5.647   3.000
   95SAPC   H5X 9315   3.797   5.594   3.039
   95SAPC   H5Y 9316   3.623   5.576   3.001
   95SAPC   C36 9317   3.678   5.770   3.082
   95SAPC   H6X 9318   3.596   5.831   3.039
   95SAPC   H6Y 9319   3.771   5.830   3.092
   95SAPC   C37 9320   3.632   5.742   3.224
   95SAPC   H7X 9321   3.553   5.664   3.232
   95SAPC   H7Y 9322   3.573   5.831   3.255
   95SAPC   C38 9323   3.750   5.706   3.330
   95SAPC   H8X 9324   3.833   5.778   3.314
   95SAPC   H8Y 9325   3.793   5.608   3.300
   95SAPC   C39 9326   3.698   5.704   3.477
   95SAPC   H9X 9327   3.643   5.609   3.490
   95SAPC   H9Y 9328   3.630   5.792   3.488
   95SAPC  C310 9329   3.817   5.721   3.569
   95SAPC  H10X 9330   3.843   5.828   3.581
   95SAPC  H10Y 9331   3.913   5.680   3.532
   95SAPC  C311 9332   3.781   5.647   3.698
   95SAPC  H11X 9333   3.853   5.665   3.780
   95SAPC  H11Y 9334   3.792   5.538   3.677
   95SAPC  C312 9335   3.642   5.677   3.757
   95SAPC  H12X 9336   3.629   5.596   3.832
   95SAPC  H12Y 9337   3.557   5.656   3.688
   95SAPC  C313 9338   3.623   5.817   3.818
   95SAPC  H13X 9339   3.514   5.835   3.826
   95SAPC  H13Y 9340   3.657   5.899   3.751
   95SAPC  C314 9341   3.688   5.823   3.957
   95SAPC  H14X 9342   3.693   5.932   3.976
   95SAPC  H14Y 9343   3.781   5.762   3.962
   95SAPC  C315 9344   3.600   5.766   4.071
   95SAPC  H15X 9345   3.663   5.769   4.162
   95SAPC  H15Y 9346   3.575   5.659   4.054
   95SAPC  C316 9347   3.483   5.848   4.123
   95SAPC  H16X 9348   3.401   5.805   4.062
   95SAPC  H16Y 9349   3.497   5.955   4.097
   95SAPC  C317 9350   3.447   5.838   4.271
   95SAPC  H17X 9351   3.369   5.912   4.299
   95SAPC  H17Y 9352   3.539   5.865   4.326
   95SAPC  C318 9353   3.400   5.702   4.304
   95SAPC  H18X 9354   3.346   5.676   4.398
   95SAPC  H18Y 9355   3.484   5.630   4.293
   95SAPC  H18Z 9356   3.331   5.670   4.224
   96SAPC     N 9357   3.555   1.413   2.352
   96SAPC   C12 9358   3.450   1.511   2.380
   96SAPC  H12A 9359   3.432   1.519   2.486
   96SAPC  H12B 9360   3.357   1.482   2.335
   96SAPC   C13 9361   3.558   1.380   2.208
   96SAPC  H13A 9362   3.635   1.309   2.184
   96SAPC  H13B 9363   3.468   1.337   2.167
   96SAPC  H13C 9364   3.578   1.469   2.151
   96SAPC   C14 9365   3.685   1.464   2.391
   96SAPC  H14A 9366   3.710   1.557   2.341
   96SAPC  H14B 9367   3.688   1.491   2.495
   96SAPC  H14C 9368   3.759   1.386   2.378
   96SAPC   C15 9369   3.524   1.290   2.428
   96SAPC  H15A 9370   3.596   1.209   2.428
   96SAPC  H15B 9371   3.506   1.320   2.530
   96SAPC  H15C 9372   3.441   1.228   2.397
   96SAPC   C11 9373   3.485   1.660   2.329
   96SAPC  H11A 9374   3.391   1.716   2.311
   96SAPC  H11B 9375   3.533   1.646   2.230
   96SAPC     P 9376   3.488   1.783   2.549
   96SAPC   O13 9377   3.389   1.883   2.507
   96SAPC   O14 9378   3.442   1.677   2.641
   96SAPC   O12 9379   3.564   1.722   2.421
   96SAPC   O11 9380   3.601   1.869   2.622
   96SAPC    C1 9381   3.691   1.812   2.710
   96SAPC    HA 9382   3.717   1.707   2.686
   96SAPC    HB 9383   3.781   1.878   2.713
   96SAPC    C2 9384   3.642   1.804   2.852
   96SAPC    HS 9385   3.562   1.729   2.867
   96SAPC   O21 9386   3.593   1.935   2.893
   96SAPC   C21 9387   3.468   1.945   2.925
   96SAPC   O22 9388   3.391   1.851   2.941
   96SAPC   C22 9389   3.438   2.089   2.969
   96SAPC   H2R 9390   3.511   2.123   3.045
   96SAPC   H2S 9391   3.462   2.150   2.879
   96SAPC    C3 9392   3.763   1.772   2.948
   96SAPC    HX 9393   3.821   1.857   2.988
   96SAPC    HY 9394   3.833   1.710   2.888
   96SAPC   O31 9395   3.721   1.703   3.067
   96SAPC   C31 9396   3.678   1.580   3.053
   96SAPC   O32 9397   3.664   1.523   2.949
   96SAPC   C32 9398   3.661   1.506   3.183
   96SAPC   H2X 9399   3.722   1.555   3.261
   96SAPC   H2Y 9400   3.696   1.402   3.165
   96SAPC   C23 9401   3.294   2.124   3.018
   96SAPC   H3R 9402   3.206   2.072   2.973
   96SAPC   H3S 9403   3.285   2.232   2.993
   96SAPC   C24 9404   3.288   2.127   3.177
   96SAPC   H4R 9405   3.203   2.189   3.213
   96SAPC   H4S 9406   3.382   2.155   3.229
   96SAPC   C25 9407   3.256   1.988   3.226
   96SAPC   H5R 9408   3.230   1.914   3.148
   96SAPC   C26 9409   3.291   1.946   3.346
   96SAPC   H6R 9410   3.268   1.843   3.379
   96SAPC   C27 9411   3.357   2.023   3.458
   96SAPC   H7R 9412   3.278   2.075   3.515
   96SAPC   H7S 9413   3.426   2.101   3.421
   96SAPC   C28 9414   3.434   1.923   3.544
   96SAPC   H8R 9415   3.526   1.875   3.508
   96SAPC   C29 9416   3.402   1.899   3.678
   96SAPC   H9R 9417   3.463   1.821   3.725
   96SAPC  C210 9418   3.291   1.958   3.766
   96SAPC  H10R 9419   3.192   1.920   3.734
   96SAPC  H10S 9420   3.271   2.065   3.741
   96SAPC  C211 9421   3.294   1.931   3.912
   96SAPC  H11R 9422   3.292   1.823   3.936
   96SAPC  C212 9423   3.308   2.013   4.013
   96SAPC  H12R 9424   3.318   1.964   4.112
   96SAPC  C213 9425   3.311   2.167   4.002
   96SAPC  H13R 9426   3.328   2.199   3.897
   96SAPC  H13S 9427   3.400   2.203   4.058
   96SAPC  C214 9428   3.184   2.228   4.054
   96SAPC  H14R 9429   3.093   2.204   3.996
   96SAPC  C215 9430   3.166   2.302   4.159
   96SAPC  H15R 9431   3.062   2.333   4.177
   96SAPC  C216 9432   3.272   2.341   4.261
   96SAPC  H16R 9433   3.223   2.415   4.328
   96SAPC  H16S 9434   3.355   2.392   4.206
   96SAPC  C217 9435   3.305   2.216   4.351
   96SAPC  H17R 9436   3.358   2.260   4.438
   96SAPC  H17S 9437   3.359   2.148   4.282
   96SAPC  C218 9438   3.186   2.126   4.400
   96SAPC  H18R 9439   3.135   2.088   4.308
   96SAPC  H18S 9440   3.122   2.200   4.452
   96SAPC  C219 9441   3.236   2.000   4.479
   96SAPC  H19R 9442   3.144   1.949   4.515
   96SAPC  H19S 9443   3.297   2.031   4.566
   96SAPC  C220 9444   3.319   1.898   4.396
   96SAPC  H20R 9445   3.418   1.936   4.365
   96SAPC  H20S 9446   3.262   1.867   4.306
   96SAPC  H20T 9447   3.328   1.813   4.468
   96SAPC   C33 9448   3.513   1.495   3.233
   96SAPC   H3X 9449   3.448   1.459   3.150
   96SAPC   H3Y 9450   3.480   1.595   3.268
   96SAPC   C34 9451   3.489   1.400   3.354
   96SAPC   H4X 9452   3.533   1.301   3.329
   96SAPC   H4Y 9453   3.380   1.379   3.354
   96SAPC   C35 9454   3.550   1.457   3.478
   96SAPC   H5X 9455   3.611   1.546   3.451
   96SAPC   H5Y 9456   3.619   1.381   3.520
   96SAPC   C36 9457   3.457   1.500   3.587
   96SAPC   H6X 9458   3.364   1.440   3.577
   96SAPC   H6Y 9459   3.437   1.608   3.575
   96SAPC   C37 9460   3.522   1.466   3.722
   96SAPC   H7X 9461   3.611   1.527   3.748
   96SAPC   H7Y 9462   3.552   1.359   3.728
   96SAPC   C38 9463   3.416   1.493   3.833
   96SAPC   H8X 9464   3.314   1.486   3.789
   96SAPC   H8Y 9465   3.433   1.596   3.871
   96SAPC   C39 9466   3.409   1.385   3.945
   96SAPC   H9X 9467   3.477   1.419   4.026
   96SAPC   H9Y 9468   3.443   1.286   3.907
   96SAPC  C310 9469   3.266   1.370   3.986
   96SAPC  H10X 9470   3.212   1.329   3.898
   96SAPC  H10Y 9471   3.224   1.472   3.996
   96SAPC  C311 9472   3.242   1.261   4.098
   96SAPC  H11X 9473   3.291   1.290   4.193
   96SAPC  H11Y 9474   3.291   1.165   4.068
   96SAPC  C312 9475   3.089   1.230   4.127
   96SAPC  H12X 9476   3.028   1.243   4.035
   96SAPC  H12Y 9477   3.055   1.303   4.204
   96SAPC  C313 9478   3.069   1.091   4.179
   96SAPC  H13X 9479   3.131   1.076   4.270
   96SAPC  H13Y 9480   3.107   1.027   4.096
   96SAPC  C314 9481   2.925   1.050   4.210
   96SAPC  H14X 9482   2.874   1.039   4.112
   96SAPC  H14Y 9483   2.858   1.123   4.260
   96SAPC  C315 9484   2.926   0.907   4.277
   96SAPC  H15X 9485   2.996   0.907   4.363
   96SAPC  H15Y 9486   2.956   0.839   4.194
   96SAPC  C316 9487   2.782   0.869   4.318
   96SAPC  H16X 9488   2.703   0.906   4.250
   96SAPC  H16Y 9489   2.766   0.921   4.415
   96SAPC  C317 9490   2.759   0.721   4.339
   96SAPC  H17X 9491   2.836   0.675   4.405
   96SAPC  H17Y 9492   2.775   0.674   4.240
   96SAPC  C318 9493   2.625   0.687   4.397
   96SAPC  H18X 9494   2.610   0.721   4.502
   96SAPC  H18Y 9495   2.608   0.577   4.403
   96SAPC  H18Z 9496   2.544   0.742   4.344
   97SAPC     N 9497   2.412   0.688   2.096
   97SAPC   C12 9498   2.489   0.808   2.036
   97SAPC  H12A 9499   2.585   0.813   2.085
   97SAPC  H12B 9500   2.437   0.902   2.050
   97SAPC   C13 9501   2.366   0.714   2.235
   97SAPC  H13A 9502   2.314   0.808   2.239
   97SAPC  H13B 9503   2.305   0.631   2.269
   97SAPC  H13C 9504   2.447   0.721   2.307
   97SAPC   C14 9505   2.290   0.665   2.012
   97SAPC  H14A 9506   2.306   0.681   1.907
   97SAPC  H14B 9507   2.251   0.566   2.030
   97SAPC  H14C 9508   2.213   0.737   2.036
   97SAPC   C15 9509   2.497   0.567   2.088
   97SAPC  H15A 9510   2.589   0.578   2.144
   97SAPC  H15B 9511   2.445   0.474   2.106
   97SAPC  H15C 9512   2.531   0.551   1.987
   97SAPC   C11 9513   2.538   0.815   1.886
   97SAPC  H11A 9514   2.582   0.917   1.876
   97SAPC  H11B 9515   2.453   0.802   1.816
   97SAPC     P 9516   2.780   0.726   1.906
   97SAPC   O13 9517   2.847   0.595   1.889
   97SAPC   O14 9518   2.832   0.840   1.828
   97SAPC   O12 9519   2.634   0.709   1.864
   97SAPC   O11 9520   2.771   0.757   2.054
   97SAPC    C1 9521   2.879   0.734   2.144
   97SAPC    HA 9522   2.979   0.730   2.094
   97SAPC    HB 9523   2.876   0.811   2.224
   97SAPC    C2 9524   2.873   0.599   2.219
   97SAPC    HS 9525   2.883   0.528   2.134
   97SAPC   O21 9526   2.742   0.595   2.283
   97SAPC   C21 9527   2.714   0.490   2.356
   97SAPC   O22 9528   2.757   0.375   2.349
   97SAPC   C22 9529   2.601   0.525   2.451
   97SAPC   H2R 9530   2.604   0.636   2.457
   97SAPC   H2S 9531   2.502   0.490   2.414
   97SAPC    C3 9532   2.999   0.559   2.313
   97SAPC    HX 9533   3.091   0.572   2.253
   97SAPC    HY 9534   3.005   0.451   2.339
   97SAPC   O31 9535   3.006   0.647   2.427
   97SAPC   C31 9536   3.077   0.604   2.524
   97SAPC   O32 9537   3.147   0.505   2.530
   97SAPC   C32 9538   3.027   0.688   2.643
   97SAPC   H2X 9539   2.916   0.692   2.644
   97SAPC   H2Y 9540   3.064   0.791   2.624
   97SAPC   C23 9541   2.640   0.469   2.586
   97SAPC   H3R 9542   2.740   0.511   2.608
   97SAPC   H3S 9543   2.654   0.359   2.583
   97SAPC   C24 9544   2.534   0.495   2.695
   97SAPC   H4R 9545   2.453   0.423   2.670
   97SAPC   H4S 9546   2.502   0.601   2.691
   97SAPC   C25 9547   2.582   0.449   2.834
   97SAPC   H5R 9548   2.691   0.455   2.849
   97SAPC   C26 9549   2.497   0.397   2.923
   97SAPC   H6R 9550   2.544   0.374   3.020
   97SAPC   C27 9551   2.346   0.374   2.912
   97SAPC   H7R 9552   2.310   0.406   2.813
   97SAPC   H7S 9553   2.282   0.430   2.983
   97SAPC   C28 9554   2.320   0.227   2.933
   97SAPC   H8R 9555   2.313   0.173   2.838
   97SAPC   C29 9556   2.295   0.162   3.051
   97SAPC   H9R 9557   2.277   0.053   3.053
   97SAPC  C210 9558   2.297   0.232   3.192
   97SAPC  H10R 9559   2.192   0.259   3.217
   97SAPC  H10S 9560   2.356   0.326   3.186
   97SAPC  C211 9561   2.353   0.131   3.290
   97SAPC  H11R 9562   2.444   0.079   3.258
   97SAPC  C212 9563   2.298   0.103   3.403
   97SAPC  H12R 9564   2.350   0.025   3.460
   97SAPC  C213 9565   2.169   0.155   3.467
   97SAPC  H13R 9566   2.090   0.099   3.413
   97SAPC  H13S 9567   2.154   0.263   3.444
   97SAPC  C214 9568   2.140   0.143   3.616
   97SAPC  H14R 9569   2.069   0.060   3.631
   97SAPC  C215 9570   2.181   0.207   3.726
   97SAPC  H15R 9571   2.167   0.158   3.824
   97SAPC  C216 9572   2.281   0.319   3.731
   97SAPC  H16R 9573   2.224   0.413   3.714
   97SAPC  H16S 9574   2.348   0.317   3.642
   97SAPC  C217 9575   2.375   0.327   3.850
   97SAPC  H17R 9576   2.317   0.307   3.942
   97SAPC  H17S 9577   2.409   0.432   3.864
   97SAPC  C218 9578   2.492   0.225   3.849
   97SAPC  H18R 9579   2.550   0.283   3.775
   97SAPC  H18S 9580   2.468   0.125   3.805
   97SAPC  C219 9581   2.578   0.215   3.978
   97SAPC  H19R 9582   2.679   0.189   3.940
   97SAPC  H19S 9583   2.545   0.122   4.029
   97SAPC  C220 9584   2.583   0.338   4.067
   97SAPC  H20R 9585   2.665   0.334   4.142
   97SAPC  H20S 9586   2.490   0.341   4.126
   97SAPC  H20T 9587   2.594   0.438   4.019
   97SAPC   C33 9588   3.090   0.643   2.784
   97SAPC   H3X 9589   3.086   0.532   2.786
   97SAPC   H3Y 9590   3.026   0.677   2.869
   97SAPC   C34 9591   3.237   0.700   2.793
   97SAPC   H4X 9592   3.237   0.802   2.750
   97SAPC   H4Y 9593   3.301   0.638   2.727
   97SAPC   C35 9594   3.275   0.704   2.944
   97SAPC   H5X 9595   3.197   0.773   2.981
   97SAPC   H5Y 9596   3.372   0.757   2.953
   97SAPC   C36 9597   3.269   0.578   3.031
   97SAPC   H6X 9598   3.349   0.508   2.998
   97SAPC   H6Y 9599   3.163   0.543   3.026
   97SAPC   C37 9600   3.281   0.619   3.179
   97SAPC   H7X 9601   3.201   0.694   3.190
   97SAPC   H7Y 9602   3.383   0.659   3.197
   97SAPC   C38 9603   3.268   0.503   3.282
   97SAPC   H8X 9604   3.350   0.429   3.269
   97SAPC   H8Y 9605   3.176   0.446   3.255
   97SAPC   C39 9606   3.256   0.559   3.428
   97SAPC   H9X 9607   3.176   0.635   3.442
   97SAPC   H9Y 9608   3.352   0.614   3.439
   97SAPC  C310 9609   3.222   0.452   3.542
   97SAPC  H10X 9610   3.301   0.374   3.527
   97SAPC  H10Y 9611   3.134   0.387   3.523
   97SAPC  C311 9612   3.235   0.516   3.678
   97SAPC  H11X 9613   3.170   0.606   3.672
   97SAPC  H11Y 9614   3.342   0.541   3.697
   97SAPC  C312 9615   3.178   0.426   3.788
   97SAPC  H12X 9616   3.195   0.319   3.762
   97SAPC  H12Y 9617   3.067   0.434   3.790
   97SAPC  C313 9618   3.222   0.451   3.931
   97SAPC  H13X 9619   3.204   0.555   3.964
   97SAPC  H13Y 9620   3.328   0.426   3.951
   97SAPC  C314 9621   3.129   0.383   4.037
   97SAPC  H14X 9622   3.134   0.272   4.032
   97SAPC  H14Y 9623   3.035   0.421   3.993
   97SAPC  C315 9624   3.134   0.442   4.183
   97SAPC  H15X 9625   3.158   0.550   4.170
   97SAPC  H15Y 9626   3.224   0.401   4.233
   97SAPC  C316 9627   3.011   0.416   4.272
   97SAPC  H16X 9628   2.929   0.472   4.221
   97SAPC  H16Y 9629   3.030   0.448   4.376
   97SAPC  C317 9630   2.976   0.267   4.291
   97SAPC  H17X 9631   2.922   0.232   4.200
   97SAPC  H17Y 9632   2.904   0.272   4.376
   97SAPC  C318 9633   3.087   0.167   4.306
   97SAPC  H18X 9634   3.147   0.202   4.393
   97SAPC  H18Y 9635   3.154   0.174   4.218
   97SAPC  H18Z 9636   3.061   0.061   4.324
   98SAPC     N 9637   5.337   1.847   1.757
   98SAPC   C12 9638   5.299   1.756   1.872
   98SAPC  H12A 9639   5.271   1.657   1.840
   98SAPC  H12B 9640   5.215   1.802   1.923
   98SAPC   C13 9641   5.469   1.812   1.708
   98SAPC  H13A 9642   5.538   1.836   1.787
   98SAPC  H13B 9643   5.483   1.705   1.698
   98SAPC  H13C 9644   5.492   1.860   1.614
   98SAPC   C14 9645   5.228   1.838   1.653
   98SAPC  H14A 9646   5.144   1.901   1.677
   98SAPC  H14B 9647   5.256   1.872   1.554
   98SAPC  H14C 9648   5.184   1.739   1.645
   98SAPC   C15 9649   5.351   1.990   1.792
   98SAPC  H15A 9650   5.413   2.037   1.717
   98SAPC  H15B 9651   5.258   2.044   1.795
   98SAPC  H15C 9652   5.408   1.994   1.884
   98SAPC   C11 9653   5.414   1.735   1.980
   98SAPC  H11A 9654   5.489   1.668   1.931
   98SAPC  H11B 9655   5.357   1.681   2.058
   98SAPC     P 9656   5.585   1.856   2.136
   98SAPC   O13 9657   5.723   1.872   2.079
   98SAPC   O14 9658   5.548   1.958   2.237
   98SAPC   O12 9659   5.473   1.861   2.026
   98SAPC   O11 9660   5.588   1.710   2.200
   98SAPC    C1 9661   5.535   1.680   2.330
   98SAPC    HA 9662   5.496   1.769   2.382
   98SAPC    HB 9663   5.445   1.618   2.310
   98SAPC    C2 9664   5.630   1.605   2.428
   98SAPC    HS 9665   5.564   1.586   2.515
   98SAPC   O21 9666   5.750   1.678   2.451
   98SAPC   C21 9667   5.749   1.773   2.537
   98SAPC   O22 9668   5.659   1.811   2.610
   98SAPC   C22 9669   5.894   1.834   2.545
   98SAPC   H2R 9670   5.921   1.852   2.439
   98SAPC   H2S 9671   5.885   1.930   2.602
   98SAPC    C3 9672   5.667   1.468   2.374
   98SAPC    HX 9673   5.721   1.476   2.277
   98SAPC    HY 9674   5.581   1.399   2.360
   98SAPC   O31 9675   5.750   1.391   2.461
   98SAPC   C31 9676   5.885   1.405   2.462
   98SAPC   O32 9677   5.945   1.487   2.393
   98SAPC   C32 9678   5.940   1.316   2.572
   98SAPC   H2X 9679   6.032   1.370   2.603
   98SAPC   H2Y 9680   5.977   1.220   2.530
   98SAPC   C23 9681   5.988   1.746   2.626
   98SAPC   H3R 9682   6.090   1.758   2.583
   98SAPC   H3S 9683   5.968   1.641   2.597
   98SAPC   C24 9684   5.972   1.764   2.778
   98SAPC   H4R 9685   5.864   1.758   2.801
   98SAPC   H4S 9686   6.002   1.867   2.806
   98SAPC   C25 9687   6.053   1.655   2.847
   98SAPC   H5R 9688   6.128   1.608   2.781
   98SAPC   C26 9689   6.026   1.597   2.966
   98SAPC   H6R 9690   6.099   1.526   3.007
   98SAPC   C27 9691   5.919   1.636   3.066
   98SAPC   H7R 9692   5.868   1.550   3.114
   98SAPC   H7S 9693   5.841   1.696   3.015
   98SAPC   C28 9694   5.987   1.722   3.173
   98SAPC   H8R 9695   6.012   1.823   3.138
   98SAPC   C29 9696   6.025   1.668   3.294
   98SAPC   H9R 9697   6.078   1.736   3.363
   98SAPC  C210 9698   6.001   1.530   3.352
   98SAPC  H10R 9699   6.006   1.454   3.271
   98SAPC  H10S 9700   5.894   1.520   3.381
   98SAPC  C211 9701   6.096   1.485   3.464
   98SAPC  H11R 9702   6.097   1.544   3.557
   98SAPC  C212 9703   6.181   1.382   3.458
   98SAPC  H12R 9704   6.241   1.382   3.550
   98SAPC  C213 9705   6.212   1.294   3.341
   98SAPC  H13R 9706   6.176   1.340   3.247
   98SAPC  H13S 9707   6.152   1.201   3.352
   98SAPC  C214 9708   6.364   1.292   3.321
   98SAPC  H14R 9709   6.413   1.214   3.381
   98SAPC  C215 9710   6.446   1.365   3.247
   98SAPC  H15R 9711   6.553   1.339   3.236
   98SAPC  C216 9712   6.399   1.473   3.153
   98SAPC  H16R 9713   6.474   1.554   3.143
   98SAPC  H16S 9714   6.302   1.519   3.184
   98SAPC  C217 9715   6.386   1.415   3.009
   98SAPC  H17R 9716   6.284   1.374   2.993
   98SAPC  H17S 9717   6.454   1.331   2.985
   98SAPC  C218 9718   6.412   1.530   2.905
   98SAPC  H18R 9719   6.513   1.568   2.931
   98SAPC  H18S 9720   6.333   1.609   2.907
   98SAPC  C219 9721   6.424   1.463   2.767
   98SAPC  H19R 9722   6.330   1.413   2.736
   98SAPC  H19S 9723   6.507   1.389   2.777
   98SAPC  C220 9724   6.472   1.568   2.665
   98SAPC  H20R 9725   6.499   1.525   2.566
   98SAPC  H20S 9726   6.564   1.616   2.704
   98SAPC  H20T 9727   6.393   1.646   2.654
   98SAPC   C33 9728   5.844   1.316   2.690
   98SAPC   H3X 9729   5.748   1.266   2.666
   98SAPC   H3Y 9730   5.820   1.415   2.733
   98SAPC   C34 9731   5.901   1.240   2.807
   98SAPC   H4X 9732   5.989   1.304   2.831
   98SAPC   H4Y 9733   5.937   1.136   2.789
   98SAPC   C35 9734   5.809   1.255   2.930
   98SAPC   H5X 9735   5.715   1.199   2.909
   98SAPC   H5Y 9736   5.761   1.355   2.934
   98SAPC   C36 9737   5.872   1.216   3.065
   98SAPC   H6X 9738   5.952   1.294   3.071
   98SAPC   H6Y 9739   5.915   1.115   3.052
   98SAPC   C37 9740   5.781   1.221   3.190
   98SAPC   H7X 9741   5.687   1.162   3.181
   98SAPC   H7Y 9742   5.757   1.328   3.206
   98SAPC   C38 9743   5.838   1.165   3.319
   98SAPC   H8X 9744   5.915   1.228   3.369
   98SAPC   H8Y 9745   5.869   1.062   3.290
   98SAPC   C39 9746   5.732   1.145   3.427
   98SAPC   H9X 9747   5.764   1.062   3.494
   98SAPC   H9Y 9748   5.632   1.108   3.398
   98SAPC  C310 9749   5.721   1.264   3.522
   98SAPC  H10X 9750   5.718   1.347   3.447
   98SAPC  H10Y 9751   5.819   1.284   3.570
   98SAPC  C311 9752   5.606   1.286   3.614
   98SAPC  H11X 9753   5.515   1.278   3.552
   98SAPC  H11Y 9754   5.614   1.387   3.660
   98SAPC  C312 9755   5.627   1.183   3.727
   98SAPC  H12X 9756   5.730   1.180   3.768
   98SAPC  H12Y 9757   5.613   1.086   3.675
   98SAPC  C313 9758   5.530   1.178   3.839
   98SAPC  H13X 9759   5.429   1.145   3.808
   98SAPC  H13Y 9760   5.511   1.276   3.887
   98SAPC  C314 9761   5.567   1.094   3.965
   98SAPC  H14X 9762   5.669   1.129   3.993
   98SAPC  H14Y 9763   5.571   0.988   3.931
   98SAPC  C315 9764   5.474   1.124   4.076
   98SAPC  H15X 9765   5.369   1.117   4.039
   98SAPC  H15Y 9766   5.491   1.230   4.106
   98SAPC  C316 9767   5.498   1.036   4.201
   98SAPC  H16X 9768   5.533   0.940   4.158
   98SAPC  H16Y 9769   5.405   1.020   4.261
   98SAPC  C317 9770   5.602   1.082   4.300
   98SAPC  H17X 9771   5.585   1.188   4.327
   98SAPC  H17Y 9772   5.699   1.079   4.246
   98SAPC  C318 9773   5.589   1.000   4.429
   98SAPC  H18X 9774   5.593   0.892   4.403
   98SAPC  H18Y 9775   5.490   1.010   4.479
   98SAPC  H18Z 9776   5.667   1.021   4.505
   99SAPC     N 9777   2.911   5.632   2.293
   99SAPC   C12 9778   3.041   5.584   2.374
   99SAPC  H12A 9779   3.006   5.492   2.420
   99SAPC  H12B 9780   3.059   5.658   2.451
   99SAPC   C13 9781   2.835   5.739   2.360
   99SAPC  H13A 9782   2.737   5.748   2.316
   99SAPC  H13B 9783   2.817   5.705   2.461
   99SAPC  H13C 9784   2.891   5.831   2.370
   99SAPC   C14 9785   2.935   5.687   2.160
   99SAPC  H14A 9786   2.994   5.617   2.101
   99SAPC  H14B 9787   2.841   5.713   2.115
   99SAPC  H14C 9788   2.995   5.777   2.161
   99SAPC   C15 9789   2.831   5.509   2.264
   99SAPC  H15A 9790   2.789   5.464   2.353
   99SAPC  H15B 9791   2.747   5.528   2.199
   99SAPC  H15C 9792   2.896   5.443   2.210
   99SAPC   C11 9793   3.172   5.560   2.296
   99SAPC  H11A 9794   3.254   5.550   2.371
   99SAPC  H11B 9795   3.188   5.652   2.235
   99SAPC     P 9796   3.188   5.297   2.279
   99SAPC   O13 9797   3.061   5.225   2.273
   99SAPC   O14 9798   3.301   5.241   2.208
   99SAPC   O12 9799   3.162   5.438   2.223
   99SAPC   O11 9800   3.220   5.318   2.438
   99SAPC    C1 9801   3.351   5.284   2.486
   99SAPC    HA 9802   3.359   5.174   2.500
   99SAPC    HB 9803   3.439   5.323   2.431
   99SAPC    C2 9804   3.363   5.328   2.636
   99SAPC    HS 9805   3.454   5.279   2.678
   99SAPC   O21 9806   3.255   5.284   2.720
   99SAPC   C21 9807   3.247   5.159   2.739
   99SAPC   O22 9808   3.322   5.073   2.694
   99SAPC   C22 9809   3.111   5.136   2.816
   99SAPC   H2R 9810   3.037   5.173   2.742
   99SAPC   H2S 9811   3.101   5.026   2.822
   99SAPC    C3 9812   3.390   5.476   2.652
   99SAPC    HX 9813   3.303   5.527   2.606
   99SAPC    HY 9814   3.488   5.501   2.604
   99SAPC   O31 9815   3.402   5.519   2.792
   99SAPC   C31 9816   3.283   5.543   2.850
   99SAPC   O32 9817   3.171   5.549   2.794
   99SAPC   C32 9818   3.309   5.567   2.992
   99SAPC   H2X 9819   3.392   5.641   3.000
   99SAPC   H2Y 9820   3.346   5.475   3.043
   99SAPC   C23 9821   3.101   5.207   2.951
   99SAPC   H3R 9822   3.007   5.174   3.000
   99SAPC   H3S 9823   3.084   5.309   2.911
   99SAPC   C24 9824   3.213   5.196   3.051
   99SAPC   H4R 9825   3.173   5.247   3.141
   99SAPC   H4S 9826   3.300   5.256   3.015
   99SAPC   C25 9827   3.254   5.059   3.077
   99SAPC   H5R 9828   3.269   4.998   2.988
   99SAPC   C26 9829   3.284   5.017   3.203
   99SAPC   H6R 9830   3.318   4.914   3.223
   99SAPC   C27 9831   3.293   5.100   3.326
   99SAPC   H7R 9832   3.326   5.203   3.301
   99SAPC   H7S 9833   3.379   5.059   3.382
   99SAPC   C28 9834   3.157   5.096   3.396
   99SAPC   H8R 9835   3.075   5.133   3.334
   99SAPC   C29 9836   3.124   5.025   3.505
   99SAPC   H9R 9837   3.015   5.029   3.522
   99SAPC  C210 9838   3.209   4.952   3.606
   99SAPC  H10R 9839   3.158   4.974   3.702
   99SAPC  H10S 9840   3.308   5.003   3.607
   99SAPC  C211 9841   3.211   4.811   3.585
   99SAPC  H11R 9842   3.223   4.774   3.482
   99SAPC  C212 9843   3.253   4.718   3.686
   99SAPC  H12R 9844   3.245   4.610   3.668
   99SAPC  C213 9845   3.278   4.740   3.828
   99SAPC  H13R 9846   3.302   4.847   3.844
   99SAPC  H13S 9847   3.370   4.690   3.867
   99SAPC  C214 9848   3.147   4.690   3.894
   99SAPC  H14R 9849   3.111   4.589   3.872
   99SAPC  C215 9850   3.071   4.769   3.970
   99SAPC  H15R 9851   2.974   4.731   4.006
   99SAPC  C216 9852   3.114   4.907   4.008
   99SAPC  H16R 9853   3.083   4.985   3.934
   99SAPC  H16S 9854   3.224   4.915   4.017
   99SAPC  C217 9855   3.051   4.944   4.140
   99SAPC  H17R 9856   2.952   4.897   4.159
   99SAPC  H17S 9857   3.032   5.052   4.154
   99SAPC  C218 9858   3.137   4.901   4.264
   99SAPC  H18R 9859   3.238   4.947   4.268
   99SAPC  H18S 9860   3.158   4.795   4.238
   99SAPC  C219 9861   3.064   4.910   4.401
   99SAPC  H19R 9862   2.958   4.884   4.378
   99SAPC  H19S 9863   3.064   5.018   4.426
   99SAPC  C220 9864   3.131   4.835   4.519
   99SAPC  H20R 9865   3.220   4.899   4.537
   99SAPC  H20S 9866   3.180   4.738   4.494
   99SAPC  H20T 9867   3.067   4.835   4.610
   99SAPC   C33 9868   3.189   5.610   3.072
   99SAPC   H3X 9869   3.111   5.531   3.069
   99SAPC   H3Y 9870   3.146   5.703   3.028
   99SAPC   C34 9871   3.219   5.638   3.220
   99SAPC   H4X 9872   3.128   5.684   3.263
   99SAPC   H4Y 9873   3.299   5.715   3.217
   99SAPC   C35 9874   3.259   5.519   3.312
   99SAPC   H5X 9875   3.354   5.481   3.269
   99SAPC   H5Y 9876   3.184   5.440   3.292
   99SAPC   C36 9877   3.266   5.560   3.462
   99SAPC   H6X 9878   3.169   5.606   3.490
   99SAPC   H6Y 9879   3.343   5.640   3.469
   99SAPC   C37 9880   3.298   5.446   3.557
   99SAPC   H7X 9881   3.383   5.477   3.621
   99SAPC   H7Y 9882   3.337   5.355   3.507
   99SAPC   C38 9883   3.181   5.403   3.644
   99SAPC   H8X 9884   3.107   5.360   3.574
   99SAPC   H8Y 9885   3.124   5.493   3.675
   99SAPC   C39 9886   3.209   5.309   3.759
   99SAPC   H9X 9887   3.270   5.227   3.716
   99SAPC   H9Y 9888   3.116   5.263   3.799
   99SAPC  C310 9889   3.279   5.371   3.877
   99SAPC  H10X 9890   3.226   5.466   3.904
   99SAPC  H10Y 9891   3.380   5.400   3.840
   99SAPC  C311 9892   3.281   5.264   3.987
   99SAPC  H11X 9893   3.346   5.176   3.973
   99SAPC  H11Y 9894   3.181   5.215   3.993
   99SAPC  C312 9895   3.318   5.330   4.121
   99SAPC  H12X 9896   3.240   5.404   4.148
   99SAPC  H12Y 9897   3.414   5.386   4.118
   99SAPC  C313 9898   3.336   5.228   4.232
   99SAPC  H13X 9899   3.418   5.154   4.215
   99SAPC  H13Y 9900   3.242   5.173   4.252
   99SAPC  C314 9901   3.370   5.291   4.368
   99SAPC  H14X 9902   3.321   5.389   4.385
   99SAPC  H14Y 9903   3.477   5.320   4.370
   99SAPC  C315 9904   3.332   5.198   4.481
   99SAPC  H15X 9905   3.400   5.111   4.491
   99SAPC  H15Y 9906   3.233   5.154   4.455
   99SAPC  C316 9907   3.331   5.268   4.621
   99SAPC  H16X 9908   3.282   5.368   4.613
   99SAPC  H16Y 9909   3.439   5.280   4.643
   99SAPC  C317 9910   3.239   5.183   4.712
   99SAPC  H17X 9911   3.264   5.075   4.709
   99SAPC  H17Y 9912   3.136   5.197   4.674
   99SAPC  C318 9913   3.248   5.228   4.863
   99SAPC  H18X 9914   3.156   5.206   4.922
   99SAPC  H18Y 9915   3.247   5.339   4.864
   99SAPC  H18Z 9916   3.340   5.182   4.905
  100SAPC     N 9917   1.626   4.143   1.297
  100SAPC   C12 9918   1.618   4.021   1.383
  100SAPC  H12A 9919   1.709   3.965   1.401
  100SAPC  H12B 9920   1.556   3.946   1.336
  100SAPC   C13 9921   1.488   4.172   1.246
  100SAPC  H13A 9922   1.431   4.196   1.334
  100SAPC  H13B 9923   1.498   4.258   1.181
  100SAPC  H13C 9924   1.451   4.087   1.190
  100SAPC   C14 9925   1.698   4.243   1.383
  100SAPC  H14A 9926   1.689   4.338   1.331
  100SAPC  H14B 9927   1.639   4.254   1.472
  100SAPC  H14C 9928   1.800   4.221   1.410
  100SAPC   C15 9929   1.714   4.106   1.180
  100SAPC  H15A 9930   1.674   4.028   1.116
  100SAPC  H15B 9931   1.722   4.190   1.114
  100SAPC  H15C 9932   1.815   4.086   1.212
  100SAPC   C11 9933   1.554   4.033   1.526
  100SAPC  H11A 9934   1.628   4.084   1.592
  100SAPC  H11B 9935   1.548   3.936   1.579
  100SAPC     P 9936   1.357   4.199   1.625
  100SAPC   O13 9937   1.398   4.331   1.591
  100SAPC   O14 9938   1.214   4.161   1.632
  100SAPC   O12 9939   1.432   4.096   1.526
  100SAPC   O11 9940   1.424   4.148   1.763
  100SAPC    C1 9941   1.463   4.250   1.861
  100SAPC    HA 9942   1.541   4.320   1.824
  100SAPC    HB 9943   1.375   4.298   1.910
  100SAPC    C2 9944   1.534   4.181   1.980
  100SAPC    HS 9945   1.456   4.117   2.025
  100SAPC   O21 9946   1.588   4.286   2.070
  100SAPC   C21 9947   1.491   4.326   2.153
  100SAPC   O22 9948   1.370   4.292   2.150
  100SAPC   C22 9949   1.545   4.412   2.268
  100SAPC   H2R 9950   1.581   4.511   2.234
  100SAPC   H2S 9951   1.462   4.429   2.340
  100SAPC    C3 9952   1.651   4.085   1.942
  100SAPC    HX 9953   1.710   4.144   1.869
  100SAPC    HY 9954   1.618   3.993   1.889
  100SAPC   O31 9955   1.737   4.053   2.059
  100SAPC   C31 9956   1.680   3.994   2.163
  100SAPC   O32 9957   1.566   3.953   2.168
  100SAPC   C32 9958   1.785   3.978   2.274
  100SAPC   H2X 9959   1.845   4.071   2.290
  100SAPC   H2Y 9960   1.847   3.890   2.246
  100SAPC   C23 9961   1.657   4.341   2.344
  100SAPC   H3R 9962   1.738   4.317   2.272
  100SAPC   H3S 9963   1.620   4.243   2.382
  100SAPC   C24 9964   1.714   4.422   2.462
  100SAPC   H4R 9965   1.619   4.455   2.511
  100SAPC   H4S 9966   1.764   4.511   2.419
  100SAPC   C25 9967   1.807   4.343   2.551
  100SAPC   H5R 9968   1.900   4.321   2.496
  100SAPC   C26 9969   1.796   4.313   2.680
  100SAPC   H6R 9970   1.873   4.245   2.718
  100SAPC   C27 9971   1.686   4.350   2.780
  100SAPC   H7R 9972   1.674   4.461   2.789
  100SAPC   H7S 9973   1.724   4.313   2.877
  100SAPC   C28 9974   1.553   4.289   2.742
  100SAPC   H8R 9975   1.556   4.256   2.637
  100SAPC   C29 9976   1.444   4.275   2.815
  100SAPC   H9R 9977   1.350   4.248   2.765
  100SAPC  C210 9978   1.433   4.305   2.962
  100SAPC  H10R 9979   1.328   4.333   2.987
  100SAPC  H10S 9980   1.482   4.404   2.977
  100SAPC  C211 9981   1.481   4.201   3.057
  100SAPC  H11R 9982   1.505   4.111   2.998
  100SAPC  C212 9983   1.520   4.214   3.185
  100SAPC  H12R 9984   1.577   4.138   3.241
  100SAPC  C213 9985   1.512   4.351   3.256
  100SAPC  H13R 9986   1.405   4.382   3.260
  100SAPC  H13S 9987   1.571   4.428   3.203
  100SAPC  C214 9988   1.565   4.314   3.394
  100SAPC  H14R 9989   1.652   4.378   3.419
  100SAPC  C215 9990   1.513   4.238   3.493
  100SAPC  H15R 9991   1.588   4.220   3.572
  100SAPC  C216 9992   1.399   4.137   3.488
  100SAPC  H16R 9993   1.449   4.038   3.480
  100SAPC  H16S 9994   1.333   4.168   3.403
  100SAPC  C217 9995   1.318   4.134   3.620
  100SAPC  H17R 9996   1.383   4.117   3.709
  100SAPC  H17S 9997   1.243   4.052   3.623
  100SAPC  C218 9998   1.239   4.267   3.655
  100SAPC  H18R 9999   1.178   4.296   3.567
  100SAPC  H18S10000   1.314   4.348   3.668
  100SAPC  C21910001   1.166   4.257   3.788
  100SAPC  H19R10002   1.229   4.292   3.873
  100SAPC  H19S10003   1.141   4.151   3.806
  100SAPC  C22010004   1.033   4.335   3.789
  100SAPC  H20R10005   0.996   4.353   3.892
  100SAPC  H20S10006   0.955   4.278   3.736
  100SAPC  H20T10007   1.035   4.429   3.730
  100SAPC   C3310008   1.724   3.960   2.412
  100SAPC   H3X10009   1.670   3.863   2.416
  100SAPC   H3Y10010   1.650   4.041   2.430
  100SAPC   C3410011   1.837   3.970   2.518
  100SAPC   H4X10012   1.887   4.068   2.504
  100SAPC   H4Y10013   1.921   3.902   2.493
  100SAPC   C3510014   1.793   3.936   2.663
  100SAPC   H5X10015   1.707   4.004   2.679
  100SAPC   H5Y10016   1.873   3.976   2.729
  100SAPC   C3610017   1.746   3.786   2.694
  100SAPC   H6X10018   1.825   3.715   2.664
  100SAPC   H6Y10019   1.663   3.752   2.629
  100SAPC   C3710020   1.696   3.769   2.839
  100SAPC   H7X10021   1.756   3.839   2.902
  100SAPC   H7Y10022   1.716   3.665   2.872
  100SAPC   C3810023   1.555   3.810   2.856
  100SAPC   H8X10024   1.487   3.742   2.800
  100SAPC   H8Y10025   1.534   3.911   2.814
  100SAPC   C3910026   1.503   3.813   2.994
  100SAPC   H9X10027   1.417   3.883   3.000
  100SAPC   H9Y10028   1.577   3.854   3.065
  100SAPC  C31010029   1.473   3.679   3.048
  100SAPC  H10X10030   1.570   3.625   3.046
  100SAPC  H10Y10031   1.423   3.613   2.974
  100SAPC  C31110032   1.411   3.666   3.180
  100SAPC  H11X10033   1.434   3.560   3.207
  100SAPC  H11Y10034   1.303   3.692   3.170
  100SAPC  C31210035   1.486   3.751   3.282
  100SAPC  H12X10036   1.470   3.861   3.286
  100SAPC  H12Y10037   1.590   3.737   3.244
  100SAPC  C31310038   1.478   3.693   3.425
  100SAPC  H13X10039   1.553   3.746   3.488
  100SAPC  H13Y10040   1.513   3.588   3.431
  100SAPC  C31410041   1.347   3.723   3.500
  100SAPC  H14X10042   1.270   3.649   3.469
  100SAPC  H14Y10043   1.312   3.822   3.464
  100SAPC  C31510044   1.366   3.731   3.655
  100SAPC  H15X10045   1.429   3.819   3.675
  100SAPC  H15Y10046   1.425   3.643   3.687
  100SAPC  C31610047   1.228   3.748   3.729
  100SAPC  H16X10048   1.174   3.659   3.691
  100SAPC  H16Y10049   1.185   3.840   3.684
  100SAPC  C31710050   1.255   3.737   3.877
  100SAPC  H17X10051   1.294   3.634   3.896
  100SAPC  H17Y10052   1.157   3.747   3.929
  100SAPC  C31810053   1.343   3.840   3.936
  100SAPC  H18X10054   1.322   3.850   4.045
  100SAPC  H18Y10055   1.326   3.941   3.892
  100SAPC  H18Z10056   1.451   3.830   3.915
  101OSM      N10057   3.480   3.615   6.832
  101OSM    C1510058   3.385   3.608   6.943
  101OSM   H15A10059   3.394   3.522   7.009
  101OSM   H15B10060   3.287   3.629   6.902
  101OSM   H15C10061   3.408   3.691   7.008
  101OSM    C1410062   3.456   3.503   6.746
  101OSM   H14A10063   3.520   3.504   6.659
  101OSM   H14B10064   3.354   3.501   6.711
  101OSM   H14C10065   3.477   3.408   6.794
  101OSM    C1310066   3.459   3.741   6.757
  101OSM   H13A10067   3.361   3.749   6.713
  101OSM   H13B10068   3.538   3.750   6.684
  101OSM   H13C10069   3.463   3.829   6.819
  101OSM    C1210070   3.619   3.603   6.898
  101OSM   H12A10071   3.627   3.682   6.971
  101OSM   H12B10072   3.695   3.639   6.829
  101OSM    C1110073   3.664   3.474   6.971
  101OSM   H11A10074   3.587   3.444   7.044
  101OSM   H11B10075   3.755   3.499   7.030
  101OSM      P10076   3.799   3.361   6.775
  101OSM    O1310077   3.896   3.463   6.812
  101OSM    O1410078   3.853   3.226   6.768
  101OSM    O1110079   3.727   3.385   6.640
  101OSM    O1210080   3.680   3.367   6.881
  101OSM    C1S10081   3.798   3.404   6.514
  101OSM    H1S10082   3.903   3.370   6.522
  101OSM    H1T10083   3.801   3.514   6.502
  101OSM     NF10084   3.818   3.368   6.282
  101OSM    HNF10085   3.779   3.411   6.201
  101OSM    C2S10086   3.729   3.337   6.397
  101OSM    H2S10087   3.733   3.226   6.410
  101OSM    C3S10088   3.567   3.358   6.381
  101OSM    H3S10089   3.551   3.467   6.367
  101OSM     O310090   3.485   3.327   6.487
  101OSM    HO310091   3.551   3.300   6.551
  101OSM    C4S10092   3.515   3.281   6.258
  101OSM    H4S10093   3.544   3.338   6.168
  101OSM    C5S10094   3.433   3.173   6.243
  101OSM    H5S10095   3.385   3.132   6.333
  101OSM    C6S10096   3.390   3.122   6.113
  101OSM    H6S10097   3.406   3.012   6.109
  101OSM    H6T10098   3.465   3.160   6.040
  101OSM    C7S10099   3.249   3.147   6.074
  101OSM    H7S10100   3.220   3.254   6.072
  101OSM    H7T10101   3.186   3.097   6.150
  101OSM    C8S10102   3.206   3.094   5.937
  101OSM    H8S10103   3.099   3.119   5.926
  101OSM    H8T10104   3.222   2.984   5.944
  101OSM    C9S10105   3.267   3.163   5.815
  101OSM    H9S10106   3.377   3.146   5.823
  101OSM    H9T10107   3.227   3.266   5.812
  101OSM   C10S10108   3.227   3.090   5.683
  101OSM   H10S10109   3.116   3.085   5.692
  101OSM   H10T10110   3.280   2.995   5.702
  101OSM   C11S10111   3.267   3.163   5.555
  101OSM   H11S10112   3.372   3.201   5.561
  101OSM   H11T10113   3.204   3.254   5.554
  101OSM   C12S10114   3.245   3.084   5.426
  101OSM   H12S10115   3.136   3.070   5.409
  101OSM   H12T10116   3.275   2.978   5.442
  101OSM   C13S10117   3.327   3.139   5.309
  101OSM   H13S10118   3.319   3.082   5.214
  101OSM   H13T10119   3.433   3.128   5.341
  101OSM   C14S10120   3.299   3.282   5.274
  101OSM   H14S10121   3.335   3.353   5.352
  101OSM   H14T10122   3.192   3.296   5.248
  101OSM   C15S10123   3.377   3.330   5.148
  101OSM   H15S10124   3.369   3.265   5.059
  101OSM   H15T10125   3.481   3.342   5.187
  101OSM   C16S10126   3.336   3.476   5.102
  101OSM   H16S10127   3.425   3.512   5.046
  101OSM   H16T10128   3.338   3.537   5.195
  101OSM   C17S10129   3.204   3.483   5.031
  101OSM   H17S10130   3.120   3.445   5.093
  101OSM   H17T10131   3.218   3.407   4.952
  101OSM   C18S10132   3.171   3.629   4.976
  101OSM   H18S10133   3.259   3.663   4.916
  101OSM   H18T10134   3.151   3.693   5.064
  101OSM   H18U10135   3.083   3.639   4.909
  101OSM    C1F10136   3.940   3.319   6.267
  101OSM     OF10137   3.973   3.218   6.324
  101OSM    C2F10138   4.021   3.391   6.161
  101OSM    H2F10139   4.050   3.496   6.184
  101OSM    H2G10140   3.949   3.407   6.078
  101OSM    C3F10141   4.143   3.304   6.113
  101OSM    H3F10142   4.102   3.202   6.101
  101OSM    H3G10143   4.207   3.315   6.204
  101OSM    C4F10144   4.222   3.357   5.989
  101OSM    H4F10145   4.294   3.273   5.974
  101OSM    H4G10146   4.261   3.459   6.007
  101OSM    C5F10147   4.138   3.365   5.863
  101OSM    H5F10148   4.051   3.432   5.877
  101OSM    H5G10149   4.101   3.260   5.851
  101OSM    C6F10150   4.220   3.414   5.742
  101OSM    H6F10151   4.285   3.335   5.700
  101OSM    H6G10152   4.279   3.507   5.760
  101OSM    C7F10153   4.124   3.472   5.631
  101OSM    H7F10154   4.074   3.560   5.677
  101OSM    H7G10155   4.050   3.392   5.611
  101OSM    C8F10156   4.193   3.512   5.496
  101OSM    H8F10157   4.114   3.521   5.419
  101OSM    H8G10158   4.242   3.415   5.470
  101OSM    C9F10159   4.271   3.637   5.517
  101OSM    H9F10160   4.206   3.719   5.551
  101OSM   C10F10161   4.394   3.664   5.500
  101OSM   H10F10162   4.428   3.768   5.505
  101OSM   C11F10163   4.507   3.566   5.467
  101OSM   H11F10164   4.484   3.467   5.513
  101OSM   H11G10165   4.598   3.600   5.521
  101OSM   C12F10166   4.525   3.546   5.316
  101OSM   H12F10167   4.560   3.640   5.269
  101OSM   H12G10168   4.428   3.520   5.269
  101OSM   C13F10169   4.633   3.438   5.274
  101OSM   H13F10170   4.613   3.350   5.339
  101OSM   H13G10171   4.733   3.476   5.305
  101OSM   C14F10172   4.622   3.386   5.127
  101OSM   H14F10173   4.595   3.464   5.053
  101OSM   H14G10174   4.529   3.325   5.129
  101OSM   C15F10175   4.733   3.290   5.077
  101OSM   H15F10176   4.727   3.207   5.151
  101OSM   H15G10177   4.841   3.318   5.084
  101OSM   C16F10178   4.711   3.239   4.933
  101OSM   H16F10179   4.700   3.324   4.862
  101OSM   H16G10180   4.615   3.183   4.935
  101OSM   C17F10181   4.822   3.152   4.873
  101OSM   H17F10182   4.844   3.061   4.933
  101OSM   H17G10183   4.914   3.213   4.869
  101OSM   C18F10184   4.789   3.100   4.727
  101OSM   H18F10185   4.702   3.031   4.723
  101OSM   H18G10186   4.878   3.043   4.693
  101OSM   H18H10187   4.761   3.183   4.660
  102OSM      N10188   4.088   2.587   6.907
  102OSM    C1510189   3.964   2.503   6.897
  102OSM   H15A10190   3.919   2.492   6.995
  102OSM   H15B10191   3.986   2.404   6.859
  102OSM   H15C10192   3.891   2.551   6.834
  102OSM    C1410193   4.058   2.720   6.963
  102OSM   H14A10194   4.152   2.767   6.988
  102OSM   H14B10195   4.000   2.727   7.054
  102OSM   H14C10196   4.007   2.778   6.888
  102OSM    C1310197   4.189   2.517   6.997
  102OSM   H13A10198   4.141   2.490   7.090
  102OSM   H13B10199   4.262   2.592   7.024
  102OSM   H13C10200   4.247   2.438   6.952
  102OSM    C1210201   4.151   2.599   6.769
  102OSM   H12A10202   4.217   2.683   6.785
  102OSM   H12B10203   4.078   2.632   6.696
  102OSM    C1110204   4.236   2.492   6.710
  102OSM   H11A10205   4.334   2.506   6.760
  102OSM   H11B10206   4.251   2.512   6.602
  102OSM      P10207   4.078   2.278   6.624
  102OSM    O1310208   4.167   2.194   6.540
  102OSM    O1410209   3.995   2.198   6.716
  102OSM    O1110210   4.000   2.385   6.547
  102OSM    O1210211   4.177   2.358   6.719
  102OSM    C1S10212   4.054   2.413   6.413
  102OSM    H1S10213   4.085   2.321   6.360
  102OSM    H1T10214   4.149   2.470   6.419
  102OSM     NF10215   3.985   2.509   6.196
  102OSM    HNF10216   4.021   2.600   6.175
  102OSM    C2S10217   3.946   2.496   6.336
  102OSM    H2S10218   3.854   2.435   6.327
  102OSM    C3S10219   3.902   2.623   6.421
  102OSM    H3S10220   3.997   2.679   6.427
  102OSM     O310221   3.877   2.604   6.563
  102OSM    HO310222   3.875   2.509   6.565
  102OSM    C4S10223   3.799   2.706   6.364
  102OSM    H4S10224   3.694   2.674   6.370
  102OSM    C5S10225   3.823   2.838   6.322
  102OSM    H5S10226   3.922   2.880   6.345
  102OSM    C6S10227   3.713   2.923   6.261
  102OSM    H6S10228   3.680   3.001   6.333
  102OSM    H6T10229   3.623   2.863   6.234
  102OSM    C7S10230   3.762   3.000   6.134
  102OSM    H7S10231   3.853   3.062   6.150
  102OSM    H7T10232   3.687   3.069   6.090
  102OSM    C8S10233   3.806   2.900   6.019
  102OSM    H8S10234   3.757   2.803   6.047
  102OSM    H8T10235   3.915   2.885   6.035
  102OSM    C9S10236   3.769   2.934   5.869
  102OSM    H9S10237   3.661   2.958   5.872
  102OSM    H9T10238   3.796   2.848   5.805
  102OSM   C10S10239   3.825   3.063   5.817
  102OSM   H10S10240   3.936   3.069   5.812
  102OSM   H10T10241   3.788   3.153   5.871
  102OSM   C11S10242   3.773   3.079   5.669
  102OSM   H11S10243   3.663   3.080   5.658
  102OSM   H11T10244   3.813   2.997   5.604
  102OSM   C12S10245   3.813   3.209   5.604
  102OSM   H12S10246   3.923   3.221   5.589
  102OSM   H12T10247   3.781   3.292   5.671
  102OSM   C13S10248   3.776   3.218   5.455
  102OSM   H13S10249   3.666   3.211   5.442
  102OSM   H13T10250   3.833   3.132   5.413
  102OSM   C14S10251   3.830   3.350   5.393
  102OSM   H14S10252   3.940   3.353   5.411
  102OSM   H14T10253   3.777   3.439   5.433
  102OSM   C15S10254   3.801   3.351   5.239
  102OSM   H15S10255   3.696   3.333   5.208
  102OSM   H15T10256   3.849   3.263   5.192
  102OSM   C16S10257   3.849   3.471   5.153
  102OSM   H16S10258   3.960   3.467   5.155
  102OSM   H16T10259   3.823   3.558   5.217
  102OSM   C17S10260   3.788   3.478   5.012
  102OSM   H17S10261   3.683   3.512   5.011
  102OSM   H17T10262   3.799   3.384   4.954
  102OSM   C18S10263   3.857   3.573   4.916
  102OSM   H18S10264   3.967   3.563   4.906
  102OSM   H18T10265   3.861   3.675   4.959
  102OSM   H18U10266   3.797   3.582   4.823
  102OSM    C1F10267   3.990   2.408   6.110
  102OSM     OF10268   3.941   2.295   6.134
  102OSM    C2F10269   4.067   2.429   5.984
  102OSM    H2F10270   4.167   2.384   5.998
  102OSM    H2G10271   4.072   2.539   5.969
  102OSM    C3F10272   3.984   2.391   5.866
  102OSM    H3F10273   3.891   2.449   5.849
  102OSM    H3G10274   3.968   2.281   5.869
  102OSM    C4F10275   4.053   2.421   5.733
  102OSM    H4F10276   4.033   2.344   5.656
  102OSM    H4G10277   4.162   2.419   5.755
  102OSM    C5F10278   4.031   2.565   5.667
  102OSM    H5F10279   4.122   2.601   5.614
  102OSM    H5G10280   4.020   2.647   5.742
  102OSM    C6F10281   3.910   2.565   5.574
  102OSM    H6F10282   3.832   2.525   5.641
  102OSM    H6G10283   3.941   2.489   5.499
  102OSM    C7F10284   3.889   2.702   5.504
  102OSM    H7F10285   3.885   2.784   5.578
  102OSM    H7G10286   3.789   2.705   5.457
  102OSM    C8F10287   3.987   2.741   5.392
  102OSM    H8F10288   3.995   2.653   5.325
  102OSM    H8G10289   4.087   2.750   5.439
  102OSM    C9F10290   3.949   2.878   5.347
  102OSM    H9F10291   3.984   2.958   5.415
  102OSM   C10F10292   3.871   2.908   5.244
  102OSM   H10F10293   3.849   3.014   5.225
  102OSM   C11F10294   3.798   2.812   5.148
  102OSM   H11F10295   3.689   2.814   5.168
  102OSM   H11G10296   3.826   2.706   5.167
  102OSM   C12F10297   3.842   2.829   5.002
  102OSM   H12F10298   3.787   2.745   4.956
  102OSM   H12G10299   3.952   2.810   5.003
  102OSM   C13F10300   3.806   2.961   4.943
  102OSM   H13F10301   3.854   2.957   4.843
  102OSM   H13G10302   3.850   3.046   5.000
  102OSM   C14F10303   3.652   2.979   4.933
  102OSM   H14F10304   3.615   2.980   5.038
  102OSM   H14G10305   3.611   2.889   4.884
  102OSM   C15F10306   3.598   3.102   4.858
  102OSM   H15F10307   3.633   3.193   4.910
  102OSM   H15G10308   3.487   3.103   4.869
  102OSM   C16F10309   3.636   3.100   4.713
  102OSM   H16F10310   3.612   2.998   4.676
  102OSM   H16G10311   3.742   3.126   4.688
  102OSM   C17F10312   3.540   3.186   4.633
  102OSM   H17F10313   3.555   3.295   4.647
  102OSM   H17G10314   3.436   3.165   4.666
  102OSM   C18F10315   3.541   3.155   4.489
  102OSM   H18F10316   3.643   3.169   4.448
  102OSM   H18G10317   3.475   3.222   4.432
  102OSM   H18H10318   3.508   3.050   4.473
  103OSM      N10319   3.849   5.017   6.830
  103OSM    C1510320   3.806   5.137   6.759
  103OSM   H15A10321   3.868   5.170   6.677
  103OSM   H15B10322   3.817   5.218   6.830
  103OSM   H15C10323   3.703   5.128   6.730
  103OSM    C1410324   3.761   4.999   6.952
  103OSM   H14A10325   3.810   4.930   7.018
  103OSM   H14B10326   3.658   4.982   6.925
  103OSM   H14C10327   3.766   5.093   7.004
  103OSM    C1310328   3.830   4.893   6.745
  103OSM   H13A10329   3.889   4.917   6.657
  103OSM   H13B10330   3.725   4.883   6.721
  103OSM   H13C10331   3.871   4.805   6.793
  103OSM    C1210332   4.004   5.026   6.861
  103OSM   H12A10333   4.035   4.950   6.930
  103OSM   H12B10334   4.014   5.124   6.906
  103OSM    C1110335   4.104   5.014   6.749
  103OSM   H11A10336   4.107   4.918   6.694
  103OSM   H11B10337   4.209   4.998   6.782
  103OSM      P10338   4.183   5.246   6.661
  103OSM    O1310339   4.094   5.360   6.631
  103OSM    O1410340   4.260   5.250   6.791
  103OSM    O1110341   4.283   5.232   6.539
  103OSM    O1210342   4.091   5.123   6.651
  103OSM    C1S10343   4.310   5.105   6.473
  103OSM    H1S10344   4.236   5.023   6.490
  103OSM    H1T10345   4.411   5.073   6.504
  103OSM     NF10346   4.330   4.991   6.257
  103OSM    HNF10347   4.403   4.975   6.191
  103OSM    C2S10348   4.301   5.119   6.322
  103OSM    H2S10349   4.196   5.142   6.296
  103OSM    C3S10350   4.393   5.234   6.269
  103OSM    H3S10351   4.497   5.210   6.300
  103OSM     O310352   4.365   5.361   6.317
  103OSM    HO310353   4.298   5.346   6.383
  103OSM    C4S10354   4.397   5.242   6.123
  103OSM    H4S10355   4.299   5.256   6.076
  103OSM    C5S10356   4.509   5.222   6.049
  103OSM    H5S10357   4.608   5.201   6.094
  103OSM    C6S10358   4.509   5.237   5.896
  103OSM    H6S10359   4.595   5.307   5.881
  103OSM    H6T10360   4.418   5.280   5.848
  103OSM    C7S10361   4.539   5.101   5.833
  103OSM    H7S10362   4.464   5.021   5.853
  103OSM    H7T10363   4.632   5.067   5.884
  103OSM    C8S10364   4.557   5.112   5.685
  103OSM    H8S10365   4.619   5.197   5.650
  103OSM    H8T10366   4.458   5.123   5.636
  103OSM    C9S10367   4.613   4.979   5.621
  103OSM    H9S10368   4.560   4.892   5.665
  103OSM    H9T10369   4.720   4.973   5.652
  103OSM   C10S10370   4.608   4.984   5.472
  103OSM   H10S10371   4.656   5.081   5.444
  103OSM   H10T10372   4.502   4.997   5.443
  103OSM   C11S10373   4.653   4.861   5.399
  103OSM   H11S10374   4.591   4.779   5.442
  103OSM   H11T10375   4.760   4.858   5.426
  103OSM   C12S10376   4.631   4.857   5.250
  103OSM   H12S10377   4.714   4.922   5.217
  103OSM   H12T10378   4.531   4.894   5.218
  103OSM   C13S10379   4.639   4.721   5.174
  103OSM   H13S10380   4.558   4.655   5.211
  103OSM   H13T10381   4.739   4.683   5.205
  103OSM   C14S10382   4.639   4.728   5.026
  103OSM   H14S10383   4.674   4.627   4.996
  103OSM   H14T10384   4.717   4.801   4.998
  103OSM   C15S10385   4.504   4.779   4.967
  103OSM   H15S10386   4.507   4.887   4.993
  103OSM   H15T10387   4.416   4.723   5.006
  103OSM   C16S10388   4.488   4.777   4.821
  103OSM   H16S10389   4.398   4.835   4.791
  103OSM   H16T10390   4.472   4.677   4.776
  103OSM   C17S10391   4.597   4.839   4.739
  103OSM   H17S10392   4.691   4.794   4.777
  103OSM   H17T10393   4.604   4.949   4.747
  103OSM   C18S10394   4.580   4.793   4.595
  103OSM   H18S10395   4.655   4.842   4.530
  103OSM   H18T10396   4.485   4.826   4.549
  103OSM   H18U10397   4.571   4.682   4.584
  103OSM    C1F10398   4.248   4.885   6.276
  103OSM     OF10399   4.136   4.901   6.318
  103OSM    C2F10400   4.304   4.751   6.244
  103OSM    H2F10401   4.257   4.675   6.309
  103OSM    H2G10402   4.412   4.755   6.271
  103OSM    C3F10403   4.271   4.713   6.098
  103OSM    H3F10404   4.161   4.696   6.092
  103OSM    H3G10405   4.321   4.618   6.068
  103OSM    C4F10406   4.319   4.811   5.992
  103OSM    H4F10407   4.416   4.852   6.026
  103OSM    H4G10408   4.245   4.893   5.979
  103OSM    C5F10409   4.332   4.738   5.854
  103OSM    H5F10410   4.396   4.647   5.853
  103OSM    H5G10411   4.392   4.800   5.784
  103OSM    C6F10412   4.200   4.700   5.785
  103OSM    H6F10413   4.142   4.795   5.787
  103OSM    H6G10414   4.138   4.627   5.841
  103OSM    C7F10415   4.208   4.636   5.645
  103OSM    H7F10416   4.255   4.709   5.575
  103OSM    H7G10417   4.100   4.625   5.620
  103OSM    C8F10418   4.285   4.502   5.649
  103OSM    H8F10419   4.284   4.481   5.758
  103OSM    H8G10420   4.394   4.515   5.635
  103OSM    C9F10421   4.230   4.402   5.551
  103OSM    H9F10422   4.161   4.326   5.591
  103OSM   C10F10423   4.236   4.407   5.414
  103OSM   H10F10424   4.187   4.323   5.360
  103OSM   C11F10425   4.310   4.500   5.322
  103OSM   H11F10426   4.399   4.548   5.369
  103OSM   H11G10427   4.246   4.589   5.304
  103OSM   C12F10428   4.351   4.438   5.187
  103OSM   H12F10429   4.418   4.351   5.204
  103OSM   H12G10430   4.414   4.513   5.135
  103OSM   C13F10431   4.241   4.402   5.084
  103OSM   H13F10432   4.172   4.489   5.089
  103OSM   H13G10433   4.179   4.317   5.119
  103OSM   C14F10434   4.300   4.373   4.947
  103OSM   H14F10435   4.366   4.288   4.974
  103OSM   H14G10436   4.371   4.454   4.920
  103OSM   C15F10437   4.208   4.337   4.837
  103OSM   H15F10438   4.157   4.426   4.793
  103OSM   H15G10439   4.123   4.285   4.885
  103OSM   C16F10440   4.288   4.267   4.735
  103OSM   H16F10441   4.353   4.183   4.770
  103OSM   H16G10442   4.366   4.331   4.688
  103OSM   C17F10443   4.193   4.218   4.621
  103OSM   H17F10444   4.139   4.302   4.572
  103OSM   H17G10445   4.111   4.156   4.663
  103OSM   C18F10446   4.269   4.128   4.523
  103OSM   H18F10447   4.344   4.187   4.467
  103OSM   H18G10448   4.195   4.085   4.452
  103OSM   H18H10449   4.327   4.041   4.559
  104OSM      N10450   4.862   3.183   6.722
  104OSM    C1510451   4.800   3.244   6.845
  104OSM   H15A10452   4.875   3.246   6.922
  104OSM   H15B10453   4.716   3.183   6.878
  104OSM   H15C10454   4.771   3.348   6.842
  104OSM    C1410455   4.898   3.045   6.762
  104OSM   H14A10456   4.955   3.006   6.679
  104OSM   H14B10457   4.817   2.980   6.790
  104OSM   H14C10458   4.971   3.046   6.841
  104OSM    C1310459   4.768   3.169   6.603
  104OSM   H13A10460   4.810   3.097   6.534
  104OSM   H13B10461   4.751   3.257   6.543
  104OSM   H13C10462   4.671   3.142   6.641
  104OSM    C1210463   4.979   3.262   6.685
  104OSM   H12A10464   4.957   3.363   6.654
  104OSM   H12B10465   5.024   3.216   6.598
  104OSM    C1110466   5.100   3.279   6.784
  104OSM   H11A10467   5.064   3.348   6.864
  104OSM   H11B10468   5.172   3.340   6.725
  104OSM      P10469   5.287   3.104   6.797
  104OSM    O1310470   5.386   3.186   6.863
  104OSM    O1410471   5.301   2.960   6.823
  104OSM    O1110472   5.306   3.131   6.643
  104OSM    O1210473   5.134   3.152   6.827
  104OSM    C1S10474   5.245   3.050   6.544
  104OSM    H1S10475   5.135   3.065   6.539
  104OSM    H1T10476   5.261   2.942   6.563
  104OSM     NF10477   5.204   3.061   6.302
  104OSM    HNF10478   5.220   2.991   6.233
  104OSM    C2S10479   5.299   3.093   6.403
  104OSM    H2S10480   5.321   3.202   6.404
  104OSM    C3S10481   5.435   3.016   6.386
  104OSM    H3S10482   5.404   2.910   6.386
  104OSM     O310483   5.519   3.013   6.504
  104OSM    HO310484   5.471   3.072   6.563
  104OSM    C4S10485   5.513   3.060   6.260
  104OSM    H4S10486   5.496   2.992   6.175
  104OSM    C5S10487   5.589   3.162   6.237
  104OSM    H5S10488   5.609   3.238   6.314
  104OSM    C6S10489   5.650   3.185   6.101
  104OSM    H6S10490   5.759   3.172   6.117
  104OSM    H6T10491   5.620   3.291   6.090
  104OSM    C7S10492   5.601   3.085   5.992
  104OSM    H7S10493   5.491   3.086   5.982
  104OSM    H7T10494   5.625   2.980   6.019
  104OSM    C8S10495   5.668   3.119   5.857
  104OSM    H8S10496   5.779   3.121   5.861
  104OSM    H8T10497   5.635   3.224   5.843
  104OSM    C9S10498   5.629   3.028   5.736
  104OSM    H9S10499   5.518   3.039   5.730
  104OSM    H9T10500   5.659   2.922   5.749
  104OSM   C10S10501   5.693   3.080   5.602
  104OSM   H10S10502   5.804   3.074   5.609
  104OSM   H10T10503   5.681   3.190   5.603
  104OSM   C11S10504   5.643   3.016   5.465
  104OSM   H11S10505   5.532   3.020   5.460
  104OSM   H11T10506   5.654   2.905   5.467
  104OSM   C12S10507   5.701   3.076   5.335
  104OSM   H12S10508   5.803   3.047   5.302
  104OSM   H12T10509   5.703   3.186   5.353
  104OSM   C13S10510   5.620   3.027   5.208
  104OSM   H13S10511   5.528   3.090   5.210
  104OSM   H13T10512   5.595   2.924   5.242
  104OSM   C14S10513   5.710   3.019   5.085
  104OSM   H14S10514   5.799   2.956   5.106
  104OSM   H14T10515   5.754   3.113   5.043
  104OSM   C15S10516   5.622   2.940   4.980
  104OSM   H15S10517   5.532   3.005   4.969
  104OSM   H15T10518   5.590   2.845   5.026
  104OSM   C16S10519   5.687   2.917   4.839
  104OSM   H16S10520   5.783   2.862   4.849
  104OSM   H16T10521   5.719   3.017   4.803
  104OSM   C17S10522   5.596   2.844   4.733
  104OSM   H17S10523   5.633   2.851   4.629
  104OSM   H17T10524   5.499   2.897   4.741
  104OSM   C18S10525   5.573   2.696   4.759
  104OSM   H18S10526   5.670   2.642   4.760
  104OSM   H18T10527   5.504   2.652   4.684
  104OSM   H18U10528   5.527   2.687   4.860
  104OSM    C1F10529   5.094   3.125   6.276
  104OSM     OF10530   5.063   3.220   6.340
  104OSM    C2F10531   5.014   3.076   6.164
  104OSM    H2F10532   4.932   3.015   6.208
  104OSM    H2G10533   5.071   3.006   6.100
  104OSM    C3F10534   4.963   3.187   6.068
  104OSM    H3F10535   4.933   3.279   6.122
  104OSM    H3G10536   4.877   3.155   6.006
  104OSM    C4F10537   5.077   3.217   5.966
  104OSM    H4F10538   5.113   3.123   5.920
  104OSM    H4G10539   5.165   3.250   6.025
  104OSM    C5F10540   5.033   3.298   5.846
  104OSM    H5F10541   5.035   3.404   5.879
  104OSM    H5G10542   4.927   3.280   5.817
  104OSM    C6F10543   5.123   3.271   5.732
  104OSM    H6F10544   5.101   3.188   5.662
  104OSM    H6G10545   5.222   3.251   5.776
  104OSM    C7F10546   5.138   3.396   5.636
  104OSM    H7F10547   5.218   3.368   5.565
  104OSM    H7G10548   5.172   3.476   5.705
  104OSM    C8F10549   5.018   3.461   5.571
  104OSM    H8F10550   5.055   3.556   5.526
  104OSM    H8G10551   4.949   3.495   5.652
  104OSM    C9F10552   4.952   3.369   5.469
  104OSM    H9F10553   4.861   3.314   5.497
  104OSM   C10F10554   5.003   3.341   5.344
  104OSM   H10F10555   4.938   3.284   5.275
  104OSM   C11F10556   5.110   3.423   5.281
  104OSM   H11F10557   5.196   3.451   5.345
  104OSM   H11G10558   5.069   3.520   5.247
  104OSM   C12F10559   5.180   3.355   5.158
  104OSM   H12F10560   5.104   3.328   5.082
  104OSM   H12G10561   5.228   3.262   5.194
  104OSM   C13F10562   5.291   3.436   5.089
  104OSM   H13F10563   5.343   3.488   5.172
  104OSM   H13G10564   5.254   3.529   5.041
  104OSM   C14F10565   5.393   3.366   4.996
  104OSM   H14F10566   5.463   3.300   5.053
  104OSM   H14G10567   5.453   3.445   4.948
  104OSM   C15F10568   5.319   3.280   4.887
  104OSM   H15F10569   5.225   3.331   4.856
  104OSM   H15G10570   5.305   3.180   4.932
  104OSM   C16F10571   5.411   3.264   4.766
  104OSM   H16F10572   5.515   3.250   4.805
  104OSM   H16G10573   5.402   3.358   4.708
  104OSM   C17F10574   5.381   3.146   4.669
  104OSM   H17F10575   5.376   3.051   4.726
  104OSM   H17G10576   5.460   3.133   4.592
  104OSM   C18F10577   5.244   3.174   4.608
  104OSM   H18F10578   5.228   3.130   4.507
  104OSM   H18G10579   5.239   3.285   4.610
  104OSM   H18H10580   5.153   3.134   4.658
  105OSM      N10581   6.061   4.154   7.042
  105OSM    C1510582   5.977   4.270   7.083
  105OSM   H15A10583   5.968   4.348   7.010
  105OSM   H15B10584   6.022   4.304   7.175
  105OSM   H15C10585   5.877   4.233   7.096
  105OSM    C1410586   6.201   4.210   7.028
  105OSM   H14A10587   6.198   4.293   6.960
  105OSM   H14B10588   6.264   4.139   6.975
  105OSM   H14C10589   6.242   4.236   7.124
  105OSM    C1310590   6.066   4.046   7.144
  105OSM   H13A10591   5.974   3.993   7.163
  105OSM   H13B10592   6.082   4.089   7.241
  105OSM   H13C10593   6.134   3.964   7.124
  105OSM    C1210594   6.015   4.102   6.918
  105OSM   H12A10595   5.921   4.050   6.931
  105OSM   H12B10596   6.079   4.023   6.882
  105OSM    C1110597   5.996   4.200   6.795
  105OSM   H11A10598   5.989   4.134   6.706
  105OSM   H11B10599   6.086   4.264   6.794
  105OSM      P10600   5.727   4.224   6.782
  105OSM    O1310601   5.718   4.101   6.863
  105OSM    O1410602   5.636   4.331   6.832
  105OSM    O1110603   5.699   4.200   6.630
  105OSM    O1210604   5.875   4.276   6.795
  105OSM    C1S10605   5.800   4.202   6.527
  105OSM    H1S10606   5.847   4.103   6.514
  105OSM    H1T10607   5.890   4.266   6.543
  105OSM     NF10608   5.815   4.196   6.274
  105OSM    HNF10609   5.881   4.257   6.231
  105OSM    C2S10610   5.734   4.245   6.388
  105OSM    H2S10611   5.630   4.208   6.381
  105OSM    C3S10612   5.709   4.398   6.390
  105OSM    H3S10613   5.804   4.456   6.395
  105OSM     O310614   5.643   4.448   6.504
  105OSM    HO310615   5.623   4.373   6.560
  105OSM    C4S10616   5.649   4.435   6.257
  105OSM    H4S10617   5.565   4.373   6.223
  105OSM    C5S10618   5.689   4.534   6.175
  105OSM    H5S10619   5.779   4.593   6.201
  105OSM    C6S10620   5.623   4.569   6.050
  105OSM    H6S10621   5.613   4.679   6.044
  105OSM    H6T10622   5.522   4.524   6.041
  105OSM    C7S10623   5.708   4.519   5.932
  105OSM    H7S10624   5.721   4.409   5.941
  105OSM    H7T10625   5.808   4.567   5.941
  105OSM    C8S10626   5.655   4.555   5.797
  105OSM    H8S10627   5.635   4.662   5.778
  105OSM    H8T10628   5.555   4.506   5.786
  105OSM    C9S10629   5.748   4.501   5.687
  105OSM    H9S10630   5.764   4.392   5.701
  105OSM    H9T10631   5.843   4.559   5.684
  105OSM   C10S10632   5.680   4.518   5.552
  105OSM   H10S10633   5.666   4.625   5.527
  105OSM   H10T10634   5.577   4.480   5.536
  105OSM   C11S10635   5.753   4.457   5.428
  105OSM   H11S10636   5.790   4.353   5.441
  105OSM   H11T10637   5.840   4.521   5.402
  105OSM   C12S10638   5.672   4.462   5.294
  105OSM   H12S10639   5.602   4.548   5.283
  105OSM   H12T10640   5.596   4.381   5.289
  105OSM   C13S10641   5.759   4.457   5.170
  105OSM   H13S10642   5.825   4.368   5.173
  105OSM   H13T10643   5.827   4.544   5.182
  105OSM   C14S10644   5.680   4.459   5.040
  105OSM   H14S10645   5.618   4.551   5.028
  105OSM   H14T10646   5.600   4.382   5.048
  105OSM   C15S10647   5.765   4.439   4.916
  105OSM   H15S10648   5.813   4.339   4.923
  105OSM   H15T10649   5.852   4.508   4.925
  105OSM   C16S10650   5.694   4.435   4.781
  105OSM   H16S10651   5.610   4.508   4.779
  105OSM   H16T10652   5.647   4.336   4.765
  105OSM   C17S10653   5.776   4.475   4.653
  105OSM   H17S10654   5.864   4.410   4.633
  105OSM   H17T10655   5.815   4.578   4.671
  105OSM   C18S10656   5.688   4.469   4.527
  105OSM   H18S10657   5.628   4.560   4.544
  105OSM   H18T10658   5.623   4.379   4.518
  105OSM   H18U10659   5.759   4.471   4.441
  105OSM    C1F10660   5.817   4.071   6.237
  105OSM     OF10661   5.782   3.978   6.308
  105OSM    C2F10662   5.874   4.046   6.100
  105OSM    H2F10663   5.941   3.958   6.106
  105OSM    H2G10664   5.925   4.141   6.075
  105OSM    C3F10665   5.756   4.015   5.991
  105OSM    H3F10666   5.702   4.109   5.968
  105OSM    H3G10667   5.681   3.954   6.044
  105OSM    C4F10668   5.811   3.962   5.861
  105OSM    H4F10669   5.863   3.865   5.874
  105OSM    H4G10670   5.878   4.043   5.824
  105OSM    C5F10671   5.705   3.945   5.750
  105OSM    H5F10672   5.654   4.039   5.720
  105OSM    H5G10673   5.615   3.898   5.795
  105OSM    C6F10674   5.759   3.884   5.623
  105OSM    H6F10675   5.674   3.855   5.559
  105OSM    H6G10676   5.819   3.794   5.650
  105OSM    C7F10677   5.840   3.977   5.529
  105OSM    H7F10678   5.912   4.030   5.595
  105OSM    H7G10679   5.762   4.051   5.498
  105OSM    C8F10680   5.906   3.920   5.406
  105OSM    H8F10681   5.997   3.871   5.445
  105OSM    H8G10682   5.941   4.007   5.346
  105OSM    C9F10683   5.819   3.830   5.322
  105OSM    H9F10684   5.839   3.722   5.334
  105OSM   C10F10685   5.725   3.861   5.229
  105OSM   H10F10686   5.665   3.775   5.195
  105OSM   C11F10687   5.670   3.999   5.190
  105OSM   H11F10688   5.696   4.075   5.267
  105OSM   H11G10689   5.560   3.991   5.186
  105OSM   C12F10690   5.720   4.048   5.050
  105OSM   H12F10691   5.830   4.067   5.056
  105OSM   H12G10692   5.675   4.147   5.030
  105OSM   C13F10693   5.697   3.943   4.940
  105OSM   H13F10694   5.587   3.935   4.932
  105OSM   H13G10695   5.750   3.847   4.960
  105OSM   C14F10696   5.751   3.987   4.805
  105OSM   H14F10697   5.726   4.095   4.805
  105OSM   H14G10698   5.704   3.931   4.722
  105OSM   C15F10699   5.898   3.971   4.782
  105OSM   H15F10700   5.922   3.864   4.796
  105OSM   H15G10701   5.937   4.038   4.862
  105OSM   C16F10702   5.959   4.025   4.657
  105OSM   H16F10703   6.058   4.069   4.682
  105OSM   H16G10704   5.894   4.101   4.609
  105OSM   C17F10705   5.988   3.913   4.548
  105OSM   H17F10706   6.073   3.850   4.582
  105OSM   H17G10707   6.020   3.981   4.465
  105OSM   C18F10708   5.868   3.821   4.513
  105OSM   H18F10709   5.884   3.745   4.433
  105OSM   H18G10710   5.780   3.881   4.482
  105OSM   H18H10711   5.823   3.780   4.605
  106OSM      N10712   4.198   1.528   6.754
  106OSM    C1510713   4.074   1.458   6.779
  106OSM   H15A10714   3.995   1.509   6.726
  106OSM   H15B10715   4.059   1.448   6.886
  106OSM   H15C10716   4.085   1.359   6.740
  106OSM    C1410717   4.196   1.657   6.827
  106OSM   H14A10718   4.297   1.694   6.836
  106OSM   H14B10719   4.157   1.643   6.927
  106OSM   H14C10720   4.129   1.730   6.782
  106OSM    C1310721   4.309   1.444   6.815
  106OSM   H13A10722   4.413   1.472   6.803
  106OSM   H13B10723   4.304   1.340   6.785
  106OSM   H13C10724   4.297   1.438   6.922
  106OSM    C1210725   4.221   1.546   6.601
  106OSM   H12A10726   4.198   1.450   6.558
  106OSM   H12B10727   4.322   1.579   6.584
  106OSM    C1110728   4.122   1.653   6.527
  106OSM   H11A10729   4.144   1.644   6.418
  106OSM   H11B10730   4.153   1.756   6.557
  106OSM      P10731   3.897   1.755   6.606
  106OSM    O1310732   3.768   1.696   6.655
  106OSM    O1410733   3.973   1.839   6.698
  106OSM    O1110734   3.850   1.845   6.484
  106OSM    O1210735   3.979   1.633   6.548
  106OSM    C1S10736   3.940   1.912   6.403
  106OSM    H1S10737   4.015   1.840   6.363
  106OSM    H1T10738   4.004   1.985   6.457
  106OSM     NF10739   3.929   2.018   6.174
  106OSM    HNF10740   3.941   2.117   6.169
  106OSM    C2S10741   3.849   1.966   6.287
  106OSM    H2S10742   3.788   1.881   6.250
  106OSM    C3S10743   3.748   2.068   6.341
  106OSM    H3S10744   3.803   2.160   6.372
  106OSM     O310745   3.669   2.027   6.459
  106OSM    HO310746   3.719   1.948   6.482
  106OSM    C4S10747   3.656   2.121   6.234
  106OSM    H4S10748   3.709   2.178   6.156
  106OSM    C5S10749   3.531   2.084   6.212
  106OSM    H5S10750   3.488   2.005   6.276
  106OSM    C6S10751   3.450   2.130   6.091
  106OSM    H6S10752   3.385   2.219   6.101
  106OSM    H6T10753   3.375   2.050   6.073
  106OSM    C7S10754   3.536   2.147   5.961
  106OSM    H7S10755   3.612   2.229   5.969
  106OSM    H7T10756   3.459   2.192   5.894
  106OSM    C8S10757   3.588   2.019   5.892
  106OSM    H8S10758   3.508   1.948   5.863
  106OSM    H8T10759   3.655   1.964   5.961
  106OSM    C9S10760   3.680   2.052   5.772
  106OSM    H9S10761   3.730   1.958   5.742
  106OSM    H9T10762   3.760   2.117   5.814
  106OSM   C10S10763   3.614   2.123   5.652
  106OSM   H10S10764   3.543   2.199   5.692
  106OSM   H10T10765   3.558   2.039   5.606
  106OSM   C11S10766   3.703   2.172   5.542
  106OSM   H11S10767   3.784   2.096   5.533
  106OSM   H11T10768   3.746   2.270   5.571
  106OSM   C12S10769   3.631   2.186   5.406
  106OSM   H12S10770   3.569   2.278   5.415
  106OSM   H12T10771   3.564   2.101   5.385
  106OSM   C13S10772   3.726   2.202   5.287
  106OSM   H13S10773   3.673   2.201   5.189
  106OSM   H13T10774   3.807   2.127   5.295
  106OSM   C14S10775   3.796   2.334   5.288
  106OSM   H14S10776   3.863   2.330   5.376
  106OSM   H14T10777   3.716   2.411   5.293
  106OSM   C15S10778   3.876   2.368   5.162
  106OSM   H15S10779   3.970   2.308   5.164
  106OSM   H15T10780   3.905   2.475   5.159
  106OSM   C16S10781   3.809   2.338   5.025
  106OSM   H16S10782   3.705   2.377   5.026
  106OSM   H16T10783   3.814   2.227   5.023
  106OSM   C17S10784   3.887   2.399   4.907
  106OSM   H17S10785   3.986   2.349   4.909
  106OSM   H17T10786   3.883   2.510   4.914
  106OSM   C18S10787   3.818   2.357   4.771
  106OSM   H18S10788   3.720   2.403   4.747
  106OSM   H18T10789   3.815   2.246   4.763
  106OSM   H18U10790   3.891   2.406   4.704
  106OSM    C1F10791   3.994   1.940   6.083
  106OSM     OF10792   4.011   1.823   6.102
  106OSM    C2F10793   4.032   1.999   5.951
  106OSM    H2F10794   4.138   2.034   5.958
  106OSM    H2G10795   3.973   2.092   5.938
  106OSM    C3F10796   4.001   1.907   5.832
  106OSM    H3F10797   3.897   1.870   5.847
  106OSM    H3G10798   4.068   1.819   5.844
  106OSM    C4F10799   4.036   1.967   5.703
  106OSM    H4F10800   4.137   2.006   5.727
  106OSM    H4G10801   3.963   2.047   5.677
  106OSM    C5F10802   4.047   1.878   5.582
  106OSM    H5F10803   3.949   1.828   5.572
  106OSM    H5G10804   4.113   1.792   5.606
  106OSM    C6F10805   4.077   1.958   5.457
  106OSM    H6F10806   4.018   2.052   5.462
  106OSM    H6G10807   4.036   1.916   5.363
  106OSM    C7F10808   4.224   1.997   5.448
  106OSM    H7F10809   4.287   1.906   5.458
  106OSM    H7G10810   4.250   2.070   5.527
  106OSM    C8F10811   4.257   2.039   5.303
  106OSM    H8F10812   4.192   1.973   5.242
  106OSM    H8G10813   4.364   2.021   5.279
  106OSM    C9F10814   4.208   2.182   5.295
  106OSM    H9F10815   4.107   2.197   5.336
  106OSM   C10F10816   4.270   2.278   5.230
  106OSM   H10F10817   4.217   2.373   5.244
  106OSM   C11F10818   4.410   2.273   5.177
  106OSM   H11F10819   4.451   2.172   5.198
  106OSM   H11G10820   4.472   2.355   5.219
  106OSM   C12F10821   4.414   2.294   5.022
  106OSM   H12F10822   4.342   2.369   4.983
  106OSM   H12G10823   4.388   2.202   4.967
  106OSM   C13F10824   4.550   2.346   4.973
  106OSM   H13F10825   4.625   2.269   5.000
  106OSM   H13G10826   4.577   2.425   5.046
  106OSM   C14F10827   4.561   2.396   4.830
  106OSM   H14F10828   4.495   2.485   4.818
  106OSM   H14G10829   4.525   2.312   4.768
  106OSM   C15F10830   4.706   2.421   4.782
  106OSM   H15F10831   4.772   2.344   4.829
  106OSM   H15G10832   4.739   2.520   4.818
  106OSM   C16F10833   4.718   2.415   4.626
  106OSM   H16F10834   4.660   2.335   4.576
  106OSM   H16G10835   4.821   2.392   4.594
  106OSM   C17F10836   4.683   2.555   4.580
  106OSM   H17F10837   4.746   2.626   4.637
  106OSM   H17G10838   4.574   2.563   4.596
  106OSM   C18F10839   4.722   2.582   4.431
  106OSM   H18F10840   4.829   2.577   4.404
  106OSM   H18G10841   4.700   2.688   4.404
  106OSM   H18H10842   4.667   2.528   4.351
  107OSM      N10843   2.724   0.065   6.863
  107OSM    C1510844   2.731   0.210   6.827
  107OSM   H15A10845   2.796   0.260   6.897
  107OSM   H15B10846   2.630   0.249   6.832
  107OSM   H15C10847   2.772   0.227   6.728
  107OSM    C1410848   2.688   0.059   7.010
  107OSM   H14A10849   2.689   6.853   7.033
  107OSM   H14B10850   2.591   0.098   7.038
  107OSM   H14C10851   2.765   0.109   7.067
  107OSM    C1310852   2.621   0.001   6.779
  107OSM   H13A10853   2.654   0.014   6.677
  107OSM   H13B10854   2.530   0.060   6.780
  107OSM   H13C10855   2.608   6.795   6.793
  107OSM    C1210856   2.861   0.006   6.840
  107OSM   H12A10857   2.870   6.805   6.877
  107OSM   H12B10858   2.932   0.070   6.891
  107OSM    C1110859   2.895   6.897   6.685
  107OSM   H11A10860   2.838   6.817   6.634
  107OSM   H11B10861   2.997   6.851   6.690
  107OSM      P10862   3.027   0.213   6.610
  107OSM    O1310863   3.021   0.321   6.710
  107OSM    O1410864   3.146   0.121   6.623
  107OSM    O1110865   3.032   0.283   6.468
  107OSM    O1210866   2.891   0.126   6.617
  107OSM    C1S10867   2.981   0.211   6.347
  107OSM    H1S10868   2.876   0.248   6.338
  107OSM    H1T10869   2.985   0.101   6.360
  107OSM     NF10870   3.042   0.136   6.116
  107OSM    HNF10871   3.103   0.058   6.110
  107OSM    C2S10872   3.072   0.237   6.221
  107OSM    H2S10873   3.037   0.336   6.184
  107OSM    C3S10874   3.223   0.237   6.253
  107OSM    H3S10875   3.237   0.137   6.301
  107OSM     O310876   3.270   0.333   6.345
  107OSM    HO310877   3.198   0.370   6.396
  107OSM    C4S10878   3.307   0.257   6.130
  107OSM    H4S10879   3.292   0.350   6.074
  107OSM    C5S10880   3.398   0.174   6.083
  107OSM    H5S10881   3.420   0.081   6.138
  107OSM    C6S10882   3.497   0.200   5.968
  107OSM    H6S10883   3.438   0.185   5.876
  107OSM    H6T10884   3.582   0.129   5.973
  107OSM    C7S10885   3.537   0.349   5.955
  107OSM    H7S10886   3.580   0.376   6.054
  107OSM    H7T10887   3.450   0.412   5.926
  107OSM    C8S10888   3.639   0.381   5.839
  107OSM    H8S10889   3.638   0.492   5.844
  107OSM    H8T10890   3.580   0.356   5.748
  107OSM    C9S10891   3.776   0.311   5.847
  107OSM    H9S10892   3.762   0.203   5.867
  107OSM    H9T10893   3.835   0.357   5.930
  107OSM   C10S10894   3.855   0.318   5.710
  107OSM   H10S10895   3.963   0.336   5.731
  107OSM   H10T10896   3.831   0.406   5.647
  107OSM   C11S10897   3.837   0.192   5.622
  107OSM   H11S10898   3.882   0.100   5.664
  107OSM   H11T10899   3.890   0.215   5.527
  107OSM   C12S10900   3.692   0.165   5.574
  107OSM   H12S10901   3.656   0.247   5.509
  107OSM   H12T10902   3.624   0.147   5.660
  107OSM   C13S10903   3.673   0.038   5.477
  107OSM   H13S10904   3.704   6.840   5.520
  107OSM   H13T10905   3.738   0.068   5.392
  107OSM   C14S10906   3.530   0.018   5.423
  107OSM   H14S10907   3.483   0.116   5.402
  107OSM   H14T10908   3.471   6.864   5.500
  107OSM   C15S10909   3.527   6.833   5.299
  107OSM   H15S10910   3.437   6.768   5.305
  107OSM   H15T10911   3.619   6.773   5.288
  107OSM   C16S10912   3.517   0.035   5.180
  107OSM   H16S10913   3.597   0.112   5.177
  107OSM   H16T10914   3.422   0.091   5.186
  107OSM   C17S10915   3.527   6.866   5.041
  107OSM   H17S10916   3.452   6.784   5.037
  107OSM   H17T10917   3.622   6.809   5.029
  107OSM   C18S10918   3.506   0.062   4.923
  107OSM   H18S10919   3.524   0.008   4.827
  107OSM   H18T10920   3.588   0.137   4.933
  107OSM   H18U10921   3.403   0.103   4.924
  107OSM    C1F10922   2.928   0.142   6.034
  107OSM     OF10923   2.850   0.237   6.048
  107OSM    C2F10924   2.911   0.035   5.927
  107OSM    H2F10925   2.825   6.867   5.943
  107OSM    H2G10926   3.000   6.869   5.938
  107OSM    C3F10927   2.914   0.089   5.778
  107OSM    H3F10928   3.010   0.139   5.753
  107OSM    H3G10929   2.829   0.160   5.767
  107OSM    C4F10930   2.904   6.875   5.674
  107OSM    H4F10931   2.798   6.841   5.680
  107OSM    H4G10932   2.969   6.787   5.691
  107OSM    C5F10933   2.895   0.030   5.530
  107OSM    H5F10934   2.991   0.062   5.485
  107OSM    H5G10935   2.831   0.121   5.528
  107OSM    C6F10936   2.816   6.833   5.437
  107OSM    H6F10937   2.760   6.892   5.360
  107OSM    H6G10938   2.747   6.770   5.497
  107OSM    C7F10939   2.914   6.745   5.353
  107OSM    H7F10940   2.973   6.678   5.419
  107OSM    H7G10941   2.982   6.815   5.300
  107OSM    C8F10942   2.841   6.668   5.247
  107OSM    H8F10943   2.915   6.635   5.171
  107OSM    H8G10944   2.763   6.729   5.196
  107OSM    C9F10945   2.759   6.557   5.306
  107OSM    H9F10946   2.742   6.575   5.413
  107OSM   C10F10947   2.696   6.456   5.247
  107OSM   H10F10948   2.635   6.382   5.301
  107OSM   C11F10949   2.705   6.417   5.100
  107OSM   H11F10950   2.767   6.485   5.037
  107OSM   H11G10951   2.615   6.433   5.037
  107OSM   C12F10952   2.768   6.282   5.082
  107OSM   H12F10953   2.708   6.202   5.130
  107OSM   H12G10954   2.866   6.284   5.135
  107OSM   C13F10955   2.804   6.251   4.935
  107OSM   H13F10956   2.856   6.339   4.892
  107OSM   H13G10957   2.712   6.246   4.872
  107OSM   C14F10958   2.891   6.134   4.901
  107OSM   H14F10959   2.858   6.043   4.957
  107OSM   H14G10960   2.992   6.154   4.944
  107OSM   C15F10961   2.894   6.104   4.754
  107OSM   H15F10962   2.930   6.199   4.710
  107OSM   H15G10963   2.787   6.092   4.725
  107OSM   C16F10964   2.971   5.975   4.716
  107OSM   H16F10965   2.934   5.901   4.790
  107OSM   H16G10966   3.076   5.986   4.750
  107OSM   C17F10967   2.961   5.903   4.584
  107OSM   H17F10968   2.853   5.917   4.562
  107OSM   H17G10969   2.984   5.794   4.586
  107OSM   C18F10970   3.030   5.977   4.475
  107OSM   H18F10971   3.128   5.928   4.459
  107OSM   H18G10972   3.045   6.084   4.500
  107OSM   H18H10973   2.979   5.970   4.376
  108OSM      N10974   6.577   5.970   6.629
  108OSM    C1510975   6.717   5.920   6.650
  108OSM   H15A10976   6.713   5.812   6.649
  108OSM   H15B10977   6.758   5.959   6.742
  108OSM   H15C10978   6.780   5.936   6.564
  108OSM    C1410979   6.497   5.925   6.742
  108OSM   H14A10980   6.396   5.962   6.746
  108OSM   H14B10981   6.550   5.962   6.829
  108OSM   H14C10982   6.497   5.817   6.749
  108OSM    C1310983   6.590   6.121   6.640
  108OSM   H13A10984   6.659   6.155   6.564
  108OSM   H13B10985   6.619   6.142   6.742
  108OSM   H13C10986   6.487   6.149   6.624
  108OSM    C1210987   6.514   5.946   6.491
  108OSM   H12A10988   6.508   5.842   6.466
  108OSM   H12B10989   6.587   5.984   6.420
  108OSM    C1110990   6.371   6.013   6.453
  108OSM   H11A10991   6.305   5.985   6.538
  108OSM   H11B10992   6.347   5.966   6.355
  108OSM      P10993   6.248   6.235   6.405
  108OSM    O1310994   6.135   6.188   6.488
  108OSM    O1410995   6.279   6.380   6.402
  108OSM    O1110996   6.227   6.177   6.256
  108OSM    O1210997   6.377   6.156   6.439
  108OSM    C1S10998   6.169   6.264   6.160
  108OSM    H1S10999   6.240   6.349   6.150
  108OSM    H1T11000   6.070   6.301   6.195
  108OSM     NF11001   6.098   6.309   5.922
  108OSM    HNF11002   6.003   6.294   5.895
  108OSM    C2S11003   6.149   6.208   6.017
  108OSM    H2S11004   6.251   6.176   5.989
  108OSM    C3S11005   6.063   6.080   6.025
  108OSM    H3S11006   5.965   6.100   6.073
  108OSM     O311007   6.126   5.973   6.105
  108OSM    HO311008   6.172   6.032   6.165
  108OSM    C4S11009   6.030   6.023   5.886
  108OSM    H4S11010   5.931   6.054   5.850
  108OSM    C5S11011   6.098   5.938   5.809
  108OSM    H5S11012   6.199   5.909   5.843
  108OSM    C6S11013   6.051   5.872   5.680
  108OSM    H6S11014   5.941   5.855   5.681
  108OSM    H6T11015   6.103   5.777   5.655
  108OSM    C7S11016   6.080   5.965   5.551
  108OSM    H7S11017   6.189   5.961   5.529
  108OSM    H7T11018   6.060   6.070   5.583
  108OSM    C8S11019   6.003   5.918   5.433
  108OSM    H8S11020   5.894   5.924   5.453
  108OSM    H8T11021   6.029   5.812   5.414
  108OSM    C9S11022   6.042   5.996   5.308
  108OSM    H9S11023   6.126   5.937   5.266
  108OSM    H9T11024   6.057   6.102   5.338
  108OSM   C10S11025   5.927   5.989   5.197
  108OSM   H10S11026   5.831   6.027   5.237
  108OSM   H10T11027   5.905   5.885   5.162
  108OSM   C11S11028   5.963   6.076   5.078
  108OSM   H11S11029   6.056   6.025   5.043
  108OSM   H11T11030   6.000   6.177   5.107
  108OSM   C12S11031   5.845   6.086   4.983
  108OSM   H12S11032   5.752   6.101   5.041
  108OSM   H12T11033   5.840   5.984   4.938
  108OSM   C13S11034   5.863   6.196   4.879
  108OSM   H13S11035   5.965   6.190   4.836
  108OSM   H13T11036   5.849   6.295   4.929
  108OSM   C14S11037   5.759   6.192   4.767
  108OSM   H14S11038   5.653   6.188   4.801
  108OSM   H14T11039   5.778   6.099   4.709
  108OSM   C15S11040   5.757   6.310   4.667
  108OSM   H15S11041   5.696   6.389   4.716
  108OSM   H15T11042   5.696   6.281   4.578
  108OSM   C16S11043   5.886   6.362   4.609
  108OSM   H16S11044   5.947   6.282   4.560
  108OSM   H16T11045   5.954   6.382   4.695
  108OSM   C17S11046   5.875   6.494   4.533
  108OSM   H17S11047   5.847   6.571   4.608
  108OSM   H17T11048   5.801   6.500   4.450
  108OSM   C18S11049   6.006   6.531   4.461
  108OSM   H18S11050   5.996   6.636   4.429
  108OSM   H18T11051   6.035   6.465   4.376
  108OSM   H18U11052   6.082   6.531   4.543
  108OSM    C1F11053   6.172   6.409   5.882
  108OSM     OF11054   6.290   6.404   5.914
  108OSM    C2F11055   6.111   6.517   5.809
  108OSM    H2F11056   6.129   6.618   5.851
  108OSM    H2G11057   6.001   6.499   5.802
  108OSM    C3F11058   6.158   6.528   5.662
  108OSM    H3F11059   6.085   6.575   5.594
  108OSM    H3G11060   6.168   6.425   5.621
  108OSM    C4F11061   6.292   6.609   5.637
  108OSM    H4F11062   6.384   6.555   5.667
  108OSM    H4G11063   6.290   6.698   5.704
  108OSM    C5F11064   6.299   6.663   5.498
  108OSM    H5F11065   6.207   6.721   5.475
  108OSM    H5G11066   6.306   6.577   5.428
  108OSM    C6F11067   6.425   6.751   5.489
  108OSM    H6F11068   6.513   6.685   5.504
  108OSM    H6G11069   6.413   6.825   5.571
  108OSM    C7F11070   6.449   6.824   5.353
  108OSM    H7F11071   6.522   0.006   5.365
  108OSM    H7G11072   6.354   6.872   5.321
  108OSM    C8F11073   6.501   6.731   5.241
  108OSM    H8F11074   6.457   6.629   5.247
  108OSM    H8G11075   6.608   6.707   5.258
  108OSM    C9F11076   6.476   6.789   5.105
  108OSM    H9F11077   6.368   6.784   5.085
  108OSM   C10F11078   6.566   6.831   5.011
  108OSM   H10F11079   6.513   6.887   4.932
  108OSM   C11F11080   6.718   6.843   5.020
  108OSM   H11F11081   6.753   6.774   5.100
  108OSM   H11G11082   6.752   0.045   5.048
  108OSM   C12F11083   6.793   6.818   4.885
  108OSM   H12F11084   6.758   6.718   4.851
  108OSM   H12G11085   0.002   6.810   4.903
  108OSM   C13F11086   6.765   0.015   4.768
  108OSM   H13F11087   6.786   0.117   4.804
  108OSM   H13G11088   6.656   0.011   4.746
  108OSM   C14F11089   6.838   6.895   4.632
  108OSM   H14F11090   0.045   6.876   4.657
  108OSM   H14G11091   6.832   0.091   4.576
  108OSM   C15F11092   6.807   6.763   4.558
  108OSM   H15F11093   6.697   6.774   4.552
  108OSM   H15G11094   6.834   6.680   4.627
  108OSM   C16F11095   6.881   6.748   4.428
  108OSM   H16F11096   0.085   6.732   4.462
  108OSM   H16G11097   6.880   6.843   4.369
  108OSM   C17F11098   6.841   6.621   4.348
  108OSM   H17F11099   6.739   6.642   4.310
  108OSM   H17G11100   6.837   6.531   4.413
  108OSM   C18F11101   0.021   6.596   4.223
  108OSM   H18F11102   0.125   6.559   4.237
  108OSM   H18G11103   0.029   6.680   4.150
  108OSM   H18H11104   6.874   6.518   4.160
  109OSM      N11105   2.903   3.008   6.768
  109OSM    C1511106   2.988   3.131   6.740
  109OSM   H15A11107   3.019   3.176   6.834
  109OSM   H15B11108   2.925   3.204   6.691
  109OSM   H15C11109   3.070   3.105   6.676
  109OSM    C1411110   2.984   2.886   6.779
  109OSM   H14A11111   2.934   2.791   6.779
  109OSM   H14B11112   3.054   2.893   6.861
  109OSM   H14C11113   3.050   2.881   6.694
  109OSM    C1311114   2.825   3.038   6.893
  109OSM   H13A11115   2.772   2.952   6.932
  109OSM   H13B11116   2.749   3.111   6.867
  109OSM   H13C11117   2.899   3.077   6.961
  109OSM    C1211118   2.812   2.991   6.641
  109OSM   H12A11119   2.753   2.902   6.658
  109OSM   H12B11120   2.870   2.956   6.557
  109OSM    C1111121   2.721   3.110   6.603
  109OSM   H11A11122   2.697   3.106   6.494
  109OSM   H11B11123   2.775   3.207   6.604
  109OSM      P11124   2.486   3.018   6.683
  109OSM    O1311125   2.539   2.887   6.727
  109OSM    O1411126   2.367   3.079   6.750
  109OSM    O1111127   2.456   2.994   6.534
  109OSM    O1211128   2.608   3.114   6.684
  109OSM    C1S11129   2.395   2.880   6.484
  109OSM    H1S11130   2.293   2.877   6.527
  109OSM    H1T11131   2.459   2.793   6.510
  109OSM     NF11132   2.349   2.744   6.288
  109OSM    HNF11133   2.427   2.703   6.241
  109OSM    C2S11134   2.377   2.881   6.330
  109OSM    H2S11135   2.297   2.953   6.305
  109OSM    C3S11136   2.501   2.947   6.240
  109OSM    H3S11137   2.585   2.875   6.249
  109OSM     O311138   2.551   3.071   6.286
  109OSM    HO311139   2.524   3.068   6.378
  109OSM    C4S11140   2.477   2.930   6.090
  109OSM    H4S11141   2.384   2.971   6.049
  109OSM    C5S11142   2.558   2.874   6.004
  109OSM    H5S11143   2.659   2.840   6.031
  109OSM    C6S11144   2.547   2.874   5.855
  109OSM    H6S11145   2.444   2.890   5.818
  109OSM    H6T11146   2.581   2.779   5.808
  109OSM    C7S11147   2.631   2.985   5.801
  109OSM    H7S11148   2.736   2.971   5.836
  109OSM    H7T11149   2.616   3.087   5.842
  109OSM    C8S11150   2.636   2.991   5.649
  109OSM    H8S11151   2.529   3.003   5.623
  109OSM    H8T11152   2.664   2.895   5.600
  109OSM    C9S11153   2.715   3.113   5.594
  109OSM    H9S11154   2.801   3.132   5.662
  109OSM    H9T11155   2.643   3.196   5.592
  109OSM   C10S11156   2.773   3.107   5.448
  109OSM   H10S11157   2.847   3.024   5.443
  109OSM   H10T11158   2.838   3.196   5.444
  109OSM   C11S11159   2.664   3.119   5.342
  109OSM   H11S11160   2.631   3.224   5.326
  109OSM   H11T11161   2.573   3.065   5.376
  109OSM   C12S11162   2.721   3.062   5.216
  109OSM   H12S11163   2.738   2.953   5.226
  109OSM   H12T11164   2.822   3.107   5.205
  109OSM   C13S11165   2.652   3.097   5.088
  109OSM   H13S11166   2.639   3.207   5.090
  109OSM   H13T11167   2.549   3.056   5.082
  109OSM   C14S11168   2.746   3.049   4.968
  109OSM   H14S11169   2.696   3.044   4.869
  109OSM   H14T11170   2.781   2.949   4.999
  109OSM   C15S11171   2.860   3.143   4.951
  109OSM   H15S11172   2.930   3.139   5.038
  109OSM   H15T11173   2.826   3.248   4.944
  109OSM   C16S11174   2.948   3.112   4.829
  109OSM   H16S11175   2.890   3.086   4.737
  109OSM   H16T11176   3.001   3.018   4.853
  109OSM   C17S11177   3.039   3.233   4.797
  109OSM   H17S11178   3.076   3.274   4.893
  109OSM   H17T11179   2.964   3.300   4.749
  109OSM   C18S11180   3.153   3.199   4.702
  109OSM   H18S11181   3.128   3.156   4.603
  109OSM   H18T11182   3.199   3.120   4.765
  109OSM   H18U11183   3.221   3.287   4.692
  109OSM    C1F11184   2.225   2.693   6.298
  109OSM     OF11185   2.126   2.759   6.323
  109OSM    C2F11186   2.214   2.547   6.266
  109OSM    H2F11187   2.147   2.500   6.341
  109OSM    H2G11188   2.309   2.491   6.275
  109OSM    C3F11189   2.164   2.532   6.123
  109OSM    H3F11190   2.077   2.597   6.100
  109OSM    H3G11191   2.128   2.427   6.131
  109OSM    C4F11192   2.259   2.546   6.009
  109OSM    H4F11193   2.356   2.498   6.035
  109OSM    H4G11194   2.284   2.652   5.990
  109OSM    C5F11195   2.205   2.488   5.880
  109OSM    H5F11196   2.096   2.510   5.869
  109OSM    H5G11197   2.222   2.378   5.876
  109OSM    C6F11198   2.266   2.562   5.763
  109OSM    H6F11199   2.375   2.541   5.768
  109OSM    H6G11200   2.226   2.665   5.770
  109OSM    C7F11201   2.213   2.504   5.626
  109OSM    H7F11202   2.105   2.480   5.640
  109OSM    H7G11203   2.269   2.415   5.589
  109OSM    C8F11204   2.209   2.611   5.519
  109OSM    H8F11205   2.143   2.694   5.552
  109OSM    H8G11206   2.160   2.583   5.424
  109OSM    C9F11207   2.341   2.675   5.488
  109OSM    H9F11208   2.410   2.707   5.567
  109OSM   C10F11209   2.391   2.700   5.371
  109OSM   H10F11210   2.497   2.729   5.371
  109OSM   C11F11211   2.344   2.681   5.230
  109OSM   H11F11212   2.233   2.693   5.224
  109OSM   H11G11213   2.359   2.575   5.200
  109OSM   C12F11214   2.419   2.765   5.127
  109OSM   H12F11215   2.524   2.732   5.139
  109OSM   H12G11216   2.404   2.873   5.149
  109OSM   C13F11217   2.369   2.732   4.989
  109OSM   H13F11218   2.264   2.769   4.987
  109OSM   H13G11219   2.374   2.624   4.962
  109OSM   C14F11220   2.444   2.820   4.888
  109OSM   H14F11221   2.552   2.799   4.899
  109OSM   H14G11222   2.427   2.923   4.926
  109OSM   C15F11223   2.409   2.783   4.739
  109OSM   H15F11224   2.299   2.772   4.727
  109OSM   H15G11225   2.449   2.680   4.726
  109OSM   C16F11226   2.458   2.883   4.639
  109OSM   H16F11227   2.424   2.983   4.676
  109OSM   H16G11228   2.407   2.870   4.541
  109OSM   C17F11229   2.615   2.876   4.621
  109OSM   H17F11230   2.625   2.780   4.567
  109OSM   H17G11231   2.671   2.878   4.718
  109OSM   C18F11232   2.681   2.984   4.541
  109OSM   H18F11233   2.759   2.939   4.476
  109OSM   H18G11234   2.726   3.054   4.615
  109OSM   H18H11235   2.617   3.039   4.469
  110OSM      N11236   5.712   1.208   6.546
  110OSM    C1511237   5.604   1.315   6.517
  110OSM   H15A11238   5.603   1.395   6.590
  110OSM   H15B11239   5.515   1.259   6.539
  110OSM   H15C11240   5.595   1.344   6.414
  110OSM    C1411241   5.854   1.262   6.550
  110OSM   H14A11242   5.868   1.331   6.632
  110OSM   H14B11243   5.871   1.314   6.458
  110OSM   H14C11244   5.928   1.185   6.567
  110OSM    C1311245   5.691   1.161   6.689
  110OSM   H13A11246   5.690   1.246   6.755
  110OSM   H13B11247   5.769   1.099   6.730
  110OSM   H13C11248   5.595   1.113   6.701
  110OSM    C1211249   5.683   1.095   6.455
  110OSM   H12A11250   5.764   1.024   6.464
  110OSM   H12B11251   5.684   1.126   6.352
  110OSM    C1111252   5.554   1.012   6.476
  110OSM   H11A11253   5.567   0.972   6.578
  110OSM   H11B11254   5.561   0.933   6.398
  110OSM      P11255   5.371   1.124   6.319
  110OSM    O1311256   5.227   1.147   6.346
  110OSM    O1411257   5.458   1.219   6.240
  110OSM    O1111258   5.373   0.990   6.253
  110OSM    O1211259   5.435   1.091   6.467
  110OSM    C1S11260   5.297   0.981   6.136
  110OSM    H1S11261   5.302   1.073   6.074
  110OSM    H1T11262   5.189   0.966   6.157
  110OSM     NF11263   5.264   0.890   5.913
  110OSM    HNF11264   5.188   0.826   5.915
  110OSM    C2S11265   5.346   0.873   6.035
  110OSM    H2S11266   5.454   0.884   6.013
  110OSM    C3S11267   5.316   0.736   6.108
  110OSM    H3S11268   5.206   0.729   6.120
  110OSM     O311269   5.366   0.731   6.245
  110OSM    HO311270   5.381   0.823   6.267
  110OSM    C4S11271   5.373   0.618   6.025
  110OSM    H4S11272   5.479   0.601   6.046
  110OSM    C5S11273   5.300   0.538   5.950
  110OSM    H5S11274   5.191   0.553   5.950
  110OSM    C6S11275   5.341   0.423   5.864
  110OSM    H6S11276   5.311   0.325   5.908
  110OSM    H6T11277   5.451   0.421   5.849
  110OSM    C7S11278   5.253   0.431   5.736
  110OSM    H7S11279   5.149   0.411   5.770
  110OSM    H7T11280   5.255   0.338   5.676
  110OSM    C8S11281   5.262   0.562   5.658
  110OSM    H8S11282   5.344   0.534   5.589
  110OSM    H8T11283   5.278   0.645   5.730
  110OSM    C9S11284   5.134   0.585   5.587
  110OSM    H9S11285   5.138   0.675   5.522
  110OSM    H9T11286   5.051   0.597   5.660
  110OSM   C10S11287   5.087   0.471   5.491
  110OSM   H10S11288   5.077   0.376   5.547
  110OSM   H10T11289   5.162   0.457   5.410
  110OSM   C11S11290   4.949   0.482   5.438
  110OSM   H11S11291   4.894   0.496   5.534
  110OSM   H11T11292   4.910   0.389   5.391
  110OSM   C12S11293   4.929   0.585   5.329
  110OSM   H12S11294   4.991   0.538   5.250
  110OSM   H12T11295   4.973   0.682   5.362
  110OSM   C13S11296   4.782   0.607   5.287
  110OSM   H13S11297   4.729   0.689   5.340
  110OSM   H13T11298   4.728   0.513   5.312
  110OSM   C14S11299   4.775   0.628   5.129
  110OSM   H14S11300   4.791   0.535   5.069
  110OSM   H14T11301   4.859   0.697   5.105
  110OSM   C15S11302   4.637   0.698   5.091
  110OSM   H15S11303   4.614   0.781   5.162
  110OSM   H15T11304   4.560   0.619   5.102
  110OSM   C16S11305   4.639   0.760   4.953
  110OSM   H16S11306   4.688   0.687   4.885
  110OSM   H16T11307   4.702   0.851   4.964
  110OSM   C17S11308   4.497   0.804   4.891
  110OSM   H17S11309   4.510   0.894   4.827
  110OSM   H17T11310   4.444   0.834   4.985
  110OSM   C18S11311   4.424   0.696   4.808
  110OSM   H18S11312   4.463   0.701   4.704
  110OSM   H18T11313   4.314   0.705   4.812
  110OSM   H18U11314   4.447   0.595   4.849
  110OSM    C1F11315   5.283   0.978   5.820
  110OSM     OF11316   5.376   1.053   5.838
  110OSM    C2F11317   5.179   0.976   5.708
  110OSM    H2F11318   5.085   1.011   5.755
  110OSM    H2G11319   5.172   0.872   5.670
  110OSM    C3F11320   5.223   1.060   5.580
  110OSM    H3F11321   5.332   1.047   5.563
  110OSM    H3G11322   5.199   1.167   5.598
  110OSM    C4F11323   5.148   1.032   5.447
  110OSM    H4F11324   5.040   1.055   5.458
  110OSM    H4G11325   5.155   0.923   5.429
  110OSM    C5F11326   5.193   1.116   5.333
  110OSM    H5F11327   5.303   1.110   5.316
  110OSM    H5G11328   5.161   1.222   5.343
  110OSM    C6F11329   5.118   1.076   5.207
  110OSM    H6F11330   5.015   1.114   5.221
  110OSM    H6G11331   5.119   0.965   5.201
  110OSM    C7F11332   5.178   1.134   5.081
  110OSM    H7F11333   5.286   1.109   5.068
  110OSM    H7G11334   5.171   1.245   5.083
  110OSM    C8F11335   5.108   1.090   4.953
  110OSM    H8F11336   5.002   1.122   4.963
  110OSM    H8G11337   5.105   0.980   4.945
  110OSM    C9F11338   5.179   1.153   4.835
  110OSM    H9F11339   5.169   1.262   4.838
  110OSM   C10F11340   5.266   1.102   4.753
  110OSM   H10F11341   5.288   1.157   4.660
  110OSM   C11F11342   5.303   0.960   4.740
  110OSM   H11F11343   5.281   0.919   4.639
  110OSM   H11G11344   5.241   0.895   4.804
  110OSM   C12F11345   5.456   0.938   4.778
  110OSM   H12F11346   5.512   1.023   4.733
  110OSM   H12G11347   5.485   0.840   4.734
  110OSM   C13F11348   5.475   0.929   4.926
  110OSM   H13F11349   5.445   1.017   4.988
  110OSM   H13G11350   5.584   0.928   4.947
  110OSM   C14F11351   5.423   0.797   4.989
  110OSM   H14F11352   5.476   0.710   4.944
  110OSM   H14G11353   5.314   0.787   4.973
  110OSM   C15F11354   5.446   0.785   5.141
  110OSM   H15F11355   5.422   0.880   5.194
  110OSM   H15G11356   5.553   0.764   5.159
  110OSM   C16F11357   5.373   0.670   5.212
  110OSM   H16F11358   5.262   0.684   5.218
  110OSM   H16G11359   5.416   0.685   5.314
  110OSM   C17F11360   5.408   0.531   5.160
  110OSM   H17F11361   5.365   0.532   5.058
  110OSM   H17G11362   5.358   0.455   5.225
  110OSM   C18F11363   5.556   0.490   5.148
  110OSM   H18F11364   5.609   0.569   5.091
  110OSM   H18G11365   5.558   0.392   5.094
  110OSM   H18H11366   5.594   0.477   5.251
  111OSM      N11367   0.925   3.650   6.415
  111OSM    C1511368   0.915   3.513   6.354
  111OSM   H15A11369   0.872   3.508   6.254
  111OSM   H15B11370   0.857   3.441   6.410
  111OSM   H15C11371   1.009   3.461   6.349
  111OSM    C1411372   0.973   3.624   6.557
  111OSM   H14A11373   1.076   3.593   6.568
  111OSM   H14B11374   0.922   3.542   6.604
  111OSM   H14C11375   0.954   3.711   6.619
  111OSM    C1311376   1.025   3.735   6.355
  111OSM   H13A11377   1.035   3.828   6.409
  111OSM   H13B11378   0.993   3.765   6.256
  111OSM   H13C11379   1.117   3.680   6.343
  111OSM    C1211380   0.797   3.714   6.410
  111OSM   H12A11381   0.791   3.806   6.465
  111OSM   H12B11382   0.720   3.656   6.459
  111OSM    C1111383   0.748   3.763   6.265
  111OSM   H11A11384   0.640   3.782   6.283
  111OSM   H11B11385   0.762   3.676   6.196
  111OSM      P11386   0.798   4.024   6.278
  111OSM    O1311387   0.686   4.020   6.372
  111OSM    O1411388   0.930   4.074   6.324
  111OSM    O1111389   0.747   4.110   6.157
  111OSM    O1211390   0.822   3.877   6.223
  111OSM    C1S11391   0.782   4.249   6.145
  111OSM    H1S11392   0.887   4.271   6.174
  111OSM    H1T11393   0.722   4.308   6.218
  111OSM     NF11394   0.822   4.396   5.955
  111OSM    HNF11395   0.800   4.490   5.979
  111OSM    C2S11396   0.734   4.292   6.005
  111OSM    H2S11397   0.749   4.213   5.929
  111OSM    C3S11398   0.588   4.334   6.005
  111OSM    H3S11399   0.574   4.424   6.068
  111OSM     O311400   0.508   4.229   6.056
  111OSM    HO311401   0.574   4.163   6.077
  111OSM    C4S11402   0.550   4.373   5.860
  111OSM    H4S11403   0.586   4.302   5.784
  111OSM    C5S11404   0.494   4.494   5.828
  111OSM    H5S11405   0.489   4.563   5.913
  111OSM    C6S11406   0.460   4.548   5.687
  111OSM    H6S11407   0.533   4.627   5.657
  111OSM    H6T11408   0.361   4.600   5.679
  111OSM    C7S11409   0.466   4.430   5.585
  111OSM    H7S11410   0.402   4.345   5.618
  111OSM    H7T11411   0.573   4.404   5.572
  111OSM    C8S11412   0.421   4.488   5.441
  111OSM    H8S11413   0.497   4.559   5.401
  111OSM    H8T11414   0.325   4.542   5.453
  111OSM    C9S11415   0.400   4.392   5.328
  111OSM    H9S11416   0.321   4.317   5.351
  111OSM    H9T11417   0.488   4.339   5.287
  111OSM   C10S11418   0.345   4.459   5.203
  111OSM   H10S11419   0.404   4.548   5.173
  111OSM   H10T11420   0.239   4.489   5.220
  111OSM   C11S11421   0.339   4.359   5.088
  111OSM   H11S11422   0.283   4.267   5.116
  111OSM   H11T11423   0.440   4.333   5.051
  111OSM   C12S11424   0.262   4.414   4.967
  111OSM   H12S11425   0.313   4.508   4.938
  111OSM   H12T11426   0.157   4.437   4.992
  111OSM   C13S11427   0.257   4.320   4.841
  111OSM   H13S11428   0.213   4.223   4.873
  111OSM   H13T11429   0.353   4.295   4.792
  111OSM   C14S11430   0.155   4.367   4.741
  111OSM   H14S11431   0.060   4.331   4.787
  111OSM   H14T11432   0.169   4.303   4.651
  111OSM   C15S11433   0.149   4.516   4.706
  111OSM   H15S11434   0.249   4.565   4.702
  111OSM   H15T11435   0.080   4.565   4.778
  111OSM   C16S11436   0.088   4.543   4.568
  111OSM   H16S11437   6.878   4.528   4.567
  111OSM   H16T11438   0.127   4.476   4.488
  111OSM   C17S11439   0.124   4.685   4.517
  111OSM   H17S11440   0.232   4.708   4.507
  111OSM   H17T11441   0.072   4.750   4.590
  111OSM   C18S11442   0.064   4.716   4.377
  111OSM   H18S11443   0.092   4.818   4.343
  111OSM   H18T11444   6.854   4.711   4.388
  111OSM   H18U11445   0.099   4.647   4.297
  111OSM    C1F11446   0.942   4.361   5.910
  111OSM     OF11447   0.977   4.244   5.912
  111OSM    C2F11448   1.036   4.462   5.855
  111OSM    H2F11449   1.113   4.401   5.804
  111OSM    H2G11450   1.087   4.521   5.933
  111OSM    C3F11451   0.972   4.548   5.746
  111OSM    H3F11452   1.053   4.623   5.733
  111OSM    H3G11453   0.880   4.605   5.770
  111OSM    C4F11454   0.942   4.490   5.607
  111OSM    H4F11455   0.864   4.411   5.619
  111OSM    H4G11456   1.027   4.432   5.564
  111OSM    C5F11457   0.892   4.589   5.505
  111OSM    H5F11458   0.976   4.660   5.486
  111OSM    H5G11459   0.800   4.635   5.545
  111OSM    C6F11460   0.863   4.510   5.370
  111OSM    H6F11461   0.784   4.434   5.388
  111OSM    H6G11462   0.956   4.467   5.325
  111OSM    C7F11463   0.802   4.615   5.266
  111OSM    H7F11464   0.884   4.688   5.249
  111OSM    H7G11465   0.709   4.648   5.317
  111OSM    C8F11466   0.762   4.557   5.127
  111OSM    H8F11467   0.705   4.462   5.134
  111OSM    H8G11468   0.856   4.528   5.076
  111OSM    C9F11469   0.687   4.657   5.047
  111OSM    H9F11470   0.584   4.670   5.084
  111OSM   C10F11471   0.719   4.723   4.936
  111OSM   H10F11472   0.638   4.779   4.887
  111OSM   C11F11473   0.845   4.709   4.855
  111OSM   H11F11474   0.927   4.715   4.929
  111OSM   H11G11475   0.847   4.801   4.793
  111OSM   C12F11476   0.850   4.581   4.774
  111OSM   H12F11477   0.845   4.487   4.832
  111OSM   H12G11478   0.945   4.575   4.716
  111OSM   C13F11479   0.742   4.572   4.662
  111OSM   H13F11480   0.739   4.665   4.602
  111OSM   H13G11481   0.644   4.554   4.711
  111OSM   C14F11482   0.764   4.456   4.567
  111OSM   H14F11483   0.819   4.370   4.611
  111OSM   H14G11484   0.818   4.495   4.478
  111OSM   C15F11485   0.637   4.391   4.515
  111OSM   H15F11486   0.585   4.357   4.607
  111OSM   H15G11487   0.655   4.305   4.447
  111OSM   C16F11488   0.547   4.497   4.449
  111OSM   H16F11489   0.573   4.602   4.473
  111OSM   H16G11490   0.448   4.471   4.493
  111OSM   C17F11491   0.511   4.482   4.303
  111OSM   H17F11492   0.431   4.553   4.272
  111OSM   H17G11493   0.473   4.378   4.286
  111OSM   C18F11494   0.634   4.501   4.215
  111OSM   H18F11495   0.672   4.602   4.241
  111OSM   H18G11496   0.626   4.510   4.104
  111OSM   H18H11497   0.710   4.424   4.242
  112OSM      N11498   2.809   1.834   6.900
  112OSM    C1511499   2.799   1.684   6.891
  112OSM   H15A11500   2.790   1.657   6.787
  112OSM   H15B11501   2.711   1.654   6.946
  112OSM   H15C11502   2.886   1.631   6.926
  112OSM    C1411503   2.913   1.875   6.795
  112OSM   H14A11504   2.889   1.843   6.695
  112OSM   H14B11505   3.015   1.850   6.817
  112OSM   H14C11506   2.900   1.982   6.794
  112OSM    C1311507   2.679   1.887   6.845
  112OSM   H13A11508   2.672   1.858   6.741
  112OSM   H13B11509   2.668   1.994   6.837
  112OSM   H13C11510   2.590   1.850   6.894
  112OSM    C1211511   2.836   1.895   7.030
  112OSM   H12A11512   2.756   1.865   7.096
  112OSM   H12B11513   2.824   2.002   7.020
  112OSM    C1111514   2.972   1.868   7.098
  112OSM   H11A11515   2.995   1.760   7.105
  112OSM   H11B11516   2.958   1.897   7.204
  112OSM      P11517   3.118   2.073   7.046
  112OSM    O1311518   2.998   2.133   7.105
  112OSM    O1411519   3.246   2.091   7.122
  112OSM    O1111520   3.145   2.116   6.899
  112OSM    O1211521   3.091   1.916   7.030
  112OSM    C1S11522   3.222   2.032   6.812
  112OSM    H1S11523   3.175   1.936   6.781
  112OSM    H1T11524   3.321   2.004   6.854
  112OSM     NF11525   3.320   2.017   6.582
  112OSM    HNF11526   3.418   2.038   6.576
  112OSM    C2S11527   3.247   2.099   6.674
  112OSM    H2S11528   3.142   2.111   6.638
  112OSM    C3S11529   3.300   2.247   6.692
  112OSM    H3S11530   3.393   2.237   6.751
  112OSM     O311531   3.213   2.336   6.759
  112OSM    HO311532   3.134   2.282   6.751
  112OSM    C4S11533   3.334   2.314   6.558
  112OSM    H4S11534   3.442   2.328   6.545
  112OSM    C5S11535   3.256   2.352   6.455
  112OSM    H5S11536   3.149   2.325   6.455
  112OSM    C6S11537   3.297   2.428   6.334
  112OSM    H6S11538   3.231   2.517   6.333
  112OSM    H6T11539   3.268   2.359   6.252
  112OSM    C7S11540   3.445   2.474   6.319
  112OSM    H7S11541   3.508   2.384   6.303
  112OSM    H7T11542   3.474   2.534   6.408
  112OSM    C8S11543   3.451   2.579   6.209
  112OSM    H8S11544   3.559   2.602   6.196
  112OSM    H8T11545   3.408   2.671   6.254
  112OSM    C9S11546   3.388   2.538   6.073
  112OSM    H9S11547   3.278   2.551   6.080
  112OSM    H9T11548   3.410   2.431   6.052
  112OSM   C10S11549   3.445   2.627   5.965
  112OSM   H10S11550   3.553   2.608   5.951
  112OSM   H10T11551   3.445   2.735   5.994
  112OSM   C11S11552   3.389   2.603   5.829
  112OSM   H11S11553   3.284   2.640   5.826
  112OSM   H11T11554   3.378   2.495   5.806
  112OSM   C12S11555   3.475   2.669   5.715
  112OSM   H12S11556   3.565   2.610   5.690
  112OSM   H12T11557   3.509   2.770   5.745
  112OSM   C13S11558   3.403   2.684   5.580
  112OSM   H13S11559   3.339   2.774   5.573
  112OSM   H13T11560   3.329   2.601   5.570
  112OSM   C14S11561   3.498   2.685   5.458
  112OSM   H14S11562   3.565   2.597   5.470
  112OSM   H14T11563   3.565   2.773   5.454
  112OSM   C15S11564   3.423   2.668   5.326
  112OSM   H15S11565   3.400   2.769   5.287
  112OSM   H15T11566   3.322   2.626   5.349
  112OSM   C16S11567   3.506   2.600   5.220
  112OSM   H16S11568   3.503   2.492   5.243
  112OSM   H16T11569   3.611   2.637   5.222
  112OSM   C17S11570   3.456   2.602   5.078
  112OSM   H17S11571   3.541   2.582   5.010
  112OSM   H17T11572   3.427   2.708   5.059
  112OSM   C18S11573   3.353   2.494   5.049
  112OSM   H18S11574   3.394   2.392   5.062
  112OSM   H18T11575   3.323   2.489   4.942
  112OSM   H18U11576   3.261   2.501   5.111
  112OSM    C1F11577   3.263   1.906   6.536
  112OSM     OF11578   3.143   1.881   6.556
  112OSM    C2F11579   3.356   1.813   6.459
  112OSM    H2F11580   3.365   1.713   6.507
  112OSM    H2G11581   3.458   1.857   6.461
  112OSM    C3F11582   3.321   1.784   6.311
  112OSM    H3F11583   3.318   1.882   6.260
  112OSM    H3G11584   3.226   1.727   6.308
  112OSM    C4F11585   3.435   1.704   6.253
  112OSM    H4F11586   3.475   1.635   6.331
  112OSM    H4G11587   3.520   1.768   6.222
  112OSM    C5F11588   3.411   1.629   6.122
  112OSM    H5F11589   3.314   1.575   6.134
  112OSM    H5G11590   3.487   1.551   6.104
  112OSM    C6F11591   3.400   1.723   5.997
  112OSM    H6F11592   3.496   1.779   6.004
  112OSM    H6G11593   3.315   1.792   6.019
  112OSM    C7F11594   3.391   1.641   5.865
  112OSM    H7F11595   3.365   1.711   5.784
  112OSM    H7G11596   3.318   1.559   5.877
  112OSM    C8F11597   3.529   1.588   5.822
  112OSM    H8F11598   3.562   1.521   5.904
  112OSM    H8G11599   3.590   1.681   5.830
  112OSM    C9F11600   3.527   1.525   5.686
  112OSM    H9F11601   3.501   1.419   5.698
  112OSM   C10F11602   3.521   1.590   5.563
  112OSM   H10F11603   3.494   1.528   5.476
  112OSM   C11F11604   3.515   1.739   5.540
  112OSM   H11F11605   3.539   1.788   5.637
  112OSM   H11G11606   3.414   1.762   5.500
  112OSM   C12F11607   3.624   1.800   5.445
  112OSM   H12F11608   3.727   1.777   5.479
  112OSM   H12G11609   3.598   1.908   5.443
  112OSM   C13F11610   3.610   1.742   5.302
  112OSM   H13F11611   3.514   1.778   5.259
  112OSM   H13G11612   3.599   1.633   5.314
  112OSM   C14F11613   3.721   1.792   5.211
  112OSM   H14F11614   3.814   1.738   5.236
  112OSM   H14G11615   3.736   1.900   5.235
  112OSM   C15F11616   3.691   1.790   5.067
  112OSM   H15F11617   3.592   1.820   5.029
  112OSM   H15G11618   3.695   1.681   5.042
  112OSM   C16F11619   3.794   1.870   4.976
  112OSM   H16F11620   3.762   1.975   4.960
  112OSM   H16G11621   3.794   1.811   4.882
  112OSM   C17F11622   3.937   1.860   5.027
  112OSM   H17F11623   3.957   1.753   5.052
  112OSM   H17G11624   3.952   1.914   5.123
  112OSM   C18F11625   4.034   1.915   4.917
  112OSM   H18F11626   4.138   1.918   4.955
  112OSM   H18G11627   4.010   2.018   4.882
  112OSM   H18H11628   4.026   1.846   4.831
  113OSM      N11629   0.036   1.286   6.390
  113OSM    C1511630   0.026   1.153   6.320
  113OSM   H15A11631   6.846   1.146   6.248
  113OSM   H15B11632   0.023   1.070   6.389
  113OSM   H15C11633   0.113   1.136   6.258
  113OSM    C1411634   6.803   1.315   6.438
  113OSM   H14A11635   6.740   1.361   6.363
  113OSM   H14B11636   6.807   1.390   6.516
  113OSM   H14C11637   6.743   1.239   6.485
  113OSM    C1311638   0.147   1.265   6.501
  113OSM   H13A11639   0.236   1.277   6.441
  113OSM   H13B11640   0.129   1.167   6.542
  113OSM   H13C11641   0.153   1.342   6.577
  113OSM    C1211642   0.070   1.401   6.301
  113OSM   H12A11643   0.095   1.485   6.365
  113OSM   H12B11644   6.880   1.427   6.248
  113OSM    C1111645   0.174   1.370   6.187
  113OSM   H11A11646   0.180   1.457   6.118
  113OSM   H11B11647   0.128   1.288   6.128
  113OSM      P11648   0.399   1.250   6.172
  113OSM    O1311649   0.524   1.246   6.249
  113OSM    O1411650   0.326   1.122   6.147
  113OSM    O1111651   0.423   1.341   6.046
  113OSM    O1211652   0.297   1.336   6.251
  113OSM    C1S11653   0.352   1.342   5.925
  113OSM    H1S11654   0.259   1.282   5.936
  113OSM    H1T11655   0.410   1.296   5.841
  113OSM     NF11656   0.238   1.493   5.753
  113OSM    HNF11657   0.281   1.503   5.664
  113OSM    C2S11658   0.318   1.489   5.871
  113OSM    H2S11659   0.251   1.528   5.950
  113OSM    C3S11660   0.445   1.580   5.861
  113OSM    H3S11661   0.527   1.532   5.804
  113OSM     O311662   0.504   1.603   5.990
  113OSM    HO311663   0.458   1.539   6.045
  113OSM    C4S11664   0.415   1.719   5.796
  113OSM    H4S11665   0.475   1.746   5.708
  113OSM    C5S11666   0.355   1.830   5.855
  113OSM    H5S11667   0.319   1.812   5.957
  113OSM    C6S11668   0.323   1.969   5.801
  113OSM    H6S11669   0.377   2.049   5.856
  113OSM    H6T11670   0.215   1.995   5.811
  113OSM    C7S11671   0.364   1.991   5.651
  113OSM    H7S11672   0.299   1.927   5.587
  113OSM    H7T11673   0.471   1.971   5.631
  113OSM    C8S11674   0.341   2.137   5.611
  113OSM    H8S11675   0.399   2.190   5.689
  113OSM    H8T11676   0.233   2.159   5.623
  113OSM    C9S11677   0.371   2.179   5.469
  113OSM    H9S11678   0.468   2.140   5.433
  113OSM    H9T11679   0.380   2.290   5.471
  113OSM   C10S11680   0.267   2.136   5.369
  113OSM   H10S11681   0.170   2.184   5.397
  113OSM   H10T11682   0.255   2.026   5.360
  113OSM   C11S11683   0.300   2.176   5.223
  113OSM   H11S11684   0.212   2.146   5.162
  113OSM   H11T11685   0.392   2.119   5.197
  113OSM   C12S11686   0.311   2.325   5.198
  113OSM   H12S11687   0.383   2.364   5.273
  113OSM   H12T11688   0.213   2.373   5.219
  113OSM   C13S11689   0.359   2.358   5.059
  113OSM   H13S11690   0.453   2.301   5.042
  113OSM   H13T11691   0.375   2.467   5.040
  113OSM   C14S11692   0.259   2.321   4.944
  113OSM   H14S11693   0.164   2.376   4.962
  113OSM   H14T11694   0.233   2.213   4.950
  113OSM   C15S11695   0.319   2.355   4.810
  113OSM   H15S11696   0.421   2.314   4.791
  113OSM   H15T11697   0.329   2.464   4.792
  113OSM   C16S11698   0.228   2.305   4.692
  113OSM   H16S11699   0.127   2.348   4.708
  113OSM   H16T11700   0.218   2.194   4.689
  113OSM   C17S11701   0.281   2.344   4.555
  113OSM   H17S11702   0.312   2.451   4.551
  113OSM   H17T11703   0.203   2.348   4.475
  113OSM   C18S11704   0.396   2.251   4.516
  113OSM   H18S11705   0.391   2.143   4.538
  113OSM   H18T11706   0.480   2.288   4.578
  113OSM   H18U11707   0.434   2.265   4.413
  113OSM    C1F11708   0.108   1.456   5.759
  113OSM     OF11709   0.057   1.391   5.848
  113OSM    C2F11710   0.023   1.492   5.642
  113OSM    H2F11711   0.089   1.485   5.553
  113OSM    H2G11712   6.899   1.600   5.652
  113OSM    C3F11713   6.796   1.402   5.613
  113OSM    H3F11714   6.737   1.419   5.706
  113OSM    H3G11715   6.820   1.295   5.593
  113OSM    C4F11716   6.704   1.450   5.498
  113OSM    H4F11717   6.674   1.555   5.517
  113OSM    H4G11718   6.613   1.386   5.504
  113OSM    C5F11719   6.763   1.445   5.359
  113OSM    H5F11720   6.819   1.349   5.350
  113OSM    H5G11721   6.841   1.525   5.357
  113OSM    C6F11722   6.658   1.465   5.250
  113OSM    H6F11723   6.632   1.573   5.238
  113OSM    H6G11724   6.569   1.404   5.273
  113OSM    C7F11725   6.710   1.411   5.113
  113OSM    H7F11726   6.635   1.412   5.031
  113OSM    H7G11727   6.734   1.307   5.144
  113OSM    C8F11728   6.850   1.459   5.067
  113OSM    H8F11729   0.019   1.474   5.154
  113OSM    H8G11730   6.821   1.562   5.037
  113OSM    C9F11731   0.008   1.376   4.953
  113OSM    H9F11732   0.014   1.268   4.974
  113OSM   C10F11733   0.047   1.408   4.827
  113OSM   H10F11734   0.099   1.334   4.764
  113OSM   C11F11735   0.042   1.538   4.767
  113OSM   H11F11736   0.041   1.620   4.842
  113OSM   H11G11737   6.850   1.535   4.705
  113OSM   C12F11738   0.160   1.570   4.670
  113OSM   H12F11739   0.160   1.492   4.590
  113OSM   H12G11740   0.258   1.573   4.720
  113OSM   C13F11741   0.163   1.712   4.611
  113OSM   H13F11742   0.188   1.778   4.696
  113OSM   H13G11743   0.061   1.737   4.574
  113OSM   C14F11744   0.257   1.721   4.497
  113OSM   H14F11745   0.221   1.646   4.424
  113OSM   H14G11746   0.361   1.693   4.523
  113OSM   C15F11747   0.265   1.862   4.433
  113OSM   H15F11748   0.321   1.933   4.497
  113OSM   H15G11749   0.164   1.909   4.435
  113OSM   C16F11750   0.309   1.882   4.289
  113OSM   H16F11751   0.337   1.988   4.276
  113OSM   H16G11752   0.220   1.863   4.225
  113OSM   C17F11753   0.426   1.793   4.241
  113OSM   H17F11754   0.382   1.692   4.226
  113OSM   H17G11755   0.497   1.784   4.326
  113OSM   C18F11756   0.472   1.833   4.100
  113OSM   H18F11757   0.535   1.925   4.094
  113OSM   H18G11758   0.394   1.853   4.024
  113OSM   H18H11759   0.550   1.763   4.063
  114OSM      N11760   6.366   0.868   6.621
  114OSM    C1511761   6.486   0.805   6.675
  114OSM   H15A11762   6.502   0.701   6.655
  114OSM   H15B11763   6.494   0.826   6.781
  114OSM   H15C11764   6.575   0.855   6.639
  114OSM    C1411765   6.247   0.790   6.649
  114OSM   H14A11766   6.252   0.746   6.747
  114OSM   H14B11767   6.259   0.705   6.583
  114OSM   H14C11768   6.151   0.836   6.630
  114OSM    C1311769   6.362   1.002   6.686
  114OSM   H13A11770   6.451   1.060   6.670
  114OSM   H13B11771   6.358   0.979   6.792
  114OSM   H13C11772   6.275   1.058   6.653
  114OSM    C1211773   6.383   0.889   6.468
  114OSM   H12A11774   6.453   0.970   6.455
  114OSM   H12B11775   6.288   0.922   6.428
  114OSM    C1111776   6.417   0.757   6.386
  114OSM   H11A11777   6.494   0.708   6.448
  114OSM   H11B11778   6.460   0.796   6.291
  114OSM      P11779   6.193   0.730   6.264
  114OSM    O1311780   6.084   0.635   6.274
  114OSM    O1411781   6.162   0.878   6.285
  114OSM    O1111782   6.266   0.722   6.117
  114OSM    O1211783   6.299   0.678   6.369
  114OSM    C1S11784   6.307   0.595   6.069
  114OSM    H1S11785   6.250   0.511   6.114
  114OSM    H1T11786   6.414   0.575   6.089
  114OSM     NF11787   6.315   0.458   5.844
  114OSM    HNF11788   6.386   0.450   5.774
  114OSM    C2S11789   6.296   0.594   5.913
  114OSM    H2S11790   6.194   0.627   5.886
  114OSM    C3S11791   6.385   0.711   5.854
  114OSM    H3S11792   6.493   0.692   5.867
  114OSM     O311793   6.356   0.840   5.911
  114OSM    HO311794   6.326   0.821   6.001
  114OSM    C4S11795   6.376   0.733   5.704
  114OSM    H4S11796   6.448   0.667   5.654
  114OSM    C5S11797   6.298   0.816   5.631
  114OSM    H5S11798   6.235   0.891   5.682
  114OSM    C6S11799   6.310   0.826   5.483
  114OSM    H6S11800   6.365   0.917   5.453
  114OSM    H6T11801   6.206   0.829   5.444
  114OSM    C7S11802   6.386   0.714   5.405
  114OSM    H7S11803   6.358   0.611   5.438
  114OSM    H7T11804   6.492   0.712   5.438
  114OSM    C8S11805   6.378   0.745   5.256
  114OSM    H8S11806   6.415   0.845   5.226
  114OSM    H8T11807   6.273   0.727   5.224
  114OSM    C9S11808   6.474   0.654   5.181
  114OSM    H9S11809   6.427   0.554   5.184
  114OSM    H9T11810   6.571   0.631   5.229
  114OSM   C10S11811   6.503   0.712   5.042
  114OSM   H10S11812   6.609   0.732   5.018
  114OSM   H10T11813   6.456   0.812   5.035
  114OSM   C11S11814   6.443   0.637   4.920
  114OSM   H11S11815   6.350   0.580   4.945
  114OSM   H11T11816   6.506   0.547   4.903
  114OSM   C12S11817   6.402   0.727   4.801
  114OSM   H12S11818   6.493   0.769   4.754
  114OSM   H12T11819   6.341   0.811   4.842
  114OSM   C13S11820   6.335   0.646   4.685
  114OSM   H13S11821   6.276   0.723   4.630
  114OSM   H13T11822   6.263   0.567   4.713
  114OSM   C14S11823   6.433   0.582   4.582
  114OSM   H14S11824   6.490   0.500   4.630
  114OSM   H14T11825   6.503   0.661   4.549
  114OSM   C15S11826   6.358   0.527   4.457
  114OSM   H15S11827   6.424   0.490   4.376
  114OSM   H15T11828   6.292   0.605   4.412
  114OSM   C16S11829   6.270   0.407   4.494
  114OSM   H16S11830   6.191   0.441   4.565
  114OSM   H16T11831   6.331   0.327   4.543
  114OSM   C17S11832   6.191   0.357   4.370
  114OSM   H17S11833   6.267   0.341   4.290
  114OSM   H17T11834   6.120   0.436   4.338
  114OSM   C18S11835   6.106   0.229   4.378
  114OSM   H18S11836   6.159   0.136   4.405
  114OSM   H18T11837   6.039   0.226   4.289
  114OSM   H18U11838   6.037   0.238   4.464
  114OSM    C1F11839   6.230   0.358   5.864
  114OSM     OF11840   6.149   0.369   5.958
  114OSM    C2F11841   6.242   0.248   5.776
  114OSM    H2F11842   6.201   0.153   5.816
  114OSM    H2G11843   6.346   0.235   5.741
  114OSM    C3F11844   6.159   0.276   5.643
  114OSM    H3F11845   6.208   0.355   5.584
  114OSM    H3G11846   6.053   0.300   5.669
  114OSM    C4F11847   6.146   0.150   5.556
  114OSM    H4F11848   6.080   0.070   5.595
  114OSM    H4G11849   6.246   0.105   5.536
  114OSM    C5F11850   6.098   0.190   5.416
  114OSM    H5F11851   6.019   0.267   5.431
  114OSM    H5G11852   6.056   0.098   5.369
  114OSM    C6F11853   6.195   0.254   5.320
  114OSM    H6F11854   6.272   0.174   5.317
  114OSM    H6G11855   6.233   0.342   5.376
  114OSM    C7F11856   6.137   0.283   5.179
  114OSM    H7F11857   6.074   0.374   5.194
  114OSM    H7G11858   6.086   0.194   5.138
  114OSM    C8F11859   6.248   0.315   5.082
  114OSM    H8F11860   6.315   0.227   5.080
  114OSM    H8G11861   6.308   0.403   5.114
  114OSM    C9F11862   6.201   0.341   4.947
  114OSM    H9F11863   6.158   0.441   4.930
  114OSM   C10F11864   6.181   0.251   4.849
  114OSM   H10F11865   6.148   0.292   4.753
  114OSM   C11F11866   6.226   0.102   4.851
  114OSM   H11F11867   6.279   0.070   4.944
  114OSM   H11G11868   6.285   0.086   4.758
  114OSM   C12F11869   6.111   0.003   4.846
  114OSM   H12F11870   6.078   6.880   4.949
  114OSM   H12G11871   6.157   6.806   4.818
  114OSM   C13F11872   6.012   0.045   4.741
  114OSM   H13F11873   6.068   0.084   4.653
  114OSM   H13G11874   5.965   0.136   4.784
  114OSM   C14F11875   5.926   6.822   4.697
  114OSM   H14F11876   5.878   6.773   4.785
  114OSM   H14G11877   5.993   6.743   4.658
  114OSM   C15F11878   5.820   6.862   4.599
  114OSM   H15F11879   5.760   6.771   4.576
  114OSM   H15G11880   5.851   6.900   4.499
  114OSM   C16F11881   5.725   0.075   4.650
  114OSM   H16F11882   5.657   0.108   4.568
  114OSM   H16G11883   5.782   0.169   4.666
  114OSM   C17F11884   5.657   0.039   4.772
  114OSM   H17F11885   5.693   6.842   4.814
  114OSM   H17G11886   5.555   0.007   4.743
  114OSM   C18F11887   5.641   0.156   4.876
  114OSM   H18F11888   5.604   0.246   4.823
  114OSM   H18G11889   5.745   0.178   4.908
  114OSM   H18H11890   5.573   0.132   4.960
  115OSM      N11891   6.398   3.258   7.069
  115OSM    C1511892   6.468   3.238   7.203
  115OSM   H15A11893   6.523   3.145   7.205
  115OSM   H15B11894   6.400   3.235   7.287
  115OSM   H15C11895   6.542   3.313   7.228
  115OSM    C1411896   6.287   3.160   7.061
  115OSM   H14A11897   6.321   3.057   7.068
  115OSM   H14B11898   6.239   3.169   6.964
  115OSM   H14C11899   6.213   3.173   7.139
  115OSM    C1311900   6.338   3.392   7.067
  115OSM   H13A11901   6.259   3.405   7.140
  115OSM   H13B11902   6.306   3.414   6.966
  115OSM   H13C11903   6.411   3.468   7.093
  115OSM    C1211904   6.497   3.233   6.951
  115OSM   H12A11905   6.530   3.130   6.949
  115OSM   H12B11906   6.583   3.297   6.964
  115OSM    C1111907   6.448   3.263   6.808
  115OSM   H11A11908   6.377   3.193   6.760
  115OSM   H11B11909   6.535   3.241   6.743
  115OSM      P11910   6.487   3.518   6.759
  115OSM    O1311911   6.432   3.640   6.827
  115OSM    O1411912   6.632   3.485   6.778
  115OSM    O1111913   6.476   3.548   6.610
  115OSM    O1211914   6.391   3.391   6.776
  115OSM    C1S11915   6.506   3.468   6.497
  115OSM    H1S11916   6.486   3.362   6.524
  115OSM    H1T11917   6.617   3.459   6.490
  115OSM     NF11918   6.488   3.404   6.267
  115OSM    HNF11919   6.575   3.410   6.218
  115OSM    C2S11920   6.445   3.509   6.362
  115OSM    H2S11921   6.335   3.512   6.375
  115OSM    C3S11922   6.511   3.646   6.328
  115OSM    H3S11923   6.620   3.640   6.306
  115OSM     O311924   6.516   3.728   6.439
  115OSM    HO311925   6.475   3.684   6.514
  115OSM    C4S11926   6.441   3.711   6.206
  115OSM    H4S11927   6.493   3.681   6.114
  115OSM    C5S11928   6.348   3.804   6.195
  115OSM    H5S11929   6.294   3.839   6.285
  115OSM    C6S11930   6.291   3.862   6.065
  115OSM    H6S11931   6.312   3.971   6.069
  115OSM    H6T11932   6.183   3.838   6.050
  115OSM    C7S11933   6.353   3.816   5.934
  115OSM    H7S11934   6.350   3.705   5.927
  115OSM    H7T11935   6.460   3.844   5.924
  115OSM    C8S11936   6.281   3.867   5.806
  115OSM    H8S11937   6.298   3.977   5.811
  115OSM    H8T11938   6.172   3.847   5.811
  115OSM    C9S11939   6.343   3.814   5.676
  115OSM    H9S11940   6.375   3.708   5.688
  115OSM    H9T11941   6.439   3.869   5.671
  115OSM   C10S11942   6.252   3.829   5.555
  115OSM   H10S11943   6.236   3.938   5.540
  115OSM   H10T11944   6.158   3.774   5.577
  115OSM   C11S11945   6.316   3.763   5.434
  115OSM   H11S11946   6.348   3.658   5.453
  115OSM   H11T11947   6.411   3.817   5.415
  115OSM   C12S11948   6.229   3.779   5.312
  115OSM   H12S11949   6.207   3.886   5.294
  115OSM   H12T11950   6.135   3.729   5.344
  115OSM   C13S11951   6.278   3.714   5.187
  115OSM   H13S11952   6.337   3.622   5.206
  115OSM   H13T11953   6.349   3.784   5.140
  115OSM   C14S11954   6.159   3.659   5.099
  115OSM   H14S11955   6.066   3.646   5.158
  115OSM   H14T11956   6.181   3.557   5.061
  115OSM   C15S11957   6.122   3.762   4.993
  115OSM   H15S11958   6.093   3.857   5.043
  115OSM   H15T11959   6.032   3.725   4.940
  115OSM   C16S11960   6.238   3.779   4.886
  115OSM   H16S11961   6.334   3.788   4.941
  115OSM   H16T11962   6.219   3.869   4.823
  115OSM   C17S11963   6.250   3.659   4.792
  115OSM   H17S11964   6.146   3.637   4.760
  115OSM   H17T11965   6.279   3.558   4.828
  115OSM   C18S11966   6.354   3.680   4.681
  115OSM   H18S11967   6.444   3.733   4.719
  115OSM   H18T11968   6.312   3.748   4.604
  115OSM   H18U11969   6.371   3.588   4.620
  115OSM    C1F11970   6.427   3.285   6.272
  115OSM     OF11971   6.322   3.271   6.333
  115OSM    C2F11972   6.488   3.180   6.191
  115OSM    H2F11973   6.445   3.082   6.220
  115OSM    H2G11974   6.598   3.182   6.206
  115OSM    C3F11975   6.465   3.203   6.040
  115OSM    H3F11976   6.514   3.297   6.005
  115OSM    H3G11977   6.359   3.234   6.026
  115OSM    C4F11978   6.525   3.090   5.958
  115OSM    H4F11979   6.470   2.996   5.977
  115OSM    H4G11980   6.632   3.073   5.984
  115OSM    C5F11981   6.517   3.122   5.808
  115OSM    H5F11982   6.561   3.218   5.773
  115OSM    H5G11983   6.407   3.126   5.793
  115OSM    C6F11984   6.561   3.004   5.719
  115OSM    H6F11985   6.533   2.912   5.775
  115OSM    H6G11986   6.672   3.006   5.721
  115OSM    C7F11987   6.499   3.003   5.588
  115OSM    H7F11988   6.526   3.092   5.528
  115OSM    H7G11989   6.389   3.004   5.606
  115OSM    C8F11990   6.536   2.871   5.512
  115OSM    H8F11991   6.456   2.853   5.437
  115OSM    H8G11992   6.524   2.788   5.585
  115OSM    C9F11993   6.679   2.870   5.466
  115OSM    H9F11994   6.751   2.838   5.543
  115OSM   C10F11995   6.720   2.864   5.335
  115OSM   H10F11996   6.828   2.873   5.319
  115OSM   C11F11997   6.626   2.902   5.220
  115OSM   H11F11998   6.540   2.966   5.251
  115OSM   H11G11999   6.568   2.822   5.170
  115OSM   C12F12000   6.715   2.971   5.116
  115OSM   H12F12001   6.787   2.898   5.073
  115OSM   H12G12002   6.771   3.048   5.171
  115OSM   C13F12003   6.654   3.030   4.992
  115OSM   H13F12004   6.734   3.097   4.952
  115OSM   H13G12005   6.572   3.103   5.010
  115OSM   C14F12006   6.597   2.925   4.889
  115OSM   H14F12007   6.504   2.872   4.919
  115OSM   H14G12008   6.676   2.849   4.871
  115OSM   C15F12009   6.574   2.991   4.751
  115OSM   H15F12010   6.572   2.919   4.667
  115OSM   H15G12011   6.655   3.057   4.714
  115OSM   C16F12012   6.442   3.065   4.743
  115OSM   H16F12013   6.428   3.162   4.796
  115OSM   H16G12014   6.362   3.006   4.793
  115OSM   C17F12015   6.401   3.080   4.591
  115OSM   H17F12016   6.337   2.994   4.559
  115OSM   H17G12017   6.493   3.085   4.528
  115OSM   C18F12018   6.320   3.199   4.549
  115OSM   H18F12019   6.226   3.193   4.609
  115OSM   H18G12020   6.284   3.185   4.445
  115OSM   H18H12021   6.363   3.299   4.572
  116OSM      N12022   1.180   1.755   6.785
  116OSM    C1512023   1.068   1.754   6.891
  116OSM   H15A12024   0.980   1.795   6.843
  116OSM   H15B12025   1.087   1.815   6.979
  116OSM   H15C12026   1.039   1.652   6.911
  116OSM    C1412027   1.225   1.901   6.779
  116OSM   H14A12028   1.141   1.967   6.765
  116OSM   H14B12029   1.286   1.911   6.690
  116OSM   H14C12030   1.287   1.926   6.864
  116OSM    C1312031   1.303   1.683   6.830
  116OSM   H13A12032   1.388   1.715   6.772
  116OSM   H13B12033   1.294   1.576   6.814
  116OSM   H13C12034   1.326   1.703   6.934
  116OSM    C1212035   1.127   1.703   6.653
  116OSM   H12A12036   1.107   1.597   6.661
  116OSM   H12B12037   1.211   1.715   6.585
  116OSM    C1112038   1.007   1.783   6.595
  116OSM   H11A12039   1.000   1.760   6.487
  116OSM   H11B12040   1.016   1.893   6.601
  116OSM      P12041   0.813   1.608   6.638
  116OSM    O1312042   0.902   1.509   6.713
  116OSM    O1412043   0.664   1.604   6.660
  116OSM    O1112044   0.833   1.584   6.486
  116OSM    O1212045   0.882   1.750   6.652
  116OSM    C1S12046   0.763   1.666   6.388
  116OSM    H1S12047   0.793   1.771   6.408
  116OSM    H1T12048   0.654   1.648   6.397
  116OSM     NF12049   0.726   1.721   6.142
  116OSM    HNF12050   0.646   1.689   6.090
  116OSM    C2S12051   0.798   1.635   6.241
  116OSM    H2S12052   0.907   1.658   6.234
  116OSM    C3S12053   0.780   1.481   6.202
  116OSM    H3S12054   0.671   1.459   6.201
  116OSM     O312055   0.846   1.398   6.301
  116OSM    HO312056   0.851   1.459   6.374
  116OSM    C4S12057   0.848   1.449   6.071
  116OSM    H4S12058   0.954   1.479   6.066
  116OSM    C5S12059   0.794   1.395   5.965
  116OSM    H5S12060   0.692   1.353   5.971
  116OSM    C6S12061   0.855   1.362   5.831
  116OSM    H6S12062   0.836   1.253   5.821
  116OSM    H6T12063   0.960   1.395   5.836
  116OSM    C7S12064   0.779   1.428   5.713
  116OSM    H7S12065   0.756   1.533   5.742
  116OSM    H7T12066   0.682   1.381   5.688
  116OSM    C8S12067   0.861   1.404   5.576
  116OSM    H8S12068   0.886   1.296   5.565
  116OSM    H8T12069   0.955   1.463   5.577
  116OSM    C9S12070   0.792   1.468   5.457
  116OSM    H9S12071   0.777   1.577   5.470
  116OSM    H9T12072   0.690   1.426   5.463
  116OSM   C10S12073   0.860   1.421   5.327
  116OSM   H10S12074   0.839   1.312   5.316
  116OSM   H10T12075   0.969   1.440   5.328
  116OSM   C11S12076   0.825   1.489   5.190
  116OSM   H11S12077   0.885   1.583   5.191
  116OSM   H11T12078   0.718   1.521   5.187
  116OSM   C12S12079   0.872   1.400   5.074
  116OSM   H12S12080   0.828   1.298   5.068
  116OSM   H12T12081   0.983   1.398   5.084
  116OSM   C13S12082   0.842   1.468   4.933
  116OSM   H13S12083   0.854   1.578   4.940
  116OSM   H13T12084   0.733   1.452   4.918
  116OSM   C14S12085   0.916   1.410   4.816
  116OSM   H14S12086   0.900   1.300   4.807
  116OSM   H14T12087   1.025   1.418   4.831
  116OSM   C15S12088   0.881   1.469   4.682
  116OSM   H15S12089   0.910   1.577   4.681
  116OSM   H15T12090   0.771   1.458   4.683
  116OSM   C16S12091   0.953   1.394   4.565
  116OSM   H16S12092   0.958   1.452   4.471
  116OSM   H16T12093   0.903   1.296   4.552
  116OSM   C17S12094   1.110   1.382   4.585
  116OSM   H17S12095   1.131   1.305   4.662
  116OSM   H17T12096   1.158   1.479   4.611
  116OSM   C18S12097   1.183   1.337   4.462
  116OSM   H18S12098   1.159   1.234   4.430
  116OSM   H18T12099   1.294   1.346   4.468
  116OSM   H18U12100   1.161   1.401   4.373
  116OSM    C1F12101   0.753   1.852   6.146
  116OSM     OF12102   0.846   1.901   6.210
  116OSM    C2F12103   0.654   1.942   6.076
  116OSM    H2F12104   0.595   1.998   6.151
  116OSM    H2G12105   0.582   1.880   6.019
  116OSM    C3F12106   0.726   2.037   5.981
  116OSM    H3F12107   0.801   2.095   6.038
  116OSM    H3G12108   0.646   2.111   5.955
  116OSM    C4F12109   0.785   1.978   5.851
  116OSM    H4F12110   0.719   1.903   5.803
  116OSM    H4G12111   0.878   1.925   5.882
  116OSM    C5F12112   0.820   2.086   5.753
  116OSM    H5F12113   0.921   2.131   5.766
  116OSM    H5G12114   0.751   2.171   5.770
  116OSM    C6F12115   0.815   2.047   5.604
  116OSM    H6F12116   0.724   1.988   5.581
  116OSM    H6G12117   0.905   1.984   5.586
  116OSM    C7F12118   0.801   2.167   5.514
  116OSM    H7F12119   0.716   2.230   5.549
  116OSM    H7G12120   0.780   2.140   5.408
  116OSM    C8F12121   0.919   2.266   5.511
  116OSM    H8F12122   0.930   2.324   5.605
  116OSM    H8G12123   0.882   2.344   5.442
  116OSM    C9F12124   1.048   2.207   5.465
  116OSM    H9F12125   1.104   2.138   5.529
  116OSM   C10F12126   1.101   2.234   5.346
  116OSM   H10F12127   1.184   2.171   5.309
  116OSM   C11F12128   1.053   2.319   5.229
  116OSM   H11F12129   1.056   2.428   5.249
  116OSM   H11G12130   0.947   2.288   5.217
  116OSM   C12F12131   1.143   2.293   5.104
  116OSM   H12F12132   1.181   2.188   5.101
  116OSM   H12G12133   1.236   2.352   5.122
  116OSM   C13F12134   1.085   2.338   4.960
  116OSM   H13F12135   1.074   2.449   4.968
  116OSM   H13G12136   0.985   2.292   4.941
  116OSM   C14F12137   1.181   2.317   4.841
  116OSM   H14F12138   1.225   2.216   4.843
  116OSM   H14G12139   1.267   2.387   4.849
  116OSM   C15F12140   1.120   2.349   4.707
  116OSM   H15F12141   1.057   2.440   4.704
  116OSM   H15G12142   1.059   2.257   4.692
  116OSM   C16F12143   1.227   2.361   4.595
  116OSM   H16F12144   1.287   2.268   4.596
  116OSM   H16G12145   1.285   2.455   4.610
  116OSM   C17F12146   1.163   2.348   4.455
  116OSM   H17F12147   1.066   2.402   4.447
  116OSM   H17G12148   1.131   2.242   4.444
  116OSM   C18F12149   1.253   2.393   4.343
  116OSM   H18F12150   1.194   2.428   4.256
  116OSM   H18G12151   1.322   2.308   4.321
  116OSM   H18H12152   1.318   2.481   4.362
  117OSM      N12153   0.327   4.286   6.373
  117OSM    C1512154   0.280   4.383   6.473
  117OSM   H15A12155   0.189   4.431   6.439
  117OSM   H15B12156   0.354   4.453   6.506
  117OSM   H15C12157   0.261   4.325   6.562
  117OSM    C1412158   0.226   4.177   6.375
  117OSM   H14A12159   0.206   4.142   6.475
  117OSM   H14B12160   0.258   4.098   6.309
  117OSM   H14C12161   0.131   4.214   6.340
  117OSM    C1312162   0.316   4.363   6.233
  117OSM   H13A12163   0.381   4.449   6.237
  117OSM   H13B12164   0.216   4.404   6.223
  117OSM   H13C12165   0.337   4.301   6.147
  117OSM    C1212166   0.468   4.241   6.414
  117OSM   H12A12167   0.511   4.173   6.342
  117OSM   H12B12168   0.472   4.177   6.502
  117OSM    C1112169   0.578   4.357   6.428
  117OSM   H11A12170   0.585   4.409   6.330
  117OSM   H11B12171   0.666   4.296   6.456
  117OSM      P12172   0.608   4.596   6.519
  117OSM    O1312173   0.542   4.665   6.635
  117OSM    O1412174   0.755   4.608   6.511
  117OSM    O1112175   0.545   4.652   6.384
  117OSM    O1212176   0.555   4.450   6.528
  117OSM    C1S12177   0.610   4.731   6.282
  117OSM    H1S12178   0.700   4.672   6.257
  117OSM    H1T12179   0.630   4.833   6.321
  117OSM     NF12180   0.573   4.819   6.046
  117OSM    HNF12181   0.532   4.902   6.011
  117OSM    C2S12182   0.515   4.739   6.162
  117OSM    H2S12183   0.493   4.633   6.134
  117OSM    C3S12184   0.369   4.798   6.196
  117OSM    H3S12185   0.377   4.908   6.203
  117OSM     O312186   0.306   4.761   6.318
  117OSM    HO312187   0.373   4.719   6.372
  117OSM    C4S12188   0.277   4.768   6.075
  117OSM    H4S12189   0.269   4.855   6.008
  117OSM    C5S12190   0.202   4.654   6.059
  117OSM    H5S12191   0.200   4.580   6.140
  117OSM    C6S12192   0.114   4.634   5.944
  117OSM    H6S12193   0.043   4.552   5.967
  117OSM    H6T12194   0.175   4.608   5.854
  117OSM    C7S12195   0.015   4.755   5.928
  117OSM    H7S12196   0.072   4.844   5.892
  117OSM    H7T12197   6.867   4.781   6.025
  117OSM    C8S12198   6.807   4.730   5.814
  117OSM    H8S12199   6.734   4.812   5.825
  117OSM    H8T12200   6.752   4.634   5.828
  117OSM    C9S12201   6.846   4.731   5.669
  117OSM    H9S12202   0.027   4.656   5.660
  117OSM    H9T12203   6.883   4.833   5.644
  117OSM   C10S12204   6.736   4.717   5.565
  117OSM   H10S12205   6.649   4.782   5.591
  117OSM   H10T12206   6.697   4.613   5.562
  117OSM   C11S12207   6.776   4.733   5.420
  117OSM   H11S12208   6.868   4.670   5.417
  117OSM   H11T12209   6.805   4.837   5.396
  117OSM   C12S12210   6.675   4.682   5.311
  117OSM   H12S12211   6.575   4.731   5.316
  117OSM   H12T12212   6.650   4.575   5.323
  117OSM   C13S12213   6.730   4.707   5.167
  117OSM   H13S12214   6.835   4.671   5.167
  117OSM   H13T12215   6.722   4.818   5.171
  117OSM   C14S12216   6.643   4.643   5.055
  117OSM   H14S12217   6.541   4.685   5.062
  117OSM   H14T12218   6.638   4.533   5.070
  117OSM   C15S12219   6.682   4.695   4.917
  117OSM   H15S12220   6.791   4.672   4.906
  117OSM   H15T12221   6.670   4.805   4.920
  117OSM   C16S12222   6.606   4.630   4.798
  117OSM   H16S12223   6.498   4.612   4.815
  117OSM   H16T12224   6.655   4.531   4.785
  117OSM   C17S12225   6.637   4.712   4.672
  117OSM   H17S12226   6.632   4.637   4.590
  117OSM   H17T12227   6.740   4.755   4.671
  117OSM   C18S12228   6.528   4.816   4.639
  117OSM   H18S12229   6.423   4.780   4.647
  117OSM   H18T12230   6.531   4.869   4.541
  117OSM   H18U12231   6.530   4.891   4.721
  117OSM    C1F12232   0.691   4.789   5.987
  117OSM     OF12233   0.734   4.676   6.007
  117OSM    C2F12234   0.746   4.890   5.888
  117OSM    H2F12235   0.703   4.985   5.926
  117OSM    H2G12236   0.712   4.858   5.787
  117OSM    C3F12237   0.903   4.885   5.902
  117OSM    H3F12238   0.941   4.781   5.891
  117OSM    H3G12239   0.930   4.914   6.006
  117OSM    C4F12240   0.987   4.963   5.807
  117OSM    H4F12241   1.096   4.956   5.825
  117OSM    H4G12242   0.946   5.066   5.797
  117OSM    C5F12243   0.969   4.906   5.669
  117OSM    H5F12244   0.897   4.822   5.659
  117OSM    H5G12245   1.067   4.880   5.625
  117OSM    C6F12246   0.915   5.004   5.561
  117OSM    H6F12247   0.989   5.069   5.509
  117OSM    H6G12248   0.839   5.062   5.619
  117OSM    C7F12249   0.839   4.936   5.445
  117OSM    H7F12250   0.762   4.867   5.484
  117OSM    H7G12251   0.907   4.876   5.381
  117OSM    C8F12252   0.763   5.024   5.347
  117OSM    H8F12253   0.678   5.067   5.405
  117OSM    H8G12254   0.718   4.967   5.263
  117OSM    C9F12255   0.842   5.141   5.296
  117OSM    H9F12256   0.859   5.219   5.371
  117OSM   C10F12257   0.913   5.146   5.189
  117OSM   H10F12258   0.982   5.232   5.178
  117OSM   C11F12259   0.938   5.051   5.076
  117OSM   H11F12260   0.870   4.963   5.084
  117OSM   H11G12261   1.044   5.018   5.082
  117OSM   C12F12262   0.920   5.103   4.930
  117OSM   H12F12263   0.825   5.156   4.907
  117OSM   H12G12264   0.931   5.016   4.862
  117OSM   C13F12265   1.032   5.202   4.891
  117OSM   H13F12266   1.127   5.152   4.920
  117OSM   H13G12267   1.016   5.293   4.953
  117OSM   C14F12268   1.025   5.245   4.742
  117OSM   H14F12269   0.922   5.274   4.711
  117OSM   H14G12270   1.057   5.157   4.683
  117OSM   C15F12271   1.125   5.358   4.718
  117OSM   H15F12272   1.219   5.337   4.774
  117OSM   H15G12273   1.100   5.461   4.754
  117OSM   C16F12274   1.141   5.383   4.564
  117OSM   H16F12275   1.041   5.409   4.525
  117OSM   H16G12276   1.170   5.287   4.515
  117OSM   C17F12277   1.240   5.491   4.514
  117OSM   H17F12278   1.338   5.460   4.557
  117OSM   H17G12279   1.213   5.587   4.563
  117OSM   C18F12280   1.237   5.507   4.365
  117OSM   H18F12281   1.289   5.601   4.338
  117OSM   H18G12282   1.132   5.518   4.332
  117OSM   H18H12283   1.289   5.417   4.326
  118OSM      N12284   6.895   3.748   6.643
  118OSM    C1512285   0.062   3.874   6.601
  118OSM   H15A12286   0.110   3.924   6.684
  118OSM   H15B12287   6.896   3.945   6.555
  118OSM   H15C12288   0.131   3.863   6.519
  118OSM    C1412289   0.107   3.654   6.689
  118OSM   H14A12290   0.163   3.708   6.764
  118OSM   H14B12291   0.180   3.636   6.612
  118OSM   H14C12292   0.077   3.555   6.717
  118OSM    C1312293   6.803   3.780   6.758
  118OSM   H13A12294   6.732   3.857   6.732
  118OSM   H13B12295   6.850   3.794   6.854
  118OSM   H13C12296   6.729   3.703   6.775
  118OSM    C1212297   6.812   3.686   6.530
  118OSM   H12A12298   6.731   3.751   6.500
  118OSM   H12B12299   6.765   3.598   6.572
  118OSM    C1112300   0.001   3.638   6.422
  118OSM   H11A12301   0.060   3.721   6.377
  118OSM   H11B12302   6.834   3.614   6.336
  118OSM      P12303   0.195   3.466   6.364
  118OSM    O1312304   0.302   3.445   6.464
  118OSM    O1412305   0.161   3.348   6.282
  118OSM    O1112306   0.218   3.588   6.266
  118OSM    O1212307   0.073   3.518   6.450
  118OSM    C1S12308   0.338   3.609   6.196
  118OSM    H1S12309   0.384   3.520   6.149
  118OSM    H1T12310   0.414   3.648   6.266
  118OSM     NF12311   0.431   3.721   5.988
  118OSM    HNF12312   0.486   3.804   5.981
  118OSM    C2S12313   0.323   3.725   6.088
  118OSM    H2S12314   0.226   3.719   6.033
  118OSM    C3S12315   0.321   3.862   6.164
  118OSM    H3S12316   0.423   3.892   6.197
  118OSM     O312317   0.259   3.862   6.296
  118OSM    HO312318   0.228   3.772   6.308
  118OSM    C4S12319   0.278   3.972   6.079
  118OSM    H4S12320   0.356   4.035   6.035
  118OSM    C5S12321   0.147   3.999   6.048
  118OSM    H5S12322   0.062   3.942   6.089
  118OSM    C6S12323   0.105   4.113   5.952
  118OSM    H6S12324   0.100   4.213   6.001
  118OSM    H6T12325   0.009   4.080   5.906
  118OSM    C7S12326   0.191   4.146   5.828
  118OSM    H7S12327   0.294   4.164   5.866
  118OSM    H7T12328   0.162   4.239   5.776
  118OSM    C8S12329   0.194   4.031   5.731
  118OSM    H8S12330   0.111   4.055   5.662
  118OSM    H8T12331   0.184   3.933   5.782
  118OSM    C9S12332   0.320   4.047   5.651
  118OSM    H9S12333   0.401   4.035   5.727
  118OSM    H9T12334   0.330   4.152   5.616
  118OSM   C10S12335   0.334   3.945   5.533
  118OSM   H10S12336   0.302   3.842   5.560
  118OSM   H10T12337   0.443   3.932   5.515
  118OSM   C11S12338   0.266   3.969   5.400
  118OSM   H11S12339   0.280   4.079   5.390
  118OSM   H11T12340   0.161   3.948   5.429
  118OSM   C12S12341   0.320   3.889   5.285
  118OSM   H12S12342   0.326   3.781   5.312
  118OSM   H12T12343   0.430   3.904   5.273
  118OSM   C13S12344   0.257   3.926   5.149
  118OSM   H13S12345   0.245   4.036   5.137
  118OSM   H13T12346   0.159   3.874   5.144
  118OSM   C14S12347   0.330   3.854   5.029
  118OSM   H14S12348   0.348   3.748   5.059
  118OSM   H14T12349   0.433   3.897   5.034
  118OSM   C15S12350   0.258   3.879   4.898
  118OSM   H15S12351   0.248   3.985   4.867
  118OSM   H15T12352   0.155   3.839   4.914
  118OSM   C16S12353   0.321   3.805   4.774
  118OSM   H16S12354   0.430   3.783   4.779
  118OSM   H16T12355   0.314   3.868   4.683
  118OSM   C17S12356   0.256   3.668   4.740
  118OSM   H17S12357   0.149   3.689   4.722
  118OSM   H17T12358   0.268   3.589   4.818
  118OSM   C18S12359   0.303   3.624   4.610
  118OSM   H18S12360   0.414   3.630   4.603
  118OSM   H18T12361   0.255   3.694   4.537
  118OSM   H18U12362   0.268   3.521   4.586
  118OSM    C1F12363   0.441   3.620   5.908
  118OSM     OF12364   0.355   3.528   5.912
  118OSM    C2F12365   0.544   3.621   5.801
  118OSM    H2F12366   0.641   3.578   5.836
  118OSM    H2G12367   0.568   3.727   5.776
  118OSM    C3F12368   0.496   3.549   5.674
  118OSM    H3F12369   0.396   3.586   5.645
  118OSM    H3G12370   0.475   3.444   5.702
  118OSM    C4F12371   0.580   3.543   5.547
  118OSM    H4F12372   0.658   3.464   5.551
  118OSM    H4G12373   0.632   3.639   5.525
  118OSM    C5F12374   0.488   3.529   5.430
  118OSM    H5F12375   0.427   3.621   5.416
  118OSM    H5G12376   0.420   3.442   5.437
  118OSM    C6F12377   0.567   3.508   5.295
  118OSM    H6F12378   0.655   3.442   5.312
  118OSM    H6G12379   0.605   3.608   5.263
  118OSM    C7F12380   0.478   3.461   5.177
  118OSM    H7F12381   0.372   3.490   5.191
  118OSM    H7G12382   0.492   3.351   5.179
  118OSM    C8F12383   0.534   3.519   5.039
  118OSM    H8F12384   0.543   3.629   5.046
  118OSM    H8G12385   0.454   3.506   4.962
  118OSM    C9F12386   0.666   3.464   4.993
  118OSM    H9F12387   0.751   3.462   5.064
  118OSM   C10F12388   0.699   3.412   4.870
  118OSM   H10F12389   0.799   3.369   4.851
  118OSM   C11F12390   0.617   3.396   4.741
  118OSM   H11F12391   0.526   3.459   4.747
  118OSM   H11G12392   0.575   3.294   4.726
  118OSM   C12F12393   0.695   3.431   4.614
  118OSM   H12F12394   0.778   3.358   4.611
  118OSM   H12G12395   0.742   3.531   4.617
  118OSM   C13F12396   0.602   3.401   4.485
  118OSM   H13F12397   0.524   3.479   4.475
  118OSM   H13G12398   0.546   3.306   4.498
  118OSM   C14F12399   0.687   3.405   4.355
  118OSM   H14F12400   0.614   3.382   4.275
  118OSM   H14G12401   0.761   3.323   4.348
  118OSM   C15F12402   0.770   3.534   4.322
  118OSM   H15F12403   0.849   3.540   4.400
  118OSM   H15G12404   0.706   3.623   4.335
  118OSM   C16F12405   0.821   3.536   4.177
  118OSM   H16F12406   0.736   3.573   4.115
  118OSM   H16G12407   0.833   3.431   4.141
  118OSM   C17F12408   0.961   3.602   4.154
  118OSM   H17F12409   0.976   3.677   4.234
  118OSM   H17G12410   0.956   3.642   4.051
  118OSM   C18F12411   1.073   3.500   4.164
  118OSM   H18F12412   1.035   3.398   4.143
  118OSM   H18G12413   1.121   3.506   4.264
  118OSM   H18H12414   1.147   3.531   4.088
  119OSM      N12415   2.671   0.638   6.371
  119OSM    C1512416   2.729   0.730   6.275
  119OSM   H15A12417   2.767   0.821   6.318
  119OSM   H15B12418   2.658   0.766   6.202
  119OSM   H15C12419   2.807   0.681   6.218
  119OSM    C1412420   2.541   0.704   6.407
  119OSM   H14A12421   2.484   0.637   6.469
  119OSM   H14B12422   2.491   0.732   6.315
  119OSM   H14C12423   2.557   0.797   6.459
  119OSM    C1312424   2.639   0.509   6.298
  119OSM   H13A12425   2.728   0.448   6.293
  119OSM   H13B12426   2.610   0.534   6.197
  119OSM   H13C12427   2.577   0.443   6.357
  119OSM    C1212428   2.768   0.617   6.487
  119OSM   H12A12429   2.731   0.534   6.545
  119OSM   H12B12430   2.764   0.703   6.551
  119OSM    C1112431   2.920   0.591   6.455
  119OSM   H11A12432   2.918   0.516   6.373
  119OSM   H11B12433   2.965   0.543   6.545
  119OSM      P12434   3.019   0.826   6.505
  119OSM    O1312435   2.894   0.878   6.556
  119OSM    O1412436   3.118   0.771   6.607
  119OSM    O1112437   3.092   0.939   6.434
  119OSM    O1212438   2.990   0.704   6.408
  119OSM    C1S12439   3.077   0.976   6.292
  119OSM    H1S12440   3.039   0.892   6.231
  119OSM    H1T12441   3.181   0.993   6.255
  119OSM     NF12442   2.976   1.134   6.130
  119OSM    HNF12443   3.036   1.211   6.111
  119OSM    C2S12444   2.974   1.091   6.269
  119OSM    H2S12445   2.877   1.038   6.279
  119OSM    C3S12446   2.991   1.212   6.365
  119OSM    H3S12447   3.094   1.255   6.362
  119OSM     O312448   2.983   1.189   6.507
  119OSM    HO312449   2.956   1.097   6.509
  119OSM    C4S12450   2.885   1.314   6.331
  119OSM    H4S12451   2.780   1.294   6.354
  119OSM    C5S12452   2.909   1.431   6.266
  119OSM    H5S12453   3.013   1.461   6.246
  119OSM    C6S12454   2.806   1.521   6.217
  119OSM    H6S12455   2.797   1.606   6.287
  119OSM    H6T12456   2.704   1.475   6.214
  119OSM    C7S12457   2.840   1.582   6.085
  119OSM    H7S12458   2.924   1.654   6.091
  119OSM    H7T12459   2.769   1.662   6.054
  119OSM    C8S12460   2.858   1.485   5.958
  119OSM    H8S12461   2.770   1.420   5.938
  119OSM    H8T12462   2.945   1.419   5.976
  119OSM    C9S12463   2.874   1.565   5.825
  119OSM    H9S12464   2.946   1.648   5.842
  119OSM    H9T12465   2.778   1.615   5.799
  119OSM   C10S12466   2.931   1.493   5.706
  119OSM   H10S12467   2.860   1.421   5.659
  119OSM   H10T12468   3.008   1.425   5.747
  119OSM   C11S12469   3.001   1.581   5.605
  119OSM   H11S12470   3.072   1.634   5.671
  119OSM   H11T12471   2.932   1.660   5.569
  119OSM   C12S12472   3.069   1.505   5.487
  119OSM   H12S12473   2.995   1.454   5.421
  119OSM   H12T12474   3.141   1.432   5.531
  119OSM   C13S12475   3.148   1.597   5.399
  119OSM   H13S12476   3.248   1.616   5.444
  119OSM   H13T12477   3.082   1.684   5.378
  119OSM   C14S12478   3.161   1.539   5.257
  119OSM   H14S12479   3.210   1.619   5.197
  119OSM   H14T12480   3.062   1.518   5.210
  119OSM   C15S12481   3.256   1.418   5.255
  119OSM   H15S12482   3.203   1.322   5.277
  119OSM   H15T12483   3.329   1.432   5.337
  119OSM   C16S12484   3.344   1.393   5.131
  119OSM   H16S12485   3.426   1.320   5.151
  119OSM   H16T12486   3.408   1.480   5.103
  119OSM   C17S12487   3.276   1.358   5.004
  119OSM   H17S12488   3.351   1.336   4.925
  119OSM   H17T12489   3.218   1.441   4.958
  119OSM   C18S12490   3.175   1.242   5.024
  119OSM   H18S12491   3.126   1.204   4.932
  119OSM   H18T12492   3.087   1.273   5.086
  119OSM   H18U12493   3.228   1.161   5.079
  119OSM    C1F12494   2.920   1.052   6.029
  119OSM     OF12495   2.851   0.955   6.057
  119OSM    C2F12496   2.956   1.095   5.887
  119OSM    H2F12497   3.056   1.054   5.859
  119OSM    H2G12498   2.965   1.205   5.877
  119OSM    C3F12499   2.856   1.047   5.782
  119OSM    H3F12500   2.762   1.101   5.806
  119OSM    H3G12501   2.826   0.940   5.782
  119OSM    C4F12502   2.903   1.079   5.633
  119OSM    H4F12503   3.003   1.031   5.632
  119OSM    H4G12504   2.915   1.189   5.623
  119OSM    C5F12505   2.803   1.024   5.526
  119OSM    H5F12506   2.706   1.075   5.542
  119OSM    H5G12507   2.796   0.913   5.533
  119OSM    C6F12508   2.852   1.076   5.397
  119OSM    H6F12509   2.956   1.043   5.377
  119OSM    H6G12510   2.839   1.187   5.397
  119OSM    C7F12511   2.786   1.019   5.271
  119OSM    H7F12512   2.694   1.078   5.253
  119OSM    H7G12513   2.755   0.913   5.286
  119OSM    C8F12514   2.860   1.034   5.135
  119OSM    H8F12515   2.966   1.000   5.140
  119OSM    H8G12516   2.855   1.144   5.118
  119OSM    C9F12517   2.787   0.959   5.023
  119OSM    H9F12518   2.738   0.866   5.055
  119OSM   C10F12519   2.755   1.018   4.905
  119OSM   H10F12520   2.710   0.952   4.830
  119OSM   C11F12521   2.796   1.156   4.870
  119OSM   H11F12522   2.859   1.208   4.945
  119OSM   H11G12523   2.712   1.227   4.854
  119OSM   C12F12524   2.880   1.159   4.739
  119OSM   H12F12525   2.812   1.120   4.660
  119OSM   H12G12526   2.964   1.087   4.742
  119OSM   C13F12527   2.924   1.295   4.699
  119OSM   H13F12528   2.969   1.349   4.785
  119OSM   H13G12529   2.827   1.347   4.682
  119OSM   C14F12530   3.019   1.314   4.573
  119OSM   H14F12531   3.027   1.417   4.532
  119OSM   H14G12532   2.992   1.252   4.485
  119OSM   C15F12533   3.165   1.291   4.610
  119OSM   H15F12534   3.181   1.183   4.632
  119OSM   H15G12535   3.185   1.344   4.705
  119OSM   C16F12536   3.258   1.331   4.496
  119OSM   H16F12537   3.199   1.304   4.406
  119OSM   H16G12538   3.344   1.261   4.502
  119OSM   C17F12539   3.301   1.480   4.496
  119OSM   H17F12540   3.350   1.505   4.593
  119OSM   H17G12541   3.205   1.535   4.491
  119OSM   C18F12542   3.384   1.527   4.381
  119OSM   H18F12543   3.442   1.619   4.403
  119OSM   H18G12544   3.322   1.544   4.291
  119OSM   H18H12545   3.455   1.444   4.361
  120OSM      N12546   5.272   6.126   6.812
  120OSM    C1512547   5.197   6.220   6.901
  120OSM   H15A12548   5.122   6.281   6.852
  120OSM   H15B12549   5.267   6.284   6.953
  120OSM   H15C12550   5.139   6.163   6.972
  120OSM    C1412551   5.369   6.050   6.892
  120OSM   H14A12552   5.322   6.008   6.979
  120OSM   H14B12553   5.442   6.114   6.940
  120OSM   H14C12554   5.412   5.970   6.834
  120OSM    C1312555   5.179   6.032   6.744
  120OSM   H13A12556   5.121   5.976   6.815
  120OSM   H13B12557   5.226   5.970   6.668
  120OSM   H13C12558   5.109   6.086   6.682
  120OSM    C1212559   5.342   6.217   6.711
  120OSM   H12A12560   5.408   6.283   6.766
  120OSM   H12B12561   5.284   6.297   6.668
  120OSM    C1112562   5.414   6.140   6.598
  120OSM   H11A12563   5.421   6.224   6.526
  120OSM   H11B12564   5.356   6.059   6.550
  120OSM      P12565   5.619   5.976   6.601
  120OSM    O1312566   5.760   5.990   6.553
  120OSM    O1412567   5.592   5.893   6.722
  120OSM    O1112568   5.543   5.911   6.477
  120OSM    O1212569   5.548   6.112   6.628
  120OSM    C1S12570   5.569   5.968   6.349
  120OSM    H1S12571   5.676   5.966   6.322
  120OSM    H1T12572   5.526   6.069   6.333
  120OSM     NF12573   5.512   5.947   6.114
  120OSM    HNF12574   5.437   6.006   6.086
  120OSM    C2S12575   5.498   5.884   6.235
  120OSM    H2S12576   5.554   5.788   6.229
  120OSM    C3S12577   5.350   5.838   6.280
  120OSM    H3S12578   5.299   5.930   6.317
  120OSM     O312579   5.358   5.742   6.380
  120OSM    HO312580   5.419   5.772   6.448
  120OSM    C4S12581   5.280   5.773   6.170
  120OSM    H4S12582   5.337   5.703   6.106
  120OSM    C5S12583   5.146   5.774   6.153
  120OSM    H5S12584   5.087   5.829   6.229
  120OSM    C6S12585   5.073   5.712   6.035
  120OSM    H6S12586   4.975   5.667   6.064
  120OSM    H6T12587   5.141   5.636   5.992
  120OSM    C7S12588   5.031   5.824   5.931
  120OSM    H7S12589   5.118   5.886   5.899
  120OSM    H7T12590   4.960   5.885   5.991
  120OSM    C8S12591   4.977   5.757   5.804
  120OSM    H8S12592   4.892   5.816   5.762
  120OSM    H8T12593   4.955   5.651   5.829
  120OSM    C9S12594   5.078   5.762   5.692
  120OSM    H9S12595   5.183   5.747   5.727
  120OSM    H9T12596   5.087   5.862   5.645
  120OSM   C10S12597   5.036   5.663   5.580
  120OSM   H10S12598   4.936   5.682   5.535
  120OSM   H10T12599   5.026   5.564   5.629
  120OSM   C11S12600   5.144   5.639   5.475
  120OSM   H11S12601   5.235   5.624   5.537
  120OSM   H11T12602   5.169   5.726   5.410
  120OSM   C12S12603   5.125   5.512   5.398
  120OSM   H12S12604   5.066   5.438   5.456
  120OSM   H12T12605   5.224   5.463   5.381
  120OSM   C13S12606   5.040   5.525   5.273
  120OSM   H13S12607   5.081   5.604   5.206
  120OSM   H13T12608   4.938   5.562   5.297
  120OSM   C14S12609   5.013   5.389   5.211
  120OSM   H14S12610   4.955   5.330   5.284
  120OSM   H14T12611   5.108   5.332   5.200
  120OSM   C15S12612   4.943   5.399   5.078
  120OSM   H15S12613   5.017   5.454   5.017
  120OSM   H15T12614   4.848   5.455   5.090
  120OSM   C16S12615   4.909   5.258   5.015
  120OSM   H16S12616   4.884   5.184   5.094
  120OSM   H16T12617   5.002   5.225   4.964
  120OSM   C17S12618   4.798   5.265   4.910
  120OSM   H17S12619   4.706   5.300   4.960
  120OSM   H17T12620   4.789   5.161   4.871
  120OSM   C18S12621   4.817   5.365   4.790
  120OSM   H18S12622   4.857   5.461   4.828
  120OSM   H18T12623   4.724   5.390   4.734
  120OSM   H18U12624   4.891   5.311   4.727
  120OSM    C1F12625   5.627   5.966   6.053
  120OSM     OF12626   5.730   5.922   6.102
  120OSM    C2F12627   5.627   6.054   5.929
  120OSM    H2F12628   5.727   6.102   5.925
  120OSM    H2G12629   5.537   6.118   5.941
  120OSM    C3F12630   5.622   5.967   5.799
  120OSM    H3F12631   5.718   5.912   5.785
  120OSM    H3G12632   5.633   6.033   5.711
  120OSM    C4F12633   5.506   5.878   5.776
  120OSM    H4F12634   5.412   5.935   5.761
  120OSM    H4G12635   5.499   5.802   5.858
  120OSM    C5F12636   5.533   5.785   5.654
  120OSM    H5F12637   5.451   5.712   5.636
  120OSM    H5G12638   5.622   5.720   5.664
  120OSM    C6F12639   5.555   5.864   5.521
  120OSM    H6F12640   5.656   5.908   5.531
  120OSM    H6G12641   5.480   5.944   5.505
  120OSM    C7F12642   5.568   5.770   5.403
  120OSM    H7F12643   5.483   5.699   5.401
  120OSM    H7G12644   5.662   5.713   5.412
  120OSM    C8F12645   5.587   5.842   5.269
  120OSM    H8F12646   5.627   5.779   5.187
  120OSM    H8G12647   5.660   5.925   5.283
  120OSM    C9F12648   5.463   5.918   5.226
  120OSM    H9F12649   5.415   5.980   5.304
  120OSM   C10F12650   5.431   5.963   5.106
  120OSM   H10F12651   5.348   6.034   5.098
  120OSM   C11F12652   5.506   5.921   4.979
  120OSM   H11F12653   5.602   5.870   5.001
  120OSM   H11G12654   5.534   6.014   4.925
  120OSM   C12F12655   5.428   5.829   4.878
  120OSM   H12F12656   5.336   5.881   4.845
  120OSM   H12G12657   5.402   5.728   4.916
  120OSM   C13F12658   5.524   5.798   4.758
  120OSM   H13F12659   5.622   5.761   4.794
  120OSM   H13G12660   5.541   5.884   4.690
  120OSM   C14F12661   5.457   5.690   4.666
  120OSM   H14F12662   5.386   5.741   4.596
  120OSM   H14G12663   5.395   5.617   4.722
  120OSM   C15F12664   5.546   5.624   4.554
  120OSM   H15F12665   5.600   5.697   4.490
  120OSM   H15G12666   5.487   5.560   4.485
  120OSM   C16F12667   5.659   5.534   4.615
  120OSM   H16F12668   5.627   5.441   4.667
  120OSM   H16G12669   5.721   5.594   4.685
  120OSM   C17F12670   5.753   5.476   4.503
  120OSM   H17F12671   5.790   5.554   4.433
  120OSM   H17G12672   5.693   5.408   4.438
  120OSM   C18F12673   5.870   5.394   4.556
  120OSM   H18F12674   5.857   5.289   4.590
  120OSM   H18G12675   5.916   5.454   4.637
  120OSM   H18H12676   5.947   5.391   4.476
  121OSM      N12677   6.819   2.086   6.559
  121OSM    C1512678   0.048   2.130   6.600
  121OSM   H15A12679   0.125   2.088   6.537
  121OSM   H15B12680   0.048   2.101   6.705
  121OSM   H15C12681   0.056   2.237   6.595
  121OSM    C1412682   6.728   2.178   6.639
  121OSM   H14A12683   6.631   2.171   6.593
  121OSM   H14B12684   6.768   2.277   6.625
  121OSM   H14C12685   6.729   2.156   6.745
  121OSM    C1312686   6.798   2.095   6.409
  121OSM   H13A12687   6.881   2.057   6.352
  121OSM   H13B12688   6.785   2.199   6.384
  121OSM   H13C12689   6.705   2.044   6.383
  121OSM    C1212690   6.798   1.943   6.610
  121OSM   H12A12691   6.839   1.945   6.710
  121OSM   H12B12692   6.868   1.880   6.557
  121OSM    C1112693   6.657   1.869   6.601
  121OSM   H11A12694   6.583   1.939   6.646
  121OSM   H11B12695   6.647   1.771   6.654
  121OSM      P12696   6.707   1.743   6.383
  121OSM    O1312697   6.758   1.818   6.267
  121OSM    O1412698   6.814   1.684   6.469
  121OSM    O1112699   6.604   1.632   6.336
  121OSM    O1212700   6.616   1.853   6.465
  121OSM    C1S12701   6.489   1.655   6.251
  121OSM    H1S12702   6.473   1.763   6.232
  121OSM    H1T12703   6.399   1.619   6.306
  121OSM     NF12704   6.392   1.657   6.023
  121OSM    HNF12705   6.321   1.594   5.990
  121OSM    C2S12706   6.485   1.593   6.108
  121OSM    H2S12707   6.587   1.601   6.064
  121OSM    C3S12708   6.463   1.440   6.133
  121OSM    H3S12709   6.359   1.432   6.173
  121OSM     O312710   6.529   1.377   6.242
  121OSM    HO312711   6.538   1.454   6.298
  121OSM    C4S12712   6.471   1.353   6.007
  121OSM    H4S12713   6.565   1.344   5.951
  121OSM    C5S12714   6.356   1.302   5.949
  121OSM    H5S12715   6.254   1.321   5.984
  121OSM    C6S12716   6.349   1.221   5.821
  121OSM    H6S12717   6.276   1.139   5.839
  121OSM    H6T12718   6.449   1.179   5.797
  121OSM    C7S12719   6.299   1.304   5.698
  121OSM    H7S12720   6.370   1.389   5.691
  121OSM    H7T12721   6.202   1.355   5.714
  121OSM    C8S12722   6.291   1.216   5.570
  121OSM    H8S12723   6.197   1.156   5.573
  121OSM    H8T12724   6.374   1.143   5.577
  121OSM    C9S12725   6.296   1.290   5.429
  121OSM    H9S12726   6.364   1.377   5.417
  121OSM    H9T12727   6.198   1.342   5.425
  121OSM   C10S12728   6.341   1.201   5.311
  121OSM   H10S12729   6.269   1.117   5.310
  121OSM   H10T12730   6.448   1.169   5.310
  121OSM   C11S12731   6.327   1.267   5.172
  121OSM   H11S12732   6.402   1.349   5.162
  121OSM   H11T12733   6.231   1.322   5.171
  121OSM   C12S12734   6.323   1.173   5.051
  121OSM   H12S12735   6.218   1.138   5.057
  121OSM   H12T12736   6.403   1.097   5.066
  121OSM   C13S12737   6.341   1.242   4.920
  121OSM   H13S12738   6.434   1.302   4.920
  121OSM   H13T12739   6.251   1.305   4.902
  121OSM   C14S12740   6.350   1.145   4.805
  121OSM   H14S12741   6.246   1.108   4.792
  121OSM   H14T12742   6.404   1.052   4.834
  121OSM   C15S12743   6.398   1.205   4.669
  121OSM   H15S12744   6.487   1.269   4.684
  121OSM   H15T12745   6.319   1.277   4.639
  121OSM   C16S12746   6.430   1.098   4.571
  121OSM   H16S12747   6.478   1.010   4.620
  121OSM   H16T12748   6.513   1.129   4.504
  121OSM   C17S12749   6.306   1.044   4.491
  121OSM   H17S12750   6.262   1.136   4.447
  121OSM   H17T12751   6.222   1.018   4.558
  121OSM   C18S12752   6.341   0.942   4.383
  121OSM   H18S12753   6.401   0.865   4.436
  121OSM   H18T12754   6.414   0.984   4.311
  121OSM   H18U12755   6.245   0.900   4.344
  121OSM    C1F12756   6.403   1.779   5.969
  121OSM     OF12757   6.502   1.849   5.993
  121OSM    C2F12758   6.282   1.831   5.899
  121OSM    H2F12759   6.239   1.915   5.957
  121OSM    H2G12760   6.198   1.759   5.903
  121OSM    C3F12761   6.311   1.876   5.754
  121OSM    H3F12762   6.390   1.955   5.752
  121OSM    H3G12763   6.216   1.926   5.726
  121OSM    C4F12764   6.337   1.758   5.665
  121OSM    H4F12765   6.258   1.680   5.669
  121OSM    H4G12766   6.425   1.694   5.688
  121OSM    C5F12767   6.352   1.802   5.515
  121OSM    H5F12768   6.447   1.858   5.505
  121OSM    H5G12769   6.266   1.870   5.497
  121OSM    C6F12770   6.339   1.696   5.403
  121OSM    H6F12771   6.241   1.652   5.429
  121OSM    H6G12772   6.428   1.630   5.406
  121OSM    C7F12773   6.328   1.760   5.266
  121OSM    H7F12774   6.421   1.818   5.247
  121OSM    H7G12775   6.241   1.828   5.267
  121OSM    C8F12776   6.315   1.650   5.158
  121OSM    H8F12777   6.207   1.623   5.160
  121OSM    H8G12778   6.371   1.556   5.174
  121OSM    C9F12779   6.345   1.693   5.016
  121OSM    H9F12780   6.443   1.741   4.999
  121OSM   C10F12781   6.272   1.697   4.906
  121OSM   H10F12782   6.311   1.747   4.816
  121OSM   C11F12783   6.132   1.635   4.891
  121OSM   H11F12784   6.070   1.663   4.979
  121OSM   H11G12785   6.142   1.525   4.901
  121OSM   C12F12786   6.050   1.672   4.762
  121OSM   H12F12787   6.045   1.782   4.748
  121OSM   H12G12788   5.949   1.628   4.776
  121OSM   C13F12789   6.108   1.616   4.634
  121OSM   H13F12790   6.120   1.506   4.644
  121OSM   H13G12791   6.209   1.658   4.618
  121OSM   C14F12792   6.029   1.650   4.503
  121OSM   H14F12793   5.937   1.590   4.518
  121OSM   H14G12794   6.091   1.604   4.423
  121OSM   C15F12795   5.992   1.798   4.475
  121OSM   H15F12796   6.076   1.870   4.469
  121OSM   H15G12797   5.925   1.827   4.559
  121OSM   C16F12798   5.917   1.810   4.342
  121OSM   H16F12799   5.830   1.742   4.351
  121OSM   H16G12800   5.976   1.793   4.250
  121OSM   C17F12801   5.860   1.951   4.334
  121OSM   H17F12802   5.941   2.020   4.365
  121OSM   H17G12803   5.782   1.969   4.412
  121OSM   C18F12804   5.802   1.976   4.190
  121OSM   H18F12805   5.878   1.942   4.117
  121OSM   H18G12806   5.790   2.086   4.173
  121OSM   H18H12807   5.706   1.924   4.171
  122OSM      N12808   5.974   4.802   6.760
  122OSM    C1512809   5.915   4.876   6.877
  122OSM   H15A12810   5.807   4.877   6.873
  122OSM   H15B12811   5.950   4.978   6.869
  122OSM   H15C12812   5.949   4.836   6.971
  122OSM    C1412813   5.892   4.855   6.643
  122OSM   H14A12814   5.932   4.797   6.560
  122OSM   H14B12815   5.913   4.957   6.616
  122OSM   H14C12816   5.787   4.834   6.655
  122OSM    C1312817   6.117   4.833   6.747
  122OSM   H13A12818   6.184   4.794   6.821
  122OSM   H13B12819   6.130   4.941   6.743
  122OSM   H13C12820   6.165   4.799   6.656
  122OSM    C1212821   5.946   4.655   6.767
  122OSM   H12A12822   5.840   4.643   6.780
  122OSM   H12B12823   5.981   4.611   6.858
  122OSM    C1112824   5.991   4.565   6.650
  122OSM   H11A12825   5.956   4.604   6.552
  122OSM   H11B12826   5.939   4.468   6.665
  122OSM      P12827   6.212   4.489   6.540
  122OSM    O1312828   6.355   4.518   6.554
  122OSM    O1412829   6.174   4.353   6.505
  122OSM    O1112830   6.152   4.582   6.433
  122OSM    O1212831   6.128   4.533   6.666
  122OSM    C1S12832   6.194   4.572   6.298
  122OSM    H1S12833   6.229   4.469   6.275
  122OSM    H1T12834   6.284   4.635   6.281
  122OSM     NF12835   6.125   4.576   6.067
  122OSM    HNF12836   6.189   4.629   6.011
  122OSM    C2S12837   6.085   4.619   6.201
  122OSM    H2S12838   5.992   4.564   6.226
  122OSM    C3S12839   6.058   4.771   6.217
  122OSM    H3S12840   6.148   4.834   6.206
  122OSM     O312841   6.008   4.803   6.350
  122OSM    HO312842   6.036   4.723   6.395
  122OSM    C4S12843   5.959   4.814   6.116
  122OSM    H4S12844   5.871   4.752   6.098
  122OSM    C5S12845   5.967   4.932   6.048
  122OSM    H5S12846   6.055   4.994   6.072
  122OSM    C6S12847   5.881   4.983   5.932
  122OSM    H6S12848   5.941   4.969   5.840
  122OSM    H6T12849   5.854   5.089   5.947
  122OSM    C7S12850   5.749   4.904   5.913
  122OSM    H7S12851   5.690   4.906   6.007
  122OSM    H7T12852   5.775   4.799   5.890
  122OSM    C8S12853   5.664   4.967   5.804
  122OSM    H8S12854   5.647   5.076   5.820
  122OSM    H8T12855   5.561   4.926   5.798
  122OSM    C9S12856   5.725   4.947   5.662
  122OSM    H9S12857   5.777   4.849   5.652
  122OSM    H9T12858   5.801   5.026   5.640
  122OSM   C10S12859   5.612   4.955   5.559
  122OSM   H10S12860   5.570   5.056   5.576
  122OSM   H10T12861   5.532   4.880   5.576
  122OSM   C11S12862   5.663   4.943   5.419
  122OSM   H11S12863   5.720   4.850   5.397
  122OSM   H11T12864   5.734   5.026   5.399
  122OSM   C12S12865   5.553   4.939   5.316
  122OSM   H12S12866   5.481   5.024   5.324
  122OSM   H12T12867   5.489   4.849   5.328
  122OSM   C13S12868   5.604   4.929   5.169
  122OSM   H13S12869   5.700   4.874   5.177
  122OSM   H13T12870   5.630   5.026   5.122
  122OSM   C14S12871   5.493   4.849   5.099
  122OSM   H14S12872   5.404   4.915   5.103
  122OSM   H14T12873   5.467   4.761   5.162
  122OSM   C15S12874   5.536   4.796   4.958
  122OSM   H15S12875   5.464   4.733   4.902
  122OSM   H15T12876   5.629   4.738   4.973
  122OSM   C16S12877   5.549   4.919   4.863
  122OSM   H16S12878   5.624   4.987   4.909
  122OSM   H16T12879   5.451   4.972   4.864
  122OSM   C17S12880   5.604   4.895   4.724
  122OSM   H17S12881   5.541   4.821   4.670
  122OSM   H17T12882   5.703   4.844   4.734
  122OSM   C18S12883   5.616   5.016   4.624
  122OSM   H18S12884   5.518   5.066   4.610
  122OSM   H18T12885   5.656   4.976   4.528
  122OSM   H18U12886   5.686   5.095   4.657
  122OSM    C1F12887   6.102   4.447   6.040
  122OSM     OF12888   6.032   4.376   6.115
  122OSM    C2F12889   6.176   4.383   5.933
  122OSM    H2F12890   6.204   4.282   5.967
  122OSM    H2G12891   6.263   4.451   5.920
  122OSM    C3F12892   6.079   4.381   5.814
  122OSM    H3F12893   6.007   4.463   5.799
  122OSM    H3G12894   6.013   4.293   5.829
  122OSM    C4F12895   6.154   4.337   5.687
  122OSM    H4F12896   6.207   4.245   5.719
  122OSM    H4G12897   6.222   4.413   5.643
  122OSM    C5F12898   6.063   4.304   5.574
  122OSM    H5F12899   5.981   4.379   5.563
  122OSM    H5G12900   6.023   4.203   5.599
  122OSM    C6F12901   6.134   4.279   5.443
  122OSM    H6F12902   6.168   4.173   5.446
  122OSM    H6G12903   6.227   4.339   5.433
  122OSM    C7F12904   6.045   4.293   5.320
  122OSM    H7F12905   6.023   4.400   5.302
  122OSM    H7G12906   5.947   4.242   5.337
  122OSM    C8F12907   6.115   4.231   5.195
  122OSM    H8F12908   6.040   4.229   5.112
  122OSM    H8G12909   6.156   4.131   5.224
  122OSM    C9F12910   6.224   4.326   5.151
  122OSM    H9F12911   6.294   4.360   5.229
  122OSM   C10F12912   6.254   4.377   5.036
  122OSM   H10F12913   6.350   4.426   5.018
  122OSM   C11F12914   6.172   4.350   4.905
  122OSM   H11F12915   6.153   4.451   4.862
  122OSM   H11G12916   6.072   4.306   4.920
  122OSM   C12F12917   6.255   4.257   4.803
  122OSM   H12F12918   6.197   4.208   4.722
  122OSM   H12G12919   6.290   4.172   4.865
  122OSM   C13F12920   6.371   4.339   4.759
  122OSM   H13F12921   6.438   4.358   4.845
  122OSM   H13G12922   6.333   4.428   4.705
  122OSM   C14F12923   6.465   4.268   4.663
  122OSM   H14F12924   6.525   4.188   4.711
  122OSM   H14G12925   6.537   4.345   4.630
  122OSM   C15F12926   6.395   4.209   4.540
  122OSM   H15F12927   6.346   4.293   4.487
  122OSM   H15G12928   6.321   4.129   4.558
  122OSM   C16F12929   6.504   4.160   4.444
  122OSM   H16F12930   6.558   4.073   4.487
  122OSM   H16G12931   6.563   4.251   4.422
  122OSM   C17F12932   6.426   4.121   4.321
  122OSM   H17F12933   6.365   4.209   4.293
  122OSM   H17G12934   6.352   4.049   4.362
  122OSM   C18F12935   6.499   4.055   4.203
  122OSM   H18F12936   6.565   3.973   4.238
  122OSM   H18G12937   6.558   4.129   4.145
  122OSM   H18H12938   6.416   4.022   4.137
  123OSM      N12939   2.801   2.507   2.393
  123OSM    C1512940   2.668   2.449   2.351
  123OSM   H15A12941   2.696   2.371   2.281
  123OSM   H15B12942   2.599   2.512   2.297
  123OSM   H15C12943   2.630   2.399   2.439
  123OSM    C1412944   2.887   2.403   2.447
  123OSM   H14A12945   2.912   2.329   2.372
  123OSM   H14B12946   2.838   2.356   2.532
  123OSM   H14C12947   2.984   2.443   2.474
  123OSM    C1312948   2.879   2.563   2.271
  123OSM   H13A12949   2.982   2.559   2.304
  123OSM   H13B12950   2.854   2.660   2.231
  123OSM   H13C12951   2.868   2.488   2.194
  123OSM    C1212952   2.785   2.626   2.491
  123OSM   H12A12953   2.878   2.681   2.493
  123OSM   H12B12954   2.774   2.586   2.590
  123OSM    C1112955   2.679   2.735   2.465
  123OSM   H11A12956   2.698   2.823   2.530
  123OSM   H11B12957   2.576   2.694   2.468
  123OSM      P12958   2.580   2.808   2.234
  123OSM    O1312959   2.608   2.905   2.124
  123OSM    O1412960   2.518   2.682   2.192
  123OSM    O1112961   2.479   2.872   2.340
  123OSM    O1212962   2.701   2.781   2.331
  123OSM    C1S12963   2.339   2.869   2.318
  123OSM    H1S12964   2.314   2.782   2.254
  123OSM    H1T12965   2.300   2.957   2.263
  123OSM     NF12966   2.115   2.871   2.434
  123OSM    HNF12967   2.075   2.962   2.442
  123OSM    C2S12968   2.258   2.865   2.453
  123OSM    H2S12969   2.279   2.767   2.500
  123OSM    C3S12970   2.322   2.979   2.546
  123OSM    H3S12971   2.295   3.082   2.514
  123OSM     O312972   2.465   2.975   2.566
  123OSM    HO312973   2.503   2.926   2.492
  123OSM    C4S12974   2.255   2.954   2.680
  123OSM    H4S12975   2.282   2.857   2.724
  123OSM    C5S12976   2.163   3.036   2.737
  123OSM    H5S12977   2.140   3.127   2.681
  123OSM    C6S12978   2.098   3.018   2.872
  123OSM    H6S12979   1.988   3.007   2.861
  123OSM    H6T12980   2.118   3.112   2.927
  123OSM    C7S12981   2.144   2.899   2.945
  123OSM    H7S12982   2.251   2.919   2.965
  123OSM    H7T12983   2.121   2.811   2.881
  123OSM    C8S12984   2.078   2.882   3.088
  123OSM    H8S12985   2.105   2.782   3.129
  123OSM    H8T12986   1.968   2.874   3.078
  123OSM    C9S12987   2.097   3.001   3.178
  123OSM    H9S12988   2.045   3.096   3.152
  123OSM    H9T12989   2.205   3.025   3.179
  123OSM   C10S12990   2.057   2.974   3.326
  123OSM   H10S12991   2.127   2.894   3.359
  123OSM   H10T12992   1.952   2.941   3.335
  123OSM   C11S12993   2.074   3.109   3.403
  123OSM   H11S12994   2.001   3.185   3.366
  123OSM   H11T12995   2.175   3.149   3.383
  123OSM   C12S12996   2.053   3.094   3.554
  123OSM   H12S12997   2.127   3.022   3.596
  123OSM   H12T12998   1.950   3.057   3.572
  123OSM   C13S12999   2.087   3.223   3.630
  123OSM   H13S13000   2.056   3.315   3.577
  123OSM   H13T13001   2.197   3.235   3.633
  123OSM   C14S13002   2.036   3.219   3.775
  123OSM   H14S13003   2.080   3.126   3.817
  123OSM   H14T13004   1.926   3.207   3.766
  123OSM   C15S13005   2.070   3.339   3.861
  123OSM   H15S13006   2.034   3.434   3.818
  123OSM   H15T13007   2.181   3.347   3.852
  123OSM   C16S13008   2.013   3.319   3.996
  123OSM   H16S13009   2.062   3.231   4.043
  123OSM   H16T13010   1.908   3.290   3.974
  123OSM   C17S13011   2.013   3.446   4.080
  123OSM   H17S13012   1.949   3.435   4.170
  123OSM   H17T13013   1.959   3.528   4.029
  123OSM   C18S13014   2.153   3.485   4.118
  123OSM   H18S13015   2.207   3.406   4.173
  123OSM   H18T13016   2.139   3.579   4.175
  123OSM   H18U13017   2.225   3.511   4.037
  123OSM    C1F13018   2.042   2.788   2.364
  123OSM     OF13019   2.096   2.693   2.309
  123OSM    C2F13020   1.894   2.814   2.341
  123OSM    H2F13021   1.879   2.817   2.231
  123OSM    H2G13022   1.854   2.907   2.386
  123OSM    C3F13023   1.809   2.707   2.413
  123OSM    H3F13024   1.841   2.610   2.369
  123OSM    H3G13025   1.700   2.714   2.393
  123OSM    C4F13026   1.835   2.705   2.565
  123OSM    H4F13027   1.943   2.704   2.592
  123OSM    H4G13028   1.804   2.604   2.598
  123OSM    C5F13029   1.771   2.817   2.645
  123OSM    H5F13030   1.663   2.820   2.618
  123OSM    H5G13031   1.820   2.914   2.620
  123OSM    C6F13032   1.802   2.801   2.799
  123OSM    H6F13033   1.790   2.901   2.847
  123OSM    H6G13034   1.909   2.770   2.807
  123OSM    C7F13035   1.720   2.691   2.862
  123OSM    H7F13036   1.749   2.603   2.800
  123OSM    H7G13037   1.612   2.707   2.843
  123OSM    C8F13038   1.755   2.645   3.006
  123OSM    H8F13039   1.735   2.734   3.070
  123OSM    H8G13040   1.863   2.620   3.012
  123OSM    C9F13041   1.665   2.534   3.059
  123OSM    H9F13042   1.681   2.434   3.014
  123OSM   C10F13043   1.555   2.549   3.137
  123OSM   H10F13044   1.495   2.460   3.164
  123OSM   C11F13045   1.520   2.680   3.214
  123OSM   H11F13046   1.418   2.678   3.260
  123OSM   H11G13047   1.519   2.761   3.138
  123OSM   C12F13048   1.613   2.719   3.330
  123OSM   H12F13049   1.580   2.814   3.377
  123OSM   H12G13050   1.705   2.755   3.279
  123OSM   C13F13051   1.655   2.603   3.424
  123OSM   H13F13052   1.725   2.650   3.497
  123OSM   H13G13053   1.701   2.527   3.358
  123OSM   C14F13054   1.542   2.540   3.496
  123OSM   H14F13055   1.462   2.529   3.420
  123OSM   H14G13056   1.501   2.612   3.570
  123OSM   C15F13057   1.576   2.403   3.564
  123OSM   H15F13058   1.605   2.326   3.490
  123OSM   H15G13059   1.481   2.369   3.612
  123OSM   C16F13060   1.693   2.416   3.673
  123OSM   H16F13061   1.669   2.494   3.749
  123OSM   H16G13062   1.786   2.434   3.615
  123OSM   C17F13063   1.697   2.284   3.752
  123OSM   H17F13064   1.719   2.197   3.685
  123OSM   H17G13065   1.592   2.266   3.781
  123OSM   C18F13066   1.785   2.284   3.875
  123OSM   H18F13067   1.893   2.286   3.848
  123OSM   H18G13068   1.772   2.198   3.944
  123OSM   H18H13069   1.751   2.370   3.937
  124OSM      N13070   3.473   3.512   2.007
  124OSM    C1513071   3.404   3.548   2.138
  124OSM   H15A13072   3.383   3.653   2.150
  124OSM   H15B13073   3.463   3.523   2.224
  124OSM   H15C13074   3.308   3.498   2.139
  124OSM    C1413075   3.574   3.622   1.980
  124OSM   H14A13076   3.527   3.719   1.973
  124OSM   H14B13077   3.628   3.599   1.890
  124OSM   H14C13078   3.649   3.625   2.057
  124OSM    C1313079   3.545   3.381   2.022
  124OSM   H13A13080   3.473   3.302   2.011
  124OSM   H13B13081   3.604   3.385   2.113
  124OSM   H13C13082   3.618   3.365   1.945
  124OSM    C1213083   3.378   3.498   1.897
  124OSM   H12A13084   3.425   3.484   1.801
  124OSM   H12B13085   3.327   3.593   1.895
  124OSM    C1113086   3.266   3.383   1.900
  124OSM   H11A13087   3.315   3.283   1.902
  124OSM   H11B13088   3.214   3.391   1.802
  124OSM      P13089   3.056   3.484   2.010
  124OSM    O1313090   3.069   3.573   1.895
  124OSM    O1413091   2.934   3.399   2.022
  124OSM    O1113092   3.073   3.568   2.141
  124OSM    O1213093   3.188   3.391   2.019
  124OSM    C1S13094   3.060   3.512   2.272
  124OSM    H1S13095   3.158   3.474   2.309
  124OSM    H1T13096   3.009   3.413   2.280
  124OSM     NF13097   3.007   3.562   2.505
  124OSM    HNF13098   2.949   3.488   2.539
  124OSM    C2S13099   2.986   3.605   2.368
  124OSM    H2S13100   3.043   3.699   2.353
  124OSM    C3S13101   2.836   3.621   2.332
  124OSM    H3S13102   2.796   3.518   2.350
  124OSM     O313103   2.807   3.666   2.201
  124OSM    HO313104   2.891   3.649   2.157
  124OSM    C4S13105   2.769   3.719   2.421
  124OSM    H4S13106   2.813   3.819   2.431
  124OSM    C5S13107   2.668   3.692   2.513
  124OSM    H5S13108   2.632   3.588   2.517
  124OSM    C6S13109   2.616   3.783   2.619
  124OSM    H6S13110   2.512   3.819   2.606
  124OSM    H6T13111   2.681   3.871   2.636
  124OSM    C7S13112   2.626   3.706   2.750
  124OSM    H7S13113   2.734   3.691   2.766
  124OSM    H7T13114   2.587   3.603   2.757
  124OSM    C8S13115   2.564   3.790   2.868
  124OSM    H8S13116   2.480   3.849   2.826
  124OSM    H8T13117   2.645   3.863   2.892
  124OSM    C9S13118   2.533   3.707   2.994
  124OSM    H9S13119   2.622   3.700   3.061
  124OSM    H9T13120   2.490   3.608   2.967
  124OSM   C10S13121   2.434   3.789   3.080
  124OSM   H10S13122   2.342   3.804   3.019
  124OSM   H10T13123   2.478   3.890   3.092
  124OSM   C11S13124   2.409   3.733   3.223
  124OSM   H11S13125   2.507   3.726   3.274
  124OSM   H11T13126   2.368   3.630   3.219
  124OSM   C12S13127   2.333   3.823   3.316
  124OSM   H12S13128   2.232   3.839   3.272
  124OSM   H12T13129   2.384   3.922   3.319
  124OSM   C13S13130   2.323   3.755   3.458
  124OSM   H13S13131   2.426   3.728   3.488
  124OSM   H13T13132   2.273   3.662   3.422
  124OSM   C14S13133   2.239   3.847   3.551
  124OSM   H14S13134   2.134   3.838   3.516
  124OSM   H14T13135   2.264   3.954   3.533
  124OSM   C15S13136   2.235   3.793   3.694
  124OSM   H15S13137   2.334   3.781   3.743
  124OSM   H15T13138   2.188   3.692   3.692
  124OSM   C16S13139   2.138   3.868   3.792
  124OSM   H16S13140   2.034   3.859   3.755
  124OSM   H16T13141   2.166   3.975   3.781
  124OSM   C17S13142   2.128   3.805   3.935
  124OSM   H17S13143   2.220   3.754   3.970
  124OSM   H17T13144   2.043   3.733   3.932
  124OSM   C18S13145   2.081   3.911   4.042
  124OSM   H18S13146   2.075   3.875   4.147
  124OSM   H18T13147   1.985   3.952   4.005
  124OSM   H18U13148   2.155   3.994   4.053
  124OSM    C1F13149   3.114   3.600   2.569
  124OSM     OF13150   3.193   3.683   2.519
  124OSM    C2F13151   3.137   3.532   2.699
  124OSM    H2F13152   3.223   3.464   2.686
  124OSM    H2G13153   3.049   3.471   2.730
  124OSM    C3F13154   3.197   3.637   2.796
  124OSM    H3F13155   3.126   3.723   2.795
  124OSM    H3G13156   3.293   3.678   2.757
  124OSM    C4F13157   3.206   3.558   2.932
  124OSM    H4F13158   3.282   3.478   2.928
  124OSM    H4G13159   3.110   3.507   2.955
  124OSM    C5F13160   3.252   3.667   3.035
  124OSM    H5F13161   3.285   3.761   2.986
  124OSM    H5G13162   3.335   3.617   3.089
  124OSM    C6F13163   3.147   3.671   3.143
  124OSM    H6F13164   3.117   3.578   3.196
  124OSM    H6G13165   3.050   3.708   3.104
  124OSM    C7F13166   3.196   3.777   3.251
  124OSM    H7F13167   3.121   3.768   3.332
  124OSM    H7G13168   3.185   3.877   3.203
  124OSM    C8F13169   3.335   3.763   3.306
  124OSM    H8F13170   3.400   3.807   3.227
  124OSM    H8G13171   3.370   3.658   3.305
  124OSM    C9F13172   3.360   3.837   3.427
  124OSM    H9F13173   3.431   3.920   3.408
  124OSM   C10F13174   3.337   3.800   3.555
  124OSM   H10F13175   3.378   3.862   3.635
  124OSM   C11F13176   3.265   3.671   3.591
  124OSM   H11F13177   3.337   3.610   3.651
  124OSM   H11G13178   3.233   3.612   3.503
  124OSM   C12F13179   3.139   3.690   3.685
  124OSM   H12F13180   3.076   3.599   3.679
  124OSM   H12G13181   3.071   3.765   3.639
  124OSM   C13F13182   3.161   3.720   3.830
  124OSM   H13F13183   3.176   3.829   3.844
  124OSM   H13G13184   3.246   3.658   3.867
  124OSM   C14F13185   3.045   3.664   3.917
  124OSM   H14F13186   3.048   3.553   3.912
  124OSM   H14G13187   2.946   3.691   3.874
  124OSM   C15F13188   3.047   3.684   4.068
  124OSM   H15F13189   3.149   3.650   4.097
  124OSM   H15G13190   2.959   3.637   4.117
  124OSM   C16F13191   3.036   3.836   4.105
  124OSM   H16F13192   2.927   3.857   4.108
  124OSM   H16G13193   3.086   3.899   4.029
  124OSM   C17F13194   3.090   3.870   4.239
  124OSM   H17F13195   3.199   3.846   4.235
  124OSM   H17G13196   3.048   3.801   4.315
  124OSM   C18F13197   3.054   4.011   4.292
  124OSM   H18F13198   3.069   4.077   4.204
  124OSM   H18G13199   3.124   4.038   4.373
  124OSM   H18H13200   2.947   4.010   4.325
  125OSM      N13201   4.184   0.859   2.210
  125OSM    C1513202   4.064   0.947   2.238
  125OSM   H15A13203   3.972   0.889   2.233
  125OSM   H15B13204   4.054   1.025   2.164
  125OSM   H15C13205   4.069   0.996   2.334
  125OSM    C1413206   4.181   0.777   2.085
  125OSM   H14A13207   4.275   0.731   2.061
  125OSM   H14B13208   4.161   0.839   2.000
  125OSM   H14C13209   4.116   0.690   2.077
  125OSM    C1313210   4.304   0.939   2.195
  125OSM   H13A13211   4.376   0.902   2.124
  125OSM   H13B13212   4.354   0.948   2.291
  125OSM   H13C13213   4.283   1.042   2.169
  125OSM    C1213214   4.202   0.759   2.327
  125OSM   H12A13215   4.208   0.812   2.421
  125OSM   H12B13216   4.294   0.706   2.307
  125OSM    C1113217   4.090   0.649   2.332
  125OSM   H11A13218   3.988   0.693   2.342
  125OSM   H11B13219   4.102   0.592   2.427
  125OSM      P13220   4.155   0.432   2.219
  125OSM    O1313221   4.115   0.342   2.108
  125OSM    O1413222   4.304   0.456   2.245
  125OSM    O1113223   4.101   0.366   2.349
  125OSM    O1213224   4.068   0.558   2.216
  125OSM    C1S13225   4.060   0.229   2.365
  125OSM    H1S13226   4.148   0.164   2.344
  125OSM    H1T13227   3.974   0.203   2.300
  125OSM     NF13228   3.976   0.054   2.532
  125OSM    HNF13229   3.877   0.046   2.544
  125OSM    C2S13230   4.032   0.187   2.517
  125OSM    H2S13231   4.134   0.181   2.562
  125OSM    C3S13232   3.956   0.298   2.583
  125OSM    H3S13233   3.862   0.333   2.534
  125OSM     O313234   4.031   0.418   2.589
  125OSM    HO313235   4.073   0.421   2.503
  125OSM    C4S13236   3.933   0.251   2.718
  125OSM    H4S13237   4.020   0.254   2.786
  125OSM    C5S13238   3.813   0.227   2.777
  125OSM    H5S13239   3.718   0.241   2.724
  125OSM    C6S13240   3.811   0.216   2.933
  125OSM    H6S13241   3.855   0.313   2.966
  125OSM    H6T13242   3.884   0.136   2.959
  125OSM    C7S13243   3.682   0.184   3.004
  125OSM    H7S13244   3.646   0.082   2.977
  125OSM    H7T13245   3.605   0.258   2.974
  125OSM    C8S13246   3.691   0.182   3.152
  125OSM    H8S13247   3.711   0.281   3.197
  125OSM    H8T13248   3.777   0.114   3.169
  125OSM    C9S13249   3.580   0.126   3.229
  125OSM    H9S13250   3.546   0.025   3.197
  125OSM    H9T13251   3.488   0.187   3.218
  125OSM   C10S13252   3.620   0.104   3.374
  125OSM   H10S13253   3.724   0.067   3.387
  125OSM   H10T13254   3.549   0.024   3.405
  125OSM   C11S13255   3.581   0.228   3.458
  125OSM   H11S13256   3.492   0.278   3.414
  125OSM   H11T13257   3.666   0.300   3.452
  125OSM   C12S13258   3.549   0.198   3.599
  125OSM   H12S13259   3.445   0.160   3.611
  125OSM   H12T13260   3.546   0.296   3.652
  125OSM   C13S13261   3.648   0.106   3.672
  125OSM   H13S13262   3.754   0.141   3.663
  125OSM   H13T13263   3.644   0.005   3.626
  125OSM   C14S13264   3.624   0.089   3.817
  125OSM   H14S13265   3.635   0.188   3.866
  125OSM   H14T13266   3.702   0.019   3.857
  125OSM   C15S13267   3.485   0.026   3.852
  125OSM   H15S13268   3.470   6.825   3.809
  125OSM   H15T13269   3.413   0.100   3.811
  125OSM   C16S13270   3.450   6.897   4.002
  125OSM   H16S13271   3.532   6.843   4.053
  125OSM   H16T13272   3.357   6.837   4.005
  125OSM   C17S13273   3.421   0.135   4.070
  125OSM   H17S13274   3.320   0.177   4.058
  125OSM   H17T13275   3.498   0.207   4.035
  125OSM   C18S13276   3.444   0.108   4.223
  125OSM   H18S13277   3.547   0.076   4.249
  125OSM   H18T13278   3.376   0.028   4.259
  125OSM   H18U13279   3.419   0.198   4.283
  125OSM    C1F13280   4.040   6.842   2.504
  125OSM     OF13281   4.160   6.846   2.471
  125OSM    C2F13282   3.964   6.707   2.503
  125OSM    H2F13283   4.049   6.635   2.505
  125OSM    H2G13284   3.915   6.688   2.405
  125OSM    C3F13285   3.870   6.699   2.621
  125OSM    H3F13286   3.837   6.593   2.630
  125OSM    H3G13287   3.778   6.758   2.598
  125OSM    C4F13288   3.931   6.744   2.760
  125OSM    H4F13289   3.944   6.853   2.782
  125OSM    H4G13290   4.030   6.695   2.767
  125OSM    C5F13291   3.852   6.686   2.879
  125OSM    H5F13292   3.893   6.739   2.968
  125OSM    H5G13293   3.879   6.578   2.883
  125OSM    C6F13294   3.706   6.719   2.868
  125OSM    H6F13295   3.655   6.649   2.799
  125OSM    H6G13296   3.691   6.822   2.827
  125OSM    C7F13297   3.637   6.701   3.005
  125OSM    H7F13298   3.530   6.731   2.999
  125OSM    H7G13299   3.690   6.766   3.078
  125OSM    C8F13300   3.646   6.558   3.059
  125OSM    H8F13301   3.752   6.535   3.083
  125OSM    H8G13302   3.620   6.490   2.976
  125OSM    C9F13303   3.553   6.534   3.180
  125OSM    H9F13304   3.453   6.492   3.161
  125OSM   C10F13305   3.598   6.526   3.307
  125OSM   H10F13306   3.531   6.503   3.391
  125OSM   C11F13307   3.725   6.572   3.364
  125OSM   H11F13308   3.776   6.633   3.286
  125OSM   H11G13309   3.786   6.485   3.395
  125OSM   C12F13310   3.690   6.659   3.486
  125OSM   H12F13311   3.595   6.713   3.462
  125OSM   H12G13312   3.770   6.731   3.511
  125OSM   C13F13313   3.648   6.588   3.624
  125OSM   H13F13314   3.575   6.504   3.623
  125OSM   H13G13315   3.618   6.673   3.689
  125OSM   C14F13316   3.768   6.533   3.698
  125OSM   H14F13317   3.839   6.616   3.714
  125OSM   H14G13318   3.818   6.467   3.624
  125OSM   C15F13319   3.736   6.454   3.826
  125OSM   H15F13320   3.834   6.408   3.853
  125OSM   H15G13321   3.665   6.376   3.792
  125OSM   C16F13322   3.666   6.526   3.938
  125OSM   H16F13323   3.559   6.546   3.916
  125OSM   H16G13324   3.719   6.623   3.947
  125OSM   C17F13325   3.687   6.442   4.068
  125OSM   H17F13326   3.795   6.446   4.096
  125OSM   H17G13327   3.660   6.335   4.053
  125OSM   C18F13328   3.612   6.494   4.189
  125OSM   H18F13329   3.649   6.591   4.228
  125OSM   H18G13330   3.621   6.427   4.277
  125OSM   H18H13331   3.503   6.497   4.168
  126OSM      N13332   3.122   1.783   1.943
  126OSM    C1513333   3.065   1.695   1.837
  126OSM   H15A13334   3.044   1.600   1.883
  126OSM   H15B13335   3.137   1.678   1.758
  126OSM   H15C13336   2.972   1.732   1.797
  126OSM    C1413337   3.146   1.922   1.892
  126OSM   H14A13338   3.058   1.976   1.860
  126OSM   H14B13339   3.205   1.921   1.802
  126OSM   H14C13340   3.195   1.980   1.970
  126OSM    C1313341   3.032   1.794   2.054
  126OSM   H13A13342   2.999   1.694   2.078
  126OSM   H13B13343   2.942   1.845   2.022
  126OSM   H13C13344   3.068   1.836   2.147
  126OSM    C1213345   3.262   1.722   1.978
  126OSM   H12A13346   3.310   1.771   2.061
  126OSM   H12B13347   3.332   1.735   1.897
  126OSM    C1113348   3.265   1.572   2.024
  126OSM   H11A13349   3.372   1.542   2.025
  126OSM   H11B13350   3.230   1.521   1.931
  126OSM      P13351   3.105   1.423   2.165
  126OSM    O1313352   2.964   1.454   2.122
  126OSM    O1413353   3.157   1.306   2.098
  126OSM    O1113354   3.114   1.411   2.324
  126OSM    O1213355   3.204   1.546   2.142
  126OSM    C1S13356   3.098   1.525   2.407
  126OSM    H1S13357   3.017   1.593   2.375
  126OSM    H1T13358   3.189   1.589   2.406
  126OSM     NF13359   3.039   1.584   2.647
  126OSM    HNF13360   3.102   1.604   2.721
  126OSM    C2S13361   3.062   1.476   2.552
  126OSM    H2S13362   2.965   1.422   2.553
  126OSM    C3S13363   3.166   1.362   2.604
  126OSM    H3S13364   3.254   1.421   2.638
  126OSM     O313365   3.216   1.260   2.514
  126OSM    HO313366   3.177   1.295   2.434
  126OSM    C4S13367   3.116   1.299   2.729
  126OSM    H4S13368   3.006   1.289   2.726
  126OSM    C5S13369   3.185   1.292   2.843
  126OSM    H5S13370   3.279   1.350   2.849
  126OSM    C6S13371   3.127   1.261   2.979
  126OSM    H6S13372   3.192   1.181   3.021
  126OSM    H6T13373   3.031   1.205   2.980
  126OSM    C7S13374   3.130   1.380   3.073
  126OSM    H7S13375   3.077   1.468   3.029
  126OSM    H7T13376   3.237   1.409   3.080
  126OSM    C8S13377   3.072   1.349   3.217
  126OSM    H8S13378   3.119   1.258   3.261
  126OSM    H8T13379   2.963   1.335   3.205
  126OSM    C9S13380   3.092   1.464   3.312
  126OSM    H9S13381   3.026   1.545   3.274
  126OSM    H9T13382   3.198   1.496   3.319
  126OSM   C10S13383   3.062   1.436   3.456
  126OSM   H10S13384   3.139   1.367   3.496
  126OSM   H10T13385   2.963   1.388   3.471
  126OSM   C11S13386   3.063   1.563   3.548
  126OSM   H11S13387   3.006   1.636   3.487
  126OSM   H11T13388   3.171   1.590   3.552
  126OSM   C12S13389   2.993   1.544   3.689
  126OSM   H12S13390   3.031   1.460   3.750
  126OSM   H12T13391   2.885   1.523   3.670
  126OSM   C13S13392   3.007   1.670   3.777
  126OSM   H13S13393   2.971   1.761   3.724
  126OSM   H13T13394   3.113   1.681   3.809
  126OSM   C14S13395   2.929   1.637   3.903
  126OSM   H14S13396   2.951   1.533   3.935
  126OSM   H14T13397   2.822   1.650   3.876
  126OSM   C15S13398   2.970   1.725   4.020
  126OSM   H15S13399   2.948   1.829   3.987
  126OSM   H15T13400   3.081   1.724   4.031
  126OSM   C16S13401   2.895   1.697   4.154
  126OSM   H16S13402   2.902   1.586   4.159
  126OSM   H16T13403   2.784   1.706   4.146
  126OSM   C17S13404   2.968   1.767   4.267
  126OSM   H17S13405   2.954   1.876   4.250
  126OSM   H17T13406   3.077   1.742   4.260
  126OSM   C18S13407   2.909   1.715   4.403
  126OSM   H18S13408   2.906   1.604   4.406
  126OSM   H18T13409   2.805   1.750   4.421
  126OSM   H18U13410   2.972   1.749   4.488
  126OSM    C1F13411   2.929   1.658   2.635
  126OSM     OF13412   2.838   1.619   2.557
  126OSM    C2F13413   2.914   1.782   2.719
  126OSM    H2F13414   2.834   1.853   2.689
  126OSM    H2G13415   3.012   1.836   2.717
  126OSM    C3F13416   2.897   1.739   2.866
  126OSM    H3F13417   2.984   1.675   2.894
  126OSM    H3G13418   2.799   1.689   2.878
  126OSM    C4F13419   2.890   1.861   2.952
  126OSM    H4F13420   2.797   1.919   2.934
  126OSM    H4G13421   2.977   1.927   2.937
  126OSM    C5F13422   2.893   1.826   3.108
  126OSM    H5F13423   2.991   1.776   3.124
  126OSM    H5G13424   2.812   1.753   3.130
  126OSM    C6F13425   2.874   1.941   3.212
  126OSM    H6F13426   2.814   2.017   3.157
  126OSM    H6G13427   2.973   1.987   3.231
  126OSM    C7F13428   2.812   1.900   3.344
  126OSM    H7F13429   2.868   1.823   3.401
  126OSM    H7G13430   2.713   1.855   3.322
  126OSM    C8F13431   2.788   2.021   3.447
  126OSM    H8F13432   2.734   1.979   3.535
  126OSM    H8G13433   2.728   2.088   3.382
  126OSM    C9F13434   2.926   2.075   3.483
  126OSM    H9F13435   3.001   2.039   3.411
  126OSM   C10F13436   2.955   2.153   3.594
  126OSM   H10F13437   3.055   2.198   3.604
  126OSM   C11F13438   2.858   2.212   3.689
  126OSM   H11F13439   2.755   2.219   3.647
  126OSM   H11G13440   2.897   2.316   3.691
  126OSM   C12F13441   2.848   2.152   3.829
  126OSM   H12F13442   2.925   2.191   3.900
  126OSM   H12G13443   2.866   2.043   3.832
  126OSM   C13F13444   2.711   2.174   3.893
  126OSM   H13F13445   2.634   2.114   3.839
  126OSM   H13G13446   2.685   2.282   3.899
  126OSM   C14F13447   2.705   2.139   4.045
  126OSM   H14F13448   2.768   2.211   4.099
  126OSM   H14G13449   2.754   2.040   4.054
  126OSM   C15F13450   2.566   2.136   4.113
  126OSM   H15F13451   2.502   2.066   4.057
  126OSM   H15G13452   2.526   2.240   4.107
  126OSM   C16F13453   2.577   2.063   4.246
  126OSM   H16F13454   2.616   1.959   4.237
  126OSM   H16G13455   2.478   2.044   4.294
  126OSM   C17F13456   2.666   2.133   4.352
  126OSM   H17F13457   2.634   2.238   4.371
  126OSM   H17G13458   2.769   2.158   4.322
  126OSM   C18F13459   2.668   2.072   4.497
  126OSM   H18F13460   2.579   2.100   4.558
  126OSM   H18G13461   2.749   2.128   4.547
  126OSM   H18H13462   2.678   1.961   4.489
  127OSM      N13463   2.593   3.265   2.228
  127OSM    C1513464   2.687   3.235   2.120
  127OSM   H15A13465   2.776   3.295   2.127
  127OSM   H15B13466   2.652   3.245   2.018
  127OSM   H15C13467   2.713   3.130   2.124
  127OSM    C1413468   2.648   3.233   2.364
  127OSM   H14A13469   2.668   3.127   2.370
  127OSM   H14B13470   2.582   3.254   2.446
  127OSM   H14C13471   2.739   3.286   2.389
  127OSM    C1313472   2.545   3.406   2.211
  127OSM   H13A13473   2.625   3.479   2.216
  127OSM   H13B13474   2.484   3.424   2.298
  127OSM   H13C13475   2.481   3.419   2.124
  127OSM    C1213476   2.472   3.176   2.215
  127OSM   H12A13477   2.396   3.212   2.283
  127OSM   H12B13478   2.504   3.075   2.238
  127OSM    C1113479   2.404   3.167   2.074
  127OSM   H11A13480   2.321   3.093   2.080
  127OSM   H11B13481   2.484   3.121   2.012
  127OSM      P13482   2.214   3.328   2.025
  127OSM    O1313483   2.180   3.466   1.984
  127OSM    O1413484   2.133   3.219   1.960
  127OSM    O1113485   2.204   3.315   2.183
  127OSM    O1213486   2.368   3.298   2.021
  127OSM    C1S13487   2.074   3.299   2.243
  127OSM    H1S13488   2.034   3.196   2.230
  127OSM    H1T13489   1.999   3.370   2.201
  127OSM     NF13490   1.964   3.320   2.461
  127OSM    HNF13491   1.915   3.407   2.459
  127OSM    C2S13492   2.093   3.325   2.396
  127OSM    H2S13493   2.145   3.234   2.432
  127OSM    C3S13494   2.163   3.461   2.431
  127OSM    H3S13495   2.112   3.541   2.374
  127OSM     O313496   2.297   3.460   2.381
  127OSM    HO313497   2.294   3.406   2.301
  127OSM    C4S13498   2.155   3.499   2.570
  127OSM    H4S13499   2.052   3.527   2.595
  127OSM    C5S13500   2.259   3.517   2.655
  127OSM    H5S13501   2.360   3.497   2.616
  127OSM    C6S13502   2.244   3.567   2.794
  127OSM    H6S13503   2.271   3.675   2.795
  127OSM    H6T13504   2.320   3.510   2.851
  127OSM    C7S13505   2.108   3.542   2.861
  127OSM    H7S13506   2.078   3.435   2.859
  127OSM    H7T13507   2.027   3.596   2.808
  127OSM    C8S13508   2.098   3.583   3.012
  127OSM    H8S13509   2.155   3.678   3.015
  127OSM    H8T13510   2.161   3.506   3.063
  127OSM    C9S13511   1.960   3.585   3.071
  127OSM    H9S13512   1.934   3.477   3.081
  127OSM    H9T13513   1.889   3.640   3.006
  127OSM   C10S13514   1.961   3.637   3.218
  127OSM   H10S13515   1.925   3.742   3.220
  127OSM   H10T13516   2.066   3.644   3.255
  127OSM   C11S13517   1.873   3.563   3.309
  127OSM   H11S13518   1.917   3.462   3.327
  127OSM   H11T13519   1.768   3.554   3.276
  127OSM   C12S13520   1.864   3.627   3.450
  127OSM   H12S13521   1.806   3.721   3.439
  127OSM   H12T13522   1.965   3.645   3.493
  127OSM   C13S13523   1.779   3.549   3.553
  127OSM   H13S13524   1.817   3.445   3.551
  127OSM   H13T13525   1.677   3.534   3.511
  127OSM   C14S13526   1.767   3.615   3.685
  127OSM   H14S13527   1.696   3.701   3.686
  127OSM   H14T13528   1.863   3.641   3.735
  127OSM   C15S13529   1.706   3.520   3.794
  127OSM   H15S13530   1.761   3.428   3.822
  127OSM   H15T13531   1.609   3.501   3.744
  127OSM   C16S13532   1.679   3.600   3.922
  127OSM   H16S13533   1.606   3.679   3.895
  127OSM   H16T13534   1.757   3.668   3.964
  127OSM   C17S13535   1.609   3.519   4.031
  127OSM   H17S13536   1.669   3.431   4.063
  127OSM   H17T13537   1.518   3.476   3.984
  127OSM   C18S13538   1.558   3.599   4.154
  127OSM   H18S13539   1.494   3.684   4.120
  127OSM   H18T13540   1.641   3.647   4.210
  127OSM   H18U13541   1.492   3.539   4.220
  127OSM    C1F13542   1.900   3.210   2.483
  127OSM     OF13543   1.953   3.102   2.473
  127OSM    C2F13544   1.755   3.217   2.514
  127OSM    H2F13545   1.718   3.111   2.516
  127OSM    H2G13546   1.703   3.262   2.427
  127OSM    C3F13547   1.706   3.292   2.640
  127OSM    H3F13548   1.595   3.286   2.653
  127OSM    H3G13549   1.730   3.401   2.633
  127OSM    C4F13550   1.749   3.229   2.771
  127OSM    H4F13551   1.860   3.221   2.780
  127OSM    H4G13552   1.694   3.133   2.783
  127OSM    C5F13553   1.706   3.323   2.887
  127OSM    H5F13554   1.605   3.360   2.861
  127OSM    H5G13555   1.768   3.415   2.888
  127OSM    C6F13556   1.702   3.246   3.021
  127OSM    H6F13557   1.806   3.216   3.045
  127OSM    H6G13558   1.643   3.153   3.008
  127OSM    C7F13559   1.627   3.321   3.136
  127OSM    H7F13560   1.525   3.347   3.102
  127OSM    H7G13561   1.684   3.415   3.148
  127OSM    C8F13562   1.621   3.232   3.262
  127OSM    H8F13563   1.726   3.205   3.290
  127OSM    H8G13564   1.587   3.132   3.227
  127OSM    C9F13565   1.536   3.301   3.363
  127OSM    H9F13566   1.455   3.364   3.324
  127OSM   C10F13567   1.550   3.280   3.494
  127OSM   H10F13568   1.485   3.332   3.567
  127OSM   C11F13569   1.651   3.192   3.561
  127OSM   H11F13570   1.717   3.243   3.634
  127OSM   H11G13571   1.714   3.126   3.497
  127OSM   C12F13572   1.579   3.085   3.652
  127OSM   H12F13573   1.491   3.037   3.605
  127OSM   H12G13574   1.530   3.135   3.738
  127OSM   C13F13575   1.673   2.964   3.691
  127OSM   H13F13576   1.770   3.000   3.735
  127OSM   H13G13577   1.685   2.925   3.588
  127OSM   C14F13578   1.614   2.859   3.773
  127OSM   H14F13579   1.641   2.895   3.874
  127OSM   H14G13580   1.665   2.762   3.754
  127OSM   C15F13581   1.459   2.833   3.752
  127OSM   H15F13582   1.433   2.820   3.645
  127OSM   H15G13583   1.401   2.919   3.792
  127OSM   C16F13584   1.406   2.712   3.832
  127OSM   H16F13585   1.467   2.620   3.816
  127OSM   H16G13586   1.308   2.678   3.794
  127OSM   C17F13587   1.376   2.745   3.981
  127OSM   H17F13588   1.320   2.838   4.003
  127OSM   H17G13589   1.477   2.762   4.024
  127OSM   C18F13590   1.306   2.624   4.050
  127OSM   H18F13591   1.198   2.626   4.026
  127OSM   H18G13592   1.317   2.635   4.160
  127OSM   H18H13593   1.366   2.535   4.021
  128OSM      N13594   1.324   0.844   1.774
  128OSM    C1513595   1.437   0.797   1.686
  128OSM   H15A13596   1.401   0.806   1.584
  128OSM   H15B13597   1.462   0.693   1.696
  128OSM   H15C13598   1.524   0.857   1.705
  128OSM    C1413599   1.303   0.989   1.750
  128OSM   H14A13600   1.281   1.006   1.645
  128OSM   H14B13601   1.387   1.055   1.768
  128OSM   H14C13602   1.220   1.020   1.812
  128OSM    C1313603   1.203   0.773   1.724
  128OSM   H13A13604   1.192   0.759   1.618
  128OSM   H13B13605   1.115   0.820   1.766
  128OSM   H13C13606   1.197   0.672   1.761
  128OSM    C1213607   1.347   0.814   1.919
  128OSM   H12A13608   1.368   0.709   1.926
  128OSM   H12B13609   1.255   0.832   1.972
  128OSM    C1113610   1.463   0.894   1.981
  128OSM   H11A13611   1.437   0.895   2.089
  128OSM   H11B13612   1.464   1.000   1.946
  128OSM      P13613   1.719   0.901   1.924
  128OSM    O1313614   1.828   0.806   1.907
  128OSM    O1413615   1.691   0.980   1.805
  128OSM    O1113616   1.748   0.999   2.044
  128OSM    O1213617   1.586   0.827   1.967
  128OSM    C1S13618   1.753   0.953   2.181
  128OSM    H1S13619   1.829   0.875   2.201
  128OSM    H1T13620   1.651   0.942   2.223
  128OSM     NF13621   1.846   1.021   2.403
  128OSM    HNF13622   1.773   1.043   2.467
  128OSM    C2S13623   1.806   1.075   2.271
  128OSM    H2S13624   1.898   1.122   2.231
  128OSM    C3S13625   1.700   1.195   2.276
  128OSM    H3S13626   1.606   1.139   2.296
  128OSM     O313627   1.679   1.255   2.144
  128OSM    HO313628   1.716   1.185   2.090
  128OSM    C4S13629   1.747   1.294   2.376
  128OSM    H4S13630   1.819   1.365   2.333
  128OSM    C5S13631   1.710   1.307   2.508
  128OSM    H5S13632   1.655   1.224   2.554
  128OSM    C6S13633   1.750   1.425   2.592
  128OSM    H6S13634   1.660   1.482   2.624
  128OSM    H6T13635   1.806   1.498   2.530
  128OSM    C7S13636   1.849   1.380   2.703
  128OSM    H7S13637   1.803   1.312   2.778
  128OSM    H7T13638   1.871   1.472   2.760
  128OSM    C8S13639   1.991   1.328   2.657
  128OSM    H8S13640   2.035   1.381   2.569
  128OSM    H8T13641   1.978   1.221   2.633
  128OSM    C9S13642   2.084   1.347   2.777
  128OSM    H9S13643   2.038   1.311   2.871
  128OSM    H9T13644   2.104   1.455   2.795
  128OSM   C10S13645   2.210   1.262   2.781
  128OSM   H10S13646   2.266   1.276   2.685
  128OSM   H10T13647   2.175   1.157   2.783
  128OSM   C11S13648   2.309   1.277   2.897
  128OSM   H11S13649   2.345   1.380   2.916
  128OSM   H11T13650   2.394   1.211   2.869
  128OSM   C12S13651   2.246   1.222   3.027
  128OSM   H12S13652   2.195   1.126   3.005
  128OSM   H12T13653   2.173   1.299   3.059
  128OSM   C13S13654   2.344   1.191   3.151
  128OSM   H13S13655   2.428   1.263   3.139
  128OSM   H13T13656   2.389   1.092   3.129
  128OSM   C14S13657   2.283   1.201   3.294
  128OSM   H14S13658   2.186   1.146   3.297
  128OSM   H14T13659   2.274   1.307   3.326
  128OSM   C15S13660   2.369   1.144   3.405
  128OSM   H15S13661   2.395   1.037   3.389
  128OSM   H15T13662   2.305   1.149   3.495
  128OSM   C16S13663   2.497   1.222   3.434
  128OSM   H16S13664   2.479   1.326   3.468
  128OSM   H16T13665   2.550   1.228   3.337
  128OSM   C17S13666   2.575   1.150   3.538
  128OSM   H17S13667   2.592   1.044   3.510
  128OSM   H17T13668   2.512   1.149   3.630
  128OSM   C18S13669   2.715   1.206   3.563
  128OSM   H18S13670   2.717   1.315   3.584
  128OSM   H18T13671   2.784   1.175   3.481
  128OSM   H18U13672   2.750   1.147   3.650
  128OSM    C1F13673   1.948   0.939   2.416
  128OSM     OF13674   2.020   0.917   2.321
  128OSM    C2F13675   1.967   0.871   2.546
  128OSM    H2F13676   1.895   0.787   2.538
  128OSM    H2G13677   1.942   0.947   2.624
  128OSM    C3F13678   2.112   0.827   2.570
  128OSM    H3F13679   2.169   0.922   2.575
  128OSM    H3G13680   2.144   0.764   2.484
  128OSM    C4F13681   2.139   0.743   2.700
  128OSM    H4F13682   2.245   0.710   2.708
  128OSM    H4G13683   2.076   0.651   2.690
  128OSM    C5F13684   2.100   0.825   2.827
  128OSM    H5F13685   1.992   0.849   2.819
  128OSM    H5G13686   2.161   0.917   2.819
  128OSM    C6F13687   2.119   0.738   2.955
  128OSM    H6F13688   2.221   0.694   2.948
  128OSM    H6G13689   2.054   0.648   2.944
  128OSM    C7F13690   2.110   0.806   3.096
  128OSM    H7F13691   2.025   0.878   3.091
  128OSM    H7G13692   2.203   0.866   3.101
  128OSM    C8F13693   2.101   0.708   3.210
  128OSM    H8F13694   2.026   0.628   3.191
  128OSM    H8G13695   2.067   0.763   3.300
  128OSM    C9F13696   2.235   0.637   3.233
  128OSM    H9F13697   2.293   0.633   3.140
  128OSM   C10F13698   2.290   0.627   3.356
  128OSM   H10F13699   2.388   0.577   3.362
  128OSM   C11F13700   2.210   0.646   3.484
  128OSM   H11F13701   2.240   0.562   3.550
  128OSM   H11G13702   2.100   0.641   3.472
  128OSM   C12F13703   2.242   0.784   3.549
  128OSM   H12F13704   2.190   0.774   3.646
  128OSM   H12G13705   2.205   0.863   3.480
  128OSM   C13F13706   2.392   0.823   3.578
  128OSM   H13F13707   2.402   0.930   3.608
  128OSM   H13G13708   2.446   0.804   3.483
  128OSM   C14F13709   2.452   0.729   3.696
  128OSM   H14F13710   2.441   0.628   3.650
  128OSM   H14G13711   2.384   0.747   3.782
  128OSM   C15F13712   2.601   0.752   3.719
  128OSM   H15F13713   2.612   0.858   3.748
  128OSM   H15G13714   2.651   0.744   3.620
  128OSM   C16F13715   2.671   0.666   3.822
  128OSM   H16F13716   2.646   0.562   3.790
  128OSM   H16G13717   2.614   0.689   3.914
  128OSM   C17F13718   2.817   0.692   3.834
  128OSM   H17F13719   2.861   0.695   3.732
  128OSM   H17G13720   2.868   0.610   3.889
  128OSM   C18F13721   2.845   0.823   3.918
  128OSM   H18F13722   2.816   0.914   3.861
  128OSM   H18G13723   2.954   0.819   3.939
  128OSM   H18H13724   2.805   0.827   4.022
  129OSM      N13725   3.756   0.627   2.043
  129OSM    C1513726   3.795   0.628   1.902
  129OSM   H15A13727   3.769   0.533   1.858
  129OSM   H15B13728   3.902   0.615   1.892
  129OSM   H15C13729   3.759   0.706   1.836
  129OSM    C1413730   3.810   0.756   2.103
  129OSM   H14A13731   3.918   0.753   2.107
  129OSM   H14B13732   3.759   0.763   2.198
  129OSM   H14C13733   3.763   0.840   2.054
  129OSM    C1313734   3.596   0.641   2.045
  129OSM   H13A13735   3.576   0.650   2.151
  129OSM   H13B13736   3.557   0.547   2.008
  129OSM   H13C13737   3.557   0.722   1.986
  129OSM    C1213738   3.800   0.508   2.122
  129OSM   H12A13739   3.768   0.507   2.226
  129OSM   H12B13740   3.907   0.521   2.127
  129OSM    C1113741   3.763   0.375   2.055
  129OSM   H11A13742   3.819   0.292   2.105
  129OSM   H11B13743   3.797   0.369   1.949
  129OSM      P13744   3.562   0.281   2.179
  129OSM    O1313745   3.425   0.246   2.143
  129OSM    O1413746   3.649   0.175   2.236
  129OSM    O1113747   3.549   0.403   2.284
  129OSM    O1213748   3.620   0.350   2.054
  129OSM    C1S13749   3.468   0.385   2.402
  129OSM    H1S13750   3.409   0.291   2.406
  129OSM    H1T13751   3.384   0.458   2.403
  129OSM     NF13752   3.468   0.370   2.659
  129OSM    HNF13753   3.461   0.456   2.710
  129OSM    C2S13754   3.548   0.396   2.539
  129OSM    H2S13755   3.629   0.321   2.526
  129OSM    C3S13756   3.613   0.538   2.542
  129OSM    H3S13757   3.546   0.627   2.537
  129OSM     O313758   3.706   0.558   2.435
  129OSM    HO313759   3.669   0.504   2.365
  129OSM    C4S13760   3.688   0.556   2.671
  129OSM    H4S13761   3.769   0.482   2.679
  129OSM    C5S13762   3.671   0.655   2.765
  129OSM    H5S13763   3.602   0.740   2.751
  129OSM    C6S13764   3.757   0.682   2.883
  129OSM    H6S13765   3.797   0.786   2.889
  129OSM    H6T13766   3.844   0.614   2.898
  129OSM    C7S13767   3.675   0.665   3.010
  129OSM    H7S13768   3.636   0.561   3.004
  129OSM    H7T13769   3.583   0.728   3.007
  129OSM    C8S13770   3.755   0.683   3.136
  129OSM    H8S13771   3.812   0.778   3.140
  129OSM    H8T13772   3.841   0.613   3.143
  129OSM    C9S13773   3.669   0.646   3.259
  129OSM    H9S13774   3.632   0.546   3.227
  129OSM    H9T13775   3.585   0.717   3.263
  129OSM   C10S13776   3.748   0.651   3.384
  129OSM   H10S13777   3.804   0.742   3.417
  129OSM   H10T13778   3.823   0.569   3.377
  129OSM   C11S13779   3.655   0.624   3.504
  129OSM   H11S13780   3.601   0.527   3.505
  129OSM   H11T13781   3.581   0.708   3.505
  129OSM   C12S13782   3.738   0.629   3.631
  129OSM   H12S13783   3.797   0.721   3.650
  129OSM   H12T13784   3.815   0.549   3.629
  129OSM   C13S13785   3.647   0.610   3.754
  129OSM   H13S13786   3.570   0.532   3.740
  129OSM   H13T13787   3.593   0.707   3.762
  129OSM   C14S13788   3.734   0.591   3.886
  129OSM   H14S13789   3.674   0.612   3.977
  129OSM   H14T13790   3.819   0.662   3.875
  129OSM   C15S13791   3.789   0.451   3.891
  129OSM   H15S13792   3.841   0.434   3.795
  129OSM   H15T13793   3.706   0.378   3.897
  129OSM   C16S13794   3.905   0.428   3.982
  129OSM   H16S13795   3.862   0.424   4.085
  129OSM   H16T13796   3.979   0.509   3.965
  129OSM   C17S13797   3.974   0.287   3.964
  129OSM   H17S13798   4.012   0.271   3.860
  129OSM   H17T13799   3.895   0.211   3.982
  129OSM   C18S13800   4.088   0.271   4.071
  129OSM   H18S13801   4.051   0.287   4.175
  129OSM   H18T13802   4.176   0.334   4.049
  129OSM   H18U13803   4.117   0.164   4.062
  129OSM    C1F13804   3.414   0.255   2.693
  129OSM     OF13805   3.437   0.165   2.618
  129OSM    C2F13806   3.322   0.253   2.814
  129OSM    H2F13807   3.251   0.339   2.810
  129OSM    H2G13808   3.393   0.266   2.899
  129OSM    C3F13809   3.237   0.128   2.836
  129OSM    H3F13810   3.301   0.039   2.852
  129OSM    H3G13811   3.173   0.113   2.746
  129OSM    C4F13812   3.148   0.131   2.959
  129OSM    H4F13813   3.063   0.059   2.955
  129OSM    H4G13814   3.096   0.229   2.966
  129OSM    C5F13815   3.226   0.118   3.099
  129OSM    H5F13816   3.280   0.212   3.122
  129OSM    H5G13817   3.287   0.025   3.105
  129OSM    C6F13818   3.132   0.132   3.215
  129OSM    H6F13819   3.066   0.045   3.195
  129OSM    H6G13820   3.070   0.224   3.212
  129OSM    C7F13821   3.206   0.115   3.351
  129OSM    H7F13822   3.269   0.204   3.373
  129OSM    H7G13823   3.269   0.025   3.334
  129OSM    C8F13824   3.116   0.083   3.477
  129OSM    H8F13825   3.023   0.144   3.474
  129OSM    H8G13826   3.161   0.117   3.573
  129OSM    C9F13827   3.070   6.842   3.483
  129OSM    H9F13828   3.132   6.767   3.431
  129OSM   C10F13829   2.971   6.800   3.562
  129OSM   H10F13830   2.942   6.695   3.548
  129OSM   C11F13831   2.875   6.882   3.643
  129OSM   H11F13832   2.772   6.858   3.608
  129OSM   H11G13833   2.887   0.092   3.639
  129OSM   C12F13834   2.873   6.841   3.798
  129OSM   H12F13835   2.860   6.731   3.807
  129OSM   H12G13836   2.786   6.895   3.840
  129OSM   C13F13837   3.006   6.862   3.865
  129OSM   H13F13838   3.030   0.066   3.836
  129OSM   H13G13839   3.086   6.798   3.823
  129OSM   C14F13840   2.988   6.842   4.014
  129OSM   H14F13841   2.915   0.014   4.055
  129OSM   H14G13842   3.095   6.853   4.043
  129OSM   C15F13843   2.948   6.703   4.061
  129OSM   H15F13844   3.013   6.624   4.018
  129OSM   H15G13845   2.849   6.680   4.017
  129OSM   C16F13846   2.948   6.672   4.211
  129OSM   H16F13847   2.867   6.716   4.273
  129OSM   H16G13848   3.045   6.700   4.259
  129OSM   C17F13849   2.947   6.518   4.234
  129OSM   H17F13850   3.018   6.465   4.168
  129OSM   H17G13851   2.850   6.485   4.191
  129OSM   C18F13852   2.958   6.469   4.381
  129OSM   H18F13853   2.910   6.546   4.446
  129OSM   H18G13854   3.065   6.463   4.409
  129OSM   H18H13855   2.904   6.373   4.394
  130OSM      N13856   3.281   4.855   2.233
  130OSM    C1513857   3.183   4.941   2.173
  130OSM   H15A13858   3.182   4.923   2.066
  130OSM   H15B13859   3.198   5.047   2.191
  130OSM   H15C13860   3.083   4.923   2.210
  130OSM    C1413861   3.414   4.870   2.163
  130OSM   H14A13862   3.478   4.785   2.148
  130OSM   H14B13863   3.476   4.936   2.222
  130OSM   H14C13864   3.405   4.918   2.067
  130OSM    C1313865   3.305   4.891   2.375
  130OSM   H13A13866   3.218   4.891   2.438
  130OSM   H13B13867   3.363   4.981   2.386
  130OSM   H13C13868   3.374   4.818   2.415
  130OSM    C1213869   3.244   4.705   2.229
  130OSM   H12A13870   3.166   4.690   2.303
  130OSM   H12B13871   3.325   4.646   2.270
  130OSM    C1113872   3.202   4.636   2.101
  130OSM   H11A13873   3.123   4.701   2.057
  130OSM   H11B13874   3.148   4.542   2.127
  130OSM      P13875   3.350   4.473   1.959
  130OSM    O1313876   3.236   4.414   1.889
  130OSM    O1413877   3.475   4.479   1.887
  130OSM    O1113878   3.362   4.413   2.103
  130OSM    O1213879   3.313   4.616   2.011
  130OSM    C1S13880   3.473   4.442   2.194
  130OSM    H1S13881   3.482   4.551   2.214
  130OSM    H1T13882   3.570   4.418   2.146
  130OSM     NF13883   3.556   4.418   2.431
  130OSM    HNF13884   3.636   4.367   2.461
  130OSM    C2S13885   3.469   4.364   2.328
  130OSM    H2S13886   3.365   4.358   2.367
  130OSM    C3S13887   3.504   4.211   2.306
  130OSM    H3S13888   3.613   4.193   2.292
  130OSM     O313889   3.436   4.158   2.192
  130OSM    HO313890   3.371   4.228   2.181
  130OSM    C4S13891   3.462   4.135   2.431
  130OSM    H4S13892   3.542   4.107   2.501
  130OSM    C5S13893   3.336   4.118   2.470
  130OSM    H5S13894   3.257   4.158   2.405
  130OSM    C6S13895   3.286   4.046   2.592
  130OSM    H6S13896   3.205   3.977   2.561
  130OSM    H6T13897   3.245   4.119   2.664
  130OSM    C7S13898   3.388   3.967   2.681
  130OSM    H7S13899   3.451   3.901   2.617
  130OSM    H7T13900   3.320   3.900   2.739
  130OSM    C8S13901   3.465   4.058   2.775
  130OSM    H8S13902   3.512   4.145   2.726
  130OSM    H8T13903   3.550   4.004   2.821
  130OSM    C9S13904   3.378   4.121   2.881
  130OSM    H9S13905   3.296   4.047   2.896
  130OSM    H9T13906   3.330   4.217   2.853
  130OSM   C10S13907   3.457   4.156   3.012
  130OSM   H10S13908   3.536   4.230   2.986
  130OSM   H10T13909   3.504   4.067   3.060
  130OSM   C11S13910   3.360   4.212   3.114
  130OSM   H11S13911   3.286   4.142   3.160
  130OSM   H11T13912   3.300   4.282   3.052
  130OSM   C12S13913   3.425   4.272   3.246
  130OSM   H12S13914   3.518   4.322   3.214
  130OSM   H12T13915   3.472   4.197   3.313
  130OSM   C13S13916   3.330   4.362   3.324
  130OSM   H13S13917   3.227   4.324   3.342
  130OSM   H13T13918   3.324   4.463   3.279
  130OSM   C14S13919   3.386   4.400   3.471
  130OSM   H14S13920   3.301   4.457   3.514
  130OSM   H14T13921   3.482   4.455   3.477
  130OSM   C15S13922   3.402   4.272   3.558
  130OSM   H15S13923   3.493   4.213   3.532
  130OSM   H15T13924   3.326   4.197   3.528
  130OSM   C16S13925   3.396   4.291   3.713
  130OSM   H16S13926   3.454   4.384   3.733
  130OSM   H16T13927   3.455   4.206   3.753
  130OSM   C17S13928   3.251   4.294   3.773
  130OSM   H17S13929   3.204   4.201   3.735
  130OSM   H17T13930   3.201   4.382   3.726
  130OSM   C18S13931   3.242   4.300   3.929
  130OSM   H18S13932   3.336   4.262   3.974
  130OSM   H18T13933   3.152   4.242   3.958
  130OSM   H18U13934   3.239   4.403   3.970
  130OSM    C1F13935   3.515   4.534   2.488
  130OSM     OF13936   3.406   4.584   2.458
  130OSM    C2F13937   3.599   4.597   2.591
  130OSM    H2F13938   3.596   4.705   2.566
  130OSM    H2G13939   3.702   4.559   2.608
  130OSM    C3F13940   3.524   4.590   2.726
  130OSM    H3F13941   3.508   4.484   2.754
  130OSM    H3G13942   3.424   4.640   2.722
  130OSM    C4F13943   3.607   4.643   2.842
  130OSM    H4F13944   3.622   4.752   2.823
  130OSM    H4G13945   3.712   4.607   2.840
  130OSM    C5F13946   3.537   4.620   2.979
  130OSM    H5F13947   3.537   4.512   3.007
  130OSM    H5G13948   3.435   4.662   2.964
  130OSM    C6F13949   3.598   4.701   3.089
  130OSM    H6F13950   3.592   4.808   3.061
  130OSM    H6G13951   3.707   4.679   3.100
  130OSM    C7F13952   3.535   4.681   3.232
  130OSM    H7F13953   3.550   4.574   3.254
  130OSM    H7G13954   3.428   4.710   3.227
  130OSM    C8F13955   3.605   4.778   3.324
  130OSM    H8F13956   3.592   4.882   3.288
  130OSM    H8G13957   3.713   4.759   3.306
  130OSM    C9F13958   3.572   4.763   3.470
  130OSM    H9F13959   3.466   4.737   3.487
  130OSM   C10F13960   3.658   4.753   3.580
  130OSM   H10F13961   3.623   4.724   3.680
  130OSM   C11F13962   3.807   4.775   3.578
  130OSM   H11F13963   3.834   4.855   3.505
  130OSM   H11G13964   3.863   4.682   3.556
  130OSM   C12F13965   3.861   4.829   3.708
  130OSM   H12F13966   3.807   4.926   3.721
  130OSM   H12G13967   3.969   4.833   3.686
  130OSM   C13F13968   3.829   4.746   3.828
  130OSM   H13F13969   3.849   4.641   3.796
  130OSM   H13G13970   3.726   4.760   3.869
  130OSM   C14F13971   3.918   4.812   3.939
  130OSM   H14F13972   3.864   4.906   3.961
  130OSM   H14G13973   4.023   4.826   3.907
  130OSM   C15F13974   3.910   4.741   4.072
  130OSM   H15F13975   3.946   4.639   4.047
  130OSM   H15G13976   3.808   4.734   4.116
  130OSM   C16F13977   3.996   4.811   4.178
  130OSM   H16F13978   3.984   4.916   4.146
  130OSM   H16G13979   4.106   4.795   4.169
  130OSM   C17F13980   3.960   4.791   4.323
  130OSM   H17F13981   4.035   4.844   4.386
  130OSM   H17G13982   3.975   4.686   4.354
  130OSM   C18F13983   3.818   4.829   4.380
  130OSM   H18F13984   3.800   4.938   4.389
  130OSM   H18G13985   3.807   4.780   4.479
  130OSM   H18H13986   3.746   4.795   4.303
  131OSM      N13987   0.575   0.874   1.634
  131OSM    C1513988   0.631   0.986   1.560
  131OSM   H15A13989   0.587   1.007   1.464
  131OSM   H15B13990   0.738   0.977   1.547
  131OSM   H15C13991   0.632   1.082   1.611
  131OSM    C1413992   0.426   0.902   1.649
  131OSM   H14A13993   0.378   0.891   1.553
  131OSM   H14B13994   0.395   0.999   1.686
  131OSM   H14C13995   0.384   0.830   1.719
  131OSM    C1313996   0.588   0.755   1.556
  131OSM   H13A13997   0.527   0.763   1.467
  131OSM   H13B13998   0.558   0.665   1.608
  131OSM   H13C13999   0.691   0.739   1.531
  131OSM    C1214000   0.639   0.865   1.773
  131OSM   H12A14001   0.589   0.779   1.815
  131OSM   H12B14002   0.603   0.945   1.837
  131OSM    C1114003   0.788   0.848   1.791
  131OSM   H11A14004   0.830   0.769   1.725
  131OSM   H11B14005   0.816   0.816   1.894
  131OSM      P14006   0.887   1.070   1.872
  131OSM    O1314007   0.988   1.168   1.832
  131OSM    O1414008   0.764   1.109   1.941
  131OSM    O1114009   0.962   0.978   1.976
  131OSM    O1214010   0.853   0.973   1.757
  131OSM    C1S14011   1.013   1.043   2.091
  131OSM    H1S14012   0.952   1.130   2.123
  131OSM    H1T14013   1.112   1.090   2.071
  131OSM     NF14014   1.064   1.014   2.331
  131OSM    HNF14015   1.157   1.005   2.365
  131OSM    C2S14016   1.031   0.942   2.212
  131OSM    H2S14017   0.930   0.898   2.228
  131OSM    C3S14018   1.117   0.817   2.172
  131OSM    H3S14019   1.219   0.858   2.158
  131OSM     O314020   1.085   0.749   2.053
  131OSM    HO314021   1.021   0.792   1.996
  131OSM    C4S14022   1.113   0.715   2.282
  131OSM    H4S14023   1.012   0.675   2.300
  131OSM    C5S14024   1.216   0.660   2.348
  131OSM    H5S14025   1.317   0.702   2.332
  131OSM    C6S14026   1.193   0.554   2.452
  131OSM    H6S14027   1.224   0.452   2.420
  131OSM    H6T14028   1.087   0.550   2.485
  131OSM    C7S14029   1.264   0.594   2.588
  131OSM    H7S14030   1.222   0.696   2.605
  131OSM    H7T14031   1.374   0.600   2.574
  131OSM    C8S14032   1.233   0.496   2.696
  131OSM    H8S14033   1.267   0.391   2.680
  131OSM    H8T14034   1.123   0.500   2.712
  131OSM    C9S14035   1.298   0.535   2.829
  131OSM    H9S14036   1.265   0.637   2.858
  131OSM    H9T14037   1.408   0.548   2.820
  131OSM   C10S14038   1.265   0.439   2.944
  131OSM   H10S14039   1.311   0.342   2.917
  131OSM   H10T14040   1.161   0.407   2.966
  131OSM   C11S14041   1.331   0.483   3.080
  131OSM   H11S14042   1.275   0.573   3.115
  131OSM   H11T14043   1.438   0.508   3.060
  131OSM   C12S14044   1.308   0.372   3.184
  131OSM   H12S14045   1.396   0.307   3.205
  131OSM   H12T14046   1.226   0.304   3.153
  131OSM   C13S14047   1.266   0.447   3.315
  131OSM   H13S14048   1.218   0.375   3.384
  131OSM   H13T14049   1.202   0.537   3.299
  131OSM   C14S14050   1.386   0.497   3.393
  131OSM   H14S14051   1.449   0.565   3.332
  131OSM   H14T14052   1.444   0.403   3.401
  131OSM   C15S14053   1.361   0.562   3.520
  131OSM   H15S14054   1.315   0.658   3.488
  131OSM   H15T14055   1.458   0.592   3.566
  131OSM   C16S14056   1.271   0.489   3.619
  131OSM   H16S14057   1.312   0.394   3.660
  131OSM   H16T14058   1.172   0.466   3.575
  131OSM   C17S14059   1.230   0.586   3.734
  131OSM   H17S14060   1.320   0.631   3.781
  131OSM   H17T14061   1.175   0.519   3.804
  131OSM   C18S14062   1.129   0.698   3.690
  131OSM   H18S14063   1.182   0.766   3.620
  131OSM   H18T14064   1.106   0.768   3.773
  131OSM   H18U14065   1.036   0.648   3.654
  131OSM    C1F14066   0.985   1.113   2.376
  131OSM     OF14067   0.861   1.110   2.357
  131OSM    C2F14068   1.047   1.217   2.464
  131OSM    H2F14069   1.154   1.225   2.434
  131OSM    H2G14070   1.034   1.183   2.569
  131OSM    C3F14071   0.985   1.367   2.462
  131OSM    H3F14072   0.987   1.390   2.353
  131OSM    H3G14073   1.060   1.430   2.514
  131OSM    C4F14074   0.844   1.387   2.519
  131OSM    H4F14075   0.774   1.332   2.453
  131OSM    H4G14076   0.804   1.491   2.520
  131OSM    C5F14077   0.839   1.327   2.661
  131OSM    H5F14078   0.917   1.378   2.722
  131OSM    H5G14079   0.853   1.217   2.654
  131OSM    C6F14080   0.704   1.348   2.736
  131OSM    H6F14081   0.619   1.329   2.668
  131OSM    H6G14082   0.695   1.458   2.753
  131OSM    C7F14083   0.691   1.259   2.865
  131OSM    H7F14084   0.789   1.244   2.914
  131OSM    H7G14085   0.659   1.160   2.824
  131OSM    C8F14086   0.591   1.320   2.968
  131OSM    H8F14087   0.552   1.236   3.029
  131OSM    H8G14088   0.506   1.353   2.905
  131OSM    C9F14089   0.651   1.436   3.053
  131OSM    H9F14090   0.658   1.530   2.997
  131OSM   C10F14091   0.669   1.438   3.182
  131OSM   H10F14092   0.702   1.537   3.218
  131OSM   C11F14093   0.664   1.318   3.274
  131OSM   H11F14094   0.759   1.307   3.330
  131OSM   H11G14095   0.663   1.222   3.218
  131OSM   C12F14096   0.553   1.329   3.388
  131OSM   H12F14097   0.545   1.434   3.422
  131OSM   H12G14098   0.575   1.255   3.469
  131OSM   C13F14099   0.417   1.318   3.319
  131OSM   H13F14100   0.418   1.222   3.264
  131OSM   H13G14101   0.407   1.393   3.238
  131OSM   C14F14102   0.295   1.335   3.405
  131OSM   H14F14103   0.200   1.326   3.348
  131OSM   H14G14104   0.305   1.433   3.455
  131OSM   C15F14105   0.286   1.239   3.535
  131OSM   H15F14106   0.370   1.252   3.606
  131OSM   H15G14107   0.298   1.137   3.491
  131OSM   C16F14108   0.150   1.267   3.593
  131OSM   H16F14109   0.071   1.243   3.518
  131OSM   H16G14110   0.144   1.378   3.594
  131OSM   C17F14111   0.108   1.198   3.721
  131OSM   H17F14112   0.007   1.237   3.746
  131OSM   H17G14113   0.165   1.241   3.806
  131OSM   C18F14114   0.122   1.044   3.731
  131OSM   H18F14115   0.062   1.005   3.816
  131OSM   H18G14116   0.229   1.017   3.744
  131OSM   H18H14117   0.074   0.984   3.650
  132OSM      N14118   6.332   0.281   1.378
  132OSM    C1514119   6.481   0.250   1.364
  132OSM   H15A14120   6.489   0.185   1.278
  132OSM   H15B14121   6.515   0.207   1.456
  132OSM   H15C14122   6.535   0.342   1.347
  132OSM    C1414123   6.289   0.334   1.237
  132OSM   H14A14124   6.185   0.363   1.233
  132OSM   H14B14125   6.299   0.252   1.169
  132OSM   H14C14126   6.345   0.422   1.209
  132OSM    C1314127   6.247   0.156   1.410
  132OSM   H13A14128   6.286   0.076   1.349
  132OSM   H13B14129   6.141   0.151   1.391
  132OSM   H13C14130   6.262   0.135   1.515
  132OSM    C1214131   6.310   0.383   1.489
  132OSM   H12A14132   6.207   0.414   1.498
  132OSM   H12B14133   6.361   0.477   1.472
  132OSM    C1114134   6.352   0.344   1.633
  132OSM   H11A14135   6.354   0.439   1.691
  132OSM   H11B14136   6.455   0.303   1.622
  132OSM      P14137   6.116   0.301   1.742
  132OSM    O1314138   6.061   0.421   1.672
  132OSM    O1414139   6.028   0.181   1.733
  132OSM    O1114140   6.128   0.335   1.894
  132OSM    O1214141   6.260   0.254   1.697
  132OSM    C1S14142   6.162   0.234   1.997
  132OSM    H1S14143   6.269   0.211   1.982
  132OSM    H1T14144   6.111   0.136   1.983
  132OSM     NF14145   6.149   0.149   2.238
  132OSM    HNF14146   6.058   0.118   2.264
  132OSM    C2S14147   6.148   0.266   2.155
  132OSM    H2S14148   6.242   0.319   2.180
  132OSM    C3S14149   6.027   0.359   2.202
  132OSM    H3S14150   5.937   0.294   2.197
  132OSM     O314151   5.991   0.463   2.116
  132OSM    HO314152   6.044   0.438   2.040
  132OSM    C4S14153   6.038   0.388   2.350
  132OSM    H4S14154   6.019   0.305   2.419
  132OSM    C5S14155   6.071   0.508   2.401
  132OSM    H5S14156   6.099   0.587   2.330
  132OSM    C6S14157   6.110   0.548   2.540
  132OSM    H6S14158   6.045   0.632   2.573
  132OSM    H6T14159   6.217   0.577   2.537
  132OSM    C7S14160   6.111   0.440   2.655
  132OSM    H7S14161   6.178   0.358   2.622
  132OSM    H7T14162   6.007   0.403   2.671
  132OSM    C8S14163   6.167   0.492   2.784
  132OSM    H8S14164   6.103   0.569   2.833
  132OSM    H8T14165   6.268   0.531   2.762
  132OSM    C9S14166   6.185   0.394   2.905
  132OSM    H9S14167   6.274   0.418   2.969
  132OSM    H9T14168   6.206   0.289   2.875
  132OSM   C10S14169   6.073   0.394   3.000
  132OSM   H10S14170   5.984   0.365   2.940
  132OSM   H10T14171   6.058   0.499   3.032
  132OSM   C11S14172   6.100   0.313   3.119
  132OSM   H11S14173   6.201   0.339   3.159
  132OSM   H11T14174   6.108   0.206   3.089
  132OSM   C12S14175   5.988   0.334   3.218
  132OSM   H12S14176   5.889   0.296   3.185
  132OSM   H12T14177   5.975   0.441   3.244
  132OSM   C13S14178   6.020   0.270   3.360
  132OSM   H13S14179   6.107   0.320   3.407
  132OSM   H13T14180   6.043   0.165   3.331
  132OSM   C14S14181   5.900   0.275   3.451
  132OSM   H14S14182   5.826   0.218   3.390
  132OSM   H14T14183   5.865   0.379   3.463
  132OSM   C15S14184   5.935   0.215   3.590
  132OSM   H15S14185   6.011   0.274   3.646
  132OSM   H15T14186   5.975   0.113   3.575
  132OSM   C16S14187   5.817   0.197   3.685
  132OSM   H16S14188   5.723   0.183   3.628
  132OSM   H16T14189   5.791   0.291   3.739
  132OSM   C17S14190   5.855   0.083   3.787
  132OSM   H17S14191   5.941   0.128   3.841
  132OSM   H17T14192   5.881   6.887   3.738
  132OSM   C18S14193   5.739   0.043   3.892
  132OSM   H18S14194   5.720   0.117   3.974
  132OSM   H18T14195   5.766   6.847   3.940
  132OSM   H18U14196   5.643   0.029   3.839
  132OSM    C1F14197   6.265   0.070   2.250
  132OSM     OF14198   6.353   0.086   2.168
  132OSM    C2F14199   6.278   6.871   2.360
  132OSM    H2F14200   6.191   6.803   2.350
  132OSM    H2G14201   6.285   0.024   2.457
  132OSM    C3F14202   6.408   6.785   2.327
  132OSM    H3F14203   6.496   6.853   2.326
  132OSM    H3G14204   6.395   6.742   2.226
  132OSM    C4F14205   6.413   6.670   2.426
  132OSM    H4F14206   6.492   6.598   2.396
  132OSM    H4G14207   6.323   6.608   2.406
  132OSM    C5F14208   6.422   6.706   2.572
  132OSM    H5F14209   6.329   6.762   2.596
  132OSM    H5G14210   6.504   6.776   2.598
  132OSM    C6F14211   6.424   6.586   2.673
  132OSM    H6F14212   6.508   6.516   2.650
  132OSM    H6G14213   6.328   6.532   2.680
  132OSM    C7F14214   6.440   6.646   2.815
  132OSM    H7F14215   6.352   6.706   2.848
  132OSM    H7G14216   6.526   6.715   2.807
  132OSM    C8F14217   6.474   6.533   2.918
  132OSM    H8F14218   6.552   6.469   2.871
  132OSM    H8G14219   6.380   6.475   2.929
  132OSM    C9F14220   6.525   6.589   3.048
  132OSM    H9F14221   6.516   6.697   3.064
  132OSM   C10F14222   6.620   6.534   3.120
  132OSM   H10F14223   6.659   6.594   3.203
  132OSM   C11F14224   6.675   6.390   3.114
  132OSM   H11F14225   6.597   6.311   3.123
  132OSM   H11G14226   6.741   6.383   3.203
  132OSM   C12F14227   6.778   6.344   3.005
  132OSM   H12F14228   6.729   6.336   2.906
  132OSM   H12G14229   6.817   6.243   3.029
  132OSM   C13F14230   6.897   6.444   2.990
  132OSM   H13F14231   0.021   6.466   3.096
  132OSM   H13G14232   6.859   6.538   2.944
  132OSM   C14F14233   0.128   6.380   2.934
  132OSM   H14F14234   0.102   6.344   2.832
  132OSM   H14G14235   0.152   6.295   3.001
  132OSM   C15F14236   0.250   6.472   2.931
  132OSM   H15F14237   0.287   6.483   3.035
  132OSM   H15G14238   0.225   6.573   2.893
  132OSM   C16F14239   0.376   6.418   2.850
  132OSM   H16F14240   0.392   6.308   2.852
  132OSM   H16G14241   0.473   6.456   2.889
  132OSM   C17F14242   0.354   6.436   2.695
  132OSM   H17F14243   0.253   6.397   2.676
  132OSM   H17G14244   0.437   6.382   2.644
  132OSM   C18F14245   0.368   6.585   2.668
  132OSM   H18F14246   0.390   6.607   2.561
  132OSM   H18G14247   0.449   6.643   2.718
  132OSM   H18H14248   0.275   6.643   2.684
  133OSM      N14249   4.012   2.914   2.109
  133OSM    C1514250   3.911   2.869   2.203
  133OSM   H15A14251   3.966   2.823   2.284
  133OSM   H15B14252   3.838   2.804   2.157
  133OSM   H15C14253   3.861   2.950   2.254
  133OSM    C1414254   4.102   2.805   2.080
  133OSM   H14A14255   4.157   2.768   2.165
  133OSM   H14B14256   4.170   2.846   2.006
  133OSM   H14C14257   4.050   2.725   2.029
  133OSM    C1314258   3.931   2.955   1.992
  133OSM   H13A14259   3.993   2.989   1.910
  133OSM   H13B14260   3.870   3.039   2.021
  133OSM   H13C14261   3.861   2.878   1.961
  133OSM    C1214262   4.101   3.024   2.163
  133OSM   H12A14263   4.051   3.120   2.166
  133OSM   H12B14264   4.173   3.048   2.086
  133OSM    C1114265   4.179   3.007   2.291
  133OSM   H11A14266   4.113   2.969   2.372
  133OSM   H11B14267   4.220   3.103   2.329
  133OSM      P14268   4.423   2.944   2.229
  133OSM    O1314269   4.493   2.822   2.189
  133OSM    O1414270   4.436   3.050   2.135
  133OSM    O1114271   4.471   2.993   2.370
  133OSM    O1214272   4.275   2.905   2.268
  133OSM    C1S14273   4.461   2.905   2.481
  133OSM    H1S14274   4.550   2.839   2.479
  133OSM    H1T14275   4.368   2.844   2.476
  133OSM     NF14276   4.484   2.898   2.727
  133OSM    HNF14277   4.408   2.872   2.787
  133OSM    C2S14278   4.452   2.987   2.613
  133OSM    H2S14279   4.538   3.056   2.603
  133OSM    C3S14280   4.323   3.069   2.642
  133OSM    H3S14281   4.244   2.992   2.630
  133OSM     O314282   4.296   3.168   2.539
  133OSM    HO314283   4.335   3.124   2.463
  133OSM    C4S14284   4.319   3.125   2.774
  133OSM    H4S14285   4.237   3.090   2.838
  133OSM    C5S14286   4.394   3.220   2.825
  133OSM    H5S14287   4.459   3.273   2.754
  133OSM    C6S14288   4.392   3.257   2.972
  133OSM    H6S14289   4.407   3.364   2.996
  133OSM    H6T14290   4.486   3.214   3.013
  133OSM    C7S14291   4.286   3.204   3.074
  133OSM    H7S14292   4.261   3.100   3.044
  133OSM    H7T14293   4.186   3.252   3.059
  133OSM    C8S14294   4.324   3.210   3.225
  133OSM    H8S14295   4.323   3.318   3.252
  133OSM    H8T14296   4.426   3.168   3.234
  133OSM    C9S14297   4.219   3.148   3.326
  133OSM    H9S14298   4.198   3.040   3.314
  133OSM    H9T14299   4.125   3.204   3.308
  133OSM   C10S14300   4.254   3.178   3.468
  133OSM   H10S14301   4.253   3.287   3.487
  133OSM   H10T14302   4.345   3.126   3.506
  133OSM   C11S14303   4.143   3.124   3.568
  133OSM   H11S14304   4.133   3.014   3.552
  133OSM   H11T14305   4.046   3.162   3.529
  133OSM   C12S14306   4.162   3.163   3.707
  133OSM   H12S14307   4.064   3.173   3.758
  133OSM   H12T14308   4.223   3.255   3.696
  133OSM   C13S14309   4.258   3.073   3.786
  133OSM   H13S14310   4.360   3.084   3.744
  133OSM   H13T14311   4.227   2.967   3.797
  133OSM   C14S14312   4.261   3.130   3.934
  133OSM   H14S14313   4.164   3.105   3.984
  133OSM   H14T14314   4.279   3.239   3.931
  133OSM   C15S14315   4.365   3.042   4.012
  133OSM   H15S14316   4.460   3.044   3.953
  133OSM   H15T14317   4.322   2.941   4.001
  133OSM   C16S14318   4.378   3.079   4.161
  133OSM   H16S14319   4.275   3.098   4.198
  133OSM   H16T14320   4.424   3.178   4.184
  133OSM   C17S14321   4.452   2.981   4.250
  133OSM   H17S14322   4.556   2.981   4.209
  133OSM   H17T14323   4.425   2.873   4.238
  133OSM   C18S14324   4.458   3.023   4.399
  133OSM   H18S14325   4.515   2.944   4.453
  133OSM   H18T14326   4.356   3.018   4.443
  133OSM   H18U14327   4.493   3.125   4.424
  133OSM    C1F14328   4.609   2.843   2.736
  133OSM     OF14329   4.695   2.864   2.653
  133OSM    C2F14330   4.633   2.756   2.860
  133OSM    H2F14331   4.711   2.678   2.843
  133OSM    H2G14332   4.537   2.718   2.900
  133OSM    C3F14333   4.688   2.844   2.979
  133OSM    H3F14334   4.778   2.894   2.937
  133OSM    H3G14335   4.712   2.776   3.063
  133OSM    C4F14336   4.594   2.948   3.040
  133OSM    H4F14337   4.490   2.921   3.067
  133OSM    H4G14338   4.584   3.023   2.959
  133OSM    C5F14339   4.660   3.007   3.161
  133OSM    H5F14340   4.613   3.102   3.194
  133OSM    H5G14341   4.767   3.024   3.137
  133OSM    C6F14342   4.653   2.910   3.280
  133OSM    H6F14343   4.663   2.804   3.249
  133OSM    H6G14344   4.557   2.928   3.333
  133OSM    C7F14345   4.770   2.941   3.378
  133OSM    H7F14346   4.758   3.042   3.422
  133OSM    H7G14347   4.860   2.951   3.314
  133OSM    C8F14348   4.777   2.839   3.493
  133OSM    H8F14349   4.854   2.872   3.565
  133OSM    H8G14350   4.806   2.740   3.451
  133OSM    C9F14351   4.647   2.817   3.564
  133OSM    H9F14352   4.572   2.771   3.497
  133OSM   C10F14353   4.612   2.853   3.683
  133OSM   H10F14354   4.513   2.835   3.728
  133OSM   C11F14355   4.698   2.912   3.790
  133OSM   H11F14356   4.633   2.975   3.855
  133OSM   H11G14357   4.780   2.978   3.755
  133OSM   C12F14358   4.758   2.800   3.875
  133OSM   H12F14359   4.676   2.727   3.892
  133OSM   H12G14360   4.817   2.841   3.959
  133OSM   C13F14361   4.864   2.716   3.797
  133OSM   H13F14362   4.951   2.783   3.775
  133OSM   H13G14363   4.828   2.671   3.703
  133OSM   C14F14364   4.914   2.598   3.894
  133OSM   H14F14365   5.003   2.550   3.849
  133OSM   H14G14366   4.831   2.524   3.895
  133OSM   C15F14367   4.940   2.642   4.045
  133OSM   H15F14368   4.841   2.674   4.083
  133OSM   H15G14369   5.012   2.726   4.055
  133OSM   C16F14370   5.000   2.536   4.139
  133OSM   H16F14371   4.985   2.576   4.241
  133OSM   H16G14372   5.108   2.529   4.111
  133OSM   C17F14373   4.959   2.392   4.126
  133OSM   H17F14374   4.972   2.358   4.021
  133OSM   H17G14375   4.850   2.382   4.148
  133OSM   C18F14376   5.028   2.285   4.211
  133OSM   H18F14377   5.025   2.188   4.158
  133OSM   H18G14378   4.997   2.278   4.318
  133OSM   H18H14379   5.134   2.317   4.224
  134OSM      N14380   4.991   5.472   1.681
  134OSM    C1514381   5.047   5.387   1.568
  134OSM   H15A14382   5.062   5.284   1.597
  134OSM   H15B14383   5.142   5.417   1.525
  134OSM   H15C14384   4.969   5.383   1.493
  134OSM    C1414385   4.960   5.615   1.629
  134OSM   H14A14386   5.043   5.666   1.581
  134OSM   H14B14387   4.938   5.672   1.718
  134OSM   H14C14388   4.880   5.618   1.557
  134OSM    C1314389   4.871   5.410   1.740
  134OSM   H13A14390   4.801   5.384   1.661
  134OSM   H13B14391   4.814   5.480   1.800
  134OSM   H13C14392   4.896   5.340   1.819
  134OSM    C1214393   5.108   5.483   1.781
  134OSM   H12A14394   5.199   5.509   1.728
  134OSM   H12B14395   5.128   5.384   1.819
  134OSM    C1114396   5.103   5.587   1.900
  134OSM   H11A14397   5.177   5.547   1.973
  134OSM   H11B14398   5.000   5.571   1.940
  134OSM      P14399   5.235   5.799   1.835
  134OSM    O1314400   5.292   5.761   1.703
  134OSM    O1414401   5.211   5.943   1.866
  134OSM    O1114402   5.337   5.740   1.948
  134OSM    O1214403   5.108   5.724   1.853
  134OSM    C1S14404   5.314   5.782   2.085
  134OSM    H1S14405   5.216   5.740   2.117
  134OSM    H1T14406   5.315   5.892   2.100
  134OSM     NF14407   5.374   5.775   2.322
  134OSM    HNF14408   5.408   5.855   2.372
  134OSM    C2S14409   5.418   5.741   2.188
  134OSM    H2S14410   5.423   5.630   2.179
  134OSM    C3S14411   5.561   5.788   2.150
  134OSM    H3S14412   5.568   5.899   2.141
  134OSM     O314413   5.600   5.739   2.022
  134OSM    HO314414   5.512   5.715   1.992
  134OSM    C4S14415   5.663   5.742   2.252
  134OSM    H4S14416   5.669   5.635   2.273
  134OSM    C5S14417   5.751   5.822   2.321
  134OSM    H5S14418   5.748   5.930   2.299
  134OSM    C6S14419   5.844   5.784   2.432
  134OSM    H6S14420   5.837   5.858   2.515
  134OSM    H6T14421   5.951   5.800   2.405
  134OSM    C7S14422   5.829   5.641   2.485
  134OSM    H7S14423   5.839   5.560   2.410
  134OSM    H7T14424   5.723   5.625   2.517
  134OSM    C8S14425   5.910   5.597   2.599
  134OSM    H8S14426   6.017   5.617   2.576
  134OSM    H8T14427   5.891   5.488   2.610
  134OSM    C9S14428   5.876   5.650   2.738
  134OSM    H9S14429   5.766   5.649   2.754
  134OSM    H9T14430   5.898   5.759   2.741
  134OSM   C10S14431   5.942   5.577   2.851
  134OSM   H10S14432   6.051   5.567   2.829
  134OSM   H10T14433   5.908   5.471   2.841
  134OSM   C11S14434   5.917   5.634   2.992
  134OSM   H11S14435   5.961   5.559   3.063
  134OSM   H11T14436   5.807   5.623   3.003
  134OSM   C12S14437   5.986   5.770   3.023
  134OSM   H12S14438   5.917   5.848   2.984
  134OSM   H12T14439   6.084   5.776   2.971
  134OSM   C13S14440   5.999   5.800   3.172
  134OSM   H13S14441   5.906   5.777   3.228
  134OSM   H13T14442   6.017   5.907   3.196
  134OSM   C14S14443   6.100   5.723   3.252
  134OSM   H14S14444   6.201   5.719   3.205
  134OSM   H14T14445   6.063   5.619   3.252
  134OSM   C15S14446   6.115   5.762   3.400
  134OSM   H15S14447   6.138   5.870   3.416
  134OSM   H15T14448   6.193   5.694   3.441
  134OSM   C16S14449   5.987   5.732   3.479
  134OSM   H16S14450   5.963   5.629   3.445
  134OSM   H16T14451   5.910   5.809   3.459
  134OSM   C17S14452   5.996   5.748   3.629
  134OSM   H17S14453   6.060   5.673   3.680
  134OSM   H17T14454   5.897   5.733   3.676
  134OSM   C18S14455   6.053   5.881   3.674
  134OSM   H18S14456   6.061   5.884   3.785
  134OSM   H18T14457   5.983   5.962   3.645
  134OSM   H18U14458   6.157   5.898   3.640
  134OSM    C1F14459   5.262   5.721   2.378
  134OSM     OF14460   5.194   5.632   2.326
  134OSM    C2F14461   5.218   5.769   2.508
  134OSM    H2F14462   5.189   5.876   2.513
  134OSM    H2G14463   5.298   5.746   2.581
  134OSM    C3F14464   5.095   5.698   2.558
  134OSM    H3F14465   5.092   5.589   2.533
  134OSM    H3G14466   5.003   5.738   2.510
  134OSM    C4F14467   5.074   5.706   2.718
  134OSM    H4F14468   5.100   5.811   2.744
  134OSM    H4G14469   5.148   5.633   2.757
  134OSM    C5F14470   4.942   5.672   2.769
  134OSM    H5F14471   4.910   5.570   2.739
  134OSM    H5G14472   4.874   5.742   2.716
  134OSM    C6F14473   4.912   5.699   2.917
  134OSM    H6F14474   4.925   5.803   2.954
  134OSM    H6G14475   4.992   5.639   2.966
  134OSM    C7F14476   4.781   5.640   2.963
  134OSM    H7F14477   4.769   5.539   2.919
  134OSM    H7G14478   4.697   5.695   2.914
  134OSM    C8F14479   4.758   5.642   3.122
  134OSM    H8F14480   4.734   5.741   3.166
  134OSM    H8G14481   4.852   5.607   3.171
  134OSM    C9F14482   4.640   5.554   3.159
  134OSM    H9F14483   4.566   5.523   3.084
  134OSM   C10F14484   4.626   5.490   3.278
  134OSM   H10F14485   4.551   5.411   3.282
  134OSM   C11F14486   4.713   5.478   3.401
  134OSM   H11F14487   4.814   5.522   3.383
  134OSM   H11G14488   4.726   5.368   3.397
  134OSM   C12F14489   4.662   5.536   3.528
  134OSM   H12F14490   4.559   5.495   3.537
  134OSM   H12G14491   4.657   5.647   3.522
  134OSM   C13F14492   4.750   5.494   3.650
  134OSM   H13F14493   4.849   5.543   3.663
  134OSM   H13G14494   4.764   5.384   3.649
  134OSM   C14F14495   4.668   5.520   3.777
  134OSM   H14F14496   4.705   5.461   3.863
  134OSM   H14G14497   4.562   5.485   3.777
  134OSM   C15F14498   4.662   5.675   3.809
  134OSM   H15F14499   4.583   5.731   3.754
  134OSM   H15G14500   4.758   5.720   3.777
  134OSM   C16F14501   4.636   5.710   3.952
  134OSM   H16F14502   4.542   5.662   3.986
  134OSM   H16G14503   4.631   5.820   3.970
  134OSM   C17F14504   4.747   5.654   4.048
  134OSM   H17F14505   4.851   5.677   4.018
  134OSM   H17G14506   4.741   5.544   4.037
  134OSM   C18F14507   4.733   5.687   4.194
  134OSM   H18F14508   4.781   5.617   4.265
  134OSM   H18G14509   4.627   5.701   4.224
  134OSM   H18H14510   4.793   5.777   4.221
  135OSM      N14511   0.243   1.557   1.787
  135OSM    C1514512   0.121   1.550   1.874
  135OSM   H15A14513   0.058   1.633   1.848
  135OSM   H15B14514   0.153   1.540   1.977
  135OSM   H15C14515   0.063   1.461   1.854
  135OSM    C1414516   0.332   1.442   1.830
  135OSM   H14A14517   0.406   1.417   1.755
  135OSM   H14B14518   0.264   1.358   1.839
  135OSM   H14C14519   0.386   1.467   1.920
  135OSM    C1314520   0.203   1.534   1.645
  135OSM   H13A14521   0.150   1.625   1.618
  135OSM   H13B14522   0.136   1.450   1.634
  135OSM   H13C14523   0.280   1.517   1.571
  135OSM    C1214524   0.316   1.690   1.810
  135OSM   H12A14525   0.244   1.764   1.777
  135OSM   H12B14526   0.390   1.699   1.732
  135OSM    C1114527   0.379   1.726   1.947
  135OSM   H11A14528   0.439   1.817   1.927
  135OSM   H11B14529   0.460   1.651   1.959
  135OSM      P14530   0.246   1.857   2.129
  135OSM    O1314531   0.356   1.953   2.158
  135OSM    O1414532   0.140   1.906   2.039
  135OSM    O1114533   0.175   1.814   2.259
  135OSM    O1214534   0.300   1.722   2.070
  135OSM    C1S14535   0.068   1.725   2.260
  135OSM    H1S14536   0.105   1.624   2.232
  135OSM    H1T14537   6.893   1.744   2.180
  135OSM     NF14538   6.794   1.608   2.389
  135OSM    HNF14539   6.699   1.637   2.397
  135OSM    C2S14540   6.893   1.713   2.394
  135OSM    H2S14541   0.073   1.685   2.466
  135OSM    C3S14542   6.834   1.857   2.426
  135OSM    H3S14543   6.736   1.875   2.377
  135OSM     O314544   0.015   1.967   2.405
  135OSM    HO314545   0.095   1.935   2.364
  135OSM    C4S14546   6.802   1.845   2.578
  135OSM    H4S14547   6.882   1.816   2.647
  135OSM    C5S14548   6.680   1.883   2.628
  135OSM    H5S14549   6.610   1.930   2.557
  135OSM    C6S14550   6.634   1.879   2.768
  135OSM    H6S14551   6.692   1.803   2.823
  135OSM    H6T14552   6.533   1.837   2.783
  135OSM    C7S14553   6.648   2.020   2.841
  135OSM    H7S14554   6.608   2.106   2.783
  135OSM    H7T14555   6.758   2.035   2.844
  135OSM    C8S14556   6.590   2.030   2.989
  135OSM    H8S14557   6.485   1.998   2.978
  135OSM    H8T14558   6.593   2.139   3.011
  135OSM    C9S14559   6.642   1.938   3.095
  135OSM    H9S14560   6.752   1.950   3.104
  135OSM    H9T14561   6.633   1.839   3.044
  135OSM   C10S14562   6.573   1.953   3.231
  135OSM   H10S14563   6.580   2.059   3.264
  135OSM   H10T14564   6.625   1.890   3.306
  135OSM   C11S14565   6.424   1.905   3.215
  135OSM   H11S14566   6.424   1.801   3.176
  135OSM   H11T14567   6.363   1.959   3.140
  135OSM   C12S14568   6.347   1.900   3.353
  135OSM   H12S14569   6.236   1.893   3.348
  135OSM   H12T14570   6.365   1.997   3.404
  135OSM   C13S14571   6.380   1.777   3.440
  135OSM   H13S14572   6.490   1.774   3.455
  135OSM   H13T14573   6.345   1.685   3.389
  135OSM   C14S14574   6.295   1.792   3.571
  135OSM   H14S14575   6.198   1.740   3.565
  135OSM   H14T14576   6.271   1.898   3.591
  135OSM   C15S14577   6.358   1.736   3.697
  135OSM   H15S14578   6.452   1.794   3.699
  135OSM   H15T14579   6.378   1.627   3.685
  135OSM   C16S14580   6.273   1.761   3.824
  135OSM   H16S14581   6.177   1.708   3.805
  135OSM   H16T14582   6.251   1.869   3.837
  135OSM   C17S14583   6.335   1.705   3.948
  135OSM   H17S14584   6.440   1.739   3.964
  135OSM   H17T14585   6.329   1.595   3.934
  135OSM   C18S14586   6.252   1.748   4.068
  135OSM   H18S14587   6.154   1.696   4.059
  135OSM   H18T14588   6.232   1.857   4.065
  135OSM   H18U14589   6.302   1.714   4.160
  135OSM    C1F14590   6.821   1.480   2.371
  135OSM     OF14591   0.033   1.436   2.379
  135OSM    C2F14592   6.705   1.390   2.365
  135OSM    H2F14593   6.685   1.358   2.260
  135OSM    H2G14594   6.619   1.449   2.403
  135OSM    C3F14595   6.722   1.262   2.449
  135OSM    H3F14596   6.816   1.209   2.423
  135OSM    H3G14597   6.656   1.181   2.412
  135OSM    C4F14598   6.707   1.282   2.598
  135OSM    H4F14599   6.599   1.290   2.621
  135OSM    H4G14600   6.758   1.378   2.623
  135OSM    C5F14601   6.770   1.170   2.683
  135OSM    H5F14602   6.881   1.176   2.687
  135OSM    H5G14603   6.752   1.075   2.627
  135OSM    C6F14604   6.727   1.171   2.826
  135OSM    H6F14605   6.617   1.169   2.837
  135OSM    H6G14606   6.756   1.264   2.880
  135OSM    C7F14607   6.780   1.053   2.903
  135OSM    H7F14608   6.891   1.061   2.899
  135OSM    H7G14609   6.749   0.957   2.857
  135OSM    C8F14610   6.745   1.048   3.057
  135OSM    H8F14611   6.778   0.946   3.086
  135OSM    H8G14612   6.634   1.049   3.069
  135OSM    C9F14613   6.799   1.160   3.139
  135OSM    H9F14614   6.809   1.255   3.086
  135OSM   C10F14615   6.830   1.154   3.271
  135OSM   H10F14616   6.859   1.247   3.320
  135OSM   C11F14617   6.815   1.042   3.371
  135OSM   H11F14618   0.008   1.021   3.428
  135OSM   H11G14619   6.801   0.946   3.317
  135OSM   C12F14620   6.695   1.053   3.470
  135OSM   H12F14621   6.608   1.095   3.415
  135OSM   H12G14622   6.730   1.129   3.543
  135OSM   C13F14623   6.648   0.922   3.542
  135OSM   H13F14624   6.749   0.880   3.560
  135OSM   H13G14625   6.595   0.851   3.475
  135OSM   C14F14626   6.549   0.942   3.656
  135OSM   H14F14627   6.593   1.027   3.713
  135OSM   H14G14628   6.547   0.854   3.723
  135OSM   C15F14629   6.406   0.979   3.601
  135OSM   H15F14630   6.363   0.899   3.537
  135OSM   H15G14631   6.420   1.068   3.536
  135OSM   C16F14632   6.293   1.019   3.701
  135OSM   H16F14633   6.320   1.116   3.748
  135OSM   H16G14634   6.286   0.935   3.774
  135OSM   C17F14635   6.163   1.031   3.627
  135OSM   H17F14636   6.151   0.935   3.573
  135OSM   H17G14637   6.191   1.112   3.555
  135OSM   C18F14638   6.030   1.052   3.702
  135OSM   H18F14639   5.943   1.033   3.636
  135OSM   H18G14640   6.021   1.152   3.748
  135OSM   H18H14641   6.018   0.976   3.783
  136OSM      N14642   2.186   4.618   1.767
  136OSM    C1514643   2.145   4.531   1.645
  136OSM   H15A14644   2.232   4.482   1.606
  136OSM   H15B14645   2.090   4.588   1.571
  136OSM   H15C14646   2.079   4.450   1.673
  136OSM    C1414647   2.250   4.738   1.717
  136OSM   H14A14648   2.184   4.795   1.653
  136OSM   H14B14649   2.338   4.710   1.662
  136OSM   H14C14650   2.275   4.801   1.801
  136OSM    C1314651   2.062   4.652   1.853
  136OSM   H13A14652   2.097   4.709   1.939
  136OSM   H13B14653   2.011   4.564   1.890
  136OSM   H13C14654   1.993   4.724   1.812
  136OSM    C1214655   2.278   4.538   1.853
  136OSM   H12A14656   2.378   4.524   1.814
  136OSM   H12B14657   2.244   4.435   1.851
  136OSM    C1114658   2.306   4.582   1.997
  136OSM   H11A14659   2.392   4.518   2.028
  136OSM   H11B14660   2.216   4.561   2.059
  136OSM      P14661   2.484   4.789   2.018
  136OSM    O1314662   2.576   4.731   1.921
  136OSM    O1414663   2.473   4.934   2.015
  136OSM    O1114664   2.528   4.745   2.164
  136OSM    O1214665   2.341   4.724   2.001
  136OSM    C1S14666   2.434   4.736   2.277
  136OSM    H1S14667   2.331   4.727   2.236
  136OSM    H1T14668   2.451   4.831   2.332
  136OSM     NF14669   2.322   4.629   2.455
  136OSM    HNF14670   2.328   4.684   2.538
  136OSM    C2S14671   2.448   4.621   2.377
  136OSM    H2S14672   2.441   4.526   2.321
  136OSM    C3S14673   2.577   4.626   2.463
  136OSM    H3S14674   2.593   4.730   2.498
  136OSM     O314675   2.697   4.605   2.381
  136OSM    HO314676   2.667   4.586   2.291
  136OSM    C4S14677   2.573   4.532   2.581
  136OSM    H4S14678   2.533   4.433   2.551
  136OSM    C5S14679   2.606   4.544   2.715
  136OSM    H5S14680   2.635   4.640   2.759
  136OSM    C6S14681   2.576   4.439   2.817
  136OSM    H6S14682   2.672   4.385   2.833
  136OSM    H6T14683   2.495   4.364   2.798
  136OSM    C7S14684   2.529   4.513   2.942
  136OSM    H7S14685   2.461   4.597   2.920
  136OSM    H7T14686   2.621   4.563   2.980
  136OSM    C8S14687   2.474   4.419   3.047
  136OSM    H8S14688   2.551   4.343   3.072
  136OSM    H8T14689   2.379   4.372   3.013
  136OSM    C9S14690   2.450   4.505   3.172
  136OSM    H9S14691   2.396   4.598   3.141
  136OSM    H9T14692   2.548   4.542   3.210
  136OSM   C10S14693   2.373   4.437   3.286
  136OSM   H10S14694   2.288   4.386   3.236
  136OSM   H10T14695   2.332   4.509   3.359
  136OSM   C11S14696   2.466   4.342   3.365
  136OSM   H11S14697   2.523   4.407   3.435
  136OSM   H11T14698   2.534   4.290   3.294
  136OSM   C12S14699   2.389   4.236   3.438
  136OSM   H12S14700   2.465   4.181   3.497
  136OSM   H12T14701   2.331   4.172   3.368
  136OSM   C13S14702   2.285   4.271   3.540
  136OSM   H13S14703   2.251   4.171   3.573
  136OSM   H13T14704   2.202   4.319   3.484
  136OSM   C14S14705   2.337   4.365   3.653
  136OSM   H14S14706   2.374   4.456   3.603
  136OSM   H14T14707   2.422   4.319   3.708
  136OSM   C15S14708   2.225   4.407   3.747
  136OSM   H15S14709   2.157   4.474   3.691
  136OSM   H15T14710   2.277   4.467   3.825
  136OSM   C16S14711   2.156   4.281   3.799
  136OSM   H16S14712   2.233   4.217   3.847
  136OSM   H16T14713   2.120   4.222   3.711
  136OSM   C17S14714   2.046   4.301   3.907
  136OSM   H17S14715   1.986   4.209   3.923
  136OSM   H17T14716   1.973   4.375   3.867
  136OSM   C18S14717   2.106   4.344   4.043
  136OSM   H18S14718   2.033   4.378   4.119
  136OSM   H18T14719   2.174   4.431   4.036
  136OSM   H18U14720   2.168   4.262   4.083
  136OSM    C1F14721   2.196   4.584   2.425
  136OSM     OF14722   2.184   4.523   2.324
  136OSM    C2F14723   2.092   4.609   2.518
  136OSM    H2F14724   1.992   4.578   2.479
  136OSM    H2G14725   2.105   4.718   2.536
  136OSM    C3F14726   2.106   4.528   2.644
  136OSM    H3F14727   2.208   4.545   2.685
  136OSM    H3G14728   2.099   4.418   2.633
  136OSM    C4F14729   2.018   4.576   2.762
  136OSM    H4F14730   1.909   4.573   2.741
  136OSM    H4G14731   2.031   4.686   2.776
  136OSM    C5F14732   2.030   4.502   2.893
  136OSM    H5F14733   2.137   4.486   2.919
  136OSM    H5G14734   1.986   4.400   2.885
  136OSM    C6F14735   1.962   4.567   3.010
  136OSM    H6F14736   1.853   4.546   3.007
  136OSM    H6G14737   1.990   4.674   3.015
  136OSM    C7F14738   2.012   4.503   3.143
  136OSM    H7F14739   2.119   4.516   3.170
  136OSM    H7G14740   1.994   4.394   3.138
  136OSM    C8F14741   1.940   4.565   3.264
  136OSM    H8F14742   1.833   4.577   3.234
  136OSM    H8G14743   1.979   4.668   3.280
  136OSM    C9F14744   1.954   4.486   3.389
  136OSM    H9F14745   2.011   4.394   3.370
  136OSM   C10F14746   1.918   4.519   3.517
  136OSM   H10F14747   1.924   4.446   3.599
  136OSM   C11F14748   1.843   4.649   3.547
  136OSM   H11F14749   1.772   4.665   3.463
  136OSM   H11G14750   1.907   4.739   3.549
  136OSM   C12F14751   1.762   4.647   3.675
  136OSM   H12F14752   1.707   4.551   3.674
  136OSM   H12G14753   1.689   4.730   3.683
  136OSM   C13F14754   1.849   4.627   3.805
  136OSM   H13F14755   1.952   4.595   3.778
  136OSM   H13G14756   1.805   4.546   3.867
  136OSM   C14F14757   1.852   4.748   3.898
  136OSM   H14F14758   1.903   4.825   3.835
  136OSM   H14G14759   1.927   4.728   3.978
  136OSM   C15F14760   1.718   4.801   3.947
  136OSM   H15F14761   1.629   4.748   3.906
  136OSM   H15G14762   1.700   4.903   3.908
  136OSM   C16F14763   1.715   4.791   4.101
  136OSM   H16F14764   1.623   4.834   4.146
  136OSM   H16G14765   1.803   4.843   4.145
  136OSM   C17F14766   1.706   4.651   4.157
  136OSM   H17F14767   1.812   4.622   4.147
  136OSM   H17G14768   1.640   4.573   4.113
  136OSM   C18F14769   1.679   4.649   4.311
  136OSM   H18F14770   1.570   4.655   4.334
  136OSM   H18G14771   1.726   4.735   4.362
  136OSM   H18H14772   1.701   4.556   4.368
  137OSM      N14773   0.581   2.409   1.790
  137OSM    C1514774   0.586   2.301   1.681
  137OSM   H15A14775   0.518   2.326   1.602
  137OSM   H15B14776   0.550   2.211   1.729
  137OSM   H15C14777   0.690   2.285   1.654
  137OSM    C1414778   0.642   2.525   1.719
  137OSM   H14A14779   0.575   2.559   1.641
  137OSM   H14B14780   0.737   2.497   1.676
  137OSM   H14C14781   0.666   2.605   1.788
  137OSM    C1314782   0.441   2.445   1.833
  137OSM   H13A14783   0.436   2.521   1.910
  137OSM   H13B14784   0.387   2.360   1.870
  137OSM   H13C14785   0.384   2.484   1.750
  137OSM    C1214786   0.669   2.352   1.905
  137OSM   H12A14787   0.764   2.318   1.867
  137OSM   H12B14788   0.619   2.266   1.946
  137OSM    C1114789   0.701   2.456   2.016
  137OSM   H11A14790   0.759   2.405   2.095
  137OSM   H11B14791   0.605   2.493   2.059
  137OSM      P14792   0.927   2.554   1.922
  137OSM    O1314793   0.944   2.430   1.845
  137OSM    O1414794   0.960   2.676   1.844
  137OSM    O1114795   1.015   2.549   2.059
  137OSM    O1214796   0.772   2.569   1.966
  137OSM    C1S14797   0.964   2.597   2.185
  137OSM    H1S14798   0.873   2.536   2.201
  137OSM    H1T14799   0.928   2.702   2.173
  137OSM     NF14800   0.996   2.630   2.431
  137OSM    HNF14801   1.015   2.723   2.461
  137OSM    C2S14802   1.060   2.582   2.307
  137OSM    H2S14803   1.084   2.474   2.322
  137OSM    C3S14804   1.202   2.652   2.276
  137OSM    H3S14805   1.181   2.761   2.264
  137OSM     O314806   1.269   2.611   2.162
  137OSM    HO314807   1.200   2.563   2.116
  137OSM    C4S14808   1.295   2.651   2.396
  137OSM    H4S14809   1.295   2.747   2.449
  137OSM    C5S14810   1.386   2.558   2.416
  137OSM    H5S14811   1.400   2.475   2.345
  137OSM    C6S14812   1.488   2.550   2.523
  137OSM    H6S14813   1.501   2.651   2.566
  137OSM    H6T14814   1.588   2.508   2.495
  137OSM    C7S14815   1.442   2.464   2.632
  137OSM    H7S14816   1.526   2.455   2.704
  137OSM    H7T14817   1.438   2.357   2.601
  137OSM    C8S14818   1.311   2.512   2.708
  137OSM    H8S14819   1.280   2.426   2.772
  137OSM    H8T14820   1.229   2.532   2.637
  137OSM    C9S14821   1.342   2.641   2.796
  137OSM    H9S14822   1.354   2.727   2.727
  137OSM    H9T14823   1.435   2.614   2.851
  137OSM   C10S14824   1.234   2.677   2.893
  137OSM   H10S14825   1.157   2.736   2.838
  137OSM   H10T14826   1.293   2.734   2.968
  137OSM   C11S14827   1.158   2.560   2.959
  137OSM   H11S14828   1.227   2.483   3.001
  137OSM   H11T14829   1.108   2.506   2.876
  137OSM   C12S14830   1.066   2.587   3.069
  137OSM   H12S14831   0.999   2.501   3.089
  137OSM   H12T14832   0.996   2.665   3.032
  137OSM   C13S14833   1.137   2.624   3.203
  137OSM   H13S14834   1.206   2.709   3.182
  137OSM   H13T14835   1.202   2.537   3.226
  137OSM   C14S14836   1.055   2.659   3.333
  137OSM   H14S14837   0.976   2.733   3.310
  137OSM   H14T14838   1.135   2.697   3.400
  137OSM   C15S14839   0.994   2.534   3.386
  137OSM   H15S14840   1.069   2.452   3.379
  137OSM   H15T14841   0.899   2.496   3.341
  137OSM   C16S14842   0.954   2.543   3.538
  137OSM   H16S14843   0.857   2.596   3.551
  137OSM   H16T14844   1.033   2.598   3.593
  137OSM   C17S14845   0.949   2.406   3.603
  137OSM   H17S14846   1.046   2.351   3.597
  137OSM   H17T14847   0.875   2.344   3.547
  137OSM   C18S14848   0.904   2.406   3.746
  137OSM   H18S14849   0.905   2.305   3.792
  137OSM   H18T14850   0.799   2.445   3.753
  137OSM   H18U14851   0.962   2.483   3.802
  137OSM    C1F14852   0.903   2.564   2.502
  137OSM     OF14853   0.848   2.471   2.447
  137OSM    C2F14854   0.876   2.615   2.644
  137OSM    H2F14855   0.859   2.724   2.630
  137OSM    H2G14856   0.972   2.593   2.696
  137OSM    C3F14857   0.753   2.541   2.707
  137OSM    H3F14858   0.757   2.432   2.688
  137OSM    H3G14859   0.661   2.569   2.651
  137OSM    C4F14860   0.731   2.573   2.851
  137OSM    H4F14861   0.694   2.676   2.864
  137OSM    H4G14862   0.813   2.558   2.925
  137OSM    C5F14863   0.626   2.481   2.926
  137OSM    H5F14864   0.651   2.378   2.894
  137OSM    H5G14865   0.523   2.496   2.886
  137OSM    C6F14866   0.626   2.490   3.077
  137OSM    H6F14867   0.593   2.591   3.110
  137OSM    H6G14868   0.728   2.463   3.113
  137OSM    C7F14869   0.519   2.396   3.142
  137OSM    H7F14870   0.518   2.305   3.080
  137OSM    H7G14871   0.420   2.448   3.142
  137OSM    C8F14872   0.542   2.354   3.287
  137OSM    H8F14873   0.556   2.452   3.339
  137OSM    H8G14874   0.639   2.300   3.286
  137OSM    C9F14875   0.423   2.276   3.326
  137OSM    H9F14876   0.398   2.197   3.254
  137OSM   C10F14877   0.355   2.291   3.442
  137OSM   H10F14878   0.275   2.221   3.469
  137OSM   C11F14879   0.380   2.398   3.554
  137OSM   H11F14880   0.286   2.449   3.582
  137OSM   H11G14881   0.430   2.488   3.513
  137OSM   C12F14882   0.466   2.366   3.671
  137OSM   H12F14883   0.480   2.454   3.738
  137OSM   H12G14884   0.563   2.326   3.636
  137OSM   C13F14885   0.403   2.249   3.759
  137OSM   H13F14886   0.473   2.238   3.845
  137OSM   H13G14887   0.390   2.162   3.692
  137OSM   C14F14888   0.264   2.278   3.823
  137OSM   H14F14889   0.194   2.288   3.737
  137OSM   H14G14890   0.278   2.365   3.892
  137OSM   C15F14891   0.227   2.158   3.904
  137OSM   H15F14892   0.306   2.110   3.966
  137OSM   H15G14893   0.188   2.090   3.825
  137OSM   C16F14894   0.118   2.201   4.008
  137OSM   H16F14895   0.030   2.248   3.960
  137OSM   H16G14896   0.163   2.266   4.086
  137OSM   C17F14897   0.075   2.080   4.095
  137OSM   H17F14898   0.162   2.058   4.160
  137OSM   H17G14899   0.047   1.991   4.036
  137OSM   C18F14900   6.859   2.130   4.182
  137OSM   H18F14901   6.896   2.208   4.252
  137OSM   H18G14902   6.816   2.046   4.240
  137OSM   H18H14903   6.778   2.163   4.113
  138OSM      N14904   5.919   6.571   1.973
  138OSM    C1514905   6.008   6.646   2.066
  138OSM   H15A14906   5.957   6.682   2.154
  138OSM   H15B14907   6.056   6.731   2.020
  138OSM   H15C14908   6.083   6.579   2.104
  138OSM    C1414909   5.999   6.530   1.851
  138OSM   H14A14910   6.066   6.451   1.881
  138OSM   H14B14911   6.057   6.608   1.806
  138OSM   H14C14912   5.935   6.496   1.770
  138OSM    C1314913   5.856   6.453   2.040
  138OSM   H13A14914   5.770   6.419   1.985
  138OSM   H13B14915   5.816   6.485   2.135
  138OSM   H13C14916   5.923   6.368   2.047
  138OSM    C1214917   5.808   6.672   1.931
  138OSM   H12A14918   5.757   6.624   1.849
  138OSM   H12B14919   5.856   6.764   1.901
  138OSM    C1114920   5.693   6.719   2.034
  138OSM   H11A14921   5.634   6.629   2.061
  138OSM   H11B14922   5.625   6.790   1.982
  138OSM      P14923   5.779   0.021   2.173
  138OSM    O1314924   5.876   0.036   2.279
  138OSM    O1414925   5.795   0.087   2.042
  138OSM    O1114926   5.635   0.076   2.226
  138OSM    O1214927   5.749   6.770   2.155
  138OSM    C1S14928   5.587   0.019   2.351
  138OSM    H1S14929   5.617   6.813   2.360
  138OSM    H1T14930   5.476   0.020   2.349
  138OSM     NF14931   5.573   0.034   2.588
  138OSM    HNF14932   5.491   0.083   2.612
  138OSM    C2S14933   5.639   0.091   2.479
  138OSM    H2S14934   5.746   0.066   2.491
  138OSM    C3S14935   5.631   0.246   2.467
  138OSM    H3S14936   5.524   0.272   2.456
  138OSM     O314937   5.690   0.306   2.352
  138OSM    HO314938   5.678   0.242   2.282
  138OSM    C4S14939   5.684   0.330   2.576
  138OSM    H4S14940   5.791   0.350   2.585
  138OSM    C5S14941   5.608   0.381   2.672
  138OSM    H5S14942   5.498   0.377   2.672
  138OSM    C6S14943   5.657   0.449   2.792
  138OSM    H6S14944   5.595   0.537   2.820
  138OSM    H6T14945   5.760   0.488   2.784
  138OSM    C7S14946   5.675   0.351   2.912
  138OSM    H7S14947   5.726   0.410   2.990
  138OSM    H7T14948   5.750   0.272   2.892
  138OSM    C8S14949   5.544   0.297   2.968
  138OSM    H8S14950   5.491   0.223   2.905
  138OSM    H8T14951   5.477   0.385   2.979
  138OSM    C9S14952   5.571   0.231   3.104
  138OSM    H9S14953   5.633   0.307   3.156
  138OSM    H9T14954   5.641   0.146   3.088
  138OSM   C10S14955   5.444   0.181   3.167
  138OSM   H10S14956   5.384   0.129   3.089
  138OSM   H10T14957   5.375   0.259   3.205
  138OSM   C11S14958   5.470   0.092   3.289
  138OSM   H11S14959   5.544   0.010   3.273
  138OSM   H11T14960   5.377   0.036   3.312
  138OSM   C12S14961   5.511   0.182   3.416
  138OSM   H12S14962   5.609   0.216   3.378
  138OSM   H12T14963   5.516   0.115   3.504
  138OSM   C13S14964   5.406   0.287   3.443
  138OSM   H13S14965   5.312   0.233   3.419
  138OSM   H13T14966   5.408   0.382   3.386
  138OSM   C14S14967   5.396   0.337   3.592
  138OSM   H14S14968   5.328   0.425   3.599
  138OSM   H14T14969   5.501   0.355   3.621
  138OSM   C15S14970   5.337   0.229   3.685
  138OSM   H15S14971   5.361   0.124   3.659
  138OSM   H15T14972   5.227   0.218   3.695
  138OSM   C16S14973   5.390   0.248   3.824
  138OSM   H16S14974   5.403   0.356   3.845
  138OSM   H16T14975   5.495   0.215   3.831
  138OSM   C17S14976   5.293   0.201   3.938
  138OSM   H17S14977   5.266   0.095   3.919
  138OSM   H17T14978   5.195   0.252   3.927
  138OSM   C18S14979   5.345   0.201   4.083
  138OSM   H18S14980   5.370   0.298   4.130
  138OSM   H18T14981   5.436   0.138   4.085
  138OSM   H18U14982   5.278   0.146   4.154
  138OSM    C1F14983   5.588   6.809   2.641
  138OSM     OF14984   5.684   6.745   2.605
  138OSM    C2F14985   5.488   6.755   2.740
  138OSM    H2F14986   5.405   6.709   2.682
  138OSM    H2G14987   5.448   6.841   2.797
  138OSM    C3F14988   5.543   6.642   2.832
  138OSM    H3F14989   5.642   6.670   2.874
  138OSM    H3G14990   5.550   6.551   2.768
  138OSM    C4F14991   5.450   6.596   2.948
  138OSM    H4F14992   5.484   6.498   2.989
  138OSM    H4G14993   5.350   6.573   2.906
  138OSM    C5F14994   5.420   6.688   3.059
  138OSM    H5F14995   5.394   6.788   3.016
  138OSM    H5G14996   5.517   6.701   3.112
  138OSM    C6F14997   5.309   6.642   3.157
  138OSM    H6F14998   5.220   6.632   3.091
  138OSM    H6G14999   5.282   6.723   3.227
  138OSM    C7F15000   5.328   6.503   3.222
  138OSM    H7F15001   5.330   6.432   3.137
  138OSM    H7G15002   5.236   6.474   3.277
  138OSM    C8F15003   5.458   6.482   3.303
  138OSM    H8F15004   5.553   6.482   3.245
  138OSM    H8G15005   5.453   6.381   3.349
  138OSM    C9F15006   5.472   6.578   3.415
  138OSM    H9F15007   5.556   6.647   3.401
  138OSM   C10F15008   5.405   6.581   3.532
  138OSM   H10F15009   5.410   6.671   3.595
  138OSM   C11F15010   5.304   6.477   3.576
  138OSM   H11F15011   5.304   6.390   3.507
  138OSM   H11G15012   5.207   6.530   3.578
  138OSM   C12F15013   5.344   6.417   3.713
  138OSM   H12F15014   5.435   6.353   3.712
  138OSM   H12G15015   5.270   6.337   3.736
  138OSM   C13F15016   5.358   6.526   3.830
  138OSM   H13F15017   5.279   6.604   3.824
  138OSM   H13G15018   5.460   6.566   3.812
  138OSM   C14F15019   5.388   6.478   3.969
  138OSM   H14F15020   5.456   6.390   3.977
  138OSM   H14G15021   5.295   6.452   4.023
  138OSM   C15F15022   5.456   6.590   4.058
  138OSM   H15F15023   5.400   6.686   4.055
  138OSM   H15G15024   5.546   6.613   3.998
  138OSM   C16F15025   5.468   6.549   4.203
  138OSM   H16F15026   5.538   6.463   4.207
  138OSM   H16G15027   5.370   6.517   4.244
  138OSM   C17F15028   5.514   6.667   4.293
  138OSM   H17F15029   5.521   6.632   4.399
  138OSM   H17G15030   5.427   6.736   4.289
  138OSM   C18F15031   5.640   6.740   4.255
  138OSM   H18F15032   5.677   6.813   4.331
  138OSM   H18G15033   5.629   6.789   4.157
  138OSM   H18H15034   5.730   6.675   4.244
  139OSM      N15035   0.802   1.667   1.492
  139OSM    C1515036   0.723   1.791   1.522
  139OSM   H15A15037   0.784   1.854   1.584
  139OSM   H15B15038   0.625   1.768   1.561
  139OSM   H15C15039   0.689   1.850   1.438
  139OSM    C1415040   0.746   1.579   1.389
  139OSM   H14A15041   0.640   1.569   1.402
  139OSM   H14B15042   0.794   1.482   1.384
  139OSM   H14C15043   0.757   1.636   1.298
  139OSM    C1315044   0.934   1.705   1.436
  139OSM   H13A15045   0.979   1.789   1.486
  139OSM   H13B15046   0.927   1.732   1.331
  139OSM   H13C15047   1.008   1.627   1.432
  139OSM    C1215048   0.821   1.594   1.622
  139OSM   H12A15049   0.909   1.627   1.675
  139OSM   H12B15050   0.853   1.493   1.597
  139OSM    C1115051   0.697   1.593   1.724
  139OSM   H11A15052   0.608   1.562   1.665
  139OSM   H11B15053   0.674   1.697   1.757
  139OSM      P15054   0.829   1.530   1.935
  139OSM    O1315055   0.827   1.433   2.045
  139OSM    O1415056   0.961   1.526   1.867
  139OSM    O1115057   0.793   1.677   1.988
  139OSM    O1215058   0.715   1.501   1.833
  139OSM    C1S15059   0.689   1.706   2.078
  139OSM    H1S15060   0.615   1.624   2.072
  139OSM    H1T15061   0.633   1.793   2.038
  139OSM     NF15062   0.626   1.738   2.310
  139OSM    HNF15063   0.597   1.828   2.341
  139OSM    C2S15064   0.735   1.719   2.224
  139OSM    H2S15065   0.781   1.620   2.246
  139OSM    C3S15066   0.859   1.817   2.238
  139OSM    H3S15067   0.823   1.917   2.204
  139OSM     O315068   0.965   1.778   2.148
  139OSM    HO315069   0.916   1.733   2.080
  139OSM    C4S15070   0.913   1.825   2.374
  139OSM    H4S15071   0.894   1.928   2.408
  139OSM    C5S15072   0.985   1.737   2.452
  139OSM    H5S15073   0.996   1.633   2.419
  139OSM    C6S15074   1.032   1.780   2.586
  139OSM    H6S15075   1.032   1.889   2.609
  139OSM    H6T15076   1.141   1.762   2.597
  139OSM    C7S15077   0.955   1.702   2.696
  139OSM    H7S15078   0.963   1.595   2.669
  139OSM    H7T15079   0.850   1.737   2.702
  139OSM    C8S15080   1.022   1.727   2.828
  139OSM    H8S15081   1.046   1.835   2.839
  139OSM    H8T15082   1.124   1.684   2.824
  139OSM    C9S15083   0.954   1.677   2.958
  139OSM    H9S15084   0.922   1.572   2.941
  139OSM    H9T15085   0.869   1.739   2.993
  139OSM   C10S15086   1.041   1.685   3.084
  139OSM   H10S15087   1.043   1.786   3.130
  139OSM   H10T15088   1.147   1.665   3.059
  139OSM   C11S15089   1.003   1.592   3.197
  139OSM   H11S15090   1.003   1.487   3.161
  139OSM   H11T15091   0.897   1.616   3.220
  139OSM   C12S15092   1.082   1.610   3.317
  139OSM   H12S15093   1.089   1.716   3.351
  139OSM   H12T15094   1.182   1.569   3.290
  139OSM   C13S15095   1.029   1.527   3.432
  139OSM   H13S15096   1.005   1.423   3.401
  139OSM   H13T15097   0.933   1.574   3.462
  139OSM   C14S15098   1.123   1.524   3.551
  139OSM   H14S15099   1.067   1.478   3.635
  139OSM   H14T15100   1.131   1.631   3.579
  139OSM   C15S15101   1.259   1.459   3.520
  139OSM   H15S15102   1.308   1.525   3.445
  139OSM   H15T15103   1.244   1.359   3.473
  139OSM   C16S15104   1.362   1.462   3.641
  139OSM   H16S15105   1.453   1.419   3.594
  139OSM   H16T15106   1.320   1.387   3.711
  139OSM   C17S15107   1.405   1.592   3.716
  139OSM   H17S15108   1.493   1.582   3.783
  139OSM   H17T15109   1.322   1.628   3.780
  139OSM   C18S15110   1.433   1.716   3.627
  139OSM   H18S15111   1.491   1.796   3.678
  139OSM   H18T15112   1.331   1.752   3.603
  139OSM   H18U15113   1.486   1.688   3.534
  139OSM    C1F15114   0.554   1.630   2.334
  139OSM     OF15115   0.576   1.523   2.284
  139OSM    C2F15116   0.434   1.658   2.416
  139OSM    H2F15117   0.343   1.653   2.353
  139OSM    H2G15118   0.440   1.757   2.465
  139OSM    C3F15119   0.437   1.552   2.522
  139OSM    H3F15120   0.523   1.556   2.592
  139OSM    H3G15121   0.452   1.445   2.496
  139OSM    C4F15122   0.311   1.563   2.604
  139OSM    H4F15123   0.224   1.537   2.541
  139OSM    H4G15124   0.308   1.670   2.633
  139OSM    C5F15125   0.308   1.481   2.726
  139OSM    H5F15126   0.394   1.502   2.793
  139OSM    H5G15127   0.319   1.380   2.680
  139OSM    C6F15128   0.179   1.503   2.804
  139OSM    H6F15129   0.098   1.456   2.743
  139OSM    H6G15130   0.167   1.613   2.811
  139OSM    C7F15131   0.185   1.438   2.946
  139OSM    H7F15132   0.284   1.398   2.975
  139OSM    H7G15133   0.116   1.352   2.934
  139OSM    C8F15134   0.158   1.541   3.053
  139OSM    H8F15135   0.244   1.610   3.042
  139OSM    H8G15136   0.172   1.486   3.149
  139OSM    C9F15137   0.017   1.589   3.058
  139OSM    H9F15138   6.860   1.580   2.964
  139OSM   C10F15139   6.842   1.626   3.161
  139OSM   H10F15140   6.739   1.658   3.139
  139OSM   C11F15141   6.893   1.642   3.304
  139OSM   H11F15142   6.875   1.744   3.344
  139OSM   H11G15143   0.102   1.622   3.310
  139OSM   C12F15144   6.833   1.556   3.418
  139OSM   H12F15145   6.898   1.545   3.507
  139OSM   H12G15146   6.816   1.451   3.385
  139OSM   C13F15147   6.692   1.583   3.464
  139OSM   H13F15148   6.628   1.594   3.373
  139OSM   H13G15149   6.677   1.679   3.517
  139OSM   C14F15150   6.633   1.477   3.560
  139OSM   H14F15151   6.674   1.379   3.528
  139OSM   H14G15152   6.524   1.459   3.554
  139OSM   C15F15153   6.648   1.505   3.705
  139OSM   H15F15154   6.615   1.610   3.723
  139OSM   H15G15155   6.752   1.505   3.745
  139OSM   C16F15156   6.582   1.398   3.798
  139OSM   H16F15157   6.620   1.298   3.770
  139OSM   H16G15158   6.471   1.408   3.798
  139OSM   C17F15159   6.631   1.434   3.944
  139OSM   H17F15160   6.616   1.543   3.965
  139OSM   H17G15161   6.739   1.409   3.951
  139OSM   C18F15162   6.565   1.351   4.054
  139OSM   H18F15163   6.455   1.366   4.062
  139OSM   H18G15164   6.611   1.382   4.150
  139OSM   H18H15165   6.586   1.242   4.043
  140OSM      N15166   5.596   0.350   1.878
  140OSM    C1515167   5.568   0.498   1.867
  140OSM   H15A15168   5.648   0.549   1.919
  140OSM   H15B15169   5.473   0.531   1.905
  140OSM   H15C15170   5.565   0.526   1.762
  140OSM    C1415171   5.512   0.272   1.788
  140OSM   H14A15172   5.408   0.298   1.803
  140OSM   H14B15173   5.519   0.165   1.799
  140OSM   H14C15174   5.531   0.300   1.686
  140OSM    C1315175   5.737   0.334   1.828
  140OSM   H13A15176   5.774   0.237   1.855
  140OSM   H13B15177   5.793   0.417   1.869
  140OSM   H13C15178   5.742   0.359   1.723
  140OSM    C1215179   5.573   0.302   2.022
  140OSM   H12A15180   5.664   0.325   2.074
  140OSM   H12B15181   5.558   0.196   2.035
  140OSM    C1115182   5.456   0.372   2.090
  140OSM   H11A15183   5.500   0.468   2.125
  140OSM   H11B15184   5.425   0.322   2.184
  140OSM      P15185   5.214   0.324   1.995
  140OSM    O1315186   5.127   0.374   1.893
  140OSM    O1415187   5.250   0.182   1.980
  140OSM    O1115188   5.139   0.341   2.132
  140OSM    O1215189   5.344   0.412   2.004
  140OSM    C1S15190   5.054   0.245   2.185
  140OSM    H1S15191   5.106   0.148   2.199
  140OSM    H1T15192   4.969   0.233   2.114
  140OSM     NF15193   4.905   0.198   2.385
  140OSM    HNF15194   4.807   0.213   2.393
  140OSM    C2S15195   4.984   0.299   2.318
  140OSM    H2S15196   5.069   0.334   2.380
  140OSM    C3S15197   4.898   0.427   2.290
  140OSM    H3S15198   4.809   0.397   2.231
  140OSM     O315199   4.953   0.526   2.202
  140OSM    HO315200   5.026   0.477   2.163
  140OSM    C4S15201   4.840   0.481   2.420
  140OSM    H4S15202   4.776   0.405   2.467
  140OSM    C5S15203   4.868   0.598   2.485
  140OSM    H5S15204   4.938   0.669   2.439
  140OSM    C6S15205   4.827   0.641   2.628
  140OSM    H6S15206   4.743   0.714   2.629
  140OSM    H6T15207   4.903   0.693   2.691
  140OSM    C7S15208   4.782   0.516   2.711
  140OSM    H7S15209   4.861   0.437   2.710
  140OSM    H7T15210   4.688   0.477   2.666
  140OSM    C8S15211   4.754   0.557   2.853
  140OSM    H8S15212   4.711   0.659   2.848
  140OSM    H8T15213   4.844   0.557   2.919
  140OSM    C9S15214   4.651   0.461   2.913
  140OSM    H9S15215   4.678   0.354   2.900
  140OSM    H9T15216   4.542   0.472   2.896
  140OSM   C10S15217   4.651   0.472   3.065
  140OSM   H10S15218   4.595   0.559   3.105
  140OSM   H10T15219   4.753   0.471   3.109
  140OSM   C11S15220   4.600   0.342   3.137
  140OSM   H11S15221   4.625   0.245   3.090
  140OSM   H11T15222   4.489   0.355   3.137
  140OSM   C12S15223   4.642   0.341   3.289
  140OSM   H12S15224   4.635   0.447   3.324
  140OSM   H12T15225   4.748   0.318   3.313
  140OSM   C13S15226   4.540   0.256   3.386
  140OSM   H13S15227   4.548   0.152   3.349
  140OSM   H13T15228   4.435   0.291   3.373
  140OSM   C14S15229   4.588   0.272   3.533
  140OSM   H14S15230   4.583   0.378   3.564
  140OSM   H14T15231   4.694   0.241   3.551
  140OSM   C15S15232   4.496   0.178   3.618
  140OSM   H15S15233   4.520   0.072   3.596
  140OSM   H15T15234   4.390   0.191   3.588
  140OSM   C16S15235   4.511   0.206   3.764
  140OSM   H16S15236   4.474   0.308   3.789
  140OSM   H16T15237   4.620   0.209   3.787
  140OSM   C17S15238   4.439   0.116   3.863
  140OSM   H17S15239   4.491   0.019   3.849
  140OSM   H17T15240   4.334   0.092   3.839
  140OSM   C18S15241   4.447   0.173   4.009
  140OSM   H18S15242   4.554   0.195   4.028
  140OSM   H18T15243   4.407   0.089   4.069
  140OSM   H18U15244   4.382   0.263   4.021
  140OSM    C1F15245   4.942   0.079   2.430
  140OSM     OF15246   5.058   0.039   2.416
  140OSM    C2F15247   4.841   6.896   2.490
  140OSM    H2F15248   4.872   6.790   2.503
  140OSM    H2G15249   4.760   6.876   2.416
  140OSM    C3F15250   4.786   0.045   2.629
  140OSM    H3F15251   4.701   6.882   2.662
  140OSM    H3G15252   4.740   0.141   2.596
  140OSM    C4F15253   4.898   0.067   2.731
  140OSM    H4F15254   4.958   0.153   2.695
  140OSM    H4G15255   4.952   6.870   2.728
  140OSM    C5F15256   4.851   0.078   2.877
  140OSM    H5F15257   4.804   6.885   2.914
  140OSM    H5G15258   4.779   0.161   2.896
  140OSM    C6F15259   4.978   0.101   2.961
  140OSM    H6F15260   5.022   0.191   2.913
  140OSM    H6G15261   5.056   0.023   2.958
  140OSM    C7F15262   4.950   0.146   3.106
  140OSM    H7F15263   4.871   0.223   3.090
  140OSM    H7G15264   5.040   0.194   3.150
  140OSM    C8F15265   4.890   0.049   3.201
  140OSM    H8F15266   4.813   0.000   3.137
  140OSM    H8G15267   4.839   0.097   3.287
  140OSM    C9F15268   4.992   6.847   3.252
  140OSM    H9F15269   5.079   6.827   3.188
  140OSM   C10F15270   5.002   6.792   3.374
  140OSM   H10F15271   5.073   6.712   3.402
  140OSM   C11F15272   4.912   6.819   3.497
  140OSM   H11F15273   4.885   6.719   3.538
  140OSM   H11G15274   4.820   6.876   3.471
  140OSM   C12F15275   4.969   6.898   3.614
  140OSM   H12F15276   4.978   0.103   3.580
  140OSM   H12G15277   5.060   6.861   3.665
  140OSM   C13F15278   4.861   0.009   3.729
  140OSM   H13F15279   4.765   0.034   3.678
  140OSM   H13G15280   4.880   0.093   3.800
  140OSM   C14F15281   4.844   6.796   3.820
  140OSM   H14F15282   4.831   6.696   3.773
  140OSM   H14G15283   4.745   6.812   3.868
  140OSM   C15F15284   4.955   6.796   3.928
  140OSM   H15F15285   4.952   6.895   3.977
  140OSM   H15G15286   5.059   6.782   3.890
  140OSM   C16F15287   4.931   6.677   4.030
  140OSM   H16F15288   4.945   6.590   3.962
  140OSM   H16G15289   4.827   6.670   4.067
  140OSM   C17F15290   5.027   6.683   4.142
  140OSM   H17F15291   4.991   6.759   4.215
  140OSM   H17G15292   5.128   6.717   4.112
  140OSM   C18F15293   5.042   6.555   4.228
  140OSM   H18F15294   5.117   6.564   4.310
  140OSM   H18G15295   5.079   6.468   4.170
  140OSM   H18H15296   4.943   6.531   4.273
  141OSM      N15297   0.423   4.839   1.465
  141OSM    C1515298   0.278   4.821   1.466
  141OSM   H15A15299   0.248   4.750   1.391
  141OSM   H15B15300   0.229   4.915   1.447
  141OSM   H15C15301   0.251   4.786   1.565
  141OSM    C1415302   0.490   4.705   1.439
  141OSM   H14A15303   0.444   4.659   1.353
  141OSM   H14B15304   0.472   4.638   1.522
  141OSM   H14C15305   0.598   4.707   1.431
  141OSM    C1315306   0.460   4.925   1.346
  141OSM   H13A15307   0.567   4.936   1.353
  141OSM   H13B15308   0.419   5.024   1.356
  141OSM   H13C15309   0.443   4.878   1.250
  141OSM    C1215310   0.464   4.904   1.596
  141OSM   H12A15311   0.419   5.003   1.599
  141OSM   H12B15312   0.571   4.906   1.584
  141OSM    C1115313   0.431   4.830   1.732
  141OSM   H11A15314   0.320   4.827   1.731
  141OSM   H11B15315   0.457   4.903   1.811
  141OSM      P15316   0.644   4.702   1.788
  141OSM    O1315317   0.716   4.610   1.700
  141OSM    O1415318   0.700   4.839   1.794
  141OSM    O1115319   0.639   4.657   1.940
  141OSM    O1215320   0.493   4.703   1.745
  141OSM    C1S15321   0.537   4.565   1.984
  141OSM    H1S15322   0.564   4.464   1.947
  141OSM    H1T15323   0.435   4.597   1.953
  141OSM     NF15324   0.462   4.440   2.195
  141OSM    HNF15325   0.381   4.467   2.245
  141OSM    C2S15326   0.547   4.547   2.142
  141OSM    H2S15327   0.649   4.520   2.177
  141OSM    C3S15328   0.520   4.688   2.212
  141OSM    H3S15329   0.415   4.709   2.182
  141OSM     O315330   0.594   4.798   2.160
  141OSM    HO315331   0.639   4.757   2.085
  141OSM    C4S15332   0.519   4.691   2.366
  141OSM    H4S15333   0.419   4.690   2.412
  141OSM    C5S15334   0.629   4.714   2.448
  141OSM    H5S15335   0.731   4.726   2.408
  141OSM    C6S15336   0.623   4.709   2.599
  141OSM    H6S15337   0.632   4.813   2.635
  141OSM    H6T15338   0.716   4.668   2.644
  141OSM    C7S15339   0.494   4.647   2.660
  141OSM    H7S15340   0.491   4.546   2.614
  141OSM    H7T15341   0.401   4.702   2.634
  141OSM    C8S15342   0.505   4.638   2.819
  141OSM    H8S15343   0.488   4.742   2.855
  141OSM    H8T15344   0.605   4.609   2.858
  141OSM    C9S15345   0.406   4.541   2.891
  141OSM    H9S15346   0.435   4.443   2.846
  141OSM    H9T15347   0.301   4.561   2.858
  141OSM   C10S15348   0.412   4.546   3.047
  141OSM   H10S15349   0.513   4.515   3.080
  141OSM   H10T15350   0.349   4.462   3.084
  141OSM   C11S15351   0.378   4.681   3.111
  141OSM   H11S15352   0.290   4.733   3.068
  141OSM   H11T15353   0.455   4.759   3.093
  141OSM   C12S15354   0.372   4.670   3.266
  141OSM   H12S15355   0.462   4.615   3.300
  141OSM   H12T15356   0.280   4.611   3.283
  141OSM   C13S15357   0.356   4.808   3.336
  141OSM   H13S15358   0.262   4.848   3.292
  141OSM   H13T15359   0.434   4.879   3.300
  141OSM   C14S15360   0.370   4.817   3.486
  141OSM   H14S15361   0.399   4.919   3.518
  141OSM   H14T15362   0.453   4.753   3.523
  141OSM   C15S15363   0.242   4.768   3.557
  141OSM   H15S15364   0.236   4.659   3.538
  141OSM   H15T15365   0.140   4.811   3.548
  141OSM   C16S15366   0.265   4.765   3.713
  141OSM   H16S15367   0.366   4.730   3.742
  141OSM   H16T15368   0.196   4.684   3.748
  141OSM   C17S15369   0.224   4.890   3.784
  141OSM   H17S15370   0.127   4.932   3.749
  141OSM   H17T15371   0.296   4.961   3.739
  141OSM   C18S15372   0.239   4.896   3.933
  141OSM   H18S15373   0.336   4.853   3.965
  141OSM   H18T15374   0.165   4.829   3.981
  141OSM   H18U15375   0.219   5.002   3.962
  141OSM    C1F15376   0.478   4.311   2.160
  141OSM     OF15377   0.567   4.273   2.088
  141OSM    C2F15378   0.379   4.218   2.212
  141OSM    H2F15379   0.334   4.161   2.128
  141OSM    H2G15380   0.299   4.278   2.261
  141OSM    C3F15381   0.438   4.126   2.313
  141OSM    H3F15382   0.533   4.079   2.277
  141OSM    H3G15383   0.364   4.046   2.332
  141OSM    C4F15384   0.468   4.201   2.446
  141OSM    H4F15385   0.377   4.252   2.483
  141OSM    H4G15386   0.531   4.291   2.426
  141OSM    C5F15387   0.534   4.112   2.558
  141OSM    H5F15388   0.639   4.088   2.529
  141OSM    H5G15389   0.483   4.015   2.576
  141OSM    C6F15390   0.513   4.191   2.686
  141OSM    H6F15391   0.406   4.190   2.717
  141OSM    H6G15392   0.546   4.292   2.655
  141OSM    C7F15393   0.598   4.123   2.791
  141OSM    H7F15394   0.700   4.120   2.746
  141OSM    H7G15395   0.555   4.022   2.803
  141OSM    C8F15396   0.599   4.210   2.916
  141OSM    H8F15397   0.494   4.226   2.950
  141OSM    H8G15398   0.625   4.310   2.876
  141OSM    C9F15399   0.683   4.157   3.026
  141OSM    H9F15400   0.786   4.131   2.995
  141OSM   C10F15401   0.645   4.145   3.158
  141OSM   H10F15402   0.722   4.117   3.231
  141OSM   C11F15403   0.516   4.169   3.225
  141OSM   H11F15404   0.483   4.083   3.287
  141OSM   H11G15405   0.435   4.188   3.152
  141OSM   C12F15406   0.520   4.294   3.319
  141OSM   H12F15407   0.415   4.329   3.330
  141OSM   H12G15408   0.575   4.375   3.267
  141OSM   C13F15409   0.578   4.258   3.460
  141OSM   H13F15410   0.683   4.224   3.447
  141OSM   H13G15411   0.532   4.166   3.502
  141OSM   C14F15412   0.573   4.374   3.559
  141OSM   H14F15413   0.465   4.385   3.586
  141OSM   H14G15414   0.602   4.467   3.506
  141OSM   C15F15415   0.663   4.349   3.678
  141OSM   H15F15416   0.765   4.332   3.638
  141OSM   H15G15417   0.616   4.257   3.719
  141OSM   C16F15418   0.668   4.466   3.778
  141OSM   H16F15419   0.740   4.546   3.747
  141OSM   H16G15420   0.724   4.428   3.866
  141OSM   C17F15421   0.537   4.529   3.816
  141OSM   H17F15422   0.490   4.570   3.724
  141OSM   H17G15423   0.562   4.620   3.875
  141OSM   C18F15424   0.445   4.429   3.889
  141OSM   H18F15425   0.409   4.361   3.810
  141OSM   H18G15426   0.359   4.480   3.936
  141OSM   H18H15427   0.506   4.376   3.966
  142OSM      N15428   1.913   5.321   2.056
  142OSM    C1515429   1.863   5.254   1.931
  142OSM   H15A15430   1.755   5.246   1.927
  142OSM   H15B15431   1.915   5.161   1.915
  142OSM   H15C15432   1.901   5.304   1.844
  142OSM    C1415433   1.914   5.221   2.164
  142OSM   H14A15434   1.811   5.199   2.186
  142OSM   H14B15435   1.936   5.265   2.261
  142OSM   H14C15436   1.977   5.135   2.145
  142OSM    C1315437   2.053   5.348   2.047
  142OSM   H13A15438   2.103   5.404   2.125
  142OSM   H13B15439   2.077   5.397   1.954
  142OSM   H13C15440   2.108   5.255   2.047
  142OSM    C1215441   1.815   5.444   2.094
  142OSM   H12A15442   1.846   5.487   2.188
  142OSM   H12B15443   1.718   5.397   2.102
  142OSM    C1115444   1.802   5.563   1.989
  142OSM   H11A15445   1.717   5.633   2.006
  142OSM   H11B15446   1.760   5.520   1.895
  142OSM      P15447   1.988   5.734   2.059
  142OSM    O1315448   2.139   5.748   2.042
  142OSM    O1415449   1.907   5.860   2.049
  142OSM    O1115450   1.955   5.666   2.195
  142OSM    O1215451   1.932   5.623   1.957
  142OSM    C1S15452   2.035   5.680   2.306
  142OSM    H1S15453   2.129   5.727   2.271
  142OSM    H1T15454   2.056   5.584   2.357
  142OSM     NF15455   2.062   5.803   2.518
  142OSM    HNF15456   2.066   5.751   2.603
  142OSM    C2S15457   1.967   5.767   2.415
  142OSM    H2S15458   1.931   5.860   2.366
  142OSM    C3S15459   1.844   5.682   2.472
  142OSM    H3S15460   1.889   5.598   2.529
  142OSM     O315461   1.757   5.626   2.370
  142OSM    HO315462   1.816   5.620   2.294
  142OSM    C4S15463   1.757   5.761   2.556
  142OSM    H4S15464   1.694   5.835   2.505
  142OSM    C5S15465   1.745   5.739   2.688
  142OSM    H5S15466   1.793   5.655   2.740
  142OSM    C6S15467   1.657   5.830   2.767
  142OSM    H6S15468   1.581   5.775   2.825
  142OSM    H6T15469   1.601   5.897   2.699
  142OSM    C7S15470   1.733   5.924   2.861
  142OSM    H7S15471   1.805   5.985   2.802
  142OSM    H7T15472   1.792   5.858   2.927
  142OSM    C8S15473   1.639   6.014   2.953
  142OSM    H8S15474   1.573   6.063   2.879
  142OSM    H8T15475   1.703   6.095   2.995
  142OSM    C9S15476   1.556   5.937   3.056
  142OSM    H9S15477   1.523   5.838   3.019
  142OSM    H9T15478   1.469   5.995   3.095
  142OSM   C10S15479   1.647   5.912   3.181
  142OSM   H10S15480   1.685   6.010   3.219
  142OSM   H10T15481   1.737   5.859   3.144
  142OSM   C11S15482   1.586   5.843   3.301
  142OSM   H11S15483   1.565   5.735   3.289
  142OSM   H11T15484   1.486   5.889   3.322
  142OSM   C12S15485   1.684   5.851   3.426
  142OSM   H12S15486   1.707   5.957   3.448
  142OSM   H12T15487   1.777   5.798   3.396
  142OSM   C13S15488   1.607   5.786   3.546
  142OSM   H13S15489   1.590   5.680   3.518
  142OSM   H13T15490   1.516   5.843   3.574
  142OSM   C14S15491   1.715   5.777   3.654
  142OSM   H14S15492   1.763   5.874   3.680
  142OSM   H14T15493   1.800   5.719   3.611
  142OSM   C15S15494   1.654   5.704   3.782
  142OSM   H15S15495   1.604   5.609   3.753
  142OSM   H15T15496   1.597   5.777   3.843
  142OSM   C16S15497   1.768   5.652   3.879
  142OSM   H16S15498   1.839   5.586   3.825
  142OSM   H16T15499   1.715   5.588   3.954
  142OSM   C17S15500   1.846   5.763   3.958
  142OSM   H17S15501   1.861   5.852   3.893
  142OSM   H17T15502   1.944   5.729   3.998
  142OSM   C18S15503   1.770   5.813   4.083
  142OSM   H18S15504   1.827   5.896   4.129
  142OSM   H18T15505   1.753   5.734   4.160
  142OSM   H18U15506   1.675   5.853   4.040
  142OSM    C1F15507   2.144   5.912   2.497
  142OSM     OF15508   2.121   5.978   2.401
  142OSM    C2F15509   2.262   5.934   2.595
  142OSM    H2F15510   2.351   5.968   2.538
  142OSM    H2G15511   2.282   5.843   2.655
  142OSM    C3F15512   2.232   6.045   2.703
  142OSM    H3F15513   2.188   6.137   2.659
  142OSM    H3G15514   2.334   6.065   2.740
  142OSM    C4F15515   2.151   5.994   2.820
  142OSM    H4F15516   2.192   5.893   2.842
  142OSM    H4G15517   2.048   5.977   2.781
  142OSM    C5F15518   2.166   6.069   2.955
  142OSM    H5F15519   2.134   6.173   2.936
  142OSM    H5G15520   2.273   6.072   2.985
  142OSM    C6F15521   2.086   5.997   3.063
  142OSM    H6F15522   2.137   5.903   3.095
  142OSM    H6G15523   1.987   5.974   3.017
  142OSM    C7F15524   2.064   6.089   3.181
  142OSM    H7F15525   1.995   6.171   3.151
  142OSM    H7G15526   2.159   6.145   3.201
  142OSM    C8F15527   2.009   6.010   3.303
  142OSM    H8F15528   2.079   5.928   3.331
  142OSM    H8G15529   1.920   5.954   3.268
  142OSM    C9F15530   1.976   6.095   3.422
  142OSM    H9F15531   1.873   6.134   3.427
  142OSM   C10F15532   2.061   6.152   3.509
  142OSM   H10F15533   2.014   6.206   3.592
  142OSM   C11F15534   2.206   6.122   3.535
  142OSM   H11F15535   2.252   6.217   3.569
  142OSM   H11G15536   2.271   6.113   3.445
  142OSM   C12F15537   2.225   6.002   3.625
  142OSM   H12F15538   2.332   5.979   3.610
  142OSM   H12G15539   2.159   5.924   3.582
  142OSM   C13F15540   2.191   6.037   3.765
  142OSM   H13F15541   2.085   6.070   3.774
  142OSM   H13G15542   2.242   6.127   3.808
  142OSM   C14F15543   2.224   5.924   3.864
  142OSM   H14F15544   2.334   5.909   3.864
  142OSM   H14G15545   2.176   5.829   3.832
  142OSM   C15F15546   2.166   5.950   4.001
  142OSM   H15F15547   2.057   5.941   3.982
  142OSM   H15G15548   2.187   6.054   4.034
  142OSM   C16F15549   2.216   5.856   4.117
  142OSM   H16F15550   2.321   5.881   4.146
  142OSM   H16G15551   2.195   5.755   4.076
  142OSM   C17F15552   2.131   5.860   4.252
  142OSM   H17F15553   2.178   5.790   4.324
  142OSM   H17G15554   2.025   5.837   4.230
  142OSM   C18F15555   2.122   5.999   4.309
  142OSM   H18F15556   2.223   6.044   4.310
  142OSM   H18G15557   2.086   5.994   4.414
  142OSM   H18H15558   2.060   6.070   4.250
  143OSM      N15559   0.995   4.427   1.898
  143OSM    C1515560   1.064   4.298   1.949
  143OSM   H15A15561   1.007   4.247   2.026
  143OSM   H15B15562   1.157   4.322   1.998
  143OSM   H15C15563   1.082   4.229   1.868
  143OSM    C1415564   1.065   4.482   1.771
  143OSM   H14A15565   1.078   4.408   1.692
  143OSM   H14B15566   1.162   4.515   1.805
  143OSM   H14C15567   1.014   4.570   1.734
  143OSM    C1315568   0.863   4.384   1.845
  143OSM   H13A15569   0.807   4.333   1.923
  143OSM   H13B15570   0.876   4.311   1.766
  143OSM   H13C15571   0.801   4.467   1.813
  143OSM    C1215572   0.990   4.529   2.014
  143OSM   H12A15573   0.947   4.479   2.100
  143OSM   H12B15574   0.932   4.611   1.973
  143OSM    C1115575   1.128   4.575   2.051
  143OSM   H11A15576   1.189   4.486   2.079
  143OSM   H11B15577   1.118   4.645   2.136
  143OSM      P15578   1.345   4.707   1.970
  143OSM    O1315579   1.439   4.598   1.946
  143OSM    O1415580   1.351   4.838   1.898
  143OSM    O1115581   1.366   4.737   2.127
  143OSM    O1215582   1.196   4.651   1.947
  143OSM    C1S15583   1.310   4.845   2.196
  143OSM    H1S15584   1.225   4.889   2.140
  143OSM    H1T15585   1.384   4.927   2.200
  143OSM     NF15586   1.188   4.933   2.403
  143OSM    HNF15587   1.235   4.999   2.460
  143OSM    C2S15588   1.266   4.824   2.347
  143OSM    H2S15589   1.198   4.736   2.341
  143OSM    C3S15590   1.393   4.796   2.426
  143OSM    H3S15591   1.447   4.890   2.400
  143OSM     O315592   1.488   4.703   2.365
  143OSM    HO315593   1.453   4.697   2.276
  143OSM    C4S15594   1.396   4.791   2.569
  143OSM    H4S15595   1.419   4.889   2.614
  143OSM    C5S15596   1.391   4.681   2.652
  143OSM    H5S15597   1.394   4.583   2.603
  143OSM    C6S15598   1.388   4.698   2.806
  143OSM    H6S15599   1.352   4.604   2.853
  143OSM    H6T15600   1.323   4.782   2.837
  143OSM    C7S15601   1.533   4.741   2.853
  143OSM    H7S15602   1.540   4.847   2.821
  143OSM    H7T15603   1.613   4.687   2.799
  143OSM    C8S15604   1.570   4.713   2.997
  143OSM    H8S15605   1.675   4.743   3.014
  143OSM    H8T15606   1.569   4.603   3.009
  143OSM    C9S15607   1.486   4.782   3.101
  143OSM    H9S15608   1.379   4.767   3.075
  143OSM    H9T15609   1.513   4.889   3.095
  143OSM   C10S15610   1.510   4.748   3.247
  143OSM   H10S15611   1.617   4.772   3.264
  143OSM   H10T15612   1.514   4.640   3.274
  143OSM   C11S15613   1.433   4.833   3.348
  143OSM   H11S15614   1.327   4.800   3.341
  143OSM   H11T15615   1.442   4.940   3.319
  143OSM   C12S15616   1.468   4.818   3.496
  143OSM   H12S15617   1.572   4.850   3.518
  143OSM   H12T15618   1.444   4.718   3.539
  143OSM   C13S15619   1.385   4.907   3.597
  143OSM   H13S15620   1.279   4.922   3.569
  143OSM   H13T15621   1.416   5.014   3.597
  143OSM   C14S15622   1.380   4.838   3.740
  143OSM   H14S15623   1.479   4.848   3.789
  143OSM   H14T15624   1.373   4.727   3.733
  143OSM   C15S15625   1.266   4.891   3.836
  143OSM   H15S15626   1.276   4.854   3.940
  143OSM   H15T15627   1.161   4.870   3.807
  143OSM   C16S15628   1.273   5.051   3.841
  143OSM   H16S15629   1.259   5.103   3.744
  143OSM   H16T15630   1.374   5.081   3.877
  143OSM   C17S15631   1.171   5.110   3.942
  143OSM   H17S15632   1.072   5.123   3.894
  143OSM   H17T15633   1.207   5.214   3.956
  143OSM   C18S15634   1.156   5.035   4.071
  143OSM   H18S15635   1.246   4.998   4.125
  143OSM   H18T15636   1.103   4.940   4.050
  143OSM   H18U15637   1.102   5.084   4.154
  143OSM    C1F15638   1.061   4.956   2.381
  143OSM     OF15639   0.996   4.870   2.330
  143OSM    C2F15640   0.998   5.082   2.421
  143OSM    H2F15641   0.969   5.139   2.330
  143OSM    H2G15642   1.066   5.147   2.480
  143OSM    C3F15643   0.872   5.058   2.522
  143OSM    H3F15644   0.905   4.992   2.606
  143OSM    H3G15645   0.788   5.005   2.473
  143OSM    C4F15646   0.834   5.199   2.568
  143OSM    H4F15647   0.797   5.270   2.491
  143OSM    H4G15648   0.931   5.244   2.599
  143OSM    C5F15649   0.738   5.207   2.685
  143OSM    H5F15650   0.655   5.141   2.652
  143OSM    H5G15651   0.693   5.309   2.685
  143OSM    C6F15652   0.794   5.166   2.820
  143OSM    H6F15653   0.859   5.243   2.867
  143OSM    H6G15654   0.867   5.089   2.786
  143OSM    C7F15655   0.685   5.126   2.917
  143OSM    H7F15656   0.610   5.063   2.865
  143OSM    H7G15657   0.649   5.217   2.970
  143OSM    C8F15658   0.753   5.034   3.023
  143OSM    H8F15659   0.840   5.094   3.058
  143OSM    H8G15660   0.785   4.938   2.979
  143OSM    C9F15661   0.660   5.000   3.141
  143OSM    H9F15662   0.596   4.912   3.122
  143OSM   C10F15663   0.655   5.060   3.262
  143OSM   H10F15664   0.597   5.011   3.342
  143OSM   C11F15665   0.710   5.196   3.299
  143OSM   H11F15666   0.757   5.251   3.215
  143OSM   H11G15667   0.782   5.187   3.382
  143OSM   C12F15668   0.592   5.286   3.344
  143OSM   H12F15669   0.505   5.278   3.276
  143OSM   H12G15670   0.622   5.392   3.357
  143OSM   C13F15671   0.535   5.242   3.484
  143OSM   H13F15672   0.607   5.286   3.557
  143OSM   H13G15673   0.516   5.133   3.483
  143OSM   C14F15674   0.401   5.304   3.513
  143OSM   H14F15675   0.324   5.261   3.446
  143OSM   H14G15676   0.397   5.413   3.491
  143OSM   C15F15677   0.360   5.273   3.659
  143OSM   H15F15678   0.399   5.171   3.683
  143OSM   H15G15679   0.252   5.274   3.683
  143OSM   C16F15680   0.428   5.366   3.767
  143OSM   H16F15681   0.403   5.469   3.734
  143OSM   H16G15682   0.538   5.360   3.758
  143OSM   C17F15683   0.374   5.317   3.903
  143OSM   H17F15684   0.374   5.206   3.912
  143OSM   H17G15685   0.266   5.344   3.900
  143OSM   C18F15686   0.444   5.386   4.019
  143OSM   H18F15687   0.464   5.492   3.995
  143OSM   H18G15688   0.541   5.334   4.038
  143OSM   H18H15689   0.388   5.378   4.114
  144OSM      N15690   0.917   6.184   1.694
  144OSM    C1515691   0.927   6.204   1.841
  144OSM   H15A15692   0.986   6.133   1.898
  144OSM   H15B15693   0.831   6.217   1.889
  144OSM   H15C15694   0.978   6.297   1.861
  144OSM    C1415695   0.828   6.068   1.663
  144OSM   H14A15696   0.823   6.066   1.555
  144OSM   H14B15697   0.727   6.090   1.692
  144OSM   H14C15698   0.874   5.976   1.695
  144OSM    C1315699   0.846   6.305   1.632
  144OSM   H13A15700   0.904   6.394   1.644
  144OSM   H13B15701   0.743   6.312   1.666
  144OSM   H13C15702   0.849   6.296   1.524
  144OSM    C1215703   1.047   6.165   1.626
  144OSM   H12A15704   1.032   6.138   1.523
  144OSM   H12B15705   1.098   6.086   1.680
  144OSM    C1115706   1.154   6.273   1.642
  144OSM   H11A15707   1.118   6.375   1.617
  144OSM   H11B15708   1.228   6.255   1.561
  144OSM      P15709   1.304   6.139   1.801
  144OSM    O1315710   1.282   6.031   1.709
  144OSM    O1415711   1.444   6.181   1.829
  144OSM    O1115712   1.241   6.094   1.934
  144OSM    O1215713   1.213   6.261   1.772
  144OSM    C1S15714   1.244   6.172   2.050
  144OSM    H1S15715   1.178   6.261   2.043
  144OSM    H1T15716   1.347   6.193   2.087
  144OSM     NF15717   1.166   6.184   2.293
  144OSM    HNF15718   1.229   6.175   2.370
  144OSM    C2S15719   1.177   6.100   2.175
  144OSM    H2S15720   1.073   6.072   2.150
  144OSM    C3S15721   1.255   5.968   2.200
  144OSM    H3S15722   1.356   6.003   2.228
  144OSM     O315723   1.274   5.874   2.090
  144OSM    HO315724   1.237   5.926   2.018
  144OSM    C4S15725   1.199   5.898   2.327
  144OSM    H4S15726   1.090   5.887   2.335
  144OSM    C5S15727   1.273   5.868   2.435
  144OSM    H5S15728   1.378   5.901   2.437
  144OSM    C6S15729   1.217   5.799   2.557
  144OSM    H6S15730   1.253   5.695   2.569
  144OSM    H6T15731   1.106   5.802   2.559
  144OSM    C7S15732   1.277   5.861   2.686
  144OSM    H7S15733   1.280   5.972   2.674
  144OSM    H7T15734   1.379   5.833   2.720
  144OSM    C8S15735   1.192   5.820   2.805
  144OSM    H8S15736   1.195   5.710   2.822
  144OSM    H8T15737   1.085   5.849   2.797
  144OSM    C9S15738   1.234   5.886   2.938
  144OSM    H9S15739   1.264   5.992   2.925
  144OSM    H9T15740   1.323   5.826   2.967
  144OSM   C10S15741   1.121   5.882   3.046
  144OSM   H10S15742   1.090   5.776   3.055
  144OSM   H10T15743   1.040   5.949   3.009
  144OSM   C11S15744   1.192   5.939   3.176
  144OSM   H11S15745   1.229   6.042   3.154
  144OSM   H11T15746   1.284   5.881   3.199
  144OSM   C12S15747   1.106   5.933   3.300
  144OSM   H12S15748   1.076   5.827   3.316
  144OSM   H12T15749   1.006   5.979   3.292
  144OSM   C13S15750   1.173   5.987   3.431
  144OSM   H13S15751   1.202   6.092   3.407
  144OSM   H13T15752   1.265   5.928   3.450
  144OSM   C14S15753   1.081   6.006   3.548
  144OSM   H14S15754   1.045   5.905   3.577
  144OSM   H14T15755   0.990   6.063   3.522
  144OSM   C15S15756   1.149   6.098   3.652
  144OSM   H15S15757   1.253   6.064   3.669
  144OSM   H15T15758   1.101   6.083   3.751
  144OSM   C16S15759   1.145   6.244   3.613
  144OSM   H16S15760   1.039   6.275   3.612
  144OSM   H16T15761   1.196   6.251   3.514
  144OSM   C17S15762   1.209   6.337   3.724
  144OSM   H17S15763   1.305   6.296   3.763
  144OSM   H17T15764   1.139   6.338   3.810
  144OSM   C18S15765   1.225   6.480   3.685
  144OSM   H18S15766   1.124   6.520   3.661
  144OSM   H18T15767   1.294   6.485   3.598
  144OSM   H18U15768   1.276   6.543   3.762
  144OSM    C1F15769   1.096   6.299   2.293
  144OSM     OF15770   1.015   6.331   2.205
  144OSM    C2F15771   1.115   6.397   2.411
  144OSM    H2F15772   1.182   6.352   2.487
  144OSM    H2G15773   1.011   6.401   2.449
  144OSM    C3F15774   1.165   6.532   2.363
  144OSM    H3F15775   1.087   6.570   2.294
  144OSM    H3G15776   1.264   6.507   2.319
  144OSM    C4F15777   1.188   6.645   2.466
  144OSM    H4F15778   1.285   6.699   2.460
  144OSM    H4G15779   1.191   6.594   2.564
  144OSM    C5F15780   1.067   6.734   2.490
  144OSM    H5F15781   0.987   6.676   2.541
  144OSM    H5G15782   1.037   6.766   2.388
  144OSM    C6F15783   1.093   6.855   2.579
  144OSM    H6F15784   1.163   0.015   2.517
  144OSM    H6G15785   1.140   6.830   2.677
  144OSM    C7F15786   0.966   0.035   2.609
  144OSM    H7F15787   0.882   6.877   2.651
  144OSM    H7G15788   0.929   0.066   2.508
  144OSM    C8F15789   1.001   0.156   2.695
  144OSM    H8F15790   1.088   0.207   2.648
  144OSM    H8G15791   1.031   0.118   2.795
  144OSM    C9F15792   0.892   0.263   2.713
  144OSM    H9F15793   0.856   0.313   2.622
  144OSM   C10F15794   0.855   0.325   2.824
  144OSM   H10F15795   0.781   0.405   2.808
  144OSM   C11F15796   0.896   0.302   2.967
  144OSM   H11F15797   0.922   0.396   3.020
  144OSM   H11G15798   0.985   0.238   2.986
  144OSM   C12F15799   0.782   0.244   3.057
  144OSM   H12F15800   0.732   0.156   3.011
  144OSM   H12G15801   0.701   0.321   3.063
  144OSM   C13F15802   0.835   0.203   3.196
  144OSM   H13F15803   0.939   0.166   3.187
  144OSM   H13G15804   0.768   0.119   3.224
  144OSM   C14F15805   0.821   0.307   3.310
  144OSM   H14F15806   0.712   0.323   3.326
  144OSM   H14G15807   0.864   0.406   3.283
  144OSM   C15F15808   0.878   0.258   3.441
  144OSM   H15F15809   0.974   0.211   3.410
  144OSM   H15G15810   0.828   0.168   3.485
  144OSM   C16F15811   0.903   0.357   3.551
  144OSM   H16F15812   0.970   0.438   3.515
  144OSM   H16G15813   0.963   0.302   3.626
  144OSM   C17F15814   0.775   0.409   3.619
  144OSM   H17F15815   0.737   0.318   3.670
  144OSM   H17G15816   0.700   0.440   3.543
  144OSM   C18F15817   0.790   0.518   3.728
  144OSM   H18F15818   0.833   0.613   3.690
  144OSM   H18G15819   0.854   0.480   3.811
  144OSM   H18H15820   0.686   0.539   3.759
  145SAPE     N15821   0.703   1.107   6.404
  145SAPE   HN115822   0.660   1.170   6.333
  145SAPE   HN215823   0.740   1.173   6.475
  145SAPE   HN315824   0.781   1.050   6.365
  145SAPE   C1215825   0.600   1.015   6.461
  145SAPE  H12A15826   0.515   1.073   6.503
  145SAPE  H12B15827   0.649   0.956   6.540
  145SAPE   C1115828   0.563   0.908   6.360
  145SAPE  H11A15829   0.499   0.948   6.278
  145SAPE  H11B15830   0.504   0.833   6.416
  145SAPE     P15831   0.685   0.819   6.149
  145SAPE   O1315832   0.793   0.724   6.119
  145SAPE   O1415833   0.556   0.788   6.088
  145SAPE   O1215834   0.670   0.844   6.301
  145SAPE   O1115835   0.739   0.952   6.097
  145SAPE    C115836   0.670   1.034   5.999
  145SAPE    HA15837   0.566   1.059   6.026
  145SAPE    HB15838   0.714   1.135   5.984
  145SAPE    C215839   0.660   0.975   5.853
  145SAPE    HS15840   0.623   0.870   5.858
  145SAPE   O2115841   0.794   0.989   5.798
  145SAPE   C2115842   0.824   0.908   5.698
  145SAPE   O2215843   0.752   0.818   5.657
  145SAPE   C2215844   0.949   0.970   5.631
  145SAPE   H2R15845   0.920   1.069   5.591
  145SAPE   H2S15846   1.021   0.985   5.715
  145SAPE    C315847   0.571   1.073   5.763
  145SAPE    HX15848   0.613   1.176   5.768
  145SAPE    HY15849   0.469   1.077   5.807
  145SAPE   O3115850   0.573   1.021   5.628
  145SAPE   C3115851   0.525   1.103   5.535
  145SAPE   O3215852   0.498   1.220   5.556
  145SAPE   C3215853   0.527   1.038   5.399
  145SAPE   H2X15854   0.422   1.012   5.370
  145SAPE   H2Y15855   0.590   0.947   5.401
  145SAPE   C2315856   1.013   0.895   5.504
  145SAPE   H3R15857   1.024   0.787   5.531
  145SAPE   H3S15858   1.109   0.950   5.502
  145SAPE   C2415859   0.956   0.907   5.363
  145SAPE   H4R15860   0.852   0.869   5.377
  145SAPE   H4S15861   1.015   0.835   5.303
  145SAPE   C2515862   0.972   1.039   5.300
  145SAPE   H5R15863   0.920   1.122   5.350
  145SAPE   C2615864   1.046   1.075   5.192
  145SAPE   H6R15865   1.032   1.180   5.162
  145SAPE   C2715866   1.133   0.986   5.114
  145SAPE   H7R15867   1.066   0.906   5.076
  145SAPE   H7S15868   1.205   0.933   5.180
  145SAPE   C2815869   1.212   1.064   5.007
  145SAPE   H8R15870   1.284   1.134   5.052
  145SAPE   C2915871   1.178   1.071   4.881
  145SAPE   H9R15872   1.258   1.124   4.827
  145SAPE  C21015873   1.070   0.995   4.805
  145SAPE  H10R15874   1.094   0.887   4.794
  145SAPE  H10S15875   1.075   1.032   4.701
  145SAPE  C21115876   0.929   0.998   4.850
  145SAPE  H11R15877   0.916   1.024   4.956
  145SAPE  C21215878   0.819   0.962   4.782
  145SAPE  H12R15879   0.722   0.988   4.827
  145SAPE  C21315880   0.813   0.907   4.649
  145SAPE  H13R15881   0.729   0.835   4.651
  145SAPE  H13S15882   0.906   0.854   4.619
  145SAPE  C21415883   0.792   1.010   4.548
  145SAPE  H14R15884   0.716   1.085   4.578
  145SAPE  C21515885   0.855   1.033   4.431
  145SAPE  H15R15886   0.810   1.115   4.373
  145SAPE  C21615887   0.960   0.939   4.372
  145SAPE  H16R15888   1.018   0.880   4.447
  145SAPE  H16S15889   1.042   1.002   4.331
  145SAPE  C21715890   0.908   0.843   4.275
  145SAPE  H17R15891   0.841   0.882   4.196
  145SAPE  H17S15892   0.830   0.777   4.319
  145SAPE  C21815893   1.007   0.738   4.219
  145SAPE  H18R15894   1.067   0.692   4.300
  145SAPE  H18S15895   1.079   0.782   4.147
  145SAPE  C21915896   0.921   0.640   4.126
  145SAPE  H19R15897   0.883   0.705   4.045
  145SAPE  H19S15898   0.831   0.607   4.183
  145SAPE  C22015899   0.997   0.523   4.059
  145SAPE  H20R15900   1.061   0.559   3.976
  145SAPE  H20S15901   0.926   0.447   4.019
  145SAPE  H20T15902   1.062   0.472   4.134
  145SAPE   C3315903   0.586   1.136   5.293
  145SAPE   H3X15904   0.690   1.168   5.313
  145SAPE   H3Y15905   0.536   1.235   5.302
  145SAPE   C3415906   0.579   1.087   5.150
  145SAPE   H4X15907   0.615   0.982   5.152
  145SAPE   H4Y15908   0.652   1.152   5.096
  145SAPE   C3515909   0.439   1.103   5.080
  145SAPE   H5X15910   0.378   1.186   5.121
  145SAPE   H5Y15911   0.379   1.011   5.098
  145SAPE   C3615912   0.450   1.116   4.923
  145SAPE   H6X15913   0.346   1.118   4.885
  145SAPE   H6Y15914   0.480   1.014   4.890
  145SAPE   C3715915   0.536   1.229   4.880
  145SAPE   H7X15916   0.639   1.199   4.908
  145SAPE   H7Y15917   0.503   1.323   4.929
  145SAPE   C3815918   0.533   1.247   4.724
  145SAPE   H8X15919   0.527   1.145   4.680
  145SAPE   H8Y15920   0.629   1.292   4.689
  145SAPE   C3915921   0.428   1.347   4.675
  145SAPE   H9X15922   0.433   1.428   4.751
  145SAPE   H9Y15923   0.322   1.316   4.688
  145SAPE  C31015924   0.466   1.398   4.533
  145SAPE  H10X15925   0.555   1.464   4.537
  145SAPE  H10Y15926   0.385   1.458   4.486
  145SAPE  C31115927   0.502   1.290   4.430
  145SAPE  H11X15928   0.436   1.201   4.435
  145SAPE  H11Y15929   0.604   1.254   4.454
  145SAPE  C31215930   0.500   1.335   4.291
  145SAPE  H12X15931   0.553   1.432   4.288
  145SAPE  H12Y15932   0.401   1.369   4.255
  145SAPE  C31315933   0.551   1.236   4.190
  145SAPE  H13X15934   0.475   1.156   4.178
  145SAPE  H13Y15935   0.640   1.193   4.240
  145SAPE  C31415936   0.598   1.291   4.054
  145SAPE  H14X15937   0.679   1.366   4.065
  145SAPE  H14Y15938   0.524   1.359   4.006
  145SAPE  C31515939   0.639   1.175   3.961
  145SAPE  H15X15940   0.704   1.114   4.027
  145SAPE  H15Y15941   0.706   1.215   3.881
  145SAPE  C31615942   0.526   1.095   3.892
  145SAPE  H16X15943   0.472   1.162   3.822
  145SAPE  H16Y15944   0.452   1.060   3.967
  145SAPE  C31715945   0.572   0.972   3.812
  145SAPE  H17X15946   0.664   0.991   3.753
  145SAPE  H17Y15947   0.489   0.947   3.742
  145SAPE  C31815948   0.600   0.857   3.906
  145SAPE  H18X15949   0.671   0.893   3.983
  145SAPE  H18Y15950   0.644   0.761   3.871
  145SAPE  H18Z15951   0.510   0.828   3.965
  146SAPE     N15952   4.022   6.831   6.720
  146SAPE   HN115953   3.951   6.768   6.760
  146SAPE   HN215954   3.991   6.847   6.622
  146SAPE   HN315955   4.120   6.795   6.722
  146SAPE   C1215956   4.038   0.057   6.794
  146SAPE  H12A15957   4.129   0.108   6.756
  146SAPE  H12B15958   4.052   0.037   6.902
  146SAPE   C1115959   3.916   0.148   6.793
  146SAPE  H11A15960   3.849   0.131   6.880
  146SAPE  H11B15961   3.870   0.117   6.697
  146SAPE     P15962   3.909   0.398   6.706
  146SAPE   O1315963   3.766   0.426   6.723
  146SAPE   O1415964   4.003   0.516   6.723
  146SAPE   O1215965   3.957   0.287   6.808
  146SAPE   O1115966   3.943   0.334   6.561
  146SAPE    C115967   3.903   0.413   6.447
  146SAPE    HA15968   3.793   0.400   6.436
  146SAPE    HB15969   3.933   0.519   6.463
  146SAPE    C215970   3.962   0.369   6.312
  146SAPE    HS15971   4.072   0.361   6.327
  146SAPE   O2115972   3.928   0.468   6.214
  146SAPE   C2115973   4.016   0.558   6.196
  146SAPE   O2215974   4.128   0.563   6.254
  146SAPE   C2215975   3.985   0.639   6.076
  146SAPE   H2R15976   3.883   0.616   6.037
  146SAPE   H2S15977   3.986   0.746   6.105
  146SAPE    C315978   3.925   0.227   6.268
  146SAPE    HX15979   3.815   0.222   6.258
  146SAPE    HY15980   3.948   0.161   6.355
  146SAPE   O3115981   3.998   0.171   6.157
  146SAPE   C3115982   3.924   0.092   6.074
  146SAPE   O3215983   3.806   0.061   6.093
  146SAPE   C3215984   4.005   0.061   5.957
  146SAPE   H2X15985   4.001   0.152   5.894
  146SAPE   H2Y15986   3.950   6.886   5.896
  146SAPE   C2315987   4.084   0.618   5.955
  146SAPE   H3R15988   4.060   0.515   5.921
  146SAPE   H3S15989   4.193   0.611   5.977
  146SAPE   C2415990   4.065   0.716   5.843
  146SAPE   H4R15991   4.135   0.692   5.761
  146SAPE   H4S15992   4.093   0.817   5.879
  146SAPE   C2515993   3.926   0.715   5.787
  146SAPE   H5R15994   3.847   0.736   5.861
  146SAPE   C2615995   3.881   0.701   5.663
  146SAPE   H6R15996   3.773   0.688   5.649
  146SAPE   C2715997   3.941   0.682   5.527
  146SAPE   H7R15998   3.875   0.621   5.461
  146SAPE   H7S15999   4.041   0.636   5.540
  146SAPE   C2816000   3.969   0.815   5.460
  146SAPE   H8R16001   3.990   0.901   5.526
  146SAPE   C2916002   3.966   0.835   5.330
  146SAPE   H9R16003   3.983   0.937   5.293
  146SAPE  C21016004   3.945   0.744   5.213
  146SAPE  H10R16005   3.876   0.803   5.149
  146SAPE  H10S16006   3.886   0.661   5.258
  146SAPE  C21116007   4.069   0.698   5.139
  146SAPE  H11R16008   4.159   0.692   5.201
  146SAPE  C21216009   4.087   0.659   5.010
  146SAPE  H12R16010   4.188   0.634   4.973
  146SAPE  C21316011   3.976   0.659   4.896
  146SAPE  H13R16012   3.875   0.655   4.942
  146SAPE  H13S16013   3.970   0.558   4.849
  146SAPE  C21416014   3.987   0.760   4.787
  146SAPE  H14R16015   4.042   0.854   4.808
  146SAPE  C21516016   3.941   0.736   4.660
  146SAPE  H15R16017   3.962   0.819   4.590
  146SAPE  C21616018   3.867   0.620   4.591
  146SAPE  H16R16019   3.764   0.613   4.633
  146SAPE  H16S16020   3.919   0.526   4.617
  146SAPE  C21716021   3.861   0.621   4.443
  146SAPE  H17R16022   3.965   0.605   4.406
  146SAPE  H17S16023   3.823   0.718   4.405
  146SAPE  C21816024   3.775   0.495   4.393
  146SAPE  H18R16025   3.786   0.496   4.282
  146SAPE  H18S16026   3.670   0.512   4.425
  146SAPE  C21916027   3.815   0.353   4.431
  146SAPE  H19R16028   3.785   0.339   4.537
  146SAPE  H19S16029   3.925   0.343   4.416
  146SAPE  C22016030   3.733   0.256   4.346
  146SAPE  H20R16031   3.712   0.154   4.386
  146SAPE  H20S16032   3.778   0.241   4.246
  146SAPE  H20T16033   3.636   0.306   4.327
  146SAPE   C3316034   4.151   0.014   5.984
  146SAPE   H3X16035   4.155   6.808   6.016
  146SAPE   H3Y16036   4.213   0.082   6.047
  146SAPE   C3416037   4.228   0.012   5.856
  146SAPE   H4X16038   4.322   6.868   5.897
  146SAPE   H4Y16039   4.241   0.119   5.831
  146SAPE   C3516040   4.172   6.824   5.746
  146SAPE   H5X16041   4.084   6.870   5.696
  146SAPE   H5Y16042   4.164   6.724   5.795
  146SAPE   C3616043   4.275   6.809   5.634
  146SAPE   H6X16044   4.364   6.746   5.654
  146SAPE   H6Y16045   4.312   0.009   5.602
  146SAPE   C3716046   4.208   6.750   5.508
  146SAPE   H7X16047   4.107   6.793   5.488
  146SAPE   H7Y16048   4.202   6.640   5.522
  146SAPE   C3816049   4.298   6.782   5.381
  146SAPE   H8X16050   4.394   6.727   5.390
  146SAPE   H8Y16051   4.318   6.891   5.369
  146SAPE   C3916052   4.238   6.726   5.247
  146SAPE   H9X16053   4.133   6.763   5.245
  146SAPE   H9Y16054   4.238   6.616   5.263
  146SAPE  C31016055   4.315   6.749   5.116
  146SAPE  H10X16056   4.424   6.729   5.130
  146SAPE  H10Y16057   4.309   6.857   5.092
  146SAPE  C31116058   4.261   6.669   4.998
  146SAPE  H11X16059   4.151   6.681   5.010
  146SAPE  H11Y16060   4.293   6.563   5.007
  146SAPE  C31216061   4.298   6.728   4.861
  146SAPE  H12X16062   4.279   6.837   4.870
  146SAPE  H12Y16063   4.222   6.705   4.783
  146SAPE  C31316064   4.437   6.707   4.817
  146SAPE  H13X16065   4.446   6.599   4.791
  146SAPE  H13Y16066   4.505   6.739   4.899
  146SAPE  C31416067   4.485   6.788   4.700
  146SAPE  H14X16068   4.455   6.894   4.718
  146SAPE  H14Y16069   4.434   6.753   4.608
  146SAPE  C31516070   4.644   6.782   4.689
  146SAPE  H15X16071   4.665   6.677   4.658
  146SAPE  H15Y16072   4.681   6.800   4.792
  146SAPE  C31616073   4.701   6.879   4.593
  146SAPE  H16X16074   4.671   0.082   4.619
  146SAPE  H16Y16075   4.657   6.861   4.492
  146SAPE  C31716076   4.849   6.858   4.588
  146SAPE  H17X16077   4.908   6.879   4.680
  146SAPE  H17Y16078   4.892   0.040   4.527
  146SAPE  C31816079   4.900   6.726   4.522
  146SAPE  H18X16080   5.011   6.731   4.512
  146SAPE  H18Y16081   4.850   6.711   4.424
  146SAPE  H18Z16082   4.888   6.636   4.585
  147SAPE     N16083   3.873   5.766   6.647
  147SAPE   HN116084   3.919   5.790   6.737
  147SAPE   HN216085   3.773   5.790   6.655
  147SAPE   HN316086   3.884   5.664   6.629
  147SAPE   C1216087   3.913   5.856   6.527
  147SAPE  H12A16088   3.831   5.868   6.452
  147SAPE  H12B16089   3.997   5.810   6.472
  147SAPE   C1116090   3.947   5.991   6.589
  147SAPE  H11A16091   3.849   6.022   6.631
  147SAPE  H11B16092   3.975   6.065   6.510
  147SAPE     P16093   4.198   6.017   6.663
  147SAPE   O1316094   4.206   6.162   6.681
  147SAPE   O1416095   4.281   5.930   6.752
  147SAPE   O1216096   4.045   5.974   6.695
  147SAPE   O1116097   4.212   5.968   6.514
  147SAPE    C116098   4.290   6.040   6.417
  147SAPE    HA16099   4.218   6.088   6.347
  147SAPE    HB16100   4.366   6.107   6.462
  147SAPE    C216101   4.372   5.938   6.326
  147SAPE    HS16102   4.462   5.887   6.367
  147SAPE   O2116103   4.404   6.027   6.212
  147SAPE   C2116104   4.510   5.986   6.150
  147SAPE   O2216105   4.576   5.887   6.187
  147SAPE   C2216106   4.541   6.080   6.041
  147SAPE   H2R16107   4.457   6.074   5.969
  147SAPE   H2S16108   4.537   6.186   6.075
  147SAPE    C316109   4.277   5.825   6.275
  147SAPE    HX16110   4.191   5.885   6.238
  147SAPE    HY16111   4.236   5.768   6.361
  147SAPE   O3116112   4.319   5.746   6.157
  147SAPE   C3116113   4.407   5.652   6.192
  147SAPE   O3216114   4.457   5.639   6.307
  147SAPE   C3216115   4.467   5.580   6.069
  147SAPE   H2X16116   4.405   5.494   6.036
  147SAPE   H2Y16117   4.567   5.536   6.087
  147SAPE   C2316118   4.682   6.068   5.977
  147SAPE   H3R16119   4.715   5.962   5.971
  147SAPE   H3S16120   4.747   6.127   6.045
  147SAPE   C2416121   4.677   6.129   5.841
  147SAPE   H4R16122   4.673   6.240   5.840
  147SAPE   H4S16123   4.582   6.093   5.795
  147SAPE   C2516124   4.806   6.109   5.768
  147SAPE   H5R16125   4.893   6.120   5.834
  147SAPE   C2616126   4.812   6.068   5.636
  147SAPE   H6R16127   4.902   6.036   5.582
  147SAPE   C2716128   4.691   6.033   5.549
  147SAPE   H7R16129   4.591   6.062   5.587
  147SAPE   H7S16130   4.664   5.925   5.551
  147SAPE   C2816131   4.691   6.092   5.414
  147SAPE   H8R16132   4.703   6.201   5.410
  147SAPE   C2916133   4.664   6.032   5.299
  147SAPE   H9R16134   4.669   6.098   5.211
  147SAPE  C21016135   4.630   5.887   5.260
  147SAPE  H10R16136   4.525   5.889   5.225
  147SAPE  H10S16137   4.619   5.829   5.354
  147SAPE  C21116138   4.723   5.813   5.173
  147SAPE  H11R16139   4.801   5.756   5.226
  147SAPE  C21216140   4.688   5.779   5.045
  147SAPE  H12R16141   4.765   5.740   4.976
  147SAPE  C21316142   4.570   5.826   4.965
  147SAPE  H13R16143   4.481   5.818   5.031
  147SAPE  H13S16144   4.558   5.760   4.877
  147SAPE  C21416145   4.587   5.974   4.921
  147SAPE  H14R16146   4.575   6.040   5.008
  147SAPE  C21516147   4.612   6.020   4.798
  147SAPE  H15R16148   4.590   6.126   4.781
  147SAPE  C21616149   4.636   5.936   4.673
  147SAPE  H16R16150   4.644   5.825   4.679
  147SAPE  H16S16151   4.730   5.981   4.633
  147SAPE  C21716152   4.518   5.958   4.569
  147SAPE  H17R16153   4.506   6.068   4.555
  147SAPE  H17S16154   4.427   5.919   4.618
  147SAPE  C21816155   4.544   5.892   4.428
  147SAPE  H18R16156   4.510   5.787   4.436
  147SAPE  H18S16157   4.653   5.884   4.412
  147SAPE  C21916158   4.488   5.962   4.307
  147SAPE  H19R16159   4.517   5.925   4.207
  147SAPE  H19S16160   4.537   6.062   4.307
  147SAPE  C22016161   4.335   5.979   4.302
  147SAPE  H20R16162   4.291   6.029   4.391
  147SAPE  H20S16163   4.284   5.880   4.301
  147SAPE  H20T16164   4.307   6.032   4.209
  147SAPE   C3316165   4.488   5.675   5.949
  147SAPE   H3X16166   4.566   5.748   5.979
  147SAPE   H3Y16167   4.400   5.729   5.911
  147SAPE   C3416168   4.554   5.589   5.837
  147SAPE   H4X16169   4.463   5.530   5.812
  147SAPE   H4Y16170   4.640   5.533   5.879
  147SAPE   C3516171   4.594   5.672   5.713
  147SAPE   H5X16172   4.670   5.742   5.754
  147SAPE   H5Y16173   4.507   5.729   5.675
  147SAPE   C3616174   4.683   5.584   5.612
  147SAPE   H6X16175   4.755   5.523   5.671
  147SAPE   H6Y16176   4.730   5.649   5.536
  147SAPE   C3716177   4.592   5.489   5.537
  147SAPE   H7X16178   4.498   5.548   5.525
  147SAPE   H7Y16179   4.573   5.400   5.602
  147SAPE   C3816180   4.629   5.449   5.394
  147SAPE   H8X16181   4.728   5.399   5.398
  147SAPE   H8Y16182   4.637   5.536   5.326
  147SAPE   C3916183   4.525   5.340   5.352
  147SAPE   H9X16184   4.422   5.374   5.374
  147SAPE   H9Y16185   4.540   5.253   5.418
  147SAPE  C31016186   4.552   5.300   5.203
  147SAPE  H10X16187   4.632   5.225   5.186
  147SAPE  H10Y16188   4.589   5.392   5.154
  147SAPE  C31116189   4.427   5.239   5.136
  147SAPE  H11X16190   4.348   5.308   5.175
  147SAPE  H11Y16191   4.399   5.138   5.172
  147SAPE  C31216192   4.432   5.242   4.981
  147SAPE  H12X16193   4.517   5.182   4.943
  147SAPE  H12Y16194   4.434   5.345   4.939
  147SAPE  C31316195   4.304   5.172   4.925
  147SAPE  H13X16196   4.216   5.226   4.966
  147SAPE  H13Y16197   4.308   5.066   4.957
  147SAPE  C31416198   4.296   5.168   4.768
  147SAPE  H14X16199   4.380   5.110   4.724
  147SAPE  H14Y16200   4.311   5.273   4.735
  147SAPE  C31516201   4.159   5.103   4.730
  147SAPE  H15X16202   4.080   5.155   4.788
  147SAPE  H15Y16203   4.153   4.999   4.768
  147SAPE  C31616204   4.133   5.116   4.577
  147SAPE  H16X16205   4.138   5.225   4.553
  147SAPE  H16Y16206   4.025   5.090   4.564
  147SAPE  C31716207   4.227   5.054   4.477
  147SAPE  H17X16208   4.230   4.945   4.500
  147SAPE  H17Y16209   4.330   5.087   4.503
  147SAPE  C31816210   4.191   5.096   4.334
  147SAPE  H18X16211   4.226   5.200   4.320
  147SAPE  H18Y16212   4.080   5.092   4.332
  147SAPE  H18Z16213   4.234   5.040   4.248
  148SAPE     N16214   1.451   0.663   6.453
  148SAPE   HN116215   1.420   0.603   6.532
  148SAPE   HN216216   1.509   0.740   6.493
  148SAPE   HN316217   1.370   0.702   6.401
  148SAPE   C1216218   1.527   0.589   6.352
  148SAPE  H12A16219   1.624   0.555   6.392
  148SAPE  H12B16220   1.535   0.669   6.275
  148SAPE   C1116221   1.446   0.463   6.285
  148SAPE  H11A16222   1.509   0.409   6.212
  148SAPE  H11B16223   1.365   0.493   6.215
  148SAPE     P16224   1.495   0.260   6.460
  148SAPE   O1316225   1.604   0.333   6.524
  148SAPE   O1416226   1.415   0.187   6.555
  148SAPE   O1216227   1.403   0.372   6.394
  148SAPE   O1116228   1.540   0.159   6.348
  148SAPE    C116229   1.431   0.093   6.279
  148SAPE    HA16230   1.373   0.030   6.350
  148SAPE    HB16231   1.359   0.160   6.229
  148SAPE    C216232   1.488   6.898   6.167
  148SAPE    HS16233   1.578   6.845   6.205
  148SAPE   O2116234   1.523   0.073   6.047
  148SAPE   C2116235   1.636   0.138   6.055
  148SAPE   O2216236   1.729   0.098   6.128
  148SAPE   C2216237   1.638   0.275   5.982
  148SAPE   H2R16238   1.531   0.302   5.968
  148SAPE   H2S16239   1.692   0.347   6.046
  148SAPE    C316240   1.388   6.785   6.133
  148SAPE    HX16241   1.294   6.842   6.120
  148SAPE    HY16242   1.369   6.714   6.217
  148SAPE   O3116243   1.411   6.718   6.010
  148SAPE   C3116244   1.500   6.620   6.019
  148SAPE   O3216245   1.545   6.570   6.118
  148SAPE   C3216246   1.512   6.561   5.881
  148SAPE   H2X16247   1.420   6.500   5.865
  148SAPE   H2Y16248   1.602   6.495   5.887
  148SAPE   C2316249   1.712   0.264   5.846
  148SAPE   H3R16250   1.818   0.231   5.857
  148SAPE   H3S16251   1.718   0.356   5.784
  148SAPE   C2416252   1.648   0.160   5.747
  148SAPE   H4R16253   1.642   0.070   5.812
  148SAPE   H4S16254   1.719   0.132   5.666
  148SAPE   C2516255   1.517   0.190   5.672
  148SAPE   H5R16256   1.428   0.222   5.726
  148SAPE   C2616257   1.502   0.189   5.535
  148SAPE   H6R16258   1.402   0.215   5.499
  148SAPE   C2716259   1.616   0.162   5.432
  148SAPE   H7R16260   1.566   0.111   5.347
  148SAPE   H7S16261   1.692   0.086   5.459
  148SAPE   C2816262   1.685   0.281   5.377
  148SAPE   H8R16263   1.679   0.382   5.418
  148SAPE   C2916264   1.753   0.276   5.263
  148SAPE   H9R16265   1.791   0.369   5.219
  148SAPE  C21016266   1.784   0.161   5.179
  148SAPE  H10R16267   1.709   0.079   5.186
  148SAPE  H10S16268   1.870   0.113   5.232
  148SAPE  C21116269   1.800   0.206   5.037
  148SAPE  H11R16270   1.728   0.274   4.989
  148SAPE  C21216271   1.883   0.160   4.945
  148SAPE  H12R16272   1.892   0.195   4.841
  148SAPE  C21316273   1.989   0.056   4.983
  148SAPE  H13R16274   1.954   6.852   4.997
  148SAPE  H13S16275   2.027   0.081   5.085
  148SAPE  C21416276   2.114   0.087   4.898
  148SAPE  H14R16277   2.165   0.177   4.932
  148SAPE  C21516278   2.154   0.014   4.792
  148SAPE  H15R16279   2.257   0.040   4.763
  148SAPE  C21616280   2.087   6.785   4.748
  148SAPE  H16R16281   2.003   6.758   4.815
  148SAPE  H16S16282   2.165   6.708   4.763
  148SAPE  C21716283   2.034   6.768   4.602
  148SAPE  H17R16284   2.029   6.657   4.595
  148SAPE  H17S16285   2.117   6.792   4.532
  148SAPE  C21816286   1.905   6.848   4.578
  148SAPE  H18R16287   1.941   0.052   4.563
  148SAPE  H18S16288   1.854   6.840   4.676
  148SAPE  C21916289   1.817   6.787   4.459
  148SAPE  H19R16290   1.879   6.803   4.369
  148SAPE  H19S16291   1.722   6.843   4.448
  148SAPE  C22016292   1.786   6.636   4.479
  148SAPE  H20R16293   1.881   6.581   4.495
  148SAPE  H20S16294   1.735   6.602   4.386
  148SAPE  H20T16295   1.726   6.618   4.571
  148SAPE   C3316296   1.526   6.666   5.765
  148SAPE   H3X16297   1.613   6.730   5.791
  148SAPE   H3Y16298   1.437   6.733   5.760
  148SAPE   C3416299   1.553   6.590   5.636
  148SAPE   H4X16300   1.482   6.505   5.630
  148SAPE   H4Y16301   1.654   6.543   5.643
  148SAPE   C3516302   1.544   6.692   5.519
  148SAPE   H5X16303   1.606   6.779   5.550
  148SAPE   H5Y16304   1.438   6.721   5.505
  148SAPE   C3616305   1.604   6.642   5.382
  148SAPE   H6X16306   1.519   6.641   5.311
  148SAPE   H6Y16307   1.638   6.537   5.390
  148SAPE   C3716308   1.724   6.724   5.325
  148SAPE   H7X16309   1.809   6.746   5.394
  148SAPE   H7Y16310   1.684   6.825   5.304
  148SAPE   C3816311   1.766   6.649   5.189
  148SAPE   H8X16312   1.768   6.540   5.211
  148SAPE   H8Y16313   1.869   6.680   5.161
  148SAPE   C3916314   1.682   6.671   5.060
  148SAPE   H9X16315   1.671   6.781   5.047
  148SAPE   H9Y16316   1.586   6.615   5.072
  148SAPE  C31016317   1.740   6.603   4.934
  148SAPE  H10X16318   1.849   6.622   4.923
  148SAPE  H10Y16319   1.695   6.649   4.843
  148SAPE  C31116320   1.711   6.455   4.913
  148SAPE  H11X16321   1.606   6.430   4.937
  148SAPE  H11Y16322   1.784   6.394   4.971
  148SAPE  C31216323   1.752   6.394   4.775
  148SAPE  H12X16324   1.850   6.437   4.745
  148SAPE  H12Y16325   1.679   6.441   4.705
  148SAPE  C31316326   1.750   6.243   4.758
  148SAPE  H13X16327   1.650   6.200   4.779
  148SAPE  H13Y16328   1.812   6.189   4.833
  148SAPE  C31416329   1.794   6.212   4.617
  148SAPE  H14X16330   1.823   6.105   4.623
  148SAPE  H14Y16331   1.880   6.268   4.574
  148SAPE  C31516332   1.688   6.228   4.514
  148SAPE  H15X16333   1.671   6.336   4.495
  148SAPE  H15Y16334   1.591   6.177   4.535
  148SAPE  C31616335   1.739   6.169   4.382
  148SAPE  H16X16336   1.786   6.072   4.408
  148SAPE  H16Y16337   1.818   6.235   4.340
  148SAPE  C31716338   1.629   6.147   4.277
  148SAPE  H17X16339   1.543   6.114   4.339
  148SAPE  H17Y16340   1.661   6.053   4.226
  148SAPE  C31816341   1.586   6.267   4.190
  148SAPE  H18X16342   1.667   6.323   4.138
  148SAPE  H18Y16343   1.535   6.338   4.258
  148SAPE  H18Z16344   1.519   6.248   4.103
  149SAPE     N16345   1.498   2.145   6.333
  149SAPE   HN116346   1.504   2.224   6.266
  149SAPE   HN216347   1.582   2.160   6.392
  149SAPE   HN316348   1.496   2.053   6.285
  149SAPE   C1216349   1.372   2.161   6.421
  149SAPE  H12A16350   1.303   2.220   6.357
  149SAPE  H12B16351   1.395   2.229   6.506
  149SAPE   C1116352   1.299   2.027   6.453
  149SAPE  H11A16353   1.266   1.974   6.361
  149SAPE  H11B16354   1.219   2.057   6.524
  149SAPE     P16355   1.456   1.803   6.484
  149SAPE   O1316356   1.560   1.820   6.384
  149SAPE   O1416357   1.491   1.734   6.611
  149SAPE   O1216358   1.388   1.941   6.524
  149SAPE   O1116359   1.337   1.733   6.415
  149SAPE    C116360   1.343   1.597   6.380
  149SAPE    HA16361   1.441   1.550   6.402
  149SAPE    HB16362   1.265   1.541   6.436
  149SAPE    C216363   1.322   1.586   6.224
  149SAPE    HS16364   1.305   1.478   6.209
  149SAPE   O2116365   1.441   1.634   6.148
  149SAPE   C2116366   1.535   1.544   6.143
  149SAPE   O2216367   1.536   1.432   6.196
  149SAPE   C2216368   1.656   1.602   6.071
  149SAPE   H2R16369   1.633   1.652   5.975
  149SAPE   H2S16370   1.695   1.673   6.147
  149SAPE    C316371   1.201   1.664   6.175
  149SAPE    HX16372   1.220   1.771   6.200
  149SAPE    HY16373   1.129   1.630   6.253
  149SAPE   O3116374   1.151   1.628   6.043
  149SAPE   C3116375   1.195   1.708   5.940
  149SAPE   O3216376   1.282   1.794   5.942
  149SAPE   C3216377   1.109   1.673   5.813
  149SAPE   H2X16378   1.002   1.678   5.843
  149SAPE   H2Y16379   1.128   1.566   5.788
  149SAPE   C2316380   1.755   1.489   6.045
  149SAPE   H3R16381   1.765   1.433   6.141
  149SAPE   H3S16382   1.853   1.534   6.019
  149SAPE   C2416383   1.727   1.399   5.923
  149SAPE   H4R16384   1.723   1.469   5.836
  149SAPE   H4S16385   1.629   1.350   5.938
  149SAPE   C2516386   1.844   1.306   5.907
  149SAPE   H5R16387   1.858   1.240   5.994
  149SAPE   C2616388   1.941   1.304   5.810
  149SAPE   H6R16389   2.022   1.230   5.812
  149SAPE   C2716390   1.947   1.401   5.689
  149SAPE   H7R16391   2.050   1.401   5.647
  149SAPE   H7S16392   1.923   1.503   5.726
  149SAPE   C2816393   1.858   1.351   5.576
  149SAPE   H8R16394   1.788   1.269   5.598
  149SAPE   C2916395   1.853   1.407   5.448
  149SAPE   H9R16396   1.794   1.346   5.379
  149SAPE  C21016397   1.925   1.520   5.385
  149SAPE  H10R16398   1.951   1.596   5.463
  149SAPE  H10S16399   1.849   1.574   5.326
  149SAPE  C21116400   2.059   1.488   5.320
  149SAPE  H11R16401   2.119   1.409   5.366
  149SAPE  C21216402   2.106   1.537   5.204
  149SAPE  H12R16403   2.207   1.514   5.168
  149SAPE  C21316404   2.038   1.648   5.122
  149SAPE  H13R16405   1.928   1.653   5.137
  149SAPE  H13S16406   2.044   1.623   5.013
  149SAPE  C21416407   2.095   1.783   5.145
  149SAPE  H14R16408   2.112   1.812   5.250
  149SAPE  C21516409   2.132   1.874   5.052
  149SAPE  H15R16410   2.164   1.975   5.081
  149SAPE  C21616411   2.126   1.861   4.902
  149SAPE  H16R16412   2.077   1.946   4.850
  149SAPE  H16S16413   2.066   1.775   4.864
  149SAPE  C21716414   2.269   1.823   4.845
  149SAPE  H17R16415   2.287   1.720   4.883
  149SAPE  H17S16416   2.338   1.897   4.891
  149SAPE  C21816417   2.265   1.826   4.687
  149SAPE  H18R16418   2.207   1.916   4.658
  149SAPE  H18S16419   2.218   1.739   4.636
  149SAPE  C21916420   2.412   1.855   4.637
  149SAPE  H19R16421   2.448   1.939   4.701
  149SAPE  H19S16422   2.417   1.901   4.536
  149SAPE  C22016423   2.502   1.738   4.651
  149SAPE  H20R16424   2.527   1.690   4.554
  149SAPE  H20S16425   2.452   1.653   4.702
  149SAPE  H20T16426   2.598   1.767   4.698
  149SAPE   C3316427   1.145   1.773   5.702
  149SAPE   H3X16428   1.254   1.772   5.685
  149SAPE   H3Y16429   1.119   1.872   5.747
  149SAPE   C3416430   1.069   1.754   5.573
  149SAPE   H4X16431   0.971   1.807   5.574
  149SAPE   H4Y16432   1.039   1.647   5.565
  149SAPE   C3516433   1.148   1.805   5.456
  149SAPE   H5X16434   1.255   1.778   5.445
  149SAPE   H5Y16435   1.142   1.916   5.462
  149SAPE   C3616436   1.079   1.776   5.323
  149SAPE   H6X16437   0.977   1.821   5.331
  149SAPE   H6Y16438   1.075   1.666   5.307
  149SAPE   C3716439   1.140   1.843   5.199
  149SAPE   H7X16440   1.241   1.804   5.177
  149SAPE   H7Y16441   1.152   1.950   5.226
  149SAPE   C3816442   1.063   1.819   5.072
  149SAPE   H8X16443   0.953   1.833   5.081
  149SAPE   H8Y16444   1.064   1.708   5.065
  149SAPE   C3916445   1.122   1.874   4.939
  149SAPE   H9X16446   1.143   1.981   4.961
  149SAPE   H9Y16447   1.054   1.881   4.852
  149SAPE  C31016448   1.250   1.804   4.889
  149SAPE  H10X16449   1.219   1.700   4.867
  149SAPE  H10Y16450   1.324   1.796   4.972
  149SAPE  C31116451   1.317   1.869   4.763
  149SAPE  H11X16452   1.419   1.828   4.748
  149SAPE  H11Y16453   1.330   1.978   4.753
  149SAPE  C31216454   1.229   1.826   4.637
  149SAPE  H12X16455   1.126   1.859   4.661
  149SAPE  H12Y16456   1.238   1.717   4.619
  149SAPE  C31316457   1.274   1.902   4.511
  149SAPE  H13X16458   1.379   1.875   4.485
  149SAPE  H13Y16459   1.281   2.011   4.530
  149SAPE  C31416460   1.182   1.876   4.392
  149SAPE  H14X16461   1.083   1.917   4.422
  149SAPE  H14Y16462   1.183   1.766   4.376
  149SAPE  C31516463   1.218   1.953   4.262
  149SAPE  H15X16464   1.267   2.052   4.277
  149SAPE  H15Y16465   1.136   1.966   4.189
  149SAPE  C31616466   1.332   1.872   4.193
  149SAPE  H16X16467   1.282   1.787   4.141
  149SAPE  H16Y16468   1.399   1.829   4.271
  149SAPE  C31716469   1.409   1.956   4.095
  149SAPE  H17X16470   1.478   2.028   4.144
  149SAPE  H17Y16471   1.326   2.017   4.052
  149SAPE  C31816472   1.469   1.876   3.982
  149SAPE  H18X16473   1.390   1.825   3.923
  149SAPE  H18Y16474   1.546   1.805   4.018
  149SAPE  H18Z16475   1.510   1.945   3.904
  150SAPE     N16476   4.284   3.135   6.492
  150SAPE   HN116477   4.272   3.185   6.402
  150SAPE   HN216478   4.324   3.209   6.553
  150SAPE   HN316479   4.360   3.065   6.477
  150SAPE   C1216480   4.161   3.075   6.559
  150SAPE  H12A16481   4.099   3.029   6.479
  150SAPE  H12B16482   4.094   3.149   6.607
  150SAPE   C1116483   4.212   2.964   6.659
  150SAPE  H11A16484   4.129   2.941   6.728
  150SAPE  H11B16485   4.288   3.011   6.725
  150SAPE     P16486   4.417   2.820   6.578
  150SAPE   O1316487   4.472   2.949   6.531
  150SAPE   O1416488   4.467   2.768   6.709
  150SAPE   O1216489   4.253   2.839   6.590
  150SAPE   O1116490   4.440   2.717   6.465
  150SAPE    C116491   4.357   2.705   6.348
  150SAPE    HA16492   4.283   2.625   6.372
  150SAPE    HB16493   4.292   2.793   6.330
  150SAPE    C216494   4.437   2.647   6.226
  150SAPE    HS16495   4.476   2.555   6.275
  150SAPE   O2116496   4.545   2.737   6.186
  150SAPE   C2116497   4.647   2.695   6.117
  150SAPE   O2216498   4.671   2.574   6.095
  150SAPE   C2216499   4.721   2.819   6.059
  150SAPE   H2R16500   4.743   2.893   6.139
  150SAPE   H2S16501   4.817   2.787   6.013
  150SAPE    C316502   4.355   2.600   6.101
  150SAPE    HX16503   4.263   2.554   6.141
  150SAPE    HY16504   4.424   2.520   6.066
  150SAPE   O3116505   4.338   2.712   6.020
  150SAPE   C3116506   4.224   2.783   6.036
  150SAPE   O3216507   4.137   2.745   6.111
  150SAPE   C3216508   4.221   2.905   5.947
  150SAPE   H2X16509   4.299   2.972   5.989
  150SAPE   H2Y16510   4.133   2.970   5.960
  150SAPE   C2316511   4.636   2.882   5.945
  150SAPE   H3R16512   4.531   2.897   5.977
  150SAPE   H3S16513   4.640   2.802   5.868
  150SAPE   C2416514   4.683   3.019   5.900
  150SAPE   H4R16515   4.786   3.003   5.864
  150SAPE   H4S16516   4.692   3.082   5.991
  150SAPE   C2516517   4.593   3.097   5.796
  150SAPE   H5R16518   4.494   3.126   5.835
  150SAPE   C2616519   4.615   3.119   5.668
  150SAPE   H6R16520   4.544   3.177   5.608
  150SAPE   C2716521   4.746   3.075   5.606
  150SAPE   H7R16522   4.778   2.975   5.642
  150SAPE   H7S16523   4.826   3.147   5.632
  150SAPE   C2816524   4.747   3.065   5.456
  150SAPE   H8R16525   4.660   3.104   5.401
  150SAPE   C2916526   4.850   3.004   5.397
  150SAPE   H9R16527   4.863   2.996   5.288
  150SAPE  C21016528   4.968   2.945   5.465
  150SAPE  H10R16529   4.963   2.836   5.445
  150SAPE  H10S16530   4.973   2.954   5.576
  150SAPE  C21116531   5.110   2.997   5.412
  150SAPE  H11R16532   5.162   3.054   5.491
  150SAPE  C21216533   5.178   2.977   5.293
  150SAPE  H12R16534   5.276   3.027   5.287
  150SAPE  C21316535   5.130   2.892   5.175
  150SAPE  H13R16536   5.048   2.952   5.131
  150SAPE  H13S16537   5.089   2.801   5.225
  150SAPE  C21416538   5.236   2.858   5.077
  150SAPE  H14R16539   5.333   2.823   5.116
  150SAPE  C21516540   5.224   2.867   4.946
  150SAPE  H15R16541   5.311   2.844   4.882
  150SAPE  C21616542   5.089   2.897   4.877
  150SAPE  H16R16543   5.093   2.987   4.812
  150SAPE  H16S16544   5.004   2.920   4.944
  150SAPE  C21716545   5.046   2.782   4.784
  150SAPE  H17R16546   4.940   2.791   4.752
  150SAPE  H17S16547   5.059   2.686   4.839
  150SAPE  C21816548   5.132   2.781   4.658
  150SAPE  H18R16549   5.236   2.787   4.696
  150SAPE  H18S16550   5.099   2.865   4.593
  150SAPE  C21916551   5.113   2.652   4.578
  150SAPE  H19R16552   5.007   2.646   4.545
  150SAPE  H19S16553   5.147   2.567   4.641
  150SAPE  C22016554   5.200   2.657   4.443
  150SAPE  H20R16555   5.200   2.555   4.399
  150SAPE  H20S16556   5.302   2.691   4.467
  150SAPE  H20T16557   5.145   2.731   4.381
  150SAPE   C3316558   4.249   2.884   5.792
  150SAPE   H3X16559   4.171   2.819   5.747
  150SAPE   H3Y16560   4.344   2.832   5.770
  150SAPE   C3416561   4.232   3.010   5.713
  150SAPE   H4X16562   4.299   3.085   5.761
  150SAPE   H4Y16563   4.131   3.055   5.718
  150SAPE   C3516564   4.269   2.992   5.564
  150SAPE   H5X16565   4.191   2.921   5.528
  150SAPE   H5Y16566   4.369   2.945   5.552
  150SAPE   C3616567   4.259   3.125   5.482
  150SAPE   H6X16568   4.341   3.190   5.518
  150SAPE   H6Y16569   4.161   3.174   5.501
  150SAPE   C3716570   4.263   3.088   5.334
  150SAPE   H7X16571   4.229   2.983   5.322
  150SAPE   H7Y16572   4.370   3.088   5.304
  150SAPE   C3816573   4.193   3.184   5.236
  150SAPE   H8X16574   4.237   3.285   5.251
  150SAPE   H8Y16575   4.085   3.187   5.264
  150SAPE   C3916576   4.204   3.149   5.090
  150SAPE   H9X16577   4.205   3.039   5.073
  150SAPE   H9Y16578   4.303   3.194   5.068
  150SAPE  C31016579   4.089   3.203   5.015
  150SAPE  H10X16580   4.082   3.312   5.030
  150SAPE  H10Y16581   3.990   3.172   5.055
  150SAPE  C31116582   4.105   3.187   4.866
  150SAPE  H11X16583   4.076   3.080   4.857
  150SAPE  H11Y16584   4.212   3.189   4.837
  150SAPE  C31216585   4.032   3.292   4.777
  150SAPE  H12X16586   4.073   3.393   4.797
  150SAPE  H12Y16587   3.923   3.295   4.799
  150SAPE  C31316588   4.043   3.272   4.619
  150SAPE  H13X16589   3.983   3.185   4.587
  150SAPE  H13Y16590   4.153   3.264   4.601
  150SAPE  C31416591   3.993   3.390   4.540
  150SAPE  H14X16592   4.047   3.483   4.570
  150SAPE  H14Y16593   3.885   3.414   4.549
  150SAPE  C31516594   4.015   3.381   4.387
  150SAPE  H15X16595   4.113   3.330   4.382
  150SAPE  H15Y16596   4.037   3.482   4.347
  150SAPE  C31616597   3.904   3.321   4.308
  150SAPE  H16X16598   3.823   3.391   4.277
  150SAPE  H16Y16599   3.850   3.239   4.360
  150SAPE  C31716600   3.957   3.248   4.177
  150SAPE  H17X16601   4.050   3.191   4.197
  150SAPE  H17Y16602   3.982   3.324   4.101
  150SAPE  C31816603   3.851   3.146   4.124
  150SAPE  H18X16604   3.868   3.127   4.015
  150SAPE  H18Y16605   3.748   3.184   4.139
  150SAPE  H18Z16606   3.849   3.060   4.193
  151SAPE     N16607   5.058   1.172   6.553
  151SAPE   HN116608   5.119   1.179   6.469
  151SAPE   HN216609   4.958   1.170   6.524
  151SAPE   HN316610   5.081   1.251   6.617
  151SAPE   C1216611   5.091   1.033   6.618
  151SAPE  H12A16612   5.011   1.026   6.694
  151SAPE  H12B16613   5.194   1.039   6.661
  151SAPE   C1116614   5.083   0.913   6.514
  151SAPE  H11A16615   5.083   0.816   6.568
  151SAPE  H11B16616   5.169   0.922   6.444
  151SAPE     P16617   4.855   0.796   6.440
  151SAPE   O1316618   4.789   0.803   6.573
  151SAPE   O1416619   4.765   0.816   6.325
  151SAPE   O1216620   4.960   0.910   6.437
  151SAPE   O1116621   4.938   0.663   6.427
  151SAPE    C116622   5.025   0.638   6.321
  151SAPE    HA16623   5.023   0.725   6.251
  151SAPE    HB16624   5.129   0.626   6.356
  151SAPE    C216625   4.992   0.514   6.237
  151SAPE    HS16626   5.061   0.515   6.150
  151SAPE   O2116627   4.844   0.525   6.206
  151SAPE   C2116628   4.822   0.514   6.072
  151SAPE   O2216629   4.912   0.491   5.996
  151SAPE   C2216630   4.668   0.519   6.050
  151SAPE   H2R16631   4.623   0.437   6.110
  151SAPE   H2S16632   4.638   0.622   6.078
  151SAPE    C316633   5.012   0.373   6.310
  151SAPE    HX16634   4.939   0.370   6.394
  151SAPE    HY16635   5.116   0.366   6.349
  151SAPE   O3116636   4.976   0.261   6.220
  151SAPE   C3116637   5.067   0.228   6.129
  151SAPE   O3216638   5.180   0.266   6.118
  151SAPE   C3216639   5.000   0.120   6.042
  151SAPE   H2X16640   4.977   0.037   6.112
  151SAPE   H2Y16641   5.081   0.095   5.971
  151SAPE   C2316642   4.627   0.491   5.907
  151SAPE   H3R16643   4.624   0.383   5.880
  151SAPE   H3S16644   4.699   0.534   5.833
  151SAPE   C2416645   4.484   0.529   5.869
  151SAPE   H4R16646   4.421   0.476   5.944
  151SAPE   H4S16647   4.451   0.483   5.774
  151SAPE   C2516648   4.445   0.680   5.872
  151SAPE   H5R16649   4.441   0.724   5.973
  151SAPE   C2616650   4.450   0.766   5.766
  151SAPE   H6R16651   4.435   0.875   5.768
  151SAPE   C2716652   4.498   0.729   5.630
  151SAPE   H7R16653   4.545   0.628   5.631
  151SAPE   H7S16654   4.572   0.798   5.584
  151SAPE   C2816655   4.376   0.727   5.539
  151SAPE   H8R16656   4.316   0.819   5.536
  151SAPE   C2916657   4.319   0.620   5.479
  151SAPE   H9R16658   4.232   0.646   5.417
  151SAPE  C21016659   4.368   0.475   5.459
  151SAPE  H10R16660   4.474   0.471   5.490
  151SAPE  H10S16661   4.365   0.458   5.349
  151SAPE  C21116662   4.286   0.372   5.536
  151SAPE  H11R16663   4.304   0.369   5.644
  151SAPE  C21216664   4.203   0.279   5.487
  151SAPE  H12R16665   4.169   0.208   5.564
  151SAPE  C21316666   4.155   0.259   5.348
  151SAPE  H13R16667   4.153   0.149   5.331
  151SAPE  H13S16668   4.229   0.303   5.276
  151SAPE  C21416669   4.023   0.332   5.336
  151SAPE  H14R16670   3.973   0.354   5.431
  151SAPE  C21516671   3.955   0.335   5.221
  151SAPE  H15R16672   3.856   0.382   5.218
  151SAPE  C21616673   4.003   0.289   5.086
  151SAPE  H16R16674   4.107   0.248   5.090
  151SAPE  H16S16675   4.021   0.368   5.010
  151SAPE  C21716676   3.913   0.177   5.052
  151SAPE  H17R16677   3.811   0.215   5.028
  151SAPE  H17S16678   3.898   0.105   5.134
  151SAPE  C21816679   3.948   0.097   4.924
  151SAPE  H18R16680   3.902   6.896   4.929
  151SAPE  H18S16681   4.057   0.075   4.915
  151SAPE  C21916682   3.895   0.159   4.802
  151SAPE  H19R16683   3.939   0.260   4.789
  151SAPE  H19S16684   3.785   0.144   4.804
  151SAPE  C22016685   3.949   0.071   4.683
  151SAPE  H20R16686   3.898   0.110   4.593
  151SAPE  H20S16687   3.919   6.865   4.697
  151SAPE  H20T16688   4.060   0.083   4.683
  151SAPE   C3316689   4.870   0.160   5.968
  151SAPE   H3X16690   4.889   0.254   5.913
  151SAPE   H3Y16691   4.787   0.177   6.039
  151SAPE   C3416692   4.828   0.041   5.876
  151SAPE   H4X16693   4.803   6.856   5.943
  151SAPE   H4Y16694   4.908   0.016   5.803
  151SAPE   C3516695   4.715   0.085   5.783
  151SAPE   H5X16696   4.626   0.105   5.846
  151SAPE   H5Y16697   4.691   0.002   5.712
  151SAPE   C3616698   4.754   0.207   5.695
  151SAPE   H6X16699   4.855   0.194   5.651
  151SAPE   H6Y16700   4.758   0.305   5.747
  151SAPE   C3716701   4.648   0.238   5.589
  151SAPE   H7X16702   4.663   0.347   5.570
  151SAPE   H7Y16703   4.547   0.229   5.633
  151SAPE   C3816704   4.665   0.144   5.465
  151SAPE   H8X16705   4.611   0.048   5.481
  151SAPE   H8Y16706   4.774   0.122   5.460
  151SAPE   C3916707   4.608   0.191   5.338
  151SAPE   H9X16708   4.663   0.287   5.328
  151SAPE   H9Y16709   4.499   0.216   5.340
  151SAPE  C31016710   4.629   0.101   5.212
  151SAPE  H10X16711   4.543   0.032   5.209
  151SAPE  H10Y16712   4.718   0.038   5.234
  151SAPE  C31116713   4.629   0.175   5.078
  151SAPE  H11X16714   4.662   0.103   5.000
  151SAPE  H11Y16715   4.693   0.265   5.088
  151SAPE  C31216716   4.489   0.218   5.034
  151SAPE  H12X16717   4.448   0.279   5.118
  151SAPE  H12Y16718   4.430   0.126   5.015
  151SAPE  C31316719   4.481   0.302   4.909
  151SAPE  H13X16720   4.507   0.249   4.815
  151SAPE  H13Y16721   4.556   0.384   4.911
  151SAPE  C31416722   4.339   0.348   4.875
  151SAPE  H14X16723   4.310   0.436   4.936
  151SAPE  H14Y16724   4.273   0.267   4.912
  151SAPE  C31516725   4.311   0.369   4.721
  151SAPE  H15X16726   4.388   0.430   4.670
  151SAPE  H15Y16727   4.211   0.416   4.714
  151SAPE  C31616728   4.306   0.238   4.635
  151SAPE  H16X16729   4.231   0.182   4.694
  151SAPE  H16Y16730   4.401   0.182   4.623
  151SAPE  C31716731   4.252   0.264   4.489
  151SAPE  H17X16732   4.302   0.349   4.439
  151SAPE  H17Y16733   4.142   0.279   4.500
  151SAPE  C31816734   4.258   0.143   4.401
  151SAPE  H18X16735   4.359   0.098   4.412
  151SAPE  H18Y16736   4.244   0.170   4.294
  151SAPE  H18Z16737   4.178   0.075   4.436
  152SAPE     N16738   6.628   2.594   6.405
  152SAPE   HN116739   6.608   2.556   6.499
  152SAPE   HN216740   6.570   2.675   6.377
  152SAPE   HN316741   6.591   2.522   6.339
  152SAPE   C1216742   6.772   2.620   6.379
  152SAPE  H12A16743   6.813   2.684   6.460
  152SAPE  H12B16744   6.777   2.675   6.282
  152SAPE   C1116745   6.845   2.484   6.364
  152SAPE  H11A16746   6.882   2.440   6.459
  152SAPE  H11B16747   0.032   2.514   6.303
  152SAPE     P16748   6.772   2.365   6.138
  152SAPE   O1316749   6.701   2.241   6.103
  152SAPE   O1416750   6.721   2.493   6.091
  152SAPE   O1216751   6.768   2.382   6.292
  152SAPE   O1116752   0.025   2.345   6.105
  152SAPE    C116753   0.084   2.415   6.000
  152SAPE    HA16754   0.078   2.524   6.018
  152SAPE    HB16755   0.194   2.397   5.995
  152SAPE    C216756   0.024   2.393   5.859
  152SAPE    HS16757   6.825   2.442   5.849
  152SAPE   O2116758   0.012   2.249   5.828
  152SAPE   C2116759   6.804   2.204   5.776
  152SAPE   O2216760   6.706   2.270   5.747
  152SAPE   C2216761   6.830   2.054   5.758
  152SAPE   H2R16762   0.030   2.038   5.712
  152SAPE   H2S16763   6.830   1.997   5.854
  152SAPE    C316764   0.115   2.456   5.752
  152SAPE    HX16765   0.214   2.411   5.776
  152SAPE    HY16766   0.125   2.566   5.755
  152SAPE   O3116767   0.072   2.411   5.622
  152SAPE   C3116768   6.886   2.483   5.560
  152SAPE   O3216769   6.830   2.581   5.606
  152SAPE   C3216770   6.850   2.428   5.420
  152SAPE   H2X16771   6.743   2.398   5.420
  152SAPE   H2Y16772   0.014   2.342   5.389
  152SAPE   C2316773   6.724   1.992   5.660
  152SAPE   H3R16774   6.731   2.053   5.567
  152SAPE   H3S16775   6.623   1.993   5.706
  152SAPE   C2416776   6.754   1.849   5.621
  152SAPE   H4R16777   6.665   1.820   5.562
  152SAPE   H4S16778   6.772   1.790   5.714
  152SAPE   C2516779   6.869   1.849   5.523
  152SAPE   H5R16780   0.067   1.825   5.566
  152SAPE   C2616781   6.859   1.882   5.388
  152SAPE   H6R16782   0.047   1.897   5.324
  152SAPE   C2716783   6.721   1.902   5.317
  152SAPE   H7R16784   6.631   1.917   5.380
  152SAPE   H7S16785   6.691   1.812   5.259
  152SAPE   C2816786   6.700   2.013   5.219
  152SAPE   H8R16787   6.619   2.083   5.246
  152SAPE   C2916788   6.772   2.030   5.102
  152SAPE   H9R16789   6.764   2.125   5.048
  152SAPE  C21016790   6.876   1.932   5.051
  152SAPE  H10R16791   6.850   1.830   5.085
  152SAPE  H10S16792   0.067   1.951   5.111
  152SAPE  C21116793   0.003   1.940   4.899
  152SAPE  H11R16794   0.101   1.981   4.874
  152SAPE  C21216795   6.815   1.911   4.804
  152SAPE  H12R16796   6.845   1.919   4.698
  152SAPE  C21316797   6.663   1.885   4.823
  152SAPE  H13R16798   6.610   1.947   4.749
  152SAPE  H13S16799   6.628   1.913   4.925
  152SAPE  C21416800   6.642   1.735   4.824
  152SAPE  H14R16801   6.688   1.690   4.913
  152SAPE  C21516802   6.570   1.660   4.734
  152SAPE  H15R16803   6.552   1.553   4.753
  152SAPE  C21616804   6.500   1.714   4.601
  152SAPE  H16R16805   6.569   1.789   4.556
  152SAPE  H16S16806   6.404   1.765   4.627
  152SAPE  C21716807   6.474   1.609   4.497
  152SAPE  H17R16808   6.421   1.663   4.416
  152SAPE  H17S16809   6.400   1.533   4.529
  152SAPE  C21816810   6.603   1.536   4.440
  152SAPE  H18R16811   6.568   1.448   4.381
  152SAPE  H18S16812   6.639   1.486   4.533
  152SAPE  C21916813   6.710   1.634   4.385
  152SAPE  H19R16814   6.795   1.573   4.348
  152SAPE  H19S16815   6.742   1.693   4.474
  152SAPE  C22016816   6.670   1.717   4.262
  152SAPE  H20R16817   6.603   1.667   4.189
  152SAPE  H20S16818   6.751   1.773   4.211
  152SAPE  H20T16819   6.594   1.791   4.296
  152SAPE   C3316820   6.856   2.531   5.301
  152SAPE   H3X16821   0.057   2.577   5.294
  152SAPE   H3Y16822   6.805   2.627   5.323
  152SAPE   C3416823   6.797   2.476   5.174
  152SAPE   H4X16824   6.692   2.439   5.186
  152SAPE   H4Y16825   6.845   2.381   5.143
  152SAPE   C3516826   6.805   2.580   5.057
  152SAPE   H5X16827   6.897   2.642   5.044
  152SAPE   H5Y16828   6.727   2.657   5.075
  152SAPE   C3616829   6.773   2.523   4.912
  152SAPE   H6X16830   6.838   2.436   4.888
  152SAPE   H6Y16831   6.786   2.605   4.838
  152SAPE   C3716832   6.632   2.481   4.916
  152SAPE   H7X16833   6.571   2.557   4.968
  152SAPE   H7Y16834   6.617   2.392   4.981
  152SAPE   C3816835   6.563   2.457   4.775
  152SAPE   H8X16836   6.457   2.426   4.786
  152SAPE   H8Y16837   6.622   2.384   4.716
  152SAPE   C3916838   6.552   2.585   4.693
  152SAPE   H9X16839   6.651   2.623   4.661
  152SAPE   H9Y16840   6.504   2.658   4.761
  152SAPE  C31016841   6.465   2.566   4.566
  152SAPE  H10X16842   6.381   2.493   4.576
  152SAPE  H10Y16843   6.527   2.505   4.496
  152SAPE  C31116844   6.425   2.693   4.498
  152SAPE  H11X16845   6.507   2.768   4.498
  152SAPE  H11Y16846   6.349   2.750   4.555
  152SAPE  C31216847   6.387   2.662   4.352
  152SAPE  H12X16848   6.290   2.609   4.353
  152SAPE  H12Y16849   6.469   2.605   4.302
  152SAPE  C31316850   6.363   2.784   4.266
  152SAPE  H13X16851   6.266   2.835   4.290
  152SAPE  H13Y16852   6.352   2.752   4.160
  152SAPE  C31416853   6.469   2.888   4.262
  152SAPE  H14X16854   6.566   2.834   4.261
  152SAPE  H14Y16855   6.475   2.957   4.349
  152SAPE  C31516856   6.458   2.982   4.144
  152SAPE  H15X16857   6.355   3.022   4.146
  152SAPE  H15Y16858   6.474   2.931   4.047
  152SAPE  C31616859   6.533   3.116   4.143
  152SAPE  H16X16860   6.644   3.110   4.152
  152SAPE  H16Y16861   6.508   3.184   4.227
  152SAPE  C31716862   6.519   3.195   4.008
  152SAPE  H17X16863   6.603   3.267   3.998
  152SAPE  H17Y16864   6.416   3.237   4.013
  152SAPE  C31816865   6.532   3.107   3.878
  152SAPE  H18X16866   6.627   3.050   3.868
  152SAPE  H18Y16867   6.522   3.175   3.791
  152SAPE  H18Z16868   6.444   3.043   3.855
  153SAPE     N16869   6.488   2.088   6.159
  153SAPE   HN116870   6.481   2.105   6.261
  153SAPE   HN216871   6.504   1.988   6.134
  153SAPE   HN316872   6.578   2.132   6.130
  153SAPE   C1216873   6.359   2.153   6.092
  153SAPE  H12A16874   6.362   2.125   5.985
  153SAPE  H12B16875   6.389   2.260   6.094
  153SAPE   C1116876   6.227   2.126   6.166
  153SAPE  H11A16877   6.140   2.158   6.104
  153SAPE  H11B16878   6.223   2.186   6.259
  153SAPE     P16879   6.149   1.918   6.314
  153SAPE   O1316880   6.154   1.768   6.302
  153SAPE   O1416881   6.204   1.973   6.439
  153SAPE   O1216882   6.226   1.987   6.193
  153SAPE   O1116883   6.002   1.966   6.296
  153SAPE    C116884   5.906   1.898   6.215
  153SAPE    HA16885   5.898   1.789   6.234
  153SAPE    HB16886   5.809   1.932   6.258
  153SAPE    C216887   5.914   1.925   6.064
  153SAPE    HS16888   6.012   1.887   6.031
  153SAPE   O2116889   5.888   2.065   6.043
  153SAPE   C2116890   5.937   2.109   5.927
  153SAPE   O2216891   6.012   2.041   5.854
  153SAPE   C2216892   5.880   2.244   5.888
  153SAPE   H2R16893   5.814   2.279   5.971
  153SAPE   H2S16894   5.952   2.329   5.891
  153SAPE    C316895   5.798   1.837   5.997
  153SAPE    HX16896   5.703   1.868   6.045
  153SAPE    HY16897   5.806   1.730   6.024
  153SAPE   O3116898   5.789   1.863   5.852
  153SAPE   C3116899   5.872   1.785   5.773
  153SAPE   O3216900   5.930   1.688   5.819
  153SAPE   C3216901   5.887   1.838   5.630
  153SAPE   H2X16902   5.963   1.919   5.638
  153SAPE   H2Y16903   5.795   1.885   5.591
  153SAPE   C2316904   5.800   2.229   5.756
  153SAPE   H3R16905   5.737   2.139   5.772
  153SAPE   H3S16906   5.860   2.220   5.664
  153SAPE   C2416907   5.722   2.351   5.724
  153SAPE   H4R16908   5.671   2.388   5.815
  153SAPE   H4S16909   5.634   2.332   5.658
  153SAPE   C2516910   5.805   2.462   5.666
  153SAPE   H5R16911   5.858   2.525   5.739
  153SAPE   C2616912   5.806   2.498   5.534
  153SAPE   H6R16913   5.879   2.576   5.509
  153SAPE   C2716914   5.752   2.419   5.420
  153SAPE   H7R16915   5.718   2.316   5.443
  153SAPE   H7S16916   5.843   2.410   5.357
  153SAPE   C2816917   5.656   2.493   5.340
  153SAPE   H8R16918   5.583   2.546   5.402
  153SAPE   C2916919   5.659   2.528   5.208
  153SAPE   H9R16920   5.566   2.571   5.168
  153SAPE  C21016921   5.751   2.453   5.114
  153SAPE  H10R16922   5.853   2.470   5.155
  153SAPE  H10S16923   5.753   2.503   5.015
  153SAPE  C21116924   5.718   2.301   5.096
  153SAPE  H11R16925   5.707   2.241   5.188
  153SAPE  C21216926   5.710   2.229   4.982
  153SAPE  H12R16927   5.679   2.123   4.978
  153SAPE  C21316928   5.735   2.279   4.844
  153SAPE  H13R16929   5.809   2.208   4.801
  153SAPE  H13S16930   5.786   2.377   4.837
  153SAPE  C21416931   5.610   2.283   4.758
  153SAPE  H14R16932   5.516   2.289   4.815
  153SAPE  C21516933   5.597   2.295   4.625
  153SAPE  H15R16934   5.496   2.302   4.583
  153SAPE  C21616935   5.706   2.287   4.519
  153SAPE  H16R16936   5.690   2.204   4.447
  153SAPE  H16S16937   5.803   2.265   4.567
  153SAPE  C21716938   5.741   2.412   4.436
  153SAPE  H17R16939   5.771   2.490   4.509
  153SAPE  H17S16940   5.649   2.445   4.383
  153SAPE  C21816941   5.860   2.382   4.344
  153SAPE  H18R16942   5.845   2.292   4.281
  153SAPE  H18S16943   5.940   2.358   4.417
  153SAPE  C21916944   5.911   2.507   4.266
  153SAPE  H19R16945   5.968   2.570   4.339
  153SAPE  H19S16946   5.825   2.561   4.222
  153SAPE  C22016947   6.012   2.466   4.149
  153SAPE  H20R16948   6.092   2.396   4.183
  153SAPE  H20S16949   6.064   2.555   4.109
  153SAPE  H20T16950   5.951   2.415   4.071
  153SAPE   C3316951   5.953   1.737   5.535
  153SAPE   H3X16952   6.030   1.673   5.583
  153SAPE   H3Y16953   6.000   1.792   5.452
  153SAPE   C3416954   5.856   1.638   5.470
  153SAPE   H4X16955   5.768   1.699   5.439
  153SAPE   H4Y16956   5.824   1.557   5.539
  153SAPE   C3516957   5.924   1.556   5.365
  153SAPE   H5X16958   5.988   1.481   5.417
  153SAPE   H5Y16959   5.983   1.621   5.296
  153SAPE   C3616960   5.830   1.470   5.276
  153SAPE   H6X16961   5.749   1.541   5.249
  153SAPE   H6Y16962   5.784   1.381   5.324
  153SAPE   C3716963   5.902   1.415   5.154
  153SAPE   H7X16964   5.972   1.338   5.194
  153SAPE   H7Y16965   5.967   1.494   5.111
  153SAPE   C3816966   5.806   1.351   5.053
  153SAPE   H8X16967   5.749   1.438   5.013
  153SAPE   H8Y16968   5.733   1.277   5.091
  153SAPE   C3916969   5.875   1.291   4.933
  153SAPE   H9X16970   5.945   1.219   4.981
  153SAPE   H9Y16971   5.933   1.364   4.873
  153SAPE  C31016972   5.789   1.203   4.840
  153SAPE  H10X16973   5.723   1.275   4.787
  153SAPE  H10Y16974   5.738   1.124   4.898
  153SAPE  C31116975   5.877   1.134   4.731
  153SAPE  H11X16976   5.814   1.062   4.673
  153SAPE  H11Y16977   5.947   1.069   4.789
  153SAPE  C31216978   5.945   1.234   4.632
  153SAPE  H12X16979   6.051   1.235   4.664
  153SAPE  H12Y16980   5.910   1.337   4.654
  153SAPE  C31316981   5.927   1.194   4.492
  153SAPE  H13X16982   5.820   1.209   4.468
  153SAPE  H13Y16983   5.960   1.089   4.477
  153SAPE  C31416984   6.015   1.291   4.402
  153SAPE  H14X16985   6.103   1.320   4.465
  153SAPE  H14Y16986   5.945   1.375   4.383
  153SAPE  C31516987   6.063   1.226   4.263
  153SAPE  H15X16988   5.976   1.176   4.215
  153SAPE  H15Y16989   6.147   1.157   4.286
  153SAPE  C31616990   6.120   1.317   4.156
  153SAPE  H16X16991   6.210   1.365   4.198
  153SAPE  H16Y16992   6.046   1.400   4.154
  153SAPE  C31716993   6.151   1.245   4.025
  153SAPE  H17X16994   6.070   1.172   4.002
  153SAPE  H17Y16995   6.247   1.190   4.031
  153SAPE  C31816996   6.168   1.342   3.909
  153SAPE  H18X16997   6.174   1.292   3.810
  153SAPE  H18Y16998   6.261   1.404   3.907
  153SAPE  H18Z16999   6.080   1.410   3.896
  154SAPE     N17000   3.380   0.678   6.557
  154SAPE   HN117001   3.302   0.635   6.611
  154SAPE   HN217002   3.478   0.651   6.577
  154SAPE   HN317003   3.382   0.782   6.567
  154SAPE   C1217004   3.351   0.647   6.413
  154SAPE  H12A17005   3.243   0.625   6.398
  154SAPE  H12B17006   3.412   0.556   6.394
  154SAPE   C1117007   3.397   0.765   6.317
  154SAPE  H11A17008   3.333   0.853   6.333
  154SAPE  H11B17009   3.391   0.736   6.210
  154SAPE     P17010   3.649   0.761   6.265
  154SAPE   O1317011   3.767   0.840   6.310
  154SAPE   O1417012   3.651   0.613   6.291
  154SAPE   O1217013   3.526   0.818   6.344
  154SAPE   O1117014   3.624   0.783   6.114
  154SAPE    C117015   3.685   0.896   6.045
  154SAPE    HA17016   3.764   0.950   6.102
  154SAPE    HB17017   3.723   0.852   5.950
  154SAPE    C217018   3.564   0.991   6.009
  154SAPE    HS17019   3.503   1.012   6.100
  154SAPE   O2117020   3.479   0.929   5.916
  154SAPE   C2117021   3.359   0.980   5.900
  154SAPE   O2217022   3.314   1.074   5.965
  154SAPE   C2217023   3.295   0.921   5.778
  154SAPE   H2R17024   3.241   1.005   5.731
  154SAPE   H2S17025   3.369   0.896   5.699
  154SAPE    C317026   3.617   1.132   5.962
  154SAPE    HX17027   3.676   1.170   6.048
  154SAPE    HY17028   3.546   1.213   5.935
  154SAPE   O3117029   3.709   1.111   5.850
  154SAPE   C3117030   3.651   1.121   5.724
  154SAPE   O3217031   3.537   1.157   5.707
  154SAPE   C3217032   3.757   1.086   5.620
  154SAPE   H2X17033   3.806   0.990   5.648
  154SAPE   H2Y17034   3.835   1.164   5.634
  154SAPE   C2317035   3.208   0.801   5.816
  154SAPE   H3R17036   3.153   0.785   5.721
  154SAPE   H3S17037   3.139   0.821   5.901
  154SAPE   C2417038   3.282   0.671   5.820
  154SAPE   H4R17039   3.381   0.670   5.870
  154SAPE   H4S17040   3.303   0.648   5.714
  154SAPE   C2517041   3.203   0.555   5.879
  154SAPE   H5R17042   3.195   0.549   5.989
  154SAPE   C2617043   3.140   0.457   5.814
  154SAPE   H6R17044   3.091   0.370   5.861
  154SAPE   C2717045   3.143   0.431   5.665
  154SAPE   H7R17046   3.151   0.528   5.611
  154SAPE   H7S17047   3.043   0.390   5.637
  154SAPE   C2817048   3.262   0.347   5.610
  154SAPE   H8R17049   3.264   0.243   5.646
  154SAPE   C2917050   3.368   0.382   5.534
  154SAPE   H9R17051   3.445   0.304   5.524
  154SAPE  C21017052   3.401   0.511   5.470
  154SAPE  H10R17053   3.511   0.531   5.465
  154SAPE  H10S17054   3.363   0.593   5.534
  154SAPE  C21117055   3.350   0.535   5.332
  154SAPE  H11R17056   3.240   0.541   5.326
  154SAPE  C21217057   3.424   0.551   5.217
  154SAPE  H12R17058   3.361   0.567   5.128
  154SAPE  C21317059   3.576   0.549   5.193
  154SAPE  H13R17060   3.615   0.545   5.297
  154SAPE  H13S17061   3.605   0.647   5.148
  154SAPE  C21417062   3.618   0.433   5.105
  154SAPE  H14R17063   3.687   0.364   5.155
  154SAPE  C21517064   3.618   0.436   4.978
  154SAPE  H15R17065   3.652   0.344   4.928
  154SAPE  C21617066   3.559   0.537   4.884
  154SAPE  H16R17067   3.630   0.555   4.800
  154SAPE  H16S17068   3.560   0.637   4.934
  154SAPE  C21717069   3.428   0.480   4.826
  154SAPE  H17R17070   3.381   0.568   4.777
  154SAPE  H17S17071   3.360   0.445   4.907
  154SAPE  C21817072   3.440   0.374   4.712
  154SAPE  H18R17073   3.483   0.289   4.769
  154SAPE  H18S17074   3.508   0.420   4.636
  154SAPE  C21917075   3.306   0.339   4.633
  154SAPE  H19R17076   3.339   0.262   4.560
  154SAPE  H19S17077   3.266   0.422   4.570
  154SAPE  C22017078   3.206   0.276   4.719
  154SAPE  H20R17079   3.124   0.228   4.661
  154SAPE  H20S17080   3.165   0.345   4.794
  154SAPE  H20T17081   3.256   0.201   4.785
  154SAPE   C3317082   3.705   1.085   5.471
  154SAPE   H3X17083   3.800   1.094   5.416
  154SAPE   H3Y17084   3.648   1.180   5.459
  154SAPE   C3417085   3.610   0.958   5.443
  154SAPE   H4X17086   3.516   0.978   5.498
  154SAPE   H4Y17087   3.644   0.861   5.485
  154SAPE   C3517088   3.578   0.944   5.293
  154SAPE   H5X17089   3.646   0.867   5.253
  154SAPE   H5Y17090   3.607   1.039   5.244
  154SAPE   C3617091   3.435   0.913   5.272
  154SAPE   H6X17092   3.365   0.990   5.310
  154SAPE   H6Y17093   3.416   0.826   5.339
  154SAPE   C3717094   3.396   0.887   5.124
  154SAPE   H7X17095   3.461   0.803   5.093
  154SAPE   H7Y17096   3.411   0.972   5.055
  154SAPE   C3817097   3.248   0.832   5.106
  154SAPE   H8X17098   3.175   0.909   5.139
  154SAPE   H8Y17099   3.240   0.739   5.166
  154SAPE   C3917100   3.215   0.802   4.962
  154SAPE   H9X17101   3.303   0.750   4.916
  154SAPE   H9Y17102   3.193   0.902   4.921
  154SAPE  C31017103   3.102   0.698   4.960
  154SAPE  H10X17104   3.034   0.733   5.041
  154SAPE  H10Y17105   3.144   0.606   5.007
  154SAPE  C31117106   3.034   0.681   4.823
  154SAPE  H11X17107   3.112   0.656   4.748
  154SAPE  H11Y17108   2.976   0.767   4.783
  154SAPE  C31217109   2.927   0.568   4.831
  154SAPE  H12X17110   2.860   0.575   4.919
  154SAPE  H12Y17111   2.995   0.483   4.851
  154SAPE  C31317112   2.856   0.540   4.696
  154SAPE  H13X17113   2.923   0.562   4.610
  154SAPE  H13Y17114   2.772   0.613   4.693
  154SAPE  C31417115   2.789   0.404   4.683
  154SAPE  H14X17116   2.877   0.336   4.677
  154SAPE  H14Y17117   2.733   0.401   4.587
  154SAPE  C31517118   2.690   0.365   4.799
  154SAPE  H15X17119   2.615   0.447   4.802
  154SAPE  H15Y17120   2.744   0.361   4.895
  154SAPE  C31617121   2.623   0.230   4.775
  154SAPE  H16X17122   2.564   0.193   4.862
  154SAPE  H16Y17123   2.700   0.152   4.757
  154SAPE  C31717124   2.543   0.219   4.644
  154SAPE  H17X17125   2.511   0.113   4.636
  154SAPE  H17Y17126   2.600   0.233   4.549
  154SAPE  C31817127   2.414   0.302   4.626
  154SAPE  H18X17128   2.334   0.273   4.697
  154SAPE  H18Y17129   2.373   0.301   4.523
  154SAPE  H18Z17130   2.435   0.410   4.639
  155SAPE     N17131   4.719   5.975   6.627
  155SAPE   HN117132   4.632   5.920   6.635
  155SAPE   HN217133   4.797   5.906   6.623
  155SAPE   HN317134   4.736   6.035   6.711
  155SAPE   C1217135   4.715   6.057   6.504
  155SAPE  H12A17136   4.663   6.152   6.530
  155SAPE  H12B17137   4.657   6.009   6.422
  155SAPE   C1117138   4.860   6.090   6.451
  155SAPE  H11A17139   4.857   6.149   6.356
  155SAPE  H11B17140   4.905   5.990   6.440
  155SAPE     P17141   4.951   6.307   6.559
  155SAPE   O1317142   4.815   6.371   6.559
  155SAPE   O1417143   5.039   6.357   6.665
  155SAPE   O1217144   4.943   6.143   6.560
  155SAPE   O1117145   5.020   6.346   6.422
  155SAPE    C117146   5.139   6.274   6.385
  155SAPE    HA17147   5.226   6.311   6.443
  155SAPE    HB17148   5.124   6.165   6.402
  155SAPE    C217149   5.172   6.295   6.235
  155SAPE    HS17150   5.276   6.263   6.211
  155SAPE   O2117151   5.151   6.433   6.186
  155SAPE   C2117152   5.217   6.531   6.251
  155SAPE   O2217153   5.300   6.512   6.339
  155SAPE   C2217154   5.164   6.665   6.194
  155SAPE   H2R17155   5.057   6.665   6.224
  155SAPE   H2S17156   5.202   6.758   6.241
  155SAPE    C317157   5.074   6.216   6.140
  155SAPE    HX17158   4.973   6.254   6.165
  155SAPE    HY17159   5.085   6.111   6.176
  155SAPE   O3117160   5.112   6.239   5.999
  155SAPE   C3117161   5.214   6.176   5.954
  155SAPE   O3217162   5.267   6.079   6.011
  155SAPE   C3217163   5.256   6.233   5.825
  155SAPE   H2X17164   5.363   6.208   5.806
  155SAPE   H2Y17165   5.243   6.343   5.821
  155SAPE   C2317166   5.192   6.671   6.039
  155SAPE   H3R17167   5.125   6.748   5.996
  155SAPE   H3S17168   5.167   6.568   6.004
  155SAPE   C2417169   5.340   6.690   6.006
  155SAPE   H4R17170   5.350   6.654   5.902
  155SAPE   H4S17171   5.408   6.633   6.073
  155SAPE   C2517172   5.390   6.838   6.005
  155SAPE   H5R17173   5.472   6.861   6.074
  155SAPE   C2617174   5.366   0.025   5.905
  155SAPE   H6R17175   5.416   0.122   5.915
  155SAPE   C2717176   5.278   0.007   5.784
  155SAPE   H7R17177   5.172   0.036   5.800
  155SAPE   H7S17178   5.269   6.796   5.779
  155SAPE   C2817179   5.338   0.064   5.660
  155SAPE   H8R17180   5.445   0.089   5.656
  155SAPE   C2917181   5.270   0.065   5.545
  155SAPE   H9R17182   5.314   0.099   5.451
  155SAPE  C21017183   5.132   0.005   5.527
  155SAPE  H10R17184   5.050   0.068   5.567
  155SAPE  H10S17185   5.117   6.803   5.570
  155SAPE  C21117186   5.094   6.874   5.384
  155SAPE  H11R17187   5.063   6.769   5.373
  155SAPE  C21217188   5.081   0.050   5.277
  155SAPE  H12R17189   5.039   0.006   5.186
  155SAPE  C21317190   5.114   0.199   5.265
  155SAPE  H13R17191   5.171   0.224   5.357
  155SAPE  H13S17192   5.022   0.260   5.253
  155SAPE  C21417193   5.197   0.214   5.147
  155SAPE  H14R17194   5.302   0.182   5.156
  155SAPE  C21517195   5.162   0.270   5.025
  155SAPE  H15R17196   5.240   0.277   4.948
  155SAPE  C21617197   5.021   0.309   5.001
  155SAPE  H16R17198   4.988   0.401   5.053
  155SAPE  H16S17199   4.952   0.226   5.028
  155SAPE  C21717200   4.994   0.317   4.847
  155SAPE  H17R17201   5.049   0.234   4.798
  155SAPE  H17S17202   5.040   0.410   4.807
  155SAPE  C21817203   4.849   0.329   4.812
  155SAPE  H18R17204   4.813   0.424   4.856
  155SAPE  H18S17205   4.786   0.243   4.843
  155SAPE  C21917206   4.826   0.338   4.659
  155SAPE  H19R17207   4.718   0.315   4.644
  155SAPE  H19S17208   4.882   0.259   4.603
  155SAPE  C22017209   4.866   0.468   4.593
  155SAPE  H20R17210   4.838   0.456   4.486
  155SAPE  H20S17211   4.967   0.502   4.623
  155SAPE  H20T17212   4.805   0.554   4.629
  155SAPE   C3317213   5.174   6.178   5.706
  155SAPE   H3X17214   5.066   6.174   5.732
  155SAPE   H3Y17215   5.198   6.072   5.688
  155SAPE   C3417216   5.195   6.266   5.576
  155SAPE   H4X17217   5.302   6.251   5.553
  155SAPE   H4Y17218   5.181   6.374   5.596
  155SAPE   C3517219   5.108   6.240   5.462
  155SAPE   H5X17220   5.134   6.323   5.392
  155SAPE   H5Y17221   5.001   6.257   5.485
  155SAPE   C3617222   5.138   6.112   5.382
  155SAPE   H6X17223   5.124   6.030   5.456
  155SAPE   H6Y17224   5.247   6.106   5.365
  155SAPE   C3717225   5.060   6.093   5.249
  155SAPE   H7X17226   5.097   6.170   5.178
  155SAPE   H7Y17227   4.952   6.109   5.268
  155SAPE   C3817228   5.082   5.946   5.199
  155SAPE   H8X17229   5.012   5.872   5.242
  155SAPE   H8Y17230   5.186   5.915   5.222
  155SAPE   C3917231   5.049   5.957   5.049
  155SAPE   H9X17232   5.127   6.023   5.005
  155SAPE   H9Y17233   4.946   5.995   5.039
  155SAPE  C31017234   5.053   5.825   4.974
  155SAPE  H10X17235   4.979   5.749   5.007
  155SAPE  H10Y17236   5.151   5.780   5.002
  155SAPE  C31117237   5.040   5.840   4.818
  155SAPE  H11X17238   5.113   5.914   4.778
  155SAPE  H11Y17239   4.936   5.867   4.790
  155SAPE  C31217240   5.077   5.706   4.755
  155SAPE  H12X17241   5.015   5.630   4.808
  155SAPE  H12Y17242   5.181   5.687   4.789
  155SAPE  C31317243   5.056   5.711   4.602
  155SAPE  H13X17244   5.130   5.770   4.543
  155SAPE  H13Y17245   4.961   5.767   4.590
  155SAPE  C31417246   5.028   5.572   4.544
  155SAPE  H14X17247   5.031   5.571   4.433
  155SAPE  H14Y17248   4.931   5.542   4.589
  155SAPE  C31517249   5.136   5.471   4.579
  155SAPE  H15X17250   5.152   5.481   4.688
  155SAPE  H15Y17251   5.226   5.510   4.527
  155SAPE  C31617252   5.112   5.323   4.539
  155SAPE  H16X17253   5.105   5.311   4.429
  155SAPE  H16Y17254   5.008   5.308   4.573
  155SAPE  C31717255   5.224   5.232   4.588
  155SAPE  H17X17256   5.232   5.244   4.698
  155SAPE  H17Y17257   5.316   5.263   4.534
  155SAPE  C31817258   5.193   5.082   4.568
  155SAPE  H18X17259   5.288   5.025   4.583
  155SAPE  H18Y17260   5.157   5.080   4.463
  155SAPE  H18Z17261   5.122   5.045   4.645
  156SAPE     N17262   0.300   0.877   6.118
  156SAPE   HN117263   0.392   0.836   6.092
  156SAPE   HN217264   0.307   0.981   6.124
  156SAPE   HN317265   0.274   0.833   6.208
  156SAPE   C1217266   0.205   0.829   6.015
  156SAPE  H12A17267   0.234   0.726   5.985
  156SAPE  H12B17268   0.210   0.898   5.928
  156SAPE   C1117269   0.059   0.830   6.072
  156SAPE  H11A17270   6.883   0.827   5.990
  156SAPE  H11B17271   0.045   0.931   6.115
  156SAPE     P17272   6.787   0.658   6.180
  156SAPE   O1317273   6.782   0.552   6.285
  156SAPE   O1417274   6.689   0.769   6.204
  156SAPE   O1217275   0.037   0.722   6.169
  156SAPE   O1117276   6.767   0.586   6.042
  156SAPE    C117277   6.879   0.516   5.972
  156SAPE    HA17278   0.065   0.587   5.964
  156SAPE    HB17279   0.017   0.441   6.044
  156SAPE    C217280   6.833   0.448   5.841
  156SAPE    HS17281   0.023   0.405   5.791
  156SAPE   O2117282   6.790   0.547   5.752
  156SAPE   C2117283   6.859   0.646   5.709
  156SAPE   O2217284   0.079   0.660   5.719
  156SAPE   C2217285   6.755   0.739   5.642
  156SAPE   H2R17286   6.710   0.694   5.552
  156SAPE   H2S17287   6.675   0.749   5.718
  156SAPE    C317288   6.714   0.350   5.870
  156SAPE    HX17289   6.625   0.416   5.883
  156SAPE    HY17290   6.731   0.301   5.968
  156SAPE   O3117291   6.702   0.253   5.756
  156SAPE   C3117292   6.611   0.281   5.666
  156SAPE   O3217293   6.532   0.376   5.667
  156SAPE   C3217294   6.609   0.165   5.565
  156SAPE   H2X17295   6.510   0.174   5.517
  156SAPE   H2Y17296   6.617   0.078   5.634
  156SAPE   C2317297   6.813   0.881   5.600
  156SAPE   H3R17298   0.008   0.858   5.548
  156SAPE   H3S17299   6.837   0.948   5.685
  156SAPE   C2417300   6.722   0.948   5.506
  156SAPE   H4R17301   6.638   0.997   5.559
  156SAPE   H4S17302   6.671   0.872   5.444
  156SAPE   C2517303   6.778   1.054   5.414
  156SAPE   H5R17304   6.804   1.145   5.469
  156SAPE   C2617305   6.808   1.038   5.283
  156SAPE   H6R17306   6.832   1.125   5.221
  156SAPE   C2717307   6.786   0.918   5.196
  156SAPE   H7R17308   6.720   0.943   5.110
  156SAPE   H7S17309   6.727   0.836   5.243
  156SAPE   C2817310   0.009   0.857   5.139
  156SAPE   H8R17311   0.093   0.837   5.208
  156SAPE   C2917312   0.046   0.863   5.011
  156SAPE   H9R17313   0.137   0.812   4.978
  156SAPE  C21017314   6.850   0.888   4.894
  156SAPE  H10R17315   6.845   0.999   4.883
  156SAPE  H10S17316   6.744   0.862   4.914
  156SAPE  C21117317   6.898   0.816   4.768
  156SAPE  H11R17318   6.880   0.708   4.756
  156SAPE  C21217319   0.063   0.873   4.670
  156SAPE  H12R17320   0.084   0.816   4.578
  156SAPE  C21317321   0.108   1.025   4.674
  156SAPE  H13R17322   0.169   1.046   4.765
  156SAPE  H13S17323   0.021   1.093   4.688
  156SAPE  C21417324   0.195   1.066   4.564
  156SAPE  H14R17325   0.294   1.018   4.558
  156SAPE  C21517326   0.169   1.171   4.480
  156SAPE  H15R17327   0.244   1.202   4.406
  156SAPE  C21617328   0.054   1.256   4.479
  156SAPE  H16R17329   0.078   1.354   4.432
  156SAPE  H16S17330   0.012   1.283   4.578
  156SAPE  C21717331   6.832   1.182   4.415
  156SAPE  H17R17332   6.735   1.237   4.415
  156SAPE  H17S17333   6.809   1.091   4.474
  156SAPE  C21817334   6.860   1.158   4.267
  156SAPE  H18R17335   0.054   1.100   4.267
  156SAPE  H18S17336   6.885   1.252   4.213
  156SAPE  C21917337   6.753   1.076   4.200
  156SAPE  H19R17338   6.774   1.066   4.091
  156SAPE  H19S17339   6.652   1.120   4.211
  156SAPE  C22017340   6.751   0.929   4.258
  156SAPE  H20R17341   6.854   0.888   4.244
  156SAPE  H20S17342   6.675   0.874   4.198
  156SAPE  H20T17343   6.728   0.931   4.366
  156SAPE   C3317344   6.733   0.164   5.466
  156SAPE   H3X17345   6.748   0.076   5.400
  156SAPE   H3Y17346   6.823   0.177   5.531
  156SAPE   C3417347   6.715   0.292   5.379
  156SAPE   H4X17348   6.704   0.384   5.441
  156SAPE   H4Y17349   6.620   0.284   5.323
  156SAPE   C3517350   6.837   0.310   5.295
  156SAPE   H5X17351   6.867   0.217   5.243
  156SAPE   H5Y17352   0.019   0.359   5.352
  156SAPE   C3617353   6.817   0.421   5.186
  156SAPE   H6X17354   6.854   0.519   5.224
  156SAPE   H6Y17355   6.707   0.429   5.176
  156SAPE   C3717356   6.882   0.397   5.043
  156SAPE   H7X17357   6.827   0.452   4.964
  156SAPE   H7Y17358   6.887   0.287   5.027
  156SAPE   C3817359   0.130   0.443   5.035
  156SAPE   H8X17360   0.186   0.395   5.119
  156SAPE   H8Y17361   0.149   0.549   5.062
  156SAPE   C3917362   0.193   0.406   4.901
  156SAPE   H9X17363   0.116   0.403   4.820
  156SAPE   H9Y17364   0.248   0.310   4.915
  156SAPE  C31017365   0.283   0.520   4.859
  156SAPE  H10X17366   0.357   0.557   4.933
  156SAPE  H10Y17367   0.218   0.608   4.840
  156SAPE  C31117368   0.361   0.484   4.725
  156SAPE  H11X17369   0.291   0.451   4.645
  156SAPE  H11Y17370   0.423   0.392   4.729
  156SAPE  C31217371   0.438   0.608   4.683
  156SAPE  H12X17372   0.536   0.616   4.734
  156SAPE  H12Y17373   0.391   0.704   4.712
  156SAPE  C31317374   0.458   0.604   4.525
  156SAPE  H13X17375   0.354   0.597   4.485
  156SAPE  H13Y17376   0.507   0.508   4.500
  156SAPE  C31417377   0.535   0.716   4.462
  156SAPE  H14X17378   0.631   0.710   4.517
  156SAPE  H14Y17379   0.498   0.818   4.483
  156SAPE  C31517380   0.556   0.708   4.308
  156SAPE  H15X17381   0.620   0.620   4.287
  156SAPE  H15Y17382   0.599   0.806   4.278
  156SAPE  C31617383   0.423   0.682   4.233
  156SAPE  H16X17384   0.368   0.597   4.280
  156SAPE  H16Y17385   0.457   0.650   4.133
  156SAPE  C31717386   0.343   0.815   4.214
  156SAPE  H17X17387   0.414   0.891   4.176
  156SAPE  H17Y17388   0.313   0.870   4.306
  156SAPE  C31817389   0.223   0.791   4.136
  156SAPE  H18X17390   0.155   0.718   4.184
  156SAPE  H18Y17391   0.258   0.744   4.041
  156SAPE  H18Z17392   0.161   0.882   4.122
  157SAPE     N17393   0.386   6.433   6.637
  157SAPE   HN117394   0.419   6.531   6.624
  157SAPE   HN217395   0.391   6.406   6.738
  157SAPE   HN317396   0.450   6.368   6.587
  157SAPE   C1217397   0.246   6.425   6.573
  157SAPE  H12A17398   0.169   6.463   6.643
  157SAPE  H12B17399   0.233   6.318   6.544
  157SAPE   C1117400   0.245   6.500   6.435
  157SAPE  H11A17401   0.139   6.488   6.404
  157SAPE  H11B17402   0.301   6.449   6.354
  157SAPE     P17403   0.399   6.711   6.419
  157SAPE   O1317404   0.375   6.855   6.440
  157SAPE   O1417405   0.489   6.650   6.519
  157SAPE   O1217406   0.265   6.639   6.444
  157SAPE   O1117407   0.450   6.673   6.273
  157SAPE    C117408   0.362   6.682   6.162
  157SAPE    HA17409   0.404   6.612   6.086
  157SAPE    HB17410   0.264   6.639   6.193
  157SAPE    C217411   0.335   6.826   6.112
  157SAPE    HS17412   0.302   6.887   6.198
  157SAPE   O2117413   0.238   6.809   6.006
  157SAPE   C2117414   0.136   6.895   6.009
  157SAPE   O2217415   0.134   0.094   6.080
  157SAPE   C2217416   0.036   6.880   5.898
  157SAPE   H2R17417   0.026   6.774   5.865
  157SAPE   H2S17418   6.843   0.014   5.948
  157SAPE    C317419   0.462   6.885   6.049
  157SAPE    HX17420   0.544   6.873   6.124
  157SAPE    HY17421   0.442   0.092   6.024
  157SAPE   O3117422   0.504   6.810   5.934
  157SAPE   C3117423   0.554   6.872   5.833
  157SAPE   O3217424   0.585   0.091   5.824
  157SAPE   C3217425   0.574   6.770   5.720
  157SAPE   H2X17426   0.476   6.724   5.696
  157SAPE   H2Y17427   0.637   6.688   5.761
  157SAPE   C2317428   0.058   0.080   5.773
  157SAPE   H3R17429   0.051   0.190   5.790
  157SAPE   H3S17430   6.879   0.069   5.696
  157SAPE   C2417431   0.190   0.053   5.692
  157SAPE   H4R17432   0.170   6.867   5.625
  157SAPE   H4S17433   0.266   0.005   5.759
  157SAPE   C2517434   0.247   0.173   5.624
  157SAPE   H5R17435   0.273   0.251   5.697
  157SAPE   C2617436   0.261   0.184   5.490
  157SAPE   H6R17437   0.318   0.273   5.458
  157SAPE   C2717438   0.214   0.092   5.375
  157SAPE   H7R17439   0.183   0.154   5.288
  157SAPE   H7S17440   0.122   0.038   5.407
  157SAPE   C2817441   0.308   6.883   5.342
  157SAPE   H8R17442   0.305   6.804   5.418
  157SAPE   C2917443   0.376   6.859   5.231
  157SAPE   H9R17444   0.450   6.777   5.229
  157SAPE  C21017445   0.377   0.061   5.112
  157SAPE  H10R17446   0.482   0.088   5.085
  157SAPE  H10S17447   0.340   0.161   5.145
  157SAPE  C21117448   0.290   0.020   5.002
  157SAPE  H11R17449   0.182   0.026   5.021
  157SAPE  C21217450   0.324   6.873   4.884
  157SAPE  H12R17451   0.240   6.858   4.814
  157SAPE  C21317452   0.462   6.850   4.832
  157SAPE  H13R17453   0.463   6.766   4.760
  157SAPE  H13S17454   0.525   6.824   4.920
  157SAPE  C21417455   0.511   0.080   4.765
  157SAPE  H14R17456   0.559   0.152   4.832
  157SAPE  C21517457   0.482   0.127   4.643
  157SAPE  H15R17458   0.524   0.225   4.614
  157SAPE  C21617459   0.399   0.062   4.532
  157SAPE  H16R17460   0.392   6.852   4.545
  157SAPE  H16S17461   0.456   0.075   4.438
  157SAPE  C21717462   0.258   0.117   4.510
  157SAPE  H17R17463   0.208   0.145   4.605
  157SAPE  H17S17464   0.199   0.030   4.472
  157SAPE  C21817465   0.243   0.239   4.415
  157SAPE  H18R17466   0.303   0.213   4.325
  157SAPE  H18S17467   0.303   0.320   4.461
  157SAPE  C21917468   0.099   0.276   4.374
  157SAPE  H19R17469   0.038   0.299   4.465
  157SAPE  H19S17470   0.047   0.196   4.317
  157SAPE  C22017471   0.077   0.406   4.293
  157SAPE  H20R17472   0.138   0.490   4.333
  157SAPE  H20S17473   6.870   0.433   4.297
  157SAPE  H20T17474   0.115   0.385   4.191
  157SAPE   C3317475   0.652   6.831   5.610
  157SAPE   H3X17476   0.754   6.872   5.630
  157SAPE   H3Y17477   0.592   0.015   5.569
  157SAPE   C3417478   0.682   6.735   5.491
  157SAPE   H4X17479   0.593   6.673   5.468
  157SAPE   H4Y17480   0.749   6.656   5.533
  157SAPE   C3517481   0.729   6.825   5.370
  157SAPE   H5X17482   0.817   6.884   5.402
  157SAPE   H5Y17483   0.651   6.898   5.339
  157SAPE   C3617484   0.762   6.735   5.244
  157SAPE   H6X17485   0.666   6.690   5.212
  157SAPE   H6Y17486   0.847   6.670   5.273
  157SAPE   C3717487   0.806   6.829   5.130
  157SAPE   H7X17488   0.876   0.007   5.169
  157SAPE   H7Y17489   0.714   6.885   5.105
  157SAPE   C3817490   0.879   6.766   5.017
  157SAPE   H8X17491   0.823   6.690   4.958
  157SAPE   H8Y17492   0.969   6.713   5.057
  157SAPE   C3917493   0.938   6.882   4.930
  157SAPE   H9X17494   0.988   0.054   4.998
  157SAPE   H9Y17495   0.856   0.033   4.875
  157SAPE  C31017496   1.033   6.831   4.821
  157SAPE  H10X17497   1.119   6.782   4.872
  157SAPE  H10Y17498   1.086   0.013   4.769
  157SAPE  C31117499   0.971   6.751   4.710
  157SAPE  H11X17500   0.893   6.688   4.758
  157SAPE  H11Y17501   1.056   6.695   4.667
  157SAPE  C31217502   0.910   6.846   4.598
  157SAPE  H12X17503   0.990   0.019   4.572
  157SAPE  H12Y17504   0.822   0.001   4.638
  157SAPE  C31317505   0.874   6.772   4.469
  157SAPE  H13X17506   0.781   6.717   4.497
  157SAPE  H13Y17507   0.953   6.700   4.440
  157SAPE  C31417508   0.828   6.866   4.352
  157SAPE  H14X17509   0.891   0.056   4.370
  157SAPE  H14Y17510   0.718   6.883   4.362
  157SAPE  C31517511   0.873   6.806   4.219
  157SAPE  H15X17512   0.820   6.713   4.192
  157SAPE  H15Y17513   0.983   6.795   4.227
  157SAPE  C31617514   0.840   0.010   4.111
  157SAPE  H16X17515   0.888   0.107   4.135
  157SAPE  H16Y17516   0.733   0.038   4.113
  157SAPE  C31717517   0.875   6.867   3.965
  157SAPE  H17X17518   0.800   6.788   3.944
  157SAPE  H17Y17519   0.978   6.825   3.966
  157SAPE  C31817520   0.871   0.079   3.866
  157SAPE  H18X17521   0.953   0.150   3.890
  157SAPE  H18Y17522   0.779   0.141   3.866
  157SAPE  H18Z17523   0.888   0.039   3.763
  158SAPE     N17524   2.838   5.267   6.568
  158SAPE   HN117525   2.746   5.259   6.617
  158SAPE   HN217526   2.899   5.192   6.605
  158SAPE   HN317527   2.878   5.361   6.588
  158SAPE   C1217528   2.818   5.252   6.423
  158SAPE  H12A17529   2.722   5.304   6.400
  158SAPE  H12B17530   2.816   5.143   6.399
  158SAPE   C1117531   2.927   5.311   6.326
  158SAPE  H11A17532   2.916   5.264   6.226
  158SAPE  H11B17533   3.027   5.282   6.364
  158SAPE     P17534   2.989   5.547   6.422
  158SAPE   O1317535   2.924   5.510   6.550
  158SAPE   O1417536   3.136   5.533   6.421
  158SAPE   O1217537   2.923   5.455   6.312
  158SAPE   O1117538   2.950   5.700   6.405
  158SAPE    C117539   3.026   5.773   6.308
  158SAPE    HA17540   3.133   5.785   6.337
  158SAPE    HB17541   3.042   5.728   6.208
  158SAPE    C217542   2.966   5.912   6.289
  158SAPE    HS17543   2.976   5.965   6.386
  158SAPE   O2117544   2.827   5.888   6.267
  158SAPE   C2117545   2.755   5.999   6.288
  158SAPE   O2217546   2.797   6.100   6.338
  158SAPE   C2217547   2.611   5.974   6.248
  158SAPE   H2R17548   2.605   5.895   6.170
  158SAPE   H2S17549   2.553   5.944   6.338
  158SAPE    C317550   3.034   5.999   6.181
  158SAPE    HX17551   3.128   6.038   6.226
  158SAPE    HY17552   2.962   6.079   6.156
  158SAPE   O3117553   3.075   5.912   6.068
  158SAPE   C3117554   2.982   5.879   5.981
  158SAPE   O3217555   2.873   5.929   5.976
  158SAPE   C3217556   3.045   5.781   5.879
  158SAPE   H2X17557   3.128   5.728   5.930
  158SAPE   H2Y17558   3.094   5.847   5.805
  158SAPE   C2317559   2.549   6.094   6.172
  158SAPE   H3R17560   2.625   6.147   6.111
  158SAPE   H3S17561   2.519   6.175   6.241
  158SAPE   C2417562   2.439   6.062   6.069
  158SAPE   H4R17563   2.407   6.156   6.019
  158SAPE   H4S17564   2.362   6.010   6.130
  158SAPE   C2517565   2.479   5.964   5.960
  158SAPE   H5R17566   2.457   5.857   5.972
  158SAPE   C2617567   2.555   6.004   5.853
  158SAPE   H6R17568   2.583   5.923   5.783
  158SAPE   C2717569   2.608   6.140   5.811
  158SAPE   H7R17570   2.717   6.140   5.834
  158SAPE   H7S17571   2.568   6.223   5.872
  158SAPE   C2817572   2.589   6.153   5.662
  158SAPE   H8R17573   2.603   6.059   5.607
  158SAPE   C2917574   2.566   6.271   5.595
  158SAPE   H9R17575   2.547   6.266   5.486
  158SAPE  C21017576   2.569   6.408   5.665
  158SAPE  H10R17577   2.600   6.483   5.588
  158SAPE  H10S17578   2.639   6.406   5.751
  158SAPE  C21117579   2.438   6.449   5.735
  158SAPE  H11R17580   2.427   6.398   5.833
  158SAPE  C21217581   2.339   6.513   5.675
  158SAPE  H12R17582   2.254   6.543   5.739
  158SAPE  C21317583   2.329   6.581   5.540
  158SAPE  H13R17584   2.435   6.608   5.522
  158SAPE  H13S17585   2.279   6.678   5.559
  158SAPE  C21417586   2.273   6.510   5.418
  158SAPE  H14R17587   2.304   6.405   5.415
  158SAPE  C21517588   2.212   6.569   5.311
  158SAPE  H15R17589   2.172   6.498   5.237
  158SAPE  C21617590   2.191   6.717   5.281
  158SAPE  H16R17591   2.241   6.773   5.363
  158SAPE  H16S17592   2.083   6.742   5.281
  158SAPE  C21717593   2.237   6.759   5.142
  158SAPE  H17R17594   2.217   6.869   5.143
  158SAPE  H17S17595   2.181   6.723   5.054
  158SAPE  C21817596   2.386   6.746   5.118
  158SAPE  H18R17597   2.427   6.643   5.121
  158SAPE  H18S17598   2.446   6.792   5.200
  158SAPE  C21917599   2.428   6.810   4.983
  158SAPE  H19R17600   2.410   0.018   4.999
  158SAPE  H19S17601   2.372   6.772   4.895
  158SAPE  C22017602   2.580   6.797   4.962
  158SAPE  H20R17603   2.636   6.854   5.038
  158SAPE  H20S17604   2.597   6.824   4.856
  158SAPE  H20T17605   2.611   6.690   4.968
  158SAPE   C3317606   2.938   5.698   5.818
  158SAPE   H3X17607   2.862   5.662   5.891
  158SAPE   H3Y17608   2.976   5.603   5.776
  158SAPE   C3417609   2.870   5.782   5.705
  158SAPE   H4X17610   2.949   5.829   5.643
  158SAPE   H4Y17611   2.802   5.848   5.763
  158SAPE   C3517612   2.777   5.694   5.625
  158SAPE   H5X17613   2.713   5.640   5.698
  158SAPE   H5Y17614   2.834   5.635   5.550
  158SAPE   C3617615   2.679   5.772   5.524
  158SAPE   H6X17616   2.687   5.870   5.576
  158SAPE   H6Y17617   2.573   5.741   5.527
  158SAPE   C3717618   2.734   5.779   5.379
  158SAPE   H7X17619   2.730   5.672   5.349
  158SAPE   H7Y17620   2.837   5.818   5.368
  158SAPE   C3817621   2.654   5.867   5.289
  158SAPE   H8X17622   2.670   5.976   5.307
  158SAPE   H8Y17623   2.546   5.846   5.307
  158SAPE   C3917624   2.681   5.845   5.137
  158SAPE   H9X17625   2.791   5.856   5.123
  158SAPE   H9Y17626   2.625   5.919   5.075
  158SAPE  C31017627   2.649   5.709   5.081
  158SAPE  H10X17628   2.551   5.666   5.112
  158SAPE  H10Y17629   2.731   5.646   5.124
  158SAPE  C31117630   2.650   5.710   4.926
  158SAPE  H11X17631   2.735   5.762   4.878
  158SAPE  H11Y17632   2.559   5.754   4.880
  158SAPE  C31217633   2.647   5.571   4.854
  158SAPE  H12X17634   2.550   5.524   4.881
  158SAPE  H12Y17635   2.726   5.509   4.902
  158SAPE  C31317636   2.673   5.590   4.705
  158SAPE  H13X17637   2.758   5.660   4.690
  158SAPE  H13Y17638   2.585   5.647   4.668
  158SAPE  C31417639   2.720   5.472   4.626
  158SAPE  H14X17640   2.659   5.383   4.652
  158SAPE  H14Y17641   2.822   5.455   4.667
  158SAPE  C31517642   2.736   5.509   4.475
  158SAPE  H15X17643   2.779   5.611   4.464
  158SAPE  H15Y17644   2.632   5.511   4.435
  158SAPE  C31617645   2.819   5.420   4.375
  158SAPE  H16X17646   2.801   5.444   4.268
  158SAPE  H16Y17647   2.787   5.314   4.389
  158SAPE  C31717648   2.975   5.417   4.393
  158SAPE  H17X17649   3.012   5.385   4.293
  158SAPE  H17Y17650   3.002   5.336   4.465
  158SAPE  C31817651   3.029   5.554   4.423
  158SAPE  H18X17652   3.010   5.586   4.527
  158SAPE  H18Y17653   2.994   5.627   4.347
  158SAPE  H18Z17654   3.140   5.540   4.418
  159SAPE     N17655   4.984   2.881   2.380
  159SAPE   HN117656   5.023   2.814   2.310
  159SAPE   HN217657   5.061   2.950   2.395
  159SAPE   HN317658   4.964   2.830   2.468
  159SAPE   C1217659   4.857   2.947   2.324
  159SAPE  H12A17660   4.823   3.030   2.390
  159SAPE  H12B17661   4.783   2.865   2.315
  159SAPE   C1117662   4.893   3.022   2.196
  159SAPE  H11A17663   4.805   3.078   2.158
  159SAPE  H11B17664   4.906   2.944   2.117
  159SAPE     P17665   5.062   3.192   2.090
  159SAPE   O1317666   5.097   3.097   1.983
  159SAPE   O1417667   4.968   3.299   2.048
  159SAPE   O1217668   5.002   3.118   2.211
  159SAPE   O1117669   5.191   3.265   2.148
  159SAPE    C117670   5.298   3.185   2.196
  159SAPE    HA17671   5.273   3.077   2.201
  159SAPE    HB17672   5.386   3.181   2.128
  159SAPE    C217673   5.351   3.243   2.330
  159SAPE    HS17674   5.415   3.167   2.380
  159SAPE   O2117675   5.242   3.271   2.426
  159SAPE   C2117676   5.179   3.163   2.462
  159SAPE   O2217677   5.199   3.047   2.431
  159SAPE   C2217678   5.073   3.199   2.566
  159SAPE   H2R17679   4.994   3.242   2.501
  159SAPE   H2S17680   5.038   3.105   2.614
  159SAPE    C317681   5.430   3.370   2.296
  159SAPE    HX17682   5.361   3.451   2.262
  159SAPE    HY17683   5.502   3.349   2.214
  159SAPE   O3117684   5.496   3.413   2.411
  159SAPE   C3117685   5.580   3.513   2.391
  159SAPE   O3217686   5.610   3.554   2.280
  159SAPE   C3217687   5.643   3.562   2.521
  159SAPE   H2X17688   5.609   3.486   2.594
  159SAPE   H2Y17689   5.593   3.660   2.540
  159SAPE   C2317690   5.114   3.301   2.667
  159SAPE   H3R17691   5.137   3.396   2.614
  159SAPE   H3S17692   5.212   3.263   2.703
  159SAPE   C2417693   5.022   3.322   2.790
  159SAPE   H4R17694   4.927   3.365   2.753
  159SAPE   H4S17695   5.072   3.392   2.860
  159SAPE   C2517696   4.982   3.194   2.865
  159SAPE   H5R17697   4.982   3.099   2.810
  159SAPE   C2617698   4.968   3.195   3.000
  159SAPE   H6R17699   4.945   3.103   3.056
  159SAPE   C2717700   4.985   3.313   3.091
  159SAPE   H7R17701   4.960   3.411   3.044
  159SAPE   H7S17702   5.094   3.320   3.109
  159SAPE   C2817703   4.893   3.294   3.206
  159SAPE   H8R17704   4.791   3.332   3.187
  159SAPE   C2917705   4.919   3.238   3.325
  159SAPE   H9R17706   4.839   3.224   3.399
  159SAPE  C21017707   5.056   3.198   3.377
  159SAPE  H10R17708   5.120   3.205   3.286
  159SAPE  H10S17709   5.062   3.093   3.414
  159SAPE  C21117710   5.092   3.289   3.487
  159SAPE  H11R17711   5.149   3.379   3.459
  159SAPE  C21217712   5.042   3.299   3.610
  159SAPE  H12R17713   5.055   3.388   3.673
  159SAPE  C21317714   4.962   3.183   3.666
  159SAPE  H13R17715   4.891   3.128   3.600
  159SAPE  H13S17716   4.891   3.226   3.740
  159SAPE  C21417717   5.048   3.078   3.735
  159SAPE  H14R17718   5.060   2.985   3.676
  159SAPE  C21517719   5.127   3.096   3.843
  159SAPE  H15R17720   5.196   3.015   3.870
  159SAPE  C21617721   5.144   3.213   3.932
  159SAPE  H16R17722   5.049   3.269   3.923
  159SAPE  H16S17723   5.233   3.275   3.907
  159SAPE  C21717724   5.167   3.156   4.084
  159SAPE  H17R17725   5.169   3.243   4.154
  159SAPE  H17S17726   5.251   3.084   4.098
  159SAPE  C21817727   5.040   3.081   4.129
  159SAPE  H18R17728   5.024   2.992   4.064
  159SAPE  H18S17729   4.950   3.146   4.127
  159SAPE  C21917730   5.044   3.021   4.274
  159SAPE  H19R17731   5.114   3.071   4.344
  159SAPE  H19S17732   5.084   2.918   4.263
  159SAPE  C22017733   4.914   2.990   4.342
  159SAPE  H20R17734   4.922   2.925   4.432
  159SAPE  H20S17735   4.840   2.944   4.274
  159SAPE  H20T17736   4.868   3.088   4.369
  159SAPE   C3317737   5.799   3.568   2.506
  159SAPE   H3X17738   5.824   3.651   2.437
  159SAPE   H3Y17739   5.832   3.477   2.452
  159SAPE   C3417740   5.864   3.573   2.641
  159SAPE   H4X17741   5.973   3.561   2.623
  159SAPE   H4Y17742   5.830   3.494   2.711
  159SAPE   C3517743   5.851   3.706   2.713
  159SAPE   H5X17744   5.744   3.714   2.744
  159SAPE   H5Y17745   5.856   3.788   2.639
  159SAPE   C3617746   5.936   3.737   2.837
  159SAPE   H6X17747   5.922   3.670   2.925
  159SAPE   H6Y17748   5.900   3.835   2.875
  159SAPE   C3717749   6.086   3.748   2.803
  159SAPE   H7X17750   6.103   3.822   2.722
  159SAPE   H7Y17751   6.121   3.649   2.766
  159SAPE   C3817752   6.164   3.796   2.926
  159SAPE   H8X17753   6.196   3.709   2.986
  159SAPE   H8Y17754   6.115   3.875   2.987
  159SAPE   C3917755   6.305   3.849   2.889
  159SAPE   H9X17756   6.298   3.950   2.845
  159SAPE   H9Y17757   6.356   3.774   2.824
  159SAPE  C31017758   6.395   3.843   3.017
  159SAPE  H10X17759   6.399   3.736   3.045
  159SAPE  H10Y17760   6.340   3.900   3.095
  159SAPE  C31117761   6.539   3.878   2.994
  159SAPE  H11X17762   6.551   3.988   3.007
  159SAPE  H11Y17763   6.562   3.872   2.885
  159SAPE  C31217764   6.651   3.803   3.080
  159SAPE  H12X17765   6.747   3.831   3.033
  159SAPE  H12Y17766   6.628   3.697   3.056
  159SAPE  C31317767   6.640   3.824   3.226
  159SAPE  H13X17768   6.539   3.793   3.260
  159SAPE  H13Y17769   6.652   3.933   3.249
  159SAPE  C31417770   6.739   3.752   3.320
  159SAPE  H14X17771   6.838   3.793   3.289
  159SAPE  H14Y17772   6.725   3.643   3.304
  159SAPE  C31517773   6.727   3.790   3.468
  159SAPE  H15X17774   6.622   3.801   3.503
  159SAPE  H15Y17775   6.752   3.894   3.499
  159SAPE  C31617776   6.793   3.693   3.561
  159SAPE  H16X17777   0.003   3.696   3.543
  159SAPE  H16Y17778   6.752   3.592   3.542
  159SAPE  C31717779   6.765   3.729   3.711
  159SAPE  H17X17780   6.812   3.657   3.781
  159SAPE  H17Y17781   6.654   3.734   3.710
  159SAPE  C31817782   6.808   3.862   3.768
  159SAPE  H18X17783   6.753   3.878   3.863
  159SAPE  H18Y17784   6.784   3.945   3.698
  159SAPE  H18Z17785   0.017   3.861   3.786
  160SAPE     N17786   5.318   1.989   2.405
  160SAPE   HN117787   5.244   1.922   2.378
  160SAPE   HN217788   5.387   1.967   2.330
  160SAPE   HN317789   5.362   1.956   2.493
  160SAPE   C1217790   5.284   2.137   2.399
  160SAPE  H12A17791   5.224   2.147   2.305
  160SAPE  H12B17792   5.375   2.199   2.387
  160SAPE   C1117793   5.188   2.173   2.517
  160SAPE  H11A17794   5.162   2.280   2.507
  160SAPE  H11B17795   5.232   2.169   2.618
  160SAPE     P17796   4.945   2.117   2.423
  160SAPE   O1317797   4.957   2.249   2.361
  160SAPE   O1417798   4.916   2.002   2.332
  160SAPE   O1217799   5.072   2.090   2.512
  160SAPE   O1117800   4.834   2.118   2.529
  160SAPE    C117801   4.832   2.199   2.643
  160SAPE    HA17802   4.923   2.259   2.668
  160SAPE    HB17803   4.752   2.275   2.634
  160SAPE    C217804   4.805   2.110   2.766
  160SAPE    HS17805   4.805   2.174   2.856
  160SAPE   O2117806   4.902   2.006   2.768
  160SAPE   C2117807   5.018   2.055   2.810
  160SAPE   O2217808   5.043   2.169   2.845
  160SAPE   C2217809   5.119   1.943   2.792
  160SAPE   H2R17810   5.109   1.901   2.690
  160SAPE   H2S17811   5.222   1.986   2.788
  160SAPE    C317812   4.667   2.039   2.767
  160SAPE    HX17813   4.671   1.967   2.682
  160SAPE    HY17814   4.605   2.129   2.750
  160SAPE   O3117815   4.665   1.975   2.896
  160SAPE   C3117816   4.577   1.874   2.901
  160SAPE   O3217817   4.495   1.843   2.818
  160SAPE   C3217818   4.596   1.793   3.028
  160SAPE   H2X17819   4.562   1.851   3.117
  160SAPE   H2Y17820   4.704   1.769   3.037
  160SAPE   C2317821   5.104   1.835   2.908
  160SAPE   H3R17822   5.148   1.739   2.874
  160SAPE   H3S17823   4.994   1.819   2.917
  160SAPE   C2417824   5.152   1.882   3.043
  160SAPE   H4R17825   5.116   1.986   3.062
  160SAPE   H4S17826   5.263   1.886   3.040
  160SAPE   C2517827   5.109   1.781   3.148
  160SAPE   H5R17828   5.177   1.697   3.169
  160SAPE   C2617829   5.003   1.797   3.229
  160SAPE   H6R17830   4.988   1.717   3.303
  160SAPE   C2717831   4.902   1.908   3.231
  160SAPE   H7R17832   4.813   1.863   3.280
  160SAPE   H7S17833   4.879   1.938   3.127
  160SAPE   C2817834   4.942   2.026   3.308
  160SAPE   H8R17835   4.972   2.114   3.249
  160SAPE   C2917836   4.962   2.034   3.448
  160SAPE   H9R17837   5.004   2.126   3.491
  160SAPE  C21017838   4.945   1.939   3.567
  160SAPE  H10R17839   5.044   1.940   3.618
  160SAPE  H10S17840   4.894   1.845   3.535
  160SAPE  C21117841   4.841   1.999   3.652
  160SAPE  H11R17842   4.740   1.986   3.610
  160SAPE  C21217843   4.850   2.078   3.765
  160SAPE  H12R17844   4.760   2.128   3.803
  160SAPE  C21317845   4.979   2.116   3.833
  160SAPE  H13R17846   5.026   2.029   3.885
  160SAPE  H13S17847   4.936   2.182   3.912
  160SAPE  C21417848   5.073   2.208   3.754
  160SAPE  H14R17849   5.027   2.305   3.733
  160SAPE  C21517850   5.202   2.185   3.726
  160SAPE  H15R17851   5.258   2.253   3.660
  160SAPE  C21617852   5.279   2.068   3.784
  160SAPE  H16R17853   5.338   2.017   3.704
  160SAPE  H16S17854   5.213   1.993   3.834
  160SAPE  C21717855   5.385   2.105   3.887
  160SAPE  H17R17856   5.453   2.178   3.837
  160SAPE  H17S17857   5.452   2.022   3.918
  160SAPE  C21817858   5.339   2.163   4.019
  160SAPE  H18R17859   5.271   2.098   4.079
  160SAPE  H18S17860   5.302   2.264   3.992
  160SAPE  C21917861   5.453   2.181   4.118
  160SAPE  H19R17862   5.530   2.240   4.063
  160SAPE  H19S17863   5.504   2.083   4.130
  160SAPE  C22017864   5.423   2.225   4.261
  160SAPE  H20R17865   5.385   2.329   4.273
  160SAPE  H20S17866   5.515   2.215   4.322
  160SAPE  H20T17867   5.351   2.153   4.307
  160SAPE   C3317868   4.506   1.673   3.025
  160SAPE   H3X17869   4.514   1.603   2.938
  160SAPE   H3Y17870   4.396   1.688   3.032
  160SAPE   C3417871   4.533   1.580   3.140
  160SAPE   H4X17872   4.480   1.633   3.222
  160SAPE   H4Y17873   4.640   1.563   3.161
  160SAPE   C3517874   4.451   1.451   3.128
  160SAPE   H5X17875   4.479   1.378   3.049
  160SAPE   H5Y17876   4.349   1.490   3.109
  160SAPE   C3617877   4.456   1.379   3.262
  160SAPE   H6X17878   4.424   1.444   3.345
  160SAPE   H6Y17879   4.559   1.341   3.282
  160SAPE   C3717880   4.378   1.249   3.248
  160SAPE   H7X17881   4.423   1.192   3.164
  160SAPE   H7Y17882   4.273   1.276   3.222
  160SAPE   C3817883   4.382   1.152   3.370
  160SAPE   H8X17884   4.487   1.129   3.399
  160SAPE   H8Y17885   4.331   1.057   3.344
  160SAPE   C3917886   4.312   1.210   3.501
  160SAPE   H9X17887   4.208   1.224   3.462
  160SAPE   H9Y17888   4.357   1.310   3.519
  160SAPE  C31017889   4.310   1.121   3.621
  160SAPE  H10X17890   4.413   1.086   3.642
  160SAPE  H10Y17891   4.231   1.043   3.623
  160SAPE  C31117892   4.285   1.196   3.759
  160SAPE  H11X17893   4.193   1.259   3.754
  160SAPE  H11Y17894   4.367   1.262   3.793
  160SAPE  C31217895   4.282   1.097   3.882
  160SAPE  H12X17896   4.382   1.049   3.886
  160SAPE  H12Y17897   4.204   1.020   3.866
  160SAPE  C31317898   4.253   1.169   4.017
  160SAPE  H13X17899   4.150   1.210   4.008
  160SAPE  H13Y17900   4.311   1.263   4.018
  160SAPE  C31417901   4.248   1.076   4.142
  160SAPE  H14X17902   4.330   1.001   4.137
  160SAPE  H14Y17903   4.158   1.012   4.125
  160SAPE  C31517904   4.238   1.140   4.280
  160SAPE  H15X17905   4.168   1.226   4.273
  160SAPE  H15Y17906   4.334   1.190   4.304
  160SAPE  C31617907   4.196   1.041   4.389
  160SAPE  H16X17908   4.280   0.968   4.396
  160SAPE  H16Y17909   4.108   0.981   4.357
  160SAPE  C31717910   4.180   1.107   4.530
  160SAPE  H17X17911   4.077   1.146   4.543
  160SAPE  H17Y17912   4.244   1.198   4.542
  160SAPE  C31817913   4.217   1.013   4.645
  160SAPE  H18X17914   4.326   0.995   4.644
  160SAPE  H18Y17915   4.164   0.915   4.637
  160SAPE  H18Z17916   4.188   1.052   4.745
  161SAPE     N17917   2.614   3.800   2.025
  161SAPE   HN117918   2.641   3.901   2.025
  161SAPE   HN217919   2.551   3.778   2.105
  161SAPE   HN317920   2.699   3.743   2.039
  161SAPE   C1217921   2.556   3.757   1.894
  161SAPE  H12A17922   2.511   3.657   1.908
  161SAPE  H12B17923   2.632   3.747   1.813
  161SAPE   C1117924   2.447   3.854   1.842
  161SAPE  H11A17925   2.449   3.842   1.731
  161SAPE  H11B17926   2.471   3.959   1.868
  161SAPE     P17927   2.221   3.911   1.965
  161SAPE   O1317928   2.243   4.049   1.921
  161SAPE   O1417929   2.086   3.855   1.958
  161SAPE   O1217930   2.319   3.809   1.888
  161SAPE   O1117931   2.265   3.896   2.114
  161SAPE    C117932   2.191   3.977   2.204
  161SAPE    HA17933   2.093   4.017   2.171
  161SAPE    HB17934   2.183   3.923   2.301
  161SAPE    C217935   2.280   4.102   2.243
  161SAPE    HS17936   2.301   4.166   2.155
  161SAPE   O2117937   2.399   4.051   2.298
  161SAPE   C2117938   2.510   4.123   2.285
  161SAPE   O2217939   2.522   4.233   2.234
  161SAPE   C2217940   2.618   4.027   2.337
  161SAPE   H2R17941   2.580   3.990   2.435
  161SAPE   H2S17942   2.624   3.939   2.270
  161SAPE    C317943   2.211   4.196   2.347
  161SAPE    HX17944   2.127   4.253   2.303
  161SAPE    HY17945   2.288   4.273   2.368
  161SAPE   O3117946   2.177   4.126   2.465
  161SAPE   C3117947   2.232   4.156   2.589
  161SAPE   O3217948   2.321   4.235   2.601
  161SAPE   C3217949   2.142   4.097   2.697
  161SAPE   H2X17950   2.132   3.992   2.661
  161SAPE   H2Y17951   2.043   4.148   2.700
  161SAPE   C2317952   2.760   4.093   2.354
  161SAPE   H3R17953   2.792   4.123   2.252
  161SAPE   H3S17954   2.829   4.012   2.387
  161SAPE   C2417955   2.761   4.205   2.450
  161SAPE   H4R17956   2.687   4.278   2.411
  161SAPE   H4S17957   2.865   4.244   2.449
  161SAPE   C2517958   2.713   4.174   2.597
  161SAPE   H5R17959   2.624   4.222   2.640
  161SAPE   C2617960   2.791   4.108   2.685
  161SAPE   H6R17961   2.754   4.081   2.784
  161SAPE   C2717962   2.926   4.044   2.666
  161SAPE   H7R17963   2.996   4.129   2.654
  161SAPE   H7S17964   2.925   3.997   2.565
  161SAPE   C2817965   2.983   3.944   2.770
  161SAPE   H8R17966   3.000   3.844   2.728
  161SAPE   C2917967   2.979   3.941   2.900
  161SAPE   H9R17968   3.037   3.861   2.949
  161SAPE  C21017969   2.932   4.053   2.989
  161SAPE  H10R17970   2.824   4.043   3.010
  161SAPE  H10S17971   2.950   4.148   2.933
  161SAPE  C21117972   3.005   4.072   3.120
  161SAPE  H11R17973   3.114   4.059   3.114
  161SAPE  C21217974   2.961   4.066   3.251
  161SAPE  H12R17975   3.039   4.077   3.328
  161SAPE  C21317976   2.815   4.068   3.301
  161SAPE  H13R17977   2.743   4.085   3.217
  161SAPE  H13S17978   2.802   4.160   3.362
  161SAPE  C21417979   2.771   3.943   3.377
  161SAPE  H14R17980   2.762   3.854   3.312
  161SAPE  C21517981   2.750   3.931   3.510
  161SAPE  H15R17982   2.723   3.836   3.558
  161SAPE  C21617983   2.774   4.047   3.604
  161SAPE  H16R17984   2.721   4.135   3.562
  161SAPE  H16S17985   2.883   4.070   3.604
  161SAPE  C21717986   2.714   4.025   3.741
  161SAPE  H17R17987   2.792   3.972   3.801
  161SAPE  H17S17988   2.620   3.967   3.735
  161SAPE  C21817989   2.669   4.159   3.814
  161SAPE  H18R17990   2.571   4.173   3.764
  161SAPE  H18S17991   2.746   4.238   3.803
  161SAPE  C21917992   2.626   4.149   3.963
  161SAPE  H19R17993   2.583   4.249   3.985
  161SAPE  H19S17994   2.708   4.124   4.034
  161SAPE  C22017995   2.520   4.037   3.978
  161SAPE  H20R17996   2.565   3.938   3.958
  161SAPE  H20S17997   2.443   4.050   3.898
  161SAPE  H20T17998   2.479   4.042   4.082
  161SAPE   C3317999   2.200   4.103   2.843
  161SAPE   H3X18000   2.195   4.211   2.870
  161SAPE   H3Y18001   2.305   4.065   2.840
  161SAPE   C3418002   2.114   4.018   2.940
  161SAPE   H4X18003   2.174   3.979   3.025
  161SAPE   H4Y18004   2.085   3.919   2.898
  161SAPE   C3518005   1.974   4.090   2.979
  161SAPE   H5X18006   1.899   4.112   2.900
  161SAPE   H5Y18007   2.012   4.181   3.030
  161SAPE   C3618008   1.901   4.016   3.091
  161SAPE   H6X18009   1.916   3.907   3.080
  161SAPE   H6Y18010   1.794   4.026   3.066
  161SAPE   C3718011   1.950   4.062   3.236
  161SAPE   H7X18012   1.938   4.173   3.236
  161SAPE   H7Y18013   2.060   4.047   3.243
  161SAPE   C3818014   1.863   3.999   3.343
  161SAPE   H8X18015   1.905   3.896   3.347
  161SAPE   H8Y18016   1.755   3.992   3.315
  161SAPE   C3918017   1.882   4.066   3.481
  161SAPE   H9X18018   1.820   4.157   3.476
  161SAPE   H9Y18019   1.987   4.100   3.490
  161SAPE  C31018020   1.818   3.978   3.594
  161SAPE  H10X18021   1.862   3.876   3.597
  161SAPE  H10Y18022   1.711   3.954   3.577
  161SAPE  C31118023   1.835   4.044   3.729
  161SAPE  H11X18024   1.810   4.151   3.718
  161SAPE  H11Y18025   1.942   4.053   3.757
  161SAPE  C31218026   1.739   3.986   3.829
  161SAPE  H12X18027   1.769   3.883   3.856
  161SAPE  H12Y18028   1.648   3.985   3.765
  161SAPE  C31318029   1.701   4.074   3.945
  161SAPE  H13X18030   1.786   4.081   4.017
  161SAPE  H13Y18031   1.620   4.027   4.004
  161SAPE  C31418032   1.638   4.210   3.900
  161SAPE  H14X18033   1.571   4.199   3.812
  161SAPE  H14Y18034   1.720   4.272   3.859
  161SAPE  C31518035   1.556   4.279   4.006
  161SAPE  H15X18036   1.625   4.311   4.087
  161SAPE  H15Y18037   1.481   4.215   4.057
  161SAPE  C31618038   1.487   4.398   3.951
  161SAPE  H16X18039   1.428   4.369   3.862
  161SAPE  H16Y18040   1.560   4.475   3.917
  161SAPE  C31718041   1.392   4.453   4.064
  161SAPE  H17X18042   1.456   4.474   4.152
  161SAPE  H17Y18043   1.321   4.373   4.097
  161SAPE  C31818044   1.316   4.583   4.017
  161SAPE  H18X18045   1.266   4.574   3.919
  161SAPE  H18Y18046   1.392   4.664   4.016
  161SAPE  H18Z18047   1.233   4.597   4.089
  162SAPE     N18048   2.038   0.366   2.306
  162SAPE   HN118049   2.104   0.392   2.230
  162SAPE   HN218050   1.958   0.318   2.261
  162SAPE   HN318051   1.997   0.453   2.345
  162SAPE   C1218052   2.104   0.278   2.412
  162SAPE  H12A18053   2.096   0.171   2.382
  162SAPE  H12B18054   2.028   0.279   2.493
  162SAPE   C1118055   2.249   0.331   2.435
  162SAPE  H11A18056   2.304   0.263   2.504
  162SAPE  H11B18057   2.251   0.430   2.484
  162SAPE     P18058   2.388   0.214   2.246
  162SAPE   O1318059   2.280   0.132   2.198
  162SAPE   O1418060   2.494   0.245   2.146
  162SAPE   O1218061   2.317   0.347   2.308
  162SAPE   O1118062   2.450   0.139   2.371
  162SAPE    C118063   2.450   6.900   2.384
  162SAPE    HA18064   2.372   6.850   2.323
  162SAPE    HB18065   2.551   6.871   2.347
  162SAPE    C218066   2.434   6.867   2.531
  162SAPE    HS18067   2.458   6.759   2.547
  162SAPE   O2118068   2.304   0.004   2.562
  162SAPE   C2118069   2.240   6.818   2.638
  162SAPE   O2218070   2.273   6.705   2.668
  162SAPE   C2218071   2.107   6.878   2.677
  162SAPE   H2R18072   2.112   0.086   2.653
  162SAPE   H2S18073   2.025   6.836   2.616
  162SAPE    C318074   2.539   0.035   2.627
  162SAPE    HX18075   2.503   0.138   2.647
  162SAPE    HY18076   2.637   0.036   2.575
  162SAPE   O3118077   2.548   6.869   2.755
  162SAPE   C3118078   2.642   0.027   2.835
  162SAPE   O3218079   2.706   0.125   2.800
  162SAPE   C3218080   2.639   6.860   2.976
  162SAPE   H2X18081   2.578   6.767   2.976
  162SAPE   H2Y18082   2.581   0.033   3.035
  162SAPE   C2318083   2.085   6.866   2.832
  162SAPE   H3R18084   2.182   6.890   2.880
  162SAPE   H3S18085   2.078   6.756   2.844
  162SAPE   C2418086   1.962   0.044   2.886
  162SAPE   H4R18087   1.871   0.014   2.831
  162SAPE   H4S18088   1.975   0.153   2.865
  162SAPE   C2518089   1.957   0.017   3.037
  162SAPE   H5R18090   2.048   0.032   3.097
  162SAPE   C2618091   1.841   6.883   3.111
  162SAPE   H6R18092   1.847   6.873   3.221
  162SAPE   C2718093   1.702   6.860   3.059
  162SAPE   H7R18094   1.682   6.755   3.092
  162SAPE   H7S18095   1.693   6.867   2.948
  162SAPE   C2818096   1.585   0.038   3.114
  162SAPE   H8R18097   1.532   0.081   3.028
  162SAPE   C2918098   1.543   0.032   3.241
  162SAPE   H9R18099   1.442   0.072   3.258
  162SAPE  C21018100   1.598   6.864   3.361
  162SAPE  H10R18101   1.633   6.764   3.327
  162SAPE  H10S18102   1.508   6.838   3.420
  162SAPE  C21118103   1.710   0.029   3.441
  162SAPE  H11R18104   1.759   0.114   3.392
  162SAPE  C21218105   1.756   6.897   3.569
  162SAPE  H12R18106   1.843   0.057   3.598
  162SAPE  C21318107   1.711   6.793   3.667
  162SAPE  H13R18108   1.639   6.730   3.611
  162SAPE  H13S18109   1.639   6.843   3.735
  162SAPE  C21418110   1.819   6.719   3.746
  162SAPE  H14R18111   1.861   6.635   3.689
  162SAPE  C21518112   1.877   6.752   3.864
  162SAPE  H15R18113   1.950   6.678   3.901
  162SAPE  C21618114   1.863   6.871   3.958
  162SAPE  H16R18115   1.868   6.828   4.061
  162SAPE  H16S18116   1.764   0.021   3.950
  162SAPE  C21718117   1.973   0.082   3.979
  162SAPE  H17R18118   1.953   0.173   3.918
  162SAPE  H17S18119   2.073   0.042   3.950
  162SAPE  C21818120   1.982   0.119   4.128
  162SAPE  H18R18121   2.003   0.036   4.199
  162SAPE  H18S18122   1.889   0.174   4.155
  162SAPE  C21918123   2.096   0.223   4.144
  162SAPE  H19R18124   2.096   0.303   4.067
  162SAPE  H19S18125   2.193   0.169   4.134
  162SAPE  C22018126   2.098   0.290   4.282
  162SAPE  H20R18127   2.093   0.215   4.364
  162SAPE  H20S18128   2.003   0.348   4.287
  162SAPE  H20T18129   2.182   0.359   4.308
  162SAPE   C3318130   2.782   6.846   3.035
  162SAPE   H3X18131   2.836   0.042   3.033
  162SAPE   H3Y18132   2.835   6.772   2.972
  162SAPE   C3418133   2.780   6.789   3.174
  162SAPE   H4X18134   2.694   6.822   3.236
  162SAPE   H4Y18135   2.876   6.809   3.226
  162SAPE   C3518136   2.769   6.638   3.164
  162SAPE   H5X18137   2.872   6.597   3.154
  162SAPE   H5Y18138   2.717   6.603   3.072
  162SAPE   C3618139   2.714   6.577   3.291
  162SAPE   H6X18140   2.613   6.614   3.318
  162SAPE   H6Y18141   2.786   6.605   3.371
  162SAPE   C3718142   2.731   6.425   3.301
  162SAPE   H7X18143   2.832   6.385   3.284
  162SAPE   H7Y18144   2.682   6.378   3.213
  162SAPE   C3818145   2.692   6.359   3.434
  162SAPE   H8X18146   2.677   6.250   3.417
  162SAPE   H8Y18147   2.595   6.411   3.449
  162SAPE   C3918148   2.765   6.397   3.563
  162SAPE   H9X18149   2.767   6.508   3.566
  162SAPE   H9Y18150   2.866   6.351   3.559
  162SAPE  C31018151   2.686   6.347   3.686
  162SAPE  H10X18152   2.663   6.240   3.668
  162SAPE  H10Y18153   2.592   6.407   3.688
  162SAPE  C31118154   2.764   6.345   3.819
  162SAPE  H11X18155   2.774   6.449   3.855
  162SAPE  H11Y18156   2.864   6.297   3.826
  162SAPE  C31218157   2.677   6.267   3.924
  162SAPE  H12X18158   2.739   6.231   4.009
  162SAPE  H12Y18159   2.633   6.181   3.870
  162SAPE  C31318160   2.556   6.334   3.986
  162SAPE  H13X18161   2.486   6.362   3.904
  162SAPE  H13Y18162   2.584   6.425   4.044
  162SAPE  C31418163   2.496   6.233   4.083
  162SAPE  H14X18164   2.568   6.170   4.140
  162SAPE  H14Y18165   2.433   6.158   4.031
  162SAPE  C31518166   2.415   6.306   4.188
  162SAPE  H15X18167   2.480   6.392   4.214
  162SAPE  H15Y18168   2.404   6.238   4.275
  162SAPE  C31618169   2.278   6.356   4.153
  162SAPE  H16X18170   2.219   6.266   4.122
  162SAPE  H16Y18171   2.288   6.424   4.066
  162SAPE  C31718172   2.199   6.412   4.270
  162SAPE  H17X18173   2.246   6.509   4.299
  162SAPE  H17Y18174   2.212   6.347   4.359
  162SAPE  C31818175   2.051   6.436   4.241
  162SAPE  H18X18176   1.991   6.342   4.237
  162SAPE  H18Y18177   2.038   6.478   4.140
  162SAPE  H18Z18178   2.000   6.502   4.315
  163SAPE     N18179   1.269   3.037   1.980
  163SAPE   HN118180   1.343   3.022   1.908
  163SAPE   HN218181   1.225   3.129   1.962
  163SAPE   HN318182   1.318   3.030   2.072
  163SAPE   C1218183   1.175   2.923   1.968
  163SAPE  H12A18184   1.240   2.838   1.997
  163SAPE  H12B18185   1.143   2.912   1.862
  163SAPE   C1118186   1.056   2.954   2.055
  163SAPE  H11A18187   1.069   2.939   2.164
  163SAPE  H11B18188   0.980   2.881   2.019
  163SAPE     P18189   0.901   3.150   2.122
  163SAPE   O1318190   0.886   3.292   2.085
  163SAPE   O1418191   0.782   3.062   2.120
  163SAPE   O1218192   1.005   3.086   2.023
  163SAPE   O1118193   0.975   3.158   2.263
  163SAPE    C118194   1.114   3.194   2.270
  163SAPE    HA18195   1.173   3.119   2.327
  163SAPE    HB18196   1.155   3.229   2.173
  163SAPE    C218197   1.130   3.330   2.344
  163SAPE    HS18198   1.093   3.411   2.278
  163SAPE   O2118199   1.262   3.354   2.401
  163SAPE   C2118200   1.350   3.409   2.314
  163SAPE   O2218201   1.319   3.434   2.200
  163SAPE   C2218202   1.478   3.444   2.388
  163SAPE   H2R18203   1.475   3.393   2.487
  163SAPE   H2S18204   1.567   3.416   2.329
  163SAPE    C318205   1.030   3.334   2.465
  163SAPE    HX18206   1.047   3.239   2.520
  163SAPE    HY18207   0.925   3.322   2.431
  163SAPE   O3118208   1.054   3.449   2.554
  163SAPE   C3118209   1.034   3.421   2.688
  163SAPE   O3218210   0.988   3.321   2.733
  163SAPE   C3218211   1.065   3.538   2.773
  163SAPE   H2X18212   0.978   3.604   2.793
  163SAPE   H2Y18213   1.129   3.601   2.708
  163SAPE   C2318214   1.478   3.601   2.409
  163SAPE   H3R18215   1.463   3.653   2.312
  163SAPE   H3S18216   1.578   3.617   2.454
  163SAPE   C2418217   1.380   3.653   2.516
  163SAPE   H4R18218   1.430   3.635   2.613
  163SAPE   H4S18219   1.288   3.592   2.498
  163SAPE   C2518220   1.360   3.800   2.488
  163SAPE   H5R18221   1.394   3.832   2.388
  163SAPE   C2618222   1.296   3.898   2.559
  163SAPE   H6R18223   1.299   4.001   2.521
  163SAPE   C2718224   1.240   3.892   2.701
  163SAPE   H7R18225   1.300   3.963   2.760
  163SAPE   H7S18226   1.275   3.799   2.752
  163SAPE   C2818227   1.093   3.929   2.719
  163SAPE   H8R18228   1.022   3.923   2.635
  163SAPE   C2918229   1.044   3.983   2.834
  163SAPE   H9R18230   0.946   4.035   2.834
  163SAPE  C21018231   1.120   3.994   2.963
  163SAPE  H10R18232   1.104   4.096   3.006
  163SAPE  H10S18233   1.228   3.969   2.955
  163SAPE  C21118234   1.071   3.885   3.056
  163SAPE  H11R18235   1.024   3.796   3.012
  163SAPE  C21218236   1.070   3.888   3.191
  163SAPE  H12R18237   1.052   3.794   3.243
  163SAPE  C21318238   1.130   4.005   3.272
  163SAPE  H13R18239   1.220   4.038   3.216
  163SAPE  H13S18240   1.166   3.963   3.368
  163SAPE  C21418241   1.038   4.118   3.295
  163SAPE  H14R18242   1.036   4.191   3.213
  163SAPE  C21518243   0.960   4.132   3.404
  163SAPE  H15R18244   0.891   4.216   3.413
  163SAPE  C21618245   0.965   4.042   3.529
  163SAPE  H16R18246   1.024   4.090   3.610
  163SAPE  H16S18247   1.030   3.953   3.511
  163SAPE  C21718248   0.833   3.983   3.583
  163SAPE  H17R18249   0.802   3.896   3.521
  163SAPE  H17S18250   0.758   4.063   3.567
  163SAPE  C21818251   0.839   3.955   3.730
  163SAPE  H18R18252   0.847   4.046   3.793
  163SAPE  H18S18253   0.932   3.898   3.750
  163SAPE  C21918254   0.720   3.882   3.785
  163SAPE  H19R18255   0.723   3.872   3.895
  163SAPE  H19S18256   0.708   3.778   3.750
  163SAPE  C22018257   0.586   3.947   3.744
  163SAPE  H20R18258   0.568   3.951   3.634
  163SAPE  H20S18259   0.587   4.055   3.773
  163SAPE  H20T18260   0.496   3.893   3.780
  163SAPE   C3318261   1.129   3.497   2.906
  163SAPE   H3X18262   1.192   3.585   2.934
  163SAPE   H3Y18263   1.198   3.413   2.888
  163SAPE   C3418264   1.025   3.469   3.018
  163SAPE   H4X18265   0.963   3.379   3.000
  163SAPE   H4Y18266   0.958   3.557   3.020
  163SAPE   C3518267   1.080   3.474   3.158
  163SAPE   H5X18268   1.154   3.554   3.180
  163SAPE   H5Y18269   1.135   3.380   3.182
  163SAPE   C3618270   0.969   3.484   3.268
  163SAPE   H6X18271   0.903   3.398   3.243
  163SAPE   H6Y18272   0.901   3.570   3.248
  163SAPE   C3718273   1.018   3.477   3.413
  163SAPE   H7X18274   1.074   3.568   3.444
  163SAPE   H7Y18275   1.091   3.393   3.420
  163SAPE   C3818276   0.910   3.453   3.519
  163SAPE   H8X18277   0.844   3.364   3.506
  163SAPE   H8Y18278   0.844   3.541   3.529
  163SAPE   C3918279   0.960   3.430   3.667
  163SAPE   H9X18280   1.016   3.519   3.702
  163SAPE   H9Y18281   1.022   3.339   3.652
  163SAPE  C31018282   0.862   3.406   3.774
  163SAPE  H10X18283   0.800   3.498   3.769
  163SAPE  H10Y18284   0.911   3.389   3.873
  163SAPE  C31118285   0.762   3.290   3.742
  163SAPE  H11X18286   0.826   3.212   3.694
  163SAPE  H11Y18287   0.686   3.322   3.667
  163SAPE  C31218288   0.706   3.220   3.868
  163SAPE  H12X18289   0.779   3.220   3.951
  163SAPE  H12Y18290   0.696   3.112   3.847
  163SAPE  C31318291   0.578   3.279   3.926
  163SAPE  H13X18292   0.493   3.261   3.857
  163SAPE  H13Y18293   0.592   3.389   3.939
  163SAPE  C31418294   0.545   3.213   4.061
  163SAPE  H14X18295   0.470   3.284   4.103
  163SAPE  H14Y18296   0.640   3.211   4.120
  163SAPE  C31518297   0.475   3.079   4.057
  163SAPE  H15X18298   0.554   3.004   4.036
  163SAPE  H15Y18299   0.391   3.074   3.985
  163SAPE  C31618300   0.408   3.032   4.194
  163SAPE  H16X18301   0.372   2.930   4.171
  163SAPE  H16Y18302   0.340   3.117   4.219
  163SAPE  C31718303   0.506   3.042   4.315
  163SAPE  H17X18304   0.556   3.139   4.336
  163SAPE  H17Y18305   0.584   2.966   4.294
  163SAPE  C31818306   0.434   3.011   4.444
  163SAPE  H18X18307   0.501   3.010   4.532
  163SAPE  H18Y18308   0.392   2.908   4.433
  163SAPE  H18Z18309   0.355   3.084   4.469
  164SAPE     N18310   6.816   3.984   2.093
  164SAPE   HN118311   6.861   3.989   1.999
  164SAPE   HN218312   6.886   3.934   2.151
  164SAPE   HN318313   6.726   3.932   2.086
  164SAPE   C1218314   6.774   4.127   2.138
  164SAPE  H12A18315   6.707   4.117   2.226
  164SAPE  H12B18316   6.717   4.169   2.053
  164SAPE   C1118317   6.895   4.219   2.175
  164SAPE  H11A18318   0.066   4.183   2.253
  164SAPE  H11B18319   6.854   4.313   2.218
  164SAPE     P18320   0.048   4.337   1.950
  164SAPE   O1318321   0.163   4.355   1.855
  164SAPE   O1418322   6.823   4.295   1.888
  164SAPE   O1218323   0.080   4.229   2.058
  164SAPE   O1118324   0.027   4.466   2.033
  164SAPE    C118325   0.139   4.547   2.080
  164SAPE    HA18326   0.214   4.496   2.144
  164SAPE    HB18327   0.202   4.586   1.998
  164SAPE    C218328   0.090   4.676   2.149
  164SAPE    HS18329   0.186   4.728   2.168
  164SAPE   O2118330   0.017   4.650   2.271
  164SAPE   C2118331   0.090   4.619   2.379
  164SAPE   O2218332   0.213   4.597   2.380
  164SAPE   C2218333   6.890   4.590   2.489
  164SAPE   H2R18334   6.808   4.662   2.468
  164SAPE   H2S18335   6.850   4.487   2.492
  164SAPE    C318336   6.887   4.756   2.065
  164SAPE    HX18337   6.807   4.683   2.038
  164SAPE    HY18338   0.040   4.782   1.972
  164SAPE   O3118339   6.836   4.876   2.130
  164SAPE   C3118340   6.718   4.882   2.186
  164SAPE   O3218341   6.635   4.793   2.192
  164SAPE   C3218342   6.710   5.019   2.244
  164SAPE   H2X18343   6.674   5.090   2.166
  164SAPE   H2Y18344   6.811   5.037   2.286
  164SAPE   C2318345   0.057   4.617   2.623
  164SAPE   H3R18346   0.045   4.725   2.645
  164SAPE   H3S18347   0.165   4.590   2.616
  164SAPE   C2418348   0.005   4.529   2.742
  164SAPE   H4R18349   0.092   4.533   2.811
  164SAPE   H4S18350   0.006   4.426   2.701
  164SAPE   C2518351   6.768   4.559   2.798
  164SAPE   H5R18352   6.680   4.535   2.736
  164SAPE   C2618353   6.742   4.619   2.917
  164SAPE   H6R18354   6.637   4.634   2.946
  164SAPE   C2718355   6.845   4.657   3.014
  164SAPE   H7R18356   6.799   4.742   3.068
  164SAPE   H7S18357   0.038   4.679   2.958
  164SAPE   C2818358   6.865   4.542   3.119
  164SAPE   H8R18359   0.039   4.468   3.085
  164SAPE   C2918360   6.796   4.530   3.236
  164SAPE   H9R18361   6.805   4.436   3.292
  164SAPE  C21018362   6.680   4.615   3.286
  164SAPE  H10R18363   6.602   4.608   3.208
  164SAPE  H10S18364   6.697   4.724   3.295
  164SAPE  C21118365   6.614   4.584   3.416
  164SAPE  H11R18366   6.515   4.540   3.403
  164SAPE  C21218367   6.671   4.571   3.536
  164SAPE  H12R18368   6.605   4.549   3.622
  164SAPE  C21318369   6.808   4.598   3.569
  164SAPE  H13R18370   6.859   4.630   3.476
  164SAPE  H13S18371   6.849   4.499   3.598
  164SAPE  C21418372   6.810   4.706   3.675
  164SAPE  H14R18373   6.804   4.810   3.638
  164SAPE  C21518374   6.832   4.692   3.807
  164SAPE  H15R18375   6.818   4.787   3.860
  164SAPE  C21618376   6.843   4.560   3.888
  164SAPE  H16R18377   0.035   4.565   3.950
  164SAPE  H16S18378   6.859   4.468   3.827
  164SAPE  C21718379   6.721   4.556   3.989
  164SAPE  H17R18380   6.720   4.454   4.033
  164SAPE  H17S18381   6.624   4.563   3.934
  164SAPE  C21818382   6.718   4.647   4.110
  164SAPE  H18R18383   6.729   4.753   4.080
  164SAPE  H18S18384   6.809   4.626   4.169
  164SAPE  C21918385   6.599   4.623   4.198
  164SAPE  H19R18386   6.608   4.524   4.247
  164SAPE  H19S18387   6.513   4.621   4.128
  164SAPE  C22018388   6.569   4.730   4.307
  164SAPE  H20R18389   6.652   4.753   4.378
  164SAPE  H20S18390   6.481   4.703   4.370
  164SAPE  H20T18391   6.545   4.821   4.249
  164SAPE   C3318392   6.606   5.023   2.354
  164SAPE   H3X18393   6.501   5.011   2.320
  164SAPE   H3Y18394   6.603   5.125   2.398
  164SAPE   C3418395   6.638   4.941   2.484
  164SAPE   H4X18396   6.729   4.976   2.537
  164SAPE   H4Y18397   6.661   4.837   2.451
  164SAPE   C3518398   6.520   4.941   2.574
  164SAPE   H5X18399   6.422   4.919   2.528
  164SAPE   H5Y18400   6.503   5.047   2.601
  164SAPE   C3618401   6.533   4.846   2.694
  164SAPE   H6X18402   6.636   4.832   2.733
  164SAPE   H6Y18403   6.504   4.744   2.660
  164SAPE   C3718404   6.441   4.902   2.809
  164SAPE   H7X18405   6.336   4.917   2.778
  164SAPE   H7Y18406   6.477   5.005   2.828
  164SAPE   C3818407   6.435   4.808   2.928
  164SAPE   H8X18408   6.536   4.815   2.975
  164SAPE   H8Y18409   6.415   4.701   2.906
  164SAPE   C3918410   6.334   4.852   3.042
  164SAPE   H9X18411   6.242   4.790   3.035
  164SAPE   H9Y18412   6.304   4.959   3.033
  164SAPE  C31018413   6.390   4.821   3.177
  164SAPE  H10X18414   6.497   4.850   3.183
  164SAPE  H10Y18415   6.387   4.711   3.193
  164SAPE  C31118416   6.332   4.888   3.301
  164SAPE  H11X18417   6.351   4.817   3.384
  164SAPE  H11Y18418   6.221   4.890   3.287
  164SAPE  C31218419   6.391   5.029   3.340
  164SAPE  H12X18420   6.366   5.110   3.269
  164SAPE  H12Y18421   6.500   5.020   3.325
  164SAPE  C31318422   6.351   5.061   3.488
  164SAPE  H13X18423   6.383   4.983   3.561
  164SAPE  H13Y18424   6.240   5.069   3.498
  164SAPE  C31418425   6.410   5.197   3.533
  164SAPE  H14X18426   6.368   5.278   3.469
  164SAPE  H14Y18427   6.520   5.202   3.517
  164SAPE  C31518428   6.372   5.244   3.676
  164SAPE  H15X18429   6.419   5.344   3.690
  164SAPE  H15Y18430   6.413   5.171   3.749
  164SAPE  C31618431   6.219   5.250   3.705
  164SAPE  H16X18432   6.208   5.292   3.808
  164SAPE  H16Y18433   6.174   5.149   3.714
  164SAPE  C31718434   6.137   5.335   3.600
  164SAPE  H17X18435   6.141   5.287   3.500
  164SAPE  H17Y18436   6.182   5.434   3.581
  164SAPE  C31818437   5.986   5.343   3.636
  164SAPE  H18X18438   5.969   5.393   3.733
  164SAPE  H18Y18439   5.935   5.244   3.627
  164SAPE  H18Z18440   5.936   5.412   3.565
  165SAPE     N18441   5.133   0.877   1.602
  165SAPE   HN118442   5.108   0.977   1.590
  165SAPE   HN218443   5.077   0.806   1.552
  165SAPE   HN318444   5.118   0.851   1.701
  165SAPE   C1218445   5.278   0.839   1.589
  165SAPE  H12A18446   5.331   0.923   1.541
  165SAPE  H12B18447   5.289   0.755   1.517
  165SAPE   C1118448   5.331   0.801   1.730
  165SAPE  H11A18449   5.441   0.804   1.745
  165SAPE  H11B18450   5.297   0.698   1.753
  165SAPE     P18451   5.334   0.961   1.945
  165SAPE   O1318452   5.413   1.060   1.872
  165SAPE   O1418453   5.226   1.004   2.037
  165SAPE   O1218454   5.265   0.874   1.838
  165SAPE   O1118455   5.425   0.857   2.022
  165SAPE    C118456   5.356   0.750   2.090
  165SAPE    HA18457   5.261   0.732   2.036
  165SAPE    HB18458   5.422   0.660   2.083
  165SAPE    C218459   5.328   0.773   2.244
  165SAPE    HS18460   5.267   0.866   2.246
  165SAPE   O2118461   5.455   0.782   2.313
  165SAPE   C2118462   5.453   0.862   2.418
  165SAPE   O2218463   5.352   0.907   2.473
  165SAPE   C2218464   5.594   0.890   2.464
  165SAPE   H2R18465   5.655   0.797   2.464
  165SAPE   H2S18466   5.645   0.953   2.389
  165SAPE    C318467   5.251   0.651   2.300
  165SAPE    HX18468   5.297   0.557   2.264
  165SAPE    HY18469   5.157   0.665   2.242
  165SAPE   O3118470   5.224   0.657   2.434
  165SAPE   C3118471   5.248   0.553   2.512
  165SAPE   O3218472   5.286   0.444   2.480
  165SAPE   C3218473   5.212   0.598   2.653
  165SAPE   H2X18474   5.110   0.555   2.664
  165SAPE   H2Y18475   5.202   0.708   2.650
  165SAPE   C2318476   5.605   0.953   2.607
  165SAPE   H3R18477   5.559   0.882   2.680
  165SAPE   H3S18478   5.558   1.052   2.624
  165SAPE   C2418479   5.755   0.981   2.629
  165SAPE   H4R18480   5.768   1.045   2.719
  165SAPE   H4S18481   5.790   1.046   2.546
  165SAPE   C2518482   5.835   0.851   2.637
  165SAPE   H5R18483   5.860   0.801   2.542
  165SAPE   C2618484   5.865   0.781   2.752
  165SAPE   H6R18485   5.923   0.689   2.737
  165SAPE   C2718486   5.838   0.828   2.895
  165SAPE   H7R18487   5.744   0.884   2.910
  165SAPE   H7S18488   5.914   0.905   2.920
  165SAPE   C2818489   5.862   0.705   2.992
  165SAPE   H8R18490   5.949   0.639   2.981
  165SAPE   C2918491   5.796   0.692   3.108
  165SAPE   H9R18492   5.819   0.607   3.175
  165SAPE  C21018493   5.679   0.772   3.146
  165SAPE  H10R18494   5.625   0.814   3.059
  165SAPE  H10S18495   5.715   0.863   3.198
  165SAPE  C21118496   5.588   0.702   3.234
  165SAPE  H11R18497   5.505   0.643   3.192
  165SAPE  C21218498   5.596   0.701   3.366
  165SAPE  H12R18499   5.519   0.642   3.418
  165SAPE  C21318500   5.701   0.767   3.459
  165SAPE  H13R18501   5.646   0.823   3.538
  165SAPE  H13S18502   5.748   0.850   3.402
  165SAPE  C21418503   5.817   0.681   3.494
  165SAPE  H14R18504   5.878   0.634   3.415
  165SAPE  C21518505   5.858   0.658   3.620
  165SAPE  H15R18506   5.954   0.610   3.644
  165SAPE  C21618507   5.794   0.720   3.746
  165SAPE  H16R18508   5.709   0.789   3.731
  165SAPE  H16S18509   5.872   0.772   3.806
  165SAPE  C21718510   5.750   0.613   3.848
  165SAPE  H17R18511   5.834   0.545   3.875
  165SAPE  H17S18512   5.666   0.556   3.803
  165SAPE  C21818513   5.718   0.671   3.985
  165SAPE  H18R18514   5.648   0.757   3.980
  165SAPE  H18S18515   5.811   0.717   4.027
  165SAPE  C21918516   5.664   0.564   4.084
  165SAPE  H19R18517   5.573   0.529   4.032
  165SAPE  H19S18518   5.624   0.606   4.179
  165SAPE  C22018519   5.755   0.442   4.104
  165SAPE  H20R18520   5.835   0.462   4.179
  165SAPE  H20S18521   5.821   0.411   4.020
  165SAPE  H20T18522   5.689   0.354   4.121
  165SAPE   C3318523   5.321   0.570   2.759
  165SAPE   H3X18524   5.411   0.617   2.713
  165SAPE   H3Y18525   5.338   0.460   2.767
  165SAPE   C3418526   5.295   0.645   2.886
  165SAPE   H4X18527   5.303   0.754   2.867
  165SAPE   H4Y18528   5.365   0.621   2.969
  165SAPE   C3518529   5.160   0.615   2.944
  165SAPE   H5X18530   5.132   0.509   2.922
  165SAPE   H5Y18531   5.073   0.664   2.894
  165SAPE   C3618532   5.151   0.630   3.091
  165SAPE   H6X18533   5.194   0.723   3.134
  165SAPE   H6Y18534   5.216   0.556   3.143
  165SAPE   C3718535   5.014   0.599   3.161
  165SAPE   H7X18536   4.984   0.494   3.142
  165SAPE   H7Y18537   4.942   0.668   3.112
  165SAPE   C3818538   5.013   0.625   3.311
  165SAPE   H8X18539   4.905   0.609   3.333
  165SAPE   H8Y18540   5.038   0.731   3.333
  165SAPE   C3918541   5.107   0.540   3.399
  165SAPE   H9X18542   5.183   0.600   3.454
  165SAPE   H9Y18543   5.157   0.486   3.316
  165SAPE  C31018544   5.041   0.439   3.504
  165SAPE  H10X18545   5.116   0.373   3.554
  165SAPE  H10Y18546   4.974   0.374   3.444
  165SAPE  C31118547   4.962   0.518   3.606
  165SAPE  H11X18548   4.876   0.563   3.552
  165SAPE  H11Y18549   5.018   0.599   3.658
  165SAPE  C31218550   4.904   0.419   3.710
  165SAPE  H12X18551   4.996   0.400   3.769
  165SAPE  H12Y18552   4.868   0.327   3.659
  165SAPE  C31318553   4.795   0.483   3.800
  165SAPE  H13X18554   4.696   0.434   3.792
  165SAPE  H13Y18555   4.782   0.588   3.768
  165SAPE  C31418556   4.845   0.478   3.938
  165SAPE  H14X18557   4.776   0.525   4.012
  165SAPE  H14Y18558   4.942   0.531   3.953
  165SAPE  C31518559   4.862   0.341   4.004
  165SAPE  H15X18560   4.955   0.284   3.983
  165SAPE  H15Y18561   4.785   0.268   3.971
  165SAPE  C31618562   4.866   0.342   4.158
  165SAPE  H16X18563   4.783   0.404   4.198
  165SAPE  H16Y18564   4.960   0.388   4.195
  165SAPE  C31718565   4.888   0.210   4.233
  165SAPE  H17X18566   4.920   0.224   4.338
  165SAPE  H17Y18567   4.965   0.140   4.192
  165SAPE  C31818568   4.758   0.119   4.230
  165SAPE  H18X18569   4.673   0.189   4.238
  165SAPE  H18Y18570   4.759   0.040   4.308
  165SAPE  H18Z18571   4.756   0.094   4.122
  166SAPE     N18572   0.310   5.863   2.046
  166SAPE   HN118573   0.241   5.936   2.072
  166SAPE   HN218574   0.290   5.842   1.946
  166SAPE   HN318575   0.293   5.775   2.098
  166SAPE   C1218576   0.452   5.911   2.051
  166SAPE  H12A18577   0.496   5.846   2.130
  166SAPE  H12B18578   0.444   6.007   2.107
  166SAPE   C1118579   0.523   5.923   1.916
  166SAPE  H11A18580   0.540   5.820   1.878
  166SAPE  H11B18581   0.621   5.975   1.912
  166SAPE     P18582   0.433   6.137   1.787
  166SAPE   O1318583   0.550   6.166   1.708
  166SAPE   O1418584   0.306   6.168   1.721
  166SAPE   O1218585   0.424   5.985   1.834
  166SAPE   O1118586   0.435   6.211   1.923
  166SAPE    C118587   0.317   6.247   1.991
  166SAPE    HA18588   0.250   6.311   1.930
  166SAPE    HB18589   0.255   6.158   2.014
  166SAPE    C218590   0.349   6.340   2.117
  166SAPE    HS18591   0.418   6.415   2.073
  166SAPE   O2118592   0.418   6.256   2.215
  166SAPE   C2118593   0.511   6.326   2.272
  166SAPE   O2218594   0.536   6.446   2.257
  166SAPE   C2218595   0.590   6.240   2.375
  166SAPE   H2R18596   0.518   6.222   2.457
  166SAPE   H2S18597   0.620   6.145   2.326
  166SAPE    C318598   0.224   6.413   2.177
  166SAPE    HX18599   0.154   6.452   2.100
  166SAPE    HY18600   0.258   6.509   2.221
  166SAPE   O3118601   0.152   6.321   2.268
  166SAPE   C3118602   0.071   6.382   2.351
  166SAPE   O3218603   0.045   6.501   2.353
  166SAPE   C3218604   6.897   6.279   2.437
  166SAPE   H2X18605   0.076   6.248   2.508
  166SAPE   H2Y18606   6.879   6.184   2.381
  166SAPE   C2318607   0.709   6.329   2.426
  166SAPE   H3R18608   0.674   6.432   2.448
  166SAPE   H3S18609   0.777   6.340   2.339
  166SAPE   C2418610   0.781   6.278   2.557
  166SAPE   H4R18611   0.711   6.259   2.641
  166SAPE   H4S18612   0.847   6.361   2.589
  166SAPE   C2518613   0.872   6.163   2.520
  166SAPE   H5R18614   0.925   6.176   2.424
  166SAPE   C2618615   0.907   6.060   2.590
  166SAPE   H6R18616   0.963   5.980   2.539
  166SAPE   C2718617   0.840   6.022   2.721
  166SAPE   H7R18618   0.776   6.103   2.762
  166SAPE   H7S18619   0.929   5.996   2.783
  166SAPE   C2818620   0.762   5.889   2.706
  166SAPE   H8R18621   0.774   5.823   2.619
  166SAPE   C2918622   0.665   5.873   2.804
  166SAPE   H9R18623   0.605   5.781   2.797
  166SAPE  C21018624   0.628   5.960   2.921
  166SAPE  H10R18625   0.535   5.926   2.971
  166SAPE  H10S18626   0.612   6.059   2.874
  166SAPE  C21118627   0.729   5.973   3.021
  166SAPE  H11R18628   0.827   5.927   3.002
  166SAPE  C21218629   0.708   6.013   3.148
  166SAPE  H12R18630   0.799   6.008   3.210
  166SAPE  C21318631   0.580   6.068   3.215
  166SAPE  H13R18632   0.567   6.008   3.308
  166SAPE  H13S18633   0.492   6.044   3.151
  166SAPE  C21418634   0.594   6.213   3.239
  166SAPE  H14R18635   0.689   6.260   3.208
  166SAPE  C21518636   0.499   6.290   3.294
  166SAPE  H15R18637   0.518   6.396   3.315
  166SAPE  C21618638   0.368   6.241   3.344
  166SAPE  H16R18639   0.375   6.181   3.436
  166SAPE  H16S18640   0.326   6.167   3.272
  166SAPE  C21718641   0.260   6.344   3.370
  166SAPE  H17R18642   0.228   6.396   3.277
  166SAPE  H17S18643   0.302   6.431   3.424
  166SAPE  C21818644   0.130   6.284   3.433
  166SAPE  H18R18645   0.142   6.235   3.532
  166SAPE  H18S18646   0.100   6.195   3.373
  166SAPE  C21918647   0.017   6.382   3.453
  166SAPE  H19R18648   6.899   6.428   3.354
  166SAPE  H19S18649   0.044   6.463   3.525
  166SAPE  C22018650   6.790   6.326   3.495
  166SAPE  H20R18651   6.756   6.244   3.429
  166SAPE  H20S18652   6.722   6.413   3.509
  166SAPE  H20T18653   6.793   6.285   3.598
  166SAPE   C3318654   6.769   6.314   2.516
  166SAPE   H3X18655   6.696   6.356   2.444
  166SAPE   H3Y18656   6.791   6.390   2.594
  166SAPE   C3418657   6.714   6.183   2.574
  166SAPE   H4X18658   6.791   6.147   2.646
  166SAPE   H4Y18659   6.694   6.109   2.494
  166SAPE   C3518660   6.580   6.209   2.649
  166SAPE   H5X18661   6.494   6.232   2.583
  166SAPE   H5Y18662   6.607   6.298   2.711
  166SAPE   C3618663   6.525   6.096   2.735
  166SAPE   H6X18664   6.506   6.007   2.671
  166SAPE   H6Y18665   6.435   6.116   2.798
  166SAPE   C3718666   6.627   6.035   2.833
  166SAPE   H7X18667   6.716   6.100   2.840
  166SAPE   H7Y18668   6.656   5.933   2.798
  166SAPE   C3818669   6.571   6.034   2.981
  166SAPE   H8X18670   6.508   5.943   2.986
  166SAPE   H8Y18671   6.522   6.133   2.995
  166SAPE   C3918672   6.687   6.026   3.087
  166SAPE   H9X18673   6.674   6.107   3.163
  166SAPE   H9Y18674   6.782   6.053   3.038
  166SAPE  C31018675   6.701   5.880   3.149
  166SAPE  H10X18676   6.791   5.880   3.214
  166SAPE  H10Y18677   6.730   5.818   3.062
  166SAPE  C31118678   6.586   5.841   3.224
  166SAPE  H11X18679   6.497   5.826   3.159
  166SAPE  H11Y18680   6.560   5.924   3.294
  166SAPE  C31218681   6.611   5.704   3.291
  166SAPE  H12X18682   6.712   5.707   3.337
  166SAPE  H12Y18683   6.614   5.623   3.214
  166SAPE  C31318684   6.511   5.651   3.395
  166SAPE  H13X18685   6.540   5.544   3.406
  166SAPE  H13Y18686   6.412   5.655   3.346
  166SAPE  C31418687   6.516   5.735   3.524
  166SAPE  H14X18688   6.497   5.842   3.502
  166SAPE  H14Y18689   6.622   5.735   3.559
  166SAPE  C31518690   6.432   5.672   3.637
  166SAPE  H15X18691   6.436   5.561   3.638
  166SAPE  H15Y18692   6.328   5.705   3.612
  166SAPE  C31618693   6.479   5.716   3.779
  166SAPE  H16X18694   6.504   5.819   3.747
  166SAPE  H16Y18695   6.572   5.663   3.807
  166SAPE  C31718696   6.377   5.705   3.889
  166SAPE  H17X18697   6.298   5.781   3.875
  166SAPE  H17Y18698   6.436   5.730   3.980
  166SAPE  C31818699   6.324   5.562   3.907
  166SAPE  H18X18700   6.265   5.540   3.816
  166SAPE  H18Y18701   6.255   5.535   3.989
  166SAPE  H18Z18702   6.405   5.485   3.915
  167SAPE     N18703   6.177   4.255   1.995
  167SAPE   HN118704   6.092   4.258   1.935
  167SAPE   HN218705   6.157   4.213   2.087
  167SAPE   HN318706   6.215   4.351   2.008
  167SAPE   C1218707   6.285   4.195   1.914
  167SAPE  H12A18708   6.304   4.264   1.829
  167SAPE  H12B18709   6.256   4.096   1.872
  167SAPE   C1118710   6.417   4.183   1.991
  167SAPE  H11A18711   6.458   4.284   2.012
  167SAPE  H11B18712   6.493   4.135   1.927
  167SAPE     P18713   6.407   3.965   2.121
  167SAPE   O1318714   6.277   3.912   2.067
  167SAPE   O1418715   6.540   3.917   2.067
  167SAPE   O1218716   6.394   4.125   2.116
  167SAPE   O1118717   6.412   3.945   2.280
  167SAPE    C118718   6.372   3.819   2.334
  167SAPE    HA18719   6.342   3.742   2.260
  167SAPE    HB18720   6.469   3.776   2.368
  167SAPE    C218721   6.259   3.835   2.439
  167SAPE    HS18722   6.168   3.859   2.381
  167SAPE   O2118723   6.295   3.924   2.543
  167SAPE   C2118724   6.210   4.020   2.559
  167SAPE   O2218725   6.101   4.028   2.510
  167SAPE   C2218726   6.256   4.123   2.663
  167SAPE   H2R18727   6.185   4.108   2.747
  167SAPE   H2S18728   6.359   4.099   2.696
  167SAPE    C318729   6.241   3.691   2.500
  167SAPE    HX18730   6.214   3.635   2.408
  167SAPE    HY18731   6.145   3.687   2.556
  167SAPE   O3118732   6.353   3.639   2.577
  167SAPE   C3118733   6.333   3.517   2.626
  167SAPE   O3218734   6.229   3.455   2.600
  167SAPE   C3218735   6.427   3.485   2.731
  167SAPE   H2X18736   6.382   3.542   2.814
  167SAPE   H2Y18737   6.529   3.513   2.699
  167SAPE   C2318738   6.254   4.271   2.611
  167SAPE   H3R18739   6.154   4.318   2.625
  167SAPE   H3S18740   6.258   4.267   2.500
  167SAPE   C2418741   6.370   4.358   2.665
  167SAPE   H4R18742   6.389   4.435   2.588
  167SAPE   H4S18743   6.463   4.297   2.666
  167SAPE   C2518744   6.337   4.419   2.800
  167SAPE   H5R18745   6.268   4.504   2.794
  167SAPE   C2618746   6.369   4.377   2.928
  167SAPE   H6R18747   6.335   4.435   3.016
  167SAPE   C2718748   6.464   4.261   2.960
  167SAPE   H7R18749   6.519   4.225   2.871
  167SAPE   H7S18750   6.394   4.180   2.991
  167SAPE   C2818751   6.572   4.274   3.067
  167SAPE   H8R18752   6.676   4.288   3.033
  167SAPE   C2918753   6.555   4.241   3.200
  167SAPE   H9R18754   6.630   4.272   3.275
  167SAPE  C21018755   6.426   4.194   3.268
  167SAPE  H10R18756   6.448   4.099   3.321
  167SAPE  H10S18757   6.356   4.162   3.188
  167SAPE  C21118758   6.350   4.288   3.356
  167SAPE  H11R18759   6.408   4.353   3.423
  167SAPE  C21218760   6.217   4.298   3.364
  167SAPE  H12R18761   6.185   4.370   3.441
  167SAPE  C21318762   6.112   4.209   3.304
  167SAPE  H13R18763   6.025   4.231   3.369
  167SAPE  H13S18764   6.136   4.101   3.316
  167SAPE  C21418765   6.076   4.226   3.157
  167SAPE  H14R18766   6.160   4.273   3.104
  167SAPE  C21518767   5.953   4.204   3.097
  167SAPE  H15R18768   5.923   4.252   3.002
  167SAPE  C21618769   5.838   4.139   3.172
  167SAPE  H16R18770   5.770   4.218   3.208
  167SAPE  H16S18771   5.873   4.090   3.265
  167SAPE  C21718772   5.766   4.044   3.074
  167SAPE  H17R18773   5.838   3.966   3.043
  167SAPE  H17S18774   5.734   4.098   2.981
  167SAPE  C21818775   5.647   3.983   3.139
  167SAPE  H18R18776   5.586   4.059   3.192
  167SAPE  H18S18777   5.686   3.909   3.212
  167SAPE  C21918778   5.545   3.921   3.043
  167SAPE  H19R18779   5.487   4.006   3.000
  167SAPE  H19S18780   5.471   3.854   3.091
  167SAPE  C22018781   5.601   3.829   2.931
  167SAPE  H20R18782   5.672   3.755   2.975
  167SAPE  H20S18783   5.656   3.894   2.860
  167SAPE  H20T18784   5.522   3.776   2.875
  167SAPE   C3318785   6.425   3.336   2.788
  167SAPE   H3X18786   6.463   3.275   2.704
  167SAPE   H3Y18787   6.318   3.306   2.800
  167SAPE   C3418788   6.511   3.327   2.910
  167SAPE   H4X18789   6.576   3.414   2.929
  167SAPE   H4Y18790   6.585   3.246   2.889
  167SAPE   C3518791   6.438   3.292   3.043
  167SAPE   H5X18792   6.512   3.253   3.117
  167SAPE   H5Y18793   6.365   3.214   3.014
  167SAPE   C3618794   6.362   3.416   3.090
  167SAPE   H6X18795   6.291   3.452   3.012
  167SAPE   H6Y18796   6.436   3.495   3.115
  167SAPE   C3718797   6.280   3.398   3.211
  167SAPE   H7X18798   6.335   3.345   3.291
  167SAPE   H7Y18799   6.198   3.328   3.182
  167SAPE   C3818800   6.208   3.525   3.258
  167SAPE   H8X18801   6.126   3.498   3.328
  167SAPE   H8Y18802   6.172   3.587   3.173
  167SAPE   C3918803   6.306   3.605   3.360
  167SAPE   H9X18804   6.410   3.615   3.323
  167SAPE   H9Y18805   6.322   3.546   3.453
  167SAPE  C31018806   6.252   3.743   3.403
  167SAPE  H10X18807   6.148   3.739   3.442
  167SAPE  H10Y18808   6.245   3.799   3.307
  167SAPE  C31118809   6.347   3.818   3.492
  167SAPE  H11X18810   6.433   3.850   3.430
  167SAPE  H11Y18811   6.400   3.747   3.559
  167SAPE  C31218812   6.278   3.935   3.564
  167SAPE  H12X18813   6.185   3.908   3.620
  167SAPE  H12Y18814   6.237   4.005   3.488
  167SAPE  C31318815   6.357   4.009   3.671
  167SAPE  H13X18816   6.454   4.047   3.633
  167SAPE  H13Y18817   6.383   3.935   3.749
  167SAPE  C31418818   6.277   4.122   3.734
  167SAPE  H14X18819   6.188   4.079   3.785
  167SAPE  H14Y18820   6.243   4.199   3.662
  167SAPE  C31518821   6.354   4.207   3.839
  167SAPE  H15X18822   6.433   4.267   3.787
  167SAPE  H15Y18823   6.417   4.142   3.904
  167SAPE  C31618824   6.258   4.285   3.924
  167SAPE  H16X18825   6.192   4.225   3.991
  167SAPE  H16Y18826   6.191   4.340   3.854
  167SAPE  C31718827   6.316   4.387   4.017
  167SAPE  H17X18828   6.401   4.438   3.967
  167SAPE  H17Y18829   6.359   4.322   4.096
  167SAPE  C31818830   6.211   4.486   4.068
  167SAPE  H18X18831   6.145   4.524   3.987
  167SAPE  H18Y18832   6.258   4.574   4.117
  167SAPE  H18Z18833   6.151   4.442   4.150
  168SAPE     N18834   2.628   5.164   2.122
  168SAPE   HN118835   2.603   5.257   2.083
  168SAPE   HN218836   2.730   5.151   2.109
  168SAPE   HN318837   2.581   5.087   2.070
  168SAPE   C1218838   2.589   5.155   2.268
  168SAPE  H12A18839   2.666   5.209   2.328
  168SAPE  H12B18840   2.603   5.047   2.290
  168SAPE   C1118841   2.449   5.206   2.284
  168SAPE  H11A18842   2.412   5.181   2.386
  168SAPE  H11B18843   2.376   5.153   2.219
  168SAPE     P18844   2.352   5.445   2.319
  168SAPE   O1318845   2.372   5.578   2.258
  168SAPE   O1418846   2.216   5.386   2.316
  168SAPE   O1218847   2.451   5.347   2.254
  168SAPE   O1118848   2.402   5.447   2.465
  168SAPE    C118849   2.399   5.568   2.537
  168SAPE    HA18850   2.496   5.622   2.531
  168SAPE    HB18851   2.321   5.641   2.506
  168SAPE    C218852   2.370   5.537   2.687
  168SAPE    HS18853   2.366   5.632   2.745
  168SAPE   O2118854   2.487   5.471   2.737
  168SAPE   C2118855   2.497   5.487   2.867
  168SAPE   O2218856   2.438   5.554   2.947
  168SAPE   C2218857   2.627   5.403   2.899
  168SAPE   H2R18858   2.587   5.302   2.921
  168SAPE   H2S18859   2.687   5.396   2.805
  168SAPE    C318860   2.241   5.455   2.702
  168SAPE    HX18861   2.268   5.350   2.675
  168SAPE    HY18862   2.171   5.481   2.619
  168SAPE   O3118863   2.185   5.456   2.835
  168SAPE   C3118864   2.092   5.554   2.855
  168SAPE   O3218865   2.072   5.640   2.774
  168SAPE   C3218866   2.006   5.519   2.981
  168SAPE   H2X18867   2.011   5.408   2.991
  168SAPE   H2Y18868   1.901   5.546   2.955
  168SAPE   C2318869   2.719   5.462   3.012
  168SAPE   H3R18870   2.649   5.518   3.077
  168SAPE   H3S18871   2.791   5.528   2.960
  168SAPE   C2418872   2.776   5.352   3.098
  168SAPE   H4R18873   2.836   5.281   3.037
  168SAPE   H4S18874   2.686   5.303   3.140
  168SAPE   C2518875   2.858   5.409   3.211
  168SAPE   H5R18876   2.918   5.498   3.189
  168SAPE   C2618877   2.879   5.343   3.326
  168SAPE   H6R18878   2.930   5.393   3.410
  168SAPE   C2718879   2.815   5.220   3.375
  168SAPE   H7R18880   2.886   5.170   3.444
  168SAPE   H7S18881   2.802   5.149   3.290
  168SAPE   C2818882   2.681   5.243   3.447
  168SAPE   H8R18883   2.597   5.274   3.383
  168SAPE   C2918884   2.679   5.262   3.577
  168SAPE   H9R18885   2.579   5.267   3.622
  168SAPE  C21018886   2.788   5.258   3.684
  168SAPE  H10R18887   2.760   5.327   3.766
  168SAPE  H10S18888   2.885   5.304   3.653
  168SAPE  C21118889   2.815   5.116   3.730
  168SAPE  H11R18890   2.911   5.077   3.695
  168SAPE  C21218891   2.748   5.049   3.830
  168SAPE  H12R18892   2.780   4.947   3.855
  168SAPE  C21318893   2.624   5.109   3.904
  168SAPE  H13R18894   2.533   5.054   3.872
  168SAPE  H13S18895   2.594   5.208   3.865
  168SAPE  C21418896   2.634   5.095   4.052
  168SAPE  H14R18897   2.664   4.997   4.092
  168SAPE  C21518898   2.589   5.179   4.145
  168SAPE  H15R18899   2.598   5.142   4.248
  168SAPE  C21618900   2.534   5.318   4.127
  168SAPE  H16R18901   2.476   5.322   4.032
  168SAPE  H16S18902   2.619   5.390   4.123
  168SAPE  C21718903   2.423   5.342   4.232
  168SAPE  H17R18904   2.475   5.363   4.327
  168SAPE  H17S18905   2.349   5.259   4.238
  168SAPE  C21818906   2.336   5.457   4.191
  168SAPE  H18R18907   2.272   5.422   4.107
  168SAPE  H18S18908   2.410   5.533   4.157
  168SAPE  C21918909   2.257   5.513   4.304
  168SAPE  H19R18910   2.194   5.598   4.272
  168SAPE  H19S18911   2.326   5.560   4.377
  168SAPE  C22018912   2.160   5.415   4.361
  168SAPE  H20R18913   2.216   5.351   4.432
  168SAPE  H20S18914   2.112   5.354   4.282
  168SAPE  H20T18915   2.074   5.468   4.407
  168SAPE   C3318916   2.050   5.594   3.109
  168SAPE   H3X18917   1.963   5.582   3.177
  168SAPE   H3Y18918   2.054   5.705   3.102
  168SAPE   C3418919   2.181   5.540   3.175
  168SAPE   H4X18920   2.269   5.575   3.117
  168SAPE   H4Y18921   2.168   5.431   3.192
  168SAPE   C3518922   2.201   5.599   3.318
  168SAPE   H5X18923   2.113   5.576   3.382
  168SAPE   H5Y18924   2.202   5.711   3.319
  168SAPE   C3618925   2.327   5.568   3.391
  168SAPE   H6X18926   2.412   5.634   3.363
  168SAPE   H6Y18927   2.356   5.462   3.372
  168SAPE   C3718928   2.307   5.600   3.540
  168SAPE   H7X18929   2.206   5.561   3.566
  168SAPE   H7Y18930   2.299   5.708   3.568
  168SAPE   C3818931   2.396   5.524   3.637
  168SAPE   H8X18932   2.419   5.422   3.599
  168SAPE   H8Y18933   2.327   5.531   3.724
  168SAPE   C3918934   2.529   5.597   3.662
  168SAPE   H9X18935   2.556   5.657   3.572
  168SAPE   H9Y18936   2.609   5.523   3.684
  168SAPE  C31018937   2.519   5.684   3.785
  168SAPE  H10X18938   2.477   5.619   3.865
  168SAPE  H10Y18939   2.439   5.758   3.767
  168SAPE  C31118940   2.654   5.753   3.816
  168SAPE  H11X18941   2.670   5.818   3.727
  168SAPE  H11Y18942   2.735   5.679   3.831
  168SAPE  C31218943   2.640   5.848   3.940
  168SAPE  H12X18944   2.567   5.931   3.930
  168SAPE  H12Y18945   2.730   5.913   3.945
  168SAPE  C31318946   2.627   5.778   4.077
  168SAPE  H13X18947   2.696   5.694   4.101
  168SAPE  H13Y18948   2.527   5.731   4.071
  168SAPE  C31418949   2.629   5.889   4.184
  168SAPE  H14X18950   2.551   5.958   4.146
  168SAPE  H14Y18951   2.729   5.938   4.185
  168SAPE  C31518952   2.589   5.844   4.321
  168SAPE  H15X18953   2.672   5.785   4.366
  168SAPE  H15Y18954   2.496   5.785   4.336
  168SAPE  C31618955   2.558   5.965   4.411
  168SAPE  H16X18956   2.465   6.013   4.374
  168SAPE  H16Y18957   2.636   6.043   4.396
  168SAPE  C31718958   2.549   5.919   4.559
  168SAPE  H17X18959   2.590   6.002   4.621
  168SAPE  H17Y18960   2.627   5.841   4.573
  168SAPE  C31818961   2.410   5.891   4.606
  168SAPE  H18X18962   2.340   5.961   4.555
  168SAPE  H18Y18963   2.399   5.899   4.717
  168SAPE  H18Z18964   2.388   5.787   4.574
  169SAPE     N18965   6.321   3.330   1.806
  169SAPE   HN118966   6.416   3.290   1.789
  169SAPE   HN218967   6.254   3.268   1.756
  169SAPE   HN318968   6.311   3.423   1.760
  169SAPE   C1218969   6.292   3.325   1.953
  169SAPE  H12A18970   6.181   3.328   1.955
  169SAPE  H12B18971   6.328   3.414   2.009
  169SAPE   C1118972   6.340   3.192   2.015
  169SAPE  H11A18973   6.288   3.102   1.974
  169SAPE  H11B18974   6.301   3.188   2.119
  169SAPE     P18975   6.574   3.192   2.135
  169SAPE   O1318976   6.696   3.104   2.130
  169SAPE   O1418977   6.597   3.340   2.137
  169SAPE   O1218978   6.483   3.172   2.007
  169SAPE   O1118979   6.484   3.152   2.258
  169SAPE    C118980   6.458   3.015   2.289
  169SAPE    HA18981   6.372   2.975   2.232
  169SAPE    HB18982   6.551   2.956   2.271
  169SAPE    C218983   6.433   2.997   2.448
  169SAPE    HS18984   6.412   2.888   2.453
  169SAPE   O2118985   6.322   3.080   2.490
  169SAPE   C2118986   6.204   3.026   2.472
  169SAPE   O2218987   6.191   2.913   2.435
  169SAPE   C2218988   6.093   3.131   2.474
  169SAPE   H2R18989   6.135   3.221   2.524
  169SAPE   H2S18990   6.069   3.159   2.370
  169SAPE    C318991   6.560   3.013   2.533
  169SAPE    HX18992   6.592   3.119   2.528
  169SAPE    HY18993   6.633   2.945   2.484
  169SAPE   O3118994   6.536   2.963   2.665
  169SAPE   C3118995   6.639   2.982   2.749
  169SAPE   O3218996   6.742   3.040   2.726
  169SAPE   C3218997   6.600   2.933   2.884
  169SAPE   H2X18998   6.490   2.941   2.900
  169SAPE   H2Y18999   6.639   2.999   2.964
  169SAPE   C2319000   5.970   3.094   2.549
  169SAPE   H3R19001   5.929   2.999   2.510
  169SAPE   H3S19002   5.889   3.168   2.529
  169SAPE   C2419003   5.987   3.083   2.702
  169SAPE   H4R19004   6.068   3.015   2.735
  169SAPE   H4S19005   5.891   3.035   2.731
  169SAPE   C2519006   6.003   3.215   2.773
  169SAPE   H5R19007   6.027   3.303   2.711
  169SAPE   C2619008   6.009   3.222   2.907
  169SAPE   H6R19009   6.023   3.319   2.958
  169SAPE   C2719010   5.988   3.108   3.001
  169SAPE   H7R19011   6.087   3.080   3.044
  169SAPE   H7S19012   5.965   3.021   2.937
  169SAPE   C2819013   5.874   3.123   3.098
  169SAPE   H8R19014   5.775   3.092   3.062
  169SAPE   C2919015   5.863   3.174   3.220
  169SAPE   H9R19016   5.763   3.159   3.262
  169SAPE  C21019017   5.964   3.235   3.310
  169SAPE  H10R19018   5.906   3.303   3.376
  169SAPE  H10S19019   6.027   3.306   3.252
  169SAPE  C21119020   6.043   3.134   3.387
  169SAPE  H11R19021   6.060   3.043   3.328
  169SAPE  C21219022   6.096   3.151   3.506
  169SAPE  H12R19023   6.137   3.059   3.550
  169SAPE  C21319024   6.096   3.288   3.578
  169SAPE  H13R19025   6.017   3.275   3.655
  169SAPE  H13S19026   6.052   3.371   3.519
  169SAPE  C21419027   6.232   3.319   3.632
  169SAPE  H14R19028   6.309   3.249   3.595
  169SAPE  C21519029   6.273   3.398   3.734
  169SAPE  H15R19030   6.379   3.402   3.763
  169SAPE  C21619031   6.177   3.482   3.812
  169SAPE  H16R19032   6.071   3.471   3.782
  169SAPE  H16S19033   6.182   3.591   3.794
  169SAPE  C21719034   6.177   3.437   3.960
  169SAPE  H17R19035   6.189   3.327   3.975
  169SAPE  H17S19036   6.081   3.466   4.007
  169SAPE  C21819037   6.299   3.500   4.030
  169SAPE  H18R19038   6.294   3.611   4.025
  169SAPE  H18S19039   6.393   3.470   3.979
  169SAPE  C21919040   6.303   3.468   4.183
  169SAPE  H19R19041   6.330   3.362   4.198
  169SAPE  H19S19042   6.215   3.483   4.250
  169SAPE  C22019043   6.406   3.561   4.252
  169SAPE  H20R19044   6.497   3.548   4.190
  169SAPE  H20S19045   6.426   3.523   4.355
  169SAPE  H20T19046   6.368   3.665   4.259
  169SAPE   C3319047   6.654   2.788   2.902
  169SAPE   H3X19048   6.627   2.724   2.815
  169SAPE   H3Y19049   6.619   2.746   2.999
  169SAPE   C3419050   6.809   2.784   2.903
  169SAPE   H4X19051   6.855   2.840   2.987
  169SAPE   H4Y19052   6.850   2.829   2.810
  169SAPE   C3519053   6.846   2.636   2.896
  169SAPE   H5X19054   0.056   2.621   2.893
  169SAPE   H5Y19055   6.814   2.586   2.802
  169SAPE   C3619056   6.807   2.564   3.025
  169SAPE   H6X19057   6.697   2.548   3.029
  169SAPE   H6Y19058   6.831   2.623   3.115
  169SAPE   C3719059   6.873   2.424   3.039
  169SAPE   H7X19060   0.082   2.430   3.018
  169SAPE   H7Y19061   6.834   2.354   2.962
  169SAPE   C3819062   6.854   2.360   3.174
  169SAPE   H8X19063   6.749   2.326   3.187
  169SAPE   H8Y19064   6.883   2.438   3.248
  169SAPE   C3919065   0.048   2.237   3.202
  169SAPE   H9X19066   0.152   2.276   3.194
  169SAPE   H9Y19067   0.030   2.152   3.132
  169SAPE  C31019068   0.022   2.184   3.342
  169SAPE  H10X19069   6.816   2.170   3.372
  169SAPE  H10Y19070   0.050   2.260   3.417
  169SAPE  C31119071   0.088   2.052   3.375
  169SAPE  H11X19072   0.198   2.049   3.359
  169SAPE  H11Y19073   0.062   1.980   3.294
  169SAPE  C31219074   0.046   1.987   3.510
  169SAPE  H12X19075   6.841   1.955   3.494
  169SAPE  H12Y19076   0.039   2.058   3.595
  169SAPE  C31319077   0.134   1.873   3.556
  169SAPE  H13X19078   0.233   1.914   3.583
  169SAPE  H13Y19079   0.147   1.793   3.480
  169SAPE  C31419080   0.083   1.803   3.691
  169SAPE  H14X19081   6.884   1.754   3.676
  169SAPE  H14Y19082   0.069   1.879   3.771
  169SAPE  C31519083   0.181   1.690   3.735
  169SAPE  H15X19084   0.276   1.740   3.764
  169SAPE  H15Y19085   0.211   1.637   3.642
  169SAPE  C31619086   0.139   1.602   3.844
  169SAPE  H16X19087   0.189   1.503   3.846
  169SAPE  H16Y19088   0.033   1.580   3.820
  169SAPE  C31719089   0.156   1.668   3.987
  169SAPE  H17X19090   0.139   1.777   3.975
  169SAPE  H17Y19091   0.257   1.659   4.032
  169SAPE  C31819092   0.066   1.604   4.094
  169SAPE  H18X19093   0.110   1.507   4.127
  169SAPE  H18Y19094   6.865   1.598   4.049
  169SAPE  H18Z19095   0.078   1.681   4.174
  170SAPE     N19096   0.546   3.023   2.014
  170SAPE   HN119097   0.574   2.927   1.985
  170SAPE   HN219098   0.615   3.051   2.087
  170SAPE   HN319099   0.451   3.019   2.056
  170SAPE   C1219100   0.558   3.124   1.909
  170SAPE  H12A19101   0.499   3.092   1.821
  170SAPE  H12B19102   0.663   3.132   1.873
  170SAPE   C1119103   0.513   3.266   1.958
  170SAPE  H11A19104   0.519   3.333   1.869
  170SAPE  H11B19105   0.587   3.310   2.028
  170SAPE     P19106   0.260   3.366   1.985
  170SAPE   O1319107   0.252   3.390   1.838
  170SAPE   O1419108   0.142   3.314   2.050
  170SAPE   O1219109   0.378   3.259   2.010
  170SAPE   O1119110   0.316   3.495   2.051
  170SAPE    C119111   0.386   3.468   2.178
  170SAPE    HA19112   0.424   3.366   2.198
  170SAPE    HB19113   0.478   3.531   2.177
  170SAPE    C219114   0.310   3.538   2.298
  170SAPE    HS19115   0.354   3.503   2.394
  170SAPE   O2119116   0.170   3.514   2.302
  170SAPE   C2119117   0.137   3.396   2.339
  170SAPE   O2219118   0.217   3.312   2.377
  170SAPE   C2219119   6.889   3.380   2.319
  170SAPE   H2R19120   6.835   3.476   2.329
  170SAPE   H2S19121   6.858   3.345   2.218
  170SAPE    C319122   0.320   3.694   2.288
  170SAPE    HX19123   0.277   3.720   2.189
  170SAPE    HY19124   0.428   3.718   2.277
  170SAPE   O3119125   0.267   3.765   2.403
  170SAPE   C3119126   0.163   3.851   2.381
  170SAPE   O3219127   0.105   3.866   2.276
  170SAPE   C3219128   0.146   3.938   2.506
  170SAPE   H2X19129   0.238   3.999   2.494
  170SAPE   H2Y19130   0.158   3.875   2.597
  170SAPE   C2319131   6.818   3.296   2.426
  170SAPE   H3R19132   6.843   3.188   2.423
  170SAPE   H3S19133   6.707   3.304   2.415
  170SAPE   C2419134   6.834   3.342   2.573
  170SAPE   H4R19135   0.036   3.323   2.612
  170SAPE   H4S19136   6.781   3.266   2.634
  170SAPE   C2519137   6.783   3.481   2.596
  170SAPE   H5R19138   6.701   3.508   2.527
  170SAPE   C2619139   6.850   3.579   2.668
  170SAPE   H6R19140   6.798   3.676   2.671
  170SAPE   C2719141   0.082   3.565   2.742
  170SAPE   H7R19142   0.156   3.640   2.707
  170SAPE   H7S19143   0.128   3.470   2.708
  170SAPE   C2819144   0.048   3.574   2.895
  170SAPE   H8R19145   6.890   3.661   2.928
  170SAPE   C2919146   0.076   3.483   2.990
  170SAPE   H9R19147   0.048   3.510   3.093
  170SAPE  C21019148   0.136   3.342   2.980
  170SAPE  H10R19149   0.226   3.352   3.044
  170SAPE  H10S19150   0.171   3.320   2.877
  170SAPE  C21119151   0.031   3.243   3.020
  170SAPE  H11R19152   6.880   3.197   2.935
  170SAPE  C21219153   0.014   3.193   3.145
  170SAPE  H12R19154   6.853   3.101   3.149
  170SAPE  C21319155   0.100   3.230   3.262
  170SAPE  H13R19156   0.203   3.260   3.231
  170SAPE  H13S19157   0.117   3.137   3.320
  170SAPE  C21419158   0.049   3.342   3.354
  170SAPE  H14R19159   0.076   3.442   3.318
  170SAPE  C21519160   6.873   3.333   3.461
  170SAPE  H15R19161   6.869   3.427   3.519
  170SAPE  C21619162   6.811   3.212   3.527
  170SAPE  H16R19163   6.816   3.136   3.446
  170SAPE  H16S19164   6.704   3.227   3.554
  170SAPE  C21719165   0.003   3.163   3.639
  170SAPE  H17R19166   0.111   3.155   3.615
  170SAPE  H17S19167   6.865   3.064   3.672
  170SAPE  C21819168   6.888   3.263   3.754
  170SAPE  H18R19169   6.781   3.269   3.782
  170SAPE  H18S19170   0.016   3.361   3.710
  170SAPE  C21919171   0.079   3.244   3.882
  170SAPE  H19R19172   0.059   3.329   3.951
  170SAPE  H19S19173   0.184   3.257   3.849
  170SAPE  C22019174   0.077   3.111   3.949
  170SAPE  H20R19175   0.136   3.037   3.891
  170SAPE  H20S19176   6.873   3.081   3.974
  170SAPE  H20T19177   0.123   3.126   4.049
  170SAPE   C3319178   0.012   4.013   2.516
  170SAPE   H3X19179   6.831   3.938   2.512
  170SAPE   H3Y19180   0.009   4.075   2.423
  170SAPE   C3419181   6.887   4.093   2.641
  170SAPE   H4X19182   6.780   4.121   2.650
  170SAPE   H4Y19183   0.033   4.194   2.646
  170SAPE   C3519184   0.015   4.025   2.778
  170SAPE   H5X19185   0.107   3.963   2.780
  170SAPE   H5Y19186   6.833   3.954   2.802
  170SAPE   C3619187   0.031   4.129   2.888
  170SAPE   H6X19188   6.837   4.186   2.903
  170SAPE   H6Y19189   0.109   4.195   2.846
  170SAPE   C3719190   0.072   4.065   3.025
  170SAPE   H7X19191   0.168   4.010   3.024
  170SAPE   H7Y19192   6.892   3.989   3.041
  170SAPE   C3819193   0.069   4.161   3.138
  170SAPE   H8X19194   6.870   4.210   3.132
  170SAPE   H8Y19195   0.143   4.242   3.120
  170SAPE   C3919196   0.102   4.108   3.271
  170SAPE   H9X19197   0.207   4.080   3.294
  170SAPE   H9Y19198   0.052   4.010   3.288
  170SAPE  C31019199   0.057   4.209   3.386
  170SAPE  H10X19200   6.850   4.234   3.375
  170SAPE  H10Y19201   0.119   4.301   3.375
  170SAPE  C31119202   0.073   4.153   3.529
  170SAPE  H11X19203   0.070   4.042   3.525
  170SAPE  H11Y19204   6.884   4.193   3.581
  170SAPE  C31219205   0.210   4.186   3.596
  170SAPE  H12X19206   0.214   4.297   3.598
  170SAPE  H12Y19207   0.298   4.156   3.536
  170SAPE  C31319208   0.214   4.133   3.739
  170SAPE  H13X19209   0.306   4.182   3.779
  170SAPE  H13Y19210   0.226   4.023   3.745
  170SAPE  C31419211   0.104   4.178   3.829
  170SAPE  H14X19212   0.007   4.124   3.816
  170SAPE  H14Y19213   0.087   4.286   3.812
  170SAPE  C31519214   0.145   4.161   3.973
  170SAPE  H15X19215   0.233   4.222   4.001
  170SAPE  H15Y19216   0.168   4.054   3.990
  170SAPE  C31619217   0.029   4.207   4.066
  170SAPE  H16X19218   6.843   4.142   4.039
  170SAPE  H16Y19219   6.881   4.306   4.052
  170SAPE  C31719220   0.048   4.194   4.216
  170SAPE  H17X19221   0.144   4.242   4.245
  170SAPE  H17Y19222   0.076   4.086   4.224
  170SAPE  C31819223   6.836   4.223   4.313
  170SAPE  H18X19224   6.741   4.170   4.290
  170SAPE  H18Y19225   6.811   4.331   4.305
  170SAPE  H18Z19226   6.863   4.203   4.419
  171SAPE     N19227   0.072   3.068   2.123
  171SAPE   HN119228   0.122   3.157   2.102
  171SAPE   HN219229   0.095   3.009   2.041
  171SAPE   HN319230   6.871   3.088   2.131
  171SAPE   C1219231   0.134   3.017   2.246
  171SAPE  H12A19232   0.091   2.922   2.285
  171SAPE  H12B19233   0.127   3.081   2.337
  171SAPE   C1119234   0.280   2.987   2.208
  171SAPE  H11A19235   0.345   2.962   2.295
  171SAPE  H11B19236   0.326   3.084   2.179
  171SAPE     P19237   0.290   2.744   2.113
  171SAPE   O1319238   0.151   2.715   2.067
  171SAPE   O1419239   0.391   2.680   2.025
  171SAPE   O1219240   0.308   2.899   2.096
  171SAPE   O1119241   0.314   2.704   2.259
  171SAPE    C119242   0.429   2.619   2.291
  171SAPE    HA19243   0.416   2.517   2.250
  171SAPE    HB19244   0.526   2.660   2.255
  171SAPE    C219245   0.439   2.617   2.446
  171SAPE    HS19246   0.540   2.583   2.478
  171SAPE   O2119247   0.341   2.530   2.513
  171SAPE   C2119248   0.359   2.400   2.498
  171SAPE   O2219249   0.456   2.350   2.445
  171SAPE   C2219250   0.240   2.321   2.549
  171SAPE   H2R19251   0.150   2.380   2.521
  171SAPE   H2S19252   0.237   2.226   2.491
  171SAPE    C319253   0.429   2.760   2.500
  171SAPE    HX19254   0.332   2.810   2.478
  171SAPE    HY19255   0.505   2.827   2.454
  171SAPE   O3119256   0.452   2.765   2.639
  171SAPE   C3119257   0.344   2.760   2.720
  171SAPE   O3219258   0.228   2.752   2.688
  171SAPE   C3219259   0.387   2.755   2.860
  171SAPE   H2X19260   0.492   2.788   2.875
  171SAPE   H2Y19261   0.387   2.646   2.881
  171SAPE   C2319262   0.244   2.300   2.701
  171SAPE   H3R19263   0.214   2.402   2.734
  171SAPE   H3S19264   0.345   2.279   2.742
  171SAPE   C2419265   0.136   2.201   2.753
  171SAPE   H4R19266   0.055   2.223   2.680
  171SAPE   H4S19267   0.110   2.224   2.858
  171SAPE   C2519268   0.183   2.062   2.746
  171SAPE   H5R19269   0.165   1.994   2.661
  171SAPE   C2619270   0.256   1.993   2.844
  171SAPE   H6R19271   0.274   1.884   2.836
  171SAPE   C2719272   0.292   2.041   2.975
  171SAPE   H7R19273   0.216   2.117   3.002
  171SAPE   H7S19274   0.389   2.095   2.983
  171SAPE   C2819275   0.276   1.938   3.087
  171SAPE   H8R19276   0.181   1.884   3.085
  171SAPE   C2919277   0.375   1.876   3.150
  171SAPE   H9R19278   0.353   1.804   3.231
  171SAPE  C21019279   0.517   1.923   3.141
  171SAPE  H10R19280   0.531   2.027   3.179
  171SAPE  H10S19281   0.537   1.928   3.032
  171SAPE  C21119282   0.611   1.823   3.213
  171SAPE  H11R19283   0.639   1.735   3.153
  171SAPE  C21219284   0.656   1.824   3.338
  171SAPE  H12R19285   0.719   1.739   3.369
  171SAPE  C21319286   0.618   1.934   3.436
  171SAPE  H13R19287   0.554   1.887   3.515
  171SAPE  H13S19288   0.555   2.010   3.386
  171SAPE  C21419289   0.731   2.007   3.500
  171SAPE  H14R19290   0.777   2.089   3.443
  171SAPE  C21519291   0.775   1.983   3.625
  171SAPE  H15R19292   0.866   2.032   3.663
  171SAPE  C21619293   0.726   1.884   3.725
  171SAPE  H16R19294   0.636   1.828   3.692
  171SAPE  H16S19295   0.667   1.939   3.802
  171SAPE  C21719296   0.850   1.801   3.767
  171SAPE  H17R19297   0.931   1.869   3.802
  171SAPE  H17S19298   0.901   1.758   3.678
  171SAPE  C21819299   0.838   1.679   3.861
  171SAPE  H18R19300   0.842   1.714   3.966
  171SAPE  H18S19301   0.920   1.608   3.839
  171SAPE  C21919302   0.705   1.609   3.853
  171SAPE  H19R19303   0.624   1.685   3.843
  171SAPE  H19S19304   0.688   1.558   3.950
  171SAPE  C22019305   0.710   1.509   3.744
  171SAPE  H20R19306   0.741   1.409   3.781
  171SAPE  H20S19307   0.775   1.537   3.659
  171SAPE  H20T19308   0.611   1.496   3.696
  171SAPE   C3319309   0.285   2.815   2.964
  171SAPE   H3X19310   0.183   2.810   2.921
  171SAPE   H3Y19311   0.308   2.922   2.983
  171SAPE   C3419312   0.281   2.745   3.099
  171SAPE   H4X19313   0.383   2.769   3.137
  171SAPE   H4Y19314   0.249   2.639   3.089
  171SAPE   C3519315   0.177   2.798   3.199
  171SAPE   H5X19316   0.076   2.799   3.153
  171SAPE   H5Y19317   0.212   2.900   3.225
  171SAPE   C3619318   0.182   2.722   3.330
  171SAPE   H6X19319   0.285   2.716   3.370
  171SAPE   H6Y19320   0.145   2.620   3.304
  171SAPE   C3719321   0.088   2.778   3.432
  171SAPE   H7X19322   6.887   2.792   3.388
  171SAPE   H7Y19323   0.124   2.877   3.466
  171SAPE   C3819324   0.084   2.682   3.548
  171SAPE   H8X19325   0.176   2.627   3.576
  171SAPE   H8Y19326   0.013   2.598   3.527
  171SAPE   C3919327   0.039   2.758   3.674
  171SAPE   H9X19328   6.847   2.814   3.646
  171SAPE   H9Y19329   0.097   2.849   3.703
  171SAPE  C31019330   6.892   2.669   3.792
  171SAPE  H10X19331   0.081   2.615   3.831
  171SAPE  H10Y19332   6.826   2.594   3.744
  171SAPE  C31119333   6.824   2.748   3.900
  171SAPE  H11X19334   6.741   2.800   3.846
  171SAPE  H11Y19335   6.889   2.823   3.951
  171SAPE  C31219336   6.772   2.663   4.014
  171SAPE  H12X19337   6.703   2.728   4.073
  171SAPE  H12Y19338   6.864   2.634   4.068
  171SAPE  C31319339   6.697   2.535   3.980
  171SAPE  H13X19340   6.655   2.484   4.070
  171SAPE  H13Y19341   6.764   2.460   3.934
  171SAPE  C31419342   6.588   2.549   3.873
  171SAPE  H14X19343   6.626   2.602   3.783
  171SAPE  H14Y19344   6.510   2.620   3.908
  171SAPE  C31519345   6.509   2.413   3.849
  171SAPE  H15X19346   6.429   2.427   3.774
  171SAPE  H15Y19347   6.454   2.393   3.944
  171SAPE  C31619348   6.610   2.305   3.808
  171SAPE  H16X19349   6.663   2.260   3.894
  171SAPE  H16Y19350   6.690   2.353   3.748
  171SAPE  C31719351   6.541   2.197   3.726
  171SAPE  H17X19352   6.480   2.252   3.651
  171SAPE  H17Y19353   6.463   2.147   3.788
  171SAPE  C31819354   6.637   2.106   3.654
  171SAPE  H18X19355   6.690   2.047   3.731
  171SAPE  H18Y19356   6.709   2.163   3.591
  171SAPE  H18Z19357   6.581   2.034   3.589
  172SAPE     N19358   0.539   5.505   1.709
  172SAPE   HN119359   0.616   5.555   1.661
  172SAPE   HN219360   0.495   5.462   1.625
  172SAPE   HN319361   0.465   5.566   1.751
  172SAPE   C1219362   0.595   5.402   1.807
  172SAPE  H12A19363   0.689   5.363   1.762
  172SAPE  H12B19364   0.520   5.321   1.818
  172SAPE   C1119365   0.630   5.467   1.941
  172SAPE  H11A19366   0.712   5.540   1.924
  172SAPE  H11B19367   0.665   5.383   2.004
  172SAPE     P19368   0.414   5.501   2.099
  172SAPE   O1319369   0.310   5.608   2.112
  172SAPE   O1419370   0.364   5.366   2.050
  172SAPE   O1219371   0.527   5.548   1.997
  172SAPE   O1119372   0.482   5.472   2.244
  172SAPE    C119373   0.623   5.484   2.269
  172SAPE    HA19374   0.681   5.390   2.252
  172SAPE    HB19375   0.654   5.576   2.215
  172SAPE    C219376   0.649   5.519   2.419
  172SAPE    HS19377   0.623   5.421   2.465
  172SAPE   O2119378   0.554   5.601   2.479
  172SAPE   C2119379   0.532   5.713   2.422
  172SAPE   O2219380   0.600   5.774   2.339
  172SAPE   C2219381   0.414   5.782   2.502
  172SAPE   H2R19382   0.320   5.733   2.469
  172SAPE   H2S19383   0.441   5.773   2.609
  172SAPE    C319384   0.791   5.552   2.466
  172SAPE    HX19385   0.821   5.650   2.422
  172SAPE    HY19386   0.857   5.479   2.414
  172SAPE   O3119387   0.796   5.555   2.608
  172SAPE   C3119388   0.924   5.554   2.650
  172SAPE   O3219389   1.017   5.541   2.572
  172SAPE   C3219390   0.928   5.567   2.805
  172SAPE   H2X19391   0.961   5.671   2.828
  172SAPE   H2Y19392   1.015   5.501   2.826
  172SAPE   C2319393   0.404   5.932   2.483
  172SAPE   H3R19394   0.380   5.970   2.381
  172SAPE   H3S19395   0.503   5.979   2.499
  172SAPE   C2419396   0.315   5.997   2.592
  172SAPE   H4R19397   0.303   6.106   2.574
  172SAPE   H4S19398   0.361   5.989   2.693
  172SAPE   C2519399   0.178   5.930   2.592
  172SAPE   H5R19400   0.142   5.919   2.488
  172SAPE   C2619401   0.103   5.886   2.696
  172SAPE   H6R19402   0.012   5.828   2.676
  172SAPE   C2719403   0.142   5.901   2.840
  172SAPE   H7R19404   0.074   5.978   2.881
  172SAPE   H7S19405   0.237   5.956   2.857
  172SAPE   C2819406   0.132   5.772   2.920
  172SAPE   H8R19407   0.076   5.691   2.871
  172SAPE   C2919408   0.184   5.748   3.039
  172SAPE   H9R19409   0.173   5.649   3.085
  172SAPE  C21019410   0.263   5.857   3.113
  172SAPE  H10R19411   0.195   5.935   3.153
  172SAPE  H10S19412   0.340   5.904   3.048
  172SAPE  C21119413   0.343   5.805   3.224
  172SAPE  H11R19414   0.431   5.751   3.185
  172SAPE  C21219415   0.325   5.815   3.355
  172SAPE  H12R19416   0.395   5.763   3.422
  172SAPE  C21319417   0.218   5.891   3.434
  172SAPE  H13R19418   0.171   5.959   3.360
  172SAPE  H13S19419   0.256   5.957   3.515
  172SAPE  C21419420   0.109   5.799   3.496
  172SAPE  H14R19421   0.143   5.695   3.511
  172SAPE  C21519422   6.891   5.833   3.544
  172SAPE  H15R19423   6.824   5.752   3.577
  172SAPE  C21619424   6.828   5.968   3.534
  172SAPE  H16R19425   6.729   5.960   3.486
  172SAPE  H16S19426   6.884   6.039   3.470
  172SAPE  C21719427   6.795   6.012   3.679
  172SAPE  H17R19428   6.740   5.930   3.731
  172SAPE  H17S19429   6.731   6.103   3.675
  172SAPE  C21819430   0.021   6.045   3.759
  172SAPE  H18R19431   0.090   6.106   3.698
  172SAPE  H18S19432   0.081   5.960   3.799
  172SAPE  C21919433   6.879   6.122   3.890
  172SAPE  H19R19434   6.804   6.063   3.948
  172SAPE  H19S19435   6.821   6.214   3.869
  172SAPE  C22019436   0.101   6.142   3.984
  172SAPE  H20R19437   0.169   6.215   3.935
  172SAPE  H20S19438   0.161   6.049   3.991
  172SAPE  H20T19439   0.064   6.177   4.083
  172SAPE   C3319440   0.806   5.521   2.897
  172SAPE   H3X19441   0.781   5.420   2.857
  172SAPE   H3Y19442   0.722   5.591   2.877
  172SAPE   C3419443   0.842   5.534   3.045
  172SAPE   H4X19444   0.910   5.619   3.064
  172SAPE   H4Y19445   0.885   5.437   3.079
  172SAPE   C3519446   0.723   5.571   3.140
  172SAPE   H5X19447   0.665   5.478   3.159
  172SAPE   H5Y19448   0.662   5.641   3.079
  172SAPE   C3619449   0.780   5.627   3.274
  172SAPE   H6X19450   0.857   5.704   3.251
  172SAPE   H6Y19451   0.845   5.551   3.324
  172SAPE   C3719452   0.672   5.673   3.373
  172SAPE   H7X19453   0.589   5.600   3.385
  172SAPE   H7Y19454   0.637   5.767   3.325
  172SAPE   C3819455   0.741   5.723   3.505
  172SAPE   H8X19456   0.833   5.775   3.472
  172SAPE   H8Y19457   0.774   5.634   3.563
  172SAPE   C3919458   0.661   5.819   3.585
  172SAPE   H9X19459   0.569   5.763   3.612
  172SAPE   H9Y19460   0.636   5.908   3.522
  172SAPE  C31019461   0.739   5.879   3.703
  172SAPE  H10X19462   0.712   5.978   3.745
  172SAPE  H10Y19463   0.846   5.875   3.674
  172SAPE  C31119464   0.718   5.792   3.827
  172SAPE  H11X19465   0.610   5.804   3.851
  172SAPE  H11Y19466   0.783   5.833   3.907
  172SAPE  C31219467   0.766   5.638   3.829
  172SAPE  H12X19468   0.865   5.642   3.778
  172SAPE  H12Y19469   0.697   5.578   3.766
  172SAPE  C31319470   0.795   5.591   3.973
  172SAPE  H13X19471   0.700   5.620   4.023
  172SAPE  H13Y19472   0.882   5.650   4.010
  172SAPE  C31419473   0.816   5.437   3.987
  172SAPE  H14X19474   0.922   5.419   3.960
  172SAPE  H14Y19475   0.749   5.379   3.920
  172SAPE  C31519476   0.790   5.397   4.129
  172SAPE  H15X19477   0.683   5.415   4.153
  172SAPE  H15Y19478   0.864   5.445   4.198
  172SAPE  C31619479   0.821   5.247   4.153
  172SAPE  H16X19480   0.924   5.233   4.115
  172SAPE  H16Y19481   0.754   5.179   4.096
  172SAPE  C31719482   0.814   5.204   4.304
  172SAPE  H17X19483   0.712   5.207   4.348
  172SAPE  H17Y19484   0.880   5.269   4.366
  172SAPE  C31819485   0.869   5.064   4.335
  172SAPE  H18X19486   0.980   5.062   4.345
  172SAPE  H18Y19487   0.845   5.002   4.246
  172SAPE  H18Z19488   0.816   5.036   4.429
  173SLPC     N19489   5.631   6.630   6.505
  173SLPC   C1319490   5.710   6.691   6.628
  173SLPC  H13A19491   5.649   6.669   6.715
  173SLPC  H13B19492   5.809   6.648   6.635
  173SLPC  H13C19493   5.717   6.798   6.635
  173SLPC   C1419494   5.498   6.699   6.480
  173SLPC  H14A19495   5.441   6.645   6.407
  173SLPC  H14B19496   5.441   6.701   6.572
  173SLPC  H14C19497   5.507   6.804   6.455
  173SLPC   C1519498   5.606   6.491   6.538
  173SLPC  H15A19499   5.590   6.488   6.645
  173SLPC  H15B19500   5.519   6.451   6.488
  173SLPC  H15C19501   5.694   6.430   6.523
  173SLPC   C1219502   5.727   6.647   6.396
  173SLPC  H12A19503   5.826   6.604   6.406
  173SLPC  H12B19504   5.753   6.752   6.386
  173SLPC   C1119505   5.678   6.593   6.265
  173SLPC  H11A19506   5.572   6.619   6.239
  173SLPC  H11B19507   5.686   6.483   6.270
  173SLPC     P19508   5.834   6.586   6.056
  173SLPC   O1319509   5.967   6.551   6.108
  173SLPC   O1419510   5.761   6.470   5.996
  173SLPC   O1219511   5.745   6.666   6.158
  173SLPC   O1119512   5.861   6.697   5.944
  173SLPC    C119513   5.737   6.731   5.869
  173SLPC    HA19514   5.692   6.642   5.821
  173SLPC    HB19515   5.669   6.786   5.937
  173SLPC    C219516   5.767   6.849   5.768
  173SLPC    HS19517   5.665   6.891   5.761
  173SLPC   O2119518   5.814   6.787   5.653
  173SLPC   C2119519   5.801   6.862   5.545
  173SLPC   O2219520   5.731   0.060   5.531
  173SLPC   C2219521   5.881   6.797   5.434
  173SLPC   H2R19522   5.990   6.818   5.441
  173SLPC   H2S19523   5.869   6.687   5.445
  173SLPC    C319524   5.865   0.057   5.826
  173SLPC    HX19525   5.968   0.023   5.801
  173SLPC    HY19526   5.849   0.067   5.936
  173SLPC   O3119527   5.840   0.188   5.766
  173SLPC   C3119528   5.745   0.263   5.804
  173SLPC   O3219529   5.660   0.239   5.886
  173SLPC   C3219530   5.743   0.395   5.724
  173SLPC   H2X19531   5.646   0.409   5.672
  173SLPC   H2Y19532   5.825   0.386   5.649
  173SLPC   C2319533   5.822   6.843   5.300
  173SLPC   H3R19534   5.825   0.053   5.287
  173SLPC   H3S19535   5.716   6.811   5.292
  173SLPC   C2419536   5.895   6.788   5.181
  173SLPC   H4R19537   6.004   6.801   5.199
  173SLPC   H4S19538   5.861   6.847   5.094
  173SLPC   C2519539   5.886   6.631   5.173
  173SLPC   H5R19540   5.779   6.603   5.164
  173SLPC   H5S19541   5.928   6.587   5.265
  173SLPC   C2619542   5.955   6.562   5.054
  173SLPC   H6R19543   5.923   6.629   4.971
  173SLPC   H6S19544   5.907   6.463   5.039
  173SLPC   C2719545   6.106   6.552   5.068
  173SLPC   H7R19546   6.124   6.481   5.151
  173SLPC   H7S19547   6.142   6.649   5.107
  173SLPC   C2819548   6.183   6.490   4.945
  173SLPC   H8R19549   6.131   6.532   4.856
  173SLPC   H8S19550   6.156   6.383   4.955
  173SLPC   C2919551   6.332   6.510   4.940
  173SLPC   H9R19552   6.382   6.514   5.038
  173SLPC  C21019553   6.411   6.540   4.838
  173SLPC  H10R19554   6.513   6.552   4.876
  173SLPC  C21119555   6.368   6.554   4.694
  173SLPC  H11R19556   6.281   6.623   4.691
  173SLPC  H11S19557   6.326   6.455   4.666
  173SLPC  C21219558   6.472   6.587   4.591
  173SLPC  H12R19559   6.511   6.688   4.611
  173SLPC  C21319560   6.528   6.520   4.491
  173SLPC  H13R19561   6.588   6.569   4.412
  173SLPC  C21419562   6.493   6.381   4.451
  173SLPC  H14R19563   6.390   6.358   4.486
  173SLPC  H14S19564   6.571   6.316   4.496
  173SLPC  C21519565   6.503   6.357   4.303
  173SLPC  H15R19566   6.607   6.378   4.271
  173SLPC  H15S19567   6.424   6.427   4.267
  173SLPC  C21619568   6.464   6.209   4.267
  173SLPC  H16R19569   6.362   6.182   4.301
  173SLPC  H16S19570   6.544   6.148   4.313
  173SLPC  C21719571   6.478   6.187   4.117
  173SLPC  H17R19572   6.571   6.229   4.073
  173SLPC  H17S19573   6.390   6.233   4.067
  173SLPC  C21819574   6.495   6.041   4.081
  173SLPC  H18R19575   6.421   5.974   4.131
  173SLPC  H18S19576   6.593   5.995   4.103
  173SLPC  H18T19577   6.467   6.031   3.974
  173SLPC   C3319578   5.791   0.512   5.814
  173SLPC   H3X19579   5.886   0.480   5.862
  173SLPC   H3Y19580   5.721   0.533   5.898
  173SLPC   C3419581   5.815   0.632   5.741
  173SLPC   H4X19582   5.887   0.622   5.657
  173SLPC   H4Y19583   5.860   0.699   5.818
  173SLPC   C3519584   5.688   0.705   5.678
  173SLPC   H5X19585   5.608   0.717   5.754
  173SLPC   H5Y19586   5.651   0.643   5.593
  173SLPC   C3619587   5.724   0.847   5.623
  173SLPC   H6X19588   5.775   0.905   5.702
  173SLPC   H6Y19589   5.631   0.906   5.613
  173SLPC   C3719590   5.815   0.858   5.493
  173SLPC   H7X19591   5.770   0.807   5.405
  173SLPC   H7Y19592   5.909   0.802   5.514
  173SLPC   C3819593   5.860   0.997   5.450
  173SLPC   H8X19594   5.918   1.043   5.533
  173SLPC   H8Y19595   5.765   1.056   5.443
  173SLPC   C3919596   5.951   0.997   5.329
  173SLPC   H9X19597   6.031   0.920   5.339
  173SLPC   H9Y19598   6.023   1.082   5.324
  173SLPC  C31019599   5.875   0.972   5.193
  173SLPC  H10X19600   5.833   1.065   5.150
  173SLPC  H10Y19601   5.802   0.890   5.211
  173SLPC  C31119602   5.971   0.901   5.097
  173SLPC  H11X19603   6.026   0.821   5.152
  173SLPC  H11Y19604   6.051   0.971   5.064
  173SLPC  C31219605   5.904   0.839   4.970
  173SLPC  H12X19606   5.855   0.918   4.909
  173SLPC  H12Y19607   5.840   0.755   5.004
  173SLPC  C31319608   6.006   0.777   4.879
  173SLPC  H13X19609   6.069   0.708   4.939
  173SLPC  H13Y19610   6.085   0.847   4.844
  173SLPC  C31419611   5.940   0.708   4.757
  173SLPC  H14X19612   6.022   0.697   4.683
  173SLPC  H14Y19613   5.863   0.770   4.706
  173SLPC  C31519614   5.883   0.571   4.803
  173SLPC  H15X19615   5.788   0.581   4.858
  173SLPC  H15Y19616   5.944   0.513   4.875
  173SLPC  C31619617   5.866   0.485   4.674
  173SLPC  H16X19618   5.855   0.380   4.707
  173SLPC  H16Y19619   5.955   0.509   4.612
  173SLPC  C31719620   5.744   0.533   4.596
  173SLPC  H17X19621   5.744   0.642   4.576
  173SLPC  H17Y19622   5.649   0.523   4.654
  173SLPC  C31819623   5.731   0.467   4.463
  173SLPC  H18X19624   5.627   0.480   4.427
  173SLPC  H18Y19625   5.741   0.356   4.465
  173SLPC  H18Z19626   5.800   0.519   4.393
  174SLPC     N19627   2.141   2.646   6.755
  174SLPC   C1319628   2.108   2.514   6.820
  174SLPC  H13A19629   2.141   2.503   6.923
  174SLPC  H13B19630   2.000   2.506   6.818
  174SLPC  H13C19631   2.155   2.437   6.762
  174SLPC   C1419632   2.083   2.753   6.845
  174SLPC  H14A19633   1.977   2.731   6.842
  174SLPC  H14B19634   2.108   2.748   6.949
  174SLPC  H14C19635   2.107   2.853   6.813
  174SLPC   C1519636   2.083   2.644   6.621
  174SLPC  H15A19637   2.083   2.745   6.583
  174SLPC  H15B19638   2.140   2.581   6.555
  174SLPC  H15C19639   1.978   2.619   6.620
  174SLPC   C1219640   2.296   2.669   6.747
  174SLPC  H12A19641   2.334   2.650   6.846
  174SLPC  H12B19642   2.325   2.769   6.719
  174SLPC   C1119643   2.378   2.575   6.658
  174SLPC  H11A19644   2.484   2.609   6.660
  174SLPC  H11B19645   2.342   2.585   6.553
  174SLPC     P19646   2.356   2.317   6.609
  174SLPC   O1319647   2.397   2.196   6.688
  174SLPC   O1419648   2.224   2.317   6.547
  174SLPC   O1219649   2.374   2.439   6.698
  174SLPC   O1119650   2.467   2.341   6.502
  174SLPC    C119651   2.611   2.335   6.526
  174SLPC    HA19652   2.634   2.383   6.624
  174SLPC    HB19653   2.662   2.236   6.525
  174SLPC    C219654   2.679   2.429   6.425
  174SLPC    HS19655   2.641   2.533   6.442
  174SLPC   O2119656   2.667   2.372   6.295
  174SLPC   C2119657   2.644   2.456   6.197
  174SLPC   O2219658   2.609   2.573   6.209
  174SLPC   C2219659   2.656   2.380   6.064
  174SLPC   H2R19660   2.698   2.281   6.090
  174SLPC   H2S19661   2.554   2.352   6.031
  174SLPC    C319662   2.826   2.442   6.464
  174SLPC    HX19663   2.865   2.339   6.479
  174SLPC    HY19664   2.824   2.494   6.562
  174SLPC   O3119665   2.910   2.506   6.361
  174SLPC   C3119666   2.912   2.640   6.382
  174SLPC   O3219667   2.855   2.694   6.474
  174SLPC   C3219668   2.995   2.715   6.280
  174SLPC   H2X19669   3.101   2.698   6.308
  174SLPC   H2Y19670   2.975   2.824   6.295
  174SLPC   C2319671   2.720   2.447   5.940
  174SLPC   H3R19672   2.825   2.412   5.944
  174SLPC   H3S19673   2.709   2.557   5.941
  174SLPC   C2419674   2.665   2.395   5.809
  174SLPC   H4R19675   2.562   2.431   5.791
  174SLPC   H4S19676   2.647   2.287   5.823
  174SLPC   C2519677   2.759   2.440   5.698
  174SLPC   H5R19678   2.859   2.392   5.705
  174SLPC   H5S19679   2.760   2.551   5.708
  174SLPC   C2619680   2.690   2.418   5.562
  174SLPC   H6R19681   2.610   2.495   5.555
  174SLPC   H6S19682   2.633   2.323   5.569
  174SLPC   C2719683   2.780   2.416   5.435
  174SLPC   H7R19684   2.810   2.310   5.421
  174SLPC   H7S19685   2.868   2.479   5.460
  174SLPC   C2819686   2.715   2.452   5.302
  174SLPC   H8R19687   2.707   2.563   5.303
  174SLPC   H8S19688   2.615   2.408   5.284
  174SLPC   C2919689   2.808   2.424   5.184
  174SLPC   H9R19690   2.903   2.477   5.198
  174SLPC  C21019691   2.801   2.328   5.093
  174SLPC  H10R19692   2.888   2.313   5.029
  174SLPC  C21119693   2.679   2.243   5.078
  174SLPC  H11R19694   2.594   2.294   5.129
  174SLPC  H11S19695   2.698   2.153   5.141
  174SLPC  C21219696   2.632   2.215   4.939
  174SLPC  H12R19697   2.659   2.111   4.912
  174SLPC  C21319698   2.595   2.303   4.845
  174SLPC  H13R19699   2.578   2.259   4.746
  174SLPC  C21419700   2.605   2.457   4.856
  174SLPC  H14R19701   2.587   2.497   4.958
  174SLPC  H14S19702   2.533   2.495   4.781
  174SLPC  C21519703   2.732   2.494   4.799
  174SLPC  H15R19704   2.823   2.467   4.856
  174SLPC  H15S19705   2.734   2.605   4.796
  174SLPC  C21619706   2.758   2.438   4.655
  174SLPC  H16R19707   2.667   2.467   4.596
  174SLPC  H16S19708   2.775   2.329   4.655
  174SLPC  C21719709   2.879   2.516   4.593
  174SLPC  H17R19710   2.976   2.491   4.640
  174SLPC  H17S19711   2.853   2.623   4.601
  174SLPC  C21819712   2.904   2.495   4.444
  174SLPC  H18R19713   2.975   2.409   4.443
  174SLPC  H18S19714   2.958   2.586   4.410
  174SLPC  H18T19715   2.807   2.465   4.400
  174SLPC   C3319716   2.966   2.672   6.140
  174SLPC   H3X19717   2.856   2.658   6.134
  174SLPC   H3Y19718   3.009   2.572   6.119
  174SLPC   C3419719   3.027   2.765   6.039
  174SLPC   H4X19720   3.138   2.766   6.039
  174SLPC   H4Y19721   2.990   2.866   6.066
  174SLPC   C3519722   2.964   2.729   5.902
  174SLPC   H5X19723   2.854   2.737   5.913
  174SLPC   H5Y19724   2.975   2.619   5.886
  174SLPC   C3619725   3.022   2.803   5.778
  174SLPC   H6X19726   3.131   2.783   5.783
  174SLPC   H6Y19727   3.010   2.913   5.784
  174SLPC   C3719728   2.968   2.745   5.648
  174SLPC   H7X19729   2.859   2.761   5.643
  174SLPC   H7Y19730   2.987   2.636   5.647
  174SLPC   C3819731   3.036   2.810   5.527
  174SLPC   H8X19732   3.145   2.787   5.529
  174SLPC   H8Y19733   3.029   2.919   5.547
  174SLPC   C3919734   2.980   2.757   5.394
  174SLPC   H9X19735   2.869   2.756   5.394
  174SLPC   H9Y19736   3.018   2.653   5.390
  174SLPC  C31019737   3.038   2.832   5.272
  174SLPC  H10X19738   3.144   2.858   5.290
  174SLPC  H10Y19739   2.988   2.931   5.270
  174SLPC  C31119740   3.016   2.765   5.128
  174SLPC  H11X19741   2.910   2.775   5.097
  174SLPC  H11Y19742   3.059   2.663   5.142
  174SLPC  C31219743   3.119   2.820   5.021
  174SLPC  H12X19744   3.219   2.815   5.068
  174SLPC  H12Y19745   3.096   2.928   5.014
  174SLPC  C31319746   3.098   2.737   4.892
  174SLPC  H13X19747   2.996   2.761   4.855
  174SLPC  H13Y19748   3.099   2.630   4.922
  174SLPC  C31419749   3.204   2.782   4.789
  174SLPC  H14X19750   3.303   2.749   4.829
  174SLPC  H14Y19751   3.205   2.893   4.792
  174SLPC  C31519752   3.176   2.735   4.649
  174SLPC  H15X19753   3.078   2.773   4.613
  174SLPC  H15Y19754   3.166   2.625   4.662
  174SLPC  C31619755   3.285   2.754   4.550
  174SLPC  H16X19756   3.289   2.861   4.519
  174SLPC  H16Y19757   3.257   2.691   4.463
  174SLPC  C31719758   3.428   2.702   4.584
  174SLPC  H17X19759   3.422   2.603   4.634
  174SLPC  H17Y19760   3.469   2.774   4.659
  174SLPC  C31819761   3.519   2.675   4.462
  174SLPC  H18X19762   3.477   2.592   4.401
  174SLPC  H18Y19763   3.616   2.641   4.504
  174SLPC  H18Z19764   3.514   2.769   4.403
  175SLPC     N19765   5.267   3.589   7.179
  175SLPC   C1319766   5.156   3.693   7.191
  175SLPC  H13A19767   5.116   3.693   7.291
  175SLPC  H13B19768   5.193   3.792   7.166
  175SLPC  H13C19769   5.081   3.668   7.118
  175SLPC   C1419770   5.240   3.476   7.262
  175SLPC  H14A19771   5.331   3.417   7.269
  175SLPC  H14B19772   5.213   3.496   7.364
  175SLPC  H14C19773   5.167   3.411   7.216
  175SLPC   C1519774   5.397   3.654   7.220
  175SLPC  H15A19775   5.409   3.740   7.155
  175SLPC  H15B19776   5.398   3.697   7.319
  175SLPC  H15C19777   5.484   3.590   7.211
  175SLPC   C1219778   5.276   3.548   7.034
  175SLPC  H12A19779   5.307   3.633   6.976
  175SLPC  H12B19780   5.182   3.517   6.992
  175SLPC   C1119781   5.379   3.438   6.996
  175SLPC  H11A19782   5.368   3.426   6.886
  175SLPC  H11B19783   5.354   3.343   7.047
  175SLPC     P19784   5.604   3.576   6.944
  175SLPC   O1319785   5.546   3.710   6.953
  175SLPC   O1419786   5.747   3.555   6.995
  175SLPC   O1219787   5.513   3.475   7.028
  175SLPC   O1119788   5.607   3.522   6.792
  175SLPC    C119789   5.638   3.394   6.755
  175SLPC    HA19790   5.747   3.379   6.768
  175SLPC    HB19791   5.588   3.316   6.815
  175SLPC    C219792   5.596   3.374   6.609
  175SLPC    HS19793   5.594   3.263   6.601
  175SLPC   O2119794   5.700   3.429   6.526
  175SLPC   C2119795   5.804   3.344   6.520
  175SLPC   O2219796   5.814   3.233   6.576
  175SLPC   C2219797   5.924   3.411   6.439
  175SLPC   H2R19798   5.976   3.478   6.511
  175SLPC   H2S19799   5.989   3.323   6.418
  175SLPC    C319800   5.448   3.438   6.572
  175SLPC    HX19801   5.452   3.546   6.600
  175SLPC    HY19802   5.376   3.381   6.634
  175SLPC   O3119803   5.417   3.422   6.431
  175SLPC   C3119804   5.304   3.473   6.403
  175SLPC   O3219805   5.230   3.530   6.484
  175SLPC   C3219806   5.267   3.441   6.253
  175SLPC   H2X19807   5.161   3.464   6.228
  175SLPC   H2Y19808   5.274   3.331   6.243
  175SLPC   C2319809   5.872   3.487   6.313
  175SLPC   H3R19810   5.845   3.589   6.346
  175SLPC   H3S19811   5.783   3.435   6.273
  175SLPC   C2419812   5.977   3.506   6.202
  175SLPC   H4R19813   6.057   3.573   6.240
  175SLPC   H4S19814   5.925   3.563   6.122
  175SLPC   C2519815   6.033   3.371   6.164
  175SLPC   H5R19816   5.957   3.291   6.172
  175SLPC   H5S19817   6.115   3.346   6.236
  175SLPC   C2619818   6.088   3.376   6.023
  175SLPC   H6R19819   6.012   3.403   5.946
  175SLPC   H6S19820   6.133   3.277   6.001
  175SLPC   C2719821   6.208   3.477   6.015
  175SLPC   H7R19822   6.281   3.444   6.092
  175SLPC   H7S19823   6.177   3.583   6.021
  175SLPC   C2819824   6.275   3.454   5.872
  175SLPC   H8R19825   6.297   3.346   5.863
  175SLPC   H8S19826   6.373   3.506   5.863
  175SLPC   C2919827   6.182   3.510   5.764
  175SLPC   H9R19828   6.144   3.610   5.792
  175SLPC  C21019829   6.145   3.450   5.650
  175SLPC  H10R19830   6.096   3.514   5.575
  175SLPC  C21119831   6.174   3.307   5.604
  175SLPC  H11R19832   6.210   3.241   5.686
  175SLPC  H11S19833   6.260   3.304   5.533
  175SLPC  C21219834   6.054   3.244   5.541
  175SLPC  H12R19835   5.965   3.235   5.605
  175SLPC  C21319836   6.045   3.200   5.412
  175SLPC  H13R19837   5.953   3.146   5.384
  175SLPC  C21419838   6.155   3.204   5.311
  175SLPC  H14R19839   6.202   3.104   5.300
  175SLPC  H14S19840   6.227   3.288   5.328
  175SLPC  C21519841   6.107   3.243   5.169
  175SLPC  H15R19842   6.050   3.338   5.166
  175SLPC  H15S19843   6.040   3.159   5.139
  175SLPC  C21619844   6.213   3.233   5.057
  175SLPC  H16R19845   6.269   3.138   5.065
  175SLPC  H16S19846   6.298   3.302   5.073
  175SLPC  C21719847   6.173   3.265   4.913
  175SLPC  H17R19848   6.270   3.273   4.859
  175SLPC  H17S19849   6.121   3.363   4.914
  175SLPC  C21819850   6.084   3.157   4.839
  175SLPC  H18R19851   6.044   3.182   4.739
  175SLPC  H18S19852   5.992   3.143   4.900
  175SLPC  H18T19853   6.140   3.061   4.835
  175SLPC   C3319854   5.369   3.521   6.163
  175SLPC   H3X19855   5.466   3.477   6.193
  175SLPC   H3Y19856   5.367   3.631   6.176
  175SLPC   C3419857   5.342   3.498   6.015
  175SLPC   H4X19858   5.251   3.553   5.985
  175SLPC   H4Y19859   5.323   3.391   5.992
  175SLPC   C3519860   5.458   3.529   5.920
  175SLPC   H5X19861   5.544   3.467   5.955
  175SLPC   H5Y19862   5.493   3.634   5.935
  175SLPC   C3619863   5.435   3.495   5.769
  175SLPC   H6X19864   5.355   3.565   5.737
  175SLPC   H6Y19865   5.404   3.388   5.759
  175SLPC   C3719866   5.561   3.533   5.690
  175SLPC   H7X19867   5.640   3.482   5.748
  175SLPC   H7Y19868   5.581   3.642   5.693
  175SLPC   C3819869   5.546   3.505   5.541
  175SLPC   H8X19870   5.471   3.572   5.494
  175SLPC   H8Y19871   5.505   3.403   5.527
  175SLPC   C3919872   5.676   3.511   5.459
  175SLPC   H9X19873   5.756   3.440   5.489
  175SLPC   H9Y19874   5.725   3.611   5.467
  175SLPC  C31019875   5.652   3.482   5.311
  175SLPC  H10X19876   5.586   3.556   5.261
  175SLPC  H10Y19877   5.599   3.386   5.296
  175SLPC  C31119878   5.786   3.467   5.241
  175SLPC  H11X19879   5.839   3.377   5.281
  175SLPC  H11Y19880   5.842   3.562   5.249
  175SLPC  C31219881   5.765   3.433   5.084
  175SLPC  H12X19882   5.680   3.361   5.085
  175SLPC  H12Y19883   5.853   3.379   5.044
  175SLPC  C31319884   5.737   3.558   4.997
  175SLPC  H13X19885   5.811   3.633   5.032
  175SLPC  H13Y19886   5.636   3.592   5.027
  175SLPC  C31419887   5.729   3.531   4.851
  175SLPC  H14X19888   5.710   3.624   4.794
  175SLPC  H14Y19889   5.643   3.464   4.828
  175SLPC  C31519890   5.859   3.470   4.790
  175SLPC  H15X19891   5.881   3.370   4.833
  175SLPC  H15Y19892   5.936   3.544   4.821
  175SLPC  C31619893   5.855   3.454   4.636
  175SLPC  H16X19894   5.963   3.455   4.609
  175SLPC  H16Y19895   5.793   3.537   4.595
  175SLPC  C31719896   5.795   3.320   4.604
  175SLPC  H17X19897   5.693   3.303   4.646
  175SLPC  H17Y19898   5.857   3.245   4.657
  175SLPC  C31819899   5.794   3.292   4.458
  175SLPC  H18X19900   5.895   3.279   4.412
  175SLPC  H18Y19901   5.745   3.371   4.398
  175SLPC  H18Z19902   5.742   3.198   4.428
  176SLPC     N19903   5.786   1.966   6.655
  176SLPC   C1319904   5.877   2.084   6.690
  176SLPC  H13A19905   5.823   2.175   6.713
  176SLPC  H13B19906   5.950   2.054   6.764
  176SLPC  H13C19907   5.943   2.105   6.606
  176SLPC   C1419908   5.721   1.918   6.782
  176SLPC  H14A19909   5.650   1.844   6.747
  176SLPC  H14B19910   5.795   1.869   6.843
  176SLPC  H14C19911   5.677   1.994   6.845
  176SLPC   C1519912   5.885   1.854   6.621
  176SLPC  H15A19913   5.940   1.885   6.533
  176SLPC  H15B19914   5.950   1.847   6.706
  176SLPC  H15C19915   5.843   1.760   6.590
  176SLPC   C1219916   5.691   1.997   6.542
  176SLPC  H12A19917   5.747   2.061   6.477
  176SLPC  H12B19918   5.607   2.052   6.582
  176SLPC   C1119919   5.630   1.877   6.462
  176SLPC  H11A19920   5.714   1.814   6.425
  176SLPC  H11B19921   5.570   1.915   6.376
  176SLPC     P19922   5.501   1.659   6.547
  176SLPC   O1319923   5.608   1.598   6.620
  176SLPC   O1419924   5.368   1.651   6.606
  176SLPC   O1219925   5.550   1.807   6.547
  176SLPC   O1119926   5.500   1.633   6.392
  176SLPC    C119927   5.399   1.675   6.303
  176SLPC    HA19928   5.305   1.619   6.319
  176SLPC    HB19929   5.377   1.784   6.309
  176SLPC    C219930   5.442   1.666   6.148
  176SLPC    HS19931   5.548   1.697   6.139
  176SLPC   O2119932   5.362   1.742   6.062
  176SLPC   C2119933   5.403   1.870   6.057
  176SLPC   O2219934   5.479   1.921   6.134
  176SLPC   C2219935   5.331   1.947   5.943
  176SLPC   H2R19936   5.289   1.874   5.870
  176SLPC   H2S19937   5.253   2.018   5.980
  176SLPC    C319938   5.441   1.520   6.096
  176SLPC    HX19939   5.344   1.479   6.129
  176SLPC    HY19940   5.523   1.467   6.149
  176SLPC   O3119941   5.439   1.500   5.952
  176SLPC   C3119942   5.556   1.498   5.894
  176SLPC   O3219943   5.656   1.537   5.955
  176SLPC   C3219944   5.554   1.465   5.748
  176SLPC   H2X19945   5.660   1.472   5.716
  176SLPC   H2Y19946   5.518   1.561   5.703
  176SLPC   C2319947   5.428   2.044   5.871
  176SLPC   H3R19948   5.511   1.988   5.821
  176SLPC   H3S19949   5.482   2.109   5.943
  176SLPC   C2419950   5.369   2.149   5.772
  176SLPC   H4R19951   5.446   2.226   5.754
  176SLPC   H4S19952   5.279   2.195   5.818
  176SLPC   C2519953   5.335   2.090   5.632
  176SLPC   H5R19954   5.267   2.160   5.580
  176SLPC   H5S19955   5.288   1.990   5.642
  176SLPC   C2619956   5.450   2.077   5.531
  176SLPC   H6R19957   5.528   2.006   5.566
  176SLPC   H6S19958   5.497   2.178   5.537
  176SLPC   C2719959   5.406   2.024   5.395
  176SLPC   H7R19960   5.307   2.069   5.376
  176SLPC   H7S19961   5.384   1.917   5.415
  176SLPC   C2819962   5.508   2.048   5.278
  176SLPC   H8R19963   5.537   2.154   5.298
  176SLPC   H8S19964   5.454   2.040   5.181
  176SLPC   C2919965   5.622   1.950   5.282
  176SLPC   H9R19966   5.649   1.936   5.387
  176SLPC  C21019967   5.675   1.863   5.187
  176SLPC  H10R19968   5.765   1.806   5.216
  176SLPC  C21119969   5.626   1.865   5.047
  176SLPC  H11R19970   5.565   1.954   5.020
  176SLPC  H11S19971   5.562   1.774   5.041
  176SLPC  C21219972   5.732   1.830   4.946
  176SLPC  H12R19973   5.819   1.774   4.982
  176SLPC  C21319974   5.729   1.869   4.816
  176SLPC  H13R19975   5.812   1.851   4.745
  176SLPC  C21419976   5.614   1.943   4.740
  176SLPC  H14R19977   5.651   2.018   4.667
  176SLPC  H14S19978   5.551   2.000   4.812
  176SLPC  C21519979   5.509   1.847   4.672
  176SLPC  H15R19980   5.427   1.917   4.646
  176SLPC  H15S19981   5.471   1.778   4.751
  176SLPC  C21619982   5.540   1.767   4.545
  176SLPC  H16R19983   5.591   1.826   4.466
  176SLPC  H16S19984   5.453   1.724   4.492
  176SLPC  C21719985   5.624   1.641   4.589
  176SLPC  H17R19986   5.581   1.596   4.681
  176SLPC  H17S19987   5.720   1.686   4.622
  176SLPC  C21819988   5.641   1.532   4.480
  176SLPC  H18R19989   5.674   1.582   4.386
  176SLPC  H18S19990   5.545   1.479   4.465
  176SLPC  H18T19991   5.719   1.467   4.524
  176SLPC   C3319992   5.486   1.342   5.693
  176SLPC   H3X19993   5.380   1.327   5.721
  176SLPC   H3Y19994   5.544   1.257   5.737
  176SLPC   C3419995   5.491   1.324   5.542
  176SLPC   H4X19996   5.476   1.217   5.517
  176SLPC   H4Y19997   5.591   1.352   5.503
  176SLPC   C3519998   5.394   1.404   5.448
  176SLPC   H5X19999   5.400   1.508   5.485
  176SLPC   H5Y20000   5.289   1.371   5.460
  176SLPC   C3620001   5.435   1.395   5.303
  176SLPC   H6X20002   5.416   1.289   5.274
  176SLPC   H6Y20003   5.539   1.420   5.273
  176SLPC   C3720004   5.360   1.500   5.218
  176SLPC   H7X20005   5.372   1.604   5.253
  176SLPC   H7Y20006   5.250   1.486   5.215
  176SLPC   C3820007   5.401   1.483   5.078
  176SLPC   H8X20008   5.388   1.378   5.044
  176SLPC   H8Y20009   5.508   1.512   5.067
  176SLPC   C3920010   5.333   1.586   4.983
  176SLPC   H9X20011   5.386   1.589   4.886
  176SLPC   H9Y20012   5.336   1.690   5.024
  176SLPC  C31020013   5.184   1.561   4.951
  176SLPC  H10X20014   5.132   1.558   5.049
  176SLPC  H10Y20015   5.182   1.464   4.895
  176SLPC  C31120016   5.104   1.651   4.852
  176SLPC  H11X20017   5.128   1.758   4.871
  176SLPC  H11Y20018   4.997   1.637   4.880
  176SLPC  C31220019   5.136   1.627   4.704
  176SLPC  H12X20020   5.242   1.595   4.694
  176SLPC  H12Y20021   5.122   1.721   4.646
  176SLPC  C31320022   5.047   1.525   4.650
  176SLPC  H13X20023   4.939   1.541   4.667
  176SLPC  H13Y20024   5.063   1.431   4.708
  176SLPC  C31420025   5.054   1.489   4.494
  176SLPC  H14X20026   5.031   1.580   4.435
  176SLPC  H14Y20027   4.976   1.413   4.470
  176SLPC  C31520028   5.187   1.440   4.438
  176SLPC  H15X20029   5.260   1.437   4.522
  176SLPC  H15Y20030   5.225   1.534   4.391
  176SLPC  C31620031   5.179   1.313   4.354
  176SLPC  H16X20032   5.134   1.227   4.408
  176SLPC  H16Y20033   5.281   1.286   4.321
  176SLPC  C31720034   5.110   1.358   4.225
  176SLPC  H17X20035   5.176   1.428   4.169
  176SLPC  H17Y20036   5.014   1.412   4.239
  176SLPC  C31820037   5.073   1.242   4.127
  176SLPC  H18X20038   5.157   1.173   4.107
  176SLPC  H18Y20039   5.037   1.288   4.032
  176SLPC  H18Z20040   4.981   1.195   4.167
  177SLPC     N20041   4.709   2.408   6.579
  177SLPC   C1320042   4.711   2.254   6.558
  177SLPC  H13A20043   4.780   2.229   6.479
  177SLPC  H13B20044   4.730   2.189   6.643
  177SLPC  H13C20045   4.615   2.219   6.524
  177SLPC   C1420046   4.616   2.440   6.694
  177SLPC  H14A20047   4.607   2.545   6.714
  177SLPC  H14B20048   4.518   2.397   6.675
  177SLPC  H14C20049   4.646   2.394   6.787
  177SLPC   C1520050   4.654   2.476   6.452
  177SLPC  H15A20051   4.564   2.426   6.422
  177SLPC  H15B20052   4.634   2.582   6.455
  177SLPC  H15C20053   4.712   2.461   6.362
  177SLPC   C1220054   4.846   2.466   6.615
  177SLPC  H12A20055   4.830   2.571   6.592
  177SLPC  H12B20056   4.921   2.429   6.548
  177SLPC   C1120057   4.899   2.461   6.756
  177SLPC  H11A20058   4.828   2.497   6.834
  177SLPC  H11B20059   4.981   2.536   6.745
  177SLPC     P20060   5.071   2.257   6.749
  177SLPC   O1320061   5.166   2.299   6.857
  177SLPC   O1420062   5.053   2.115   6.733
  177SLPC   O1220063   4.938   2.332   6.784
  177SLPC   O1120064   5.116   2.311   6.611
  177SLPC    C120065   5.215   2.415   6.588
  177SLPC    HA20066   5.235   2.474   6.680
  177SLPC    HB20067   5.310   2.372   6.551
  177SLPC    C220068   5.186   2.515   6.475
  177SLPC    HS20069   5.092   2.570   6.497
  177SLPC   O2120070   5.159   2.430   6.359
  177SLPC   C2120071   5.079   2.472   6.270
  177SLPC   O2220072   5.026   2.581   6.267
  177SLPC   C2220073   5.062   2.363   6.158
  177SLPC   H2R20074   5.135   2.380   6.075
  177SLPC   H2S20075   5.092   2.268   6.208
  177SLPC    C320076   5.298   2.626   6.448
  177SLPC    HX20077   5.302   2.679   6.545
  177SLPC    HY20078   5.272   2.693   6.363
  177SLPC   O3120079   5.422   2.566   6.426
  177SLPC   C3120080   5.472   2.572   6.303
  177SLPC   O3220081   5.417   2.626   6.207
  177SLPC   C3220082   5.594   2.484   6.297
  177SLPC   H2X20083   5.561   2.380   6.316
  177SLPC   H2Y20084   5.669   2.512   6.374
  177SLPC   C2320085   4.918   2.344   6.099
  177SLPC   H3R20086   4.881   2.439   6.055
  177SLPC   H3S20087   4.855   2.322   6.188
  177SLPC   C2420088   4.892   2.234   6.007
  177SLPC   H4R20089   4.788   2.248   5.970
  177SLPC   H4S20090   4.889   2.134   6.056
  177SLPC   C2520091   5.001   2.228   5.897
  177SLPC   H5R20092   5.104   2.204   5.932
  177SLPC   H5S20093   4.999   2.325   5.843
  177SLPC   C2620094   4.986   2.125   5.783
  177SLPC   H6R20095   5.058   2.141   5.700
  177SLPC   H6S20096   4.885   2.125   5.738
  177SLPC   C2720097   4.985   1.979   5.838
  177SLPC   H7R20098   4.891   1.971   5.897
  177SLPC   H7S20099   5.068   1.983   5.911
  177SLPC   C2820100   5.003   1.863   5.736
  177SLPC   H8R20101   5.020   1.774   5.799
  177SLPC   H8S20102   5.098   1.887   5.684
  177SLPC   C2920103   4.899   1.851   5.628
  177SLPC   H9R20104   4.805   1.814   5.673
  177SLPC  C21020105   4.907   1.889   5.500
  177SLPC  H10R20106   4.827   1.869   5.427
  177SLPC  C21120107   5.017   1.954   5.426
  177SLPC  H11R20108   5.112   1.952   5.484
  177SLPC  H11S20109   4.993   2.059   5.398
  177SLPC  C21220110   5.045   1.871   5.297
  177SLPC  H12R20111   5.110   1.783   5.316
  177SLPC  C21320112   5.015   1.907   5.171
  177SLPC  H13R20113   5.048   1.839   5.091
  177SLPC  C21420114   4.942   2.025   5.120
  177SLPC  H14R20115   5.022   2.096   5.091
  177SLPC  H14S20116   4.900   2.082   5.206
  177SLPC  C21520117   4.807   2.016   5.050
  177SLPC  H15R20118   4.758   2.115   5.059
  177SLPC  H15S20119   4.740   1.942   5.098
  177SLPC  C21620120   4.829   1.983   4.896
  177SLPC  H16R20121   4.879   1.884   4.885
  177SLPC  H16S20122   4.902   2.054   4.851
  177SLPC  C21720123   4.696   1.986   4.806
  177SLPC  H17R20124   4.722   1.969   4.699
  177SLPC  H17S20125   4.667   2.093   4.804
  177SLPC  C21820126   4.574   1.917   4.861
  177SLPC  H18R20127   4.611   1.818   4.898
  177SLPC  H18S20128   4.504   1.896   4.778
  177SLPC  H18T20129   4.530   1.974   4.945
  177SLPC   C3320130   5.662   2.482   6.161
  177SLPC   H3X20131   5.594   2.456   6.077
  177SLPC   H3Y20132   5.753   2.419   6.168
  177SLPC   C3420133   5.709   2.629   6.131
  177SLPC   H4X20134   5.745   2.672   6.227
  177SLPC   H4Y20135   5.624   2.691   6.095
  177SLPC   C3520136   5.819   2.619   6.035
  177SLPC   H5X20137   5.773   2.599   5.936
  177SLPC   H5Y20138   5.885   2.534   6.061
  177SLPC   C3620139   5.884   2.752   6.029
  177SLPC   H6X20140   5.939   2.760   6.125
  177SLPC   H6Y20141   5.808   2.834   6.025
  177SLPC   C3720142   5.972   2.767   5.901
  177SLPC   H7X20143   5.902   2.736   5.820
  177SLPC   H7Y20144   6.051   2.691   5.919
  177SLPC   C3820145   6.026   2.907   5.873
  177SLPC   H8X20146   6.078   2.959   5.957
  177SLPC   H8Y20147   5.933   2.963   5.847
  177SLPC   C3920148   6.124   2.896   5.748
  177SLPC   H9X20149   6.190   2.812   5.778
  177SLPC   H9Y20150   6.191   2.980   5.721
  177SLPC  C31020151   6.068   2.846   5.611
  177SLPC  H10X20152   5.983   2.907   5.573
  177SLPC  H10Y20153   6.028   2.743   5.609
  177SLPC  C31120154   6.166   2.856   5.491
  177SLPC  H11X20155   6.256   2.794   5.515
  177SLPC  H11Y20156   6.201   2.958   5.468
  177SLPC  C31220157   6.081   2.814   5.359
  177SLPC  H12X20158   6.010   2.897   5.339
  177SLPC  H12Y20159   6.020   2.725   5.382
  177SLPC  C31320160   6.169   2.791   5.235
  177SLPC  H13X20161   6.231   2.702   5.261
  177SLPC  H13Y20162   6.245   2.873   5.234
  177SLPC  C31420163   6.088   2.774   5.115
  177SLPC  H14X20164   6.034   2.869   5.095
  177SLPC  H14Y20165   6.020   2.688   5.125
  177SLPC  C31520166   6.194   2.758   4.994
  177SLPC  H15X20167   6.244   2.659   5.000
  177SLPC  H15Y20168   6.277   2.831   4.999
  177SLPC  C31620169   6.118   2.785   4.864
  177SLPC  H16X20170   6.174   2.830   4.780
  177SLPC  H16Y20171   6.033   2.854   4.884
  177SLPC  C31720172   6.070   2.656   4.796
  177SLPC  H17X20173   6.001   2.610   4.870
  177SLPC  H17Y20174   6.152   2.586   4.771
  177SLPC  C31820175   5.999   2.674   4.657
  177SLPC  H18X20176   5.996   2.579   4.600
  177SLPC  H18Y20177   6.050   2.749   4.593
  177SLPC  H18Z20178   5.892   2.704   4.657
  178SLPC     N20179   2.169   6.239   6.913
  178SLPC   C1320180   2.117   6.277   7.047
  178SLPC  H13A20181   2.035   6.342   7.018
  178SLPC  H13B20182   2.080   6.194   7.106
  178SLPC  H13C20183   2.186   6.344   7.096
  178SLPC   C1420184   2.088   6.118   6.870
  178SLPC  H14A20185   2.094   6.103   6.763
  178SLPC  H14B20186   2.125   6.027   6.917
  178SLPC  H14C20187   1.983   6.134   6.890
  178SLPC   C1520188   2.315   6.191   6.944
  178SLPC  H15A20189   2.361   6.273   6.998
  178SLPC  H15B20190   2.313   6.108   7.013
  178SLPC  H15C20191   2.363   6.157   6.853
  178SLPC   C1220192   2.170   6.356   6.811
  178SLPC  H12A20193   2.196   6.454   6.849
  178SLPC  H12B20194   2.065   6.368   6.793
  178SLPC   C1120195   2.255   6.345   6.682
  178SLPC  H11A20196   2.362   6.354   6.709
  178SLPC  H11B20197   2.245   6.431   6.613
  178SLPC     P20198   2.099   6.217   6.527
  178SLPC   O1320199   2.107   6.086   6.458
  178SLPC   O1420200   1.974   6.254   6.601
  178SLPC   O1220201   2.232   6.229   6.617
  178SLPC   O1120202   2.116   6.326   6.421
  178SLPC    C120203   2.224   6.337   6.331
  178SLPC    HA20204   2.319   6.335   6.390
  178SLPC    HB20205   2.231   6.252   6.260
  178SLPC    C220206   2.225   6.471   6.247
  178SLPC    HS20207   2.267   6.550   6.313
  178SLPC   O2120208   2.099   6.492   6.193
  178SLPC   C2120209   2.068   6.612   6.163
  178SLPC   O2220210   2.139   6.709   6.181
  178SLPC   C2220211   1.923   6.624   6.109
  178SLPC   H2R20212   1.893   6.518   6.098
  178SLPC   H2S20213   1.868   6.662   6.197
  178SLPC    C320214   2.327   6.452   6.124
  178SLPC    HX20215   2.292   6.357   6.078
  178SLPC    HY20216   2.427   6.421   6.162
  178SLPC   O3120217   2.335   6.557   6.031
  178SLPC   C3120218   2.411   6.662   6.065
  178SLPC   O3220219   2.473   6.676   6.165
  178SLPC   C3220220   2.410   6.775   5.950
  178SLPC   H2X20221   2.322   6.839   5.972
  178SLPC   H2Y20222   2.392   6.727   5.851
  178SLPC   C2320223   1.908   6.713   5.983
  178SLPC   H3R20224   1.944   6.817   5.994
  178SLPC   H3S20225   1.797   6.710   5.970
  178SLPC   C2420226   1.959   6.641   5.855
  178SLPC   H4R20227   1.915   6.539   5.850
  178SLPC   H4S20228   2.067   6.626   5.876
  178SLPC   C2520229   1.938   6.717   5.719
  178SLPC   H5R20230   1.829   6.733   5.703
  178SLPC   H5S20231   1.983   6.645   5.648
  178SLPC   C2620232   2.027   6.845   5.699
  178SLPC   H6R20233   2.133   6.815   5.714
  178SLPC   H6S20234   2.003   0.024   5.773
  178SLPC   C2720235   2.014   0.006   5.556
  178SLPC   H7R20236   1.907   0.029   5.537
  178SLPC   H7S20237   2.064   6.836   5.485
  178SLPC   C2820238   2.082   0.144   5.546
  178SLPC   H8R20239   2.190   0.132   5.569
  178SLPC   H8S20240   2.036   0.209   5.623
  178SLPC   C2920241   2.061   0.221   5.417
  178SLPC   H9R20242   2.082   0.157   5.330
  178SLPC  C21020243   2.049   0.358   5.404
  178SLPC  H10R20244   2.033   0.415   5.311
  178SLPC  C21120245   2.016   0.450   5.518
  178SLPC  H11R20246   1.933   0.413   5.582
  178SLPC  H11S20247   1.985   0.552   5.486
  178SLPC  C21220248   2.135   0.465   5.607
  178SLPC  H12R20249   2.142   0.401   5.696
  178SLPC  C21320250   2.250   0.532   5.578
  178SLPC  H13R20251   2.327   0.523   5.656
  178SLPC  C21420252   2.292   0.617   5.460
  178SLPC  H14R20253   2.210   0.614   5.386
  178SLPC  H14S20254   2.377   0.574   5.404
  178SLPC  C21520255   2.329   0.769   5.484
  178SLPC  H15R20256   2.371   0.778   5.586
  178SLPC  H15S20257   2.231   0.823   5.492
  178SLPC  C21620258   2.410   0.840   5.385
  178SLPC  H16R20259   2.503   0.791   5.351
  178SLPC  H16S20260   2.442   0.940   5.420
  178SLPC  C21720261   2.334   0.872   5.257
  178SLPC  H17R20262   2.274   0.964   5.273
  178SLPC  H17S20263   2.278   0.777   5.244
  178SLPC  C21820264   2.428   0.904   5.136
  178SLPC  H18R20265   2.475   0.806   5.111
  178SLPC  H18S20266   2.515   0.965   5.168
  178SLPC  H18T20267   2.390   0.956   5.045
  178SLPC   C3320268   2.539   6.856   5.935
  178SLPC   H3X20269   2.619   6.791   5.893
  178SLPC   H3Y20270   2.580   6.878   6.036
  178SLPC   C3420271   2.530   0.081   5.843
  178SLPC   H4X20272   2.629   0.130   5.847
  178SLPC   H4Y20273   2.462   0.156   5.889
  178SLPC   C3520274   2.490   0.036   5.702
  178SLPC   H5X20275   2.390   6.888   5.706
  178SLPC   H5Y20276   2.559   6.859   5.662
  178SLPC   C3620277   2.481   0.166   5.618
  178SLPC   H6X20278   2.579   0.219   5.624
  178SLPC   H6Y20279   2.401   0.234   5.652
  178SLPC   C3720280   2.468   0.134   5.472
  178SLPC   H7X20281   2.376   0.072   5.470
  178SLPC   H7Y20282   2.560   0.081   5.437
  178SLPC   C3820283   2.451   0.260   5.379
  178SLPC   H8X20284   2.537   0.328   5.395
  178SLPC   H8Y20285   2.352   0.305   5.398
  178SLPC   C3920286   2.468   0.216   5.228
  178SLPC   H9X20287   2.406   0.126   5.209
  178SLPC   H9Y20288   2.574   0.192   5.208
  178SLPC  C31020289   2.433   0.326   5.128
  178SLPC  H10X20290   2.440   0.282   5.027
  178SLPC  H10Y20291   2.489   0.420   5.144
  178SLPC  C31120292   2.283   0.357   5.133
  178SLPC  H11X20293   2.252   0.367   5.240
  178SLPC  H11Y20294   2.221   0.276   5.089
  178SLPC  C31220295   2.243   0.469   5.042
  178SLPC  H12X20296   2.265   0.445   4.936
  178SLPC  H12Y20297   2.301   0.561   5.065
  178SLPC  C31320298   2.101   0.511   5.047
  178SLPC  H13X20299   2.073   0.560   5.143
  178SLPC  H13Y20300   2.042   0.418   5.034
  178SLPC  C31420301   2.049   0.583   4.918
  178SLPC  H14X20302   1.939   0.595   4.926
  178SLPC  H14Y20303   2.072   0.511   4.836
  178SLPC  C31520304   2.089   0.732   4.904
  178SLPC  H15X20305   2.078   0.774   5.006
  178SLPC  H15Y20306   2.016   0.783   4.837
  178SLPC  C31620307   2.227   0.758   4.842
  178SLPC  H16X20308   2.314   0.708   4.891
  178SLPC  H16Y20309   2.254   0.865   4.858
  178SLPC  C31720310   2.230   0.755   4.689
  178SLPC  H17X20311   2.158   0.829   4.651
  178SLPC  H17Y20312   2.186   0.664   4.643
  178SLPC  C31820313   2.378   0.775   4.643
  178SLPC  H18X20314   2.449   0.707   4.693
  178SLPC  H18Y20315   2.413   0.881   4.641
  178SLPC  H18Z20316   2.389   0.738   4.539
  179SLPC     N20317   4.335   1.438   2.643
  179SLPC   C1320318   4.386   1.449   2.496
  179SLPC  H13A20319   4.313   1.509   2.445
  179SLPC  H13B20320   4.479   1.505   2.501
  179SLPC  H13C20321   4.419   1.355   2.453
  179SLPC   C1420322   4.310   1.578   2.686
  179SLPC  H14A20323   4.390   1.643   2.652
  179SLPC  H14B20324   4.231   1.608   2.618
  179SLPC  H14C20325   4.270   1.602   2.783
  179SLPC   C1520326   4.457   1.398   2.716
  179SLPC  H15A20327   4.445   1.404   2.823
  179SLPC  H15B20328   4.495   1.299   2.695
  179SLPC  H15C20329   4.531   1.475   2.700
  179SLPC   C1220330   4.223   1.345   2.663
  179SLPC  H12A20331   4.244   1.253   2.609
  179SLPC  H12B20332   4.132   1.390   2.629
  179SLPC   C1120333   4.188   1.289   2.804
  179SLPC  H11A20334   4.275   1.229   2.840
  179SLPC  H11B20335   4.105   1.216   2.792
  179SLPC     P20336   4.025   1.477   2.880
  179SLPC   O1320337   4.070   1.618   2.884
  179SLPC   O1420338   3.953   1.436   2.755
  179SLPC   O1220339   4.155   1.393   2.896
  179SLPC   O1120340   3.939   1.442   3.008
  179SLPC    C120341   3.953   1.320   3.087
  179SLPC    HA20342   4.062   1.304   3.105
  179SLPC    HB20343   3.899   1.319   3.184
  179SLPC    C220344   3.905   1.193   3.009
  179SLPC    HS20345   3.951   1.190   2.908
  179SLPC   O2120346   3.765   1.204   2.993
  179SLPC   C2120347   3.691   1.116   2.922
  179SLPC   O2220348   3.731   1.022   2.859
  179SLPC   C2220349   3.538   1.148   2.925
  179SLPC   H2R20350   3.530   1.255   2.898
  179SLPC   H2S20351   3.485   1.085   2.851
  179SLPC    C320352   3.939   1.060   3.084
  179SLPC    HX20353   4.046   1.064   3.112
  179SLPC    HY20354   3.929   0.977   3.012
  179SLPC   O3120355   3.853   1.048   3.201
  179SLPC   C3120356   3.906   1.032   3.318
  179SLPC   O3220357   4.029   1.008   3.333
  179SLPC   C3220358   3.800   1.069   3.419
  179SLPC   H2X20359   3.719   0.998   3.394
  179SLPC   H2Y20360   3.765   1.174   3.407
  179SLPC   C2320361   3.486   1.131   3.071
  179SLPC   H3R20362   3.388   1.184   3.063
  179SLPC   H3S20363   3.544   1.191   3.145
  179SLPC   C2420364   3.473   0.983   3.118
  179SLPC   H4R20365   3.571   0.943   3.151
  179SLPC   H4S20366   3.437   0.922   3.032
  179SLPC   C2520367   3.363   0.970   3.227
  179SLPC   H5R20368   3.364   0.860   3.246
  179SLPC   H5S20369   3.273   0.998   3.169
  179SLPC   C2620370   3.376   1.065   3.344
  179SLPC   H6R20371   3.339   1.165   3.312
  179SLPC   H6S20372   3.479   1.077   3.384
  179SLPC   C2720373   3.277   1.042   3.460
  179SLPC   H7R20374   3.293   0.936   3.489
  179SLPC   H7S20375   3.173   1.050   3.421
  179SLPC   C2820376   3.302   1.130   3.589
  179SLPC   H8R20377   3.295   1.239   3.568
  179SLPC   H8S20378   3.410   1.121   3.611
  179SLPC   C2920379   3.207   1.099   3.704
  179SLPC   H9R20380   3.117   1.162   3.705
  179SLPC  C21020381   3.238   1.007   3.799
  179SLPC  H10R20382   3.174   0.987   3.886
  179SLPC  C21120383   3.365   0.928   3.811
  179SLPC  H11R20384   3.433   0.992   3.870
  179SLPC  H11S20385   3.409   0.899   3.712
  179SLPC  C21220386   3.345   0.795   3.880
  179SLPC  H12R20387   3.280   0.721   3.829
  179SLPC  C21320388   3.409   0.747   3.990
  179SLPC  H13R20389   3.393   0.649   4.037
  179SLPC  C21420390   3.507   0.827   4.071
  179SLPC  H14R20391   3.552   0.907   4.009
  179SLPC  H14S20392   3.593   0.770   4.114
  179SLPC  C21520393   3.442   0.891   4.195
  179SLPC  H15R20394   3.342   0.930   4.165
  179SLPC  H15S20395   3.504   0.973   4.236
  179SLPC  C21620396   3.399   0.790   4.309
  179SLPC  H16R20397   3.482   0.719   4.328
  179SLPC  H16S20398   3.318   0.721   4.277
  179SLPC  C21720399   3.353   0.853   4.439
  179SLPC  H17R20400   3.248   0.889   4.432
  179SLPC  H17S20401   3.411   0.947   4.449
  179SLPC  C21820402   3.366   0.768   4.568
  179SLPC  H18R20403   3.437   0.796   4.649
  179SLPC  H18S20404   3.369   0.663   4.534
  179SLPC  H18T20405   3.269   0.782   4.621
  179SLPC   C3320406   3.857   1.052   3.565
  179SLPC   H3X20407   3.943   1.115   3.596
  179SLPC   H3Y20408   3.876   0.943   3.577
  179SLPC   C3420409   3.740   1.101   3.663
  179SLPC   H4X20410   3.647   1.060   3.619
  179SLPC   H4Y20411   3.729   1.211   3.659
  179SLPC   C3520412   3.752   1.030   3.801
  179SLPC   H5X20413   3.667   1.072   3.859
  179SLPC   H5Y20414   3.739   0.924   3.774
  179SLPC   C3620415   3.882   1.044   3.883
  179SLPC   H6X20416   3.916   1.150   3.893
  179SLPC   H6Y20417   3.961   0.982   3.834
  179SLPC   C3720418   3.868   0.989   4.026
  179SLPC   H7X20419   3.970   0.984   4.069
  179SLPC   H7Y20420   3.814   0.892   4.027
  179SLPC   C3820421   3.797   1.081   4.115
  179SLPC   H8X20422   3.693   1.081   4.075
  179SLPC   H8Y20423   3.848   1.180   4.123
  179SLPC   C3920424   3.794   1.026   4.259
  179SLPC   H9X20425   3.891   1.009   4.311
  179SLPC   H9Y20426   3.753   0.925   4.236
  179SLPC  C31020427   3.722   1.110   4.360
  179SLPC  H10X20428   3.629   1.150   4.315
  179SLPC  H10Y20429   3.779   1.205   4.372
  179SLPC  C31120430   3.705   1.047   4.493
  179SLPC  H11X20431   3.808   1.047   4.534
  179SLPC  H11Y20432   3.680   0.939   4.489
  179SLPC  C31220433   3.628   1.132   4.591
  179SLPC  H12X20434   3.537   1.150   4.531
  179SLPC  H12Y20435   3.691   1.220   4.617
  179SLPC  C31320436   3.592   1.050   4.713
  179SLPC  H13X20437   3.538   0.959   4.679
  179SLPC  H13Y20438   3.524   1.097   4.786
  179SLPC  C31420439   3.711   0.994   4.797
  179SLPC  H14X20440   3.768   0.923   4.733
  179SLPC  H14Y20441   3.676   0.924   4.875
  179SLPC  C31520442   3.796   1.102   4.866
  179SLPC  H15X20443   3.828   1.187   4.803
  179SLPC  H15Y20444   3.886   1.050   4.904
  179SLPC  C31620445   3.740   1.155   4.995
  179SLPC  H16X20446   3.747   1.075   5.072
  179SLPC  H16Y20447   3.631   1.173   4.988
  179SLPC  C31720448   3.796   1.288   5.055
  179SLPC  H17X20449   3.824   1.350   4.967
  179SLPC  H17Y20450   3.893   1.273   5.106
  179SLPC  C31820451   3.700   1.361   5.147
  179SLPC  H18X20452   3.650   1.294   5.220
  179SLPC  H18Y20453   3.627   1.418   5.086
  179SLPC  H18Z20454   3.750   1.433   5.214
  180SLPC     N20455   1.949   1.294   1.809
  180SLPC   C1320456   2.022   1.202   1.908
  180SLPC  H13A20457   1.945   1.142   1.954
  180SLPC  H13B20458   2.086   1.129   1.861
  180SLPC  H13C20459   2.069   1.253   1.991
  180SLPC   C1420460   1.877   1.218   1.705
  180SLPC  H14A20461   1.840   1.279   1.624
  180SLPC  H14B20462   1.951   1.152   1.660
  180SLPC  H14C20463   1.792   1.167   1.747
  180SLPC   C1520464   2.052   1.385   1.747
  180SLPC  H15A20465   2.136   1.328   1.710
  180SLPC  H15B20466   2.013   1.442   1.665
  180SLPC  H15C20467   2.087   1.452   1.825
  180SLPC   C1220468   1.847   1.392   1.879
  180SLPC  H12A20469   1.752   1.340   1.885
  180SLPC  H12B20470   1.817   1.458   1.799
  180SLPC   C1120471   1.878   1.475   2.008
  180SLPC  H11A20472   1.906   1.412   2.095
  180SLPC  H11B20473   1.797   1.541   2.044
  180SLPC     P20474   2.118   1.564   2.068
  180SLPC   O1320475   2.199   1.449   2.024
  180SLPC   O1420476   2.181   1.699   2.064
  180SLPC   O1220477   1.983   1.565   1.976
  180SLPC   O1120478   2.061   1.536   2.209
  180SLPC    C120479   2.036   1.645   2.304
  180SLPC    HA20480   1.967   1.717   2.257
  180SLPC    HB20481   1.983   1.605   2.394
  180SLPC    C220482   2.159   1.719   2.368
  180SLPC    HS20483   2.225   1.756   2.286
  180SLPC   O2120484   2.231   1.620   2.454
  180SLPC   C2120485   2.351   1.658   2.490
  180SLPC   O2220486   2.410   1.758   2.447
  180SLPC   C2220487   2.400   1.572   2.598
  180SLPC   H2R20488   2.338   1.586   2.688
  180SLPC   H2S20489   2.390   1.463   2.577
  180SLPC    C320490   2.115   1.846   2.445
  180SLPC    HX20491   2.082   1.920   2.369
  180SLPC    HY20492   2.206   1.886   2.494
  180SLPC   O3120493   2.012   1.828   2.545
  180SLPC   C3120494   2.050   1.790   2.667
  180SLPC   O3220495   2.166   1.767   2.695
  180SLPC   C3220496   1.939   1.778   2.769
  180SLPC   H2X20497   1.875   1.693   2.735
  180SLPC   H2Y20498   1.880   1.872   2.780
  180SLPC   C2320499   2.544   1.602   2.640
  180SLPC   H3R20500   2.558   1.712   2.644
  180SLPC   H3S20501   2.606   1.554   2.561
  180SLPC   C2420502   2.577   1.542   2.773
  180SLPC   H4R20503   2.684   1.519   2.793
  180SLPC   H4S20504   2.528   1.443   2.781
  180SLPC   C2520505   2.542   1.635   2.895
  180SLPC   H5R20506   2.438   1.673   2.884
  180SLPC   H5S20507   2.601   1.730   2.895
  180SLPC   C2620508   2.563   1.562   3.030
  180SLPC   H6R20509   2.665   1.520   3.041
  180SLPC   H6S20510   2.505   1.468   3.029
  180SLPC   C2720511   2.516   1.642   3.144
  180SLPC   H7R20512   2.410   1.674   3.133
  180SLPC   H7S20513   2.572   1.738   3.152
  180SLPC   C2820514   2.516   1.562   3.280
  180SLPC   H8R20515   2.472   1.462   3.260
  180SLPC   H8S20516   2.446   1.614   3.348
  180SLPC   C2920517   2.652   1.541   3.337
  180SLPC   H9R20518   2.730   1.494   3.276
  180SLPC  C21020519   2.673   1.550   3.470
  180SLPC  H10R20520   2.777   1.539   3.505
  180SLPC  C21120521   2.577   1.587   3.584
  180SLPC  H11R20522   2.575   1.514   3.668
  180SLPC  H11S20523   2.476   1.596   3.541
  180SLPC  C21220524   2.611   1.724   3.636
  180SLPC  H12R20525   2.710   1.763   3.605
  180SLPC  C21320526   2.534   1.799   3.716
  180SLPC  H13R20527   2.561   1.902   3.741
  180SLPC  C21420528   2.394   1.758   3.766
  180SLPC  H14R20529   2.376   1.651   3.743
  180SLPC  H14S20530   2.320   1.823   3.714
  180SLPC  C21520531   2.386   1.776   3.922
  180SLPC  H15R20532   2.424   1.876   3.951
  180SLPC  H15S20533   2.456   1.697   3.956
  180SLPC  C21620534   2.247   1.760   3.988
  180SLPC  H16R20535   2.223   1.653   3.970
  180SLPC  H16S20536   2.175   1.818   3.926
  180SLPC  C21720537   2.237   1.805   4.136
  180SLPC  H17R20538   2.144   1.758   4.177
  180SLPC  H17S20539   2.244   1.915   4.143
  180SLPC  C21820540   2.359   1.745   4.202
  180SLPC  H18R20541   2.449   1.802   4.171
  180SLPC  H18S20542   2.373   1.638   4.176
  180SLPC  H18T20543   2.342   1.745   4.312
  180SLPC   C3320544   1.984   1.731   2.904
  180SLPC   H3X20545   2.054   1.802   2.954
  180SLPC   H3Y20546   2.044   1.639   2.892
  180SLPC   C3420547   1.863   1.709   2.996
  180SLPC   H4X20548   1.792   1.638   2.949
  180SLPC   H4Y20549   1.809   1.805   3.016
  180SLPC   C3520550   1.913   1.645   3.134
  180SLPC   H5X20551   1.846   1.670   3.219
  180SLPC   H5Y20552   2.017   1.682   3.144
  180SLPC   C3620553   1.913   1.490   3.132
  180SLPC   H6X20554   1.961   1.447   3.043
  180SLPC   H6Y20555   1.806   1.461   3.135
  180SLPC   C3720556   1.981   1.440   3.257
  180SLPC   H7X20557   2.079   1.491   3.272
  180SLPC   H7Y20558   2.010   1.333   3.253
  180SLPC   C3820559   1.896   1.451   3.381
  180SLPC   H8X20560   1.813   1.382   3.356
  180SLPC   H8Y20561   1.850   1.552   3.384
  180SLPC   C3920562   1.969   1.402   3.507
  180SLPC   H9X20563   2.013   1.303   3.485
  180SLPC   H9Y20564   1.890   1.377   3.581
  180SLPC  C31020565   2.079   1.491   3.562
  180SLPC  H10X20566   2.038   1.593   3.576
  180SLPC  H10Y20567   2.163   1.491   3.490
  180SLPC  C31120568   2.123   1.452   3.711
  180SLPC  H11X20569   2.030   1.472   3.769
  180SLPC  H11Y20570   2.200   1.522   3.750
  180SLPC  C31220571   2.166   1.306   3.729
  180SLPC  H12X20572   2.259   1.293   3.670
  180SLPC  H12Y20573   2.084   1.241   3.692
  180SLPC  C31320574   2.195   1.260   3.877
  180SLPC  H13X20575   2.095   1.254   3.925
  180SLPC  H13Y20576   2.250   1.345   3.924
  180SLPC  C31420577   2.272   1.125   3.886
  180SLPC  H14X20578   2.367   1.135   3.828
  180SLPC  H14Y20579   2.216   1.043   3.835
  180SLPC  C31520580   2.305   1.083   4.026
  180SLPC  H15X20581   2.212   1.078   4.087
  180SLPC  H15Y20582   2.368   1.163   4.072
  180SLPC  C31620583   2.369   0.950   4.026
  180SLPC  H16X20584   2.459   0.950   3.961
  180SLPC  H16Y20585   2.312   0.867   3.979
  180SLPC  C31720586   2.417   0.913   4.167
  180SLPC  H17X20587   2.474   0.997   4.212
  180SLPC  H17Y20588   2.484   0.825   4.154
  180SLPC  C31820589   2.308   0.880   4.263
  180SLPC  H18X20590   2.253   0.789   4.232
  180SLPC  H18Y20591   2.243   0.969   4.277
  180SLPC  H18Z20592   2.354   0.854   4.360
  181SLPC     N20593   1.676   0.203   1.715
  181SLPC   C1320594   1.766   0.303   1.774
  181SLPC  H13A20595   1.859   0.333   1.727
  181SLPC  H13B20596   1.711   0.393   1.797
  181SLPC  H13C20597   1.805   0.266   1.868
  181SLPC   C1420598   1.737   0.066   1.690
  181SLPC  H14A20599   1.824   0.076   1.627
  181SLPC  H14B20600   1.767   0.022   1.784
  181SLPC  H14C20601   1.659   0.014   1.637
  181SLPC   C1520602   1.618   0.254   1.589
  181SLPC  H15A20603   1.706   0.286   1.534
  181SLPC  H15B20604   1.564   0.178   1.534
  181SLPC  H15C20605   1.551   0.338   1.599
  181SLPC   C1220606   1.565   0.178   1.809
  181SLPC  H12A20607   1.478   0.137   1.761
  181SLPC  H12B20608   1.525   0.272   1.844
  181SLPC   C1120609   1.606   0.098   1.933
  181SLPC  H11A20610   1.624   6.890   1.915
  181SLPC  H11B20611   1.512   0.102   1.992
  181SLPC     P20612   1.681   0.266   2.135
  181SLPC   O1320613   1.799   0.265   2.225
  181SLPC   O1420614   1.636   0.395   2.076
  181SLPC   O1220615   1.710   0.160   2.017
  181SLPC   O1120616   1.553   0.196   2.205
  181SLPC    C120617   1.503   0.264   2.328
  181SLPC    HA20618   1.492   0.374   2.315
  181SLPC    HB20619   1.396   0.235   2.336
  181SLPC    C220620   1.573   0.226   2.464
  181SLPC    HS20621   1.665   0.287   2.458
  181SLPC   O2120622   1.597   0.085   2.465
  181SLPC   C2120623   1.712   0.047   2.516
  181SLPC   O2220624   1.788   0.116   2.584
  181SLPC   C2220625   1.727   6.799   2.489
  181SLPC   H2R20626   1.747   6.776   2.382
  181SLPC   H2S20627   1.819   6.758   2.536
  181SLPC    C320628   1.478   0.275   2.577
  181SLPC    HX20629   1.378   0.227   2.575
  181SLPC    HY20630   1.468   0.381   2.545
  181SLPC   O3120631   1.539   0.274   2.703
  181SLPC   C3120632   1.617   0.377   2.738
  181SLPC   O3220633   1.650   0.474   2.670
  181SLPC   C3220634   1.654   0.346   2.879
  181SLPC   H2X20635   1.679   0.238   2.888
  181SLPC   H2Y20636   1.572   0.372   2.948
  181SLPC   C2320637   1.607   6.716   2.532
  181SLPC   H3R20638   1.627   6.607   2.530
  181SLPC   H3S20639   1.517   6.745   2.474
  181SLPC   C2420640   1.573   6.746   2.677
  181SLPC   H4R20641   1.525   6.846   2.668
  181SLPC   H4S20642   1.663   6.737   2.741
  181SLPC   C2520643   1.463   6.652   2.737
  181SLPC   H5R20644   1.503   6.549   2.745
  181SLPC   H5S20645   1.377   6.641   2.667
  181SLPC   C2620646   1.426   6.706   2.870
  181SLPC   H6R20647   1.416   6.817   2.873
  181SLPC   H6S20648   1.513   6.685   2.935
  181SLPC   C2720649   1.297   6.647   2.929
  181SLPC   H7R20650   1.323   6.556   2.988
  181SLPC   H7S20651   1.209   6.637   2.862
  181SLPC   C2820652   1.238   6.750   3.025
  181SLPC   H8R20653   1.199   6.841   2.974
  181SLPC   H8S20654   1.320   6.785   3.090
  181SLPC   C2920655   1.121   6.694   3.105
  181SLPC   H9R20656   1.037   6.655   3.046
  181SLPC  C21020657   1.103   6.708   3.241
  181SLPC  H10R20658   1.016   6.664   3.291
  181SLPC  C21120659   1.205   6.766   3.332
  181SLPC  H11R20660   1.307   6.738   3.299
  181SLPC  H11S20661   1.193   6.712   3.428
  181SLPC  C21220662   1.177   0.009   3.341
  181SLPC  H12R20663   1.124   0.071   3.267
  181SLPC  C21320664   1.218   0.079   3.445
  181SLPC  H13R20665   1.194   0.187   3.441
  181SLPC  C21420666   1.287   0.032   3.577
  181SLPC  H14R20667   1.379   0.094   3.581
  181SLPC  H14S20668   1.305   6.823   3.586
  181SLPC  C21520669   1.206   0.075   3.703
  181SLPC  H15R20670   1.106   0.027   3.692
  181SLPC  H15S20671   1.196   0.186   3.699
  181SLPC  C21620672   1.268   0.037   3.844
  181SLPC  H16R20673   1.376   0.024   3.821
  181SLPC  H16S20674   1.245   6.828   3.848
  181SLPC  C21720675   1.236   0.118   3.973
  181SLPC  H17R20676   1.315   0.092   4.045
  181SLPC  H17S20677   1.136   0.083   4.006
  181SLPC  C21820678   1.228   0.269   3.954
  181SLPC  H18R20679   1.327   0.301   3.916
  181SLPC  H18S20680   1.199   0.310   4.053
  181SLPC  H18T20681   1.157   0.296   3.873
  181SLPC   C3320682   1.786   0.418   2.920
  181SLPC   H3X20683   1.759   0.525   2.911
  181SLPC   H3Y20684   1.866   0.392   2.848
  181SLPC   C3420685   1.839   0.374   3.059
  181SLPC   H4X20686   1.950   0.373   3.059
  181SLPC   H4Y20687   1.795   0.272   3.066
  181SLPC   C3520688   1.794   0.458   3.175
  181SLPC   H5X20689   1.685   0.443   3.186
  181SLPC   H5Y20690   1.822   0.564   3.152
  181SLPC   C3620691   1.867   0.408   3.305
  181SLPC   H6X20692   1.975   0.413   3.284
  181SLPC   H6Y20693   1.840   0.301   3.317
  181SLPC   C3720694   1.833   0.489   3.425
  181SLPC   H7X20695   1.723   0.508   3.426
  181SLPC   H7Y20696   1.875   0.592   3.423
  181SLPC   C3820697   1.882   0.432   3.559
  181SLPC   H8X20698   1.991   0.449   3.568
  181SLPC   H8Y20699   1.852   0.325   3.560
  181SLPC   C3920700   1.814   0.511   3.673
  181SLPC   H9X20701   1.705   0.531   3.668
  181SLPC   H9Y20702   1.874   0.604   3.676
  181SLPC  C31020703   1.842   0.450   3.815
  181SLPC  H10X20704   1.947   0.413   3.819
  181SLPC  H10Y20705   1.780   0.360   3.832
  181SLPC  C31120706   1.799   0.539   3.941
  181SLPC  H11X20707   1.848   0.638   3.937
  181SLPC  H11Y20708   1.817   0.495   4.042
  181SLPC  C31220709   1.646   0.579   3.940
  181SLPC  H12X20710   1.584   0.509   3.879
  181SLPC  H12Y20711   1.634   0.673   3.882
  181SLPC  C31320712   1.581   0.604   4.085
  181SLPC  H13X20713   1.647   0.676   4.139
  181SLPC  H13Y20714   1.575   0.508   4.140
  181SLPC  C31420715   1.447   0.675   4.075
  181SLPC  H14X20716   1.375   0.630   4.005
  181SLPC  H14Y20717   1.478   0.770   4.026
  181SLPC  C31520718   1.386   0.710   4.216
  181SLPC  H15X20719   1.415   0.632   4.289
  181SLPC  H15Y20720   1.276   0.716   4.197
  181SLPC  C31620721   1.425   0.850   4.259
  181SLPC  H16X20722   1.408   0.918   4.173
  181SLPC  H16Y20723   1.536   0.859   4.267
  181SLPC  C31720724   1.361   0.911   4.383
  181SLPC  H17X20725   1.401   0.842   4.461
  181SLPC  H17Y20726   1.251   0.903   4.369
  181SLPC  C31820727   1.404   1.057   4.399
  181SLPC  H18X20728   1.398   1.098   4.502
  181SLPC  H18Y20729   1.351   1.122   4.327
  181SLPC  H18Z20730   1.510   1.061   4.365
  182SLPC     N20731   2.801   6.664   1.906
  182SLPC   C1320732   2.919   6.742   1.861
  182SLPC  H13A20733   2.921   6.726   1.754
  182SLPC  H13B20734   2.908   6.848   1.878
  182SLPC  H13C20735   3.014   6.723   1.910
  182SLPC   C1420736   2.837   6.518   1.919
  182SLPC  H14A20737   2.759   6.457   1.962
  182SLPC  H14B20738   2.868   6.480   1.823
  182SLPC  H14C20739   2.926   6.509   1.981
  182SLPC   C1520740   2.690   6.665   1.810
  182SLPC  H15A20741   2.594   6.619   1.831
  182SLPC  H15B20742   2.661   6.768   1.798
  182SLPC  H15C20743   2.724   6.623   1.716
  182SLPC   C1220744   2.759   6.714   2.040
  182SLPC  H12A20745   2.655   6.743   2.037
  182SLPC  H12B20746   2.816   6.802   2.063
  182SLPC   C1120747   2.787   6.619   2.162
  182SLPC  H11A20748   2.753   6.515   2.144
  182SLPC  H11B20749   2.723   6.651   2.246
  182SLPC     P20750   2.994   6.746   2.251
  182SLPC   O1320751   3.133   6.762   2.202
  182SLPC   O1420752   2.913   6.859   2.212
  182SLPC   O1220753   2.927   6.615   2.189
  182SLPC   O1120754   3.007   6.733   2.408
  182SLPC    C120755   2.890   6.693   2.481
  182SLPC    HA20756   2.818   6.777   2.482
  182SLPC    HB20757   2.836   6.607   2.436
  182SLPC    C220758   2.918   6.661   2.626
  182SLPC    HS20759   2.982   6.571   2.636
  182SLPC   O2120760   2.796   6.650   2.707
  182SLPC   C2120761   2.735   6.542   2.695
  182SLPC   O2220762   2.781   6.442   2.643
  182SLPC   C2220763   2.589   6.543   2.744
  182SLPC   H2R20764   2.593   6.599   2.840
  182SLPC   H2S20765   2.533   6.606   2.671
  182SLPC    C320766   2.994   6.791   2.673
  182SLPC    HX20767   2.930   6.882   2.672
  182SLPC    HY20768   3.074   6.820   2.601
  182SLPC   O3120769   3.040   6.777   2.808
  182SLPC   C3120770   3.147   6.700   2.821
  182SLPC   O3220771   3.211   6.645   2.729
  182SLPC   C3220772   3.176   6.684   2.967
  182SLPC   H2X20773   3.111   6.750   3.028
  182SLPC   H2Y20774   3.283   6.709   2.983
  182SLPC   C2320775   2.528   6.400   2.759
  182SLPC   H3R20776   2.606   6.326   2.786
  182SLPC   H3S20777   2.483   6.378   2.660
  182SLPC   C2420778   2.416   6.398   2.858
  182SLPC   H4R20779   2.348   6.314   2.833
  182SLPC   H4S20780   2.355   6.491   2.849
  182SLPC   C2520781   2.482   6.386   2.997
  182SLPC   H5R20782   2.553   6.470   3.012
  182SLPC   H5S20783   2.547   6.297   2.982
  182SLPC   C2620784   2.397   6.368   3.119
  182SLPC   H6R20785   2.455   6.332   3.207
  182SLPC   H6S20786   2.321   6.289   3.101
  182SLPC   C2720787   2.308   6.485   3.146
  182SLPC   H7R20788   2.252   6.508   3.053
  182SLPC   H7S20789   2.377   6.567   3.175
  182SLPC   C2820790   2.207   6.466   3.261
  182SLPC   H8R20791   2.252   6.406   3.343
  182SLPC   H8S20792   2.115   6.414   3.229
  182SLPC   C2920793   2.168   6.597   3.318
  182SLPC   H9R20794   2.092   6.659   3.269
  182SLPC  C21020795   2.216   6.649   3.432
  182SLPC  H10R20796   2.166   6.732   3.485
  182SLPC  C21120797   2.321   6.591   3.521
  182SLPC  H11R20798   2.394   6.668   3.554
  182SLPC  H11S20799   2.375   6.508   3.469
  182SLPC  C21220800   2.253   6.525   3.640
  182SLPC  H12R20801   2.224   6.421   3.620
  182SLPC  C21320802   2.234   6.583   3.760
  182SLPC  H13R20803   2.185   6.536   3.846
  182SLPC  C21420804   2.262   6.726   3.803
  182SLPC  H14R20805   2.171   6.765   3.853
  182SLPC  H14S20806   2.297   6.790   3.720
  182SLPC  C21520807   2.362   6.732   3.918
  182SLPC  H15R20808   2.418   6.826   3.899
  182SLPC  H15S20809   2.445   6.658   3.914
  182SLPC  C21620810   2.314   6.747   4.061
  182SLPC  H16R20811   2.271   6.651   4.097
  182SLPC  H16S20812   2.231   6.821   4.061
  182SLPC  C21720813   2.421   6.784   4.165
  182SLPC  H17R20814   2.475   6.872   4.124
  182SLPC  H17S20815   2.493   6.700   4.172
  182SLPC  C21820816   2.366   6.808   4.311
  182SLPC  H18R20817   2.443   6.834   4.387
  182SLPC  H18S20818   2.319   6.716   4.352
  182SLPC  H18T20819   2.289   6.888   4.305
  182SLPC   C3320820   3.153   6.543   3.015
  182SLPC   H3X20821   3.227   6.477   2.964
  182SLPC   H3Y20822   3.051   6.522   2.978
  182SLPC   C3420823   3.162   6.532   3.176
  182SLPC   H4X20824   3.087   6.599   3.224
  182SLPC   H4Y20825   3.261   6.567   3.212
  182SLPC   C3520826   3.124   6.389   3.229
  182SLPC   H5X20827   3.198   6.309   3.209
  182SLPC   H5Y20828   3.027   6.360   3.182
  182SLPC   C3620829   3.098   6.390   3.382
  182SLPC   H6X20830   3.078   6.292   3.429
  182SLPC   H6Y20831   3.002   6.445   3.396
  182SLPC   C3720832   3.200   6.456   3.467
  182SLPC   H7X20833   3.210   6.561   3.431
  182SLPC   H7Y20834   3.301   6.411   3.453
  182SLPC   C3820835   3.157   6.447   3.614
  182SLPC   H8X20836   3.152   6.338   3.636
  182SLPC   H8Y20837   3.053   6.483   3.634
  182SLPC   C3920838   3.262   6.506   3.714
  182SLPC   H9X20839   3.214   6.600   3.748
  182SLPC   H9Y20840   3.356   6.531   3.660
  182SLPC  C31020841   3.291   6.415   3.833
  182SLPC  H10X20842   3.340   6.484   3.905
  182SLPC  H10Y20843   3.357   6.329   3.810
  182SLPC  C31120844   3.166   6.378   3.907
  182SLPC  H11X20845   3.101   6.338   3.827
  182SLPC  H11Y20846   3.121   6.472   3.943
  182SLPC  C31220847   3.188   6.265   4.016
  182SLPC  H12X20848   3.235   6.305   4.108
  182SLPC  H12Y20849   3.253   6.188   3.969
  182SLPC  C31320850   3.060   6.190   4.046
  182SLPC  H13X20851   3.008   6.142   3.960
  182SLPC  H13Y20852   2.980   6.261   4.074
  182SLPC  C31420853   3.057   6.084   4.161
  182SLPC  H14X20854   2.950   6.091   4.189
  182SLPC  H14Y20855   3.115   6.132   4.242
  182SLPC  C31520856   3.112   5.947   4.138
  182SLPC  H15X20857   3.147   5.905   4.235
  182SLPC  H15Y20858   3.199   5.927   4.072
  182SLPC  C31620859   3.014   5.837   4.082
  182SLPC  H16X20860   2.980   5.880   3.985
  182SLPC  H16Y20861   2.923   5.820   4.143
  182SLPC  C31720862   3.077   5.702   4.067
  182SLPC  H17X20863   3.112   5.657   4.162
  182SLPC  H17Y20864   3.169   5.710   4.006
  182SLPC  C31820865   2.978   5.602   4.007
  182SLPC  H18X20866   3.027   5.503   4.009
  182SLPC  H18Y20867   2.945   5.619   3.902
  182SLPC  H18Z20868   2.892   5.590   4.076
  183SLPC     N20869   5.585   2.758   2.000
  183SLPC   C1320870   5.737   2.744   2.037
  183SLPC  H13A20871   5.755   2.693   2.130
  183SLPC  H13B20872   5.790   2.693   1.958
  183SLPC  H13C20873   5.783   2.842   2.040
  183SLPC   C1420874   5.545   2.624   1.939
  183SLPC  H14A20875   5.582   2.540   1.995
  183SLPC  H14B20876   5.439   2.602   1.944
  183SLPC  H14C20877   5.586   2.612   1.840
  183SLPC   C1520878   5.573   2.860   1.886
  183SLPC  H15A20879   5.633   2.828   1.802
  183SLPC  H15B20880   5.473   2.888   1.857
  183SLPC  H15C20881   5.623   2.950   1.917
  183SLPC   C1220882   5.501   2.798   2.118
  183SLPC  H12A20883   5.547   2.880   2.172
  183SLPC  H12B20884   5.508   2.714   2.185
  183SLPC   C1120885   5.351   2.839   2.097
  183SLPC  H11A20886   5.347   2.930   2.034
  183SLPC  H11B20887   5.336   2.864   2.204
  183SLPC     P20888   5.202   2.632   2.155
  183SLPC   O1320889   5.073   2.687   2.210
  183SLPC   O1420890   5.187   2.498   2.084
  183SLPC   O1220891   5.260   2.732   2.048
  183SLPC   O1120892   5.310   2.615   2.260
  183SLPC    C120893   5.304   2.557   2.388
  183SLPC    HA20894   5.216   2.599   2.442
  183SLPC    HB20895   5.288   2.449   2.368
  183SLPC    C220896   5.430   2.580   2.468
  183SLPC    HS20897   5.411   2.541   2.571
  183SLPC   O2120898   5.468   2.719   2.481
  183SLPC   C2120899   5.392   2.789   2.560
  183SLPC   O2220900   5.294   2.752   2.624
  183SLPC   C2220901   5.460   2.932   2.584
  183SLPC   H2R20902   5.570   2.914   2.582
  183SLPC   H2S20903   5.431   3.001   2.502
  183SLPC    C320904   5.549   2.508   2.402
  183SLPC    HX20905   5.540   2.539   2.296
  183SLPC    HY20906   5.524   2.400   2.402
  183SLPC   O3120907   5.680   2.538   2.444
  183SLPC   C3120908   5.712   2.472   2.556
  183SLPC   O3220909   5.649   2.384   2.613
  183SLPC   C3220910   5.854   2.526   2.584
  183SLPC   H2X20911   5.880   2.618   2.526
  183SLPC   H2Y20912   5.924   2.445   2.555
  183SLPC   C2320913   5.408   2.988   2.720
  183SLPC   H3R20914   5.419   2.916   2.804
  183SLPC   H3S20915   5.297   2.999   2.712
  183SLPC   C2420916   5.468   3.128   2.742
  183SLPC   H4R20917   5.444   3.202   2.663
  183SLPC   H4S20918   5.575   3.103   2.725
  183SLPC   C2520919   5.443   3.176   2.888
  183SLPC   H5R20920   5.477   3.103   2.965
  183SLPC   H5S20921   5.333   3.182   2.907
  183SLPC   C2620922   5.499   3.316   2.919
  183SLPC   H6R20923   5.434   3.388   2.864
  183SLPC   H6S20924   5.603   3.322   2.880
  183SLPC   C2720925   5.495   3.341   3.069
  183SLPC   H7R20926   5.555   3.259   3.115
  183SLPC   H7S20927   5.388   3.335   3.096
  183SLPC   C2820928   5.548   3.480   3.099
  183SLPC   H8R20929   5.531   3.499   3.207
  183SLPC   H8S20930   5.494   3.550   3.031
  183SLPC   C2920931   5.699   3.471   3.075
  183SLPC   H9R20932   5.735   3.450   2.973
  183SLPC  C21020933   5.794   3.512   3.158
  183SLPC  H10R20934   5.893   3.514   3.112
  183SLPC  C21120935   5.796   3.571   3.301
  183SLPC  H11R20936   5.850   3.511   3.378
  183SLPC  H11S20937   5.689   3.566   3.329
  183SLPC  C21220938   5.844   3.721   3.313
  183SLPC  H12R20939   5.906   3.757   3.229
  183SLPC  C21320940   5.835   3.797   3.423
  183SLPC  H13R20941   5.885   3.895   3.420
  183SLPC  C21420942   5.780   3.759   3.558
  183SLPC  H14R20943   5.774   3.648   3.564
  183SLPC  H14S20944   5.676   3.797   3.566
  183SLPC  C21520945   5.869   3.816   3.668
  183SLPC  H15R20946   5.834   3.920   3.688
  183SLPC  H15S20947   5.976   3.815   3.639
  183SLPC  C21620948   5.849   3.723   3.784
  183SLPC  H16R20949   5.904   3.626   3.781
  183SLPC  H16S20950   5.744   3.687   3.789
  183SLPC  C21720951   5.894   3.804   3.911
  183SLPC  H17R20952   5.875   3.737   3.998
  183SLPC  H17S20953   5.832   3.896   3.916
  183SLPC  C21820954   6.043   3.847   3.895
  183SLPC  H18R20955   6.054   3.919   3.812
  183SLPC  H18S20956   6.108   3.758   3.877
  183SLPC  H18T20957   6.077   3.904   3.984
  183SLPC   C3320958   5.878   2.558   2.735
  183SLPC   H3X20959   5.984   2.593   2.741
  183SLPC   H3Y20960   5.859   2.466   2.794
  183SLPC   C3420961   5.784   2.678   2.788
  183SLPC   H4X20962   5.679   2.652   2.760
  183SLPC   H4Y20963   5.812   2.774   2.740
  183SLPC   C3520964   5.774   2.696   2.937
  183SLPC   H5X20965   5.866   2.743   2.978
  183SLPC   H5Y20966   5.774   2.595   2.982
  183SLPC   C3620967   5.655   2.772   3.002
  183SLPC   H6X20968   5.564   2.711   2.984
  183SLPC   H6Y20969   5.643   2.873   2.955
  183SLPC   C3720970   5.651   2.794   3.155
  183SLPC   H7X20971   5.749   2.832   3.192
  183SLPC   H7Y20972   5.629   2.698   3.206
  183SLPC   C3820973   5.548   2.908   3.201
  183SLPC   H8X20974   5.451   2.864   3.168
  183SLPC   H8Y20975   5.566   3.007   3.154
  183SLPC   C3920976   5.546   2.915   3.353
  183SLPC   H9X20977   5.637   2.972   3.383
  183SLPC   H9Y20978   5.550   2.815   3.401
  183SLPC  C31020979   5.422   2.975   3.416
  183SLPC  H10X20980   5.398   2.925   3.512
  183SLPC  H10Y20981   5.333   2.963   3.350
  183SLPC  C31120982   5.445   3.130   3.428
  183SLPC  H11X20983   5.360   3.168   3.489
  183SLPC  H11Y20984   5.444   3.190   3.335
  183SLPC  C31220985   5.559   3.166   3.524
  183SLPC  H12X20986   5.653   3.158   3.465
  183SLPC  H12Y20987   5.563   3.084   3.599
  183SLPC  C31320988   5.552   3.304   3.587
  183SLPC  H13X20989   5.477   3.333   3.663
  183SLPC  H13Y20990   5.528   3.371   3.501
  183SLPC  C31420991   5.687   3.344   3.642
  183SLPC  H14X20992   5.687   3.448   3.679
  183SLPC  H14Y20993   5.759   3.351   3.557
  183SLPC  C31520994   5.745   3.267   3.762
  183SLPC  H15X20995   5.833   3.319   3.806
  183SLPC  H15Y20996   5.793   3.175   3.724
  183SLPC  C31620997   5.645   3.239   3.877
  183SLPC  H16X20998   5.683   3.156   3.940
  183SLPC  H16Y20999   5.546   3.199   3.846
  183SLPC  C31721000   5.604   3.358   3.970
  183SLPC  H17X21001   5.518   3.322   4.031
  183SLPC  H17Y21002   5.564   3.441   3.908
  183SLPC  C31821003   5.720   3.394   4.068
  183SLPC  H18X21004   5.800   3.443   4.011
  183SLPC  H18Y21005   5.748   3.307   4.131
  183SLPC  H18Z21006   5.686   3.479   4.131
  184SLPC     N21007   5.919   1.571   2.017
  184SLPC   C1321008   5.822   1.466   2.035
  184SLPC  H13A21009   5.718   1.493   2.033
  184SLPC  H13B21010   5.836   1.384   1.966
  184SLPC  H13C21011   5.842   1.420   2.131
  184SLPC   C1421012   5.873   1.665   1.908
  184SLPC  H14A21013   5.949   1.740   1.890
  184SLPC  H14B21014   5.852   1.623   1.810
  184SLPC  H14C21015   5.789   1.721   1.944
  184SLPC   C1521016   6.048   1.508   1.973
  184SLPC  H15A21017   6.129   1.579   1.972
  184SLPC  H15B21018   6.089   1.436   2.042
  184SLPC  H15C21019   6.048   1.452   1.880
  184SLPC   C1221020   5.941   1.653   2.139
  184SLPC  H12A21021   5.936   1.592   2.228
  184SLPC  H12B21022   5.859   1.723   2.148
  184SLPC   C1121023   6.074   1.730   2.153
  184SLPC  H11A21024   6.159   1.661   2.175
  184SLPC  H11B21025   6.057   1.790   2.245
  184SLPC     P21026   6.228   1.834   1.969
  184SLPC   O1321027   6.320   1.734   2.023
  184SLPC   O1421028   6.194   1.840   1.824
  184SLPC   O1221029   6.093   1.831   2.056
  184SLPC   O1121030   6.276   1.973   2.003
  184SLPC    C121031   6.414   2.011   1.982
  184SLPC    HA21032   6.468   1.939   1.917
  184SLPC    HB21033   6.419   2.098   1.913
  184SLPC    C221034   6.472   2.031   2.120
  184SLPC    HS21035   6.481   1.929   2.163
  184SLPC   O2121036   6.393   2.126   2.196
  184SLPC   C2121037   6.338   2.075   2.306
  184SLPC   O2221038   6.369   1.973   2.364
  184SLPC   C2221039   6.247   2.182   2.367
  184SLPC   H2R21040   6.305   2.275   2.386
  184SLPC   H2S21041   6.163   2.204   2.299
  184SLPC    C321042   6.612   2.090   2.093
  184SLPC    HX21043   6.596   2.171   2.019
  184SLPC    HY21044   6.674   2.008   2.052
  184SLPC   O3121045   6.661   2.138   2.221
  184SLPC   C3121046   6.700   2.265   2.230
  184SLPC   O3221047   6.697   2.347   2.139
  184SLPC   C3221048   6.741   2.297   2.373
  184SLPC   H2X21049   6.790   2.397   2.374
  184SLPC   H2Y21050   6.807   2.211   2.399
  184SLPC   C2321051   6.185   2.125   2.499
  184SLPC   H3R21052   6.269   2.088   2.562
  184SLPC   H3S21053   6.110   2.046   2.478
  184SLPC   C2421054   6.110   2.229   2.580
  184SLPC   H4R21055   6.014   2.244   2.526
  184SLPC   H4S21056   6.168   2.323   2.584
  184SLPC   C2521057   6.079   2.182   2.724
  184SLPC   H5R21058   6.090   2.072   2.738
  184SLPC   H5S21059   5.972   2.207   2.742
  184SLPC   C2621060   6.152   2.263   2.833
  184SLPC   H6R21061   6.118   2.369   2.836
  184SLPC   H6S21062   6.258   2.273   2.801
  184SLPC   C2721063   6.143   2.183   2.963
  184SLPC   H7R21064   6.178   2.077   2.963
  184SLPC   H7S21065   6.033   2.185   2.973
  184SLPC   C2821066   6.193   2.259   3.086
  184SLPC   H8R21067   6.138   2.356   3.093
  184SLPC   H8S21068   6.299   2.289   3.070
  184SLPC   C2921069   6.180   2.188   3.216
  184SLPC   H9R21070   6.131   2.091   3.201
  184SLPC  C21021071   6.236   2.228   3.331
  184SLPC  H10R21072   6.232   2.162   3.419
  184SLPC  C21121073   6.296   2.364   3.359
  184SLPC  H11R21074   6.280   2.404   3.461
  184SLPC  H11S21075   6.234   2.439   3.306
  184SLPC  C21221076   6.437   2.384   3.301
  184SLPC  H12R21077   6.476   2.314   3.226
  184SLPC  C21321078   6.533   2.457   3.362
  184SLPC  H13R21079   6.631   2.471   3.313
  184SLPC  C21421080   6.522   2.549   3.473
  184SLPC  H14R21081   6.580   2.502   3.555
  184SLPC  H14S21082   6.422   2.559   3.521
  184SLPC  C21521083   6.571   2.691   3.457
  184SLPC  H15R21084   6.682   2.691   3.461
  184SLPC  H15S21085   6.524   2.752   3.537
  184SLPC  C21621086   6.528   2.757   3.330
  184SLPC  H16R21087   6.419   2.758   3.308
  184SLPC  H16S21088   6.575   2.692   3.253
  184SLPC  C21721089   6.588   2.896   3.300
  184SLPC  H17R21090   6.576   2.895   3.189
  184SLPC  H17S21091   6.688   2.894   3.347
  184SLPC  C21821092   6.504   3.001   3.379
  184SLPC  H18R21093   6.549   2.998   3.480
  184SLPC  H18S21094   6.401   2.962   3.391
  184SLPC  H18T21095   6.504   3.109   3.351
  184SLPC   C3321096   6.616   2.308   2.467
  184SLPC   H3X21097   6.551   2.218   2.455
  184SLPC   H3Y21098   6.563   2.404   2.450
  184SLPC   C3421099   6.658   2.317   2.612
  184SLPC   H4X21100   6.742   2.389   2.622
  184SLPC   H4Y21101   6.707   2.220   2.634
  184SLPC   C3521102   6.557   2.347   2.720
  184SLPC   H5X21103   6.617   2.335   2.813
  184SLPC   H5Y21104   6.478   2.270   2.716
  184SLPC   C3621105   6.478   2.480   2.694
  184SLPC   H6X21106   6.404   2.470   2.612
  184SLPC   H6Y21107   6.553   2.553   2.656
  184SLPC   C3721108   6.405   2.530   2.818
  184SLPC   H7X21109   6.476   2.561   2.898
  184SLPC   H7Y21110   6.352   2.442   2.862
  184SLPC   C3821111   6.312   2.646   2.792
  184SLPC   H8X21112   6.222   2.620   2.731
  184SLPC   H8Y21113   6.377   2.720   2.741
  184SLPC   C3921114   6.269   2.716   2.924
  184SLPC   H9X21115   6.209   2.808   2.907
  184SLPC   H9Y21116   6.361   2.746   2.979
  184SLPC  C31021117   6.180   2.625   3.020
  184SLPC  H10X21118   6.255   2.563   3.074
  184SLPC  H10Y21119   6.105   2.564   2.965
  184SLPC  C31121120   6.127   2.717   3.128
  184SLPC  H11X21121   6.061   2.790   3.076
  184SLPC  H11Y21122   6.207   2.775   3.179
  184SLPC  C31221123   6.055   2.630   3.239
  184SLPC  H12X21124   6.080   2.522   3.233
  184SLPC  H12Y21125   5.946   2.626   3.221
  184SLPC  C31321126   6.066   2.691   3.381
  184SLPC  H13X21127   6.058   2.799   3.357
  184SLPC  H13Y21128   6.170   2.672   3.417
  184SLPC  C31421129   5.951   2.651   3.481
  184SLPC  H14X21130   5.956   2.540   3.491
  184SLPC  H14Y21131   5.851   2.677   3.439
  184SLPC  C31521132   5.962   2.723   3.616
  184SLPC  H15X21133   5.864   2.704   3.664
  184SLPC  H15Y21134   5.965   2.833   3.601
  184SLPC  C31621135   6.082   2.665   3.695
  184SLPC  H16X21136   6.174   2.650   3.634
  184SLPC  H16Y21137   6.049   2.564   3.728
  184SLPC  C31721138   6.104   2.755   3.819
  184SLPC  H17X21139   6.134   2.682   3.898
  184SLPC  H17Y21140   6.012   2.808   3.851
  184SLPC  C31821141   6.218   2.854   3.809
  184SLPC  H18X21142   6.301   2.811   3.749
  184SLPC  H18Y21143   6.262   2.884   3.907
  184SLPC  H18Z21144   6.180   2.940   3.750
  185POPC     N21145   1.764   5.874   6.467
  185POPC   C1221146   1.708   5.974   6.370
  185POPC  H12A21147   1.782   6.053   6.361
  185POPC  H12B21148   1.630   6.037   6.411
  185POPC   C1321149   1.645   5.804   6.533
  185POPC  H13A21150   1.585   5.760   6.455
  185POPC  H13B21151   1.681   5.722   6.593
  185POPC  H13C21152   1.579   5.877   6.579
  185POPC   C1421153   1.851   5.769   6.406
  185POPC  H14A21154   1.900   5.703   6.477
  185POPC  H14B21155   1.795   5.703   6.341
  185POPC  H14C21156   1.934   5.816   6.356
  185POPC   C1521157   1.837   5.942   6.580
  185POPC  H15A21158   1.876   5.869   6.649
  185POPC  H15B21159   1.777   6.025   6.615
  185POPC  H15C21160   1.915   6.003   6.537
  185POPC   C1121161   1.668   5.922   6.227
  185POPC  H11A21162   1.757   5.872   6.182
  185POPC  H11B21163   1.637   6.007   6.162
  185POPC     P21164   1.423   5.848   6.173
  185POPC   O1321165   1.388   5.995   6.163
  185POPC   O1421166   1.327   5.767   6.253
  185POPC   O1221167   1.560   5.837   6.249
  185POPC   O1121168   1.451   5.784   6.032
  185POPC    C121169   1.406   5.824   5.907
  185POPC    HA21170   1.494   5.824   5.840
  185POPC    HB21171   1.359   5.924   5.915
  185POPC    C221172   1.302   5.725   5.854
  185POPC    HS21173   1.205   5.742   5.906
  185POPC   O2121174   1.347   5.593   5.869
  185POPC   C2121175   1.256   5.499   5.893
  185POPC   O2221176   1.133   5.515   5.889
  185POPC   C2221177   1.330   5.366   5.901
  185POPC   H2R21178   1.337   5.332   6.006
  185POPC   H2S21179   1.429   5.389   5.856
  185POPC    C321180   1.275   5.747   5.705
  185POPC    HX21181   1.210   5.667   5.664
  185POPC    HY21182   1.374   5.733   5.655
  185POPC   O3121183   1.218   5.876   5.693
  185POPC   C3121184   1.082   5.891   5.668
  185POPC   O3221185   0.994   5.806   5.676
  185POPC   C3221186   1.049   6.037   5.638
  185POPC   H2X21187   1.118   6.069   5.557
  185POPC   H2Y21188   1.073   6.106   5.722
  185POPC   C2321189   1.259   5.258   5.810
  185POPC   H3R21190   1.150   5.265   5.788
  185POPC   H3S21191   1.282   5.166   5.870
  185POPC   C2421192   1.321   5.253   5.668
  185POPC   H4R21193   1.308   5.149   5.632
  185POPC   H4S21194   1.431   5.268   5.673
  185POPC   C2521195   1.263   5.355   5.572
  185POPC   H5R21196   1.268   5.454   5.622
  185POPC   H5S21197   1.153   5.345   5.576
  185POPC   C2621198   1.323   5.362   5.429
  185POPC   H6R21199   1.305   5.258   5.396
  185POPC   H6S21200   1.432   5.384   5.428
  185POPC   C2721201   1.244   5.460   5.340
  185POPC   H7R21202   1.265   5.559   5.387
  185POPC   H7S21203   1.137   5.436   5.360
  185POPC   C2821204   1.278   5.440   5.198
  185POPC   H8R21205   1.241   5.342   5.160
  185POPC   H8S21206   1.389   5.431   5.190
  185POPC   C2921207   1.223   5.556   5.112
  185POPC   H9121208   1.114   5.567   5.125
  185POPC  C21021209   1.289   5.648   5.036
  185POPC  H10121210   1.233   5.731   4.991
  185POPC  C21121211   1.436   5.644   5.008
  185POPC  H11R21212   1.460   5.676   4.904
  185POPC  H11S21213   1.479   5.542   5.011
  185POPC  C21221214   1.533   5.717   5.109
  185POPC  H12R21215   1.527   5.655   5.202
  185POPC  H12S21216   1.487   5.816   5.126
  185POPC  C21321217   1.673   5.730   5.056
  185POPC  H13R21218   1.709   5.635   5.012
  185POPC  H13S21219   1.741   5.760   5.138
  185POPC  C21421220   1.687   5.839   4.944
  185POPC  H14R21221   1.704   5.931   5.005
  185POPC  H14S21222   1.591   5.854   4.889
  185POPC  C21521223   1.804   5.820   4.850
  185POPC  H15R21224   1.889   5.793   4.917
  185POPC  H15S21225   1.822   5.913   4.793
  185POPC  C21621226   1.784   5.698   4.758
  185POPC  H16R21227   1.679   5.691   4.720
  185POPC  H16S21228   1.799   5.604   4.815
  185POPC  C21721229   1.886   5.709   4.650
  185POPC  H17R21230   1.989   5.709   4.691
  185POPC  H17S21231   1.874   5.805   4.594
  185POPC  C21821232   1.885   5.599   4.553
  185POPC  H18R21233   1.936   5.511   4.596
  185POPC  H18S21234   1.937   5.626   4.458
  185POPC  H18T21235   1.787   5.553   4.530
  185POPC   C3321236   0.892   6.042   5.602
  185POPC   H3X21237   0.873   6.152   5.598
  185POPC   H3Y21238   0.838   5.989   5.683
  185POPC   C3421239   0.855   5.986   5.461
  185POPC   H4X21240   0.744   5.986   5.456
  185POPC   H4Y21241   0.886   5.880   5.459
  185POPC   C3521242   0.908   6.071   5.354
  185POPC   H5X21243   1.017   6.051   5.355
  185POPC   H5Y21244   0.874   6.173   5.383
  185POPC   C3621245   0.844   6.038   5.215
  185POPC   H6X21246   0.736   6.024   5.237
  185POPC   H6Y21247   0.893   5.950   5.169
  185POPC   C3721248   0.875   6.150   5.117
  185POPC   H7X21249   0.985   6.161   5.104
  185POPC   H7Y21250   0.833   6.249   5.143
  185POPC   C3821251   0.815   6.121   4.980
  185POPC   H8X21252   0.705   6.118   4.993
  185POPC   H8Y21253   0.849   6.028   4.931
  185POPC   C3921254   0.848   6.236   4.884
  185POPC   H9X21255   0.953   6.227   4.850
  185POPC   H9Y21256   0.830   6.332   4.938
  185POPC  C31021257   0.759   6.254   4.761
  185POPC  H10X21258   0.655   6.271   4.797
  185POPC  H10Y21259   0.759   6.157   4.707
  185POPC  C31121260   0.813   6.369   4.675
  185POPC  H11X21261   0.924   6.369   4.670
  185POPC  H11Y21262   0.786   6.464   4.726
  185POPC  C31221263   0.751   6.363   4.531
  185POPC  H12X21264   0.761   6.260   4.492
  185POPC  H12Y21265   0.811   6.430   4.465
  185POPC  C31321266   0.603   6.400   4.526
  185POPC  H13X21267   0.591   6.467   4.614
  185POPC  H13Y21268   0.532   6.317   4.546
  185POPC  C31421269   0.565   6.474   4.389
  185POPC  H14X21270   0.579   6.394   4.313
  185POPC  H14Y21271   0.649   6.546   4.383
  185POPC  C31521272   0.424   6.537   4.390
  185POPC  H15X21273   0.398   6.579   4.291
  185POPC  H15Y21274   0.426   6.621   4.462
  185POPC  C31621275   0.312   6.439   4.417
  185POPC  H16X21276   0.336   6.380   4.508
  185POPC  H16Y21277   0.283   6.374   4.331
  185POPC  H16Z21278   0.218   6.499   4.421
  186POPC     N21279   3.238   5.622   6.771
  186POPC   C1221280   3.292   5.685   6.637
  186POPC  H12A21281   3.245   5.636   6.554
  186POPC  H12B21282   3.394   5.651   6.635
  186POPC   C1321283   3.243   5.474   6.757
  186POPC  H13A21284   3.346   5.442   6.763
  186POPC  H13B21285   3.186   5.429   6.837
  186POPC  H13C21286   3.204   5.452   6.659
  186POPC   C1421287   3.316   5.670   6.885
  186POPC  H14A21288   3.420   5.656   6.858
  186POPC  H14B21289   3.302   5.776   6.892
  186POPC  H14C21290   3.293   5.614   6.975
  186POPC   C1521291   3.095   5.659   6.783
  186POPC  H15A21292   3.039   5.638   6.692
  186POPC  H15B21293   3.084   5.766   6.798
  186POPC  H15C21294   3.047   5.598   6.858
  186POPC   C1121295   3.298   5.839   6.607
  186POPC  H11A21296   3.197   5.884   6.609
  186POPC  H11B21297   3.331   5.848   6.502
  186POPC     P21298   3.521   5.943   6.664
  186POPC   O1321299   3.600   5.818   6.660
  186POPC   O1421300   3.573   6.051   6.748
  186POPC   O1221301   3.378   5.912   6.703
  186POPC   O1121302   3.530   6.008   6.521
  186POPC    C121303   3.438   6.119   6.495
  186POPC    HA21304   3.430   6.188   6.581
  186POPC    HB21305   3.336   6.088   6.462
  186POPC    C221306   3.495   6.204   6.385
  186POPC    HS21307   3.453   6.307   6.379
  186POPC   O2121308   3.476   6.144   6.256
  186POPC   C2121309   3.373   6.184   6.183
  186POPC   O2221310   3.271   6.236   6.225
  186POPC   C2221311   3.391   6.132   6.037
  186POPC   H2R21312   3.289   6.118   5.995
  186POPC   H2S21313   3.439   6.032   6.040
  186POPC    C321314   3.652   6.231   6.402
  186POPC    HX21315   3.699   6.136   6.368
  186POPC    HY21316   3.672   6.250   6.509
  186POPC   O3121317   3.701   6.352   6.338
  186POPC   C3121318   3.770   6.342   6.226
  186POPC   O3221319   3.791   6.232   6.172
  186POPC   C3221320   3.808   6.486   6.174
  186POPC   H2X21321   3.919   6.483   6.174
  186POPC   H2Y21322   3.769   6.572   6.232
  186POPC   C2321323   3.479   6.220   5.944
  186POPC   H3R21324   3.585   6.225   5.974
  186POPC   H3S21325   3.442   6.325   5.936
  186POPC   C2421326   3.481   6.159   5.807
  186POPC   H4R21327   3.383   6.127   5.766
  186POPC   H4S21328   3.548   6.071   5.806
  186POPC   C2521329   3.546   6.264   5.706
  186POPC   H5R21330   3.656   6.251   5.714
  186POPC   H5S21331   3.511   6.363   5.742
  186POPC   C2621332   3.519   6.236   5.558
  186POPC   H6R21333   3.558   6.324   5.505
  186POPC   H6S21334   3.409   6.243   5.543
  186POPC   C2721335   3.585   6.116   5.493
  186POPC   H7R21336   3.538   6.022   5.530
  186POPC   H7S21337   3.693   6.111   5.518
  186POPC   C2821338   3.576   6.115   5.342
  186POPC   H8R21339   3.630   6.205   5.304
  186POPC   H8S21340   3.471   6.131   5.312
  186POPC   C2921341   3.622   5.988   5.270
  186POPC   H9121342   3.643   5.913   5.348
  186POPC  C21021343   3.644   5.956   5.143
  186POPC  H10121344   3.657   5.851   5.115
  186POPC  C21121345   3.613   6.050   5.031
  186POPC  H11R21346   3.597   6.156   5.062
  186POPC  H11S21347   3.512   6.025   4.992
  186POPC  C21221348   3.712   6.051   4.911
  186POPC  H12R21349   3.815   6.054   4.953
  186POPC  H12S21350   3.698   6.144   4.852
  186POPC  C21321351   3.696   5.930   4.816
  186POPC  H13R21352   3.599   5.932   4.761
  186POPC  H13S21353   3.701   5.839   4.880
  186POPC  C21421354   3.795   5.931   4.697
  186POPC  H14R21355   3.801   5.826   4.663
  186POPC  H14S21356   3.895   5.957   4.738
  186POPC  C21521357   3.777   6.023   4.570
  186POPC  H15R21358   3.777   6.127   4.610
  186POPC  H15S21359   3.673   6.013   4.533
  186POPC  C21621360   3.882   6.016   4.458
  186POPC  H16R21361   3.894   5.913   4.419
  186POPC  H16S21362   3.980   6.028   4.510
  186POPC  C21721363   3.849   6.113   4.348
  186POPC  H17R21364   3.940   6.132   4.288
  186POPC  H17S21365   3.813   6.210   4.388
  186POPC  C21821366   3.751   6.070   4.245
  186POPC  H18R21367   3.728   6.144   4.166
  186POPC  H18S21368   3.658   6.047   4.302
  186POPC  H18T21369   3.775   5.977   4.189
  186POPC   C3321370   3.764   6.492   6.024
  186POPC   H3X21371   3.653   6.495   6.017
  186POPC   H3Y21372   3.792   6.403   5.963
  186POPC   C3421373   3.818   6.617   5.941
  186POPC   H4X21374   3.926   6.640   5.957
  186POPC   H4Y21375   3.761   6.705   5.976
  186POPC   C3521376   3.793   6.606   5.795
  186POPC   H5X21377   3.840   6.703   5.767
  186POPC   H5Y21378   3.683   6.611   5.779
  186POPC   C3621379   3.864   6.506   5.706
  186POPC   H6X21380   3.854   6.400   5.740
  186POPC   H6Y21381   3.972   6.531   5.716
  186POPC   C3721382   3.838   6.506   5.554
  186POPC   H7X21383   3.825   6.610   5.518
  186POPC   H7Y21384   3.737   6.465   5.534
  186POPC   C3821385   3.951   6.446   5.467
  186POPC   H8X21386   3.986   6.358   5.525
  186POPC   H8Y21387   4.040   6.510   5.485
  186POPC   C3921388   3.904   6.417   5.328
  186POPC   H9X21389   3.810   6.358   5.323
  186POPC   H9Y21390   3.979   6.358   5.271
  186POPC  C31021391   3.856   6.546   5.258
  186POPC  H10X21392   3.925   6.627   5.293
  186POPC  H10Y21393   3.752   6.560   5.293
  186POPC  C31121394   3.840   6.521   5.100
  186POPC  H11X21395   3.941   6.500   5.060
  186POPC  H11Y21396   3.800   6.618   5.061
  186POPC  C31221397   3.746   6.412   5.058
  186POPC  H12X21398   3.661   6.394   5.127
  186POPC  H12Y21399   3.810   6.321   5.056
  186POPC  C31321400   3.677   6.446   4.927
  186POPC  H13X21401   3.617   6.538   4.947
  186POPC  H13Y21402   3.604   6.365   4.907
  186POPC  C31421403   3.773   6.460   4.808
  186POPC  H14X21404   3.824   6.368   4.775
  186POPC  H14Y21405   3.864   6.515   4.842
  186POPC  C31521406   3.715   6.535   4.688
  186POPC  H15X21407   3.664   6.627   4.725
  186POPC  H15Y21408   3.639   6.479   4.629
  186POPC  C31621409   3.826   6.582   4.595
  186POPC  H16X21410   3.894   6.658   4.638
  186POPC  H16Y21411   3.775   6.617   4.503
  186POPC  H16Z21412   3.889   6.492   4.576
  187POPC     N21413   6.010   5.421   1.704
  187POPC   C1221414   6.040   5.480   1.844
  187POPC  H12A21415   5.948   5.509   1.893
  187POPC  H12B21416   6.103   5.567   1.839
  187POPC   C1321417   6.139   5.411   1.626
  187POPC  H13A21418   6.123   5.344   1.543
  187POPC  H13B21419   6.180   5.500   1.581
  187POPC  H13C21420   6.220   5.374   1.687
  187POPC   C1421421   5.948   5.283   1.714
  187POPC  H14A21422   5.996   5.221   1.788
  187POPC  H14B21423   5.847   5.289   1.752
  187POPC  H14C21424   5.965   5.231   1.620
  187POPC   C1521425   5.921   5.514   1.629
  187POPC  H15A21426   5.876   5.467   1.544
  187POPC  H15B21427   5.963   5.612   1.609
  187POPC  H15C21428   5.835   5.535   1.691
  187POPC   C1121429   6.118   5.386   1.943
  187POPC  H11A21430   6.068   5.286   1.935
  187POPC  H11B21431   6.120   5.419   2.049
  187POPC     P21432   6.359   5.278   1.956
  187POPC   O1321433   6.488   5.346   1.948
  187POPC   O1421434   6.344   5.144   1.884
  187POPC   O1221435   6.252   5.382   1.906
  187POPC   O1121436   6.319   5.270   2.109
  187POPC    C121437   6.404   5.323   2.218
  187POPC    HA21438   6.498   5.370   2.181
  187POPC    HB21439   6.437   5.238   2.281
  187POPC    C221440   6.337   5.418   2.322
  187POPC    HS21441   6.415   5.449   2.395
  187POPC   O2121442   6.210   5.376   2.386
  187POPC   C2121443   6.238   5.292   2.489
  187POPC   O2221444   6.352   5.258   2.521
  187POPC   C2221445   6.111   5.230   2.534
  187POPC   H2R21446   6.125   5.123   2.510
  187POPC   H2S21447   6.023   5.265   2.476
  187POPC    C321448   6.310   5.559   2.259
  187POPC    HX21449   6.234   5.537   2.181
  187POPC    HY21450   6.401   5.588   2.204
  187POPC   O3121451   6.261   5.658   2.359
  187POPC   C3121452   6.306   5.781   2.341
  187POPC   O3221453   6.381   5.817   2.252
  187POPC   C3221454   6.256   5.874   2.461
  187POPC   H2X21455   6.342   5.896   2.527
  187POPC   H2Y21456   6.188   5.819   2.530
  187POPC   C2321457   6.079   5.252   2.680
  187POPC   H3R21458   6.056   5.356   2.711
  187POPC   H3S21459   6.169   5.218   2.735
  187POPC   C2421460   5.969   5.151   2.729
  187POPC   H4R21461   5.993   5.134   2.836
  187POPC   H4S21462   6.000   5.060   2.673
  187POPC   C2521463   5.823   5.184   2.686
  187POPC   H5R21464   5.811   5.209   2.578
  187POPC   H5S21465   5.781   5.267   2.747
  187POPC   C2621466   5.736   5.063   2.725
  187POPC   H6R21467   5.754   4.978   2.656
  187POPC   H6S21468   5.639   5.103   2.687
  187POPC   C2721469   5.732   5.019   2.873
  187POPC   H7R21470   5.755   5.105   2.940
  187POPC   H7S21471   5.820   4.953   2.883
  187POPC   C2821472   5.612   4.937   2.922
  187POPC   H8R21473   5.652   4.866   2.998
  187POPC   H8S21474   5.568   4.875   2.841
  187POPC   C2921475   5.509   5.025   2.980
  187POPC   H9121476   5.466   5.094   2.905
  187POPC  C21021477   5.465   5.037   3.101
  187POPC  H10121478   5.383   5.106   3.124
  187POPC  C21121479   5.520   4.966   3.218
  187POPC  H11R21480   5.613   5.009   3.260
  187POPC  H11S21481   5.555   4.864   3.190
  187POPC  C21221482   5.409   4.960   3.325
  187POPC  H12R21483   5.322   4.899   3.293
  187POPC  H12S21484   5.384   5.066   3.348
  187POPC  C21321485   5.456   4.910   3.453
  187POPC  H13R21486   5.518   4.818   3.449
  187POPC  H13S21487   5.374   4.869   3.516
  187POPC  C21421488   5.536   5.011   3.546
  187POPC  H14R21489   5.472   5.100   3.560
  187POPC  H14S21490   5.627   5.040   3.489
  187POPC  C21521491   5.590   4.961   3.680
  187POPC  H15R21492   5.631   4.858   3.673
  187POPC  H15S21493   5.511   4.951   3.757
  187POPC  C21621494   5.702   5.034   3.728
  187POPC  H16R21495   5.670   5.134   3.766
  187POPC  H16S21496   5.773   5.051   3.644
  187POPC  C21721497   5.769   4.967   3.852
  187POPC  H17R21498   5.794   4.862   3.826
  187POPC  H17S21499   5.693   4.968   3.933
  187POPC  C21821500   5.891   5.039   3.902
  187POPC  H18R21501   5.946   5.072   3.812
  187POPC  H18S21502   5.970   4.976   3.947
  187POPC  H18T21503   5.857   5.134   3.949
  187POPC   C3321504   6.181   5.998   2.419
  187POPC   H3X21505   6.112   5.973   2.335
  187POPC   H3Y21506   6.249   6.077   2.381
  187POPC   C3421507   6.092   6.051   2.536
  187POPC   H4X21508   6.031   5.975   2.588
  187POPC   H4Y21509   6.027   6.132   2.495
  187POPC   C3521510   6.177   6.128   2.639
  187POPC   H5X21511   6.252   6.191   2.586
  187POPC   H5Y21512   6.228   6.054   2.705
  187POPC   C3621513   6.094   6.216   2.732
  187POPC   H6X21514   6.008   6.155   2.766
  187POPC   H6Y21515   6.049   6.298   2.673
  187POPC   C3721516   6.172   6.272   2.848
  187POPC   H7X21517   6.121   6.364   2.883
  187POPC   H7Y21518   6.277   6.303   2.826
  187POPC   C3821519   6.185   6.176   2.970
  187POPC   H8X21520   6.205   6.070   2.945
  187POPC   H8Y21521   6.078   6.161   2.997
  187POPC   C3921522   6.259   6.225   3.090
  187POPC   H9X21523   6.204   6.313   3.129
  187POPC   H9Y21524   6.362   6.256   3.059
  187POPC  C31021525   6.271   6.122   3.205
  187POPC  H10X21526   6.320   6.032   3.163
  187POPC  H10Y21527   6.168   6.091   3.232
  187POPC  C31121528   6.355   6.172   3.330
  187POPC  H11X21529   6.332   6.280   3.344
  187POPC  H11Y21530   6.462   6.167   3.302
  187POPC  C31221531   6.331   6.085   3.456
  187POPC  H12X21532   6.371   5.986   3.426
  187POPC  H12Y21533   6.220   6.079   3.460
  187POPC  C31321534   6.404   6.121   3.587
  187POPC  H13X21535   6.514   6.118   3.572
  187POPC  H13Y21536   6.362   6.061   3.671
  187POPC  C31421537   6.372   6.268   3.631
  187POPC  H14X21538   6.263   6.280   3.647
  187POPC  H14Y21539   6.395   6.335   3.545
  187POPC  C31521540   6.436   6.304   3.760
  187POPC  H15X21541   6.547   6.304   3.753
  187POPC  H15Y21542   6.413   6.226   3.836
  187POPC  C31621543   6.406   6.439   3.823
  187POPC  H16X21544   6.299   6.450   3.852
  187POPC  H16Y21545   6.435   6.516   3.748
  187POPC  H16Z21546   6.469   6.455   3.913
  188POPC     N21547   5.385   4.741   1.845
  188POPC   C1221548   5.391   4.725   1.992
  188POPC  H12A21549   5.370   4.621   2.014
  188POPC  H12B21550   5.308   4.777   2.039
  188POPC   C1321551   5.421   4.877   1.801
  188POPC  H13A21552   5.354   4.952   1.842
  188POPC  H13B21553   5.521   4.901   1.834
  188POPC  H13C21554   5.439   4.883   1.695
  188POPC   C1421555   5.490   4.649   1.775
  188POPC  H14A21556   5.472   4.546   1.800
  188POPC  H14B21557   5.495   4.660   1.668
  188POPC  H14C21558   5.591   4.671   1.808
  188POPC   C1521559   5.255   4.691   1.783
  188POPC  H15A21560   5.255   4.701   1.676
  188POPC  H15B21561   5.167   4.737   1.826
  188POPC  H15C21562   5.233   4.586   1.793
  188POPC   C1121563   5.519   4.774   2.065
  188POPC  H11A21564   5.604   4.723   2.016
  188POPC  H11B21565   5.506   4.739   2.170
  188POPC     P21566   5.448   5.004   2.163
  188POPC   O1321567   5.312   4.955   2.180
  188POPC   O1421568   5.462   5.147   2.123
  188POPC   O1221569   5.533   4.914   2.058
  188POPC   O1121570   5.533   4.982   2.294
  188POPC    C121571   5.480   4.975   2.429
  188POPC    HA21572   5.557   4.971   2.510
  188POPC    HB21573   5.422   4.880   2.439
  188POPC    C221574   5.384   5.096   2.471
  188POPC    HS21575   5.306   5.106   2.393
  188POPC   O2121576   5.466   5.212   2.463
  188POPC   C2121577   5.414   5.333   2.479
  188POPC   O2221578   5.295   5.358   2.466
  188POPC   C2221579   5.515   5.444   2.516
  188POPC   H2R21580   5.502   5.510   2.427
  188POPC   H2S21581   5.620   5.408   2.508
  188POPC    C321582   5.334   5.075   2.615
  188POPC    HX21583   5.423   5.069   2.682
  188POPC    HY21584   5.290   4.973   2.618
  188POPC   O3121585   5.239   5.171   2.680
  188POPC   C3121586   5.119   5.169   2.621
  188POPC   O3221587   5.075   5.090   2.538
  188POPC   C3221588   5.032   5.288   2.673
  188POPC   H2X21589   5.001   5.355   2.589
  188POPC   H2Y21590   5.098   5.348   2.739
  188POPC   C2321591   5.474   5.515   2.652
  188POPC   H3R21592   5.367   5.536   2.673
  188POPC   H3S21593   5.507   5.621   2.649
  188POPC   C2421594   5.539   5.441   2.766
  188POPC   H4R21595   5.649   5.443   2.750
  188POPC   H4S21596   5.504   5.336   2.772
  188POPC   C2521597   5.509   5.511   2.902
  188POPC   H5R21598   5.405   5.518   2.941
  188POPC   H5S21599   5.540   5.616   2.890
  188POPC   C2621600   5.586   5.444   3.015
  188POPC   H6R21601   5.691   5.433   2.980
  188POPC   H6S21602   5.545   5.343   3.037
  188POPC   C2721603   5.581   5.529   3.148
  188POPC   H7R21604   5.618   5.628   3.116
  188POPC   H7S21605   5.657   5.493   3.221
  188POPC   C2821606   5.443   5.529   3.222
  188POPC   H8R21607   5.351   5.550   3.163
  188POPC   H8S21608   5.454   5.613   3.294
  188POPC   C2921609   5.437   5.397   3.289
  188POPC   H9121610   5.415   5.318   3.215
  188POPC  C21021611   5.456   5.378   3.419
  188POPC  H10121612   5.460   5.277   3.464
  188POPC  C21121613   5.513   5.481   3.515
  188POPC  H11R21614   5.442   5.562   3.543
  188POPC  H11S21615   5.592   5.530   3.454
  188POPC  C21221616   5.579   5.424   3.639
  188POPC  H12R21617   5.665   5.360   3.608
  188POPC  H12S21618   5.502   5.375   3.702
  188POPC  C21321619   5.638   5.533   3.732
  188POPC  H13R21620   5.565   5.604   3.776
  188POPC  H13S21621   5.697   5.593   3.660
  188POPC  C21421622   5.710   5.471   3.853
  188POPC  H14R21623   5.765   5.382   3.816
  188POPC  H14S21624   5.636   5.422   3.920
  188POPC  C21521625   5.803   5.580   3.924
  188POPC  H15R21626   5.745   5.670   3.956
  188POPC  H15S21627   5.884   5.605   3.853
  188POPC  C21621628   5.878   5.524   4.046
  188POPC  H16R21629   5.961   5.460   4.009
  188POPC  H16S21630   5.807   5.468   4.110
  188POPC  C21721631   5.947   5.637   4.124
  188POPC  H17R21632   5.866   5.696   4.171
  188POPC  H17S21633   6.004   5.690   4.045
  188POPC  C21821634   6.035   5.581   4.233
  188POPC  H18R21635   6.126   5.527   4.200
  188POPC  H18S21636   5.986   5.501   4.293
  188POPC  H18T21637   6.077   5.658   4.302
  188POPC   C3321638   4.904   5.257   2.754
  188POPC   H3X21639   4.830   5.195   2.698
  188POPC   H3Y21640   4.854   5.352   2.781
  188POPC   C3421641   4.929   5.167   2.881
  188POPC   H4X21642   4.979   5.069   2.869
  188POPC   H4Y21643   4.829   5.148   2.928
  188POPC   C3521644   5.016   5.242   2.979
  188POPC   H5X21645   4.970   5.340   3.004
  188POPC   H5Y21646   5.118   5.262   2.941
  188POPC   C3621647   5.022   5.172   3.112
  188POPC   H6X21648   5.096   5.089   3.113
  188POPC   H6Y21649   4.918   5.141   3.136
  188POPC   C3721650   5.056   5.271   3.222
  188POPC   H7X21651   5.002   5.368   3.220
  188POPC   H7Y21652   5.165   5.295   3.223
  188POPC   C3821653   5.045   5.210   3.369
  188POPC   H8X21654   5.072   5.102   3.362
  188POPC   H8Y21655   4.936   5.206   3.393
  188POPC   C3921656   5.118   5.281   3.482
  188POPC   H9X21657   5.076   5.378   3.514
  188POPC   H9Y21658   5.213   5.318   3.440
  188POPC  C31021659   5.145   5.189   3.603
  188POPC  H10X21660   5.211   5.105   3.575
  188POPC  H10Y21661   5.055   5.138   3.643
  188POPC  C31121662   5.219   5.266   3.711
  188POPC  H11X21663   5.154   5.346   3.754
  188POPC  H11Y21664   5.310   5.318   3.675
  188POPC  C31221665   5.272   5.171   3.823
  188POPC  H12X21666   5.342   5.094   3.785
  188POPC  H12Y21667   5.186   5.114   3.865
  188POPC  C31321668   5.351   5.238   3.935
  188POPC  H13X21669   5.291   5.308   3.997
  188POPC  H13Y21670   5.435   5.301   3.897
  188POPC  C31421671   5.408   5.134   4.039
  188POPC  H14X21672   5.481   5.063   3.996
  188POPC  H14Y21673   5.325   5.068   4.072
  188POPC  C31521674   5.478   5.184   4.169
  188POPC  H15X21675   5.396   5.216   4.237
  188POPC  H15Y21676   5.541   5.275   4.155
  188POPC  C31621677   5.573   5.091   4.256
  188POPC  H16X21678   5.611   5.146   4.344
  188POPC  H16Y21679   5.659   5.054   4.196
  188POPC  H16Z21680   5.507   5.004   4.279
  189SAPI   C1221681   2.387   5.380   6.937
  189SAPI    H221682   2.299   5.313   6.950
  189SAPI    O221683   2.356   5.516   6.970
  189SAPI   HO221684   2.327   5.566   6.894
  189SAPI   C1321685   2.486   5.329   7.035
  189SAPI    H321686   2.512   5.223   7.011
  189SAPI    O321687   2.438   5.333   7.171
  189SAPI   HO321688   2.397   5.417   7.191
  189SAPI   C1421689   2.616   5.407   7.028
  189SAPI    H421690   2.605   5.510   7.068
  189SAPI    O421691   2.720   5.344   7.103
  189SAPI   HO421692   2.704   5.376   7.192
  189SAPI   C1521693   2.662   5.424   6.877
  189SAPI    H521694   2.719   5.330   6.856
  189SAPI    O521695   2.763   5.527   6.869
  189SAPI   HO521696   2.839   5.487   6.827
  189SAPI   C1621697   2.555   5.432   6.767
  189SAPI    H621698   2.512   5.534   6.765
  189SAPI    O621699   2.612   5.407   6.639
  189SAPI   HO621700   2.532   5.390   6.589
  189SAPI   C1121701   2.431   5.352   6.800
  189SAPI    H121702   2.453   5.245   6.781
  189SAPI     P21703   2.285   5.308   6.579
  189SAPI   O1321704   2.151   5.346   6.525
  189SAPI   O1421705   2.314   5.165   6.593
  189SAPI   O1221706   2.313   5.384   6.719
  189SAPI   O1121707   2.398   5.385   6.489
  189SAPI    C121708   2.383   5.527   6.477
  189SAPI    HA21709   2.289   5.562   6.525
  189SAPI    HB21710   2.460   5.575   6.542
  189SAPI    C221711   2.386   5.577   6.333
  189SAPI    HS21712   2.373   5.687   6.334
  189SAPI   O2121713   2.287   5.506   6.258
  189SAPI   C2121714   2.165   5.562   6.256
  189SAPI   O2221715   2.128   5.667   6.310
  189SAPI   C2221716   2.070   5.457   6.191
  189SAPI   H2R21717   2.100   5.359   6.234
  189SAPI   H2S21718   1.966   5.479   6.223
  189SAPI    C321719   2.535   5.552   6.289
  189SAPI    HX21720   2.570   5.451   6.323
  189SAPI    HY21721   2.595   5.632   6.337
  189SAPI   O3121722   2.554   5.563   6.147
  189SAPI   C3121723   2.565   5.458   6.073
  189SAPI   O3221724   2.544   5.340   6.103
  189SAPI   C3221725   2.599   5.501   5.930
  189SAPI   H2X21726   2.697   5.462   5.898
  189SAPI   H2Y21727   2.600   5.611   5.914
  189SAPI   C2321728   2.082   5.466   6.040
  189SAPI   H3R21729   2.007   5.398   5.994
  189SAPI   H3S21730   2.183   5.428   6.015
  189SAPI   C2421731   2.045   5.594   5.973
  189SAPI   H4R21732   2.067   5.571   5.866
  189SAPI   H4S21733   2.107   5.680   6.008
  189SAPI   C2521734   1.908   5.644   6.000
  189SAPI   H5R21735   1.894   5.683   6.102
  189SAPI   C2621736   1.796   5.643   5.920
  189SAPI   H6R21737   1.703   5.676   5.967
  189SAPI   C2721738   1.780   5.602   5.772
  189SAPI   H7R21739   1.849   5.520   5.745
  189SAPI   H7S21740   1.817   5.685   5.708
  189SAPI   C2821741   1.636   5.565   5.730
  189SAPI   H8R21742   1.580   5.521   5.813
  189SAPI   C2921743   1.577   5.577   5.607
  189SAPI   H9R21744   1.473   5.543   5.595
  189SAPI  C21021745   1.647   5.623   5.486
  189SAPI  H10R21746   1.725   5.698   5.512
  189SAPI  H10S21747   1.571   5.672   5.422
  189SAPI  C21121748   1.715   5.518   5.403
  189SAPI  H11R21749   1.642   5.449   5.359
  189SAPI  C21221750   1.849   5.507   5.379
  189SAPI  H12R21751   1.884   5.436   5.302
  189SAPI  C21321752   1.952   5.602   5.428
  189SAPI  H13R21753   1.963   5.584   5.538
  189SAPI  H13S21754   1.923   5.708   5.411
  189SAPI  C21421755   2.088   5.589   5.360
  189SAPI  H14R21756   2.155   5.520   5.415
  189SAPI  C21521757   2.134   5.648   5.250
  189SAPI  H15R21758   2.236   5.618   5.221
  189SAPI  C21621759   2.061   5.737   5.162
  189SAPI  H16R21760   2.049   5.831   5.220
  189SAPI  H16S21761   1.968   5.685   5.132
  189SAPI  C21721762   2.146   5.750   5.038
  189SAPI  H17R21763   2.249   5.781   5.066
  189SAPI  H17S21764   2.104   5.826   4.968
  189SAPI  C21821765   2.162   5.624   4.956
  189SAPI  H18R21766   2.068   5.577   4.921
  189SAPI  H18S21767   2.216   5.538   5.002
  189SAPI  C21921768   2.248   5.647   4.837
  189SAPI  H19R21769   2.347   5.687   4.867
  189SAPI  H19S21770   2.195   5.731   4.787
  189SAPI  C22021771   2.278   5.535   4.739
  189SAPI  H20R21772   2.184   5.484   4.706
  189SAPI  H20S21773   2.338   5.459   4.794
  189SAPI  H20T21774   2.334   5.571   4.650
  189SAPI   C3321775   2.492   5.451   5.832
  189SAPI   H3X21776   2.457   5.350   5.864
  189SAPI   H3Y21777   2.538   5.444   5.731
  189SAPI   C3421778   2.364   5.534   5.822
  189SAPI   H4X21779   2.324   5.567   5.920
  189SAPI   H4Y21780   2.282   5.473   5.779
  189SAPI   C3521781   2.378   5.656   5.729
  189SAPI   H5X21782   2.410   5.611   5.633
  189SAPI   H5Y21783   2.462   5.724   5.755
  189SAPI   C3621784   2.240   5.724   5.695
  189SAPI   H6X21785   2.202   5.795   5.772
  189SAPI   H6Y21786   2.164   5.645   5.677
  189SAPI   C3721787   2.238   5.813   5.578
  189SAPI   H7X21788   2.130   5.836   5.563
  189SAPI   H7Y21789   2.279   5.756   5.491
  189SAPI   C3821790   2.316   5.948   5.602
  189SAPI   H8X21791   2.423   5.917   5.593
  189SAPI   H8Y21792   2.282   5.997   5.696
  189SAPI   C3921793   2.272   6.061   5.500
  189SAPI   H9X21794   2.330   6.150   5.532
  189SAPI   H9Y21795   2.163   6.069   5.518
  189SAPI  C31021796   2.317   6.039   5.354
  189SAPI  H10X21797   2.281   5.937   5.329
  189SAPI  H10Y21798   2.426   6.020   5.371
  189SAPI  C31121799   2.284   6.153   5.257
  189SAPI  H11X21800   2.349   6.236   5.293
  189SAPI  H11Y21801   2.179   6.189   5.260
  189SAPI  C31221802   2.303   6.127   5.115
  189SAPI  H12X21803   2.223   6.057   5.084
  189SAPI  H12Y21804   2.397   6.068   5.108
  189SAPI  C31321805   2.295   6.255   5.035
  189SAPI  H13X21806   2.327   6.349   5.084
  189SAPI  H13Y21807   2.192   6.275   5.000
  189SAPI  C31421808   2.387   6.243   4.916
  189SAPI  H14X21809   2.371   6.145   4.866
  189SAPI  H14Y21810   2.493   6.235   4.947
  189SAPI  C31521811   2.378   6.368   4.829
  189SAPI  H15X21812   2.380   6.466   4.883
  189SAPI  H15Y21813   2.290   6.372   4.761
  189SAPI  C31621814   2.495   6.370   4.731
  189SAPI  H16X21815   2.503   6.264   4.697
  189SAPI  H16Y21816   2.587   6.394   4.788
  189SAPI  C31721817   2.491   6.451   4.593
  189SAPI  H17X21818   2.496   6.558   4.624
  189SAPI  H17Y21819   2.389   6.431   4.554
  189SAPI  C31821820   2.612   6.410   4.507
  189SAPI  H18X21821   2.700   6.391   4.572
  189SAPI  H18Y21822   2.641   6.488   4.433
  189SAPI  H18Z21823   2.587   6.313   4.460
  190SAPI   C1221824   1.195   3.124   6.585
  190SAPI    H221825   1.167   3.079   6.487
  190SAPI    O221826   1.327   3.080   6.630
  190SAPI   HO221827   1.345   2.991   6.599
  190SAPI   C1321828   1.202   3.270   6.557
  190SAPI    H321829   1.099   3.303   6.530
  190SAPI    O321830   1.286   3.303   6.450
  190SAPI   HO321831   1.359   3.242   6.463
  190SAPI   C1421832   1.230   3.346   6.683
  190SAPI    H421833   1.340   3.337   6.691
  190SAPI    O421834   1.211   3.484   6.662
  190SAPI   HO421835   1.297   3.524   6.645
  190SAPI   C1521836   1.164   3.298   6.814
  190SAPI    H521837   1.079   3.369   6.829
  190SAPI    O521838   1.253   3.317   6.928
  190SAPI   HO521839   1.215   3.302   7.014
  190SAPI   C1621840   1.096   3.157   6.814
  190SAPI    H621841   1.164   3.091   6.871
  190SAPI    O621842   0.969   3.150   6.886
  190SAPI   HO621843   0.926   3.075   6.845
  190SAPI   C1121844   1.085   3.086   6.682
  190SAPI    H121845   0.996   3.126   6.630
  190SAPI     P21846   0.928   2.866   6.706
  190SAPI   O1321847   0.842   2.955   6.785
  190SAPI   O1421848   0.940   2.730   6.754
  190SAPI   O1221849   1.080   2.942   6.697
  190SAPI   O1121850   0.873   2.867   6.557
  190SAPI    C121851   0.966   2.837   6.451
  190SAPI    HA21852   0.983   2.935   6.402
  190SAPI    HB21853   1.060   2.788   6.483
  190SAPI    C221854   0.905   2.718   6.368
  190SAPI    HS21855   0.982   2.686   6.295
  190SAPI   O2121856   0.793   2.758   6.289
  190SAPI   C2121857   0.820   2.840   6.192
  190SAPI   O2221858   0.925   2.899   6.169
  190SAPI   C2221859   0.688   2.858   6.114
  190SAPI   H2R21860   0.627   2.766   6.105
  190SAPI   H2S21861   0.625   2.920   6.182
  190SAPI    C321862   0.868   2.591   6.455
  190SAPI    HX21863   0.781   2.620   6.518
  190SAPI    HY21864   0.954   2.582   6.526
  190SAPI   O3121865   0.848   2.468   6.376
  190SAPI   C3121866   0.722   2.420   6.379
  190SAPI   O3221867   0.622   2.475   6.426
  190SAPI   C3221868   0.724   2.296   6.293
  190SAPI   H2X21869   0.697   2.206   6.352
  190SAPI   H2Y21870   0.824   2.279   6.247
  190SAPI   C2321871   0.710   2.931   5.973
  190SAPI   H3R21872   0.757   2.862   5.900
  190SAPI   H3S21873   0.778   3.016   5.994
  190SAPI   C2421874   0.577   2.976   5.913
  190SAPI   H4R21875   0.523   2.964   6.009
  190SAPI   H4S21876   0.549   2.898   5.838
  190SAPI   C2521877   0.570   3.114   5.854
  190SAPI   H5R21878   0.503   3.185   5.906
  190SAPI   C2621879   0.645   3.165   5.754
  190SAPI   H6R21880   0.615   3.262   5.712
  190SAPI   C2721881   0.760   3.097   5.669
  190SAPI   H7R21882   0.812   3.028   5.739
  190SAPI   H7S21883   0.832   3.180   5.652
  190SAPI   C2821884   0.727   3.021   5.547
  190SAPI   H8R21885   0.663   2.934   5.568
  190SAPI   C2921886   0.748   3.053   5.414
  190SAPI   H9R21887   0.708   2.989   5.334
  190SAPI  C21021888   0.820   3.176   5.365
  190SAPI  H10R21889   0.834   3.243   5.452
  190SAPI  H10S21890   0.744   3.220   5.296
  190SAPI  C21121891   0.949   3.154   5.296
  190SAPI  H11R21892   1.039   3.161   5.359
  190SAPI  C21221893   0.975   3.138   5.166
  190SAPI  H12R21894   1.071   3.099   5.128
  190SAPI  C21321895   0.857   3.126   5.066
  190SAPI  H13R21896   0.862   3.204   4.987
  190SAPI  H13S21897   0.758   3.157   5.108
  190SAPI  C21421898   0.846   2.985   5.008
  190SAPI  H14R21899   0.853   2.912   5.090
  190SAPI  C21521900   0.840   2.940   4.882
  190SAPI  H15R21901   0.864   2.833   4.876
  190SAPI  C21621902   0.822   3.029   4.762
  190SAPI  H16R21903   0.805   3.133   4.798
  190SAPI  H16S21904   0.720   3.011   4.720
  190SAPI  C21721905   0.933   3.010   4.652
  190SAPI  H17R21906   0.927   2.902   4.626
  190SAPI  H17S21907   1.037   3.031   4.685
  190SAPI  C21821908   0.901   3.096   4.529
  190SAPI  H18R21909   0.930   3.201   4.554
  190SAPI  H18S21910   0.793   3.095   4.501
  190SAPI  C21921911   0.975   3.046   4.401
  190SAPI  H19R21912   0.944   2.941   4.382
  190SAPI  H19S21913   1.083   3.050   4.430
  190SAPI  C22021914   0.941   3.135   4.279
  190SAPI  H20R21915   0.832   3.125   4.263
  190SAPI  H20S21916   0.996   3.099   4.189
  190SAPI  H20T21917   0.950   3.244   4.297
  190SAPI   C3321918   0.621   2.305   6.184
  190SAPI   H3X21919   0.527   2.346   6.228
  190SAPI   H3Y21920   0.583   2.209   6.144
  190SAPI   C3421921   0.654   2.397   6.059
  190SAPI   H4X21922   0.756   2.364   6.030
  190SAPI   H4Y21923   0.648   2.504   6.087
  190SAPI   C3521924   0.551   2.376   5.946
  190SAPI   H5X21925   0.450   2.382   5.991
  190SAPI   H5Y21926   0.563   2.275   5.899
  190SAPI   C3621927   0.565   2.479   5.830
  190SAPI   H6X21928   0.529   2.576   5.870
  190SAPI   H6Y21929   0.500   2.435   5.751
  190SAPI   C3721930   0.708   2.477   5.764
  190SAPI   H7X21931   0.712   2.379   5.711
  190SAPI   H7Y21932   0.793   2.479   5.836
  190SAPI   C3821933   0.724   2.589   5.664
  190SAPI   H8X21934   0.829   2.598   5.630
  190SAPI   H8Y21935   0.706   2.684   5.719
  190SAPI   C3921936   0.642   2.563   5.536
  190SAPI   H9X21937   0.537   2.594   5.557
  190SAPI   H9Y21938   0.650   2.453   5.518
  190SAPI  C31021939   0.698   2.634   5.413
  190SAPI  H10X21940   0.808   2.649   5.427
  190SAPI  H10Y21941   0.646   2.732   5.424
  190SAPI  C31121942   0.657   2.564   5.285
  190SAPI  H11X21943   0.547   2.548   5.283
  190SAPI  H11Y21944   0.699   2.461   5.296
  190SAPI  C31221945   0.704   2.632   5.158
  190SAPI  H12X21946   0.815   2.641   5.165
  190SAPI  H12Y21947   0.652   2.728   5.138
  190SAPI  C31321948   0.680   2.536   5.037
  190SAPI  H13X21949   0.570   2.532   5.025
  190SAPI  H13Y21950   0.709   2.436   5.074
  190SAPI  C31421951   0.740   2.577   4.903
  190SAPI  H14X21952   0.851   2.577   4.895
  190SAPI  H14Y21953   0.705   2.681   4.888
  190SAPI  C31521954   0.683   2.481   4.792
  190SAPI  H15X21955   0.572   2.476   4.791
  190SAPI  H15Y21956   0.726   2.381   4.813
  190SAPI  C31621957   0.722   2.531   4.652
  190SAPI  H16X21958   0.706   2.446   4.583
  190SAPI  H16Y21959   0.829   2.560   4.647
  190SAPI  C31721960   0.624   2.642   4.610
  190SAPI  H17X21961   0.617   2.706   4.700
  190SAPI  H17Y21962   0.524   2.595   4.606
  190SAPI  C31821963   0.680   2.714   4.490
  190SAPI  H18X21964   0.681   2.646   4.403
  190SAPI  H18Y21965   0.786   2.737   4.514
  190SAPI  H18Z21966   0.632   2.811   4.462
  191SAPI   C1221967   3.963   4.590   2.032
  191SAPI    H221968   4.043   4.627   2.099
  191SAPI    O221969   3.846   4.653   2.076
  191SAPI   HO221970   3.828   4.634   2.168
  191SAPI   C1321971   4.000   4.645   1.892
  191SAPI    H321972   4.097   4.596   1.867
  191SAPI    O321973   4.036   4.784   1.884
  191SAPI   HO321974   4.124   4.794   1.846
  191SAPI   C1421975   3.896   4.600   1.788
  191SAPI    H421976   3.800   4.652   1.809
  191SAPI    O421977   3.929   4.637   1.652
  191SAPI   HO421978   4.024   4.644   1.635
  191SAPI   C1521979   3.861   4.449   1.791
  191SAPI    H521980   3.944   4.389   1.747
  191SAPI    O521981   3.738   4.416   1.720
  191SAPI   HO521982   3.670   4.472   1.759
  191SAPI   C1621983   3.842   4.388   1.934
  191SAPI    H621984   3.746   4.424   1.976
  191SAPI    O621985   3.830   4.245   1.933
  191SAPI   HO621986   3.799   4.217   2.019
  191SAPI   C1121987   3.952   4.441   2.028
  191SAPI    H121988   4.048   4.400   1.988
  191SAPI     P21989   3.966   4.254   2.231
  191SAPI   O1321990   3.861   4.167   2.184
  191SAPI   O1421991   3.980   4.271   2.376
  191SAPI   O1221992   3.944   4.402   2.167
  191SAPI   O1121993   4.106   4.213   2.173
  191SAPI    C121994   4.224   4.300   2.181
  191SAPI    HA21995   4.251   4.348   2.085
  191SAPI    HB21996   4.202   4.388   2.246
  191SAPI    C221997   4.351   4.218   2.223
  191SAPI    HS21998   4.367   4.154   2.133
  191SAPI   O2121999   4.333   4.125   2.328
  191SAPI   C2122000   4.423   4.029   2.351
  191SAPI   O2222001   4.525   4.016   2.288
  191SAPI   C2222002   4.364   3.936   2.444
  191SAPI   H2R22003   4.271   3.979   2.485
  191SAPI   H2S22004   4.330   3.845   2.391
  191SAPI    C322005   4.472   4.311   2.227
  191SAPI    HX22006   4.498   4.340   2.123
  191SAPI    HY22007   4.566   4.257   2.247
  191SAPI   O3122008   4.452   4.425   2.318
  191SAPI   C3122009   4.487   4.402   2.444
  191SAPI   O3222010   4.533   4.297   2.485
  191SAPI   C3222011   4.458   4.528   2.539
  191SAPI   H2X22012   4.353   4.561   2.528
  191SAPI   H2Y22013   4.522   4.609   2.499
  191SAPI   C2322014   4.450   3.872   2.556
  191SAPI   H3R22015   4.520   3.805   2.501
  191SAPI   H3S22016   4.390   3.816   2.630
  191SAPI   C2422017   4.507   3.985   2.649
  191SAPI   H4R22018   4.571   4.030   2.571
  191SAPI   H4S22019   4.574   3.945   2.728
  191SAPI   C2522020   4.423   4.086   2.710
  191SAPI   H5R22021   4.370   4.157   2.644
  191SAPI   C2622022   4.394   4.093   2.839
  191SAPI   H6R22023   4.302   4.152   2.852
  191SAPI   C2722024   4.440   4.003   2.951
  191SAPI   H7R22025   4.539   4.041   2.986
  191SAPI   H7S22026   4.480   3.907   2.912
  191SAPI   C2822027   4.337   3.967   3.047
  191SAPI   H8R22028   4.275   3.883   3.012
  191SAPI   C2922029   4.327   4.007   3.171
  191SAPI   H9R22030   4.243   3.966   3.228
  191SAPI  C21022031   4.411   4.120   3.239
  191SAPI  H10R22032   4.350   4.165   3.320
  191SAPI  H10S22033   4.425   4.205   3.169
  191SAPI  C21122034   4.545   4.078   3.297
  191SAPI  H11R22035   4.621   4.073   3.217
  191SAPI  C21222036   4.565   4.043   3.427
  191SAPI  H12R22037   4.668   4.023   3.461
  191SAPI  C21322038   4.454   4.016   3.522
  191SAPI  H13R22039   4.473   3.920   3.576
  191SAPI  H13S22040   4.361   3.994   3.465
  191SAPI  C21422041   4.429   4.132   3.612
  191SAPI  H14R22042   4.426   4.228   3.559
  191SAPI  C21522043   4.401   4.130   3.744
  191SAPI  H15R22044   4.380   4.230   3.784
  191SAPI  C21622045   4.401   4.007   3.827
  191SAPI  H16R22046   4.366   3.912   3.780
  191SAPI  H16S22047   4.315   4.021   3.896
  191SAPI  C21722048   4.529   3.979   3.897
  191SAPI  H17R22049   4.512   3.908   3.980
  191SAPI  H17S22050   4.567   4.078   3.933
  191SAPI  C21822051   4.645   3.917   3.814
  191SAPI  H18R22052   4.680   4.001   3.751
  191SAPI  H18S22053   4.601   3.840   3.747
  191SAPI  C21922054   4.766   3.871   3.899
  191SAPI  H19R22055   4.730   3.803   3.979
  191SAPI  H19S22056   4.799   3.969   3.939
  191SAPI  C22022057   4.879   3.801   3.816
  191SAPI  H20R22058   4.967   3.794   3.883
  191SAPI  H20S22059   4.908   3.854   3.723
  191SAPI  H20T22060   4.844   3.703   3.779
  191SAPI   C3322061   4.481   4.491   2.684
  191SAPI   H3X22062   4.412   4.405   2.702
  191SAPI   H3Y22063   4.438   4.568   2.751
  191SAPI   C3422064   4.632   4.455   2.722
  191SAPI   H4X22065   4.684   4.553   2.717
  191SAPI   H4Y22066   4.679   4.382   2.653
  191SAPI   C3522067   4.652   4.396   2.867
  191SAPI   H5X22068   4.759   4.367   2.876
  191SAPI   H5Y22069   4.584   4.308   2.875
  191SAPI   C3622070   4.621   4.489   2.981
  191SAPI   H6X22071   4.512   4.507   2.993
  191SAPI   H6Y22072   4.666   4.587   2.952
  191SAPI   C3722073   4.671   4.435   3.119
  191SAPI   H7X22074   4.781   4.418   3.110
  191SAPI   H7Y22075   4.630   4.332   3.132
  191SAPI   C3822076   4.635   4.533   3.235
  191SAPI   H8X22077   4.524   4.529   3.246
  191SAPI   H8Y22078   4.655   4.639   3.212
  191SAPI   C3922079   4.703   4.490   3.368
  191SAPI   H9X22080   4.813   4.495   3.354
  191SAPI   H9Y22081   4.667   4.388   3.389
  191SAPI  C31022082   4.661   4.582   3.492
  191SAPI  H10X22083   4.551   4.584   3.478
  191SAPI  H10Y22084   4.695   4.687   3.480
  191SAPI  C31122085   4.703   4.539   3.636
  191SAPI  H11X22086   4.699   4.635   3.692
  191SAPI  H11Y22087   4.808   4.504   3.642
  191SAPI  C31222088   4.609   4.430   3.700
  191SAPI  H12X22089   4.602   4.333   3.648
  191SAPI  H12Y22090   4.505   4.468   3.690
  191SAPI  C31322091   4.634   4.421   3.851
  191SAPI  H13X22092   4.545   4.374   3.899
  191SAPI  H13Y22093   4.656   4.524   3.887
  191SAPI  C31422094   4.757   4.326   3.883
  191SAPI  H14X22095   4.847   4.347   3.821
  191SAPI  H14Y22096   4.717   4.223   3.867
  191SAPI  C31522097   4.792   4.353   4.031
  191SAPI  H15X22098   4.710   4.320   4.098
  191SAPI  H15Y22099   4.804   4.463   4.046
  191SAPI  C31622100   4.917   4.278   4.079
  191SAPI  H16X22101   5.011   4.316   4.032
  191SAPI  H16Y22102   4.917   4.170   4.052
  191SAPI  C31722103   4.948   4.298   4.228
  191SAPI  H17X22104   4.869   4.265   4.299
  191SAPI  H17Y22105   4.957   4.408   4.239
  191SAPI  C31822106   5.073   4.224   4.283
  191SAPI  H18X22107   5.156   4.257   4.216
  191SAPI  H18Y22108   5.058   4.114   4.279
  191SAPI  H18Z22109   5.097   4.260   4.385
  192SAPI   C1222110   0.543   0.018   1.569
  192SAPI    H222111   0.586   0.045   1.668
  192SAPI    O222112   0.559   0.127   1.480
  192SAPI   HO222113   0.482   0.184   1.490
  192SAPI   C1322114   0.618   6.798   1.526
  192SAPI    H322115   0.592   6.711   1.590
  192SAPI    O322116   0.762   6.824   1.527
  192SAPI   HO322117   0.778   6.866   1.442
  192SAPI   C1422118   0.566   6.743   1.388
  192SAPI    H422119   0.587   6.817   1.307
  192SAPI    O422120   0.633   6.623   1.347
  192SAPI   HO422121   0.633   6.562   1.421
  192SAPI   C1522122   0.410   6.738   1.380
  192SAPI    H522123   0.385   6.644   1.433
  192SAPI    O522124   0.372   6.731   1.244
  192SAPI   HO522125   0.316   6.807   1.226
  192SAPI   C1622126   0.331   6.846   1.467
  192SAPI    H622127   0.326   0.035   1.401
  192SAPI    O622128   0.199   6.797   1.491
  192SAPI   HO622129   0.183   6.793   1.586
  192SAPI   C1122130   0.396   6.882   1.594
  192SAPI    H122131   0.401   6.795   1.663
  192SAPI     P22132   0.244   0.074   1.794
  192SAPI   O1322133   0.163   6.850   1.784
  192SAPI   O1422134   0.171   0.195   1.815
  192SAPI   O1222135   0.328   0.095   1.652
  192SAPI   O1122136   0.361   0.062   1.900
  192SAPI    C122137   0.425   0.182   1.960
  192SAPI    HA22138   0.523   0.202   1.913
  192SAPI    HB22139   0.362   0.273   1.955
  192SAPI    C222140   0.434   0.150   2.110
  192SAPI    HS22141   0.482   0.050   2.113
  192SAPI   O2122142   0.298   0.149   2.167
  192SAPI   C2122143   0.276   0.043   2.247
  192SAPI   O2222144   0.358   6.854   2.266
  192SAPI   C2222145   0.145   0.057   2.326
  192SAPI   H2R22146   0.134   0.161   2.362
  192SAPI   H2S22147   0.062   0.043   2.253
  192SAPI    C322148   0.519   0.258   2.186
  192SAPI    HX22149   0.480   0.362   2.176
  192SAPI    HY22150   0.616   0.266   2.133
  192SAPI   O3122151   0.526   0.230   2.328
  192SAPI   C3122152   0.594   0.124   2.367
  192SAPI   O3222153   0.660   0.055   2.293
  192SAPI   C3222154   0.579   0.096   2.516
  192SAPI   H2X22155   0.684   0.082   2.550
  192SAPI   H2Y22156   0.523   0.001   2.525
  192SAPI   C2322157   0.111   6.847   2.427
  192SAPI   H3R22158   0.195   6.830   2.499
  192SAPI   H3S22159   0.097   6.754   2.368
  192SAPI   C2422160   6.891   6.893   2.513
  192SAPI   H4R22161   6.806   0.025   2.449
  192SAPI   H4S22162   0.026   0.083   2.568
  192SAPI   C2522163   6.842   6.787   2.611
  192SAPI   H5R22164   6.748   6.735   2.589
  192SAPI   C2622165   6.889   6.764   2.739
  192SAPI   H6R22166   6.847   6.685   2.803
  192SAPI   C2722167   0.100   6.828   2.814
  192SAPI   H7R22168   0.170   6.870   2.739
  192SAPI   H7S22169   0.161   6.757   2.873
  192SAPI   C2822170   0.045   0.052   2.891
  192SAPI   H8R22171   0.050   0.150   2.841
  192SAPI   C2922172   6.870   0.038   3.003
  192SAPI   H9R22173   6.828   0.128   3.051
  192SAPI  C21022174   6.827   6.812   3.075
  192SAPI  H10R22175   6.808   6.727   3.006
  192SAPI  H10S22176   6.729   6.824   3.127
  192SAPI  C21122177   0.025   6.756   3.170
  192SAPI  H11R22178   0.100   6.690   3.123
  192SAPI  C21222179   0.020   6.768   3.303
  192SAPI  H12R22180   0.104   6.718   3.353
  192SAPI  C21322181   6.832   6.862   3.381
  192SAPI  H13R22182   6.801   0.049   3.321
  192SAPI  H13S22183   0.009   0.004   3.449
  192SAPI  C21422184   6.717   6.791   3.440
  192SAPI  H14R22185   6.637   6.763   3.370
  192SAPI  C21522186   6.698   6.760   3.570
  192SAPI  H15R22187   6.608   6.709   3.608
  192SAPI  C21622188   6.809   6.794   3.674
  192SAPI  H16R22189   6.767   6.867   3.746
  192SAPI  H16S22190   0.004   6.833   3.634
  192SAPI  C21722191   6.856   6.667   3.756
  192SAPI  H17R22192   0.047   6.698   3.811
  192SAPI  H17S22193   6.883   6.588   3.682
  192SAPI  C21822194   6.739   6.615   3.848
  192SAPI  H18R22195   6.781   6.535   3.913
  192SAPI  H18S22196   6.664   6.564   3.785
  192SAPI  C21922197   6.664   6.733   3.923
  192SAPI  H19R22198   6.579   6.774   3.865
  192SAPI  H19S22199   6.741   6.809   3.948
  192SAPI  C22022200   6.610   6.691   4.053
  192SAPI  H20R22201   6.697   6.666   4.117
  192SAPI  H20S22202   6.538   6.607   4.042
  192SAPI  H20T22203   6.554   6.776   4.097
  192SAPI   C3322204   0.524   0.217   2.592
  192SAPI   H3X22205   0.426   0.247   2.550
  192SAPI   H3Y22206   0.591   0.305   2.584
  192SAPI   C3422207   0.513   0.197   2.744
  192SAPI   H4X22208   0.613   0.176   2.787
  192SAPI   H4Y22209   0.438   0.117   2.762
  192SAPI   C3522210   0.462   0.320   2.818
  192SAPI   H5X22211   0.372   0.367   2.773
  192SAPI   H5Y22212   0.545   0.394   2.810
  192SAPI   C3622213   0.423   0.295   2.961
  192SAPI   H6X22214   0.508   0.250   3.016
  192SAPI   H6Y22215   0.328   0.237   2.959
  192SAPI   C3722216   0.391   0.431   3.032
  192SAPI   H7X22217   0.351   0.507   2.961
  192SAPI   H7Y22218   0.486   0.483   3.059
  192SAPI   C3822219   0.290   0.420   3.144
  192SAPI   H8X22220   0.212   0.355   3.099
  192SAPI   H8Y22221   0.251   0.518   3.180
  192SAPI   C3922222   0.365   0.351   3.262
  192SAPI   H9X22223   0.431   0.428   3.307
  192SAPI   H9Y22224   0.420   0.262   3.224
  192SAPI  C31022225   0.268   0.317   3.361
  192SAPI  H10X22226   0.198   0.244   3.315
  192SAPI  H10Y22227   0.197   0.398   3.387
  192SAPI  C31122228   0.331   0.256   3.482
  192SAPI  H11X22229   0.406   0.331   3.513
  192SAPI  H11Y22230   0.397   0.171   3.454
  192SAPI  C31222231   0.235   0.219   3.598
  192SAPI  H12X22232   0.165   0.145   3.554
  192SAPI  H12Y22233   0.181   0.307   3.637
  192SAPI  C31322234   0.308   0.144   3.721
  192SAPI  H13X22235   0.352   0.231   3.773
  192SAPI  H13Y22236   0.390   0.079   3.682
  192SAPI  C31422237   0.202   0.066   3.804
  192SAPI  H14X22238   0.160   6.883   3.743
  192SAPI  H14Y22239   0.126   0.141   3.835
  192SAPI  C31522240   0.253   6.898   3.930
  192SAPI  H15X22241   0.171   6.832   3.966
  192SAPI  H15Y22242   0.272   0.075   4.007
  192SAPI  C31622243   0.386   6.812   3.911
  192SAPI  H16X22244   0.471   6.875   3.876
  192SAPI  H16Y22245   0.362   6.732   3.838
  192SAPI  C31722246   0.429   6.747   4.044
  192SAPI  H17X22247   0.345   6.701   4.100
  192SAPI  H17Y22248   0.464   6.816   4.124
  192SAPI  C31822249   0.542   6.644   4.026
  192SAPI  H18X22250   0.628   6.693   3.977
  192SAPI  H18Y22251   0.503   6.569   3.953
  192SAPI  H18Z22252   0.580   6.590   4.115
  193SOD    SOD22253   0.171   4.123   1.433
  194SOD    SOD22254   1.441   4.818   8.100
  195SOD    SOD22255   4.737   0.294   6.795
  196SOD    SOD22256   5.042   5.360   7.405
  197SOD    SOD22257   3.473   1.736   6.987
  198SOD    SOD22258   6.787   6.813   0.354
  199SOD    SOD22259   3.725   4.181   1.719
  200SOD    SOD22260   5.217   3.347   1.558
  201SOD    SOD22261   4.884   5.266   2.208
  202SOD    SOD22262   3.951   1.742   2.427
  203SOD    SOD22263   4.932   4.166   6.710
  204SOD    SOD22264   1.654   5.804   0.410
  205SOD    SOD22265   5.950   2.565   1.338
  206SOD    SOD22266   4.001   5.671   1.388
  207SOD    SOD22267   3.499   3.838   1.329
  208SOD    SOD22268   4.310   0.887   7.362
  209SOD    SOD22269   2.442   3.243   1.559
  210SOD    SOD22270   2.852   2.523   1.441
  211SOD    SOD22271   3.570   2.915   0.008
  212SOD    SOD22272   1.357   6.005   6.856
  213SOD    SOD22273   1.291   4.019   6.618
  214SOD    SOD22274   6.850   1.064   7.672
  215SOD    SOD22275   3.684   0.141   1.160
  216SOD    SOD22276   0.457   1.986   7.535
  217SOD    SOD22277   2.330   6.750   0.069
  218SOD    SOD22278   3.100   0.172   7.769
  219SOD    SOD22279   0.187   2.637   0.179
  220SOD    SOD22280   1.914   0.127   7.217
  221SOD    SOD22281   2.754   4.189   7.054
  222SOD    SOD22282   2.549   0.324   1.694
  223SOD    SOD22283   3.328   6.728   2.306
  224SOD    SOD22284   6.208   4.666   8.308
  225SOD    SOD22285   5.915   0.104   6.423
  226SOD    SOD22286   3.445   2.838   2.061
  227SOD    SOD22287   2.891   1.223   7.270
  228SOD    SOD22288   4.216   5.749   6.906
  229SOD    SOD22289   0.613   0.310   6.432
  230SOD    SOD22290   2.133   1.846   8.372
  231SOD    SOD22291   5.749   0.650   7.496
  232SOD    SOD22292   0.958   4.683   1.130
  233SOD    SOD22293   2.582   1.876   2.322
  234CLA    CLA22294   5.094   6.786   0.830
  235CLA    CLA22295   2.175   5.848   0.262
  236CLA    CLA22296   4.258   3.206   7.804
  237CLA    CLA22297   4.170   1.805   0.589
  238CLA    CLA22298   3.732   0.230   0.750
  239CLA    CLA22299   2.196   6.582   7.945
  240CLA    CLA22300   1.534   4.028   8.331
  241CLA    CLA22301   0.723   5.215   1.283
  242CLA    CLA22302   2.739   6.849   8.328
  243CLA    CLA22303   3.181   3.050   0.311
  244CLA    CLA22304   6.558   2.666   0.979
  245CLA    CLA22305   0.676   5.410   8.459
  246CLA    CLA22306   0.046   0.646   0.175
  247CLA    CLA22307   3.816   1.085   7.383
  248CLA    CLA22308   3.363   4.875   1.285
  249CLA    CLA22309   1.728   2.810   6.626
  250CLA    CLA22310   6.797   0.898   7.222
  251TIP3   OH222311   6.685   2.009   0.182
  251TIP3    H122312   6.610   2.019   0.241
  251TIP3    H222313   6.646   1.985   0.098
  252TIP3   OH222314   3.752   6.727   8.102
  252TIP3    H122315   3.823   6.680   8.059
  252TIP3    H222316   3.769   6.716   8.195
  253TIP3   OH222317   3.340   0.423   8.042
  253TIP3    H122318   3.246   0.440   8.049
  253TIP3    H222319   3.346   0.335   8.005
  254TIP3   OH222320   5.174   0.994   7.437
  254TIP3    H122321   5.220   0.953   7.510
  254TIP3    H222322   5.110   0.927   7.409
  255TIP3   OH222323   6.418   0.550   8.145
  255TIP3    H122324   6.487   0.589   8.092
  255TIP3    H222325   6.337   0.592   8.115
  256TIP3   OH222326   5.948   3.938   2.264
  256TIP3    H122327   5.863   3.982   2.255
  256TIP3    H222328   5.996   3.991   2.326
  257TIP3   OH222329   3.332   5.945   8.053
  257TIP3    H122330   3.368   6.026   8.092
  257TIP3    H222331   3.289   5.901   8.127
  258TIP3   OH222332   4.267   1.359   7.119
  258TIP3    H122333   4.179   1.396   7.117
  258TIP3    H222334   4.255   1.265   7.105
  259TIP3   OH222335   4.691   1.747   8.527
  259TIP3    H122336   4.607   1.778   8.495
  259TIP3    H222337   4.756   1.795   8.476
  260TIP3   OH222338   1.572   6.621   7.314
  260TIP3    H122339   1.529   6.536   7.313
  260TIP3    H222340   1.500   6.684   7.306
  261TIP3   OH222341   1.602   5.248   7.327
  261TIP3    H122342   1.689   5.257   7.366
  261TIP3    H222343   1.556   5.185   7.382
  262TIP3   OH222344   5.600   1.907   1.155
  262TIP3    H122345   5.664   1.857   1.206
  262TIP3    H222346   5.554   1.960   1.219
  263TIP3   OH222347   1.395   3.236   8.454
  263TIP3    H122348   1.378   3.315   8.402
  263TIP3    H222349   1.470   3.195   8.411
  264TIP3   OH222350   4.265   2.205   7.092
  264TIP3    H122351   4.304   2.216   7.005
  264TIP3    H222352   4.325   2.147   7.138
  265TIP3   OH222353   4.171   0.337   6.982
  265TIP3    H122354   4.230   0.266   6.955
  265TIP3    H222355   4.096   0.329   6.923
  266TIP3   OH222356   5.165   0.139   7.952
  266TIP3    H122357   5.126   0.063   7.909
  266TIP3    H222358   5.173   0.204   7.882
  267TIP3   OH222359   3.738   5.271   7.262
  267TIP3    H122360   3.706   5.361   7.272
  267TIP3    H222361   3.660   5.221   7.241
  268TIP3   OH222362   3.940   5.233   0.275
  268TIP3    H122363   3.945   5.202   0.365
  268TIP3    H222364   4.005   5.181   0.228
  269TIP3   OH222365   6.134   0.664   1.786
  269TIP3    H122366   6.104   0.584   1.743
  269TIP3    H222367   6.077   0.674   1.862
  270TIP3   OH222368   0.846   1.247   6.613
  270TIP3    H122369   0.784   1.223   6.681
  270TIP3    H222370   0.859   1.341   6.624
  271TIP3   OH222371   5.158   1.563   8.185
  271TIP3    H122372   5.130   1.486   8.134
  271TIP3    H222373   5.135   1.542   8.275
  272TIP3   OH222374   3.213   2.853   1.165
  272TIP3    H122375   3.257   2.924   1.212
  272TIP3    H222376   3.120   2.867   1.181
  273TIP3   OH222377   6.105   4.270   0.643
  273TIP3    H122378   6.172   4.333   0.668
  273TIP3    H222379   6.022   4.310   0.670
  274TIP3   OH222380   0.053   5.881   0.536
  274TIP3    H122381   0.026   5.881   0.628
  274TIP3    H222382   6.878   5.918   0.489
  275TIP3   OH222383   1.801   3.716   1.905
  275TIP3    H122384   1.895   3.728   1.894
  275TIP3    H222385   1.789   3.707   1.999
  276TIP3   OH222386   1.197   2.199   7.336
  276TIP3    H122387   1.138   2.269   7.306
  276TIP3    H222388   1.227   2.228   7.422
  277TIP3   OH222389   5.822   1.882   7.115
  277TIP3    H122390   5.875   1.854   7.189
  277TIP3    H222391   5.778   1.962   7.145
  278TIP3   OH222392   6.043   5.964   1.537
  278TIP3    H122393   6.113   5.915   1.494
  278TIP3    H222394   6.056   6.055   1.509
  279TIP3   OH222395   6.307   0.458   0.376
  279TIP3    H122396   6.381   0.502   0.416
  279TIP3    H222397   6.282   0.391   0.439
  280TIP3   OH222398   5.469   2.503   7.213
  280TIP3    H122399   5.539   2.453   7.170
  280TIP3    H222400   5.471   2.473   7.304
  281TIP3   OH222401   1.999   4.818   0.916
  281TIP3    H122402   1.946   4.807   0.995
  281TIP3    H222403   2.087   4.793   0.943
  282TIP3   OH222404   4.993   2.952   8.160
  282TIP3    H122405   5.026   2.865   8.183
  282TIP3    H222406   4.975   2.946   8.066
  283TIP3   OH222407   1.657   6.696   6.863
  283TIP3    H122408   1.639   6.776   6.813
  283TIP3    H222409   1.582   6.639   6.844
  284TIP3   OH222410   3.314   0.346   1.415
  284TIP3    H122411   3.298   0.394   1.496
  284TIP3    H222412   3.327   0.255   1.443
  285TIP3   OH222413   5.083   0.650   7.650
  285TIP3    H122414   4.988   0.647   7.659
  285TIP3    H222415   5.105   0.570   7.601
  286TIP3   OH222416   1.378   4.796   1.555
  286TIP3    H122417   1.301   4.815   1.609
  286TIP3    H222418   1.438   4.750   1.614
  287TIP3   OH222419   1.724   6.102   1.526
  287TIP3    H122420   1.690   6.182   1.485
  287TIP3    H222421   1.646   6.052   1.550
  288TIP3   OH222422   0.665   5.958   6.319
  288TIP3    H122423   0.747   6.000   6.294
  288TIP3    H222424   0.689   5.899   6.390
  289TIP3   OH222425   2.834   3.309   0.111
  289TIP3    H122426   2.856   3.335   0.021
  289TIP3    H222427   2.863   3.218   0.117
  290TIP3   OH222428   3.974   6.083   7.777
  290TIP3    H122429   3.938   6.001   7.744
  290TIP3    H222430   3.927   6.151   7.728
  291TIP3   OH222431   5.767   2.300   8.170
  291TIP3    H122432   5.821   2.379   8.164
  291TIP3    H222433   5.715   2.313   8.249
  292TIP3   OH222434   2.601   0.970   1.095
  292TIP3    H122435   2.675   0.956   1.035
  292TIP3    H222436   2.567   0.883   1.112
  293TIP3   OH222437   6.683   4.235   1.682
  293TIP3    H122438   6.716   4.295   1.616
  293TIP3    H222439   6.730   4.259   1.762
  294TIP3   OH222440   0.991   6.799   2.095
  294TIP3    H122441   0.962   6.709   2.110
  294TIP3    H222442   0.914   6.844   2.059
  295TIP3   OH222443   5.029   4.120   0.643
  295TIP3    H122444   5.041   4.163   0.727
  295TIP3    H222445   4.946   4.073   0.651
  296TIP3   OH222446   2.292   6.196   2.404
  296TIP3    H122447   2.265   6.274   2.453
  296TIP3    H222448   2.213   6.143   2.399
  297TIP3   OH222449   0.775   0.249   8.005
  297TIP3    H122450   0.808   0.320   8.061
  297TIP3    H222451   0.735   0.294   7.930
  298TIP3   OH222452   1.795   2.862   7.100
  298TIP3    H122453   1.786   2.956   7.117
  298TIP3    H222454   1.796   2.855   7.004
  299TIP3   OH222455   1.944   3.858   0.973
  299TIP3    H122456   1.981   3.795   0.911
  299TIP3    H222457   1.944   3.941   0.925
  300TIP3   OH222458   3.118   1.211   7.202
  300TIP3    H122459   3.135   1.283   7.262
  300TIP3    H222460   3.204   1.170   7.190
  301TIP3   OH222461   6.471   3.904   7.923
  301TIP3    H122462   6.549   3.959   7.914
  301TIP3    H222463   6.471   3.849   7.845
  302TIP3   OH222464   4.546   4.127   6.542
  302TIP3    H122465   4.640   4.142   6.538
  302TIP3    H222466   4.514   4.192   6.605
  303TIP3   OH222467   4.765   3.057   1.043
  303TIP3    H122468   4.738   2.992   0.978
  303TIP3    H222469   4.684   3.103   1.066
  304TIP3   OH222470   3.271   0.953   8.596
  304TIP3    H122471   3.250   0.860   8.603
  304TIP3    H222472   3.354   0.964   0.023
  305TIP3   OH222473   4.142   3.887   0.520
  305TIP3    H122474   4.204   3.872   0.591
  305TIP3    H222475   4.146   3.808   0.467
  306TIP3   OH222476   1.652   3.215   0.669
  306TIP3    H122477   1.702   3.173   0.600
  306TIP3    H222478   1.561   3.204   0.644
  307TIP3   OH222479   3.485   4.904   7.081
  307TIP3    H122480   3.530   4.840   7.137
  307TIP3    H222481   3.433   4.851   7.021
  308TIP3   OH222482   4.769   1.729   2.013
  308TIP3    H122483   4.761   1.824   2.021
  308TIP3    H222484   4.701   1.695   2.072
  309TIP3   OH222485   4.831   0.108   1.943
  309TIP3    H122486   4.854   0.200   1.927
  309TIP3    H222487   4.901   0.058   1.901
  310TIP3   OH222488   4.975   2.197   6.421
  310TIP3    H122489   5.034   2.225   6.491
  310TIP3    H222490   5.019   2.121   6.381
  311TIP3   OH222491   6.229   6.745   1.647
  311TIP3    H122492   6.287   6.734   1.571
  311TIP3    H222493   6.282   6.793   1.711
  312TIP3   OH222494   6.519   6.722   6.912
  312TIP3    H122495   6.533   6.635   6.949
  312TIP3    H222496   6.567   6.720   6.829
  313TIP3   OH222497   4.259   0.184   0.264
  313TIP3    H122498   4.328   0.236   0.222
  313TIP3    H222499   4.185   0.245   0.272
  314TIP3   OH222500   0.643   1.081   8.421
  314TIP3    H122501   0.612   1.014   8.360
  314TIP3    H222502   0.637   1.163   8.372
  315TIP3   OH222503   3.229   5.277   7.785
  315TIP3    H122504   3.136   5.291   7.805
  315TIP3    H222505   3.247   5.188   7.816
  316TIP3   OH222506   1.744   3.699   1.630
  316TIP3    H122507   1.814   3.643   1.595
  316TIP3    H222508   1.755   3.694   1.725
  317TIP3   OH222509   4.557   0.788   8.362
  317TIP3    H122510   4.618   0.750   8.299
  317TIP3    H222511   4.610   0.851   8.411
  318TIP3   OH222512   4.861   2.850   7.599
  318TIP3    H122513   4.926   2.819   7.536
  318TIP3    H222514   4.902   2.924   7.642
  319TIP3   OH222515   4.602   3.053   0.213
  319TIP3    H122516   4.513   3.058   0.178
  319TIP3    H222517   4.642   3.137   0.192
  320TIP3   OH222518   0.235   0.584   1.634
  320TIP3    H122519   0.158   0.630   1.599
  320TIP3    H222520   0.207   0.493   1.643
  321TIP3   OH222521   2.578   1.597   0.677
  321TIP3    H122522   2.559   1.504   0.669
  321TIP3    H222523   2.506   1.640   0.630
  322TIP3   OH222524   6.618   0.839   1.173
  322TIP3    H122525   6.560   0.763   1.170
  322TIP3    H222526   6.599   0.886   1.091
  323TIP3   OH222527   0.159   4.015   7.971
  323TIP3    H122528   0.151   3.940   7.912
  323TIP3    H222529   0.209   4.079   7.922
  324TIP3   OH222530   1.732   1.496   7.136
  324TIP3    H122531   1.751   1.582   7.175
  324TIP3    H222532   1.779   1.498   7.053
  325TIP3   OH222533   1.945   6.593   6.856
  325TIP3    H122534   1.974   6.627   6.940
  325TIP3    H222535   1.881   6.657   6.825
  326TIP3   OH222536   1.057   0.836   0.536
  326TIP3    H122537   1.112   0.866   0.608
  326TIP3    H222538   1.117   0.826   0.462
  327TIP3   OH222539   0.132   1.984   7.850
  327TIP3    H122540   0.163   1.916   7.790
  327TIP3    H222541   0.125   2.062   7.795
  328TIP3   OH222542   4.896   5.751   2.253
  328TIP3    H122543   4.980   5.704   2.255
  328TIP3    H222544   4.832   5.685   2.279
  329TIP3   OH222545   4.207   5.606   6.710
  329TIP3    H122546   4.152   5.529   6.693
  329TIP3    H222547   4.281   5.597   6.650
  330TIP3   OH222548   6.699   5.533   0.715
  330TIP3    H122549   6.683   5.628   0.720
  330TIP3    H222550   6.794   5.525   0.711
  331TIP3   OH222551   3.363   0.034   7.367
  331TIP3    H122552   3.317   0.008   7.287
  331TIP3    H222553   3.430   0.096   7.337
  332TIP3   OH222554   3.590   3.144   7.985
  332TIP3    H122555   3.540   3.225   7.992
  332TIP3    H222556   3.661   3.165   7.923
  333TIP3   OH222557   5.037   4.656   2.066
  333TIP3    H122558   5.008   4.699   1.985
  333TIP3    H222559   4.999   4.568   2.061
  334TIP3   OH222560   2.943   2.750   1.420
  334TIP3    H122561   3.012   2.764   1.484
  334TIP3    H222562   2.897   2.834   1.415
  335TIP3   OH222563   5.049   6.557   6.903
  335TIP3    H122564   5.118   6.598   6.853
  335TIP3    H222565   5.011   6.492   6.844
  336TIP3   OH222566   4.403   1.273   1.022
  336TIP3    H122567   4.430   1.343   1.082
  336TIP3    H222568   4.320   1.304   0.985
  337TIP3   OH222569   6.096   2.871   8.401
  337TIP3    H122570   6.137   2.911   8.324
  337TIP3    H222571   6.098   2.777   8.383
  338TIP3   OH222572   4.111   4.909   7.120
  338TIP3    H122573   4.023   4.894   7.155
  338TIP3    H222574   4.119   5.004   7.114
  339TIP3   OH222575   3.999   0.788   6.431
  339TIP3    H122576   4.055   0.855   6.391
  339TIP3    H222577   3.914   0.800   6.389
  340TIP3   OH222578   3.391   3.880   1.115
  340TIP3    H122579   3.363   3.799   1.073
  340TIP3    H222580   3.342   3.949   1.070
  341TIP3   OH222581   3.733   6.174   2.003
  341TIP3    H122582   3.699   6.152   2.090
  341TIP3    H222583   3.721   6.094   1.952
  342TIP3   OH222584   2.785   0.109   2.403
  342TIP3    H122585   2.821   0.066   2.325
  342TIP3    H222586   2.723   0.173   2.369
  343TIP3   OH222587   2.619   0.538   7.796
  343TIP3    H122588   2.643   0.473   7.863
  343TIP3    H222589   2.703   0.568   7.761
  344TIP3   OH222590   5.087   2.488   0.503
  344TIP3    H122591   5.102   2.478   0.409
  344TIP3    H222592   5.044   2.573   0.512
  345TIP3   OH222593   1.657   5.566   6.254
  345TIP3    H122594   1.626   5.647   6.214
  345TIP3    H222595   1.602   5.498   6.215
  346TIP3   OH222596   3.000   1.028   0.221
  346TIP3    H122597   3.067   1.094   0.237
  346TIP3    H222598   3.037   0.947   0.258
  347TIP3   OH222599   4.793   0.859   0.556
  347TIP3    H122600   4.804   0.878   0.649
  347TIP3    H222601   4.739   0.780   0.554
  348TIP3   OH222602   6.576   0.011   8.158
  348TIP3    H122603   6.500   0.037   8.106
  348TIP3    H222604   6.542   6.850   8.223
  349TIP3   OH222605   6.246   0.489   0.059
  349TIP3    H122606   6.280   0.433   8.608
  349TIP3    H222607   6.232   0.429   0.132
  350TIP3   OH222608   0.222   6.297   0.620
  350TIP3    H122609   0.316   6.314   0.626
  350TIP3    H222610   0.216   6.221   0.562
  351TIP3   OH222611   1.695   2.078   7.045
  351TIP3    H122612   1.746   2.033   7.112
  351TIP3    H222613   1.760   2.106   6.980
  352TIP3   OH222614   0.974   1.561   7.409
  352TIP3    H122615   0.991   1.479   7.456
  352TIP3    H222616   1.061   1.590   7.381
  353TIP3   OH222617   6.102   5.498   8.197
  353TIP3    H122618   6.145   5.580   8.170
  353TIP3    H222619   6.059   5.467   8.118
  354TIP3   OH222620   5.218   0.026   7.035
  354TIP3    H122621   5.218   6.854   6.972
  354TIP3    H222622   5.191   0.102   6.984
  355TIP3   OH222623   3.056   4.368   0.927
  355TIP3    H122624   3.013   4.443   0.968
  355TIP3    H222625   3.110   4.406   0.858
  356TIP3   OH222626   3.685   6.583   1.627
  356TIP3    H122627   3.704   6.523   1.699
  356TIP3    H222628   3.699   6.531   1.548
  357TIP3   OH222629   2.774   2.141   7.984
  357TIP3    H122630   2.815   2.186   7.910
  357TIP3    H222631   2.741   2.211   8.040
  358TIP3   OH222632   3.138   3.842   7.724
  358TIP3    H122633   3.229   3.872   7.728
  358TIP3    H222634   3.095   3.889   7.795
  359TIP3   OH222635   2.821   5.119   0.298
  359TIP3    H122636   2.894   5.165   0.339
  359TIP3    H222637   2.807   5.042   0.352
  360TIP3   OH222638   0.554   5.022   8.131
  360TIP3    H122639   0.551   5.113   8.160
  360TIP3    H222640   0.609   5.023   8.053
  361TIP3   OH222641   6.466   5.135   6.729
  361TIP3    H122642   6.527   5.122   6.657
  361TIP3    H222643   6.461   5.050   6.773
  362TIP3   OH222644   4.035   0.050   8.448
  362TIP3    H122645   4.053   0.049   8.542
  362TIP3    H222646   4.029   0.143   8.425
  363TIP3   OH222647   4.481   6.261   7.493
  363TIP3    H122648   4.561   6.240   7.540
  363TIP3    H222649   4.421   6.189   7.512
  364TIP3   OH222650   5.516   0.653   1.109
  364TIP3    H122651   5.592   0.684   1.159
  364TIP3    H222652   5.542   0.566   1.077
  365TIP3   OH222653   3.388   3.068   8.314
  365TIP3    H122654   3.375   3.020   8.396
  365TIP3    H222655   3.383   3.001   8.246
  366TIP3   OH222656   2.075   6.389   0.107
  366TIP3    H122657   2.062   6.322   0.040
  366TIP3    H222658   2.087   6.340   0.188
  367TIP3   OH222659   4.471   3.538   1.508
  367TIP3    H122660   4.541   3.503   1.563
  367TIP3    H222661   4.496   3.629   1.493
  368TIP3   OH222662   4.170   5.853   2.090
  368TIP3    H122663   4.131   5.928   2.134
  368TIP3    H222664   4.256   5.884   2.061
  369TIP3   OH222665   5.879   0.310   0.184
  369TIP3    H122666   5.849   0.245   0.120
  369TIP3    H222667   5.813   0.307   0.254
  370TIP3   OH222668   4.754   0.099   0.512
  370TIP3    H122669   4.688   0.168   0.507
  370TIP3    H222670   4.826   0.138   0.562
  371TIP3   OH222671   1.170   5.650   6.893
  371TIP3    H122672   1.229   5.675   6.822
  371TIP3    H222673   1.216   5.580   6.939
  372TIP3   OH222674   3.866   5.000   7.234
  372TIP3    H122675   3.870   5.093   7.253
  372TIP3    H222676   3.802   4.965   7.296
  373TIP3   OH222677   0.996   2.069   6.901
  373TIP3    H122678   1.043   2.150   6.884
  373TIP3    H222679   0.999   2.059   6.997
  374TIP3   OH222680   3.991   5.749   1.029
  374TIP3    H122681   4.057   5.772   1.095
  374TIP3    H222682   3.932   5.689   1.075
  375TIP3   OH222683   1.997   4.996   0.072
  375TIP3    H122684   1.984   4.926   0.137
  375TIP3    H222685   1.927   4.983   0.009
  376TIP3   OH222686   1.999   1.558   0.590
  376TIP3    H122687   2.045   1.481   0.623
  376TIP3    H222688   2.006   1.622   0.660
  377TIP3   OH222689   3.862   0.537   1.525
  377TIP3    H122690   3.771   0.563   1.538
  377TIP3    H222691   3.864   0.499   1.437
  378TIP3   OH222692   4.690   1.270   7.660
  378TIP3    H122693   4.607   1.232   7.631
  378TIP3    H222694   4.676   1.364   7.655
  379TIP3   OH222695   2.457   1.502   7.422
  379TIP3    H122696   2.478   1.529   7.332
  379TIP3    H222697   2.393   1.566   7.452
  380TIP3   OH222698   6.476   4.585   0.425
  380TIP3    H122699   6.414   4.640   0.474
  380TIP3    H222700   6.444   4.588   0.335
  381TIP3   OH222701   5.415   2.851   8.555
  381TIP3    H122702   5.366   2.787   8.607
  381TIP3    H222703   5.505   2.818   8.555
  382TIP3   OH222704   3.066   6.676   0.086
  382TIP3    H122705   3.097   6.766   0.100
  382TIP3    H222706   3.103   6.627   0.159
  383TIP3   OH222707   6.473   4.893   7.194
  383TIP3    H122708   6.551   4.910   7.141
  383TIP3    H222709   6.416   4.842   7.137
  384TIP3   OH222710   2.640   4.979   1.255
  384TIP3    H122711   2.597   5.059   1.284
  384TIP3    H222712   2.571   4.912   1.258
  385TIP3   OH222713   2.197   2.193   8.536
  385TIP3    H122714   2.258   2.266   8.541
  385TIP3    H222715   2.219   2.137   8.610
  386TIP3   OH222716   3.328   5.434   7.406
  386TIP3    H122717   3.376   5.352   7.402
  386TIP3    H222718   3.311   5.456   7.314
  387TIP3   OH222719   0.453   0.725   0.985
  387TIP3    H122720   0.493   0.747   1.069
  387TIP3    H222721   0.519   0.671   0.941
  388TIP3   OH222722   6.258   3.640   8.496
  388TIP3    H122723   6.302   3.585   8.431
  388TIP3    H222724   6.232   3.580   8.565
  389TIP3   OH222725   2.081   0.837   8.186
  389TIP3    H122726   2.033   0.822   8.267
  389TIP3    H222727   2.039   0.779   8.122
  390TIP3   OH222728   6.708   5.207   6.909
  390TIP3    H122729   6.698   5.301   6.919
  390TIP3    H222730   6.754   5.196   6.826
  391TIP3   OH222731   4.383   1.484   8.495
  391TIP3    H122732   4.300   1.483   8.544
  391TIP3    H222733   4.448   1.450   8.558
  392TIP3   OH222734   0.061   0.982   8.477
  392TIP3    H122735   0.008   0.910   8.441
  392TIP3    H222736   0.147   0.944   8.492
  393TIP3   OH222737   2.999   3.263   1.628
  393TIP3    H122738   2.996   3.182   1.577
  393TIP3    H222739   3.045   3.325   1.571
  394TIP3   OH222740   5.579   0.120   7.903
  394TIP3    H122741   5.550   0.065   7.977
  394TIP3    H222742   5.633   0.061   7.850
  395TIP3   OH222743   6.198   2.913   1.451
  395TIP3    H122744   6.291   2.911   1.473
  395TIP3    H222745   6.181   2.828   1.410
  396TIP3   OH222746   1.222   2.455   8.336
  396TIP3    H122747   1.133   2.440   8.369
  396TIP3    H222748   1.226   2.404   8.255
  397TIP3   OH222749   2.523   4.014   6.532
  397TIP3    H122750   2.604   4.063   6.520
  397TIP3    H222751   2.475   4.065   6.598
  398TIP3   OH222752   2.127   2.203   0.873
  398TIP3    H122753   2.043   2.161   0.889
  398TIP3    H222754   2.139   2.196   0.778
  399TIP3   OH222755   3.595   4.933   1.524
  399TIP3    H122756   3.649   5.009   1.544
  399TIP3    H222757   3.510   4.952   1.563
  400TIP3   OH222758   4.727   2.052   0.951
  400TIP3    H122759   4.768   1.974   0.989
  400TIP3    H222760   4.646   2.063   1.001
  401TIP3   OH222761   1.325   3.842   2.162
  401TIP3    H122762   1.419   3.861   2.168
  401TIP3    H222763   1.299   3.876   2.076
  402TIP3   OH222764   6.456   0.434   6.642
  402TIP3    H122765   6.514   0.484   6.585
  402TIP3    H222766   6.503   0.425   6.724
  403TIP3   OH222767   0.388   0.374   7.678
  403TIP3    H122768   0.389   0.374   7.774
  403TIP3    H222769   0.295   0.371   7.656
  404TIP3   OH222770   5.939   2.049   0.436
  404TIP3    H122771   5.853   2.071   0.400
  404TIP3    H222772   5.921   2.021   0.526
  405TIP3   OH222773   1.453   5.335   7.586
  405TIP3    H122774   1.441   5.369   7.498
  405TIP3    H222775   1.403   5.394   7.642
  406TIP3   OH222776   2.760   4.865   7.995
  406TIP3    H122777   2.746   4.954   8.028
  406TIP3    H222778   2.710   4.861   7.913
  407TIP3   OH222779   3.861   2.829   6.705
  407TIP3    H122780   3.856   2.739   6.672
  407TIP3    H222781   3.909   2.877   6.638
  408TIP3   OH222782   1.702   1.894   0.678
  408TIP3    H122783   1.650   1.815   0.691
  408TIP3    H222784   1.792   1.862   0.670
  409TIP3   OH222785   3.517   6.596   7.295
  409TIP3    H122786   3.464   6.641   7.229
  409TIP3    H222787   3.602   6.583   7.252
  410TIP3   OH222788   0.210   3.365   8.033
  410TIP3    H122789   0.203   3.284   7.983
  410TIP3    H222790   0.202   3.338   8.124
  411TIP3   OH222791   0.009   6.746   1.264
  411TIP3    H122792   0.052   6.804   1.201
  411TIP3    H222793   0.078   6.719   1.323
  412TIP3   OH222794   3.039   5.988   8.439
  412TIP3    H122795   3.078   6.042   8.370
  412TIP3    H222796   2.973   5.935   8.393
  413TIP3   OH222797   1.365   6.220   1.252
  413TIP3    H122798   1.444   6.247   1.206
  413TIP3    H222799   1.300   6.209   1.182
  414TIP3   OH222800   2.199   6.547   0.443
  414TIP3    H122801   2.174   6.599   0.519
  414TIP3    H222802   2.166   6.597   0.368
  415TIP3   OH222803   4.519   4.096   7.020
  415TIP3    H122804   4.424   4.100   7.024
  415TIP3    H222805   4.548   4.101   7.111
  416TIP3   OH222806   4.311   0.684   1.406
  416TIP3    H122807   4.264   0.629   1.469
  416TIP3    H222808   4.288   0.648   1.321
  417TIP3   OH222809   3.792   3.241   2.155
  417TIP3    H122810   3.866   3.276   2.104
  417TIP3    H222811   3.829   3.224   2.241
  418TIP3   OH222812   1.502   4.026   7.870
  418TIP3    H122813   1.567   4.021   7.801
  418TIP3    H222814   1.548   4.064   7.945
  419TIP3   OH222815   0.263   4.645   6.718
  419TIP3    H122816   0.252   4.736   6.692
  419TIP3    H222817   0.354   4.624   6.696
  420TIP3   OH222818   3.756   1.595   6.901
  420TIP3    H122819   3.732   1.503   6.911
  420TIP3    H222820   3.745   1.612   6.807
  421TIP3   OH222821   4.281   4.277   0.590
  421TIP3    H122822   4.280   4.372   0.596
  421TIP3    H222823   4.277   4.247   0.681
  422TIP3   OH222824   1.845   5.344   8.531
  422TIP3    H122825   1.844   5.266   8.476
  422TIP3    H222826   1.785   5.405   8.487
  423TIP3   OH222827   1.126   3.241   8.617
  423TIP3    H122828   1.203   3.245   8.560
  423TIP3    H222829   1.056   3.280   8.565
  424TIP3   OH222830   2.902   2.140   1.099
  424TIP3    H122831   2.921   2.132   1.192
  424TIP3    H222832   2.911   2.051   1.064
  425TIP3   OH222833   4.115   6.260   7.209
  425TIP3    H122834   4.122   6.353   7.188
  425TIP3    H222835   4.056   6.225   7.143
  426TIP3   OH222836   4.235   1.975   2.619
  426TIP3    H122837   4.269   1.979   2.529
  426TIP3    H222838   4.280   2.047   2.664
  427TIP3   OH222839   1.740   3.448   6.956
  427TIP3    H122840   1.690   3.490   6.886
  427TIP3    H222841   1.678   3.387   6.996
  428TIP3   OH222842   0.093   1.921   6.195
  428TIP3    H122843   0.011   1.875   6.211
  428TIP3    H222844   0.161   1.860   6.222
  429TIP3   OH222845   1.843   3.139   1.303
  429TIP3    H122846   1.829   3.223   1.258
  429TIP3    H222847   1.758   3.095   1.299
  430TIP3   OH222848   0.184   4.668   7.141
  430TIP3    H122849   0.108   4.721   7.118
  430TIP3    H222850   0.254   4.701   7.085
  431TIP3   OH222851   3.248   1.434   7.342
  431TIP3    H122852   3.227   1.511   7.395
  431TIP3    H222853   3.341   1.418   7.359
  432TIP3   OH222854   4.927   0.792   2.168
  432TIP3    H122855   4.924   0.829   2.256
  432TIP3    H222856   4.926   0.697   2.182
  433TIP3   OH222857   0.426   5.287   0.002
  433TIP3    H122858   0.496   5.304   8.558
  433TIP3    H222859   0.397   5.198   8.603
  434TIP3   OH222860   3.536   5.233   1.056
  434TIP3    H122861   3.443   5.220   1.075
  434TIP3    H222862   3.582   5.188   1.127
  435TIP3   OH222863   0.719   0.300   5.701
  435TIP3    H122864   0.665   0.227   5.730
  435TIP3    H222865   0.693   0.314   5.610
  436TIP3   OH222866   3.575   0.217   7.281
  436TIP3    H122867   3.594   0.234   7.189
  436TIP3    H222868   3.584   0.303   7.324
  437TIP3   OH222869   0.810   0.525   0.436
  437TIP3    H122870   0.825   0.457   0.371
  437TIP3    H222871   0.725   0.504   0.474
  438TIP3   OH222872   3.308   4.798   0.537
  438TIP3    H122873   3.388   4.763   0.498
  438TIP3    H222874   3.316   4.778   0.630
  439TIP3   OH222875   1.526   4.554   0.356
  439TIP3    H122876   1.532   4.499   0.278
  439TIP3    H222877   1.432   4.570   0.367
  440TIP3   OH222878   1.634   4.963   8.159
  440TIP3    H122879   1.676   4.906   8.224
  440TIP3    H222880   1.707   4.998   8.108
  441TIP3   OH222881   4.380   1.100   6.906
  441TIP3    H122882   4.296   1.055   6.914
  441TIP3    H222883   4.384   1.127   6.814
  442TIP3   OH222884   2.850   0.202   7.236
  442TIP3    H122885   2.931   0.209   7.286
  442TIP3    H222886   2.784   0.178   7.301
  443TIP3   OH222887   0.343   4.441   7.212
  443TIP3    H122888   0.309   4.523   7.176
  443TIP3    H222889   0.425   4.466   7.256
  444TIP3   OH222890   1.724   5.360   2.423
  444TIP3    H122891   1.815   5.353   2.453
  444TIP3    H222892   1.714   5.452   2.399
  445TIP3   OH222893   5.721   3.034   6.706
  445TIP3    H122894   5.766   3.105   6.660
  445TIP3    H222895   5.648   3.011   6.649
  446TIP3   OH222896   0.895   5.310   8.270
  446TIP3    H122897   0.854   5.302   8.184
  446TIP3    H222898   0.821   5.307   8.331
  447TIP3   OH222899   1.014   5.075   7.395
  447TIP3    H122900   1.073   5.009   7.357
  447TIP3    H222901   0.930   5.059   7.351
  448TIP3   OH222902   1.377   6.237   6.062
  448TIP3    H122903   1.452   6.250   6.119
  448TIP3    H222904   1.358   6.143   6.068
  449TIP3   OH222905   5.893   4.886   0.832
  449TIP3    H122906   5.913   4.965   0.882
  449TIP3    H222907   5.805   4.861   0.862
  450TIP3   OH222908   5.063   1.893   0.620
  450TIP3    H122909   5.087   1.846   0.699
  450TIP3    H222910   4.978   1.933   0.640
  451TIP3   OH222911   4.510   6.520   0.504
  451TIP3    H122912   4.500   6.493   0.596
  451TIP3    H222913   4.567   6.597   0.508
  452TIP3   OH222914   4.127   0.431   0.915
  452TIP3    H122915   4.087   0.480   0.986
  452TIP3    H222916   4.081   0.461   0.836
  453TIP3   OH222917   1.411   0.609   0.259
  453TIP3    H122918   1.432   0.621   0.352
  453TIP3    H222919   1.496   0.611   0.215
  454TIP3   OH222920   2.841   5.207   2.565
  454TIP3    H122921   2.917   5.265   2.564
  454TIP3    H222922   2.766   5.267   2.556
  455TIP3   OH222923   0.221   0.485   1.183
  455TIP3    H122924   0.198   0.560   1.238
  455TIP3    H222925   0.270   0.427   1.242
  456TIP3   OH222926   3.923   6.457   0.033
  456TIP3    H122927   3.852   6.394   0.040
  456TIP3    H222928   3.968   6.434   8.571
  457TIP3   OH222929   1.944   1.995   8.437
  457TIP3    H122930   1.941   2.085   8.470
  457TIP3    H222931   1.857   1.981   8.399
  458TIP3   OH222932   4.862   1.458   6.997
  458TIP3    H122933   4.916   1.409   6.935
  458TIP3    H222934   4.848   1.397   7.070
  459TIP3   OH222935   2.308   2.035   1.544
  459TIP3    H122936   2.352   1.986   1.613
  459TIP3    H222937   2.378   2.087   1.502
  460TIP3   OH222938   1.242   1.573   0.235
  460TIP3    H122939   1.205   1.543   0.152
  460TIP3    H222940   1.278   1.660   0.216
  461TIP3   OH222941   6.216   0.990   0.675
  461TIP3    H122942   6.175   0.914   0.633
  461TIP3    H222943   6.251   1.041   0.602
  462TIP3   OH222944   6.518   0.014   1.117
  462TIP3    H122945   6.466   0.080   1.070
  462TIP3    H222946   6.600   0.059   1.139
  463TIP3   OH222947   3.931   1.545   7.463
  463TIP3    H122948   4.026   1.547   7.479
  463TIP3    H222949   3.917   1.607   7.391
  464TIP3   OH222950   6.862   3.066   7.225
  464TIP3    H122951   6.852   3.144   7.170
  464TIP3    H222952   6.864   2.993   7.164
  465TIP3   OH222953   2.309   0.072   1.024
  465TIP3    H122954   2.340   6.882   1.016
  465TIP3    H222955   2.218   0.069   0.993
  466TIP3   OH222956   6.803   2.060   8.540
  466TIP3    H122957   6.843   2.020   8.462
  466TIP3    H222958   6.714   2.026   8.541
  467TIP3   OH222959   2.464   4.510   1.418
  467TIP3    H122960   2.441   4.421   1.446
  467TIP3    H222961   2.522   4.543   1.486
  468TIP3   OH222962   3.622   2.133   7.108
  468TIP3    H122963   3.712   2.166   7.117
  468TIP3    H222964   3.576   2.203   7.061
  469TIP3   OH222965   1.622   5.600   1.697
  469TIP3    H122966   1.610   5.544   1.774
  469TIP3    H222967   1.546   5.657   1.697
  470TIP3   OH222968   3.185   1.515   7.595
  470TIP3    H122969   3.215   1.561   7.674
  470TIP3    H222970   3.234   1.433   7.594
  471TIP3   OH222971   3.094   6.261   8.007
  471TIP3    H122972   3.093   6.354   8.032
  471TIP3    H222973   3.118   6.262   7.915
  472TIP3   OH222974   6.292   0.937   1.092
  472TIP3    H122975   6.258   0.929   1.181
  472TIP3    H222976   6.241   0.873   1.042
  473TIP3   OH222977   4.745   1.908   7.158
  473TIP3    H122978   4.717   1.855   7.083
  473TIP3    H222979   4.728   1.999   7.131
  474TIP3   OH222980   5.271   1.409   6.625
  474TIP3    H122981   5.183   1.445   6.632
  474TIP3    H222982   5.327   1.484   6.605
  475TIP3   OH222983   2.751   2.681   6.828
  475TIP3    H122984   2.765   2.730   6.908
  475TIP3    H222985   2.683   2.729   6.781
  476TIP3   OH222986   0.995   3.863   8.319
  476TIP3    H122987   1.024   3.867   8.227
  476TIP3    H222988   0.916   3.810   8.316
  477TIP3   OH222989   0.255   6.040   7.664
  477TIP3    H122990   0.310   6.032   7.586
  477TIP3    H222991   0.165   6.037   7.630
  478TIP3   OH222992   6.846   4.310   0.039
  478TIP3    H122993   6.789   4.321   0.115
  478TIP3    H222994   6.794   4.258   8.597
  479TIP3   OH222995   6.516   5.197   6.394
  479TIP3    H122996   6.444   5.185   6.332
  479TIP3    H222997   6.481   5.257   6.460
  480TIP3   OH222998   0.354   5.749   7.459
  480TIP3    H122999   0.266   5.765   7.494
  480TIP3    H223000   0.411   5.748   7.536
  481TIP3   OH223001   1.303   5.306   1.377
  481TIP3    H123002   1.272   5.260   1.454
  481TIP3    H223003   1.334   5.390   1.410
  482TIP3   OH223004   5.705   6.259   7.512
  482TIP3    H123005   5.681   6.314   7.438
  482TIP3    H223006   5.642   6.282   7.581
  483TIP3   OH223007   4.911   2.918   7.901
  483TIP3    H123008   4.822   2.947   7.917
  483TIP3    H223009   4.931   2.950   7.813
  484TIP3   OH223010   4.005   6.566   6.445
  484TIP3    H123011   4.097   6.562   6.419
  484TIP3    H223012   4.000   6.512   6.524
  485TIP3   OH223013   3.176   5.780   8.283
  485TIP3    H123014   3.182   5.855   8.342
  485TIP3    H223015   3.158   5.706   8.341
  486TIP3   OH223016   6.876   3.143   7.835
  486TIP3    H123017   0.058   3.115   7.794
  486TIP3    H223018   6.878   3.239   7.829
  487TIP3   OH223019   0.808   3.017   7.377
  487TIP3    H123020   0.755   3.021   7.297
  487TIP3    H223021   0.898   3.027   7.347
  488TIP3   OH223022   5.913   5.336   0.478
  488TIP3    H123023   5.913   5.407   0.542
  488TIP3    H223024   5.901   5.256   0.530
  489TIP3   OH223025   0.903   5.062   8.508
  489TIP3    H123026   0.923   5.059   8.601
  489TIP3    H223027   0.961   4.998   8.468
  490TIP3   OH223028   0.510   2.852   1.301
  490TIP3    H123029   0.547   2.932   1.340
  490TIP3    H223030   0.440   2.883   1.244
  491TIP3   OH223031   6.341   2.282   7.730
  491TIP3    H123032   6.269   2.228   7.761
  491TIP3    H223033   6.335   2.278   7.634
  492TIP3   OH223034   0.722   4.416   1.510
  492TIP3    H123035   0.759   4.469   1.581
  492TIP3    H223036   0.706   4.330   1.550
  493TIP3   OH223037   0.336   2.918   0.677
  493TIP3    H123038   0.326   2.894   0.769
  493TIP3    H223039   0.265   2.873   0.632
  494TIP3   OH223040   3.791   2.108   7.881
  494TIP3    H123041   3.775   2.199   7.857
  494TIP3    H223042   3.865   2.082   7.827
  495TIP3   OH223043   0.641   3.497   1.284
  495TIP3    H123044   0.714   3.470   1.228
  495TIP3    H223045   0.564   3.494   1.227
  496TIP3   OH223046   2.061   4.656   1.357
  496TIP3    H123047   2.140   4.651   1.303
  496TIP3    H223048   2.029   4.745   1.344
  497TIP3   OH223049   2.322   1.215   1.656
  497TIP3    H123050   2.335   1.244   1.747
  497TIP3    H223051   2.392   1.259   1.607
  498TIP3   OH223052   2.754   2.822   0.700
  498TIP3    H123053   2.681   2.869   0.660
  498TIP3    H223054   2.809   2.797   0.625
  499TIP3   OH223055   5.816   0.837   0.086
  499TIP3    H123056   5.873   0.765   0.116
  499TIP3    H223057   5.829   0.841   8.611
  500TIP3   OH223058   0.501   5.614   7.068
  500TIP3    H123059   0.475   5.696   7.110
  500TIP3    H223060   0.594   5.606   7.086
  501TIP3   OH223061   3.229   4.119   6.731
  501TIP3    H123062   3.152   4.174   6.745
  501TIP3    H223063   3.209   4.069   6.652
  502TIP3   OH223064   5.734   1.363   7.520
  502TIP3    H123065   5.642   1.340   7.532
  502TIP3    H223066   5.732   1.440   7.464
  503TIP3   OH223067   2.834   2.764   0.965
  503TIP3    H123068   2.821   2.799   0.877
  503TIP3    H223069   2.746   2.755   1.001
  504TIP3   OH223070   5.754   5.895   0.073
  504TIP3    H123071   5.835   5.894   0.022
  504TIP3    H223072   5.718   5.982   0.059
  505TIP3   OH223073   2.973   2.226   8.503
  505TIP3    H123074   2.946   2.251   8.592
  505TIP3    H223075   3.054   2.177   8.516
  506TIP3   OH223076   0.637   6.368   8.478
  506TIP3    H123077   0.631   6.277   8.506
  506TIP3    H223078   0.547   6.398   8.473
  507TIP3   OH223079   6.282   5.973   7.307
  507TIP3    H123080   6.251   5.937   7.224
  507TIP3    H223081   6.291   6.067   7.290
  508TIP3   OH223082   1.146   3.144   0.829
  508TIP3    H123083   1.057   3.161   0.861
  508TIP3    H223084   1.175   3.229   0.795
  509TIP3   OH223085   5.112   4.565   8.158
  509TIP3    H123086   5.065   4.507   8.098
  509TIP3    H223087   5.203   4.536   8.154
  510TIP3   OH223088   2.806   4.656   1.990
  510TIP3    H123089   2.716   4.687   1.982
  510TIP3    H223090   2.841   4.702   2.067
  511TIP3   OH223091   5.318   6.884   7.525
  511TIP3    H123092   5.319   6.791   7.504
  511TIP3    H223093   5.290   6.887   7.617
  512TIP3   OH223094   2.771   4.531   0.839
  512TIP3    H123095   2.862   4.556   0.857
  512TIP3    H223096   2.776   4.476   0.761
  513TIP3   OH223097   5.505   2.584   8.191
  513TIP3    H123098   5.534   2.662   8.143
  513TIP3    H223099   5.410   2.584   8.181
  514TIP3   OH223100   4.551   2.874   8.341
  514TIP3    H123101   4.519   2.963   8.360
  514TIP3    H223102   4.637   2.870   8.381
  515TIP3   OH223103   6.556   2.554   7.964
  515TIP3    H123104   6.573   2.625   7.902
  515TIP3    H223105   6.586   2.588   8.049
  516TIP3   OH223106   5.804   5.150   0.993
  516TIP3    H123107   5.822   5.233   1.036
  516TIP3    H223108   5.777   5.092   1.064
  517TIP3   OH223109   2.534   4.700   0.019
  517TIP3    H123110   2.589   4.675   0.093
  517TIP3    H223111   2.444   4.691   0.052
  518TIP3   OH223112   4.005   5.106   8.404
  518TIP3    H123113   4.069   5.176   8.418
  518TIP3    H223114   4.003   5.094   8.309
  519TIP3   OH223115   5.527   1.805   8.312
  519TIP3    H123116   5.514   1.712   8.332
  519TIP3    H223117   5.621   1.812   8.291
  520TIP3   OH223118   5.966   5.874   1.764
  520TIP3    H123119   5.878   5.911   1.770
  520TIP3    H223120   5.997   5.899   1.677
  521TIP3   OH223121   3.070   4.381   1.677
  521TIP3    H123122   3.135   4.406   1.742
  521TIP3    H223123   3.025   4.306   1.717
  522TIP3   OH223124   5.917   0.496   7.493
  522TIP3    H123125   6.000   0.534   7.462
  522TIP3    H223126   5.943   0.420   7.544
  523TIP3   OH223127   0.961   5.785   1.777
  523TIP3    H123128   1.052   5.754   1.778
  523TIP3    H223129   0.934   5.785   1.869
  524TIP3   OH223130   4.500   3.101   1.094
  524TIP3    H123131   4.450   3.133   1.168
  524TIP3    H223132   4.459   3.018   1.071
  525TIP3   OH223133   2.134   3.634   7.214
  525TIP3    H123134   2.045   3.603   7.199
  525TIP3    H223135   2.154   3.689   7.138
  526TIP3   OH223136   0.230   6.095   0.442
  526TIP3    H123137   0.286   6.049   0.380
  526TIP3    H223138   0.220   6.033   0.515
  527TIP3   OH223139   0.288   4.551   1.693
  527TIP3    H123140   0.356   4.605   1.733
  527TIP3    H223141   0.253   4.499   1.766
  528TIP3   OH223142   4.474   4.481   7.627
  528TIP3    H123143   4.495   4.574   7.617
  528TIP3    H223144   4.559   4.437   7.625
  529TIP3   OH223145   1.112   6.417   7.632
  529TIP3    H123146   1.205   6.405   7.611
  529TIP3    H223147   1.107   6.505   7.669
  530TIP3   OH223148   1.945   2.895   1.682
  530TIP3    H123149   1.999   2.827   1.723
  530TIP3    H223150   1.914   2.854   1.601
  531TIP3   OH223151   2.043   1.551   7.625
  531TIP3    H123152   2.026   1.575   7.716
  531TIP3    H223153   1.958   1.557   7.582
  532TIP3   OH223154   2.561   1.274   1.513
  532TIP3    H123155   2.611   1.192   1.510
  532TIP3    H223156   2.522   1.281   1.426
  533TIP3   OH223157   4.339   5.571   1.089
  533TIP3    H123158   4.417   5.577   1.144
  533TIP3    H223159   4.352   5.491   1.037
  534TIP3   OH223160   1.838   5.831   7.135
  534TIP3    H123161   1.743   5.826   7.132
  534TIP3    H223162   1.864   5.766   7.201
  535TIP3   OH223163   3.270   6.388   2.735
  535TIP3    H123164   3.258   6.380   2.641
  535TIP3    H223165   3.259   6.481   2.753
  536TIP3   OH223166   5.143   5.026   1.956
  536TIP3    H123167   5.188   5.003   2.037
  536TIP3    H223168   5.188   5.106   1.926
  537TIP3   OH223169   0.215   6.762   0.094
  537TIP3    H123170   0.293   6.713   0.069
  537TIP3    H223171   0.241   6.854   0.089
  538TIP3   OH223172   0.948   3.102   7.909
  538TIP3    H123173   0.944   3.070   7.819
  538TIP3    H223174   1.041   3.100   7.932
  539TIP3   OH223175   6.737   4.599   0.615
  539TIP3    H123176   6.794   4.582   0.540
  539TIP3    H223177   6.649   4.608   0.576
  540TIP3   OH223178   0.768   6.463   7.402
  540TIP3    H123179   0.766   6.532   7.468
  540TIP3    H223180   0.860   6.455   7.378
  541TIP3   OH223181   5.871   4.202   8.065
  541TIP3    H123182   5.876   4.278   8.123
  541TIP3    H223183   5.838   4.237   7.982
  542TIP3   OH223184   0.141   4.400   0.851
  542TIP3    H123185   0.050   4.409   0.824
  542TIP3    H223186   0.191   4.400   0.769
  543TIP3   OH223187   2.705   4.908   0.425
  543TIP3    H123188   2.723   4.814   0.418
  543TIP3    H223189   2.657   4.917   0.508
  544TIP3   OH223190   0.025   0.425   0.725
  544TIP3    H123191   0.066   0.379   0.652
  544TIP3    H223192   0.012   0.357   0.792
  545TIP3   OH223193   5.227   6.712   7.212
  545TIP3    H123194   5.200   6.778   7.147
  545TIP3    H223195   5.154   6.709   7.274
  546TIP3   OH223196   4.280   3.445   0.195
  546TIP3    H123197   4.292   3.470   0.104
  546TIP3    H223198   4.273   3.350   0.193
  547TIP3   OH223199   5.235   6.659   8.432
  547TIP3    H123200   5.254   6.740   8.385
  547TIP3    H223201   5.321   6.620   8.449
  548TIP3   OH223202   4.407   1.700   7.899
  548TIP3    H123203   4.313   1.680   7.893
  548TIP3    H223204   4.414   1.790   7.866
  549TIP3   OH223205   2.554   3.850   7.009
  549TIP3    H123206   2.647   3.870   7.015
  549TIP3    H223207   2.515   3.888   7.088
  550TIP3   OH223208   3.504   5.902   7.184
  550TIP3    H123209   3.419   5.939   7.161
  550TIP3    H223210   3.523   5.838   7.116
  551TIP3   OH223211   1.798   4.607   6.400
  551TIP3    H123212   1.851   4.635   6.475
  551TIP3    H223213   1.779   4.689   6.353
  552TIP3   OH223214   1.181   6.824   7.449
  552TIP3    H123215   1.171   6.774   7.530
  552TIP3    H223216   1.108   6.885   7.450
  553TIP3   OH223217   1.814   0.614   2.105
  553TIP3    H123218   1.753   0.541   2.098
  553TIP3    H223219   1.843   0.629   2.014
  554TIP3   OH223220   0.223   0.230   8.500
  554TIP3    H123221   0.186   0.183   8.425
  554TIP3    H223222   0.269   0.162   8.550
  555TIP3   OH223223   3.674   4.935   0.209
  555TIP3    H123224   3.707   4.988   0.136
  555TIP3    H223225   3.748   4.878   0.232
  556TIP3   OH223226   2.221   0.358   8.045
  556TIP3    H123227   2.218   0.353   8.140
  556TIP3    H223228   2.134   0.390   8.020
  557TIP3   OH223229   3.045   3.931   1.239
  557TIP3    H123230   2.966   3.877   1.230
  557TIP3    H223231   3.013   4.021   1.229
  558TIP3   OH223232   5.219   1.882   1.280
  558TIP3    H123233   5.239   1.945   1.211
  558TIP3    H223234   5.303   1.837   1.296
  559TIP3   OH223235   5.440   0.014   1.179
  559TIP3    H123236   5.434   6.899   1.274
  559TIP3    H223237   5.398   6.838   1.140
  560TIP3   OH223238   3.618   5.645   6.429
  560TIP3    H123239   3.586   5.728   6.392
  560TIP3    H223240   3.542   5.587   6.425
  561TIP3   OH223241   2.966   4.159   1.074
  561TIP3    H123242   3.006   4.244   1.092
  561TIP3    H223243   2.926   4.169   0.987
  562TIP3   OH223244   1.546   5.861   7.947
  562TIP3    H123245   1.457   5.837   7.920
  562TIP3    H223246   1.550   5.839   8.040
  563TIP3   OH223247   5.123   4.664   0.589
  563TIP3    H123248   5.115   4.732   0.522
  563TIP3    H223249   5.055   4.686   0.653
  564TIP3   OH223250   4.741   2.133   7.498
  564TIP3    H123251   4.815   2.128   7.559
  564TIP3    H223252   4.686   2.203   7.532
  565TIP3   OH223253   4.014   1.259   0.149
  565TIP3    H123254   4.108   1.263   0.133
  565TIP3    H223255   3.987   1.176   0.109
  566TIP3   OH223256   6.140   1.242   2.242
  566TIP3    H123257   6.095   1.206   2.165
  566TIP3    H223258   6.221   1.278   2.207
  567TIP3   OH223259   2.728   4.514   0.249
  567TIP3    H123260   2.746   4.578   0.317
  567TIP3    H223261   2.793   4.445   0.262
  568TIP3   OH223262   0.204   4.177   8.598
  568TIP3    H123263   0.269   4.248   8.601
  568TIP3    H223264   0.127   4.213   0.022
  569TIP3   OH223265   0.720   3.327   7.332
  569TIP3    H123266   0.749   3.417   7.317
  569TIP3    H223267   0.784   3.273   7.285
  570TIP3   OH223268   4.815   1.503   1.436
  570TIP3    H123269   4.736   1.449   1.435
  570TIP3    H223270   4.879   1.451   1.486
  571TIP3   OH223271   0.310   6.591   7.140
  571TIP3    H123272   0.281   6.668   7.190
  571TIP3    H223273   0.388   6.560   7.187
  572TIP3   OH223274   4.054   2.473   8.268
  572TIP3    H123275   4.052   2.465   8.363
  572TIP3    H223276   4.029   2.387   8.235
  573TIP3   OH223277   2.215   5.728   0.734
  573TIP3    H123278   2.246   5.681   0.810
  573TIP3    H223279   2.241   5.819   0.749
  574TIP3   OH223280   2.689   2.245   0.550
  574TIP3    H123281   2.730   2.324   0.516
  574TIP3    H223282   2.711   2.177   0.486
  575TIP3   OH223283   4.987   1.086   6.238
  575TIP3    H123284   5.074   1.073   6.276
  575TIP3    H223285   4.941   1.004   6.255
  576TIP3   OH223286   4.832   6.521   1.620
  576TIP3    H123287   4.771   6.555   1.685
  576TIP3    H223288   4.885   6.596   1.595
  577TIP3   OH223289   2.838   2.269   7.730
  577TIP3    H123290   2.876   2.356   7.739
  577TIP3    H223291   2.902   2.220   7.678
  578TIP3   OH223292   1.782   0.450   0.265
  578TIP3    H123293   1.736   0.491   0.192
  578TIP3    H223294   1.758   0.505   0.341
  579TIP3   OH223295   0.021   1.270   1.786
  579TIP3    H123296   6.835   1.308   1.773
  579TIP3    H223297   0.028   1.259   1.881
  580TIP3   OH223298   3.786   0.592   0.490
  580TIP3    H123299   3.696   0.622   0.487
  580TIP3    H223300   3.838   0.669   0.468
  581TIP3   OH223301   5.104   2.105   1.562
  581TIP3    H123302   5.047   2.124   1.637
  581TIP3    H223303   5.050   2.050   1.505
  582TIP3   OH223304   6.552   2.443   0.078
  582TIP3    H123305   6.583   2.370   0.024
  582TIP3    H223306   6.629   2.500   0.087
  583TIP3   OH223307   5.936   1.160   0.558
  583TIP3    H123308   5.875   1.111   0.612
  583TIP3    H223309   6.001   1.194   0.620
  584TIP3   OH223310   0.729   5.242   7.436
  584TIP3    H123311   0.796   5.180   7.465
  584TIP3    H223312   0.746   5.253   7.342
  585TIP3   OH223313   2.966   2.588   8.563
  585TIP3    H123314   2.892   2.612   8.508
  585TIP3    H223315   2.957   2.493   8.575
  586TIP3   OH223316   2.289   1.134   7.038
  586TIP3    H123317   2.379   1.144   7.069
  586TIP3    H223318   2.291   1.059   6.979
  587TIP3   OH223319   2.139   5.019   1.777
  587TIP3    H123320   2.128   5.107   1.741
  587TIP3    H223321   2.051   4.994   1.807
  588TIP3   OH223322   0.342   3.459   1.596
  588TIP3    H123323   0.274   3.524   1.579
  588TIP3    H223324   0.326   3.431   1.686
  589TIP3   OH223325   0.645   6.581   6.729
  589TIP3    H123326   0.580   6.639   6.691
  589TIP3    H223327   0.665   6.518   6.660
  590TIP3   OH223328   3.202   4.497   7.400
  590TIP3    H123329   3.109   4.475   7.402
  590TIP3    H223330   3.213   4.562   7.469
  591TIP3   OH223331   4.312   6.347   0.699
  591TIP3    H123332   4.389   6.308   0.659
  591TIP3    H223333   4.240   6.288   0.676
  592TIP3   OH223334   6.420   4.446   7.227
  592TIP3    H123335   6.344   4.501   7.208
  592TIP3    H223336   6.491   4.509   7.244
  593TIP3   OH223337   2.063   6.480   1.573
  593TIP3    H123338   2.017   6.450   1.495
  593TIP3    H223339   2.071   6.402   1.628
  594TIP3   OH223340   5.738   2.612   7.951
  594TIP3    H123341   5.648   2.587   7.934
  594TIP3    H223342   5.775   2.630   7.864
  595TIP3   OH223343   6.034   1.931   6.925
  595TIP3    H123344   5.954   1.930   6.978
  595TIP3    H223345   6.077   1.848   6.944
  596TIP3   OH223346   1.216   5.591   2.172
  596TIP3    H123347   1.306   5.565   2.151
  596TIP3    H223348   1.210   5.682   2.141
  597TIP3   OH223349   2.441   0.077   6.470
  597TIP3    H123350   2.389   0.073   6.390
  597TIP3    H223351   2.495   6.898   6.468
  598TIP3   OH223352   1.903   0.564   6.642
  598TIP3    H123353   1.910   0.489   6.582
  598TIP3    H223354   1.809   0.586   6.641
  599TIP3   OH223355   5.843   4.323   0.983
  599TIP3    H123356   5.842   4.391   0.916
  599TIP3    H223357   5.850   4.241   0.934
  600TIP3   OH223358   4.298   6.668   2.160
  600TIP3    H123359   4.309   6.575   2.141
  600TIP3    H223360   4.208   6.675   2.190
  601TIP3   OH223361   6.691   3.020   7.659
  601TIP3    H123362   6.598   3.016   7.678
  601TIP3    H223363   6.731   3.050   7.740
  602TIP3   OH223364   3.655   0.026   1.368
  602TIP3    H123365   3.586   6.867   1.339
  602TIP3    H223366   3.716   6.870   1.415
  603TIP3   OH223367   2.086   3.142   1.722
  603TIP3    H123368   2.051   3.056   1.744
  603TIP3    H223369   2.104   3.183   1.807
  604TIP3   OH223370   3.810   1.647   0.800
  604TIP3    H123371   3.784   1.638   0.891
  604TIP3    H223372   3.727   1.660   0.753
  605TIP3   OH223373   4.051   6.207   1.009
  605TIP3    H123374   4.019   6.186   1.097
  605TIP3    H223375   4.066   6.122   0.968
  606TIP3   OH223376   4.858   0.757   0.288
  606TIP3    H123377   4.856   0.828   0.352
  606TIP3    H223378   4.946   0.761   0.251
  607TIP3   OH223379   1.851   0.319   8.394
  607TIP3    H123380   1.797   0.394   8.414
  607TIP3    H223381   1.845   0.310   8.299
  608TIP3   OH223382   2.623   3.595   8.521
  608TIP3    H123383   2.677   3.660   8.477
  608TIP3    H223384   2.533   3.622   8.504
  609TIP3   OH223385   6.418   6.476   1.615
  609TIP3    H123386   6.346   6.464   1.676
  609TIP3    H223387   6.388   6.546   1.556
  610TIP3   OH223388   5.713   4.635   7.410
  610TIP3    H123389   5.801   4.615   7.443
  610TIP3    H223390   5.668   4.551   7.409
  611TIP3   OH223391   1.911   4.365   0.616
  611TIP3    H123392   1.819   4.342   0.608
  611TIP3    H223393   1.912   4.461   0.616
  612TIP3   OH223394   0.526   4.282   0.627
  612TIP3    H123395   0.507   4.349   0.561
  612TIP3    H223396   0.440   4.245   0.649
  613TIP3   OH223397   4.173   1.408   0.962
  613TIP3    H123398   4.150   1.478   0.901
  613TIP3    H223399   4.165   1.449   1.049
  614TIP3   OH223400   4.393   1.775   0.827
  614TIP3    H123401   4.335   1.754   0.754
  614TIP3    H223402   4.447   1.848   0.795
  615TIP3   OH223403   3.156   0.145   1.782
  615TIP3    H123404   3.111   0.208   1.726
  615TIP3    H223405   3.094   0.128   1.853
  616TIP3   OH223406   2.446   0.055   8.211
  616TIP3    H123407   2.533   0.025   8.239
  616TIP3    H223408   2.414   0.108   8.284
  617TIP3   OH223409   5.243   2.656   0.837
  617TIP3    H123410   5.294   2.638   0.758
  617TIP3    H223411   5.185   2.580   0.847
  618TIP3   OH223412   1.267   4.350   0.333
  618TIP3    H123413   1.260   4.256   0.314
  618TIP3    H223414   1.278   4.354   0.428
  619TIP3   OH223415   5.401   0.996   0.011
  619TIP3    H123416   5.450   0.918   8.604
  619TIP3    H223417   5.377   1.039   8.548
  620TIP3   OH223418   1.778   2.670   8.398
  620TIP3    H123419   1.711   2.655   8.464
  620TIP3    H223420   1.855   2.623   8.431
  621TIP3   OH223421   3.420   6.556   1.545
  621TIP3    H123422   3.510   6.583   1.565
  621TIP3    H223423   3.393   6.614   1.474
  622TIP3   OH223424   3.985   4.556   7.039
  622TIP3    H123425   4.055   4.621   7.033
  622TIP3    H223426   3.907   4.607   7.063
  623TIP3   OH223427   5.190   5.114   1.631
  623TIP3    H123428   5.224   5.148   1.549
  623TIP3    H223429   5.258   5.132   1.695
  624TIP3   OH223430   4.346   1.399   1.561
  624TIP3    H123431   4.367   1.475   1.508
  624TIP3    H223432   4.422   1.342   1.554
  625TIP3   OH223433   0.284   6.221   7.380
  625TIP3    H123434   0.357   6.261   7.427
  625TIP3    H223435   0.324   6.172   7.309
  626TIP3   OH223436   5.995   1.325   7.699
  626TIP3    H123437   5.914   1.358   7.658
  626TIP3    H223438   6.005   1.376   7.779
  627TIP3   OH223439   4.451   1.900   6.696
  627TIP3    H123440   4.367   1.924   6.736
  627TIP3    H223441   4.430   1.881   6.604
  628TIP3   OH223442   4.440   0.788   1.950
  628TIP3    H123443   4.399   0.723   1.893
  628TIP3    H223444   4.442   0.868   1.897
  629TIP3   OH223445   1.688   1.789   7.558
  629TIP3    H123446   1.706   1.703   7.520
  629TIP3    H223447   1.739   1.791   7.639
  630TIP3   OH223448   5.426   1.352   1.887
  630TIP3    H123449   5.373   1.396   1.953
  630TIP3    H223450   5.428   1.260   1.916
  631TIP3   OH223451   3.152   3.114   0.012
  631TIP3    H123452   3.187   3.203   0.007
  631TIP3    H223453   3.139   3.098   0.105
  632TIP3   OH223454   0.900   6.028   0.908
  632TIP3    H123455   0.911   6.080   0.987
  632TIP3    H223456   0.856   5.948   0.938
  633TIP3   OH223457   6.548   3.547   1.767
  633TIP3    H123458   6.535   3.580   1.856
  633TIP3    H223459   6.594   3.464   1.779
  634TIP3   OH223460   0.939   2.262   1.262
  634TIP3    H123461   0.930   2.353   1.232
  634TIP3    H223462   0.962   2.269   1.354
  635TIP3   OH223463   0.236   4.696   8.064
  635TIP3    H123464   0.259   4.715   8.155
  635TIP3    H223465   0.262   4.774   8.015
  636TIP3   OH223466   4.970   5.654   1.206
  636TIP3    H123467   4.983   5.559   1.196
  636TIP3    H223468   5.059   5.690   1.214
  637TIP3   OH223469   2.602   1.337   6.909
  637TIP3    H123470   2.646   1.387   6.978
  637TIP3    H223471   2.670   1.278   6.876
  638TIP3   OH223472   4.549   1.391   0.742
  638TIP3    H123473   4.485   1.443   0.791
  638TIP3    H223474   4.572   1.320   0.802
  639TIP3   OH223475   1.271   4.100   0.554
  639TIP3    H123476   1.216   4.120   0.630
  639TIP3    H223477   1.360   4.096   0.589
  640TIP3   OH223478   2.203   0.658   8.469
  640TIP3    H123479   2.112   0.629   8.473
  640TIP3    H223480   2.253   0.578   8.456
  641TIP3   OH223481   5.441   4.085   6.528
  641TIP3    H123482   5.528   4.086   6.569
  641TIP3    H223483   5.437   4.167   6.478
  642TIP3   OH223484   3.637   2.974   1.523
  642TIP3    H123485   3.620   2.895   1.472
  642TIP3    H223486   3.728   2.965   1.551
  643TIP3   OH223487   2.435   3.567   7.988
  643TIP3    H123488   2.465   3.556   7.898
  643TIP3    H223489   2.358   3.510   7.994
  644TIP3   OH223490   5.562   5.716   7.046
  644TIP3    H123491   5.470   5.740   7.037
  644TIP3    H223492   5.580   5.718   7.140
  645TIP3   OH223493   2.335   2.422   1.530
  645TIP3    H123494   2.251   2.437   1.574
  645TIP3    H223495   2.401   2.449   1.594
  646TIP3   OH223496   3.412   0.512   1.213
  646TIP3    H123497   3.495   0.524   1.258
  646TIP3    H223498   3.368   0.442   1.262
  647TIP3   OH223499   4.211   2.048   2.974
  647TIP3    H123500   4.271   2.016   3.041
  647TIP3    H223501   4.163   1.971   2.945
  648TIP3   OH223502   3.353   5.698   8.548
  648TIP3    H123503   3.445   5.672   8.547
  648TIP3    H223504   3.308   5.630   8.497
  649TIP3   OH223505   6.878   1.383   0.570
  649TIP3    H123506   6.860   1.346   0.657
  649TIP3    H223507   0.017   1.468   0.588
  650TIP3   OH223508   2.140   4.298   1.393
  650TIP3    H123509   2.085   4.301   1.471
  650TIP3    H223510   2.229   4.288   1.427
  651TIP3   OH223511   6.150   4.145   8.464
  651TIP3    H123512   6.160   4.061   8.508
  651TIP3    H223513   6.180   4.130   8.375
  652TIP3   OH223514   1.727   0.030   1.019
  652TIP3    H123515   1.648   0.081   1.000
  652TIP3    H223516   1.712   6.894   1.106
  653TIP3   OH223517   6.463   3.849   8.531
  653TIP3    H123518   6.536   3.875   8.475
  653TIP3    H223519   6.411   3.789   8.478
  654TIP3   OH223520   0.208   1.505   0.989
  654TIP3    H123521   0.169   1.427   1.028
  654TIP3    H223522   0.164   1.515   0.905
  655TIP3   OH223523   2.305   0.088   6.737
  655TIP3    H123524   2.323   0.134   6.655
  655TIP3    H223525   2.327   0.152   6.805
  656TIP3   OH223526   2.773   3.560   0.756
  656TIP3    H123527   2.811   3.627   0.813
  656TIP3    H223528   2.778   3.598   0.668
  657TIP3   OH223529   3.439   3.658   0.932
  657TIP3    H123530   3.384   3.591   0.972
  657TIP3    H223531   3.527   3.620   0.933
  658TIP3   OH223532   3.125   6.363   7.712
  658TIP3    H123533   3.169   6.401   7.637
  658TIP3    H223534   3.118   6.270   7.691
  659TIP3   OH223535   0.005   1.554   0.188
  659TIP3    H123536   6.875   1.482   0.244
  659TIP3    H223537   6.839   1.560   0.119
  660TIP3   OH223538   4.623   2.367   7.881
  660TIP3    H123539   4.651   2.318   7.959
  660TIP3    H223540   4.628   2.459   7.907
  661TIP3   OH223541   5.424   4.779   7.290
  661TIP3    H123542   5.479   4.795   7.213
  661TIP3    H223543   5.375   4.699   7.268
  662TIP3   OH223544   0.069   2.142   0.574
  662TIP3    H123545   6.889   2.193   0.586
  662TIP3    H223546   0.122   2.196   0.516
  663TIP3   OH223547   5.140   4.196   0.350
  663TIP3    H123548   5.089   4.203   0.430
  663TIP3    H223549   5.230   4.187   0.380
  664TIP3   OH223550   0.769   2.777   7.488
  664TIP3    H123551   0.791   2.865   7.459
  664TIP3    H223552   0.694   2.788   7.545
  665TIP3   OH223553   3.869   1.837   7.504
  665TIP3    H123554   3.935   1.862   7.569
  665TIP3    H223555   3.787   1.831   7.553
  666TIP3   OH223556   4.790   6.454   1.008
  666TIP3    H123557   4.836   6.521   0.957
  666TIP3    H223558   4.810   6.475   1.099
  667TIP3   OH223559   0.359   6.450   0.248
  667TIP3    H123560   0.279   6.402   0.272
  667TIP3    H223561   0.429   6.385   0.256
  668TIP3   OH223562   1.326   5.566   7.733
  668TIP3    H123563   1.236   5.540   7.711
  668TIP3    H223564   1.321   5.593   7.824
  669TIP3   OH223565   4.657   4.246   1.822
  669TIP3    H123566   4.750   4.235   1.841
  669TIP3    H223567   4.614   4.174   1.868
  670TIP3   OH223568   2.758   0.009   6.428
  670TIP3    H123569   2.810   0.070   6.481
  670TIP3    H223570   2.820   6.841   6.403
  671TIP3   OH223571   4.865   0.109   6.713
  671TIP3    H123572   4.898   0.020   6.721
  671TIP3    H223573   4.942   0.163   6.694
  672TIP3   OH223574   1.399   5.582   1.429
  672TIP3    H123575   1.494   5.564   1.427
  672TIP3    H223576   1.390   5.655   1.489
  673TIP3   OH223577   4.227   1.377   0.395
  673TIP3    H123578   4.191   1.295   0.430
  673TIP3    H223579   4.276   1.350   0.317
  674TIP3   OH223580   5.813   6.570   0.491
  674TIP3    H123581   5.798   6.660   0.462
  674TIP3    H223582   5.792   6.571   0.584
  675TIP3   OH223583   4.246   0.623   7.424
  675TIP3    H123584   4.252   0.579   7.339
  675TIP3    H223585   4.152   0.627   7.442
  676TIP3   OH223586   6.078   3.788   8.319
  676TIP3    H123587   6.082   3.748   8.232
  676TIP3    H223588   6.152   3.748   8.367
  677TIP3   OH223589   3.560   1.202   0.725
  677TIP3    H123590   3.470   1.172   0.729
  677TIP3    H223591   3.600   1.153   0.653
  678TIP3   OH223592   6.060   2.205   8.130
  678TIP3    H123593   6.071   2.158   8.047
  678TIP3    H223594   5.967   2.227   8.133
  679TIP3   OH223595   6.735   0.623   7.384
  679TIP3    H123596   6.724   0.538   7.426
  679TIP3    H223597   6.731   0.604   7.291
  680TIP3   OH223598   0.147   1.572   7.874
  680TIP3    H123599   0.212   1.508   7.903
  680TIP3    H223600   0.065   1.543   7.915
  681TIP3   OH223601   6.850   0.674   8.491
  681TIP3    H123602   6.884   0.588   8.469
  681TIP3    H223603   6.864   0.683   8.585
  682TIP3   OH223604   3.287   3.346   7.896
  682TIP3    H123605   3.272   3.252   7.886
  682TIP3    H223606   3.315   3.376   7.810
  683TIP3   OH223607   0.007   0.375   1.898
  683TIP3    H123608   0.054   0.408   1.975
  683TIP3    H223609   0.068   0.311   1.860
  684TIP3   OH223610   4.225   4.624   8.307
  684TIP3    H123611   4.196   4.646   8.218
  684TIP3    H223612   4.210   4.704   8.357
  685TIP3   OH223613   2.392   5.569   8.442
  685TIP3    H123614   2.304   5.584   8.478
  685TIP3    H223615   2.450   5.577   8.518
  686TIP3   OH223616   2.148   3.185   8.159
  686TIP3    H123617   2.166   3.257   8.219
  686TIP3    H223618   2.234   3.148   8.140
  687TIP3   OH223619   3.290   1.804   8.350
  687TIP3    H123620   3.344   1.875   8.383
  687TIP3    H223621   3.231   1.783   8.423
  688TIP3   OH223622   6.900   0.586   6.784
  688TIP3    H123623   0.011   0.505   6.834
  688TIP3    H223624   0.024   0.656   6.845
  689TIP3   OH223625   4.457   5.937   1.975
  689TIP3    H123626   4.416   6.022   1.961
  689TIP3    H223627   4.538   5.957   2.021
  690TIP3   OH223628   2.879   3.194   0.910
  690TIP3    H123629   2.829   3.116   0.937
  690TIP3    H223630   2.813   3.258   0.886
  691TIP3   OH223631   4.955   0.958   6.964
  691TIP3    H123632   4.892   0.961   6.893
  691TIP3    H223633   4.904   0.980   7.042
  692TIP3   OH223634   0.063   2.835   0.855
  692TIP3    H123635   0.010   2.817   0.933
  692TIP3    H223636   0.112   2.754   0.840
  693TIP3   OH223637   2.639   1.423   6.564
  693TIP3    H123638   2.557   1.375   6.572
  693TIP3    H223639   2.697   1.381   6.628
  694TIP3   OH223640   6.419   5.695   7.216
  694TIP3    H123641   6.356   5.629   7.187
  694TIP3    H223642   6.431   5.678   7.309
  695TIP3   OH223643   2.621   0.934   8.296
  695TIP3    H123644   2.553   0.899   8.353
  695TIP3    H223645   2.648   0.859   8.243
  696TIP3   OH223646   0.594   1.184   0.110
  696TIP3    H123647   0.575   1.091   0.121
  696TIP3    H223648   0.566   1.205   0.021
  697TIP3   OH223649   1.573   4.614   1.165
  697TIP3    H123650   1.518   4.580   1.236
  697TIP3    H223651   1.529   4.586   1.085
  698TIP3   OH223652   3.294   2.286   7.773
  698TIP3    H123653   3.335   2.218   7.720
  698TIP3    H223654   3.251   2.239   7.844
  699TIP3   OH223655   2.909   6.266   1.511
  699TIP3    H123656   2.962   6.304   1.580
  699TIP3    H223657   2.923   6.171   1.519
  700TIP3   OH223658   6.283   3.830   6.966
  700TIP3    H123659   6.365   3.876   6.983
  700TIP3    H223660   6.300   3.779   6.886
  701TIP3   OH223661   3.013   5.834   8.023
  701TIP3    H123662   3.069   5.833   7.945
  701TIP3    H223663   3.074   5.836   8.096
  702TIP3   OH223664   0.199   6.383   1.312
  702TIP3    H123665   0.152   6.306   1.281
  702TIP3    H223666   0.192   6.379   1.408
  703TIP3   OH223667   3.594   4.241   1.541
  703TIP3    H123668   3.530   4.307   1.567
  703TIP3    H223669   3.634   4.276   1.461
  704TIP3   OH223670   0.047   4.618   7.672
  704TIP3    H123671   6.857   4.591   7.687
  704TIP3    H223672   0.060   4.692   7.732
  705TIP3   OH223673   3.464   4.532   7.638
  705TIP3    H123674   3.486   4.464   7.574
  705TIP3    H223675   3.386   4.499   7.683
  706TIP3   OH223676   5.653   3.531   8.053
  706TIP3    H123677   5.633   3.487   7.970
  706TIP3    H223678   5.718   3.475   8.095
  707TIP3   OH223679   1.490   0.119   0.943
  707TIP3    H123680   1.424   0.051   0.935
  707TIP3    H223681   1.440   0.199   0.961
  708TIP3   OH223682   3.896   2.993   0.523
  708TIP3    H123683   3.867   3.039   0.444
  708TIP3    H223684   3.935   2.912   0.490
  709TIP3   OH223685   5.983   3.678   1.695
  709TIP3    H123686   5.976   3.724   1.611
  709TIP3    H223687   5.901   3.698   1.740
  710TIP3   OH223688   5.528   3.094   0.037
  710TIP3    H123689   5.491   3.013   0.001
  710TIP3    H223690   5.514   3.086   0.132
  711TIP3   OH223691   1.561   3.234   7.795
  711TIP3    H123692   1.508   3.313   7.781
  711TIP3    H223693   1.502   3.162   7.775
  712TIP3   OH223694   3.544   0.410   0.136
  712TIP3    H123695   3.453   0.397   0.108
  712TIP3    H223696   3.540   0.414   0.231
  713TIP3   OH223697   2.096   2.439   1.635
  713TIP3    H123698   2.021   2.396   1.675
  713TIP3    H223699   2.089   2.531   1.662
  714TIP3   OH223700   2.553   0.615   0.380
  714TIP3    H123701   2.570   0.521   0.386
  714TIP3    H223702   2.482   0.631   0.442
  715TIP3   OH223703   1.371   5.235   1.717
  715TIP3    H123704   1.307   5.180   1.672
  715TIP3    H223705   1.353   5.223   1.810
  716TIP3   OH223706   3.767   1.406   0.994
  716TIP3    H123707   3.775   1.406   1.090
  716TIP3    H223708   3.844   1.360   0.963
  717TIP3   OH223709   2.849   2.602   8.221
  717TIP3    H123710   2.776   2.603   8.283
  717TIP3    H223711   2.813   2.641   8.141
  718TIP3   OH223712   1.889   6.821   1.451
  718TIP3    H123713   1.949   6.779   1.513
  718TIP3    H223714   1.885   6.761   1.377
  719TIP3   OH223715   1.347   1.522   7.956
  719TIP3    H123716   1.426   1.499   8.005
  719TIP3    H223717   1.363   1.486   7.868
  720TIP3   OH223718   6.551   5.097   0.621
  720TIP3    H123719   6.603   5.021   0.595
  720TIP3    H223720   6.613   5.169   0.624
  721TIP3   OH223721   4.368   2.843   6.949
  721TIP3    H123722   4.426   2.846   7.025
  721TIP3    H223723   4.425   2.818   6.877
  722TIP3   OH223724   0.086   6.829   6.451
  722TIP3    H123725   0.153   6.761   6.462
  722TIP3    H223726   0.003   6.783   6.463
  723TIP3   OH223727   1.514   3.293   8.072
  723TIP3    H123728   1.546   3.288   7.982
  723TIP3    H223729   1.471   3.379   8.077
  724TIP3   OH223730   6.350   1.536   6.752
  724TIP3    H123731   6.342   1.628   6.729
  724TIP3    H223732   6.400   1.497   6.680
  725TIP3   OH223733   5.466   5.340   0.930
  725TIP3    H123734   5.454   5.257   0.884
  725TIP3    H223735   5.406   5.400   0.887
  726TIP3   OH223736   6.242   5.831   1.126
  726TIP3    H123737   6.156   5.789   1.114
  726TIP3    H223738   6.259   5.874   1.043
  727TIP3   OH223739   0.273   0.372   6.093
  727TIP3    H123740   0.348   0.357   6.036
  727TIP3    H223741   0.243   0.284   6.117
  728TIP3   OH223742   5.769   6.599   1.608
  728TIP3    H123743   5.841   6.646   1.566
  728TIP3    H223744   5.803   6.511   1.623
  729TIP3   OH223745   4.179   2.503   1.050
  729TIP3    H123746   4.184   2.575   0.988
  729TIP3    H223747   4.152   2.428   0.997
  730TIP3   OH223748   2.159   1.913   1.897
  730TIP3    H123749   2.080   1.874   1.860
  730TIP3    H223750   2.187   1.852   1.964
  731TIP3   OH223751   5.717   6.569   2.317
  731TIP3    H123752   5.729   6.645   2.260
  731TIP3    H223753   5.623   6.569   2.336
  732TIP3   OH223754   3.932   3.062   1.508
  732TIP3    H123755   3.950   3.125   1.438
  732TIP3    H223756   3.910   3.117   1.584
  733TIP3   OH223757   4.869   0.602   1.029
  733TIP3    H123758   4.877   0.527   1.088
  733TIP3    H223759   4.863   0.678   1.088
  734TIP3   OH223760   3.007   6.532   0.893
  734TIP3    H123761   2.948   6.457   0.892
  734TIP3    H223762   2.949   6.608   0.899
  735TIP3   OH223763   3.378   1.254   6.837
  735TIP3    H123764   3.321   1.239   6.762
  735TIP3    H223765   3.407   1.166   6.863
  736TIP3   OH223766   2.137   2.624   8.412
  736TIP3    H123767   2.120   2.549   8.356
  736TIP3    H223768   2.226   2.610   8.445
  737TIP3   OH223769   0.650   2.971   6.459
  737TIP3    H123770   0.598   2.891   6.455
  737TIP3    H223771   0.740   2.941   6.475
  738TIP3   OH223772   3.842   4.169   0.307
  738TIP3    H123773   3.811   4.103   0.369
  738TIP3    H223774   3.937   4.158   0.305
  739TIP3   OH223775   0.065   0.677   6.522
  739TIP3    H123776   0.087   0.597   6.474
  739TIP3    H223777   0.052   0.649   6.612
  740TIP3   OH223778   3.570   4.722   7.480
  740TIP3    H123779   3.512   4.674   7.540
  740TIP3    H223780   3.540   4.813   7.487
  741TIP3   OH223781   2.835   1.792   1.269
  741TIP3    H123782   2.884   1.844   1.333
  741TIP3    H223783   2.745   1.793   1.302
  742TIP3   OH223784   2.477   4.521   6.483
  742TIP3    H123785   2.570   4.538   6.467
  742TIP3    H223786   2.459   4.442   6.434
  743TIP3   OH223787   6.498   3.150   0.060
  743TIP3    H123788   6.461   3.155   0.148
  743TIP3    H223789   6.540   3.064   0.056
  744TIP3   OH223790   2.064   1.650   7.869
  744TIP3    H123791   2.137   1.698   7.908
  744TIP3    H223792   1.993   1.714   7.865
  745TIP3   OH223793   3.193   0.850   2.103
  745TIP3    H123794   3.164   0.775   2.052
  745TIP3    H223795   3.143   0.924   2.068
  746TIP3   OH223796   2.781   1.756   0.185
  746TIP3    H123797   2.718   1.729   0.253
  746TIP3    H223798   2.742   1.726   0.103
  747TIP3   OH223799   4.061   2.326   7.656
  747TIP3    H123800   4.139   2.379   7.644
  747TIP3    H223801   3.991   2.389   7.674
  748TIP3   OH223802   4.271   1.910   1.919
  748TIP3    H123803   4.273   2.004   1.934
  748TIP3    H223804   4.349   1.893   1.866
  749TIP3   OH223805   1.120   3.050   6.067
  749TIP3    H123806   1.180   2.979   6.046
  749TIP3    H223807   1.049   3.007   6.116
  750TIP3   OH223808   5.588   5.535   1.540
  750TIP3    H123809   5.638   5.571   1.468
  750TIP3    H223810   5.599   5.598   1.611
  751TIP3   OH223811   1.595   0.298   0.455
  751TIP3    H123812   1.588   0.360   0.527
  751TIP3    H223813   1.657   0.232   0.486
  752TIP3   OH223814   3.961   4.623   0.689
  752TIP3    H123815   4.046   4.579   0.681
  752TIP3    H223816   3.959   4.654   0.780
  753TIP3   OH223817   3.350   3.482   7.657
  753TIP3    H123818   3.385   3.571   7.645
  753TIP3    H223819   3.256   3.492   7.647
  754TIP3   OH223820   0.408   3.466   8.451
  754TIP3    H123821   0.439   3.555   8.468
  754TIP3    H223822   0.451   3.441   8.369
  755TIP3   OH223823   3.334   2.922   7.017
  755TIP3    H123824   3.253   2.900   7.062
  755TIP3    H223825   3.308   2.989   6.954
  756TIP3   OH223826   0.762   4.833   0.759
  756TIP3    H123827   0.768   4.768   0.690
  756TIP3    H223828   0.776   4.917   0.715
  757TIP3   OH223829   2.203   2.040   8.299
  757TIP3    H123830   2.194   2.127   8.339
  757TIP3    H223831   2.270   2.053   8.232
  758TIP3   OH223832   5.704   1.603   7.954
  758TIP3    H123833   5.706   1.654   8.035
  758TIP3    H223834   5.612   1.605   7.927
  759TIP3   OH223835   5.247   4.454   1.050
  759TIP3    H123836   5.255   4.510   1.128
  759TIP3    H223837   5.331   4.409   1.045
  760TIP3   OH223838   0.658   3.548   0.805
  760TIP3    H123839   0.573   3.544   0.761
  760TIP3    H223840   0.675   3.458   0.831
  761TIP3   OH223841   0.155   3.245   0.357
  761TIP3    H123842   0.243   3.262   0.390
  761TIP3    H223843   0.131   3.161   0.396
  762TIP3   OH223844   4.538   2.340   7.058
  762TIP3    H123845   4.555   2.272   7.123
  762TIP3    H223846   4.508   2.292   6.981
  763TIP3   OH223847   3.153   3.887   1.616
  763TIP3    H123848   3.126   3.954   1.552
  763TIP3    H223849   3.071   3.855   1.653
  764TIP3   OH223850   6.626   5.852   1.445
  764TIP3    H123851   6.608   5.913   1.517
  764TIP3    H223852   6.589   5.895   1.367
  765TIP3   OH223853   2.326   4.863   7.371
  765TIP3    H123854   2.252   4.872   7.431
  765TIP3    H223855   2.310   4.931   7.305
  766TIP3   OH223856   3.981   1.298   7.185
  766TIP3    H123857   3.895   1.270   7.218
  766TIP3    H223858   3.964   1.379   7.138
  767TIP3   OH223859   0.034   4.176   7.651
  767TIP3    H123860   0.046   4.109   7.584
  767TIP3    H223861   0.098   4.243   7.629
  768TIP3   OH223862   4.552   1.994   0.375
  768TIP3    H123863   4.462   2.018   0.352
  768TIP3    H223864   4.594   1.977   0.291
  769TIP3   OH223865   1.245   6.620   2.064
  769TIP3    H123866   1.335   6.642   2.039
  769TIP3    H223867   1.202   6.704   2.077
  770TIP3   OH223868   0.468   5.748   7.711
  770TIP3    H123869   0.443   5.739   7.802
  770TIP3    H223870   0.451   5.661   7.673
  771TIP3   OH223871   3.781   4.746   0.523
  771TIP3    H123872   3.735   4.736   0.606
  771TIP3    H223873   3.848   4.677   0.524
  772TIP3   OH223874   5.559   0.548   6.703
  772TIP3    H123875   5.585   0.547   6.611
  772TIP3    H223876   5.642   0.547   6.751
  773TIP3   OH223877   5.552   2.350   8.338
  773TIP3    H123878   5.533   2.422   8.277
  773TIP3    H223879   5.616   2.386   8.399
  774TIP3   OH223880   5.607   1.157   8.044
  774TIP3    H123881   5.515   1.139   8.063
  774TIP3    H223882   5.655   1.110   8.112
  775TIP3   OH223883   5.384   2.187   0.745
  775TIP3    H123884   5.384   2.268   0.694
  775TIP3    H223885   5.303   2.191   0.796
  776TIP3   OH223886   4.078   4.443   1.123
  776TIP3    H123887   4.041   4.527   1.151
  776TIP3    H223888   4.009   4.402   1.071
  777TIP3   OH223889   0.531   4.457   1.232
  777TIP3    H123890   0.461   4.520   1.219
  777TIP3    H223891   0.508   4.411   1.313
  778TIP3   OH223892   4.612   0.354   1.196
  778TIP3    H123893   4.528   0.384   1.160
  778TIP3    H223894   4.618   0.397   1.282
  779TIP3   OH223895   6.658   4.492   8.478
  779TIP3    H123896   6.677   4.486   8.384
  779TIP3    H223897   6.726   4.440   8.520
  780TIP3   OH223898   3.240   0.674   0.055
  780TIP3    H123899   3.245   0.653   0.148
  780TIP3    H223900   3.240   0.589   0.011
  781TIP3   OH223901   2.967   0.282   1.021
  781TIP3    H123902   2.877   0.263   0.994
  781TIP3    H223903   2.989   0.364   0.976
  782TIP3   OH223904   3.107   1.345   1.187
  782TIP3    H123905   3.053   1.421   1.164
  782TIP3    H223906   3.189   1.359   1.140
  783TIP3   OH223907   2.839   4.979   1.440
  783TIP3    H123908   2.756   5.005   1.480
  783TIP3    H223909   2.815   4.945   1.354
  784TIP3   OH223910   6.501   5.255   7.408
  784TIP3    H123911   6.557   5.316   7.358
  784TIP3    H223912   6.423   5.307   7.430
  785TIP3   OH223913   1.837   5.075   8.013
  785TIP3    H123914   1.912   5.136   8.017
  785TIP3    H223915   1.780   5.112   7.946
  786TIP3   OH223916   0.873   2.666   0.806
  786TIP3    H123917   0.962   2.639   0.832
  786TIP3    H223918   0.843   2.721   0.878
  787TIP3   OH223919   4.640   6.419   0.741
  787TIP3    H123920   4.625   6.326   0.726
  787TIP3    H223921   4.633   6.429   0.836
  788TIP3   OH223922   2.816   0.597   0.770
  788TIP3    H123923   2.768   0.662   0.721
  788TIP3    H223924   2.751   0.555   0.826
  789TIP3   OH223925   6.260   2.166   0.877
  789TIP3    H123926   6.317   2.240   0.895
  789TIP3    H223927   6.175   2.206   0.857
  790TIP3   OH223928   2.289   5.329   0.860
  790TIP3    H123929   2.373   5.284   0.864
  790TIP3    H223930   2.264   5.326   0.767
  791TIP3   OH223931   3.450   6.322   7.954
  791TIP3    H123932   3.485   6.390   8.013
  791TIP3    H223933   3.356   6.325   7.968
  792TIP3   OH223934   4.591   5.158   7.977
  792TIP3    H123935   4.573   5.067   7.953
  792TIP3    H223936   4.686   5.166   7.972
  793TIP3   OH223937   4.868   5.391   7.248
  793TIP3    H123938   4.822   5.332   7.189
  793TIP3    H223939   4.811   5.468   7.255
  794TIP3   OH223940   3.907   6.491   0.925
  794TIP3    H123941   3.985   6.436   0.912
  794TIP3    H223942   3.942   6.575   0.953
  795TIP3   OH223943   4.816   5.825   7.748
  795TIP3    H123944   4.876   5.871   7.807
  795TIP3    H223945   4.744   5.886   7.735
  796TIP3   OH223946   1.355   3.059   8.176
  796TIP3    H123947   1.289   3.060   8.106
  796TIP3    H223948   1.399   3.144   8.168
  797TIP3   OH223949   2.281   6.461   2.522
  797TIP3    H123950   2.241   6.493   2.442
  797TIP3    H223951   2.254   6.524   2.589
  798TIP3   OH223952   3.949   5.169   1.531
  798TIP3    H123953   3.965   5.148   1.623
  798TIP3    H223954   3.854   5.179   1.524
  799TIP3   OH223955   5.934   1.157   7.933
  799TIP3    H123956   5.911   1.206   8.012
  799TIP3    H223957   5.947   1.224   7.866
  800TIP3   OH223958   3.119   6.306   6.490
  800TIP3    H123959   3.106   6.401   6.487
  800TIP3    H223960   3.133   6.281   6.399
  801TIP3   OH223961   6.238   4.140   7.400
  801TIP3    H123962   6.287   4.126   7.480
  801TIP3    H223963   6.153   4.100   7.416
  802TIP3   OH223964   1.995   2.898   1.213
  802TIP3    H123965   1.991   2.957   1.289
  802TIP3    H223966   1.908   2.858   1.211
  803TIP3   OH223967   0.377   3.383   6.726
  803TIP3    H123968   0.438   3.312   6.705
  803TIP3    H223969   0.345   3.413   6.641
  804TIP3   OH223970   0.627   0.861   6.789
  804TIP3    H123971   0.559   0.824   6.733
  804TIP3    H223972   0.580   0.901   6.862
  805TIP3   OH223973   1.374   1.301   6.721
  805TIP3    H123974   1.402   1.235   6.785
  805TIP3    H223975   1.281   1.315   6.740
  806TIP3   OH223976   3.987   0.601   7.497
  806TIP3    H123977   3.983   0.676   7.556
  806TIP3    H223978   3.902   0.600   7.453
  807TIP3   OH223979   6.593   4.668   0.083
  807TIP3    H123980   6.511   4.659   0.131
  807TIP3    H223981   6.613   4.580   0.051
  808TIP3   OH223982   4.977   5.004   8.297
  808TIP3    H123983   5.044   4.935   8.299
  808TIP3    H223984   5.013   5.074   8.351
  809TIP3   OH223985   3.723   1.477   7.656
  809TIP3    H123986   3.755   1.517   7.575
  809TIP3    H223987   3.652   1.534   7.685
  810TIP3   OH223988   3.367   2.948   8.554
  810TIP3    H123989   3.339   2.861   8.526
  810TIP3    H223990   3.286   2.992   8.581
  811TIP3   OH223991   6.122   3.057   0.185
  811TIP3    H123992   6.032   3.086   0.175
  811TIP3    H223993   6.122   3.002   0.263
  812TIP3   OH223994   4.555   4.009   2.014
  812TIP3    H123995   4.596   3.922   2.011
  812TIP3    H223996   4.532   4.021   2.106
  813TIP3   OH223997   5.333   4.982   7.818
  813TIP3    H123998   5.249   4.996   7.775
  813TIP3    H223999   5.372   5.069   7.823
  814TIP3   OH224000   6.390   3.053   6.496
  814TIP3    H124001   6.479   3.088   6.496
  814TIP3    H224002   6.338   3.117   6.449
  815TIP3   OH224003   6.677   0.086   0.821
  815TIP3    H124004   6.732   0.162   0.841
  815TIP3    H224005   6.685   0.030   0.898
  816TIP3   OH224006   1.081   2.922   0.174
  816TIP3    H124007   1.059   2.829   0.179
  816TIP3    H224008   1.126   2.932   0.090
  817TIP3   OH224009   5.746   4.217   1.207
  817TIP3    H124010   5.747   4.291   1.147
  817TIP3    H224011   5.838   4.199   1.225
  818TIP3   OH224012   5.073   4.335   7.565
  818TIP3    H124013   5.014   4.339   7.490
  818TIP3    H224014   5.062   4.246   7.599
  819TIP3   OH224015   5.655   1.260   1.750
  819TIP3    H124016   5.670   1.220   1.835
  819TIP3    H224017   5.584   1.322   1.765
  820TIP3   OH224018   6.169   3.634   6.718
  820TIP3    H124019   6.158   3.555   6.665
  820TIP3    H224020   6.254   3.623   6.760
  821TIP3   OH224021   1.833   2.413   7.790
  821TIP3    H124022   1.851   2.488   7.847
  821TIP3    H224023   1.808   2.343   7.850
  822TIP3   OH224024   3.341   2.829   7.706
  822TIP3    H124025   3.431   2.800   7.687
  822TIP3    H224026   3.298   2.752   7.743
  823TIP3   OH224027   3.660   3.936   6.624
  823TIP3    H124028   3.667   3.870   6.554
  823TIP3    H224029   3.683   4.018   6.581
  824TIP3   OH224030   4.940   4.865   7.774
  824TIP3    H124031   5.017   4.911   7.740
  824TIP3    H224032   4.944   4.778   7.733
  825TIP3   OH224033   1.082   0.503   7.307
  825TIP3    H124034   1.175   0.486   7.294
  825TIP3    H224035   1.037   0.436   7.256
  826TIP3   OH224036   3.735   2.178   6.700
  826TIP3    H124037   3.725   2.101   6.643
  826TIP3    H224038   3.826   2.175   6.729
  827TIP3   OH224039   3.463   0.979   8.005
  827TIP3    H124040   3.468   1.060   7.953
  827TIP3    H224041   3.439   1.009   8.092
  828TIP3   OH224042   3.560   0.457   7.423
  828TIP3    H124043   3.549   0.484   7.514
  828TIP3    H224044   3.583   0.537   7.377
  829TIP3   OH224045   1.145   0.264   6.406
  829TIP3    H124046   1.240   0.267   6.418
  829TIP3    H224047   1.130   0.305   6.320
  830TIP3   OH224048   1.346   3.675   0.304
  830TIP3    H124049   1.341   3.752   0.361
  830TIP3    H224050   1.270   3.623   0.328
  831TIP3   OH224051   4.367   2.226   6.852
  831TIP3    H124052   4.336   2.145   6.813
  831TIP3    H224053   4.328   2.295   6.798
  832TIP3   OH224054   1.953   1.289   8.141
  832TIP3    H124055   2.028   1.234   8.119
  832TIP3    H224056   1.982   1.378   8.125
  833TIP3   OH224057   3.265   6.573   2.457
  833TIP3    H124058   3.267   6.621   2.539
  833TIP3    H224059   3.195   6.509   2.468
  834TIP3   OH224060   5.653   4.581   6.751
  834TIP3    H124061   5.652   4.559   6.658
  834TIP3    H224062   5.639   4.498   6.796
  835TIP3   OH224063   3.528   2.336   0.258
  835TIP3    H124064   3.440   2.339   0.295
  835TIP3    H224065   3.563   2.251   0.287
  836TIP3   OH224066   6.825   0.301   0.959
  836TIP3    H124067   6.798   0.392   0.954
  836TIP3    H224068   6.787   0.269   1.041
  837TIP3   OH224069   4.125   3.960   0.075
  837TIP3    H124070   4.217   3.985   0.067
  837TIP3    H224071   4.126   3.870   0.106
  838TIP3   OH224072   4.701   0.981   8.082
  838TIP3    H124073   4.728   0.915   8.146
  838TIP3    H224074   4.606   0.977   8.083
  839TIP3   OH224075   5.914   4.378   7.534
  839TIP3    H124076   5.968   4.410   7.606
  839TIP3    H224077   5.868   4.302   7.570
  840TIP3   OH224078   0.865   6.560   2.130
  840TIP3    H124079   0.773   6.554   2.104
  840TIP3    H224080   0.893   6.470   2.140
  841TIP3   OH224081   5.970   4.365   8.471
  841TIP3    H124082   5.982   4.370   8.566
  841TIP3    H224083   6.037   4.303   8.441
  842TIP3   OH224084   5.687   5.115   1.583
  842TIP3    H124085   5.637   5.056   1.527
  842TIP3    H224086   5.734   5.172   1.522
  843TIP3   OH224087   1.051   2.379   6.118
  843TIP3    H124088   1.086   2.393   6.206
  843TIP3    H224089   1.006   2.460   6.096
  844TIP3   OH224090   5.094   4.818   8.040
  844TIP3    H124091   5.097   4.794   7.948
  844TIP3    H224092   5.099   4.735   8.087
  845TIP3   OH224093   5.537   5.879   1.667
  845TIP3    H124094   5.444   5.856   1.661
  845TIP3    H224095   5.540   5.973   1.648
  846TIP3   OH224096   4.097   1.971   2.199
  846TIP3    H124097   4.180   1.961   2.246
  846TIP3    H224098   4.119   1.957   2.107
  847TIP3   OH224099   3.800   2.598   2.305
  847TIP3    H124100   3.882   2.564   2.341
  847TIP3    H224101   3.804   2.575   2.212
  848TIP3   OH224102   6.664   5.411   7.191
  848TIP3    H124103   6.689   5.340   7.131
  848TIP3    H224104   6.603   5.464   7.140
  849TIP3   OH224105   6.240   2.281   1.136
  849TIP3    H124106   6.334   2.299   1.123
  849TIP3    H224107   6.223   2.205   1.080
  850TIP3   OH224108   2.539   6.709   6.430
  850TIP3    H124109   2.612   6.771   6.432
  850TIP3    H224110   2.509   6.710   6.339
  851TIP3   OH224111   6.314   1.142   0.481
  851TIP3    H124112   6.398   1.166   0.442
  851TIP3    H224113   6.249   1.173   0.418
  852TIP3   OH224114   3.645   3.156   8.600
  852TIP3    H124115   3.583   3.214   0.025
  852TIP3    H224116   3.637   3.180   8.507
  853TIP3   OH224117   6.704   5.118   6.568
  853TIP3    H124118   6.645   5.137   6.495
  853TIP3    H224119   6.769   5.188   6.566
  854TIP3   OH224120   1.479   5.155   7.961
  854TIP3    H124121   1.460   5.246   7.986
  854TIP3    H224122   1.564   5.161   7.917
  855TIP3   OH224123   4.024   2.875   7.227
  855TIP3    H124124   3.942   2.832   7.205
  855TIP3    H224125   4.000   2.967   7.241
  856TIP3   OH224126   4.988   0.175   8.176
  856TIP3    H124127   5.043   0.168   8.098
  856TIP3    H224128   4.926   0.103   8.169
  857TIP3   OH224129   6.426   2.126   8.382
  857TIP3    H124130   6.392   2.136   8.471
  857TIP3    H224131   6.475   2.207   8.366
  858TIP3   OH224132   4.072   4.901   0.808
  858TIP3    H124133   4.032   4.845   0.874
  858TIP3    H224134   4.166   4.883   0.814
  859TIP3   OH224135   0.628   5.076   2.177
  859TIP3    H124136   0.616   4.982   2.189
  859TIP3    H224137   0.540   5.111   2.165
  860TIP3   OH224138   4.659   1.026   0.233
  860TIP3    H124139   4.586   1.039   0.294
  860TIP3    H224140   4.727   0.983   0.286
  861TIP3   OH224141   0.274   1.266   1.204
  861TIP3    H124142   0.224   1.323   1.262
  861TIP3    H224143   0.211   1.198   1.177
  862TIP3   OH224144   3.493   6.753   0.128
  862TIP3    H124145   3.559   6.778   0.063
  862TIP3    H224146   3.497   6.657   0.130
  863TIP3   OH224147   0.555   6.521   7.219
  863TIP3    H124148   0.568   6.434   7.181
  863TIP3    H224149   0.629   6.533   7.278
  864TIP3   OH224150   3.889   1.316   7.784
  864TIP3    H124151   3.812   1.329   7.730
  864TIP3    H224152   3.880   1.381   7.854
  865TIP3   OH224153   2.267   6.469   7.277
  865TIP3    H124154   2.330   6.512   7.220
  865TIP3    H224155   2.227   6.540   7.328
  866TIP3   OH224156   1.330   5.577   8.299
  866TIP3    H124157   1.338   5.561   8.393
  866TIP3    H224158   1.237   5.565   8.279
  867TIP3   OH224159   1.292   3.928   1.907
  867TIP3    H124160   1.224   3.907   1.843
  867TIP3    H224161   1.361   3.969   1.855
  868TIP3   OH224162   6.100   4.073   8.201
  868TIP3    H124163   6.023   4.108   8.156
  868TIP3    H224164   6.164   4.060   8.132
  869TIP3   OH224165   4.073   4.830   8.365
  869TIP3    H124166   4.087   4.891   8.293
  869TIP3    H224167   4.009   4.873   8.422
  870TIP3   OH224168   5.831   0.977   0.742
  870TIP3    H124169   5.848   0.895   0.697
  870TIP3    H224170   5.741   1.000   0.719
  871TIP3   OH224171   6.363   3.038   0.589
  871TIP3    H124172   6.314   3.074   0.515
  871TIP3    H224173   6.323   3.078   0.666
  872TIP3   OH224174   4.956   5.383   1.210
  872TIP3    H124175   4.881   5.363   1.265
  872TIP3    H224176   4.981   5.299   1.171
  873TIP3   OH224177   5.346   3.838   8.298
  873TIP3    H124178   5.439   3.831   8.278
  873TIP3    H224179   5.334   3.931   8.320
  874TIP3   OH224180   4.245   2.567   7.673
  874TIP3    H124181   4.181   2.608   7.733
  874TIP3    H224182   4.289   2.502   7.727
  875TIP3   OH224183   5.328   1.174   1.073
  875TIP3    H124184   5.346   1.086   1.107
  875TIP3    H224185   5.278   1.217   1.141
  876TIP3   OH224186   3.776   5.613   0.068
  876TIP3    H124187   3.745   5.588   8.600
  876TIP3    H224188   3.698   5.609   0.123
  877TIP3   OH224189   5.779   0.759   1.206
  877TIP3    H124190   5.859   0.809   1.218
  877TIP3    H224191   5.711   0.814   1.245
  878TIP3   OH224192   0.158   4.751   7.449
  878TIP3    H124193   0.112   4.699   7.515
  878TIP3    H224194   0.208   4.686   7.399
  879TIP3   OH224195   2.862   1.525   0.761
  879TIP3    H124196   2.855   1.557   0.671
  879TIP3    H224197   2.772   1.526   0.793
  880TIP3   OH224198   0.060   1.563   6.669
  880TIP3    H124199   0.098   1.643   6.705
  880TIP3    H224200   6.893   1.593   6.609
  881TIP3   OH224201   3.019   2.491   7.391
  881TIP3    H124202   3.087   2.463   7.452
  881TIP3    H224203   2.984   2.410   7.355
  882TIP3   OH224204   3.874   5.548   1.226
  882TIP3    H124205   3.782   5.549   1.198
  882TIP3    H224206   3.905   5.461   1.199
  883TIP3   OH224207   4.014   3.165   7.189
  883TIP3    H124208   4.070   3.218   7.245
  883TIP3    H224209   3.926   3.198   7.206
  884TIP3   OH224210   2.138   0.266   1.212
  884TIP3    H124211   2.225   0.228   1.206
  884TIP3    H224212   2.153   0.360   1.224
  885TIP3   OH224213   1.630   5.620   7.420
  885TIP3    H124214   1.549   5.601   7.373
  885TIP3    H224215   1.631   5.557   7.492
  886TIP3   OH224216   4.504   5.652   0.853
  886TIP3    H124217   4.438   5.583   0.858
  886TIP3    H224218   4.502   5.694   0.939
  887TIP3   OH224219   5.258   6.153   0.365
  887TIP3    H124220   5.312   6.229   0.340
  887TIP3    H224221   5.174   6.167   0.320
  888TIP3   OH224222   5.002   5.781   8.121
  888TIP3    H124223   5.004   5.835   8.042
  888TIP3    H224224   5.012   5.691   8.089
  889TIP3   OH224225   3.166   3.768   8.123
  889TIP3    H124226   3.144   3.676   8.107
  889TIP3    H224227   3.261   3.768   8.129
  890TIP3   OH224228   5.932   4.437   1.984
  890TIP3    H124229   5.928   4.494   2.060
  890TIP3    H224230   5.901   4.352   2.016
  891TIP3   OH224231   6.086   1.581   1.161
  891TIP3    H124232   6.031   1.518   1.114
  891TIP3    H224233   6.125   1.634   1.092
  892TIP3   OH224234   0.488   3.191   0.205
  892TIP3    H124235   0.528   3.105   0.198
  892TIP3    H224236   0.482   3.208   0.299
  893TIP3   OH224237   0.537   2.679   6.759
  893TIP3    H124238   0.522   2.716   6.672
  893TIP3    H224239   0.484   2.599   6.760
  894TIP3   OH224240   4.151   5.548   1.513
  894TIP3    H124241   4.246   5.553   1.524
  894TIP3    H224242   4.118   5.515   1.597
  895TIP3   OH224243   6.606   4.628   7.298
  895TIP3    H124244   6.572   4.694   7.237
  895TIP3    H224245   6.587   4.664   7.385
  896TIP3   OH224246   1.308   3.459   7.240
  896TIP3    H124247   1.328   3.369   7.213
  896TIP3    H224248   1.224   3.478   7.198
  897TIP3   OH224249   2.352   3.722   0.724
  897TIP3    H124250   2.327   3.809   0.755
  897TIP3    H224251   2.390   3.737   0.637
  898TIP3   OH224252   4.830   0.031   0.004
  898TIP3    H124253   4.888   6.856   8.612
  898TIP3    H224254   4.789   0.043   8.538
  899TIP3   OH224255   0.518   0.388   6.620
  899TIP3    H124256   0.528   0.373   6.714
  899TIP3    H224257   0.431   0.429   6.612
  900TIP3   OH224258   0.360   5.239   7.893
  900TIP3    H124259   0.395   5.282   7.815
  900TIP3    H224260   0.322   5.157   7.861
  901TIP3   OH224261   5.680   3.398   1.828
  901TIP3    H124262   5.775   3.401   1.831
  901TIP3    H224263   5.652   3.481   1.867
  902TIP3   OH224264   3.785   1.960   8.102
  902TIP3    H124265   3.817   2.022   8.037
  902TIP3    H224266   3.802   1.874   8.063
  903TIP3   OH224267   1.097   5.482   7.554
  903TIP3    H124268   1.008   5.459   7.583
  903TIP3    H224269   1.127   5.405   7.506
  904TIP3   OH224270   2.370   1.190   8.134
  904TIP3    H124271   2.296   1.161   8.079
  904TIP3    H224272   2.328   1.227   8.212
  905TIP3   OH224273   0.063   6.354   8.442
  905TIP3    H124274   6.900   6.284   8.460
  905TIP3    H224275   0.058   6.410   8.519
  906TIP3   OH224276   6.161   0.713   0.309
  906TIP3    H124277   6.213   0.636   0.284
  906TIP3    H224278   6.217   0.788   0.287
  907TIP3   OH224279   6.171   0.818   1.532
  907TIP3    H124280   6.153   0.756   1.603
  907TIP3    H224281   6.265   0.834   1.537
  908TIP3   OH224282   3.272   2.619   7.334
  908TIP3    H124283   3.190   2.590   7.295
  908TIP3    H224284   3.276   2.574   7.418
  909TIP3   OH224285   1.559   0.364   6.819
  909TIP3    H124286   1.625   0.421   6.857
  909TIP3    H224287   1.564   0.380   6.725
  910TIP3   OH224288   5.983   1.472   7.262
  910TIP3    H124289   5.948   1.386   7.237
  910TIP3    H224290   6.078   1.461   7.262
  911TIP3   OH224291   0.844   0.679   6.886
  911TIP3    H124292   0.776   0.733   6.847
  911TIP3    H224293   0.925   0.728   6.873
  912TIP3   OH224294   4.297   3.396   1.285
  912TIP3    H124295   4.236   3.467   1.266
  912TIP3    H224296   4.343   3.424   1.364
  913TIP3   OH224297   3.763   0.815   7.482
  913TIP3    H124298   3.711   0.821   7.563
  913TIP3    H224299   3.790   0.905   7.465
  914TIP3   OH224300   0.544   6.138   8.599
  914TIP3    H124301   0.596   6.077   8.546
  914TIP3    H224302   0.560   6.112   0.070
  915TIP3   OH224303   5.214   5.360   7.010
  915TIP3    H124304   5.156   5.375   6.936
  915TIP3    H224305   5.303   5.372   6.974
  916TIP3   OH224306   0.311   2.229   6.954
  916TIP3    H124307   0.397   2.266   6.939
  916TIP3    H224308   0.300   2.232   7.049
  917TIP3   OH224309   0.790   1.285   7.771
  917TIP3    H124310   0.746   1.297   7.855
  917TIP3    H224311   0.743   1.343   7.711
  918TIP3   OH224312   0.402   5.236   1.261
  918TIP3    H124313   0.369   5.325   1.275
  918TIP3    H224314   0.497   5.244   1.270
  919TIP3   OH224315   5.751   1.685   0.898
  919TIP3    H124316   5.729   1.704   0.807
  919TIP3    H224317   5.754   1.590   0.903
  920TIP3   OH224318   3.752   2.537   1.460
  920TIP3    H124319   3.839   2.499   1.461
  920TIP3    H224320   3.765   2.628   1.489
  921TIP3   OH224321   1.708   4.241   0.330
  921TIP3    H124322   1.671   4.256   0.417
  921TIP3    H224323   1.802   4.231   0.346
  922TIP3   OH224324   6.384   4.537   8.480
  922TIP3    H124325   6.398   4.631   8.466
  922TIP3    H224326   6.468   4.497   8.457
  923TIP3   OH224327   1.841   6.333   8.270
  923TIP3    H124328   1.891   6.413   8.286
  923TIP3    H224329   1.790   6.320   8.350
  924TIP3   OH224330   4.761   1.119   6.056
  924TIP3    H124331   4.849   1.135   6.089
  924TIP3    H224332   4.740   1.196   6.003
  925TIP3   OH224333   0.977   6.073   1.330
  925TIP3    H124334   0.889   6.039   1.312
  925TIP3    H224335   1.035   6.019   1.278
  926TIP3   OH224336   6.224   5.119   0.703
  926TIP3    H124337   6.200   5.202   0.662
  926TIP3    H224338   6.169   5.054   0.659
  927TIP3   OH224339   0.211   6.535   0.839
  927TIP3    H124340   0.249   6.556   0.924
  927TIP3    H224341   0.287   6.516   0.783
  928TIP3   OH224342   5.067   6.159   0.202
  928TIP3    H124343   5.053   6.242   0.156
  928TIP3    H224344   4.984   6.112   0.193
  929TIP3   OH224345   5.637   0.310   0.361
  929TIP3    H124346   5.553   0.317   0.405
  929TIP3    H224347   5.634   0.226   0.315
  930TIP3   OH224348   6.235   3.589   7.888
  930TIP3    H124349   6.181   3.662   7.916
  930TIP3    H224350   6.282   3.621   7.811
  931TIP3   OH224351   1.701   1.197   0.375
  931TIP3    H124352   1.771   1.209   0.440
  931TIP3    H224353   1.660   1.283   0.368
  932TIP3   OH224354   1.217   4.252   6.612
  932TIP3    H124355   1.210   4.295   6.697
  932TIP3    H224356   1.135   4.273   6.567
  933TIP3   OH224357   4.878   1.331   8.266
  933TIP3    H124358   4.824   1.348   8.343
  933TIP3    H224359   4.822   1.353   8.192
  934TIP3   OH224360   4.780   1.782   1.519
  934TIP3    H124361   4.695   1.803   1.557
  934TIP3    H224362   4.777   1.687   1.504
  935TIP3   OH224363   5.435   6.565   2.345
  935TIP3    H124364   5.362   6.604   2.393
  935TIP3    H224365   5.395   6.513   2.276
  936TIP3   OH224366   1.224   4.930   8.575
  936TIP3    H124367   1.145   4.881   8.552
  936TIP3    H224368   1.276   4.869   0.007
  937TIP3   OH224369   4.366   4.991   8.512
  937TIP3    H124370   4.330   5.080   8.511
  937TIP3    H224371   4.335   4.954   8.595
  938TIP3   OH224372   0.728   5.092   1.815
  938TIP3    H124373   0.695   5.002   1.809
  938TIP3    H224374   0.698   5.123   1.900
  939TIP3   OH224375   5.283   5.581   1.495
  939TIP3    H124376   5.284   5.651   1.560
  939TIP3    H224377   5.351   5.520   1.523
  940TIP3   OH224378   0.808   1.479   7.174
  940TIP3    H124379   0.734   1.484   7.112
  940TIP3    H224380   0.787   1.406   7.231
  941TIP3   OH224381   0.744   4.119   1.970
  941TIP3    H124382   0.685   4.165   2.030
  941TIP3    H224383   0.773   4.042   2.019
  942TIP3   OH224384   1.839   4.755   8.011
  942TIP3    H124385   1.849   4.847   7.985
  942TIP3    H224386   1.923   4.732   8.050
  943TIP3   OH224387   3.423   6.735   1.343
  943TIP3    H124388   3.333   6.767   1.334
  943TIP3    H224389   3.438   6.683   1.265
  944TIP3   OH224390   0.770   1.486   0.326
  944TIP3    H124391   0.747   1.550   0.258
  944TIP3    H224392   0.700   1.422   0.323
  945TIP3   OH224393   4.305   4.145   0.831
  945TIP3    H124394   4.229   4.175   0.881
  945TIP3    H224395   4.280   4.059   0.797
  946TIP3   OH224396   2.358   2.547   0.221
  946TIP3    H124397   2.301   2.601   0.166
  946TIP3    H224398   2.379   2.471   0.166
  947TIP3   OH224399   5.208   3.464   0.861
  947TIP3    H124400   5.206   3.438   0.953
  947TIP3    H224401   5.194   3.559   0.863
  948TIP3   OH224402   1.133   6.855   1.856
  948TIP3    H124403   1.090   6.816   1.932
  948TIP3    H224404   1.061   6.895   1.806
  949TIP3   OH224405   5.849   6.507   2.576
  949TIP3    H124406   5.821   6.589   2.617
  949TIP3    H224407   5.823   6.517   2.484
  950TIP3   OH224408   4.045   5.708   2.290
  950TIP3    H124409   4.092   5.736   2.212
  950TIP3    H224410   3.979   5.776   2.304
  951TIP3   OH224411   2.955   6.834   7.794
  951TIP3    H124412   2.928   6.743   7.803
  951TIP3    H224413   2.934   6.874   7.879
  952TIP3   OH224414   4.790   0.756   7.881
  952TIP3    H124415   4.751   0.694   7.943
  952TIP3    H224416   4.767   0.842   7.916
  953TIP3   OH224417   3.290   5.137   1.110
  953TIP3    H124418   3.199   5.158   1.134
  953TIP3    H224419   3.304   5.049   1.144
  954TIP3   OH224420   4.127   4.691   8.055
  954TIP3    H124421   4.191   4.751   8.016
  954TIP3    H224422   4.043   4.718   8.017
  955TIP3   OH224423   1.311   0.015   7.059
  955TIP3    H124424   1.290   6.822   7.057
  955TIP3    H224425   1.300   0.044   6.969
  956TIP3   OH224426   5.675   5.102   6.815
  956TIP3    H124427   5.670   5.009   6.793
  956TIP3    H224428   5.598   5.118   6.870
  957TIP3   OH224429   1.287   2.618   0.163
  957TIP3    H124430   1.324   2.686   0.220
  957TIP3    H224431   1.350   2.546   0.167
  958TIP3   OH224432   5.819   3.143   0.915
  958TIP3    H124433   5.764   3.103   0.848
  958TIP3    H224434   5.810   3.238   0.900
  959TIP3   OH224435   1.918   0.437   8.051
  959TIP3    H124436   1.921   0.428   7.956
  959TIP3    H224437   1.917   0.532   8.067
  960TIP3   OH224438   0.951   5.218   1.059
  960TIP3    H124439   0.887   5.199   1.127
  960TIP3    H224440   0.918   5.173   0.981
  961TIP3   OH224441   2.944   2.929   1.154
  961TIP3    H124442   2.869   2.927   1.214
  961TIP3    H224443   2.914   2.880   1.077
  962TIP3   OH224444   6.578   5.297   7.976
  962TIP3    H124445   6.604   5.265   8.062
  962TIP3    H224446   6.483   5.309   7.982
  963TIP3   OH224447   5.221   4.998   8.558
  963TIP3    H124448   5.271   4.928   8.600
  963TIP3    H224449   5.131   4.983   8.585
  964TIP3   OH224450   0.586   3.866   1.503
  964TIP3    H124451   0.574   3.823   1.588
  964TIP3    H224452   0.589   3.795   1.440
  965TIP3   OH224453   1.137   2.742   1.080
  965TIP3    H124454   1.182   2.709   1.002
  965TIP3    H224455   1.144   2.838   1.072
  966TIP3   OH224456   3.173   1.465   8.086
  966TIP3    H124457   3.091   1.436   8.126
  966TIP3    H224458   3.152   1.551   8.049
  967TIP3   OH224459   6.339   4.658   8.109
  967TIP3    H124460   6.432   4.637   8.117
  967TIP3    H224461   6.318   4.637   8.018
  968TIP3   OH224462   0.731   5.302   7.771
  968TIP3    H124463   0.668   5.342   7.712
  968TIP3    H224464   0.778   5.238   7.717
  969TIP3   OH224465   2.363   1.755   0.292
  969TIP3    H124466   2.309   1.702   0.232
  969TIP3    H224467   2.301   1.787   0.358
  970TIP3   OH224468   6.895   5.785   7.446
  970TIP3    H124469   0.060   5.751   7.506
  970TIP3    H224470   6.888   5.719   7.377
  971TIP3   OH224471   0.026   6.491   0.569
  971TIP3    H124472   0.100   6.433   0.583
  971TIP3    H224473   6.851   6.446   0.609
  972TIP3   OH224474   0.667   4.038   0.213
  972TIP3    H124475   0.662   3.966   0.150
  972TIP3    H224476   0.760   4.064   0.213
  973TIP3   OH224477   4.264   3.763   8.060
  973TIP3    H124478   4.227   3.683   8.098
  973TIP3    H224479   4.256   3.828   8.130
  974TIP3   OH224480   4.665   3.005   0.753
  974TIP3    H124481   4.605   3.075   0.778
  974TIP3    H224482   4.670   3.010   0.658
  975TIP3   OH224483   3.967   6.748   7.142
  975TIP3    H124484   4.017   6.709   7.071
  975TIP3    H224485   4.015   6.827   7.165
  976TIP3   OH224486   4.663   3.793   1.481
  976TIP3    H124487   4.614   3.835   1.551
  976TIP3    H224488   4.737   3.752   1.525
  977TIP3   OH224489   4.402   3.884   0.672
  977TIP3    H124490   4.452   3.841   0.603
  977TIP3    H224491   4.457   3.876   0.750
  978TIP3   OH224492   3.466   5.218   6.742
  978TIP3    H124493   3.401   5.223   6.671
  978TIP3    H224494   3.500   5.129   6.736
  979TIP3   OH224495   0.627   2.758   1.921
  979TIP3    H124496   0.706   2.706   1.930
  979TIP3    H224497   0.556   2.696   1.940
  980TIP3   OH224498   2.250   1.041   2.324
  980TIP3    H124499   2.160   1.008   2.322
  980TIP3    H224500   2.241   1.133   2.348
  981TIP3   OH224501   6.862   5.935   0.766
  981TIP3    H124502   6.790   5.895   0.815
  981TIP3    H224503   6.898   6.001   0.826
  982TIP3   OH224504   6.772   3.675   0.167
  982TIP3    H124505   6.821   3.726   0.103
  982TIP3    H224506   6.839   3.627   0.216
  983TIP3   OH224507   0.506   5.119   7.227
  983TIP3    H124508   0.593   5.088   7.204
  983TIP3    H224509   0.496   5.201   7.178
  984TIP3   OH224510   3.450   4.991   8.408
  984TIP3    H124511   3.508   5.066   8.395
  984TIP3    H224512   3.378   5.026   8.460
  985TIP3   OH224513   3.345   0.665   7.132
  985TIP3    H124514   3.365   0.615   7.053
  985TIP3    H224515   3.258   0.701   7.117
  986TIP3   OH224516   3.698   2.056   7.366
  986TIP3    H124517   3.684   2.088   7.277
  986TIP3    H224518   3.792   2.060   7.378
  987TIP3   OH224519   6.795   2.554   1.212
  987TIP3    H124520   6.822   2.610   1.285
  987TIP3    H224521   6.803   2.465   1.246
  988TIP3   OH224522   6.402   0.084   7.662
  988TIP3    H124523   6.450   0.002   7.651
  988TIP3    H224524   6.318   0.059   7.699
  989TIP3   OH224525   2.872   1.023   0.995
  989TIP3    H124526   2.858   1.092   0.930
  989TIP3    H224527   2.904   1.070   1.073
  990TIP3   OH224528   4.481   5.818   6.626
  990TIP3    H124529   4.412   5.850   6.684
  990TIP3    H224530   4.442   5.742   6.583
  991TIP3   OH224531   1.606   0.725   7.432
  991TIP3    H124532   1.603   0.813   7.470
  991TIP3    H224533   1.551   0.672   7.490
  992TIP3   OH224534   1.920   4.430   1.265
  992TIP3    H124535   1.939   4.522   1.284
  992TIP3    H224536   1.993   4.382   1.304
  993TIP3   OH224537   0.721   4.440   0.043
  993TIP3    H124538   0.716   4.360   0.095
  993TIP3    H224539   0.631   4.471   0.036
  994TIP3   OH224540   3.950   3.331   7.990
  994TIP3    H124541   3.903   3.343   8.072
  994TIP3    H224542   3.926   3.244   7.960
  995TIP3   OH224543   3.631   1.482   0.504
  995TIP3    H124544   3.681   1.401   0.506
  995TIP3    H224545   3.665   1.529   0.427
  996TIP3   OH224546   5.789   4.942   2.040
  996TIP3    H124547   5.806   4.889   1.963
  996TIP3    H224548   5.694   4.942   2.050
  997TIP3   OH224549   1.266   1.109   0.091
  997TIP3    H124550   1.195   1.143   0.145
  997TIP3    H224551   1.271   1.170   0.017
  998TIP3   OH224552   6.846   3.105   0.153
  998TIP3    H124553   6.898   3.101   0.233
  998TIP3    H224554   6.799   3.189   0.159
  999TIP3   OH224555   0.508   6.429   5.865
  999TIP3    H124556   0.437   6.406   5.925
  999TIP3    H224557   0.563   6.489   5.915
 1000TIP3   OH224558   2.131   3.017   6.674
 1000TIP3    H124559   2.220   3.025   6.707
 1000TIP3    H224560   2.141   3.019   6.578
 1001TIP3   OH224561   2.837   4.616   8.043
 1001TIP3    H124562   2.861   4.601   8.134
 1001TIP3    H224563   2.803   4.705   8.042
 1002TIP3   OH224564   3.190   5.769   7.779
 1002TIP3    H124565   3.257   5.830   7.750
 1002TIP3    H224566   3.233   5.683   7.777
 1003TIP3   OH224567   1.226   1.144   6.976
 1003TIP3    H124568   1.219   1.224   6.925
 1003TIP3    H224569   1.198   1.074   6.916
 1004TIP3   OH224570   1.781   2.600   0.571
 1004TIP3    H124571   1.749   2.682   0.609
 1004TIP3    H224572   1.844   2.566   0.635
 1005TIP3   OH224573   2.290   6.297   2.071
 1005TIP3    H124574   2.266   6.274   2.161
 1005TIP3    H224575   2.386   6.298   2.072
 1006TIP3   OH224576   4.879   3.579   8.507
 1006TIP3    H124577   4.888   3.673   8.493
 1006TIP3    H224578   4.918   3.563   8.592
 1007TIP3   OH224579   2.700   6.583   0.297
 1007TIP3    H124580   2.741   6.625   0.222
 1007TIP3    H224581   2.608   6.575   0.274
 1008TIP3   OH224582   4.658   1.020   1.433
 1008TIP3    H124583   4.573   0.984   1.409
 1008TIP3    H224584   4.715   0.944   1.443
 1009TIP3   OH224585   3.626   6.472   7.782
 1009TIP3    H124586   3.548   6.526   7.772
 1009TIP3    H224587   3.592   6.383   7.794
 1010TIP3   OH224588   0.357   1.370   0.077
 1010TIP3    H124589   0.345   1.297   0.017
 1010TIP3    H224590   0.436   1.348   0.127
 1011TIP3   OH224591   2.381   3.041   1.679
 1011TIP3    H124592   2.306   3.074   1.727
 1011TIP3    H224593   2.440   3.007   1.746
 1012TIP3   OH224594   0.458   6.305   1.342
 1012TIP3    H124595   0.511   6.325   1.264
 1012TIP3    H224596   0.369   6.331   1.317
 1013TIP3   OH224597   6.549   0.857   7.006
 1013TIP3    H124598   6.470   0.805   6.994
 1013TIP3    H224599   6.562   0.859   7.101
 1014TIP3   OH224600   2.046   2.792   7.430
 1014TIP3    H124601   2.038   2.725   7.363
 1014TIP3    H224602   2.120   2.845   7.403
 1015TIP3   OH224603   0.818   6.369   6.280
 1015TIP3    H124604   0.842   6.409   6.196
 1015TIP3    H224605   0.762   6.295   6.256
 1016TIP3   OH224606   5.419   3.739   1.470
 1016TIP3    H124607   5.446   3.776   1.386
 1016TIP3    H224608   5.406   3.815   1.526
 1017TIP3   OH224609   4.234   6.805   7.371
 1017TIP3    H124610   4.304   6.783   7.431
 1017TIP3    H224611   4.154   6.801   7.424
 1018TIP3   OH224612   6.844   5.186   1.956
 1018TIP3    H124613   6.772   5.149   1.905
 1018TIP3    H224614   0.013   5.121   1.951
 1019TIP3   OH224615   0.814   5.598   7.826
 1019TIP3    H124616   0.890   5.542   7.838
 1019TIP3    H224617   0.741   5.537   7.814
 1020TIP3   OH224618   5.847   0.433   1.557
 1020TIP3    H124619   5.849   0.443   1.462
 1020TIP3    H224620   5.939   0.432   1.583
 1021TIP3   OH224621   1.908   4.143   7.440
 1021TIP3    H124622   1.895   4.172   7.350
 1021TIP3    H224623   1.912   4.048   7.435
 1022TIP3   OH224624   4.858   0.347   6.981
 1022TIP3    H124625   4.878   0.441   6.979
 1022TIP3    H224626   4.887   0.318   7.067
 1023TIP3   OH224627   6.317   1.902   7.084
 1023TIP3    H124628   6.367   1.888   7.004
 1023TIP3    H224629   6.330   1.823   7.136
 1024TIP3   OH224630   0.189   5.854   1.590
 1024TIP3    H124631   0.272   5.891   1.622
 1024TIP3    H224632   0.127   5.926   1.598
 1025TIP3   OH224633   1.579   1.995   7.379
 1025TIP3    H124634   1.484   1.994   7.368
 1025TIP3    H224635   1.595   1.943   7.458
 1026TIP3   OH224636   5.672   5.657   1.780
 1026TIP3    H124637   5.680   5.667   1.874
 1026TIP3    H224638   5.616   5.730   1.752
 1027TIP3   OH224639   2.413   5.935   8.181
 1027TIP3    H124640   2.322   5.940   8.212
 1027TIP3    H224641   2.463   5.909   8.258
 1028TIP3   OH224642   6.084   4.186   7.707
 1028TIP3    H124643   6.118   4.120   7.647
 1028TIP3    H224644   6.134   4.265   7.686
 1029TIP3   OH224645   0.064   5.604   0.804
 1029TIP3    H124646   0.100   5.522   0.836
 1029TIP3    H224647   0.028   5.647   0.882
 1030TIP3   OH224648   6.386   0.141   6.681
 1030TIP3    H124649   6.471   0.101   6.697
 1030TIP3    H224650   6.399   0.196   6.604
 1031TIP3   OH224651   5.234   3.342   8.135
 1031TIP3    H124652   5.183   3.283   8.189
 1031TIP3    H224653   5.226   3.308   8.046
 1032TIP3   OH224654   5.608   3.102   7.045
 1032TIP3    H124655   5.536   3.134   6.989
 1032TIP3    H224656   5.584   3.012   7.064
 1033TIP3   OH224657   5.955   3.508   1.953
 1033TIP3    H124658   5.876   3.554   1.926
 1033TIP3    H224659   6.027   3.568   1.930
 1034TIP3   OH224660   5.245   1.911   7.777
 1034TIP3    H124661   5.238   1.830   7.827
 1034TIP3    H224662   5.217   1.979   7.838
 1035TIP3   OH224663   3.248   1.686   7.000
 1035TIP3    H124664   3.175   1.746   7.017
 1035TIP3    H224665   3.223   1.641   6.919
 1036TIP3   OH224666   4.900   6.242   8.086
 1036TIP3    H124667   4.978   6.295   8.104
 1036TIP3    H224668   4.827   6.303   8.091
 1037TIP3   OH224669   0.574   2.896   0.178
 1037TIP3    H124670   0.603   2.952   0.105
 1037TIP3    H224671   0.617   2.812   0.163
 1038TIP3   OH224672   6.707   4.933   6.288
 1038TIP3    H124673   6.779   4.994   6.271
 1038TIP3    H224674   6.668   4.964   6.369
 1039TIP3   OH224675   0.377   2.887   7.472
 1039TIP3    H124676   0.364   2.981   7.488
 1039TIP3    H224677   0.358   2.876   7.379
 1040TIP3   OH224678   3.318   3.320   1.294
 1040TIP3    H124679   3.343   3.369   1.215
 1040TIP3    H224680   3.253   3.375   1.337
 1041TIP3   OH224681   0.970   0.305   2.358
 1041TIP3    H124682   0.956   0.305   2.263
 1041TIP3    H224683   1.021   0.225   2.374
 1042TIP3   OH224684   2.857   2.852   8.042
 1042TIP3    H124685   2.936   2.881   7.996
 1042TIP3    H224686   2.809   2.802   7.976
 1043TIP3   OH224687   5.299   4.487   1.448
 1043TIP3    H124688   5.238   4.551   1.412
 1043TIP3    H224689   5.273   4.404   1.410
 1044TIP3   OH224690   5.476   3.664   7.564
 1044TIP3    H124691   5.439   3.590   7.611
 1044TIP3    H224692   5.539   3.625   7.503
 1045TIP3   OH224693   1.574   2.636   8.577
 1045TIP3    H124694   1.542   2.725   8.586
 1045TIP3    H224695   1.598   2.610   0.047
 1046TIP3   OH224696   5.506   1.654   7.119
 1046TIP3    H124697   5.493   1.586   7.054
 1046TIP3    H224698   5.532   1.731   7.068
 1047TIP3   OH224699   6.627   3.451   1.014
 1047TIP3    H124700   6.550   3.444   0.957
 1047TIP3    H224701   6.684   3.379   0.987
 1048TIP3   OH224702   6.498   5.586   0.409
 1048TIP3    H124703   6.477   5.518   0.472
 1048TIP3    H224704   6.593   5.598   0.417
 1049TIP3   OH224705   5.019   1.468   0.057
 1049TIP3    H124706   4.947   1.527   0.078
 1049TIP3    H224707   5.071   1.465   0.137
 1050TIP3   OH224708   4.092   1.170   0.545
 1050TIP3    H124709   4.057   1.244   0.594
 1050TIP3    H224710   4.024   1.103   0.549
 1051TIP3   OH224711   3.832   0.251   1.313
 1051TIP3    H124712   3.859   0.196   1.387
 1051TIP3    H224713   3.915   0.280   1.273
 1052TIP3   OH224714   4.269   0.885   0.850
 1052TIP3    H124715   4.224   0.969   0.860
 1052TIP3    H224716   4.314   0.893   0.765
 1053TIP3   OH224717   3.594   6.383   7.048
 1053TIP3    H124718   3.680   6.426   7.055
 1053TIP3    H224719   3.533   6.455   7.029
 1054TIP3   OH224720   4.461   1.545   1.126
 1054TIP3    H124721   4.546   1.554   1.082
 1054TIP3    H224722   4.400   1.593   1.070
 1055TIP3   OH224723   1.587   5.500   7.818
 1055TIP3    H124724   1.501   5.460   7.811
 1055TIP3    H224725   1.593   5.557   7.741
 1056TIP3   OH224726   4.687   0.535   7.984
 1056TIP3    H124727   4.629   0.481   8.038
 1056TIP3    H224728   4.671   0.507   7.894
 1057TIP3   OH224729   6.662   6.387   1.703
 1057TIP3    H124730   6.708   6.468   1.722
 1057TIP3    H224731   6.572   6.413   1.685
 1058TIP3   OH224732   0.208   3.850   8.172
 1058TIP3    H124733   0.180   3.928   8.124
 1058TIP3    H224734   0.298   3.869   8.199
 1059TIP3   OH224735   6.614   3.253   0.571
 1059TIP3    H124736   6.583   3.215   0.489
 1059TIP3    H224737   6.674   3.322   0.543
 1060TIP3   OH224738   3.314   6.424   8.244
 1060TIP3    H124739   3.329   6.424   8.338
 1060TIP3    H224740   3.363   6.500   8.212
 1061TIP3   OH224741   0.951   0.412   0.748
 1061TIP3    H124742   0.976   0.435   0.659
 1061TIP3    H224743   0.917   0.494   0.784
 1062TIP3   OH224744   3.883   0.235   7.589
 1062TIP3    H124745   3.928   0.173   7.648
 1062TIP3    H224746   3.834   0.292   7.648
 1063TIP3   OH224747   4.465   6.330   7.057
 1063TIP3    H124748   4.398   6.386   7.097
 1063TIP3    H224749   4.494   6.272   7.128
 1064TIP3   OH224750   3.625   6.470   8.111
 1064TIP3    H124751   3.655   6.382   8.132
 1064TIP3    H224752   3.700   6.512   8.069
 1065TIP3   OH224753   6.556   4.777   7.627
 1065TIP3    H124754   6.564   4.862   7.582
 1065TIP3    H224755   6.476   4.739   7.591
 1066TIP3   OH224756   5.298   5.986   0.706
 1066TIP3    H124757   5.271   6.018   0.620
 1066TIP3    H224758   5.390   5.963   0.695
 1067TIP3   OH224759   2.325   3.076   0.993
 1067TIP3    H124760   2.360   2.992   1.023
 1067TIP3    H224761   2.339   3.076   0.898
 1068TIP3   OH224762   1.209   3.847   0.473
 1068TIP3    H124763   1.257   3.924   0.503
 1068TIP3    H224764   1.128   3.881   0.436
 1069TIP3   OH224765   5.377   3.267   8.488
 1069TIP3    H124766   5.346   3.357   8.486
 1069TIP3    H224767   5.425   3.260   8.570
 1070TIP3   OH224768   6.416   1.656   7.949
 1070TIP3    H124769   6.467   1.607   7.884
 1070TIP3    H224770   6.341   1.690   7.901
 1071TIP3   OH224771   4.347   2.443   8.473
 1071TIP3    H124772   4.277   2.380   8.455
 1071TIP3    H224773   4.342   2.459   8.568
 1072TIP3   OH224774   6.887   3.480   7.491
 1072TIP3    H124775   6.810   3.535   7.477
 1072TIP3    H224776   6.854   3.390   7.481
 1073TIP3   OH224777   3.371   1.345   1.156
 1073TIP3    H124778   3.417   1.261   1.160
 1073TIP3    H224779   3.414   1.393   1.086
 1074TIP3   OH224780   3.298   2.837   6.475
 1074TIP3    H124781   3.296   2.751   6.516
 1074TIP3    H224782   3.383   2.873   6.498
 1075TIP3   OH224783   6.120   5.124   0.286
 1075TIP3    H124784   6.214   5.113   0.270
 1075TIP3    H224785   6.096   5.200   0.233
 1076TIP3   OH224786   0.410   1.985   7.758
 1076TIP3    H124787   0.342   1.994   7.825
 1076TIP3    H224788   0.488   1.958   7.806
 1077TIP3   OH224789   0.342   0.503   0.239
 1077TIP3    H124790   0.247   0.496   0.239
 1077TIP3    H224791   0.372   0.425   0.192
 1078TIP3   OH224792   2.912   5.864   7.333
 1078TIP3    H124793   2.873   5.792   7.283
 1078TIP3    H224794   2.962   5.820   7.402
 1079TIP3   OH224795   5.467   6.142   1.585
 1079TIP3    H124796   5.389   6.144   1.641
 1079TIP3    H224797   5.530   6.198   1.629
 1080TIP3   OH224798   6.368   3.085   8.396
 1080TIP3    H124799   6.295   3.093   8.334
 1080TIP3    H224800   6.417   3.166   8.386
 1081TIP3   OH224801   1.834   2.901   8.299
 1081TIP3    H124802   1.803   2.813   8.322
 1081TIP3    H224803   1.844   2.945   8.383
 1082TIP3   OH224804   4.797   1.555   7.307
 1082TIP3    H124805   4.715   1.579   7.265
 1082TIP3    H224806   4.837   1.638   7.331
 1083TIP3   OH224807   5.700   2.453   8.541
 1083TIP3    H124808   5.643   2.527   8.517
 1083TIP3    H224809   5.785   2.494   8.561
 1084TIP3   OH224810   5.163   5.220   7.258
 1084TIP3    H124811   5.212   5.139   7.274
 1084TIP3    H224812   5.183   5.242   7.167
 1085TIP3   OH224813   4.391   6.438   0.030
 1085TIP3    H124814   4.351   6.384   8.581
 1085TIP3    H224815   4.462   6.484   8.604
 1086TIP3   OH224816   6.350   5.813   0.291
 1086TIP3    H124817   6.383   5.729   0.325
 1086TIP3    H224818   6.423   5.848   0.239
 1087TIP3   OH224819   1.592   6.065   0.939
 1087TIP3    H124820   1.556   5.988   0.981
 1087TIP3    H224821   1.589   6.133   1.006
 1088TIP3   OH224822   6.677   0.522   1.916
 1088TIP3    H124823   6.764   0.484   1.901
 1088TIP3    H224824   6.647   0.481   1.997
 1089TIP3   OH224825   6.744   6.810   7.973
 1089TIP3    H124826   6.671   6.790   7.915
 1089TIP3    H224827   6.707   6.806   8.061
 1090TIP3   OH224828   5.792   3.857   1.063
 1090TIP3    H124829   5.803   3.814   0.978
 1090TIP3    H224830   5.857   3.816   1.120
 1091TIP3   OH224831   3.292   5.228   1.953
 1091TIP3    H124832   3.367   5.173   1.928
 1091TIP3    H224833   3.296   5.231   2.048
 1092TIP3   OH224834   5.885   5.109   6.338
 1092TIP3    H124835   5.856   5.018   6.345
 1092TIP3    H224836   5.859   5.148   6.422
 1093TIP3   OH224837   0.124   5.303   0.582
 1093TIP3    H124838   0.141   5.333   0.492
 1093TIP3    H224839   0.195   5.341   0.633
 1094TIP3   OH224840   2.767   4.335   2.093
 1094TIP3    H124841   2.756   4.414   2.040
 1094TIP3    H224842   2.686   4.330   2.145
 1095TIP3   OH224843   2.224   5.085   2.032
 1095TIP3    H124844   2.187   5.086   1.944
 1095TIP3    H224845   2.314   5.054   2.021
 1096TIP3   OH224846   5.332   6.579   7.571
 1096TIP3    H124847   5.383   6.538   7.640
 1096TIP3    H224848   5.388   6.576   7.493
 1097TIP3   OH224849   6.533   3.607   1.480
 1097TIP3    H124850   6.530   3.551   1.558
 1097TIP3    H224851   6.528   3.546   1.407
 1098TIP3   OH224852   0.639   1.401   8.523
 1098TIP3    H124853   0.718   1.435   8.565
 1098TIP3    H224854   0.570   1.459   8.553
 1099TIP3   OH224855   0.189   3.887   0.131
 1099TIP3    H124856   0.213   3.971   0.092
 1099TIP3    H224857   0.149   3.838   0.059
 1100TIP3   OH224858   5.931   4.750   7.237
 1100TIP3    H124859   5.835   4.747   7.248
 1100TIP3    H224860   5.965   4.738   7.326
 1101TIP3   OH224861   2.344   0.979   1.215
 1101TIP3    H124862   2.312   1.066   1.242
 1101TIP3    H224863   2.429   0.996   1.176
 1102TIP3   OH224864   4.273   1.125   1.240
 1102TIP3    H124865   4.354   1.086   1.271
 1102TIP3    H224866   4.293   1.157   1.152
 1103TIP3   OH224867   1.435   6.861   7.315
 1103TIP3    H124868   1.353   6.830   7.351
 1103TIP3    H224869   1.414   6.885   7.224
 1104TIP3   OH224870   5.451   2.080   0.381
 1104TIP3    H124871   5.422   2.172   0.375
 1104TIP3    H224872   5.376   2.030   0.346
 1105TIP3   OH224873   1.517   6.352   7.326
 1105TIP3    H124874   1.484   6.331   7.238
 1105TIP3    H224875   1.603   6.312   7.329
 1106TIP3   OH224876   4.317   0.774   7.122
 1106TIP3    H124877   4.301   0.685   7.091
 1106TIP3    H224878   4.276   0.831   7.057
 1107TIP3   OH224879   1.716   4.774   2.504
 1107TIP3    H124880   1.711   4.866   2.480
 1107TIP3    H224881   1.627   4.741   2.493
 1108TIP3   OH224882   5.084   0.007   1.841
 1108TIP3    H124883   5.141   0.021   1.765
 1108TIP3    H224884   5.118   0.066   1.908
 1109TIP3   OH224885   2.837   4.777   7.434
 1109TIP3    H124886   2.812   4.728   7.356
 1109TIP3    H224887   2.932   4.784   7.429
 1110TIP3   OH224888   5.537   3.487   0.076
 1110TIP3    H124889   5.600   3.415   0.067
 1110TIP3    H224890   5.559   3.546   0.003
 1111TIP3   OH224891   0.761   6.794   8.128
 1111TIP3    H124892   0.844   6.746   8.130
 1111TIP3    H224893   0.695   6.728   8.107
 1112TIP3   OH224894   2.141   4.937   2.256
 1112TIP3    H124895   2.062   4.893   2.224
 1112TIP3    H224896   2.191   4.956   2.177
 1113TIP3   OH224897   6.668   3.135   6.489
 1113TIP3    H124898   6.743   3.142   6.430
 1113TIP3    H224899   6.703   3.091   6.567
 1114TIP3   OH224900   5.632   4.046   8.252
 1114TIP3    H124901   5.666   3.960   8.228
 1114TIP3    H224902   5.695   4.079   8.316
 1115TIP3   OH224903   0.519   1.858   1.227
 1115TIP3    H124904   0.437   1.860   1.179
 1115TIP3    H224905   0.509   1.925   1.295
 1116TIP3   OH224906   3.025   0.615   7.414
 1116TIP3    H124907   3.003   0.701   7.379
 1116TIP3    H224908   3.066   0.568   7.341
 1117TIP3   OH224909   2.307   3.666   8.480
 1117TIP3    H124910   2.297   3.750   8.436
 1117TIP3    H224911   2.249   3.671   8.556
 1118TIP3   OH224912   4.266   2.036   6.243
 1118TIP3    H124913   4.194   2.035   6.307
 1118TIP3    H224914   4.288   1.943   6.230
 1119TIP3   OH224915   0.661   3.259   0.785
 1119TIP3    H124916   0.707   3.261   0.701
 1119TIP3    H224917   0.589   3.197   0.771
 1120TIP3   OH224918   6.774   2.852   0.122
 1120TIP3    H124919   6.727   2.869   0.040
 1120TIP3    H224920   6.777   2.937   0.166
 1121TIP3   OH224921   6.764   6.823   0.617
 1121TIP3    H124922   6.773   6.745   0.672
 1121TIP3    H224923   6.768   6.896   0.678
 1122TIP3   OH224924   1.013   5.507   7.194
 1122TIP3    H124925   1.096   5.479   7.156
 1122TIP3    H224926   1.035   5.586   7.245
 1123TIP3   OH224927   3.475   2.038   1.241
 1123TIP3    H124928   3.491   2.114   1.184
 1123TIP3    H224929   3.557   1.989   1.239
 1124TIP3   OH224930   1.103   2.108   0.300
 1124TIP3    H124931   1.093   2.086   0.207
 1124TIP3    H224932   1.172   2.174   0.302
 1125TIP3   OH224933   3.334   2.590   2.077
 1125TIP3    H124934   3.272   2.588   2.150
 1125TIP3    H224935   3.351   2.498   2.057
 1126TIP3   OH224936   4.368   6.492   7.574
 1126TIP3    H124937   4.406   6.407   7.549
 1126TIP3    H224938   4.274   6.475   7.579
 1127TIP3   OH224939   5.382   4.767   6.969
 1127TIP3    H124940   5.377   4.688   7.023
 1127TIP3    H224941   5.293   4.777   6.934
 1128TIP3   OH224942   1.774   4.782   1.081
 1128TIP3    H124943   1.730   4.699   1.062
 1128TIP3    H224944   1.735   4.811   1.163
 1129TIP3   OH224945   3.274   0.395   0.025
 1129TIP3    H124946   3.207   0.328   0.008
 1129TIP3    H224947   3.319   0.405   8.560
 1130TIP3   OH224948   3.553   6.722   2.443
 1130TIP3    H124949   3.594   6.686   2.521
 1130TIP3    H224950   3.581   6.813   2.441
 1131TIP3   OH224951   4.880   0.307   8.397
 1131TIP3    H124952   4.817   0.364   8.352
 1131TIP3    H224953   4.924   0.261   8.326
 1132TIP3   OH224954   0.071   1.378   6.962
 1132TIP3    H124955   0.077   1.462   7.006
 1132TIP3    H224956   0.096   1.314   7.029
 1133TIP3   OH224957   0.014   2.509   0.086
 1133TIP3    H124958   6.882   2.480   0.001
 1133TIP3    H224959   6.871   2.451   0.149
 1134TIP3   OH224960   2.124   4.298   0.778
 1134TIP3    H124961   2.099   4.278   0.869
 1134TIP3    H224962   2.057   4.360   0.748
 1135TIP3   OH224963   0.855   3.649   1.436
 1135TIP3    H124964   0.777   3.605   1.404
 1135TIP3    H224965   0.922   3.580   1.440
 1136TIP3   OH224966   6.840   0.993   0.747
 1136TIP3    H124967   0.031   0.980   0.721
 1136TIP3    H224968   6.790   0.978   0.666
 1137TIP3   OH224969   1.452   3.496   7.779
 1137TIP3    H124970   1.450   3.588   7.806
 1137TIP3    H224971   1.360   3.471   7.769
 1138TIP3   OH224972   2.467   1.968   6.592
 1138TIP3    H124973   2.466   2.051   6.639
 1138TIP3    H224974   2.398   1.978   6.525
 1139TIP3   OH224975   3.458   1.542   6.848
 1139TIP3    H124976   3.417   1.481   6.909
 1139TIP3    H224977   3.454   1.499   6.763
 1140TIP3   OH224978   3.244   0.854   2.401
 1140TIP3    H124979   3.335   0.834   2.379
 1140TIP3    H224980   3.204   0.879   2.317
 1141TIP3   OH224981   1.733   6.208   7.384
 1141TIP3    H124982   1.817   6.208   7.432
 1141TIP3    H224983   1.705   6.117   7.386
 1142TIP3   OH224984   2.312   4.954   1.502
 1142TIP3    H124985   2.245   4.975   1.567
 1142TIP3    H224986   2.393   4.986   1.541
 1143TIP3   OH224987   2.525   3.838   0.172
 1143TIP3    H124988   2.492   3.845   0.262
 1143TIP3    H224989   2.617   3.866   0.178
 1144TIP3   OH224990   2.278   0.675   1.652
 1144TIP3    H124991   2.310   0.760   1.621
 1144TIP3    H224992   2.186   0.673   1.627
 1145TIP3   OH224993   5.966   1.777   7.306
 1145TIP3    H124994   5.938   1.687   7.291
 1145TIP3    H224995   6.014   1.774   7.389
 1146TIP3   OH224996   2.945   1.329   0.492
 1146TIP3    H124997   2.868   1.356   0.442
 1146TIP3    H224998   2.996   1.275   0.432
 1147TIP3   OH224999   0.333   1.776   0.723
 1147TIP3    H125000   0.311   1.686   0.698
 1147TIP3    H225001   0.322   1.827   0.643
 1148TIP3   OH225002   4.090   5.705   8.072
 1148TIP3    H125003   4.125   5.707   8.161
 1148TIP3    H225004   4.142   5.769   8.025
 1149TIP3   OH225005   2.600   5.863   6.968
 1149TIP3    H125006   2.577   5.787   7.021
 1149TIP3    H225007   2.589   5.938   7.028
 1150TIP3   OH225008   1.449   1.929   6.171
 1150TIP3    H125009   1.490   1.890   6.249
 1150TIP3    H225010   1.431   1.854   6.114
 1151TIP3   OH225011   1.538   3.610   7.146
 1151TIP3    H125012   1.458   3.571   7.182
 1151TIP3    H225013   1.507   3.666   7.075
 1152TIP3   OH225014   0.658   1.609   8.051
 1152TIP3    H125015   0.741   1.574   8.018
 1152TIP3    H225016   0.669   1.612   8.146
 1153TIP3   OH225017   5.721   2.871   2.331
 1153TIP3    H125018   5.710   2.954   2.285
 1153TIP3    H225019   5.689   2.888   2.420
 1154TIP3   OH225020   1.715   1.491   0.155
 1154TIP3    H125021   1.718   1.478   0.250
 1154TIP3    H225022   1.769   1.420   0.120
 1155TIP3   OH225023   4.184   2.266   1.407
 1155TIP3    H125024   4.223   2.350   1.382
 1155TIP3    H225025   4.144   2.233   1.327
 1156TIP3   OH225026   2.184   0.038   8.159
 1156TIP3    H125027   2.148   0.052   8.071
 1156TIP3    H225028   2.263   0.092   8.162
 1157TIP3   OH225029   2.168   0.862   0.038
 1157TIP3    H125030   2.196   0.808   8.584
 1157TIP3    H225031   2.212   0.823   0.114
 1158TIP3   OH225032   2.247   0.519   1.312
 1158TIP3    H125033   2.178   0.577   1.345
 1158TIP3    H225034   2.326   0.573   1.315
 1159TIP3   OH225035   5.584   0.601   1.507
 1159TIP3    H125036   5.594   0.531   1.442
 1159TIP3    H225037   5.657   0.587   1.567
 1160TIP3   OH225038   5.147   5.762   6.567
 1160TIP3    H125039   5.107   5.713   6.495
 1160TIP3    H225040   5.238   5.733   6.570
 1161TIP3   OH225041   0.815   3.479   0.284
 1161TIP3    H125042   0.891   3.489   0.228
 1161TIP3    H225043   0.829   3.543   0.355
 1162TIP3   OH225044   4.496   0.231   0.724
 1162TIP3    H125045   4.513   0.137   0.731
 1162TIP3    H225046   4.500   0.249   0.630
 1163TIP3   OH225047   2.092   2.548   1.364
 1163TIP3    H125048   2.106   2.491   1.439
 1163TIP3    H225049   2.088   2.488   1.289
 1164TIP3   OH225050   2.530   3.828   0.964
 1164TIP3    H125051   2.545   3.899   0.902
 1164TIP3    H225052   2.494   3.756   0.912
 1165TIP3   OH225053   4.474   0.134   6.093
 1165TIP3    H125054   4.429   0.055   6.121
 1165TIP3    H225055   4.536   0.105   6.027
 1166TIP3   OH225056   5.491   0.723   8.529
 1166TIP3    H125057   5.575   0.708   8.486
 1166TIP3    H225058   5.468   0.639   8.568
 1167TIP3   OH225059   3.492   2.132   0.826
 1167TIP3    H125060   3.494   2.177   0.911
 1167TIP3    H225061   3.400   2.114   0.810
 1168TIP3   OH225062   6.449   3.988   7.190
 1168TIP3    H125063   6.434   4.068   7.240
 1168TIP3    H225064   6.545   3.980   7.185
 1169TIP3   OH225065   1.131   5.141   8.342
 1169TIP3    H125066   1.211   5.170   8.385
 1169TIP3    H225067   1.070   5.214   8.353
 1170TIP3   OH225068   5.820   3.654   7.236
 1170TIP3    H125069   5.847   3.744   7.216
 1170TIP3    H225070   5.812   3.612   7.151
 1171TIP3   OH225071   1.923   6.630   1.250
 1171TIP3    H125072   1.904   6.550   1.201
 1171TIP3    H225073   2.018   6.642   1.240
 1172TIP3   OH225074   6.313   1.071   8.549
 1172TIP3    H125075   6.222   1.097   8.530
 1172TIP3    H225076   6.366   1.144   8.517
 1173TIP3   OH225077   6.732   2.715   2.431
 1173TIP3    H125078   6.817   2.671   2.431
 1173TIP3    H225079   6.753   2.807   2.450
 1174TIP3   OH225080   4.173   5.410   8.010
 1174TIP3    H125081   4.135   5.331   7.972
 1174TIP3    H225082   4.104   5.446   8.066
 1175TIP3   OH225083   6.067   2.346   6.391
 1175TIP3    H125084   5.975   2.326   6.373
 1175TIP3    H225085   6.102   2.374   6.307
 1176TIP3   OH225086   6.087   2.504   7.915
 1176TIP3    H125087   6.164   2.497   7.860
 1176TIP3    H225088   6.013   2.507   7.854
 1177TIP3   OH225089   1.204   4.485   6.229
 1177TIP3    H125090   1.227   4.565   6.276
 1177TIP3    H225091   1.124   4.507   6.182
 1178TIP3   OH225092   6.787   1.802   1.936
 1178TIP3    H125093   6.745   1.865   1.878
 1178TIP3    H225094   6.873   1.839   1.954
 1179TIP3   OH225095   4.883   5.986   2.160
 1179TIP3    H125096   4.893   5.903   2.206
 1179TIP3    H225097   4.795   6.016   2.183
 1180TIP3   OH225098   4.395   3.775   2.146
 1180TIP3    H125099   4.391   3.712   2.218
 1180TIP3    H225100   4.465   3.743   2.089
 1181TIP3   OH225101   0.092   0.772   0.470
 1181TIP3    H125102   0.092   0.731   0.383
 1181TIP3    H225103   0.004   0.758   0.503
 1182TIP3   OH225104   3.978   1.202   2.055
 1182TIP3    H125105   4.048   1.161   2.004
 1182TIP3    H225106   3.973   1.292   2.023
 1183TIP3   OH225107   3.261   5.445   7.131
 1183TIP3    H125108   3.227   5.359   7.155
 1183TIP3    H225109   3.186   5.503   7.139
 1184TIP3   OH225110   3.661   4.137   7.769
 1184TIP3    H125111   3.645   4.225   7.802
 1184TIP3    H225112   3.652   4.145   7.674
 1185TIP3   OH225113   0.447   4.092   8.331
 1185TIP3    H125114   0.393   4.163   8.295
 1185TIP3    H225115   0.514   4.137   8.383
 1186TIP3   OH225116   6.187   1.287   6.310
 1186TIP3    H125117   6.195   1.244   6.225
 1186TIP3    H225118   6.153   1.374   6.289
 1187TIP3   OH225119   1.253   1.127   6.379
 1187TIP3    H125120   1.264   1.135   6.284
 1187TIP3    H225121   1.224   1.214   6.407
 1188TIP3   OH225122   2.929   0.329   8.284
 1188TIP3    H125123   2.912   0.269   8.356
 1188TIP3    H225124   2.949   0.273   8.209
 1189TIP3   OH225125   4.431   5.631   7.702
 1189TIP3    H125126   4.454   5.612   7.792
 1189TIP3    H225127   4.351   5.580   7.686
 1190TIP3   OH225128   4.584   0.022   7.965
 1190TIP3    H125129   4.557   6.851   7.907
 1190TIP3    H225130   4.610   0.093   7.906
 1191TIP3   OH225131   6.305   2.147   0.005
 1191TIP3    H125132   6.342   2.103   0.081
 1191TIP3    H225133   6.244   2.082   8.587
 1192TIP3   OH225134   1.663   0.038   1.322
 1192TIP3    H125135   1.746   0.003   1.354
 1192TIP3    H225136   1.601   0.022   1.393
 1193TIP3   OH225137   5.430   6.580   0.735
 1193TIP3    H125138   5.431   6.659   0.681
 1193TIP3    H225139   5.348   6.536   0.711
 1194TIP3   OH225140   1.528   3.541   0.465
 1194TIP3    H125141   1.482   3.585   0.394
 1194TIP3    H225142   1.557   3.458   0.428
 1195TIP3   OH225143   0.405   4.449   0.949
 1195TIP3    H125144   0.400   4.545   0.947
 1195TIP3    H225145   0.318   4.421   0.921
 1196TIP3   OH225146   0.533   2.305   6.805
 1196TIP3    H125147   0.484   2.332   6.728
 1196TIP3    H225148   0.624   2.296   6.775
 1197TIP3   OH225149   1.388   1.771   8.253
 1197TIP3    H125150   1.304   1.794   8.213
 1197TIP3    H225151   1.364   1.718   8.329
 1198TIP3   OH225152   0.317   5.137   1.747
 1198TIP3    H125153   0.302   5.222   1.789
 1198TIP3    H225154   0.263   5.139   1.669
 1199TIP3   OH225155   1.183   5.583   6.344
 1199TIP3    H125156   1.243   5.638   6.295
 1199TIP3    H225157   1.096   5.608   6.314
 1200TIP3   OH225158   5.499   0.181   8.385
 1200TIP3    H125159   5.436   0.172   8.313
 1200TIP3    H225160   5.558   0.250   8.356
 1201TIP3   OH225161   4.067   3.248   0.520
 1201TIP3    H125162   4.084   3.300   0.599
 1201TIP3    H225163   3.999   3.186   0.547
 1202TIP3   OH225164   2.691   1.621   8.576
 1202TIP3    H125165   2.756   1.551   8.570
 1202TIP3    H225166   2.694   1.664   8.491
 1203TIP3   OH225167   1.566   2.932   8.039
 1203TIP3    H125168   1.645   2.966   8.081
 1203TIP3    H225169   1.495   2.953   8.099
 1204TIP3   OH225170   4.678   6.900   7.622
 1204TIP3    H125171   4.723   0.073   7.582
 1204TIP3    H225172   4.747   6.840   7.649
 1205TIP3   OH225173   2.269   4.677   7.738
 1205TIP3    H125174   2.311   4.706   7.658
 1205TIP3    H225175   2.341   4.665   7.800
 1206TIP3   OH225176   2.062   0.671   0.523
 1206TIP3    H125177   2.121   0.644   0.453
 1206TIP3    H225178   2.109   0.741   0.569
 1207TIP3   OH225179   2.689   4.066   7.491
 1207TIP3    H125180   2.660   4.151   7.526
 1207TIP3    H225181   2.614   4.008   7.506
 1208TIP3   OH225182   6.418   5.543   8.123
 1208TIP3    H125183   6.371   5.462   8.103
 1208TIP3    H225184   6.378   5.609   8.065
 1209TIP3   OH225185   3.277   5.022   7.825
 1209TIP3    H125186   3.207   4.960   7.846
 1209TIP3    H225187   3.347   4.969   7.787
 1210TIP3   OH225188   5.675   0.387   7.949
 1210TIP3    H125189   5.655   0.297   7.924
 1210TIP3    H225190   5.589   0.430   7.954
 1211TIP3   OH225191   4.857   2.207   0.175
 1211TIP3    H125192   4.937   2.247   0.139
 1211TIP3    H225193   4.855   2.235   0.267
 1212TIP3   OH225194   3.705   5.117   8.003
 1212TIP3    H125195   3.729   5.073   8.084
 1212TIP3    H225196   3.609   5.124   8.007
 1213TIP3   OH225197   0.867   5.200   0.782
 1213TIP3    H125198   0.923   5.135   0.741
 1213TIP3    H225199   0.789   5.205   0.726
 1214TIP3   OH225200   5.342   2.176   8.559
 1214TIP3    H125201   5.278   2.143   8.496
 1214TIP3    H225202   5.403   2.104   8.572
 1215TIP3   OH225203   6.205   0.367   7.741
 1215TIP3    H125204   6.290   0.347   7.780
 1215TIP3    H225205   6.155   0.408   7.812
 1216TIP3   OH225206   2.133   1.941   7.855
 1216TIP3    H125207   2.156   1.981   7.771
 1216TIP3    H225208   2.207   1.883   7.875
 1217TIP3   OH225209   3.567   3.734   8.582
 1217TIP3    H125210   3.652   3.778   8.581
 1217TIP3    H225211   3.584   3.650   8.538
 1218TIP3   OH225212   4.579   6.705   2.365
 1218TIP3    H125213   4.511   6.773   2.370
 1218TIP3    H225214   4.579   6.665   2.452
 1219TIP3   OH225215   0.202   1.759   0.244
 1219TIP3    H125216   0.144   1.687   0.219
 1219TIP3    H225217   0.161   1.837   0.207
 1220TIP3   OH225218   6.490   2.815   7.226
 1220TIP3    H125219   6.410   2.866   7.237
 1220TIP3    H225220   6.504   2.773   7.311
 1221TIP3   OH225221   0.471   0.625   5.913
 1221TIP3    H125222   0.516   0.542   5.930
 1221TIP3    H225223   0.516   0.688   5.969
 1222TIP3   OH225224   6.816   3.784   0.918
 1222TIP3    H125225   6.760   3.720   0.875
 1222TIP3    H225226   6.882   3.732   0.964
 1223TIP3   OH225227   4.780   0.754   1.443
 1223TIP3    H125228   4.872   0.730   1.454
 1223TIP3    H225229   4.735   0.710   1.515
 1224TIP3   OH225230   5.444   6.185   0.891
 1224TIP3    H125231   5.380   6.240   0.937
 1224TIP3    H225232   5.396   6.105   0.870
 1225TIP3   OH225233   5.335   3.204   0.568
 1225TIP3    H125234   5.284   3.123   0.560
 1225TIP3    H225235   5.424   3.175   0.587
 1226TIP3   OH225236   1.389   2.813   7.358
 1226TIP3    H125237   1.467   2.813   7.302
 1226TIP3    H225238   1.399   2.890   7.413
 1227TIP3   OH225239   1.817   1.543   1.593
 1227TIP3    H125240   1.838   1.519   1.503
 1227TIP3    H225241   1.723   1.527   1.600
 1228TIP3   OH225242   0.512   6.249   6.461
 1228TIP3    H125243   0.540   6.290   6.379
 1228TIP3    H225244   0.470   6.168   6.434
 1229TIP3   OH225245   1.191   3.102   0.353
 1229TIP3    H125246   1.148   3.047   0.288
 1229TIP3    H225247   1.179   3.056   0.436
 1230TIP3   OH225248   3.419   6.345   7.333
 1230TIP3    H125249   3.471   6.417   7.298
 1230TIP3    H225250   3.479   6.297   7.390
 1231TIP3   OH225251   1.400   5.441   6.441
 1231TIP3    H125252   1.332   5.508   6.433
 1231TIP3    H225253   1.372   5.371   6.382
 1232TIP3   OH225254   4.239   4.484   0.904
 1232TIP3    H125255   4.181   4.462   0.977
 1232TIP3    H225256   4.327   4.477   0.940
 1233TIP3   OH225257   6.856   3.958   0.708
 1233TIP3    H125258   6.775   4.008   0.707
 1233TIP3    H225259   6.836   3.881   0.762
 1234TIP3   OH225260   3.281   6.350   0.943
 1234TIP3    H125261   3.345   6.319   1.007
 1234TIP3    H225262   3.334   6.379   0.869
 1235TIP3   OH225263   1.272   3.185   7.199
 1235TIP3    H125264   1.298   3.100   7.164
 1235TIP3    H225265   1.263   3.171   7.293
 1236TIP3   OH225266   6.360   4.622   7.474
 1236TIP3    H125267   6.341   4.529   7.490
 1236TIP3    H225268   6.323   4.639   7.387
 1237TIP3   OH225269   6.899   4.636   8.471
 1237TIP3    H125270   6.806   4.653   8.485
 1237TIP3    H225271   0.042   4.683   8.542
 1238TIP3   OH225272   1.441   4.328   8.389
 1238TIP3    H125273   1.476   4.240   8.377
 1238TIP3    H225274   1.401   4.327   8.476
 1239TIP3   OH225275   1.726   0.698   7.170
 1239TIP3    H125276   1.728   0.789   7.201
 1239TIP3    H225277   1.694   0.648   7.244
 1240TIP3   OH225278   0.418   6.550   0.657
 1240TIP3    H125279   0.409   6.591   0.571
 1240TIP3    H225280   0.452   6.463   0.640
 1241TIP3   OH225281   6.031   5.889   7.944
 1241TIP3    H125282   6.021   5.978   7.912
 1241TIP3    H225283   6.001   5.834   7.872
 1242TIP3   OH225284   0.647   6.708   0.328
 1242TIP3    H125285   0.681   6.650   0.259
 1242TIP3    H225286   0.712   6.779   0.334
 1243TIP3   OH225287   1.404   5.967   8.444
 1243TIP3    H125288   1.471   6.032   8.466
 1243TIP3    H225289   1.329   5.990   8.500
 1244TIP3   OH225290   4.594   3.449   7.064
 1244TIP3    H125291   4.517   3.476   7.113
 1244TIP3    H225292   4.582   3.355   7.049
 1245TIP3   OH225293   2.947   3.540   8.260
 1245TIP3    H125294   2.856   3.521   8.239
 1245TIP3    H225295   2.996   3.512   8.183
 1246TIP3   OH225296   4.120   6.168   0.610
 1246TIP3    H125297   4.070   6.176   0.691
 1246TIP3    H225298   4.125   6.074   0.594
 1247TIP3   OH225299   4.214   6.897   1.530
 1247TIP3    H125300   4.291   0.053   1.525
 1247TIP3    H225301   4.140   0.058   1.539
 1248TIP3   OH225302   3.629   3.080   0.605
 1248TIP3    H125303   3.632   3.174   0.620
 1248TIP3    H225304   3.719   3.057   0.581
 1249TIP3   OH225305   0.863   6.613   1.792
 1249TIP3    H125306   0.902   6.603   1.705
 1249TIP3    H225307   0.927   6.573   1.852
 1250TIP3   OH225308   6.119   3.070   6.330
 1250TIP3    H125309   6.127   3.163   6.312
 1250TIP3    H225310   6.025   3.057   6.344
 1251TIP3   OH225311   2.051   1.149   6.080
 1251TIP3    H125312   2.066   1.064   6.120
 1251TIP3    H225313   2.129   1.165   6.027
 1252TIP3   OH225314   5.772   0.566   6.878
 1252TIP3    H125315   5.834   0.633   6.907
 1252TIP3    H225316   5.708   0.559   6.949
 1253TIP3   OH225317   5.268   3.484   0.197
 1253TIP3    H125318   5.357   3.505   0.170
 1253TIP3    H225319   5.268   3.389   0.209
 1254TIP3   OH225320   6.121   0.446   6.926
 1254TIP3    H125321   6.060   0.373   6.939
 1254TIP3    H225322   6.120   0.493   7.009
 1255TIP3   OH225323   1.682   4.993   6.988
 1255TIP3    H125324   1.620   4.922   6.968
 1255TIP3    H225325   1.725   5.011   6.905
 1256TIP3   OH225326   3.909   3.371   1.141
 1256TIP3    H125327   3.820   3.361   1.175
 1256TIP3    H225328   3.940   3.281   1.130
 1257TIP3   OH225329   4.508   3.550   7.641
 1257TIP3    H125330   4.599   3.537   7.667
 1257TIP3    H225331   4.488   3.475   7.586
 1258TIP3   OH225332   5.156   3.555   1.693
 1258TIP3    H125333   5.234   3.610   1.700
 1258TIP3    H225334   5.121   3.552   1.782
 1259TIP3   OH225335   2.600   3.010   0.312
 1259TIP3    H125336   2.622   3.073   0.242
 1259TIP3    H225337   2.684   2.987   0.351
 1260TIP3   OH225338   4.715   4.053   7.221
 1260TIP3    H125339   4.682   4.096   7.300
 1260TIP3    H225340   4.670   3.968   7.220
 1261TIP3   OH225341   6.263   1.891   7.926
 1261TIP3    H125342   6.296   1.976   7.954
 1261TIP3    H225343   6.188   1.912   7.870
 1262TIP3   OH225344   6.188   6.080   6.760
 1262TIP3    H125345   6.100   6.045   6.774
 1262TIP3    H225346   6.180   6.134   6.682
 1263TIP3   OH225347   0.161   2.275   7.728
 1263TIP3    H125348   0.241   2.316   7.762
 1263TIP3    H225349   0.098   2.347   7.725
 1264TIP3   OH225350   3.476   2.738   1.656
 1264TIP3    H125351   3.510   2.768   1.740
 1264TIP3    H225352   3.407   2.675   1.679
 1265TIP3   OH225353   6.768   3.286   1.539
 1265TIP3    H125354   6.802   3.375   1.530
 1265TIP3    H225355   6.843   3.235   1.569
 1266TIP3   OH225356   0.495   3.660   6.833
 1266TIP3    H125357   0.470   3.585   6.780
 1266TIP3    H225358   0.510   3.623   6.920
 1267TIP3   OH225359   1.207   1.654   7.307
 1267TIP3    H125360   1.255   1.639   7.225
 1267TIP3    H225361   1.215   1.748   7.323
 1268TIP3   OH225362   3.114   5.791   0.852
 1268TIP3    H125363   3.092   5.703   0.881
 1268TIP3    H225364   3.050   5.811   0.784
 1269TIP3   OH225365   4.707   4.829   2.138
 1269TIP3    H125366   4.756   4.747   2.145
 1269TIP3    H225367   4.664   4.839   2.223
 1270TIP3   OH225368   0.904   4.806   6.710
 1270TIP3    H125369   0.849   4.730   6.728
 1270TIP3    H225370   0.992   4.771   6.696
 1271TIP3   OH225371   2.218   0.333   8.338
 1271TIP3    H125372   2.292   0.353   8.396
 1271TIP3    H225373   2.140   0.352   8.390
 1272TIP3   OH225374   4.717   0.136   8.151
 1272TIP3    H125375   4.655   0.209   8.157
 1272TIP3    H225376   4.676   0.075   8.090
 1273TIP3   OH225377   3.860   3.229   1.694
 1273TIP3    H125378   3.837   3.321   1.684
 1273TIP3    H225379   3.943   3.231   1.743
 1274TIP3   OH225380   0.965   0.876   1.343
 1274TIP3    H125381   0.982   0.946   1.407
 1274TIP3    H225382   1.032   0.810   1.362
 1275TIP3   OH225383   2.201   1.306   7.490
 1275TIP3    H125384   2.114   1.338   7.468
 1275TIP3    H225385   2.235   1.370   7.552
 1276TIP3   OH225386   3.041   4.842   1.236
 1276TIP3    H125387   3.012   4.875   1.321
 1276TIP3    H225388   3.136   4.839   1.241
 1277TIP3   OH225389   2.578   6.222   2.417
 1277TIP3    H125390   2.568   6.313   2.445
 1277TIP3    H225391   2.489   6.188   2.414
 1278TIP3   OH225392   0.811   3.913   7.642
 1278TIP3    H125393   0.736   3.967   7.616
 1278TIP3    H225394   0.854   3.964   7.711
 1279TIP3   OH225395   2.875   5.995   0.332
 1279TIP3    H125396   2.864   6.046   0.252
 1279TIP3    H225397   2.786   5.968   0.356
 1280TIP3   OH225398   3.067   3.213   0.563
 1280TIP3    H125399   3.074   3.165   0.645
 1280TIP3    H225400   3.092   3.150   0.496
 1281TIP3   OH225401   0.159   2.951   1.860
 1281TIP3    H125402   0.111   2.879   1.820
 1281TIP3    H225403   0.200   2.996   1.786
 1282TIP3   OH225404   6.326   1.333   7.840
 1282TIP3    H125405   6.372   1.338   7.924
 1282TIP3    H225406   6.328   1.240   7.817
 1283TIP3   OH225407   4.982   4.955   0.723
 1283TIP3    H125408   4.919   5.026   0.720
 1283TIP3    H225409   4.929   4.877   0.740
 1284TIP3   OH225410   6.476   4.665   7.022
 1284TIP3    H125411   6.436   4.582   6.996
 1284TIP3    H225412   6.559   4.668   6.974
 1285TIP3   OH225413   6.535   3.565   0.346
 1285TIP3    H125414   6.555   3.655   0.370
 1285TIP3    H225415   6.593   3.548   0.271
 1286TIP3   OH225416   5.692   5.560   7.699
 1286TIP3    H125417   5.635   5.570   7.776
 1286TIP3    H225418   5.632   5.548   7.626
 1287TIP3   OH225419   4.005   0.827   7.680
 1287TIP3    H125420   3.938   0.858   7.741
 1287TIP3    H225421   4.086   0.830   7.731
 1288TIP3   OH225422   0.675   1.817   8.436
 1288TIP3    H125423   0.728   1.744   8.405
 1288TIP3    H225424   0.725   1.854   8.508
 1289TIP3   OH225425   2.358   0.490   7.829
 1289TIP3    H125426   2.349   0.448   7.915
 1289TIP3    H225427   2.452   0.495   7.814
 1290TIP3   OH225428   3.456   5.668   1.390
 1290TIP3    H125429   3.432   5.581   1.359
 1290TIP3    H225430   3.405   5.681   1.469
 1291TIP3   OH225431   4.220   1.471   6.175
 1291TIP3    H125432   4.178   1.386   6.193
 1291TIP3    H225433   4.314   1.453   6.180
 1292TIP3   OH225434   6.143   5.120   2.231
 1292TIP3    H125435   6.197   5.198   2.217
 1292TIP3    H225436   6.055   5.147   2.206
 1293TIP3   OH225437   1.915   3.702   6.814
 1293TIP3    H125438   1.858   3.655   6.753
 1293TIP3    H225439   1.992   3.724   6.763
 1294TIP3   OH225440   5.562   4.474   1.167
 1294TIP3    H125441   5.642   4.515   1.199
 1294TIP3    H225442   5.532   4.419   1.240
 1295TIP3   OH225443   1.641   5.771   7.692
 1295TIP3    H125444   1.622   5.854   7.648
 1295TIP3    H225445   1.627   5.790   7.785
 1296TIP3   OH225446   0.914   3.278   7.129
 1296TIP3    H125447   0.943   3.212   7.066
 1296TIP3    H225448   0.927   3.361   7.084
 1297TIP3   OH225449   2.077   3.014   6.398
 1297TIP3    H125450   1.991   3.048   6.374
 1297TIP3    H225451   2.072   2.920   6.378
 1298TIP3   OH225452   1.886   3.640   2.384
 1298TIP3    H125453   1.936   3.707   2.337
 1298TIP3    H225454   1.817   3.614   2.323
 1299TIP3   OH225455   0.826   4.658   7.556
 1299TIP3    H125456   0.766   4.592   7.589
 1299TIP3    H225457   0.880   4.612   7.491
 1300TIP3   OH225458   1.115   0.041   7.789
 1300TIP3    H125459   1.080   0.095   7.718
 1300TIP3    H225460   1.199   0.082   7.810
 1301TIP3   OH225461   0.306   1.428   7.361
 1301TIP3    H125462   0.349   1.514   7.361
 1301TIP3    H225463   0.372   1.368   7.328
 1302TIP3   OH225464   2.586   5.847   0.873
 1302TIP3    H125465   2.608   5.753   0.870
 1302TIP3    H225466   2.606   5.879   0.785
 1303TIP3   OH225467   1.590   3.774   0.932
 1303TIP3    H125468   1.656   3.763   1.000
 1303TIP3    H225469   1.596   3.694   0.879
 1304TIP3   OH225470   6.287   3.817   7.683
 1304TIP3    H125471   6.293   3.794   7.590
 1304TIP3    H225472   6.201   3.784   7.709
 1305TIP3   OH225473   1.147   4.866   7.293
 1305TIP3    H125474   1.124   4.872   7.201
 1305TIP3    H225475   1.231   4.820   7.294
 1306TIP3   OH225476   1.620   4.631   8.480
 1306TIP3    H125477   1.655   4.719   8.496
 1306TIP3    H225478   1.690   4.585   8.434
 1307TIP3   OH225479   3.705   1.967   0.822
 1307TIP3    H125480   3.640   2.037   0.825
 1307TIP3    H225481   3.674   1.907   0.755
 1308TIP3   OH225482   6.272   2.647   0.840
 1308TIP3    H125483   6.295   2.569   0.790
 1308TIP3    H225484   6.354   2.673   0.882
 1309TIP3   OH225485   6.710   5.385   1.831
 1309TIP3    H125486   6.764   5.329   1.887
 1309TIP3    H225487   6.622   5.380   1.870
 1310TIP3   OH225488   0.744   0.565   2.098
 1310TIP3    H125489   0.671   0.617   2.065
 1310TIP3    H225490   0.763   0.601   2.185
 1311TIP3   OH225491   0.933   5.334   1.872
 1311TIP3    H125492   0.898   5.277   1.940
 1311TIP3    H225493   0.944   5.419   1.916
 1312TIP3   OH225494   6.040   2.120   7.836
 1312TIP3    H125495   6.025   2.183   7.765
 1312TIP3    H225496   5.970   2.055   7.826
 1313TIP3   OH225497   3.384   3.395   7.288
 1313TIP3    H125498   3.294   3.372   7.266
 1313TIP3    H225499   3.433   3.312   7.280
 1314TIP3   OH225500   0.002   6.032   8.320
 1314TIP3    H125501   0.081   6.086   8.316
 1314TIP3    H225502   6.881   6.016   8.228
 1315TIP3   OH225503   1.197   5.370   1.906
 1315TIP3    H125504   1.129   5.330   1.853
 1315TIP3    H225505   1.188   5.328   1.992
 1316TIP3   OH225506   4.404   3.865   6.158
 1316TIP3    H125507   4.489   3.838   6.123
 1316TIP3    H225508   4.416   3.958   6.180
 1317TIP3   OH225509   1.054   5.502   0.428
 1317TIP3    H125510   1.145   5.520   0.453
 1317TIP3    H225511   1.037   5.413   0.460
 1318TIP3   OH225512   0.614   3.799   2.126
 1318TIP3    H125513   0.628   3.720   2.073
 1318TIP3    H225514   0.611   3.767   2.216
 1319TIP3   OH225515   2.922   2.395   8.000
 1319TIP3    H125516   2.921   2.414   8.094
 1319TIP3    H225517   2.848   2.445   7.965
 1320TIP3   OH225518   0.621   0.598   0.043
 1320TIP3    H125519   0.585   0.687   0.035
 1320TIP3    H225520   0.557   0.551   0.095
 1321TIP3   OH225521   2.261   4.719   7.101
 1321TIP3    H125522   2.278   4.744   7.010
 1321TIP3    H225523   2.346   4.730   7.145
 1322TIP3   OH225524   3.021   6.449   8.230
 1322TIP3    H125525   2.997   6.512   8.298
 1322TIP3    H225526   3.115   6.434   8.243
 1323TIP3   OH225527   3.906   2.199   7.250
 1323TIP3    H125528   3.942   2.163   7.169
 1323TIP3    H225529   3.957   2.277   7.268
 1324TIP3   OH225530   0.960   1.015   6.349
 1324TIP3    H125531   0.988   0.928   6.321
 1324TIP3    H225532   1.040   1.059   6.377
 1325TIP3   OH225533   6.384   6.387   0.435
 1325TIP3    H125534   6.324   6.312   0.437
 1325TIP3    H225535   6.333   6.460   0.467
 1326TIP3   OH225536   5.873   0.117   0.964
 1326TIP3    H125537   5.875   0.121   1.060
 1326TIP3    H225538   5.780   0.109   0.942
 1327TIP3   OH225539   1.500   1.470   2.174
 1327TIP3    H125540   1.502   1.521   2.093
 1327TIP3    H225541   1.562   1.399   2.159
 1328TIP3   OH225542   3.117   3.560   1.639
 1328TIP3    H125543   3.065   3.627   1.595
 1328TIP3    H225544   3.086   3.561   1.730
 1329TIP3   OH225545   2.738   3.493   0.276
 1329TIP3    H125546   2.806   3.558   0.258
 1329TIP3    H225547   2.761   3.419   0.220
 1330TIP3   OH225548   3.607   0.982   2.624
 1330TIP3    H125549   3.641   1.043   2.689
 1330TIP3    H225550   3.514   1.001   2.619
 1331TIP3   OH225551   5.131   5.266   0.114
 1331TIP3    H125552   5.052   5.233   0.158
 1331TIP3    H225553   5.195   5.276   0.185
 1332TIP3   OH225554   6.710   5.162   0.303
 1332TIP3    H125555   6.775   5.127   0.365
 1332TIP3    H225556   6.720   5.257   0.309
 1333TIP3   OH225557   4.492   2.565   2.205
 1333TIP3    H125558   4.475   2.659   2.210
 1333TIP3    H225559   4.585   2.556   2.223
 1334TIP3   OH225560   6.034   2.801   7.430
 1334TIP3    H125561   6.058   2.777   7.341
 1334TIP3    H225562   6.070   2.730   7.484
 1335TIP3   OH225563   1.509   6.617   0.709
 1335TIP3    H125564   1.474   6.580   0.628
 1335TIP3    H225565   1.532   6.707   0.687
 1336TIP3   OH225566   6.759   4.665   1.418
 1336TIP3    H125567   6.805   4.641   1.498
 1336TIP3    H225568   6.678   4.705   1.448
 1337TIP3   OH225569   6.060   6.533   2.410
 1337TIP3    H125570   6.052   6.629   2.413
 1337TIP3    H225571   5.991   6.501   2.469
 1338TIP3   OH225572   6.399   4.690   2.246
 1338TIP3    H125573   6.488   4.722   2.255
 1338TIP3    H225574   6.348   4.767   2.220
 1339TIP3   OH225575   0.777   5.908   6.053
 1339TIP3    H125576   0.830   5.834   6.024
 1339TIP3    H225577   0.719   5.871   6.119
 1340TIP3   OH225578   6.446   5.024   8.097
 1340TIP3    H125579   6.352   5.026   8.077
 1340TIP3    H225580   6.487   4.993   8.017
 1341TIP3   OH225581   6.881   1.427   8.069
 1341TIP3    H125582   6.804   1.475   8.101
 1341TIP3    H225583   0.006   1.371   8.142
 1342TIP3   OH225584   2.792   2.005   0.454
 1342TIP3    H125585   2.877   1.980   0.493
 1342TIP3    H225586   2.739   1.926   0.461
 1343TIP3   OH225587   1.415   0.968   7.258
 1343TIP3    H125588   1.384   0.953   7.348
 1343TIP3    H225589   1.509   0.951   7.263
 1344TIP3   OH225590   6.485   1.576   2.144
 1344TIP3    H125591   6.422   1.623   2.089
 1344TIP3    H225592   6.485   1.624   2.227
 1345TIP3   OH225593   6.641   0.503   0.713
 1345TIP3    H125594   6.734   0.498   0.737
 1345TIP3    H225595   6.621   0.597   0.717
 1346TIP3   OH225596   1.062   0.504   5.870
 1346TIP3    H125597   1.138   0.446   5.871
 1346TIP3    H225598   1.009   0.473   5.797
 1347TIP3   OH225599   1.756   2.444   8.199
 1347TIP3    H125600   1.747   2.512   8.265
 1347TIP3    H225601   1.759   2.491   8.116
 1348TIP3   OH225602   5.494   1.026   7.670
 1348TIP3    H125603   5.428   0.957   7.672
 1348TIP3    H225604   5.577   0.980   7.661
 1349TIP3   OH225605   4.755   0.220   1.006
 1349TIP3    H125606   4.746   0.130   1.038
 1349TIP3    H225607   4.723   0.275   1.077
 1350TIP3   OH225608   2.704   5.446   7.367
 1350TIP3    H125609   2.610   5.456   7.386
 1350TIP3    H225610   2.742   5.415   7.449
 1351TIP3   OH225611   3.653   1.415   1.924
 1351TIP3    H125612   3.631   1.480   1.858
 1351TIP3    H225613   3.629   1.331   1.884
 1352TIP3   OH225614   6.267   1.223   7.284
 1352TIP3    H125615   6.240   1.203   7.374
 1352TIP3    H225616   6.272   1.318   7.281
 1353TIP3   OH225617   5.856   5.831   1.342
 1353TIP3    H125618   5.784   5.890   1.325
 1353TIP3    H225619   5.907   5.873   1.411
 1354TIP3   OH225620   2.860   1.506   8.086
 1354TIP3    H125621   2.784   1.449   8.096
 1354TIP3    H225622   2.900   1.478   8.003
 1355TIP3   OH225623   2.768   2.994   8.250
 1355TIP3    H125624   2.790   2.907   8.216
 1355TIP3    H225625   2.761   3.048   8.171
 1356TIP3   OH225626   4.873   1.241   0.669
 1356TIP3    H125627   4.801   1.226   0.731
 1356TIP3    H225628   4.914   1.322   0.699
 1357TIP3   OH225629   1.142   0.958   8.179
 1357TIP3    H125630   1.113   0.880   8.132
 1357TIP3    H225631   1.123   1.030   8.119
 1358TIP3   OH225632   3.935   1.263   1.659
 1358TIP3    H125633   3.985   1.327   1.709
 1358TIP3    H225634   3.998   1.223   1.599
 1359TIP3   OH225635   3.409   3.984   7.709
 1359TIP3    H125636   3.489   4.018   7.747
 1359TIP3    H225637   3.372   4.057   7.659
 1360TIP3   OH225638   2.957   4.802   6.741
 1360TIP3    H125639   2.945   4.710   6.717
 1360TIP3    H225640   2.898   4.850   6.682
 1361TIP3   OH225641   3.616   6.210   7.542
 1361TIP3    H125642   3.575   6.194   7.627
 1361TIP3    H225643   3.610   6.126   7.497
 1362TIP3   OH225644   1.529   3.976   0.499
 1362TIP3    H125645   1.582   3.897   0.515
 1362TIP3    H225646   1.510   3.973   0.405
 1363TIP3   OH225647   0.193   1.691   8.119
 1363TIP3    H125648   0.267   1.731   8.073
 1363TIP3    H225649   0.118   1.707   8.062
 1364TIP3   OH225650   0.098   2.075   8.111
 1364TIP3    H125651   0.122   2.024   8.034
 1364TIP3    H225652   0.017   2.120   8.085
 1365TIP3   OH225653   1.471   3.624   2.040
 1365TIP3    H125654   1.420   3.694   2.081
 1365TIP3    H225655   1.426   3.543   2.067
 1366TIP3   OH225656   4.774   2.466   7.129
 1366TIP3    H125657   4.837   2.395   7.141
 1366TIP3    H225658   4.696   2.423   7.095
 1367TIP3   OH225659   4.738   2.795   6.763
 1367TIP3    H125660   4.745   2.754   6.850
 1367TIP3    H225661   4.644   2.798   6.746
 1368TIP3   OH225662   1.325   0.382   1.606
 1368TIP3    H125663   1.333   0.357   1.698
 1368TIP3    H225664   1.236   0.417   1.598
 1369TIP3   OH225665   4.738   5.067   1.874
 1369TIP3    H125666   4.787   4.987   1.858
 1369TIP3    H225667   4.694   5.086   1.792
 1370TIP3   OH225668   4.103   4.094   1.945
 1370TIP3    H125669   4.012   4.119   1.927
 1370TIP3    H225670   4.130   4.154   2.015
 1371TIP3   OH225671   0.808   1.463   1.077
 1371TIP3    H125672   0.838   1.403   1.009
 1371TIP3    H225673   0.713   1.450   1.080
 1372TIP3   OH225674   5.903   6.025   1.105
 1372TIP3    H125675   5.834   6.019   1.171
 1372TIP3    H225676   5.859   6.061   1.028
 1373TIP3   OH225677   5.717   0.975   6.969
 1373TIP3    H125678   5.770   1.054   6.980
 1373TIP3    H225679   5.631   0.999   7.004
 1374TIP3   OH225680   6.670   2.290   0.858
 1374TIP3    H125681   6.662   2.211   0.911
 1374TIP3    H225682   6.752   2.331   0.888
 1375TIP3   OH225683   6.717   3.976   1.214
 1375TIP3    H125684   6.680   3.890   1.196
 1375TIP3    H225685   6.697   3.991   1.306
 1376TIP3   OH225686   1.363   6.722   0.930
 1376TIP3    H125687   1.415   6.698   0.854
 1376TIP3    H225688   1.322   6.641   0.958
 1377TIP3   OH225689   0.404   5.823   0.040
 1377TIP3    H125690   0.386   5.878   8.582
 1377TIP3    H225691   0.475   5.765   0.011
 1378TIP3   OH225692   0.462   4.794   8.206
 1378TIP3    H125693   0.472   4.885   8.178
 1378TIP3    H225694   0.478   4.797   8.301
 1379TIP3   OH225695   3.783   2.647   8.600
 1379TIP3    H125696   3.694   2.613   8.608
 1379TIP3    H225697   3.789   2.716   0.047
 1380TIP3   OH225698   3.238   4.730   7.679
 1380TIP3    H125699   3.304   4.713   7.746
 1380TIP3    H225700   3.155   4.733   7.728
 1381TIP3   OH225701   3.612   4.809   0.766
 1381TIP3    H125702   3.602   4.900   0.737
 1381TIP3    H225703   3.593   4.812   0.860
 1382TIP3   OH225704   6.176   5.721   7.704
 1382TIP3    H125705   6.085   5.736   7.730
 1382TIP3    H225706   6.174   5.636   7.660
 1383TIP3   OH225707   1.751   3.487   7.365
 1383TIP3    H125708   1.749   3.423   7.436
 1383TIP3    H225709   1.730   3.571   7.406
 1384TIP3   OH225710   1.530   1.170   1.690
 1384TIP3    H125711   1.592   1.105   1.724
 1384TIP3    H225712   1.547   1.249   1.741
 1385TIP3   OH225713   2.335   2.410   7.857
 1385TIP3    H125714   2.387   2.458   7.792
 1385TIP3    H225715   2.359   2.318   7.844
 1386TIP3   OH225716   2.664   2.029   0.223
 1386TIP3    H125717   2.726   1.993   0.159
 1386TIP3    H225718   2.713   2.035   0.304
 1387TIP3   OH225719   0.471   0.484   1.529
 1387TIP3    H125720   0.397   0.546   1.534
 1387TIP3    H225721   0.484   0.455   1.619
 1388TIP3   OH225722   4.213   1.355   7.857
 1388TIP3    H125723   4.210   1.323   7.947
 1388TIP3    H225724   4.121   1.363   7.832
 1389TIP3   OH225725   0.047   5.954   7.007
 1389TIP3    H125726   0.114   5.947   6.939
 1389TIP3    H225727   0.026   6.047   7.010
 1390TIP3   OH225728   6.041   5.657   2.127
 1390TIP3    H125729   6.069   5.659   2.219
 1390TIP3    H225730   5.973   5.590   2.124
 1391TIP3   OH225731   6.097   0.232   0.875
 1391TIP3    H125732   6.056   0.257   0.792
 1391TIP3    H225733   6.036   0.170   0.915
 1392TIP3   OH225734   0.353   0.526   5.472
 1392TIP3    H125735   0.315   0.482   5.549
 1392TIP3    H225736   0.358   0.618   5.498
 1393TIP3   OH225737   0.838   2.129   1.675
 1393TIP3    H125738   0.798   2.053   1.716
 1393TIP3    H225739   0.816   2.121   1.582
 1394TIP3   OH225740   0.281   4.307   6.940
 1394TIP3    H125741   0.346   4.327   6.873
 1394TIP3    H225742   0.333   4.288   7.019
 1395TIP3   OH225743   0.740   3.068   8.145
 1395TIP3    H125744   0.694   3.002   8.093
 1395TIP3    H225745   0.818   3.089   8.094
 1396TIP3   OH225746   3.929   5.280   1.058
 1396TIP3    H125747   3.898   5.224   1.128
 1396TIP3    H225748   4.012   5.240   1.030
 1397TIP3   OH225749   6.446   4.476   1.838
 1397TIP3    H125750   6.412   4.515   1.757
 1397TIP3    H225751   6.541   4.486   1.831
 1398TIP3   OH225752   2.615   6.434   0.665
 1398TIP3    H125753   2.688   6.494   0.675
 1398TIP3    H225754   2.648   6.350   0.698
 1399TIP3   OH225755   1.513   2.267   8.019
 1399TIP3    H125756   1.526   2.199   7.952
 1399TIP3    H225757   1.600   2.281   8.056
 1400TIP3   OH225758   1.323   0.181   6.827
 1400TIP3    H125759   1.387   0.245   6.859
 1400TIP3    H225760   1.342   0.174   6.733
 1401TIP3   OH225761   5.610   6.697   0.103
 1401TIP3    H125762   5.585   6.735   0.018
 1401TIP3    H225763   5.530   6.701   0.155
 1402TIP3   OH225764   6.655   5.019   0.896
 1402TIP3    H125765   6.599   5.094   0.875
 1402TIP3    H225766   6.727   5.025   0.832
 1403TIP3   OH225767   1.645   4.608   0.596
 1403TIP3    H125768   1.623   4.571   0.511
 1403TIP3    H225769   1.687   4.692   0.576
 1404TIP3   OH225770   0.889   4.635   8.120
 1404TIP3    H125771   0.903   4.730   8.114
 1404TIP3    H225772   0.794   4.625   8.118
 1405TIP3   OH225773   0.959   4.267   0.955
 1405TIP3    H125774   0.881   4.271   1.010
 1405TIP3    H225775   1.029   4.239   1.014
 1406TIP3   OH225776   5.458   3.411   7.846
 1406TIP3    H125777   5.400   3.363   7.786
 1406TIP3    H225778   5.543   3.411   7.802
 1407TIP3   OH225779   0.188   5.281   7.664
 1407TIP3    H125780   0.098   5.253   7.683
 1407TIP3    H225781   0.221   5.216   7.602
 1408TIP3   OH225782   0.775   6.040   7.593
 1408TIP3    H125783   0.710   6.010   7.656
 1408TIP3    H225784   0.802   6.126   7.626
 1409TIP3   OH225785   6.102   5.546   0.279
 1409TIP3    H125786   6.081   5.565   0.371
 1409TIP3    H225787   6.188   5.504   0.283
 1410TIP3   OH225788   3.129   6.376   1.373
 1410TIP3    H125789   3.111   6.461   1.332
 1410TIP3    H225790   3.042   6.341   1.393
 1411TIP3   OH225791   0.208   0.837   0.995
 1411TIP3    H125792   0.291   0.789   0.995
 1411TIP3    H225793   0.153   0.789   0.934
 1412TIP3   OH225794   2.649   5.434   1.732
 1412TIP3    H125795   2.636   5.525   1.704
 1412TIP3    H225796   2.737   5.412   1.700
 1413TIP3   OH225797   3.124   0.910   7.576
 1413TIP3    H125798   3.193   0.881   7.517
 1413TIP3    H225799   3.166   0.917   7.661
 1414TIP3   OH225800   1.353   2.869   7.888
 1414TIP3    H125801   1.438   2.884   7.930
 1414TIP3    H225802   1.319   2.790   7.931
 1415TIP3   OH225803   0.781   1.881   1.145
 1415TIP3    H125804   0.696   1.840   1.160
 1415TIP3    H225805   0.768   1.937   1.068
 1416TIP3   OH225806   0.345   1.327   0.768
 1416TIP3    H125807   0.433   1.334   0.732
 1416TIP3    H225808   0.328   1.233   0.771
 1417TIP3   OH225809   1.360   5.912   7.336
 1417TIP3    H125810   1.336   5.850   7.404
 1417TIP3    H225811   1.317   5.879   7.257
 1418TIP3   OH225812   1.935   0.879   8.441
 1418TIP3    H125813   1.853   0.925   8.424
 1418TIP3    H225814   1.993   0.947   8.476
 1419TIP3   OH225815   4.440   5.860   2.323
 1419TIP3    H125816   4.433   5.770   2.291
 1419TIP3    H225817   4.386   5.861   2.402
 1420TIP3   OH225818   4.201   0.185   6.475
 1420TIP3    H125819   4.111   0.154   6.469
 1420TIP3    H225820   4.194   0.275   6.507
 1421TIP3   OH225821   5.770   3.729   7.782
 1421TIP3    H125822   5.689   3.777   7.772
 1421TIP3    H225823   5.798   3.746   7.872
 1422TIP3   OH225824   2.846   5.617   7.196
 1422TIP3    H125825   2.827   5.614   7.102
 1422TIP3    H225826   2.772   5.571   7.236
 1423TIP3   OH225827   2.723   5.591   1.348
 1423TIP3    H125828   2.786   5.527   1.315
 1423TIP3    H225829   2.651   5.589   1.285
 1424TIP3   OH225830   6.408   0.245   0.020
 1424TIP3    H125831   6.353   0.180   8.595
 1424TIP3    H225832   6.496   0.227   8.607
 1425TIP3   OH225833   6.688   4.546   7.740
 1425TIP3    H125834   6.655   4.627   7.701
 1425TIP3    H225835   6.646   4.543   7.827
 1426TIP3   OH225836   4.011   0.763   0.938
 1426TIP3    H125837   4.090   0.814   0.951
 1426TIP3    H225838   4.015   0.694   1.003
 1427TIP3   OH225839   4.934   0.948   0.034
 1427TIP3    H125840   4.878   0.938   0.110
 1427TIP3    H225841   5.023   0.939   0.067
 1428TIP3   OH225842   5.495   2.151   7.160
 1428TIP3    H125843   5.549   2.211   7.109
 1428TIP3    H225844   5.407   2.164   7.126
 1429TIP3   OH225845   4.919   6.029   7.381
 1429TIP3    H125846   4.896   6.084   7.456
 1429TIP3    H225847   4.848   5.965   7.375
 1430TIP3   OH225848   0.489   5.099   0.826
 1430TIP3    H125849   0.566   5.052   0.859
 1430TIP3    H225850   0.427   5.097   0.899
 1431TIP3   OH225851   6.534   0.960   0.954
 1431TIP3    H125852   6.533   1.016   0.876
 1431TIP3    H225853   6.443   0.959   0.984
 1432TIP3   OH225854   2.392   6.125   0.630
 1432TIP3    H125855   2.432   6.137   0.544
 1432TIP3    H225856   2.325   6.193   0.634
 1433TIP3   OH225857   4.707   0.300   0.311
 1433TIP3    H125858   4.746   0.369   0.365
 1433TIP3    H225859   4.782   0.250   0.279
 1434TIP3   OH225860   6.711   2.234   0.548
 1434TIP3    H125861   6.617   2.237   0.528
 1434TIP3    H225862   6.716   2.255   0.642
 1435TIP3   OH225863   6.182   3.111   1.104
 1435TIP3    H125864   6.233   3.037   1.138
 1435TIP3    H225865   6.091   3.087   1.120
 1436TIP3   OH225866   2.982   5.817   1.797
 1436TIP3    H125867   2.927   5.861   1.862
 1436TIP3    H225868   2.969   5.724   1.814
 1437TIP3   OH225869   1.734   5.014   0.381
 1437TIP3    H125870   1.694   5.085   0.331
 1437TIP3    H225871   1.827   5.036   0.386
 1438TIP3   OH225872   3.434   0.956   6.634
 1438TIP3    H125873   3.519   0.984   6.599
 1438TIP3    H225874   3.374   1.026   6.608
 1439TIP3   OH225875   2.468   6.796   0.789
 1439TIP3    H125876   2.432   6.750   0.865
 1439TIP3    H225877   2.396   6.848   0.755
 1440TIP3   OH225878   0.176   3.556   0.805
 1440TIP3    H125879   0.123   3.554   0.885
 1440TIP3    H225880   0.262   3.524   0.833
 1441TIP3   OH225881   5.014   5.078   1.232
 1441TIP3    H125882   4.957   5.013   1.274
 1441TIP3    H225883   5.101   5.058   1.264
 1442TIP3   OH225884   6.083   0.458   8.322
 1442TIP3    H125885   6.166   0.497   8.350
 1442TIP3    H225886   6.032   0.531   8.287
 1443TIP3   OH225887   5.133   5.836   7.620
 1443TIP3    H125888   5.136   5.856   7.526
 1443TIP3    H225889   5.040   5.821   7.638
 1444TIP3   OH225890   4.600   6.601   8.554
 1444TIP3    H125891   4.690   6.598   8.585
 1444TIP3    H225892   4.564   6.680   8.594
 1445TIP3   OH225893   6.619   6.342   7.697
 1445TIP3    H125894   6.648   6.284   7.767
 1445TIP3    H225895   6.573   6.285   7.635
 1446TIP3   OH225896   6.558   3.398   1.316
 1446TIP3    H125897   6.558   3.431   1.226
 1446TIP3    H225898   6.633   3.338   1.319
 1447TIP3   OH225899   0.916   3.631   8.055
 1447TIP3    H125900   0.917   3.628   8.150
 1447TIP3    H225901   0.855   3.702   8.034
 1448TIP3   OH225902   5.699   6.097   0.946
 1448TIP3    H125903   5.609   6.129   0.937
 1448TIP3    H225904   5.725   6.074   0.857
 1449TIP3   OH225905   1.347   0.709   0.504
 1449TIP3    H125906   1.307   0.634   0.547
 1449TIP3    H225907   1.414   0.739   0.565
 1450TIP3   OH225908   1.937   1.332   8.452
 1450TIP3    H125909   1.984   1.257   8.416
 1450TIP3    H225910   1.875   1.357   8.383
 1451TIP3   OH225911   5.526   0.361   1.013
 1451TIP3    H125912   5.522   0.266   1.025
 1451TIP3    H225913   5.466   0.379   0.940
 1452TIP3   OH225914   1.628   1.812   1.051
 1452TIP3    H125915   1.695   1.839   1.114
 1452TIP3    H225916   1.558   1.776   1.104
 1453TIP3   OH225917   2.227   3.352   1.629
 1453TIP3    H125918   2.200   3.436   1.665
 1453TIP3    H225919   2.179   3.287   1.682
 1454TIP3   OH225920   5.508   0.177   7.582
 1454TIP3    H125921   5.429   0.135   7.550
 1454TIP3    H225922   5.504   0.167   7.677
 1455TIP3   OH225923   0.140   2.798   6.542
 1455TIP3    H125924   0.218   2.853   6.551
 1455TIP3    H225925   0.093   2.808   6.624
 1456TIP3   OH225926   6.662   6.246   7.242
 1456TIP3    H125927   6.747   6.224   7.202
 1456TIP3    H225928   6.639   6.168   7.293
 1457TIP3   OH225929   1.715   4.636   1.955
 1457TIP3    H125930   1.717   4.705   2.021
 1457TIP3    H225931   1.626   4.603   1.957
 1458TIP3   OH225932   2.658   6.147   0.499
 1458TIP3    H125933   2.689   6.206   0.568
 1458TIP3    H225934   2.697   6.180   0.419
 1459TIP3   OH225935   0.372   2.781   1.733
 1459TIP3    H125936   0.350   2.799   1.825
 1459TIP3    H225937   0.341   2.691   1.719
 1460TIP3   OH225938   5.270   0.865   7.695
 1460TIP3    H125939   5.236   0.779   7.668
 1460TIP3    H225940   5.211   0.894   7.764
 1461TIP3   OH225941   0.297   2.272   6.494
 1461TIP3    H125942   0.279   2.275   6.400
 1461TIP3    H225943   0.380   2.225   6.502
 1462TIP3   OH225944   3.960   2.578   0.614
 1462TIP3    H125945   3.946   2.485   0.631
 1462TIP3    H225946   4.052   2.585   0.589
 1463TIP3   OH225947   3.572   1.272   8.037
 1463TIP3    H125948   3.572   1.339   8.105
 1463TIP3    H225949   3.505   1.300   7.975
 1464TIP3   OH225950   2.648   2.612   0.120
 1464TIP3    H125951   2.616   2.527   0.149
 1464TIP3    H225952   2.570   2.668   0.119
 1465TIP3   OH225953   5.811   4.030   2.490
 1465TIP3    H125954   5.784   4.120   2.508
 1465TIP3    H225955   5.894   4.020   2.537
 1466TIP3   OH225956   5.875   2.641   7.709
 1466TIP3    H125957   5.860   2.734   7.690
 1466TIP3    H225958   5.812   2.594   7.655
 1467TIP3   OH225959   0.919   3.682   7.735
 1467TIP3    H125960   0.870   3.755   7.695
 1467TIP3    H225961   0.920   3.615   7.667
 1468TIP3   OH225962   0.566   2.258   7.942
 1468TIP3    H125963   0.654   2.243   7.909
 1468TIP3    H225964   0.530   2.325   7.884
 1469TIP3   OH225965   3.571   0.860   7.675
 1469TIP3    H125966   3.627   0.867   7.752
 1469TIP3    H225967   3.501   0.923   7.690
 1470TIP3   OH225968   1.154   3.685   0.102
 1470TIP3    H125969   1.185   3.751   0.164
 1470TIP3    H225970   1.235   3.648   0.065
 1471TIP3   OH225971   6.627   2.763   7.815
 1471TIP3    H125972   6.575   2.816   7.754
 1471TIP3    H225973   6.676   2.827   7.866
 1472TIP3   OH225974   1.425   2.213   1.521
 1472TIP3    H125975   1.519   2.198   1.525
 1472TIP3    H225976   1.412   2.261   1.439
 1473TIP3   OH225977   1.575   3.001   1.579
 1473TIP3    H125978   1.546   3.045   1.499
 1473TIP3    H225979   1.532   2.916   1.576
 1474TIP3   OH225980   5.234   3.668   1.067
 1474TIP3    H125981   5.188   3.751   1.060
 1474TIP3    H225982   5.314   3.680   1.015
 1475TIP3   OH225983   5.194   3.774   0.059
 1475TIP3    H125984   5.264   3.839   0.059
 1475TIP3    H225985   5.198   3.734   8.592
 1476TIP3   OH225986   5.717   3.292   0.065
 1476TIP3    H125987   5.792   3.262   0.116
 1476TIP3    H225988   5.663   3.215   0.053
 1477TIP3   OH225989   4.717   6.896   1.690
 1477TIP3    H125990   4.704   6.804   1.709
 1477TIP3    H225991   4.738   0.036   1.774
 1478TIP3   OH225992   2.025   0.096   0.191
 1478TIP3    H125993   1.934   0.092   0.220
 1478TIP3    H225994   2.020   0.088   0.096
 1479TIP3   OH225995   4.590   2.847   7.460
 1479TIP3    H125996   4.544   2.859   7.543
 1479TIP3    H225997   4.677   2.816   7.485
 1480TIP3   OH225998   3.788   3.513   7.807
 1480TIP3    H125999   3.866   3.494   7.860
 1480TIP3    H226000   3.750   3.591   7.846
 1481TIP3   OH226001   3.485   1.673   8.191
 1481TIP3    H126002   3.427   1.669   8.267
 1481TIP3    H226003   3.437   1.726   8.127
 1482TIP3   OH226004   1.925   3.361   6.684
 1482TIP3    H126005   1.995   3.420   6.656
 1482TIP3    H226006   1.847   3.417   6.686
 1483TIP3   OH226007   3.037   6.476   1.657
 1483TIP3    H126008   3.007   6.548   1.602
 1483TIP3    H226009   3.064   6.519   1.739
 1484TIP3   OH226010   3.375   5.162   1.470
 1484TIP3    H126011   3.390   5.121   1.555
 1484TIP3    H226012   3.382   5.090   1.407
 1485TIP3   OH226013   0.787   2.346   6.721
 1485TIP3    H126014   0.877   2.332   6.690
 1485TIP3    H226015   0.790   2.430   6.767
 1486TIP3   OH226016   1.805   5.992   7.986
 1486TIP3    H126017   1.875   5.931   7.965
 1486TIP3    H226018   1.738   5.938   8.030
 1487TIP3   OH226019   4.666   5.466   8.127
 1487TIP3    H126020   4.590   5.483   8.183
 1487TIP3    H226021   4.718   5.403   8.177
 1488TIP3   OH226022   6.401   6.546   2.051
 1488TIP3    H126023   6.494   6.561   2.067
 1488TIP3    H226024   6.395   6.456   2.020
 1489TIP3   OH226025   2.971   1.310   7.486
 1489TIP3    H126026   3.066   1.302   7.492
 1489TIP3    H226027   2.944   1.335   7.575
 1490TIP3   OH226028   6.252   4.881   7.539
 1490TIP3    H126029   6.307   4.945   7.495
 1490TIP3    H226030   6.264   4.800   7.489
 1491TIP3   OH226031   2.704   4.965   7.164
 1491TIP3    H126032   2.665   4.931   7.083
 1491TIP3    H226033   2.722   4.887   7.216
 1492TIP3   OH226034   5.750   0.798   6.097
 1492TIP3    H126035   5.707   0.882   6.112
 1492TIP3    H226036   5.844   0.818   6.104
 1493TIP3   OH226037   1.100   1.847   0.595
 1493TIP3    H126038   1.074   1.787   0.664
 1493TIP3    H226039   1.030   1.841   0.530
 1494TIP3   OH226040   5.739   5.238   0.722
 1494TIP3    H126041   5.769   5.208   0.807
 1494TIP3    H226042   5.729   5.333   0.732
 1495TIP3   OH226043   3.379   2.292   7.006
 1495TIP3    H126044   3.339   2.279   6.920
 1495TIP3    H226045   3.355   2.213   7.056
 1496TIP3   OH226046   6.363   6.117   0.122
 1496TIP3    H126047   6.417   6.068   0.059
 1496TIP3    H226048   6.274   6.084   0.106
 1497TIP3   OH226049   2.386   0.306   6.224
 1497TIP3    H126050   2.315   0.242   6.219
 1497TIP3    H226051   2.466   0.254   6.216
 1498TIP3   OH226052   0.722   5.792   0.906
 1498TIP3    H126053   0.698   5.728   0.839
 1498TIP3    H226054   0.655   5.783   0.974
 1499TIP3   OH226055   6.566   3.534   2.311
 1499TIP3    H126056   6.574   3.455   2.257
 1499TIP3    H226057   6.497   3.512   2.374
 1500TIP3   OH226058   5.534   0.185   5.388
 1500TIP3    H126059   5.585   0.264   5.373
 1500TIP3    H226060   5.599   0.118   5.412
 1501TIP3   OH226061   5.214   2.980   1.005
 1501TIP3    H126062   5.292   2.928   0.987
 1501TIP3    H226063   5.172   2.991   0.920
 1502TIP3   OH226064   6.228   5.135   6.589
 1502TIP3    H126065   6.307   5.152   6.640
 1502TIP3    H226066   6.197   5.222   6.563
 1503TIP3   OH226067   2.199   3.293   0.306
 1503TIP3    H126068   2.128   3.356   0.319
 1503TIP3    H226069   2.256   3.305   0.382
 1504TIP3   OH226070   3.016   4.962   1.877
 1504TIP3    H126071   3.088   4.899   1.869
 1504TIP3    H226072   2.937   4.908   1.880
 1505TIP3   OH226073   5.652   4.553   0.556
 1505TIP3    H126074   5.660   4.521   0.467
 1505TIP3    H226075   5.569   4.600   0.558
 1506TIP3   OH226076   2.380   1.264   6.778
 1506TIP3    H126077   2.316   1.267   6.848
 1506TIP3    H226078   2.459   1.302   6.816
 1507TIP3   OH226079   6.490   6.416   1.084
 1507TIP3    H126080   6.552   6.401   1.155
 1507TIP3    H226081   6.457   6.329   1.062
 1508TIP3   OH226082   4.747   3.319   1.309
 1508TIP3    H126083   4.728   3.411   1.291
 1508TIP3    H226084   4.728   3.309   1.403
 1509TIP3   OH226085   3.542   3.322   1.633
 1509TIP3    H126086   3.628   3.360   1.649
 1509TIP3    H226087   3.483   3.398   1.631
 1510TIP3   OH226088   5.606   0.622   0.138
 1510TIP3    H126089   5.685   0.674   0.122
 1510TIP3    H226090   5.621   0.541   0.089
 1511TIP3   OH226091   1.552   1.147   0.140
 1511TIP3    H126092   1.480   1.210   0.144
 1511TIP3    H226093   1.591   1.151   0.228
 1512TIP3   OH226094   2.863   3.455   6.577
 1512TIP3    H126095   2.935   3.492   6.627
 1512TIP3    H226096   2.905   3.395   6.515
 1513TIP3   OH226097   3.864   2.998   7.983
 1513TIP3    H126098   3.912   3.003   7.901
 1513TIP3    H226099   3.789   2.942   7.963
 1514TIP3   OH226100   3.174   6.625   0.320
 1514TIP3    H126101   3.193   6.534   0.344
 1514TIP3    H226102   3.258   6.670   0.331
 1515TIP3   OH226103   4.844   6.434   0.550
 1515TIP3    H126104   4.779   6.465   0.613
 1515TIP3    H226105   4.860   6.343   0.575
 1516TIP3   OH226106   1.362   6.380   6.587
 1516TIP3    H126107   1.375   6.468   6.620
 1516TIP3    H226108   1.395   6.382   6.498
 1517TIP3   OH226109   1.737   0.990   7.231
 1517TIP3    H126110   1.730   1.083   7.251
 1517TIP3    H226111   1.764   0.988   7.139
 1518TIP3   OH226112   5.581   6.311   6.960
 1518TIP3    H126113   5.657   6.288   6.906
 1518TIP3    H226114   5.536   6.379   6.910
 1519TIP3   OH226115   0.639   2.674   8.182
 1519TIP3    H126116   0.569   2.622   8.143
 1519TIP3    H226117   0.717   2.619   8.174
 1520TIP3   OH226118   4.416   3.594   7.205
 1520TIP3    H126119   4.454   3.631   7.284
 1520TIP3    H226120   4.324   3.621   7.206
 1521TIP3   OH226121   3.667   3.115   1.853
 1521TIP3    H126122   3.616   3.087   1.777
 1521TIP3    H226123   3.740   3.165   1.816
 1522TIP3   OH226124   2.381   2.887   8.283
 1522TIP3    H126125   2.387   2.970   8.328
 1522TIP3    H226126   2.287   2.873   8.269
 1523TIP3   OH226127   3.112   1.733   8.044
 1523TIP3    H126128   3.103   1.738   8.139
 1523TIP3    H226129   3.030   1.767   8.010
 1524TIP3   OH226130   2.526   6.626   7.653
 1524TIP3    H126131   2.513   6.624   7.747
 1524TIP3    H226132   2.568   6.543   7.632
 1525TIP3   OH226133   3.767   0.826   7.878
 1525TIP3    H126134   3.770   0.864   7.965
 1525TIP3    H226135   3.808   0.740   7.887
 1526TIP3   OH226136   4.247   5.138   7.043
 1526TIP3    H126137   4.337   5.107   7.055
 1526TIP3    H226138   4.249   5.184   6.958
 1527TIP3   OH226139   1.947   4.798   8.475
 1527TIP3    H126140   2.005   4.846   8.417
 1527TIP3    H226141   1.975   4.707   8.467
 1528TIP3   OH226142   0.431   1.879   0.947
 1528TIP3    H126143   0.387   1.841   0.870
 1528TIP3    H226144   0.522   1.849   0.938
 1529TIP3   OH226145   2.900   1.694   7.567
 1529TIP3    H126146   2.935   1.777   7.601
 1529TIP3    H226147   2.969   1.661   7.510
 1530TIP3   OH226148   4.896   1.193   7.482
 1530TIP3    H126149   4.822   1.231   7.531
 1530TIP3    H226150   4.963   1.178   7.549
 1531TIP3   OH226151   3.103   1.454   0.919
 1531TIP3    H126152   3.176   1.515   0.907
 1531TIP3    H226153   3.026   1.504   0.891
 1532TIP3   OH226154   4.608   0.663   0.566
 1532TIP3    H126155   4.541   0.624   0.509
 1532TIP3    H226156   4.597   0.618   0.650
 1533TIP3   OH226157   2.641   6.278   2.138
 1533TIP3    H126158   2.648   6.202   2.081
 1533TIP3    H226159   2.619   6.242   2.224
 1534TIP3   OH226160   2.885   1.231   1.665
 1534TIP3    H126161   2.902   1.264   1.577
 1534TIP3    H226162   2.884   1.308   1.721
 1535TIP3   OH226163   5.296   3.526   1.377
 1535TIP3    H126164   5.377   3.477   1.369
 1535TIP3    H226165   5.320   3.604   1.426
 1536TIP3   OH226166   2.135   2.778   0.418
 1536TIP3    H126167   2.069   2.810   0.356
 1536TIP3    H226168   2.210   2.836   0.404
 1537TIP3   OH226169   3.102   0.569   6.188
 1537TIP3    H126170   3.058   0.610   6.113
 1537TIP3    H226171   3.062   0.611   6.264
 1538TIP3   OH226172   0.179   5.011   1.934
 1538TIP3    H126173   0.234   5.045   1.864
 1538TIP3    H226174   0.228   5.029   2.014
 1539TIP3   OH226175   6.298   2.415   8.118
 1539TIP3    H126176   6.281   2.438   8.027
 1539TIP3    H226177   6.212   2.419   8.160
 1540TIP3   OH226178   2.209   4.089   6.414
 1540TIP3    H126179   2.117   4.104   6.390
 1540TIP3    H226180   2.213   3.995   6.433
 1541TIP3   OH226181   3.489   5.720   0.749
 1541TIP3    H126182   3.456   5.809   0.742
 1541TIP3    H226183   3.583   5.728   0.738
 1542TIP3   OH226184   2.674   1.038   1.701
 1542TIP3    H126185   2.756   1.077   1.670
 1542TIP3    H226186   2.700   0.956   1.743
 1543TIP3   OH226187   0.178   0.206   7.097
 1543TIP3    H126188   0.103   0.176   7.148
 1543TIP3    H226189   0.245   0.227   7.162
 1544TIP3   OH226190   4.056   6.774   0.754
 1544TIP3    H126191   3.980   6.757   0.697
 1544TIP3    H226192   4.086   6.861   0.728
 1545TIP3   OH226193   2.927   3.260   6.380
 1545TIP3    H126194   2.965   3.174   6.360
 1545TIP3    H226195   2.991   3.322   6.346
 1546TIP3   OH226196   6.601   1.216   1.208
 1546TIP3    H126197   6.527   1.243   1.154
 1546TIP3    H226198   6.675   1.211   1.147
 1547TIP3   OH226199   4.158   3.495   7.908
 1547TIP3    H126200   4.176   3.426   7.843
 1547TIP3    H226201   4.101   3.453   7.972
 1548TIP3   OH226202   5.707   3.859   7.517
 1548TIP3    H126203   5.719   3.950   7.543
 1548TIP3    H226204   5.624   3.833   7.557
 1549TIP3   OH226205   3.636   1.760   0.619
 1549TIP3    H126206   3.564   1.790   0.564
 1549TIP3    H226207   3.641   1.666   0.601
 1550TIP3   OH226208   1.505   1.060   8.476
 1550TIP3    H126209   1.411   1.046   8.471
 1550TIP3    H226210   1.519   1.102   8.561
 1551TIP3   OH226211   2.053   4.807   7.376
 1551TIP3    H126212   1.987   4.777   7.440
 1551TIP3    H226213   2.029   4.763   7.295
 1552TIP3   OH226214   0.731   6.868   7.814
 1552TIP3    H126215   0.727   0.025   7.891
 1552TIP3    H226216   0.759   6.783   7.847
 1553TIP3   OH226217   5.085   5.334   0.615
 1553TIP3    H126218   5.018   5.393   0.581
 1553TIP3    H226219   5.153   5.334   0.548
 1554TIP3   OH226220   1.608   5.014   0.034
 1554TIP3    H126221   1.583   5.098   0.073
 1554TIP3    H226222   1.536   4.955   0.055
 1555TIP3   OH226223   2.755   4.883   1.799
 1555TIP3    H126224   2.678   4.846   1.841
 1555TIP3    H226225   2.781   4.816   1.734
 1556TIP3   OH226226   6.750   1.516   8.583
 1556TIP3    H126227   6.787   1.461   8.514
 1556TIP3    H226228   6.664   1.541   8.549
 1557TIP3   OH226229   0.323   3.182   6.469
 1557TIP3    H126230   0.332   3.155   6.378
 1557TIP3    H226231   0.296   3.274   6.464
 1558TIP3   OH226232   2.504   0.074   7.891
 1558TIP3    H126233   2.569   0.138   7.920
 1558TIP3    H226234   2.545   6.889   7.905
 1559TIP3   OH226235   2.910   3.627   7.948
 1559TIP3    H126236   2.873   3.686   8.013
 1559TIP3    H226237   3.002   3.617   7.974
 1560TIP3   OH226238   3.355   5.411   1.336
 1560TIP3    H126239   3.381   5.322   1.360
 1560TIP3    H226240   3.298   5.399   1.260
 1561TIP3   OH226241   6.039   3.691   7.420
 1561TIP3    H126242   6.104   3.682   7.350
 1561TIP3    H226243   5.958   3.713   7.374
 1562TIP3   OH226244   6.496   0.646   1.486
 1562TIP3    H126245   6.590   0.635   1.471
 1562TIP3    H226246   6.486   0.631   1.580
 1563TIP3   OH226247   4.152   1.617   7.748
 1563TIP3    H126248   4.117   1.572   7.671
 1563TIP3    H226249   4.178   1.546   7.807
 1564TIP3   OH226250   1.124   4.757   0.255
 1564TIP3    H126251   1.183   4.748   0.329
 1564TIP3    H226252   1.071   4.677   0.257
 1565TIP3   OH226253   6.075   2.315   1.381
 1565TIP3    H126254   5.999   2.257   1.390
 1565TIP3    H226255   6.124   2.278   1.308
 1566TIP3   OH226256   4.787   2.183   7.221
 1566TIP3    H126257   4.746   2.197   7.306
 1566TIP3    H226258   4.877   2.156   7.241
 1567TIP3   OH226259   2.308   4.397   8.526
 1567TIP3    H126260   2.372   4.379   8.595
 1567TIP3    H226261   2.286   4.311   8.490
 1568TIP3   OH226262   4.316   2.472   1.276
 1568TIP3    H126263   4.380   2.542   1.259
 1568TIP3    H226264   4.257   2.474   1.201
 1569TIP3   OH226265   1.366   1.327   0.297
 1569TIP3    H126266   1.277   1.291   0.295
 1569TIP3    H226267   1.354   1.422   0.295
 1570TIP3   OH226268   6.599   2.011   8.140
 1570TIP3    H126269   6.622   1.955   8.214
 1570TIP3    H226270   6.683   2.040   8.105
 1571TIP3   OH226271   5.092   0.413   1.132
 1571TIP3    H126272   5.080   0.350   1.203
 1571TIP3    H226273   5.065   0.365   1.053
 1572TIP3   OH226274   4.454   3.755   7.845
 1572TIP3    H126275   4.401   3.715   7.914
 1572TIP3    H226276   4.469   3.685   7.782
 1573TIP3   OH226277   4.847   2.072   0.696
 1573TIP3    H126278   4.808   2.066   0.783
 1573TIP3    H226279   4.774   2.095   0.639
 1574TIP3   OH226280   4.852   2.369   1.640
 1574TIP3    H126281   4.797   2.296   1.611
 1574TIP3    H226282   4.827   2.442   1.584
 1575TIP3   OH226283   0.841   6.292   5.840
 1575TIP3    H126284   0.762   6.250   5.804
 1575TIP3    H226285   0.889   6.322   5.763
 1576TIP3   OH226286   1.345   3.952   1.016
 1576TIP3    H126287   1.288   3.904   0.957
 1576TIP3    H226288   1.434   3.931   0.986
 1577TIP3   OH226289   1.448   6.303   8.280
 1577TIP3    H126290   1.511   6.271   8.345
 1577TIP3    H226291   1.489   6.381   8.243
 1578TIP3   OH226292   4.095   0.193   1.176
 1578TIP3    H126293   4.108   0.098   1.170
 1578TIP3    H226294   4.046   0.216   1.097
 1579TIP3   OH226295   5.260   1.469   0.217
 1579TIP3    H126296   5.286   1.396   0.160
 1579TIP3    H226297   5.193   1.432   0.274
 1580TIP3   OH226298   1.386   2.089   8.223
 1580TIP3    H126299   1.346   2.176   8.222
 1580TIP3    H226300   1.475   2.104   8.191
 1581TIP3   OH226301   6.036   5.608   1.296
 1581TIP3    H126302   6.026   5.657   1.214
 1581TIP3    H226303   5.947   5.584   1.320
 1582TIP3   OH226304   0.425   2.028   8.046
 1582TIP3    H126305   0.405   2.122   8.037
 1582TIP3    H226306   0.475   2.022   8.128
 1583TIP3   OH226307   3.732   5.981   1.055
 1583TIP3    H126308   3.688   6.041   0.995
 1583TIP3    H226309   3.661   5.943   1.107
 1584TIP3   OH226310   0.478   0.352   5.916
 1584TIP3    H126311   0.422   0.369   5.841
 1584TIP3    H226312   0.521   0.269   5.896
 1585TIP3   OH226313   3.575   2.267   1.069
 1585TIP3    H126314   3.498   2.320   1.052
 1585TIP3    H226315   3.649   2.327   1.060
 1586TIP3   OH226316   1.967   1.357   7.319
 1586TIP3    H126317   1.998   1.437   7.276
 1586TIP3    H226318   1.983   1.288   7.255
 1587TIP3   OH226319   1.285   1.905   0.860
 1587TIP3    H126320   1.192   1.907   0.839
 1587TIP3    H226321   1.288   1.888   0.954
 1588TIP3   OH226322   4.583   4.518   7.956
 1588TIP3    H126323   4.638   4.495   8.031
 1588TIP3    H226324   4.608   4.608   7.936
 1589TIP3   OH226325   4.259   5.747   0.020
 1589TIP3    H126326   4.296   5.822   8.592
 1589TIP3    H226327   4.166   5.765   0.025
 1590TIP3   OH226328   6.385   6.165   5.763
 1590TIP3    H126329   6.373   6.201   5.675
 1590TIP3    H226330   6.359   6.236   5.821
 1591TIP3   OH226331   5.407   2.684   0.595
 1591TIP3    H126332   5.434   2.725   0.513
 1591TIP3    H226333   5.395   2.591   0.572
 1592TIP3   OH226334   0.763   5.358   8.024
 1592TIP3    H126335   0.671   5.375   8.046
 1592TIP3    H226336   0.760   5.321   7.936
 1593TIP3   OH226337   6.472   0.311   7.798
 1593TIP3    H126338   6.558   0.304   7.840
 1593TIP3    H226339   6.460   0.227   7.753
 1594TIP3   OH226340   6.807   1.364   0.845
 1594TIP3    H126341   6.788   1.297   0.910
 1594TIP3    H226342   6.770   1.444   0.881
 1595TIP3   OH226343   2.487   6.400   1.654
 1595TIP3    H126344   2.468   6.400   1.748
 1595TIP3    H226345   2.546   6.326   1.641
 1596TIP3   OH226346   4.530   6.181   0.659
 1596TIP3    H126347   4.586   6.118   0.703
 1596TIP3    H226348   4.519   6.146   0.571
 1597TIP3   OH226349   5.641   5.078   8.310
 1597TIP3    H126350   5.673   5.003   8.361
 1597TIP3    H226351   5.548   5.059   8.296
 1598TIP3   OH226352   5.196   6.787   1.511
 1598TIP3    H126353   5.226   6.796   1.602
 1598TIP3    H226354   5.100   6.792   1.518
 1599TIP3   OH226355   3.516   1.916   1.948
 1599TIP3    H126356   3.473   1.976   1.888
 1599TIP3    H226357   3.481   1.939   2.034
 1600TIP3   OH226358   4.269   5.873   0.455
 1600TIP3    H126359   4.297   5.800   0.399
 1600TIP3    H226360   4.188   5.842   0.495
 1601TIP3   OH226361   1.741   1.660   8.314
 1601TIP3    H126362   1.706   1.749   8.320
 1601TIP3    H226363   1.704   1.615   8.390
 1602TIP3   OH226364   3.186   0.528   6.697
 1602TIP3    H126365   3.110   0.472   6.710
 1602TIP3    H226366   3.151   0.611   6.666
 1603TIP3   OH226367   0.938   1.390   8.384
 1603TIP3    H126368   0.964   1.299   8.398
 1603TIP3    H226369   1.019   1.435   8.361
 1604TIP3   OH226370   6.182   6.216   1.504
 1604TIP3    H126371   6.141   6.230   1.419
 1604TIP3    H226372   6.275   6.234   1.490
 1605TIP3   OH226373   0.168   2.560   7.875
 1605TIP3    H126374   0.135   2.542   7.787
 1605TIP3    H226375   0.174   2.656   7.879
 1606TIP3   OH226376   6.045   1.814   8.075
 1606TIP3    H126377   6.078   1.744   8.131
 1606TIP3    H226378   6.107   1.818   8.002
 1607TIP3   OH226379   2.699   0.912   7.536
 1607TIP3    H126380   2.771   0.955   7.490
 1607TIP3    H226381   2.623   0.968   7.521
 1608TIP3   OH226382   5.202   1.515   1.450
 1608TIP3    H126383   5.119   1.474   1.474
 1608TIP3    H226384   5.209   1.500   1.355
 1609TIP3   OH226385   0.025   0.095   7.383
 1609TIP3    H126386   0.080   0.108   7.460
 1609TIP3    H226387   6.837   0.079   7.419
 1610TIP3   OH226388   2.878   3.230   7.167
 1610TIP3    H126389   2.963   3.195   7.194
 1610TIP3    H226390   2.814   3.167   7.202
 1611TIP3   OH226391   4.162   1.044   8.552
 1611TIP3    H126392   4.081   1.082   8.518
 1611TIP3    H226393   4.226   1.057   8.482
 1612TIP3   OH226394   5.151   4.254   7.079
 1612TIP3    H126395   5.230   4.207   7.105
 1612TIP3    H226396   5.127   4.214   6.995
 1613TIP3   OH226397   0.985   3.576   7.469
 1613TIP3    H126398   0.997   3.486   7.440
 1613TIP3    H226399   1.073   3.609   7.482
 1614TIP3   OH226400   0.118   0.716   2.148
 1614TIP3    H126401   0.139   0.625   2.131
 1614TIP3    H226402   0.107   0.722   2.243
 1615TIP3   OH226403   5.890   6.744   0.752
 1615TIP3    H126404   5.840   6.736   0.833
 1615TIP3    H226405   5.830   6.787   0.691
 1616TIP3   OH226406   1.489   4.396   1.028
 1616TIP3    H126407   1.580   4.399   0.998
 1616TIP3    H226408   1.440   4.443   0.960
 1617TIP3   OH226409   5.543   0.215   6.119
 1617TIP3    H126410   5.562   0.218   6.025
 1617TIP3    H226411   5.518   0.305   6.141
 1618TIP3   OH226412   2.965   6.734   7.174
 1618TIP3    H126413   2.947   6.740   7.268
 1618TIP3    H226414   2.880   6.711   7.135
 1619TIP3   OH226415   6.362   0.029   6.003
 1619TIP3    H126416   6.406   0.090   6.063
 1619TIP3    H226417   6.270   0.031   6.030
 1620TIP3   OH226418   6.700   0.538   6.569
 1620TIP3    H126419   6.775   0.514   6.624
 1620TIP3    H226420   6.739   0.579   6.492
 1621TIP3   OH226421   6.826   4.229   7.909
 1621TIP3    H126422   6.885   4.217   7.834
 1621TIP3    H226423   6.861   4.171   7.977
 1622TIP3   OH226424   4.343   4.362   1.417
 1622TIP3    H126425   4.342   4.362   1.321
 1622TIP3    H226426   4.434   4.344   1.440
 1623TIP3   OH226427   5.087   6.177   1.964
 1623TIP3    H126428   5.129   6.091   1.958
 1623TIP3    H226429   4.998   6.158   1.994
 1624TIP3   OH226430   6.244   0.315   7.300
 1624TIP3    H126431   6.290   0.397   7.281
 1624TIP3    H226432   6.192   0.334   7.377
 1625TIP3   OH226433   6.205   5.823   8.365
 1625TIP3    H126434   6.258   5.745   8.382
 1625TIP3    H226435   6.115   5.790   8.363
 1626TIP3   OH226436   4.030   4.014   1.173
 1626TIP3    H126437   3.988   3.931   1.193
 1626TIP3    H226438   4.009   4.070   1.248
 1627TIP3   OH226439   2.779   3.310   0.492
 1627TIP3    H126440   2.874   3.296   0.496
 1627TIP3    H226441   2.768   3.378   0.426
 1628TIP3   OH226442   3.944   2.426   0.261
 1628TIP3    H126443   4.029   2.438   0.305
 1628TIP3    H226444   3.879   2.440   0.330
 1629TIP3   OH226445   4.277   5.357   1.727
 1629TIP3    H126446   4.234   5.272   1.723
 1629TIP3    H226447   4.229   5.404   1.796
 1630TIP3   OH226448   2.087   5.922   0.567
 1630TIP3    H126449   2.100   5.948   0.476
 1630TIP3    H226450   2.148   5.849   0.580
 1631TIP3   OH226451   3.396   6.020   0.764
 1631TIP3    H126452   3.364   6.014   0.854
 1631TIP3    H226453   3.340   6.087   0.724
 1632TIP3   OH226454   4.547   2.408   1.566
 1632TIP3    H126455   4.620   2.447   1.519
 1632TIP3    H226456   4.550   2.448   1.653
 1633TIP3   OH226457   2.009   6.071   2.168
 1633TIP3    H126458   2.038   6.042   2.255
 1633TIP3    H226459   1.965   5.995   2.131
 1634TIP3   OH226460   5.480   2.505   7.918
 1634TIP3    H126461   5.469   2.424   7.868
 1634TIP3    H226462   5.474   2.478   8.010
 1635TIP3   OH226463   6.364   5.974   8.200
 1635TIP3    H126464   6.434   5.916   8.169
 1635TIP3    H226465   6.311   5.920   8.258
 1636TIP3   OH226466   3.444   2.570   7.935
 1636TIP3    H126467   3.360   2.537   7.900
 1636TIP3    H226468   3.446   2.538   8.025
 1637TIP3   OH226469   5.603   4.826   6.842
 1637TIP3    H126470   5.627   4.740   6.809
 1637TIP3    H226471   5.516   4.815   6.879
 1638TIP3   OH226472   4.905   4.386   0.579
 1638TIP3    H126473   4.997   4.365   0.595
 1638TIP3    H226474   4.904   4.427   0.493
 1639TIP3   OH226475   0.900   2.426   1.579
 1639TIP3    H126476   0.910   2.421   1.674
 1639TIP3    H226477   0.977   2.380   1.544
 1640TIP3   OH226478   4.126   5.234   2.512
 1640TIP3    H126479   4.169   5.148   2.524
 1640TIP3    H226480   4.086   5.229   2.426
 1641TIP3   OH226481   3.016   2.129   7.551
 1641TIP3    H126482   2.942   2.103   7.496
 1641TIP3    H226483   3.091   2.132   7.490
 1642TIP3   OH226484   2.183   1.858   0.000
 1642TIP3    H126485   2.210   1.926   0.062
 1642TIP3    H226486   2.139   1.793   0.054
 1643TIP3   OH226487   2.568   0.704   0.970
 1643TIP3    H126488   2.482   0.745   0.963
 1643TIP3    H226489   2.624   0.754   0.910
 1644TIP3   OH226490   5.947   3.501   1.126
 1644TIP3    H126491   5.902   3.476   1.207
 1644TIP3    H226492   5.994   3.581   1.148
 1645TIP3   OH226493   2.095   6.204   1.178
 1645TIP3    H126494   2.018   6.223   1.232
 1645TIP3    H226495   2.168   6.241   1.227
 1646TIP3   OH226496   3.203   4.647   7.096
 1646TIP3    H126497   3.229   4.651   7.004
 1646TIP3    H226498   3.276   4.603   7.139
 1647TIP3   OH226499   5.904   6.272   7.262
 1647TIP3    H126500   5.814   6.301   7.274
 1647TIP3    H226501   5.957   6.351   7.274
 1648TIP3   OH226502   2.530   3.671   7.363
 1648TIP3    H126503   2.508   3.749   7.311
 1648TIP3    H226504   2.452   3.655   7.416
 1649TIP3   OH226505   5.420   5.153   0.739
 1649TIP3    H126506   5.502   5.104   0.731
 1649TIP3    H226507   5.369   5.127   0.662
 1650TIP3   OH226508   0.428   1.675   7.262
 1650TIP3    H126509   0.409   1.640   7.175
 1650TIP3    H226510   0.521   1.660   7.274
 1651TIP3   OH226511   2.761   5.748   8.554
 1651TIP3    H126512   2.711   5.674   8.589
 1651TIP3    H226513   2.839   5.709   8.516
 1652TIP3   OH226514   3.017   0.155   2.026
 1652TIP3    H126515   2.942   0.212   2.044
 1652TIP3    H226516   3.016   0.091   2.098
 1653TIP3   OH226517   2.704   6.666   7.114
 1653TIP3    H126518   2.658   6.638   7.193
 1653TIP3    H226519   2.669   6.611   7.045
 1654TIP3   OH226520   0.920   5.542   0.180
 1654TIP3    H126521   0.907   5.471   0.117
 1654TIP3    H226522   0.952   5.497   0.259
 1655TIP3   OH226523   1.922   2.772   0.218
 1655TIP3    H126524   1.877   2.689   0.204
 1655TIP3    H226525   1.863   2.822   0.274
 1656TIP3   OH226526   1.120   2.730   7.366
 1656TIP3    H126527   1.209   2.741   7.331
 1656TIP3    H226528   1.125   2.765   7.455
 1657TIP3   OH226529   0.426   1.743   7.965
 1657TIP3    H126530   0.435   1.838   7.952
 1657TIP3    H226531   0.508   1.718   8.007
 1658TIP3   OH226532   2.899   5.107   2.089
 1658TIP3    H126533   2.970   5.156   2.130
 1658TIP3    H226534   2.940   5.063   2.015
 1659TIP3   OH226535   2.181   5.963   8.315
 1659TIP3    H126536   2.103   6.015   8.300
 1659TIP3    H226537   2.179   5.944   8.409
 1660TIP3   OH226538   1.073   4.007   6.535
 1660TIP3    H126539   1.039   4.053   6.458
 1660TIP3    H226540   0.999   4.003   6.595
 1661TIP3   OH226541   2.853   3.934   7.884
 1661TIP3    H126542   2.818   3.889   7.961
 1661TIP3    H226543   2.824   3.881   7.810
 1662TIP3   OH226544   6.764   1.123   0.994
 1662TIP3    H126545   6.782   1.083   0.909
 1662TIP3    H226546   6.688   1.075   1.027
 1663TIP3   OH226547   1.920   4.271   1.575
 1663TIP3    H126548   1.937   4.198   1.635
 1663TIP3    H226549   1.888   4.342   1.631
 1664TIP3   OH226550   6.669   1.649   0.655
 1664TIP3    H126551   6.708   1.647   0.568
 1664TIP3    H226552   6.629   1.563   0.665
 1665TIP3   OH226553   0.854   4.310   0.590
 1665TIP3    H126554   0.868   4.230   0.641
 1665TIP3    H226555   0.925   4.368   0.615
 1666TIP3   OH226556   2.630   1.574   1.932
 1666TIP3    H126557   2.569   1.629   1.882
 1666TIP3    H226558   2.637   1.494   1.880
 1667TIP3   OH226559   3.678   1.275   1.488
 1667TIP3    H126560   3.749   1.293   1.549
 1667TIP3    H226561   3.708   1.199   1.438
 1668TIP3   OH226562   6.772   3.505   7.003
 1668TIP3    H126563   6.714   3.547   7.066
 1668TIP3    H226564   6.718   3.493   6.925
 1669TIP3   OH226565   3.112   5.577   0.578
 1669TIP3    H126566   3.059   5.650   0.610
 1669TIP3    H226567   3.072   5.553   0.495
 1670TIP3   OH226568   6.822   4.324   0.472
 1670TIP3    H126569   6.892   4.268   0.437
 1670TIP3    H226570   6.846   4.338   0.563
 1671TIP3   OH226571   6.619   0.586   7.682
 1671TIP3    H126572   6.713   0.602   7.671
 1671TIP3    H226573   6.606   0.497   7.649
 1672TIP3   OH226574   0.737   3.130   7.612
 1672TIP3    H126575   0.772   3.094   7.531
 1672TIP3    H226576   0.770   3.220   7.615
 1673TIP3   OH226577   0.418   0.571   2.006
 1673TIP3    H126578   0.456   0.638   2.062
 1673TIP3    H226579   0.342   0.613   1.966
 1674TIP3   OH226580   6.028   4.659   0.716
 1674TIP3    H126581   6.015   4.649   0.621
 1674TIP3    H226582   5.989   4.743   0.738
 1675TIP3   OH226583   5.717   3.716   6.627
 1675TIP3    H126584   5.684   3.637   6.668
 1675TIP3    H226585   5.654   3.736   6.558
 1676TIP3   OH226586   6.146   1.968   1.595
 1676TIP3    H126587   6.051   1.959   1.586
 1676TIP3    H226588   6.166   1.925   1.678
 1677TIP3   OH226589   5.048   0.430   8.148
 1677TIP3    H126590   5.019   0.341   8.165
 1677TIP3    H226591   5.000   0.457   8.069
 1678TIP3   OH226592   4.103   0.018   0.079
 1678TIP3    H126593   4.118   0.068   0.159
 1678TIP3    H226594   4.149   6.835   0.094
 1679TIP3   OH226595   6.206   6.584   7.695
 1679TIP3    H126596   6.262   6.555   7.767
 1679TIP3    H226597   6.218   6.518   7.627
 1680TIP3   OH226598   2.617   2.040   7.586
 1680TIP3    H126599   2.708   2.068   7.597
 1680TIP3    H226600   2.584   2.094   7.514
 1681TIP3   OH226601   2.935   2.231   6.707
 1681TIP3    H126602   2.884   2.210   6.785
 1681TIP3    H226603   2.873   2.220   6.635
 1682TIP3   OH226604   2.080   3.813   6.994
 1682TIP3    H126605   2.000   3.775   6.957
 1682TIP3    H226606   2.110   3.874   6.926
 1683TIP3   OH226607   3.630   0.681   0.077
 1683TIP3    H126608   3.553   0.636   0.110
 1683TIP3    H226609   3.689   0.611   0.048
 1684TIP3   OH226610   2.128   0.779   6.032
 1684TIP3    H126611   2.208   0.778   5.980
 1684TIP3    H226612   2.133   0.858   6.085
 1685TIP3   OH226613   5.924   1.468   1.573
 1685TIP3    H126614   5.981   1.540   1.599
 1685TIP3    H226615   5.981   1.412   1.519
 1686TIP3   OH226616   0.840   4.062   7.074
 1686TIP3    H126617   0.789   4.122   7.018
 1686TIP3    H226618   0.794   3.978   7.065
 1687TIP3   OH226619   6.832   1.259   7.793
 1687TIP3    H126620   6.803   1.309   7.716
 1687TIP3    H226621   6.845   1.326   7.860
 1688TIP3   OH226622   2.869   0.607   7.652
 1688TIP3    H126623   2.931   0.610   7.579
 1688TIP3    H226624   2.865   0.697   7.684
 1689TIP3   OH226625   2.033   6.671   0.987
 1689TIP3    H126626   1.954   6.644   0.941
 1689TIP3    H226627   2.024   6.766   0.997
 1690TIP3   OH226628   6.264   5.330   8.412
 1690TIP3    H126629   6.204   5.293   8.348
 1690TIP3    H226630   6.260   5.425   8.397
 1691TIP3   OH226631   3.655   0.763   1.436
 1691TIP3    H126632   3.588   0.796   1.376
 1691TIP3    H226633   3.613   0.763   1.522
 1692TIP3   OH226634   5.885   0.318   6.357
 1692TIP3    H126635   5.898   0.397   6.410
 1692TIP3    H226636   5.881   0.350   6.267
 1693TIP3   OH226637   4.595   1.246   7.281
 1693TIP3    H126638   4.638   1.310   7.338
 1693TIP3    H226639   4.597   1.287   7.195
 1694TIP3   OH226640   2.806   6.207   8.366
 1694TIP3    H126641   2.847   6.220   8.280
 1694TIP3    H226642   2.805   6.112   8.378
 1695TIP3   OH226643   6.752   0.846   7.547
 1695TIP3    H126644   6.770   0.894   7.467
 1695TIP3    H226645   6.766   0.754   7.523
 1696TIP3   OH226646   2.439   1.058   7.612
 1696TIP3    H126647   2.477   1.019   7.691
 1696TIP3    H226648   2.373   0.995   7.584
 1697TIP3   OH226649   5.891   6.578   1.298
 1697TIP3    H126650   5.905   6.635   1.374
 1697TIP3    H226651   5.800   6.592   1.273
 1698TIP3   OH226652   6.299   2.653   2.092
 1698TIP3    H126653   6.381   2.637   2.141
 1698TIP3    H226654   6.232   2.660   2.160
 1699TIP3   OH226655   2.946   2.513   7.734
 1699TIP3    H126656   2.892   2.512   7.654
 1699TIP3    H226657   3.030   2.549   7.706
 1700TIP3   OH226658   0.789   5.159   0.278
 1700TIP3    H126659   0.835   5.224   0.225
 1700TIP3    H226660   0.850   5.085   0.284
 1701TIP3   OH226661   2.852   1.838   8.087
 1701TIP3    H126662   2.814   1.893   8.018
 1701TIP3    H226663   2.779   1.783   8.116
 1702TIP3   OH226664   1.652   5.079   2.325
 1702TIP3    H126665   1.731   5.062   2.376
 1702TIP3    H226666   1.607   5.148   2.374
 1703TIP3   OH226667   0.542   6.705   2.157
 1703TIP3    H126668   0.462   6.731   2.202
 1703TIP3    H226669   0.555   6.613   2.182
 1704TIP3   OH226670   0.583   6.813   1.892
 1704TIP3    H126671   0.517   6.882   1.888
 1704TIP3    H226672   0.551   6.753   1.960
 1705TIP3   OH226673   0.407   3.314   0.444
 1705TIP3    H126674   0.454   3.319   0.528
 1705TIP3    H226675   0.415   3.402   0.407
 1706TIP3   OH226676   1.787   0.055   7.014
 1706TIP3    H126677   1.736   0.074   6.935
 1706TIP3    H226678   1.786   6.860   7.022
 1707TIP3   OH226679   3.821   0.946   0.392
 1707TIP3    H126680   3.800   0.993   0.311
 1707TIP3    H226681   3.897   0.893   0.370
 1708TIP3   OH226682   1.262   6.247   6.833
 1708TIP3    H126683   1.170   6.267   6.845
 1708TIP3    H226684   1.283   6.280   6.745
 1709TIP3   OH226685   0.658   5.656   6.229
 1709TIP3    H126686   0.593   5.651   6.299
 1709TIP3    H226687   0.623   5.600   6.160
 1710TIP3   OH226688   5.907   2.537   0.124
 1710TIP3    H126689   5.912   2.452   0.080
 1710TIP3    H226690   5.991   2.545   0.170
 1711TIP3   OH226691   6.108   0.162   6.559
 1711TIP3    H126692   6.118   0.256   6.575
 1711TIP3    H226693   6.170   0.121   6.620
 1712TIP3   OH226694   6.326   3.973   0.398
 1712TIP3    H126695   6.386   4.009   0.463
 1712TIP3    H226696   6.378   3.969   0.317
 1713TIP3   OH226697   6.595   4.040   2.435
 1713TIP3    H126698   6.595   4.135   2.426
 1713TIP3    H226699   6.512   4.012   2.395
 1714TIP3   OH226700   2.461   5.094   0.812
 1714TIP3    H126701   2.396   5.094   0.882
 1714TIP3    H226702   2.410   5.103   0.732
 1715TIP3   OH226703   5.491   1.905   6.996
 1715TIP3    H126704   5.533   1.967   7.056
 1715TIP3    H226705   5.399   1.905   7.021
 1716TIP3   OH226706   1.462   0.460   1.304
 1716TIP3    H126707   1.543   0.422   1.270
 1716TIP3    H226708   1.423   0.390   1.357
 1717TIP3   OH226709   4.429   0.399   6.315
 1717TIP3    H126710   4.355   0.428   6.368
 1717TIP3    H226711   4.415   0.305   6.303
 1718TIP3   OH226712   1.108   4.724   0.949
 1718TIP3    H126713   1.161   4.791   0.992
 1718TIP3    H226714   1.057   4.771   0.884
 1719TIP3   OH226715   1.557   3.872   0.236
 1719TIP3    H126716   1.639   3.824   0.245
 1719TIP3    H226717   1.495   3.807   0.200
 1720TIP3   OH226718   3.231   4.145   0.658
 1720TIP3    H126719   3.255   4.234   0.684
 1720TIP3    H226720   3.294   4.089   0.703
 1721TIP3   OH226721   5.294   2.251   1.654
 1721TIP3    H126722   5.235   2.300   1.711
 1721TIP3    H226723   5.237   2.191   1.606
 1722TIP3   OH226724   4.970   0.378   1.419
 1722TIP3    H126725   5.050   0.327   1.403
 1722TIP3    H226726   4.904   0.313   1.441
 1723TIP3   OH226727   5.408   4.170   0.435
 1723TIP3    H126728   5.498   4.139   0.424
 1723TIP3    H226729   5.368   4.108   0.496
 1724TIP3   OH226730   5.282   6.504   6.594
 1724TIP3    H126731   5.189   6.494   6.618
 1724TIP3    H226732   5.282   6.510   6.499
 1725TIP3   OH226733   5.605   5.955   0.465
 1725TIP3    H126734   5.659   5.921   0.394
 1725TIP3    H226735   5.548   6.020   0.423
 1726TIP3   OH226736   4.126   2.646   0.830
 1726TIP3    H126737   4.186   2.625   0.758
 1726TIP3    H226738   4.066   2.710   0.793
 1727TIP3   OH226739   6.893   1.773   1.596
 1727TIP3    H126740   6.807   1.733   1.596
 1727TIP3    H226741   6.885   1.849   1.655
 1728TIP3   OH226742   6.837   2.685   5.936
 1728TIP3    H126743   6.796   2.676   5.850
 1728TIP3    H226744   6.793   2.619   5.990
 1729TIP3   OH226745   0.629   0.529   0.939
 1729TIP3    H126746   0.590   0.469   0.875
 1729TIP3    H226747   0.699   0.573   0.891
 1730TIP3   OH226748   2.984   0.055   0.237
 1730TIP3    H126749   2.968   0.149   0.235
 1730TIP3    H226750   2.981   0.031   0.329
 1731TIP3   OH226751   2.577   2.202   1.679
 1731TIP3    H126752   2.555   2.184   1.770
 1731TIP3    H226753   2.523   2.278   1.656
 1732TIP3   OH226754   5.748   4.056   1.714
 1732TIP3    H126755   5.819   4.069   1.652
 1732TIP3    H226756   5.770   4.112   1.788
 1733TIP3   OH226757   2.001   0.513   0.115
 1733TIP3    H126758   1.940   0.455   0.160
 1733TIP3    H226759   1.951   0.552   0.044
 1734TIP3   OH226760   3.929   4.106   1.671
 1734TIP3    H126761   3.997   4.173   1.677
 1734TIP3    H226762   3.974   4.024   1.693
 1735TIP3   OH226763   4.518   0.359   6.732
 1735TIP3    H126764   4.451   0.333   6.669
 1735TIP3    H226765   4.489   0.445   6.763
 1736TIP3   OH226766   1.500   0.227   7.503
 1736TIP3    H126767   1.532   0.138   7.521
 1736TIP3    H226768   1.425   0.213   7.445
 1737TIP3   OH226769   2.385   0.254   6.955
 1737TIP3    H126770   2.382   0.349   6.963
 1737TIP3    H226771   2.402   0.223   7.044
 1738TIP3   OH226772   1.212   2.756   1.335
 1738TIP3    H126773   1.139   2.754   1.397
 1738TIP3    H226774   1.172   2.738   1.250
 1739TIP3   OH226775   1.395   6.346   7.614
 1739TIP3    H126776   1.465   6.372   7.674
 1739TIP3    H226777   1.431   6.362   7.527
 1740TIP3   OH226778   2.715   2.276   1.451
 1740TIP3    H126779   2.643   2.269   1.388
 1740TIP3    H226780   2.678   2.243   1.533
 1741TIP3   OH226781   1.288   2.752   6.781
 1741TIP3    H126782   1.270   2.839   6.746
 1741TIP3    H226783   1.284   2.695   6.704
 1742TIP3   OH226784   5.929   1.176   1.743
 1742TIP3    H126785   5.962   1.137   1.662
 1742TIP3    H226786   5.848   1.220   1.718
 1743TIP3   OH226787   5.334   6.445   1.600
 1743TIP3    H126788   5.289   6.397   1.530
 1743TIP3    H226789   5.276   6.435   1.676
 1744TIP3   OH226790   1.164   1.014   7.793
 1744TIP3    H126791   1.093   1.017   7.730
 1744TIP3    H226792   1.133   1.065   7.868
 1745TIP3   OH226793   1.303   1.950   7.308
 1745TIP3    H126794   1.274   1.940   7.218
 1745TIP3    H226795   1.278   2.039   7.332
 1746TIP3   OH226796   3.271   3.315   0.823
 1746TIP3    H126797   3.232   3.392   0.780
 1746TIP3    H226798   3.358   3.307   0.783
 1747TIP3   OH226799   4.598   1.173   0.553
 1747TIP3    H126800   4.658   1.101   0.572
 1747TIP3    H226801   4.590   1.220   0.636
 1748TIP3   OH226802   5.818   4.719   1.843
 1748TIP3    H126803   5.857   4.765   1.769
 1748TIP3    H226804   5.892   4.680   1.889
 1749TIP3   OH226805   4.273   4.225   8.440
 1749TIP3    H126806   4.314   4.310   8.454
 1749TIP3    H226807   4.255   4.192   8.528
 1750TIP3   OH226808   5.556   2.577   1.111
 1750TIP3    H126809   5.499   2.503   1.091
 1750TIP3    H226810   5.589   2.559   1.199
 1751TIP3   OH226811   6.737   3.393   1.908
 1751TIP3    H126812   6.698   3.387   1.995
 1751TIP3    H226813   6.819   3.344   1.914
 1752TIP3   OH226814   3.825   4.442   0.405
 1752TIP3    H126815   3.733   4.467   0.393
 1752TIP3    H226816   3.835   4.363   0.351
 1753TIP3   OH226817   1.691   0.298   1.241
 1753TIP3    H126818   1.770   0.260   1.281
 1753TIP3    H226819   1.626   0.228   1.246
 1754TIP3   OH226820   4.446   2.177   1.386
 1754TIP3    H126821   4.353   2.182   1.363
 1754TIP3    H226822   4.470   2.267   1.410
 1755TIP3   OH226823   2.469   3.207   8.079
 1755TIP3    H126824   2.456   3.245   8.166
 1755TIP3    H226825   2.536   3.262   8.038
 1756TIP3   OH226826   0.924   5.525   1.365
 1756TIP3    H126827   0.882   5.481   1.292
 1756TIP3    H226828   0.993   5.579   1.325
 1757TIP3   OH226829   4.473   6.735   0.161
 1757TIP3    H126830   4.377   6.735   0.163
 1757TIP3    H226831   4.496   6.828   0.150
 1758TIP3   OH226832   3.550   5.289   2.116
 1758TIP3    H126833   3.560   5.214   2.057
 1758TIP3    H226834   3.470   5.270   2.166
 1759TIP3   OH226835   0.570   6.007   6.655
 1759TIP3    H126836   0.517   5.942   6.700
 1759TIP3    H226837   0.518   6.031   6.578
 1760TIP3   OH226838   0.635   6.253   1.161
 1760TIP3    H126839   0.613   6.295   1.078
 1760TIP3    H226840   0.726   6.224   1.150
 1761TIP3   OH226841   5.747   6.032   0.697
 1761TIP3    H126842   5.680   6.022   0.629
 1761TIP3    H226843   5.830   6.023   0.651
 1762TIP3   OH226844   5.254   3.210   0.212
 1762TIP3    H126845   5.224   3.123   0.184
 1762TIP3    H226846   5.338   3.194   0.254
 1763TIP3   OH226847   2.929   4.092   6.942
 1763TIP3    H126848   3.012   4.045   6.947
 1763TIP3    H226849   2.941   4.156   6.872
 1764TIP3   OH226850   0.238   1.288   2.307
 1764TIP3    H126851   0.249   1.327   2.220
 1764TIP3    H226852   0.206   1.360   2.361
 1765TIP3   OH226853   0.111   6.236   8.021
 1765TIP3    H126854   0.077   6.292   7.951
 1765TIP3    H226855   0.151   6.162   7.975
 1766TIP3   OH226856   3.044   2.234   1.668
 1766TIP3    H126857   3.103   2.254   1.741
 1766TIP3    H226858   2.979   2.175   1.706
 1767TIP3   OH226859   2.654   5.127   1.637
 1767TIP3    H126860   2.688   5.065   1.701
 1767TIP3    H226861   2.701   5.208   1.655
 1768TIP3   OH226862   1.269   4.944   1.004
 1768TIP3    H126863   1.333   5.007   0.969
 1768TIP3    H226864   1.242   4.982   1.087
 1769TIP3   OH226865   2.922   4.466   7.445
 1769TIP3    H126866   2.845   4.522   7.455
 1769TIP3    H226867   2.913   4.400   7.514
 1770TIP3   OH226868   2.691   2.550   0.741
 1770TIP3    H126869   2.713   2.639   0.713
 1770TIP3    H226870   2.724   2.495   0.670
 1771TIP3   OH226871   0.402   2.576   8.063
 1771TIP3    H126872   0.321   2.535   8.033
 1771TIP3    H226873   0.426   2.637   7.994
 1772TIP3   OH226874   3.685   5.647   8.051
 1772TIP3    H126875   3.660   5.655   7.959
 1772TIP3    H226876   3.679   5.736   8.086
 1773TIP3   OH226877   3.924   4.020   8.242
 1773TIP3    H126878   3.906   4.110   8.270
 1773TIP3    H226879   4.011   4.025   8.201
 1774TIP3   OH226880   5.982   3.064   7.354
 1774TIP3    H126881   5.964   3.028   7.267
 1774TIP3    H226882   5.968   2.990   7.413
 1775TIP3   OH226883   2.005   5.603   8.556
 1775TIP3    H126884   1.957   5.520   8.563
 1775TIP3    H226885   1.958   5.652   8.489
 1776TIP3   OH226886   3.743   5.950   6.917
 1776TIP3    H126887   3.698   5.985   6.840
 1776TIP3    H226888   3.761   6.027   6.971
 1777TIP3   OH226889   0.896   6.348   8.543
 1777TIP3    H126890   0.930   6.300   8.467
 1777TIP3    H226891   0.813   6.385   8.512
 1778TIP3   OH226892   4.057   3.150   6.918
 1778TIP3    H126893   4.039   3.138   7.011
 1778TIP3    H226894   3.971   3.162   6.878
 1779TIP3   OH226895   6.868   3.255   8.289
 1779TIP3    H126896   6.809   3.319   8.330
 1779TIP3    H226897   0.056   3.285   8.313
 1780TIP3   OH226898   2.983   3.168   2.349
 1780TIP3    H126899   3.014   3.179   2.260
 1780TIP3    H226900   2.993   3.074   2.367
 1781TIP3   OH226901   0.222   0.918   0.676
 1781TIP3    H126902   0.201   0.856   0.745
 1781TIP3    H226903   0.215   0.867   0.595
 1782TIP3   OH226904   1.868   0.484   2.505
 1782TIP3    H126905   1.803   0.546   2.470
 1782TIP3    H226906   1.858   0.490   2.600
 1783TIP3   OH226907   3.016   0.778   0.841
 1783TIP3    H126908   2.944   0.723   0.812
 1783TIP3    H226909   2.974   0.847   0.894
 1784TIP3   OH226910   4.390   4.558   1.708
 1784TIP3    H126911   4.465   4.555   1.648
 1784TIP3    H226912   4.423   4.518   1.789
 1785TIP3   OH226913   4.960   5.715   0.270
 1785TIP3    H126914   4.951   5.729   0.364
 1785TIP3    H226915   4.878   5.748   0.233
 1786TIP3   OH226916   6.380   0.545   7.232
 1786TIP3    H126917   6.416   0.561   7.144
 1786TIP3    H226918   6.403   0.623   7.282
 1787TIP3   OH226919   4.383   5.601   7.968
 1787TIP3    H126920   4.298   5.557   7.960
 1787TIP3    H226921   4.426   5.556   8.041
 1788TIP3   OH226922   0.883   3.688   0.768
 1788TIP3    H126923   0.927   3.630   0.830
 1788TIP3    H226924   0.795   3.651   0.759
 1789TIP3   OH226925   0.072   4.609   6.420
 1789TIP3    H126926   6.897   4.662   6.446
 1789TIP3    H226927   0.139   4.674   6.396
 1790TIP3   OH226928   6.552   6.886   0.394
 1790TIP3    H126929   6.469   0.000   0.348
 1790TIP3    H226930   6.542   0.033   0.477
 1791TIP3   OH226931   2.354   6.234   1.011
 1791TIP3    H126932   2.421   6.187   1.061
 1791TIP3    H226933   2.275   6.227   1.065
 1792TIP3   OH226934   5.703   2.060   0.065
 1792TIP3    H126935   5.634   2.021   0.011
 1792TIP3    H226936   5.784   2.021   0.031
 1793TIP3   OH226937   4.085   5.098   8.151
 1793TIP3    H126938   4.047   5.123   8.067
 1793TIP3    H226939   4.175   5.132   8.149
 1794TIP3   OH226940   1.980   1.516   6.597
 1794TIP3    H126941   2.004   1.573   6.523
 1794TIP3    H226942   2.064   1.479   6.625
 1795TIP3   OH226943   1.352   1.485   7.108
 1795TIP3    H126944   1.381   1.394   7.106
 1795TIP3    H226945   1.427   1.535   7.077
 1796TIP3   OH226946   3.406   4.079   8.081
 1796TIP3    H126947   3.438   3.990   8.093
 1796TIP3    H226948   3.353   4.096   8.159
 1797TIP3   OH226949   3.600   2.679   6.623
 1797TIP3    H126950   3.667   2.686   6.555
 1797TIP3    H226951   3.629   2.606   6.677
 1798TIP3   OH226952   3.596   5.725   6.981
 1798TIP3    H126953   3.630   5.797   6.928
 1798TIP3    H226954   3.651   5.651   6.958
 1799TIP3   OH226955   2.448   2.583   1.325
 1799TIP3    H126956   2.373   2.531   1.353
 1799TIP3    H226957   2.482   2.621   1.406
 1800TIP3   OH226958   0.655   6.172   7.283
 1800TIP3    H126959   0.688   6.261   7.286
 1800TIP3    H226960   0.641   6.148   7.374
 1801TIP3   OH226961   5.215   4.687   2.282
 1801TIP3    H126962   5.132   4.672   2.238
 1801TIP3    H226963   5.247   4.769   2.245
 1802TIP3   OH226964   5.413   0.525   0.290
 1802TIP3    H126965   5.390   0.455   0.228
 1802TIP3    H226966   5.488   0.569   0.250
 1803TIP3   OH226967   2.585   4.296   7.181
 1803TIP3    H126968   2.642   4.324   7.253
 1803TIP3    H226969   2.499   4.287   7.221
 1804TIP3   OH226970   2.982   2.525   1.047
 1804TIP3    H126971   2.914   2.591   1.036
 1804TIP3    H226972   2.980   2.503   1.141
 1805TIP3   OH226973   4.472   0.258   7.368
 1805TIP3    H126974   4.501   0.180   7.320
 1805TIP3    H226975   4.393   0.286   7.321
 1806TIP3   OH226976   0.724   1.665   0.564
 1806TIP3    H126977   0.750   1.682   0.474
 1806TIP3    H226978   0.709   1.751   0.602
 1807TIP3   OH226979   5.909   2.019   8.498
 1807TIP3    H126980   5.867   1.937   8.472
 1807TIP3    H226981   5.985   2.026   8.441
 1808TIP3   OH226982   6.792   1.271   7.244
 1808TIP3    H126983   6.865   1.214   7.220
 1808TIP3    H226984   6.715   1.214   7.242
 1809TIP3   OH226985   4.584   1.176   7.922
 1809TIP3    H126986   4.651   1.114   7.950
 1809TIP3    H226987   4.610   1.201   7.833
 1810TIP3   OH226988   2.294   3.874   8.315
 1810TIP3    H126989   2.207   3.914   8.308
 1810TIP3    H226990   2.355   3.946   8.302
 1811TIP3   OH226991   2.962   4.660   1.768
 1811TIP3    H126992   2.915   4.663   1.851
 1811TIP3    H226993   2.966   4.566   1.747
 1812TIP3   OH226994   2.313   6.589   8.508
 1812TIP3    H126995   2.347   6.629   8.428
 1812TIP3    H226996   2.290   6.499   8.482
 1813TIP3   OH226997   0.511   2.299   7.301
 1813TIP3    H126998   0.552   2.379   7.336
 1813TIP3    H226999   0.573   2.266   7.237
 1814TIP3   OH227000   0.197   0.492   7.333
 1814TIP3    H127001   0.246   0.416   7.300
 1814TIP3    H227002   0.242   0.567   7.296
 1815TIP3   OH227003   3.710   6.225   8.232
 1815TIP3    H127004   3.789   6.222   8.287
 1815TIP3    H227005   3.742   6.204   8.144
 1816TIP3   OH227006   2.003   6.559   6.533
 1816TIP3    H127007   1.918   6.516   6.545
 1816TIP3    H227008   2.052   6.500   6.475
 1817TIP3   OH227009   0.869   6.896   1.782
 1817TIP3    H127010   0.871   6.805   1.812
 1817TIP3    H227011   0.807   6.896   1.709
 1818TIP3   OH227012   0.427   0.385   8.603
 1818TIP3    H127013   0.369   0.321   8.561
 1818TIP3    H227014   0.513   0.342   8.605
 1819TIP3   OH227015   1.850   3.123   8.125
 1819TIP3    H127016   1.934   3.156   8.156
 1819TIP3    H227017   1.840   3.038   8.169
 1820TIP3   OH227018   0.041   4.972   7.279
 1820TIP3    H127019   0.107   5.037   7.256
 1820TIP3    H227020   0.086   4.913   7.340
 1821TIP3   OH227021   4.279   1.738   1.079
 1821TIP3    H127022   4.193   1.741   1.121
 1821TIP3    H227023   4.264   1.777   0.993
 1822TIP3   OH227024   4.649   5.517   1.202
 1822TIP3    H127025   4.616   5.428   1.218
 1822TIP3    H227026   4.711   5.533   1.272
 1823TIP3   OH227027   4.698   6.749   0.544
 1823TIP3    H127028   4.710   6.697   0.464
 1823TIP3    H227029   4.698   6.840   0.513
 1824TIP3   OH227030   4.576   3.470   0.027
 1824TIP3    H127031   4.631   3.487   8.570
 1824TIP3    H227032   4.624   3.403   0.075
 1825TIP3   OH227033   2.729   3.677   0.505
 1825TIP3    H127034   2.735   3.613   0.434
 1825TIP3    H227035   2.818   3.710   0.515
 1826TIP3   OH227036   5.776   2.614   0.355
 1826TIP3    H127037   5.860   2.629   0.399
 1826TIP3    H227038   5.800   2.589   0.266
 1827TIP3   OH227039   2.609   5.412   2.002
 1827TIP3    H127040   2.604   5.409   1.907
 1827TIP3    H227041   2.528   5.456   2.029
 1828TIP3   OH227042   1.186   6.138   0.552
 1828TIP3    H127043   1.139   6.067   0.596
 1828TIP3    H227044   1.133   6.158   0.475
 1829TIP3   OH227045   4.584   3.752   7.391
 1829TIP3    H127046   4.635   3.690   7.442
 1829TIP3    H227047   4.522   3.790   7.453
 1830TIP3   OH227048   1.954   2.568   0.774
 1830TIP3    H127049   1.940   2.637   0.838
 1830TIP3    H227050   2.048   2.573   0.754
 1831TIP3   OH227051   1.991   2.822   7.887
 1831TIP3    H127052   1.917   2.812   7.827
 1831TIP3    H227053   2.037   2.901   7.855
 1832TIP3   OH227054   6.475   4.842   6.785
 1832TIP3    H127055   6.468   4.771   6.849
 1832TIP3    H227056   6.450   4.801   6.702
 1833TIP3   OH227057   2.395   0.891   0.367
 1833TIP3    H127058   2.366   0.800   0.370
 1833TIP3    H227059   2.433   0.907   0.452
 1834TIP3   OH227060   4.919   5.191   7.477
 1834TIP3    H127061   4.901   5.110   7.430
 1834TIP3    H227062   4.832   5.224   7.502
 1835TIP3   OH227063   2.617   5.169   7.334
 1835TIP3    H127064   2.625   5.109   7.259
 1835TIP3    H227065   2.559   5.238   7.303
 1836TIP3   OH227066   1.098   0.499   6.925
 1836TIP3    H127067   1.068   0.587   6.902
 1836TIP3    H227068   1.101   0.452   6.842
 1837TIP3   OH227069   1.184   4.156   1.098
 1837TIP3    H127070   1.241   4.083   1.076
 1837TIP3    H227071   1.134   4.125   1.173
 1838TIP3   OH227072   2.811   5.390   7.650
 1838TIP3    H127073   2.902   5.389   7.619
 1838TIP3    H227074   2.801   5.306   7.695
 1839TIP3   OH227075   2.046   0.619   7.548
 1839TIP3    H127076   1.990   0.582   7.480
 1839TIP3    H227077   2.038   0.714   7.536
 1840TIP3   OH227078   3.693   3.969   6.338
 1840TIP3    H127079   3.708   4.044   6.395
 1840TIP3    H227080   3.621   3.996   6.281
 1841TIP3   OH227081   5.803   4.484   0.760
 1841TIP3    H127082   5.745   4.498   0.684
 1841TIP3    H227083   5.867   4.555   0.755
 1842TIP3   OH227084   3.848   2.142   7.622
 1842TIP3    H127085   3.885   2.053   7.623
 1842TIP3    H227086   3.923   2.199   7.611
 1843TIP3   OH227087   0.435   1.643   6.559
 1843TIP3    H127088   0.383   1.683   6.629
 1843TIP3    H227089   0.516   1.615   6.602
 1844TIP3   OH227090   5.224   5.482   0.876
 1844TIP3    H127091   5.250   5.562   0.921
 1844TIP3    H227092   5.250   5.495   0.785
 1845TIP3   OH227093   2.564   4.227   7.694
 1845TIP3    H127094   2.589   4.138   7.719
 1845TIP3    H227095   2.596   4.283   7.765
 1846TIP3   OH227096   4.368   6.757   7.130
 1846TIP3    H127097   4.318   6.755   7.212
 1846TIP3    H227098   4.325   6.694   7.073
 1847TIP3   OH227099   2.483   2.183   0.720
 1847TIP3    H127100   2.477   2.273   0.752
 1847TIP3    H227101   2.540   2.189   0.643
 1848TIP3   OH227102   3.192   4.914   6.778
 1848TIP3    H127103   3.102   4.881   6.767
 1848TIP3    H227104   3.238   4.842   6.822
 1849TIP3   OH227105   1.929   4.039   1.806
 1849TIP3    H127106   1.905   4.096   1.879
 1849TIP3    H227107   1.988   3.974   1.845
 1850TIP3   OH227108   1.668   3.998   6.789
 1850TIP3    H127109   1.726   3.986   6.714
 1850TIP3    H227110   1.611   4.071   6.763
 1851TIP3   OH227111   5.414   1.728   1.413
 1851TIP3    H127112   5.425   1.701   1.322
 1851TIP3    H227113   5.402   1.646   1.462
 1852TIP3   OH227114   1.047   3.275   6.222
 1852TIP3    H127115   0.962   3.232   6.209
 1852TIP3    H227116   1.108   3.227   6.166
 1853TIP3   OH227117   1.654   1.130   1.129
 1853TIP3    H127118   1.637   1.219   1.159
 1853TIP3    H227119   1.615   1.126   1.042
 1854TIP3   OH227120   4.883   3.946   8.407
 1854TIP3    H127121   4.874   3.928   8.314
 1854TIP3    H227122   4.795   3.965   8.437
 1855TIP3   OH227123   3.676   4.595   7.833
 1855TIP3    H127124   3.634   4.532   7.773
 1855TIP3    H227125   3.761   4.556   7.852
 1856TIP3   OH227126   1.666   1.278   7.272
 1856TIP3    H127127   1.704   1.357   7.233
 1856TIP3    H227128   1.572   1.296   7.276
 1857TIP3   OH227129   6.366   6.672   1.130
 1857TIP3    H127130   6.412   6.754   1.110
 1857TIP3    H227131   6.398   6.610   1.064
 1858TIP3   OH227132   6.536   3.394   7.542
 1858TIP3    H127133   6.596   3.320   7.542
 1858TIP3    H227134   6.591   3.470   7.525
 1859TIP3   OH227135   6.220   5.814   1.398
 1859TIP3    H127136   6.184   5.726   1.388
 1859TIP3    H227137   6.256   5.834   1.311
 1860TIP3   OH227138   5.577   4.437   0.893
 1860TIP3    H127139   5.590   4.439   0.987
 1860TIP3    H227140   5.661   4.467   0.857
 1861TIP3   OH227141   6.816   6.652   7.568
 1861TIP3    H127142   6.721   6.646   7.583
 1861TIP3    H227143   6.844   6.562   7.552
 1862TIP3   OH227144   4.084   3.541   8.511
 1862TIP3    H127145   4.163   3.582   8.546
 1862TIP3    H227146   4.016   3.558   8.576
 1863TIP3   OH227147   2.947   5.794   6.968
 1863TIP3    H127148   2.860   5.827   6.944
 1863TIP3    H227149   3.007   5.863   6.939
 1864TIP3   OH227150   4.259   3.025   0.444
 1864TIP3    H127151   4.321   3.096   0.426
 1864TIP3    H227152   4.178   3.069   0.469
 1865TIP3   OH227153   5.840   1.878   1.557
 1865TIP3    H127154   5.829   1.785   1.580
 1865TIP3    H227155   5.794   1.926   1.626
 1866TIP3   OH227156   0.685   3.094   7.878
 1866TIP3    H127157   0.713   3.142   7.800
 1866TIP3    H227158   0.741   3.016   7.879
 1867TIP3   OH227159   1.391   5.930   6.626
 1867TIP3    H127160   1.309   5.891   6.596
 1867TIP3    H227161   1.415   5.991   6.556
 1868TIP3   OH227162   6.552   1.514   8.354
 1868TIP3    H127163   6.472   1.566   8.363
 1868TIP3    H227164   6.587   1.539   8.269
 1869TIP3   OH227165   6.098   0.068   6.275
 1869TIP3    H127166   6.144   0.060   6.359
 1869TIP3    H227167   6.137   0.145   6.233
 1870TIP3   OH227168   5.694   2.534   7.484
 1870TIP3    H127169   5.696   2.444   7.515
 1870TIP3    H227170   5.631   2.578   7.541
 1871TIP3   OH227171   3.915   3.345   0.339
 1871TIP3    H127172   3.911   3.434   0.374
 1871TIP3    H227173   3.990   3.305   0.382
 1872TIP3   OH227174   0.495   3.765   7.573
 1872TIP3    H127175   0.526   3.792   7.487
 1872TIP3    H227176   0.476   3.672   7.564
 1873TIP3   OH227177   3.478   3.913   0.296
 1873TIP3    H127178   3.413   3.861   0.249
 1873TIP3    H227179   3.544   3.935   0.230
 1874TIP3   OH227180   5.210   2.589   7.957
 1874TIP3    H127181   5.218   2.661   7.895
 1874TIP3    H227182   5.276   2.526   7.929
 1875TIP3   OH227183   5.810   6.724   8.410
 1875TIP3    H127184   5.840   6.644   8.453
 1875TIP3    H227185   5.890   6.771   8.388
 1876TIP3   OH227186   0.779   2.865   8.328
 1876TIP3    H127187   0.780   2.940   8.268
 1876TIP3    H227188   0.723   2.801   8.285
 1877TIP3   OH227189   3.823   3.407   0.072
 1877TIP3    H127190   3.876   3.417   0.151
 1877TIP3    H227191   3.739   3.372   0.103
 1878TIP3   OH227192   0.463   1.293   7.162
 1878TIP3    H127193   0.474   1.209   7.206
 1878TIP3    H227194   0.508   1.283   7.079
 1879TIP3   OH227195   5.191   4.758   8.344
 1879TIP3    H127196   5.286   4.757   8.339
 1879TIP3    H227197   5.163   4.689   8.284
 1880TIP3   OH227198   6.177   1.199   7.529
 1880TIP3    H127199   6.138   1.232   7.610
 1880TIP3    H227200   6.150   1.108   7.525
 1881TIP3   OH227201   4.761   2.591   7.624
 1881TIP3    H127202   4.774   2.594   7.530
 1881TIP3    H227203   4.770   2.681   7.653
 1882TIP3   OH227204   5.904   4.717   7.996
 1882TIP3    H127205   5.837   4.739   7.931
 1882TIP3    H227206   5.855   4.702   8.077
 1883TIP3   OH227207   0.984   2.772   7.872
 1883TIP3    H127208   1.028   2.695   7.837
 1883TIP3    H227209   1.027   2.788   7.957
 1884TIP3   OH227210   5.139   3.857   1.491
 1884TIP3    H127211   5.218   3.809   1.465
 1884TIP3    H227212   5.088   3.865   1.410
 1885TIP3   OH227213   6.332   1.531   1.554
 1885TIP3    H127214   6.398   1.461   1.550
 1885TIP3    H227215   6.275   1.506   1.627
 1886TIP3   OH227216   5.768   1.802   8.177
 1886TIP3    H127217   5.852   1.818   8.133
 1886TIP3    H227218   5.790   1.742   8.249
 1887TIP3   OH227219   0.694   1.650   7.347
 1887TIP3    H127220   0.768   1.600   7.312
 1887TIP3    H227221   0.724   1.741   7.348
 1888TIP3   OH227222   2.256   1.661   8.314
 1888TIP3    H127223   2.340   1.692   8.282
 1888TIP3    H227224   2.246   1.573   8.277
 1889TIP3   OH227225   6.100   1.085   6.465
 1889TIP3    H127226   6.142   1.155   6.415
 1889TIP3    H227227   6.087   1.014   6.401
 1890TIP3   OH227228   6.167   2.815   1.912
 1890TIP3    H127229   6.247   2.814   1.859
 1890TIP3    H227230   6.196   2.794   2.000
 1891TIP3   OH227231   6.068   0.173   0.322
 1891TIP3    H127232   5.997   0.231   0.293
 1891TIP3    H227233   6.047   0.088   0.283
 1892TIP3   OH227234   2.445   6.469   0.904
 1892TIP3    H127235   2.506   6.472   0.831
 1892TIP3    H227236   2.432   6.376   0.921
 1893TIP3   OH227237   6.419   0.935   8.152
 1893TIP3    H127238   6.349   0.996   8.130
 1893TIP3    H227239   6.426   0.939   8.247
 1894TIP3   OH227240   1.900   4.280   2.037
 1894TIP3    H127241   1.926   4.367   2.068
 1894TIP3    H227242   1.813   4.266   2.074
 1895TIP3   OH227243   2.449   1.742   2.148
 1895TIP3    H127244   2.361   1.721   2.115
 1895TIP3    H227245   2.508   1.708   2.081
 1896TIP3   OH227246   4.400   5.265   8.179
 1896TIP3    H127247   4.334   5.325   8.143
 1896TIP3    H227248   4.465   5.256   8.110
 1897TIP3   OH227249   1.374   1.940   8.517
 1897TIP3    H127250   1.381   1.845   8.508
 1897TIP3    H227251   1.338   1.969   8.433
 1898TIP3   OH227252   5.933   3.246   2.016
 1898TIP3    H127253   5.870   3.237   2.087
 1898TIP3    H227254   5.944   3.341   2.006
 1899TIP3   OH227255   5.382   3.422   1.112
 1899TIP3    H127256   5.331   3.345   1.136
 1899TIP3    H227257   5.333   3.495   1.150
 1900TIP3   OH227258   0.768   6.634   1.111
 1900TIP3    H127259   0.724   6.695   1.052
 1900TIP3    H227260   0.707   6.622   1.183
 1901TIP3   OH227261   5.191   4.275   7.965
 1901TIP3    H127262   5.111   4.273   7.911
 1901TIP3    H227263   5.159   4.275   8.055
 1902TIP3   OH227264   4.951   1.569   7.740
 1902TIP3    H127265   4.936   1.647   7.794
 1902TIP3    H227266   5.046   1.554   7.747
 1903TIP3   OH227267   1.874   1.208   6.929
 1903TIP3    H127268   1.919   1.292   6.929
 1903TIP3    H227269   1.942   1.144   6.950
 1904TIP3   OH227270   3.795   0.517   8.548
 1904TIP3    H127271   3.789   0.422   8.544
 1904TIP3    H227272   3.773   0.547   8.459
 1905TIP3   OH227273   6.698   2.190   6.954
 1905TIP3    H127274   6.787   2.157   6.963
 1905TIP3    H227275   6.707   2.285   6.952
 1906TIP3   OH227276   2.796   6.492   8.060
 1906TIP3    H127277   2.868   6.473   8.119
 1906TIP3    H227278   2.721   6.446   8.098
 1907TIP3   OH227279   3.256   4.306   7.231
 1907TIP3    H127280   3.237   4.390   7.274
 1907TIP3    H227281   3.228   4.240   7.295
 1908TIP3   OH227282   3.399   1.352   0.290
 1908TIP3    H127283   3.403   1.331   0.197
 1908TIP3    H227284   3.472   1.304   0.329
 1909TIP3   OH227285   3.666   5.936   1.871
 1909TIP3    H127286   3.717   5.883   1.933
 1909TIP3    H227287   3.639   5.875   1.803
 1910TIP3   OH227288   3.872   1.017   0.896
 1910TIP3    H127289   3.899   0.928   0.916
 1910TIP3    H227290   3.817   1.008   0.818
 1911TIP3   OH227291   0.644   3.484   7.007
 1911TIP3    H127292   0.687   3.488   7.092
 1911TIP3    H227293   0.644   3.391   6.984
 1912TIP3   OH227294   2.512   1.176   0.926
 1912TIP3    H127295   2.536   1.104   0.984
 1912TIP3    H227296   2.587   1.236   0.930
 1913TIP3   OH227297   4.809   5.168   0.151
 1913TIP3    H127298   4.749   5.240   0.172
 1913TIP3    H227299   4.839   5.135   0.236
 1914TIP3   OH227300   5.315   5.369   2.148
 1914TIP3    H127301   5.323   5.276   2.167
 1914TIP3    H227302   5.235   5.395   2.193
 1915TIP3   OH227303   6.039   4.532   7.747
 1915TIP3    H127304   6.123   4.497   7.777
 1915TIP3    H227305   5.995   4.561   7.827
 1916TIP3   OH227306   3.986   3.952   7.650
 1916TIP3    H127307   4.024   3.889   7.712
 1916TIP3    H227308   4.013   4.037   7.684
 1917TIP3   OH227309   4.099   4.318   8.023
 1917TIP3    H127310   4.162   4.386   7.998
 1917TIP3    H227311   4.154   4.245   8.053
 1918TIP3   OH227312   0.334   2.175   7.527
 1918TIP3    H127313   0.375   2.261   7.520
 1918TIP3    H227314   0.251   2.192   7.572
 1919TIP3   OH227315   4.808   5.193   0.867
 1919TIP3    H127316   4.898   5.190   0.900
 1919TIP3    H227317   4.777   5.280   0.893
 1920TIP3   OH227318   1.625   0.715   2.531
 1920TIP3    H127319   1.616   0.634   2.580
 1920TIP3    H227320   1.610   0.689   2.440
 1921TIP3   OH227321   4.583   4.854   0.387
 1921TIP3    H127322   4.669   4.854   0.429
 1921TIP3    H227323   4.602   4.852   0.293
 1922TIP3   OH227324   6.170   4.212   6.292
 1922TIP3    H127325   6.185   4.261   6.373
 1922TIP3    H227326   6.111   4.267   6.241
 1923TIP3   OH227327   6.124   3.178   7.941
 1923TIP3    H127328   6.082   3.206   7.860
 1923TIP3    H227329   6.175   3.254   7.970
 1924TIP3   OH227330   3.560   0.056   0.931
 1924TIP3    H127331   3.610   0.085   0.855
 1924TIP3    H227332   3.510   6.881   0.899
 1925TIP3   OH227333   5.331   1.062   8.365
 1925TIP3    H127334   5.326   0.971   8.336
 1925TIP3    H227335   5.245   1.099   8.343
 1926TIP3   OH227336   4.798   6.144   7.604
 1926TIP3    H127337   4.748   6.103   7.674
 1926TIP3    H227338   4.770   6.236   7.604
 1927TIP3   OH227339   5.255   3.993   7.271
 1927TIP3    H127340   5.287   4.052   7.203
 1927TIP3    H227341   5.163   3.979   7.251
 1928TIP3   OH227342   0.548   6.827   1.029
 1928TIP3    H127343   0.487   6.793   1.096
 1928TIP3    H227344   0.512   0.013   1.006
 1929TIP3   OH227345   4.760   4.427   1.096
 1929TIP3    H127346   4.822   4.496   1.119
 1929TIP3    H227347   4.814   4.352   1.071
 1930TIP3   OH227348   1.755   4.706   0.346
 1930TIP3    H127349   1.699   4.784   0.346
 1930TIP3    H227350   1.695   4.633   0.334
 1931TIP3   OH227351   1.926   0.560   1.826
 1931TIP3    H127352   1.892   0.648   1.841
 1931TIP3    H227353   1.937   0.554   1.732
 1932TIP3   OH227354   4.508   1.518   6.509
 1932TIP3    H127355   4.462   1.442   6.473
 1932TIP3    H227356   4.588   1.482   6.546
 1933TIP3   OH227357   3.737   3.124   0.297
 1933TIP3    H127358   3.760   3.073   0.219
 1933TIP3    H227359   3.785   3.206   0.287
 1934TIP3   OH227360   2.950   5.968   1.566
 1934TIP3    H127361   3.030   5.952   1.516
 1934TIP3    H227362   2.953   5.903   1.636
 1935TIP3   OH227363   5.762   2.745   7.087
 1935TIP3    H127364   5.743   2.762   7.180
 1935TIP3    H227365   5.691   2.789   7.040
 1936TIP3   OH227366   2.200   0.454   6.852
 1936TIP3    H127367   2.173   0.503   6.929
 1936TIP3    H227368   2.122   0.406   6.825
 1937TIP3   OH227369   0.562   5.529   0.436
 1937TIP3    H127370   0.545   5.476   0.513
 1937TIP3    H227371   0.524   5.614   0.457
 1938TIP3   OH227372   5.847   3.520   8.538
 1938TIP3    H127373   5.778   3.459   8.563
 1938TIP3    H227374   5.919   3.464   8.509
 1939TIP3   OH227375   0.207   1.858   1.404
 1939TIP3    H127376   0.205   1.809   1.322
 1939TIP3    H227377   0.143   1.813   1.460
 1940TIP3   OH227378   2.620   3.587   7.028
 1940TIP3    H127379   2.607   3.680   7.009
 1940TIP3    H227380   2.597   3.542   6.947
 1941TIP3   OH227381   2.183   1.190   0.381
 1941TIP3    H127382   2.103   1.163   0.338
 1941TIP3    H227383   2.242   1.115   0.372
 1942TIP3   OH227384   1.611   6.037   1.990
 1942TIP3    H127385   1.655   5.978   1.929
 1942TIP3    H227386   1.556   6.093   1.936
 1943TIP3   OH227387   1.918   5.827   0.854
 1943TIP3    H127388   2.008   5.807   0.828
 1943TIP3    H227389   1.900   5.912   0.814
 1944TIP3   OH227390   2.259   5.992   0.816
 1944TIP3    H127391   2.328   5.999   0.881
 1944TIP3    H227392   2.290   6.044   0.742
 1945TIP3   OH227393   3.689   0.531   0.884
 1945TIP3    H127394   3.703   0.619   0.848
 1945TIP3    H227395   3.704   0.472   0.810
 1946TIP3   OH227396   2.413   0.455   8.536
 1946TIP3    H127397   2.421   0.515   8.610
 1946TIP3    H227398   2.424   0.368   8.574
 1947TIP3   OH227399   4.301   3.239   6.867
 1947TIP3    H127400   4.339   3.250   6.954
 1947TIP3    H227401   4.220   3.191   6.882
 1948TIP3   OH227402   1.262   5.467   2.444
 1948TIP3    H127403   1.176   5.478   2.487
 1948TIP3    H227404   1.253   5.513   2.361
 1949TIP3   OH227405   4.901   3.182   0.722
 1949TIP3    H127406   4.862   3.241   0.786
 1949TIP3    H227407   4.827   3.132   0.687
 1950TIP3   OH227408   2.282   0.479   0.872
 1950TIP3    H127409   2.275   0.563   0.917
 1950TIP3    H227410   2.191   0.447   0.869
 1951TIP3   OH227411   0.071   1.115   5.859
 1951TIP3    H127412   0.099   1.206   5.868
 1951TIP3    H227413   6.886   1.112   5.903
 1952TIP3   OH227414   1.685   2.186   1.575
 1952TIP3    H127415   1.758   2.183   1.513
 1952TIP3    H227416   1.715   2.243   1.645
 1953TIP3   OH227417   3.522   0.085   7.994
 1953TIP3    H127418   3.546   0.121   8.079
 1953TIP3    H227419   3.605   0.083   7.945
 1954TIP3   OH227420   4.186   6.020   7.964
 1954TIP3    H127421   4.117   6.042   7.902
 1954TIP3    H227422   4.267   6.032   7.914
 1955TIP3   OH227423   5.423   5.876   7.300
 1955TIP3    H127424   5.395   5.910   7.215
 1955TIP3    H227425   5.347   5.886   7.357
 1956TIP3   OH227426   3.285   5.470   1.078
 1956TIP3    H127427   3.221   5.469   1.007
 1956TIP3    H227428   3.319   5.560   1.078
 1957TIP3   OH227429   6.858   2.669   0.322
 1957TIP3    H127430   6.827   2.736   0.260
 1957TIP3    H227431   6.780   2.647   0.373
 1958TIP3   OH227432   5.568   1.146   5.977
 1958TIP3    H127433   5.503   1.092   5.933
 1958TIP3    H227434   5.526   1.173   6.059
 1959TIP3   OH227435   1.887   6.228   0.519
 1959TIP3    H127436   1.980   6.228   0.542
 1959TIP3    H227437   1.844   6.186   0.594
 1960TIP3   OH227438   1.841   0.235   6.604
 1960TIP3    H127439   1.812   0.147   6.626
 1960TIP3    H227440   1.766   0.277   6.563
 1961TIP3   OH227441   5.515   1.465   8.148
 1961TIP3    H127442   5.519   1.475   8.053
 1961TIP3    H227443   5.422   1.472   8.170
 1962TIP3   OH227444   3.616   4.711   6.636
 1962TIP3    H127445   3.574   4.658   6.569
 1962TIP3    H227446   3.590   4.671   6.719
 1963TIP3   OH227447   1.457   2.902   8.412
 1963TIP3    H127448   1.483   2.976   8.466
 1963TIP3    H227449   1.420   2.942   8.333
 1964TIP3   OH227450   3.474   4.615   6.429
 1964TIP3    H127451   3.386   4.644   6.402
 1964TIP3    H227452   3.519   4.595   6.348
 1965TIP3   OH227453   1.349   1.619   8.504
 1965TIP3    H127454   1.424   1.571   8.540
 1965TIP3    H227455   1.273   1.582   8.550
 1966TIP3   OH227456   0.521   5.778   0.549
 1966TIP3    H127457   0.547   5.840   0.617
 1966TIP3    H227458   0.426   5.776   0.554
 1967TIP3   OH227459   3.483   2.445   1.492
 1967TIP3    H127460   3.578   2.452   1.498
 1967TIP3    H227461   3.467   2.359   1.454
 1968TIP3   OH227462   3.134   3.082   0.791
 1968TIP3    H127463   3.186   3.160   0.804
 1968TIP3    H227464   3.044   3.109   0.809
 1969TIP3   OH227465   1.949   3.402   1.181
 1969TIP3    H127466   1.990   3.322   1.150
 1969TIP3    H227467   1.856   3.391   1.159
 1970TIP3   OH227468   4.315   6.302   0.285
 1970TIP3    H127469   4.274   6.222   0.252
 1970TIP3    H227470   4.282   6.372   0.229
 1971TIP3   OH227471   6.355   4.515   1.550
 1971TIP3    H127472   6.363   4.464   1.469
 1971TIP3    H227473   6.361   4.606   1.522
 1972TIP3   OH227474   0.201   5.341   8.427
 1972TIP3    H127475   0.251   5.310   8.502
 1972TIP3    H227476   0.249   5.419   8.397
 1973TIP3   OH227477   1.035   1.790   1.882
 1973TIP3    H127478   1.037   1.824   1.972
 1973TIP3    H227479   1.033   1.695   1.893
 1974TIP3   OH227480   0.068   4.753   0.099
 1974TIP3    H127481   0.014   4.830   0.115
 1974TIP3    H227482   0.157   4.781   0.119
 1975TIP3   OH227483   3.132   2.581   7.920
 1975TIP3    H127484   3.124   2.579   8.015
 1975TIP3    H227485   3.063   2.522   7.889
 1976TIP3   OH227486   6.897   0.743   1.580
 1976TIP3    H127487   0.038   0.810   1.527
 1976TIP3    H227488   6.873   0.788   1.661
 1977TIP3   OH227489   6.728   6.202   8.530
 1977TIP3    H127490   6.768   6.129   8.577
 1977TIP3    H227491   6.711   6.268   8.598
 1978TIP3   OH227492   0.360   0.278   7.268
 1978TIP3    H127493   0.437   0.265   7.212
 1978TIP3    H227494   0.378   0.225   7.345
 1979TIP3   OH227495   0.690   6.163   6.835
 1979TIP3    H127496   0.718   6.086   6.885
 1979TIP3    H227497   0.658   6.129   6.752
 1980TIP3   OH227498   0.624   2.192   8.224
 1980TIP3    H127499   0.595   2.224   8.138
 1980TIP3    H227500   0.667   2.267   8.264
 1981TIP3   OH227501   5.291   5.764   8.132
 1981TIP3    H127502   5.198   5.787   8.127
 1981TIP3    H227503   5.307   5.746   8.224
 1982TIP3   OH227504   5.992   1.546   0.763
 1982TIP3    H127505   6.026   1.459   0.739
 1982TIP3    H227506   5.897   1.536   0.759
 1983TIP3   OH227507   3.989   0.572   1.131
 1983TIP3    H127508   3.903   0.596   1.164
 1983TIP3    H227509   4.026   0.515   1.198
 1984TIP3   OH227510   3.674   5.435   1.803
 1984TIP3    H127511   3.628   5.352   1.818
 1984TIP3    H227512   3.605   5.501   1.802
 1985TIP3   OH227513   5.841   5.859   0.351
 1985TIP3    H127514   5.919   5.815   0.384
 1985TIP3    H227515   5.841   5.840   0.257
 1986TIP3   OH227516   2.496   0.195   0.088
 1986TIP3    H127517   2.489   0.108   0.127
 1986TIP3    H227518   2.566   0.238   0.138
 1987TIP3   OH227519   5.788   3.805   0.443
 1987TIP3    H127520   5.874   3.763   0.442
 1987TIP3    H227521   5.730   3.739   0.480
 1988TIP3   OH227522   0.414   2.193   0.223
 1988TIP3    H127523   0.482   2.240   0.175
 1988TIP3    H227524   0.343   2.257   0.232
 1989TIP3   OH227525   3.640   2.903   7.636
 1989TIP3    H127526   3.685   2.988   7.638
 1989TIP3    H227527   3.628   2.885   7.543
 1990TIP3   OH227528   2.109   5.075   2.501
 1990TIP3    H127529   2.112   5.074   2.405
 1990TIP3    H227530   2.192   5.035   2.528
 1991TIP3   OH227531   6.743   0.985   0.090
 1991TIP3    H127532   6.778   1.064   0.050
 1991TIP3    H227533   6.819   0.928   0.101
 1992TIP3   OH227534   2.878   4.780   2.228
 1992TIP3    H127535   2.834   4.744   2.305
 1992TIP3    H227536   2.867   4.875   2.236
 1993TIP3   OH227537   3.858   4.786   7.941
 1993TIP3    H127538   3.772   4.763   7.905
 1993TIP3    H227539   3.866   4.880   7.924
 1994TIP3   OH227540   5.424   4.298   0.689
 1994TIP3    H127541   5.458   4.280   0.602
 1994TIP3    H227542   5.482   4.365   0.725
 1995TIP3   OH227543   6.064   3.389   7.260
 1995TIP3    H127544   6.012   3.312   7.237
 1995TIP3    H227545   6.021   3.461   7.214
 1996TIP3   OH227546   1.892   4.797   2.269
 1996TIP3    H127547   1.809   4.828   2.234
 1996TIP3    H227548   1.881   4.799   2.364
 1997TIP3   OH227549   1.449   5.872   1.083
 1997TIP3    H127550   1.435   5.781   1.055
 1997TIP3    H227551   1.361   5.908   1.092
 1998TIP3   OH227552   4.457   2.816   0.550
 1998TIP3    H127553   4.538   2.867   0.546
 1998TIP3    H227554   4.388   2.881   0.536
 1999TIP3   OH227555   3.917   5.060   1.256
 1999TIP3    H127556   3.902   5.094   1.345
 1999TIP3    H227557   3.991   5.001   1.265
 2000TIP3   OH227558   3.048   3.339   7.577
 2000TIP3    H127559   3.038   3.290   7.659
 2000TIP3    H227560   3.043   3.431   7.602
 2001TIP3   OH227561   4.439   4.469   8.352
 2001TIP3    H127562   4.464   4.445   8.263
 2001TIP3    H227563   4.360   4.522   8.341
 2002TIP3   OH227564   1.636   2.253   0.818
 2002TIP3    H127565   1.647   2.221   0.907
 2002TIP3    H227566   1.607   2.176   0.768
 2003TIP3   OH227567   2.924   0.175   7.601
 2003TIP3    H127568   2.990   0.200   7.535
 2003TIP3    H227569   2.897   0.087   7.575
 2004TIP3   OH227570   1.011   4.743   8.565
 2004TIP3    H127571   1.005   4.648   8.562
 2004TIP3    H227572   0.990   4.771   8.476
 2005TIP3   OH227573   4.747   3.572   7.505
 2005TIP3    H127574   4.836   3.609   7.505
 2005TIP3    H227575   4.757   3.487   7.464
 2006TIP3   OH227576   4.335   4.990   1.734
 2006TIP3    H127577   4.366   4.983   1.824
 2006TIP3    H227578   4.395   5.052   1.692
 2007TIP3   OH227579   0.184   3.613   7.622
 2007TIP3    H127580   0.189   3.543   7.686
 2007TIP3    H227581   0.118   3.584   7.559
 2008TIP3   OH227582   5.048   6.157   7.165
 2008TIP3    H127583   5.027   6.099   7.238
 2008TIP3    H227584   4.965   6.198   7.142
 2009TIP3   OH227585   5.110   6.893   0.308
 2009TIP3    H127586   5.058   6.834   0.362
 2009TIP3    H227587   5.187   6.842   0.283
 2010TIP3   OH227588   3.429   4.056   1.380
 2010TIP3    H127589   3.344   4.082   1.345
 2010TIP3    H227590   3.467   4.137   1.413
 2011TIP3   OH227591   4.390   2.009   8.342
 2011TIP3    H127592   4.392   1.967   8.257
 2011TIP3    H227593   4.408   1.939   8.404
 2012TIP3   OH227594   5.579   0.502   7.446
 2012TIP3    H127595   5.569   0.408   7.431
 2012TIP3    H227596   5.503   0.541   7.402
 2013TIP3   OH227597   2.678   5.985   2.320
 2013TIP3    H127598   2.624   6.061   2.340
 2013TIP3    H227599   2.618   5.911   2.326
 2014TIP3   OH227600   1.441   1.223   7.134
 2014TIP3    H127601   1.374   1.196   7.070
 2014TIP3    H227602   1.447   1.150   7.194
 2015TIP3   OH227603   4.346   0.640   8.357
 2015TIP3    H127604   4.416   0.704   8.350
 2015TIP3    H227605   4.269   0.690   8.382
 2016TIP3   OH227606   6.692   0.370   7.494
 2016TIP3    H127607   6.631   0.318   7.442
 2016TIP3    H227608   6.724   0.310   7.561
 2017TIP3   OH227609   5.431   0.011   6.778
 2017TIP3    H127610   5.395   0.100   6.784
 2017TIP3    H227611   5.491   0.005   6.852
 2018TIP3   OH227612   5.360   4.714   7.549
 2018TIP3    H127613   5.385   4.767   7.473
 2018TIP3    H227614   5.398   4.628   7.532
 2019TIP3   OH227615   2.233   6.672   7.459
 2019TIP3    H127616   2.178   6.627   7.523
 2019TIP3    H227617   2.296   6.721   7.512
 2020TIP3   OH227618   3.472   0.226   1.197
 2020TIP3    H127619   3.397   0.183   1.156
 2020TIP3    H227620   3.435   0.268   1.274
 2021TIP3   OH227621   1.226   3.673   7.497
 2021TIP3    H127622   1.243   3.721   7.578
 2021TIP3    H227623   1.284   3.712   7.433
 2022TIP3   OH227624   0.021   1.130   6.799
 2022TIP3    H127625   6.832   1.114   6.830
 2022TIP3    H227626   0.030   1.225   6.798
 2023TIP3   OH227627   0.673   6.522   8.030
 2023TIP3    H127628   0.595   6.517   7.974
 2023TIP3    H227629   0.678   6.436   8.071
 2024TIP3   OH227630   1.882   2.214   6.865
 2024TIP3    H127631   1.905   2.175   6.781
 2024TIP3    H227632   1.858   2.304   6.844
 2025TIP3   OH227633   0.494   5.576   7.959
 2025TIP3    H127634   0.482   5.512   7.889
 2025TIP3    H227635   0.478   5.526   8.040
 2026TIP3   OH227636   0.963   0.072   7.449
 2026TIP3    H127637   0.883   0.044   7.494
 2026TIP3    H227638   0.979   0.160   7.481
 2027TIP3   OH227639   3.102   2.906   7.154
 2027TIP3    H127640   3.118   2.949   7.238
 2027TIP3    H227641   3.051   2.828   7.176
 2028TIP3   OH227642   4.079   2.281   0.900
 2028TIP3    H127643   4.165   2.285   0.857
 2028TIP3    H227644   4.028   2.223   0.844
 2029TIP3   OH227645   0.501   6.218   0.339
 2029TIP3    H127646   0.576   6.211   0.279
 2029TIP3    H227647   0.457   6.133   0.331
 2030TIP3   OH227648   2.711   2.684   8.458
 2030TIP3    H127649   2.745   2.767   8.491
 2030TIP3    H227650   2.623   2.678   8.495
 2031TIP3   OH227651   4.100   6.376   1.877
 2031TIP3    H127652   4.086   6.463   1.915
 2031TIP3    H227653   4.117   6.319   1.952
 2032TIP3   OH227654   1.710   2.667   1.202
 2032TIP3    H127655   1.635   2.701   1.251
 2032TIP3    H227656   1.736   2.589   1.251
 2033TIP3   OH227657   0.298   0.483   5.754
 2033TIP3    H127658   0.357   0.555   5.780
 2033TIP3    H227659   0.210   0.519   5.765
 2034TIP3   OH227660   4.816   6.862   8.356
 2034TIP3    H127661   4.760   6.805   8.303
 2034TIP3    H227662   4.793   0.051   8.329
 2035TIP3   OH227663   6.089   6.759   7.149
 2035TIP3    H127664   6.141   6.684   7.120
 2035TIP3    H227665   6.114   6.830   7.090
 2036TIP3   OH227666   0.918   6.189   8.321
 2036TIP3    H127667   1.007   6.174   8.288
 2036TIP3    H227668   0.872   6.232   8.248
 2037TIP3   OH227669   1.424   2.970   7.079
 2037TIP3    H127670   1.475   2.920   7.015
 2037TIP3    H227671   1.357   2.909   7.109
 2038TIP3   OH227672   1.286   4.688   0.481
 2038TIP3    H127673   1.280   4.601   0.520
 2038TIP3    H227674   1.312   4.746   0.553
 2039TIP3   OH227675   6.342   0.591   7.636
 2039TIP3    H127676   6.333   0.515   7.693
 2039TIP3    H227677   6.434   0.617   7.644
 2040TIP3   OH227678   4.673   4.371   6.361
 2040TIP3    H127679   4.719   4.357   6.444
 2040TIP3    H227680   4.593   4.418   6.386
 2041TIP3   OH227681   2.983   5.698   1.288
 2041TIP3    H127682   2.914   5.632   1.291
 2041TIP3    H227683   2.960   5.753   1.212
 2042TIP3   OH227684   0.161   6.065   0.959
 2042TIP3    H127685   0.150   6.078   1.054
 2042TIP3    H227686   0.200   5.978   0.951
 2043TIP3   OH227687   1.273   5.728   7.136
 2043TIP3    H127688   1.205   5.737   7.069
 2043TIP3    H227689   1.322   5.650   7.110
 2044TIP3   OH227690   4.155   6.458   2.294
 2044TIP3    H127691   4.065   6.475   2.266
 2044TIP3    H227692   4.186   6.391   2.232
 2045TIP3   OH227693   0.029   4.422   6.177
 2045TIP3    H127694   6.870   4.440   6.250
 2045TIP3    H227695   6.879   4.446   6.099
 2046TIP3   OH227696   1.560   2.065   1.825
 2046TIP3    H127697   1.639   2.036   1.870
 2046TIP3    H227698   1.586   2.071   1.733
 2047TIP3   OH227699   4.367   3.715   1.777
 2047TIP3    H127700   4.450   3.757   1.752
 2047TIP3    H227701   4.349   3.653   1.707
 2048TIP3   OH227702   4.727   5.645   7.933
 2048TIP3    H127703   4.706   5.585   8.004
 2048TIP3    H227704   4.818   5.625   7.910
 2049TIP3   OH227705   0.135   1.932   8.357
 2049TIP3    H127706   0.182   1.940   8.274
 2049TIP3    H227707   0.099   1.844   8.356
 2050TIP3   OH227708   2.030   4.039   1.318
 2050TIP3    H127709   2.007   3.989   1.397
 2050TIP3    H227710   2.071   4.119   1.352
 2051TIP3   OH227711   5.894   5.415   1.081
 2051TIP3    H127712   5.956   5.417   1.008
 2051TIP3    H227713   5.933   5.471   1.148
 2052TIP3   OH227714   6.257   6.602   7.002
 2052TIP3    H127715   6.334   6.659   6.994
 2052TIP3    H227716   6.246   6.565   6.915
 2053TIP3   OH227717   4.524   0.948   2.457
 2053TIP3    H127718   4.530   0.913   2.368
 2053TIP3    H227719   4.517   0.870   2.513
 2054TIP3   OH227720   5.854   1.985   0.707
 2054TIP3    H127721   5.896   1.902   0.728
 2054TIP3    H227722   5.762   1.962   0.691
 2055TIP3   OH227723   3.489   2.640   1.105
 2055TIP3    H127724   3.529   2.667   1.188
 2055TIP3    H227725   3.396   2.660   1.115
 2056TIP3   OH227726   0.755   5.718   6.500
 2056TIP3    H127727   0.668   5.679   6.494
 2056TIP3    H227728   0.792   5.711   6.412
 2057TIP3   OH227729   5.138   3.387   0.637
 2057TIP3    H127730   5.209   3.329   0.609
 2057TIP3    H227731   5.155   3.402   0.730
 2058TIP3   OH227732   3.463   3.661   0.660
 2058TIP3    H127733   3.446   3.656   0.754
 2058TIP3    H227734   3.379   3.685   0.622
 2059TIP3   OH227735   0.490   2.005   1.710
 2059TIP3    H127736   0.522   2.004   1.800
 2059TIP3    H227737   0.395   1.990   1.718
 2060TIP3   OH227738   4.042   3.266   2.487
 2060TIP3    H127739   4.133   3.250   2.511
 2060TIP3    H227740   4.045   3.347   2.435
 2061TIP3   OH227741   0.793   5.586   7.011
 2061TIP3    H127742   0.831   5.574   6.924
 2061TIP3    H227743   0.868   5.591   7.069
 2062TIP3   OH227744   5.926   3.857   6.496
 2062TIP3    H127745   5.850   3.819   6.541
 2062TIP3    H227746   5.889   3.899   6.419
 2063TIP3   OH227747   0.778   1.189   6.994
 2063TIP3    H127748   0.708   1.124   6.993
 2063TIP3    H227749   0.848   1.150   6.943
 2064TIP3   OH227750   3.471   2.164   1.482
 2064TIP3    H127751   3.473   2.098   1.412
 2064TIP3    H227752   3.560   2.163   1.518
 2065TIP3   OH227753   6.219   5.369   0.927
 2065TIP3    H127754   6.184   5.377   0.838
 2065TIP3    H227755   6.237   5.459   0.954
 2066TIP3   OH227756   2.381   6.827   7.199
 2066TIP3    H127757   2.326   0.002   7.219
 2066TIP3    H227758   2.362   6.807   7.107
 2067TIP3   OH227759   1.945   0.952   7.044
 2067TIP3    H127760   2.017   0.915   6.994
 2067TIP3    H227761   1.986   0.989   7.122
 2068TIP3   OH227762   1.592   0.997   7.531
 2068TIP3    H127763   1.535   1.030   7.602
 2068TIP3    H227764   1.627   1.076   7.490
 2069TIP3   OH227765   5.303   5.224   0.375
 2069TIP3    H127766   5.308   5.137   0.416
 2069TIP3    H227767   5.382   5.269   0.405
 2070TIP3   OH227768   5.317   2.414   1.074
 2070TIP3    H127769   5.257   2.425   1.148
 2070TIP3    H227770   5.265   2.438   0.997
 2071TIP3   OH227771   0.092   0.407   0.351
 2071TIP3    H127772   0.043   0.333   0.315
 2071TIP3    H227773   0.069   0.480   0.294
 2072TIP3   OH227774   6.630   1.676   1.561
 2072TIP3    H127775   6.544   1.682   1.602
 2072TIP3    H227776   6.623   1.601   1.501
 2073TIP3   OH227777   0.532   1.419   1.098
 2073TIP3    H127778   0.510   1.327   1.083
 2073TIP3    H227779   0.454   1.467   1.070
 2074TIP3   OH227780   5.599   0.388   1.288
 2074TIP3    H127781   5.677   0.360   1.240
 2074TIP3    H227782   5.525   0.361   1.234
 2075TIP3   OH227783   1.869   2.473   7.082
 2075TIP3    H127784   1.834   2.480   6.993
 2075TIP3    H227785   1.833   2.392   7.116
 2076TIP3   OH227786   4.887   5.917   0.765
 2076TIP3    H127787   4.925   5.864   0.835
 2076TIP3    H227788   4.807   5.953   0.804
 2077TIP3   OH227789   5.198   0.583   7.897
 2077TIP3    H127790   5.112   0.548   7.921
 2077TIP3    H227791   5.181   0.633   7.817
 2078TIP3   OH227792   5.433   5.312   8.501
 2078TIP3    H127793   5.518   5.345   8.532
 2078TIP3    H227794   5.450   5.284   8.411
 2079TIP3   OH227795   1.027   5.928   0.686
 2079TIP3    H127796   0.983   5.843   0.690
 2079TIP3    H227797   1.005   5.971   0.769
 2080TIP3   OH227798   4.909   6.798   1.506
 2080TIP3    H127799   4.908   6.829   1.415
 2080TIP3    H227800   4.835   6.843   1.547
 2081TIP3   OH227801   6.023   3.664   2.199
 2081TIP3    H127802   6.058   3.657   2.110
 2081TIP3    H227803   6.019   3.758   2.216
 2082TIP3   OH227804   5.245   6.327   1.041
 2082TIP3    H127805   5.299   6.294   1.113
 2082TIP3    H227806   5.173   6.263   1.034
 2083TIP3   OH227807   2.754   5.725   6.628
 2083TIP3    H127808   2.801   5.652   6.669
 2083TIP3    H227809   2.789   5.729   6.539
 2084TIP3   OH227810   1.991   1.804   8.153
 2084TIP3    H127811   1.895   1.802   8.145
 2084TIP3    H227812   2.015   1.890   8.119
 2085TIP3   OH227813   0.400   6.112   0.864
 2085TIP3    H127814   0.310   6.127   0.893
 2085TIP3    H227815   0.448   6.189   0.893
 2086TIP3   OH227816   3.892   2.756   7.558
 2086TIP3    H127817   3.859   2.686   7.614
 2086TIP3    H227818   3.824   2.823   7.563
 2087TIP3   OH227819   2.709   5.116   7.731
 2087TIP3    H127820   2.760   5.091   7.654
 2087TIP3    H227821   2.649   5.042   7.744
 2088TIP3   OH227822   2.600   4.365   1.163
 2088TIP3    H127823   2.667   4.303   1.133
 2088TIP3    H227824   2.649   4.429   1.215
 2089TIP3   OH227825   5.673   0.917   0.310
 2089TIP3    H127826   5.634   0.838   0.348
 2089TIP3    H227827   5.718   0.885   0.231
 2090TIP3   OH227828   3.872   5.577   7.373
 2090TIP3    H127829   3.904   5.580   7.283
 2090TIP3    H227830   3.794   5.521   7.369
 2091TIP3   OH227831   6.729   6.641   1.753
 2091TIP3    H127832   6.695   6.692   1.680
 2091TIP3    H227833   6.777   6.705   1.806
 2092TIP3   OH227834   3.652   5.232   6.429
 2092TIP3    H127835   3.685   5.142   6.425
 2092TIP3    H227836   3.714   5.283   6.377
 2093TIP3   OH227837   2.108   2.443   8.208
 2093TIP3    H127838   2.027   2.395   8.226
 2093TIP3    H227839   2.108   2.458   8.114
 2094TIP3   OH227840   1.749   1.624   6.431
 2094TIP3    H127841   1.675   1.674   6.396
 2094TIP3    H227842   1.826   1.676   6.407
 2095TIP3   OH227843   3.627   3.647   0.202
 2095TIP3    H127844   3.714   3.649   0.164
 2095TIP3    H227845   3.568   3.662   0.128
 2096TIP3   OH227846   3.043   2.407   1.290
 2096TIP3    H127847   3.066   2.323   1.251
 2096TIP3    H227848   3.127   2.447   1.313
 2097TIP3   OH227849   5.952   3.752   1.262
 2097TIP3    H127850   5.882   3.707   1.310
 2097TIP3    H227851   5.994   3.808   1.327
 2098TIP3   OH227852   0.786   5.674   1.575
 2098TIP3    H127853   0.850   5.710   1.635
 2098TIP3    H227854   0.838   5.628   1.509
 2099TIP3   OH227855   0.383   0.081   0.035
 2099TIP3    H127856   0.444   0.136   0.085
 2099TIP3    H227857   0.437   0.042   8.586
 2100TIP3   OH227858   3.757   1.143   2.167
 2100TIP3    H127859   3.778   1.126   2.259
 2100TIP3    H227860   3.840   1.171   2.129
 2101TIP3   OH227861   1.407   6.229   8.020
 2101TIP3    H127862   1.501   6.230   8.003
 2101TIP3    H227863   1.400   6.223   8.116
 2102TIP3   OH227864   0.412   4.059   1.407
 2102TIP3    H127865   0.488   4.005   1.427
 2102TIP3    H227866   0.432   4.144   1.448
 2103TIP3   OH227867   3.793   2.783   7.108
 2103TIP3    H127868   3.777   2.857   7.050
 2103TIP3    H227869   3.706   2.746   7.124
 2104TIP3   OH227870   2.432   3.839   1.235
 2104TIP3    H127871   2.349   3.795   1.252
 2104TIP3    H227872   2.457   3.810   1.147
 2105TIP3   OH227873   3.786   6.657   7.314
 2105TIP3    H127874   3.824   6.670   7.401
 2105TIP3    H227875   3.852   6.691   7.254
 2106TIP3   OH227876   1.468   5.806   6.906
 2106TIP3    H127877   1.457   5.751   6.828
 2106TIP3    H227878   1.514   5.749   6.968
 2107TIP3   OH227879   1.316   0.499   7.127
 2107TIP3    H127880   1.298   0.590   7.148
 2107TIP3    H227881   1.258   0.479   7.053
 2108TIP3   OH227882   2.407   5.622   0.272
 2108TIP3    H127883   2.355   5.542   0.286
 2108TIP3    H227884   2.343   5.693   0.280
 2109TIP3   OH227885   6.453   2.085   6.469
 2109TIP3    H127886   6.521   2.019   6.487
 2109TIP3    H227887   6.372   2.035   6.468
 2110TIP3   OH227888   5.146   0.564   6.606
 2110TIP3    H127889   5.218   0.627   6.609
 2110TIP3    H227890   5.087   0.598   6.538
 2111TIP3   OH227891   5.092   4.727   6.946
 2111TIP3    H127892   5.038   4.798   6.911
 2111TIP3    H227893   5.094   4.661   6.876
 2112TIP3   OH227894   5.966   0.211   8.413
 2112TIP3    H127895   6.015   0.269   8.354
 2112TIP3    H227896   5.958   0.129   8.365
 2113TIP3   OH227897   1.104   3.948   1.699
 2113TIP3    H127898   1.151   4.030   1.687
 2113TIP3    H227899   1.020   3.962   1.655
 2114TIP3   OH227900   6.313   1.066   7.745
 2114TIP3    H127901   6.276   1.126   7.680
 2114TIP3    H227902   6.389   1.027   7.701
 2115TIP3   OH227903   4.393   1.776   8.481
 2115TIP3    H127904   4.379   1.685   8.457
 2115TIP3    H227905   4.374   1.780   8.575
 2116TIP3   OH227906   1.161   5.140   1.565
 2116TIP3    H127907   1.077   5.184   1.556
 2116TIP3    H227908   1.139   5.049   1.586
 2117TIP3   OH227909   0.833   3.900   2.406
 2117TIP3    H127910   0.816   3.927   2.316
 2117TIP3    H227911   0.928   3.901   2.413
 2118TIP3   OH227912   5.967   6.793   6.504
 2118TIP3    H127913   5.999   6.721   6.450
 2118TIP3    H227914   6.023   6.792   6.582
 2119TIP3   OH227915   6.383   6.715   6.363
 2119TIP3    H127916   6.352   6.722   6.273
 2119TIP3    H227917   6.404   6.805   6.389
 2120TIP3   OH227918   3.356   2.093   0.072
 2120TIP3    H127919   3.354   2.184   0.044
 2120TIP3    H227920   3.447   2.066   0.063
 2121TIP3   OH227921   0.329   2.378   8.452
 2121TIP3    H127922   0.260   2.330   8.407
 2121TIP3    H227923   0.330   2.464   8.410
 2122TIP3   OH227924   4.494   3.556   8.058
 2122TIP3    H127925   4.569   3.608   8.030
 2122TIP3    H227926   4.488   3.572   8.152
 2123TIP3   OH227927   0.002   0.582   7.719
 2123TIP3    H127928   0.043   0.508   7.673
 2123TIP3    H227929   6.889   0.549   7.808
 2124TIP3   OH227930   0.490   4.329   6.768
 2124TIP3    H127931   0.558   4.261   6.767
 2124TIP3    H227932   0.513   4.387   6.695
 2125TIP3   OH227933   0.084   2.140   2.171
 2125TIP3    H127934   0.060   2.079   2.241
 2125TIP3    H227935   0.104   2.084   2.096
 2126TIP3   OH227936   4.448   6.340   1.450
 2126TIP3    H127937   4.406   6.330   1.364
 2126TIP3    H227938   4.378   6.326   1.513
 2127TIP3   OH227939   0.255   2.696   6.325
 2127TIP3    H127940   0.212   2.729   6.404
 2127TIP3    H227941   0.196   2.720   6.254
 2128TIP3   OH227942   6.672   0.163   8.483
 2128TIP3    H127943   6.735   0.092   8.471
 2128TIP3    H227944   6.659   0.199   8.395
 2129TIP3   OH227945   5.912   0.731   7.948
 2129TIP3    H127946   5.898   0.663   7.882
 2129TIP3    H227947   5.984   0.785   7.913
 2130TIP3   OH227948   2.080   5.111   6.968
 2130TIP3    H127949   2.037   5.111   6.883
 2130TIP3    H227950   2.026   5.167   7.023
 2131TIP3   OH227951   6.759   1.311   1.502
 2131TIP3    H127952   6.678   1.326   1.453
 2131TIP3    H227953   6.746   1.226   1.545
 2132TIP3   OH227954   0.821   2.880   0.955
 2132TIP3    H127955   0.862   2.965   0.970
 2132TIP3    H227956   0.767   2.893   0.877
 2133TIP3   OH227957   5.036   4.385   7.294
 2133TIP3    H127958   4.985   4.457   7.257
 2133TIP3    H227959   5.080   4.345   7.219
 2134TIP3   OH227960   4.387   4.844   7.027
 2134TIP3    H127961   4.300   4.875   7.051
 2134TIP3    H227962   4.437   4.923   7.007
 2135TIP3   OH227963   6.420   0.833   8.417
 2135TIP3    H127964   6.349   0.779   8.451
 2135TIP3    H227965   6.417   0.913   8.470
 2136TIP3   OH227966   4.424   5.717   1.801
 2136TIP3    H127967   4.445   5.799   1.846
 2136TIP3    H227968   4.330   5.708   1.811
 2137TIP3   OH227969   1.543   6.535   1.244
 2137TIP3    H127970   1.464   6.558   1.293
 2137TIP3    H227971   1.537   6.586   1.164
 2138TIP3   OH227972   6.111   4.321   1.443
 2138TIP3    H127973   6.077   4.300   1.356
 2138TIP3    H227974   6.161   4.401   1.430
 2139TIP3   OH227975   3.898   1.363   1.236
 2139TIP3    H127976   3.987   1.362   1.272
 2139TIP3    H227977   3.864   1.275   1.252
 2140TIP3   OH227978   6.838   3.352   6.627
 2140TIP3    H127979   6.771   3.390   6.684
 2140TIP3    H227980   6.821   3.392   6.541
 2141TIP3   OH227981   3.068   2.748   2.635
 2141TIP3    H127982   3.128   2.756   2.710
 2141TIP3    H227983   3.098   2.670   2.589
 2142TIP3   OH227984   5.167   0.322   1.618
 2142TIP3    H127985   5.182   0.319   1.712
 2142TIP3    H227986   5.090   0.379   1.609
 2143TIP3   OH227987   0.803   0.671   6.481
 2143TIP3    H127988   0.756   0.752   6.459
 2143TIP3    H227989   0.772   0.607   6.417
 2144TIP3   OH227990   6.133   2.320   8.369
 2144TIP3    H127991   6.078   2.343   8.294
 2144TIP3    H227992   6.153   2.227   8.357
 2145TIP3   OH227993   0.519   5.551   1.166
 2145TIP3    H127994   0.428   5.527   1.151
 2145TIP3    H227995   0.527   5.640   1.132
 2146TIP3   OH227996   5.781   0.954   7.796
 2146TIP3    H127997   5.722   0.935   7.869
 2146TIP3    H227998   5.830   1.031   7.824
 2147TIP3   OH227999   5.237   5.025   8.112
 2147TIP3    H128000   5.182   4.951   8.087
 2147TIP3    H228001   5.305   5.027   8.044
 2148TIP3   OH228002   4.414   3.059   1.579
 2148TIP3    H128003   4.418   3.091   1.489
 2148TIP3    H228004   4.395   3.137   1.632
 2149TIP3   OH228005   1.082   4.900   7.007
 2149TIP3    H128006   1.109   4.967   6.945
 2149TIP3    H228007   1.012   4.941   7.058
 2150TIP3   OH228008   0.867   4.394   6.615
 2150TIP3    H128009   0.924   4.366   6.544
 2150TIP3    H228010   0.835   4.480   6.588
 2151TIP3   OH228011   3.809   4.477   7.454
 2151TIP3    H128012   3.740   4.503   7.515
 2151TIP3    H228013   3.768   4.410   7.398
 2152TIP3   OH228014   5.684   3.601   1.395
 2152TIP3    H128015   5.672   3.621   1.302
 2152TIP3    H228016   5.678   3.686   1.438
 2153TIP3   OH228017   4.559   5.750   0.413
 2153TIP3    H128018   4.492   5.735   0.346
 2153TIP3    H228019   4.629   5.795   0.366
 2154TIP3   OH228020   5.865   4.969   7.600
 2154TIP3    H128021   5.950   4.985   7.559
 2154TIP3    H228022   5.805   4.959   7.526
 2155TIP3   OH228023   4.205   1.537   0.082
 2155TIP3    H128024   4.139   1.595   0.044
 2155TIP3    H228025   4.169   1.512   0.167
 2156TIP3   OH228026   5.610   3.059   0.610
 2156TIP3    H128027   5.644   2.993   0.550
 2156TIP3    H228028   5.550   3.011   0.668
 2157TIP3   OH228029   2.751   1.863   1.931
 2157TIP3    H128030   2.671   1.911   1.955
 2157TIP3    H228031   2.721   1.792   1.874
 2158TIP3   OH228032   0.693   0.123   8.231
 2158TIP3    H128033   0.716   0.168   8.150
 2158TIP3    H228034   0.740   0.039   8.226
 2159TIP3   OH228035   6.475   5.096   1.152
 2159TIP3    H128036   6.473   5.113   1.058
 2159TIP3    H228037   6.396   5.139   1.187
 2160TIP3   OH228038   2.079   1.978   7.577
 2160TIP3    H128039   2.065   1.919   7.503
 2160TIP3    H228040   2.174   1.983   7.585
 2161TIP3   OH228041   0.301   5.422   7.320
 2161TIP3    H128042   0.376   5.440   7.378
 2161TIP3    H228043   0.303   5.492   7.255
 2162TIP3   OH228044   4.329   0.135   7.972
 2162TIP3    H128045   4.260   0.078   8.007
 2162TIP3    H228046   4.409   0.105   8.017
 2163TIP3   OH228047   1.067   1.411   7.082
 2163TIP3    H128048   1.122   1.478   7.122
 2163TIP3    H228049   0.981   1.422   7.124
 2164TIP3   OH228050   5.550   5.725   0.147
 2164TIP3    H128051   5.473   5.780   0.130
 2164TIP3    H228052   5.624   5.779   0.121
 2165TIP3   OH228053   0.733   2.682   0.155
 2165TIP3    H128054   0.745   2.587   0.154
 2165TIP3    H228055   0.822   2.717   0.159
 2166TIP3   OH228056   2.164   6.143   1.861
 2166TIP3    H128057   2.217   6.181   1.930
 2166TIP3    H228058   2.202   6.057   1.845
 2167TIP3   OH228059   2.740   4.575   6.528
 2167TIP3    H128060   2.805   4.507   6.549
 2167TIP3    H228061   2.782   4.657   6.554
 2168TIP3   OH228062   4.003   2.203   6.977
 2168TIP3    H128063   4.095   2.219   6.995
 2168TIP3    H228064   3.993   2.215   6.883
 2169TIP3   OH228065   6.844   4.790   1.200
 2169TIP3    H128066   6.842   4.725   1.270
 2169TIP3    H228067   6.849   4.875   1.245
 2170TIP3   OH228068   0.352   0.313   1.353
 2170TIP3    H128069   0.411   0.310   1.278
 2170TIP3    H228070   0.388   0.381   1.410
 2171TIP3   OH228071   2.068   5.275   1.702
 2171TIP3    H128072   2.081   5.364   1.732
 2171TIP3    H228073   1.993   5.280   1.642
 2172TIP3   OH228074   3.450   4.556   1.060
 2172TIP3    H128075   3.475   4.468   1.033
 2172TIP3    H228076   3.411   4.545   1.146
 2173TIP3   OH228077   5.495   3.965   6.928
 2173TIP3    H128078   5.574   3.986   6.879
 2173TIP3    H228079   5.509   3.875   6.959
 2174TIP3   OH228080   2.626   1.779   0.423
 2174TIP3    H128081   2.587   1.788   0.510
 2174TIP3    H228082   2.551   1.774   0.363
 2175TIP3   OH228083   5.650   6.436   0.173
 2175TIP3    H128084   5.663   6.523   0.135
 2175TIP3    H228085   5.574   6.446   0.230
 2176TIP3   OH228086   3.869   2.514   7.727
 2176TIP3    H128087   3.791   2.488   7.776
 2176TIP3    H228088   3.935   2.529   7.794
 2177TIP3   OH228089   3.170   6.631   0.694
 2177TIP3    H128090   3.125   6.584   0.764
 2177TIP3    H228091   3.099   6.667   0.641
 2178TIP3   OH228092   5.656   6.654   7.167
 2178TIP3    H128093   5.662   6.627   7.075
 2178TIP3    H228094   5.722   6.601   7.212
 2179TIP3   OH228095   4.613   4.260   1.389
 2179TIP3    H128096   4.573   4.173   1.380
 2179TIP3    H228097   4.682   4.261   1.324
 2180TIP3   OH228098   5.568   2.970   7.380
 2180TIP3    H128099   5.595   3.030   7.449
 2180TIP3    H228100   5.646   2.920   7.359
 2181TIP3   OH228101   5.619   2.686   8.427
 2181TIP3    H128102   5.675   2.749   8.381
 2181TIP3    H228103   5.566   2.647   8.357
 2182TIP3   OH228104   6.638   2.909   6.970
 2182TIP3    H128105   6.634   2.896   7.065
 2182TIP3    H228106   6.554   2.877   6.938
 2183TIP3   OH228107   1.216   3.582   1.480
 2183TIP3    H128108   1.295   3.533   1.459
 2183TIP3    H228109   1.240   3.673   1.464
 2184TIP3   OH228110   1.843   0.175   7.593
 2184TIP3    H128111   1.778   0.244   7.579
 2184TIP3    H228112   1.914   0.196   7.532
 2185TIP3   OH228113   6.231   3.564   1.684
 2185TIP3    H128114   6.140   3.592   1.682
 2185TIP3    H228115   6.281   3.644   1.698
 2186TIP3   OH228116   2.908   5.773   2.853
 2186TIP3    H128117   2.991   5.779   2.805
 2186TIP3    H228118   2.893   5.862   2.885
 2187TIP3   OH228119   5.821   0.913   8.421
 2187TIP3    H128120   5.792   0.892   8.332
 2187TIP3    H228121   5.794   1.004   8.434
 2188TIP3   OH228122   4.252   4.147   7.291
 2188TIP3    H128123   4.203   4.230   7.299
 2188TIP3    H228124   4.251   4.127   7.198
 2189TIP3   OH228125   3.081   1.862   0.479
 2189TIP3    H128126   3.144   1.877   0.550
 2189TIP3    H228127   3.074   1.767   0.473
 2190TIP3   OH228128   3.963   4.449   0.150
 2190TIP3    H128129   4.028   4.397   0.198
 2190TIP3    H228130   3.915   4.385   0.097
 2191TIP3   OH228131   0.533   3.844   0.607
 2191TIP3    H128132   0.562   3.849   0.516
 2191TIP3    H228133   0.572   3.921   0.649
 2192TIP3   OH228134   6.524   6.447   6.904
 2192TIP3    H128135   6.479   6.364   6.887
 2192TIP3    H228136   6.611   6.435   6.865
 2193TIP3   OH228137   5.130   4.839   0.362
 2193TIP3    H128138   5.138   4.803   0.274
 2193TIP3    H228139   5.047   4.887   0.360
 2194TIP3   OH228140   4.436   3.199   0.816
 2194TIP3    H128141   4.375   3.128   0.836
 2194TIP3    H228142   4.472   3.224   0.902
 2195TIP3   OH228143   0.453   0.185   7.889
 2195TIP3    H128144   0.398   0.253   7.928
 2195TIP3    H228145   0.475   0.127   7.961
 2196TIP3   OH228146   6.161   0.601   7.423
 2196TIP3    H128147   6.221   0.597   7.348
 2196TIP3    H228148   6.218   0.608   7.499
 2197TIP3   OH228149   6.654   0.322   6.322
 2197TIP3    H128150   6.569   0.345   6.359
 2197TIP3    H228151   6.700   0.406   6.314
 2198TIP3   OH228152   0.018   1.443   7.411
 2198TIP3    H128153   0.111   1.441   7.389
 2198TIP3    H228154   6.880   1.372   7.359
 2199TIP3   OH228155   1.043   1.253   1.274
 2199TIP3    H128156   0.950   1.253   1.253
 2199TIP3    H228157   1.053   1.319   1.342
 2200TIP3   OH228158   5.925   2.438   0.713
 2200TIP3    H128159   5.951   2.350   0.741
 2200TIP3    H228160   5.839   2.425   0.673
 2201TIP3   OH228161   2.634   5.979   7.429
 2201TIP3    H128162   2.688   5.903   7.410
 2201TIP3    H228163   2.591   5.958   7.512
 2202TIP3   OH228164   1.271   2.673   8.030
 2202TIP3    H128165   1.334   2.607   8.000
 2202TIP3    H228166   1.266   2.659   8.125
 2203TIP3   OH228167   6.353   0.406   6.383
 2203TIP3    H128168   6.313   0.403   6.470
 2203TIP3    H228169   6.342   0.497   6.354
 2204TIP3   OH228170   4.316   3.979   6.452
 2204TIP3    H128171   4.385   4.045   6.447
 2204TIP3    H228172   4.347   3.908   6.396
 2205TIP3   OH228173   4.696   2.017   8.110
 2205TIP3    H128174   4.663   1.962   8.039
 2205TIP3    H228175   4.761   2.073   8.069
 2206TIP3   OH228176   1.292   3.607   6.920
 2206TIP3    H128177   1.278   3.543   6.850
 2206TIP3    H228178   1.376   3.648   6.899
 2207TIP3   OH228179   6.012   1.282   5.990
 2207TIP3    H128180   5.948   1.243   5.930
 2207TIP3    H228181   6.065   1.208   6.021
 2208TIP3   OH228182   1.381   3.185   0.619
 2208TIP3    H128183   1.321   3.251   0.653
 2208TIP3    H228184   1.332   3.103   0.624
 2209TIP3   OH228185   2.979   5.997   1.134
 2209TIP3    H128186   2.916   5.950   1.079
 2209TIP3    H228187   3.011   6.068   1.079
 2210TIP3   OH228188   3.421   5.958   8.487
 2210TIP3    H128189   3.391   5.872   8.514
 2210TIP3    H228190   3.503   5.971   8.535
 2211TIP3   OH228191   6.368   4.078   7.629
 2211TIP3    H128192   6.369   3.984   7.643
 2211TIP3    H228193   6.443   4.111   7.678
 2212TIP3   OH228194   0.909   0.900   7.438
 2212TIP3    H128195   0.979   0.914   7.375
 2212TIP3    H228196   0.918   0.972   7.501
 2213TIP3   OH228197   1.405   0.306   0.254
 2213TIP3    H128198   1.426   0.393   0.221
 2213TIP3    H228199   1.469   0.290   0.323
 2214TIP3   OH228200   6.503   1.518   7.728
 2214TIP3    H128201   6.466   1.446   7.779
 2214TIP3    H228202   6.574   1.477   7.678
 2215TIP3   OH228203   1.494   5.700   0.288
 2215TIP3    H128204   1.413   5.730   0.330
 2215TIP3    H228205   1.467   5.675   0.199
 2216TIP3   OH228206   0.207   5.904   6.723
 2216TIP3    H128207   0.287   5.853   6.709
 2216TIP3    H228208   0.148   5.875   6.653
 2217TIP3   OH228209   4.675   2.371   1.180
 2217TIP3    H128210   4.600   2.431   1.183
 2217TIP3    H228211   4.644   2.297   1.128
 2218TIP3   OH228212   1.373   0.747   6.852
 2218TIP3    H128213   1.380   0.661   6.810
 2218TIP3    H228214   1.424   0.805   6.795
 2219TIP3   OH228215   4.625   1.729   8.056
 2219TIP3    H128216   4.547   1.704   8.006
 2219TIP3    H228217   4.599   1.717   8.148
 2220TIP3   OH228218   1.510   1.097   0.887
 2220TIP3    H128219   1.549   1.084   0.800
 2220TIP3    H228220   1.459   1.177   0.878
 2221TIP3   OH228221   0.760   4.668   8.433
 2221TIP3    H128222   0.788   4.580   8.408
 2221TIP3    H228223   0.667   4.671   8.412
 2222TIP3   OH228224   1.724   0.163   0.228
 2222TIP3    H128225   1.717   0.172   0.133
 2222TIP3    H228226   1.733   0.253   0.260
 2223TIP3   OH228227   3.571   2.712   1.916
 2223TIP3    H128228   3.654   2.724   1.869
 2223TIP3    H228229   3.581   2.627   1.960
 2224TIP3   OH228230   5.049   5.086   2.269
 2224TIP3    H128231   5.132   5.040   2.260
 2224TIP3    H228232   5.027   5.079   2.362
 2225TIP3   OH228233   4.415   3.244   0.406
 2225TIP3    H128234   4.495   3.250   0.458
 2225TIP3    H228235   4.367   3.324   0.427
 2226TIP3   OH228236   4.556   3.831   0.449
 2226TIP3    H128237   4.510   3.761   0.404
 2226TIP3    H228238   4.645   3.828   0.414
 2227TIP3   OH228239   2.728   4.359   1.673
 2227TIP3    H128240   2.806   4.340   1.726
 2227TIP3    H228241   2.703   4.275   1.636
 2228TIP3   OH228242   4.256   6.327   8.222
 2228TIP3    H128243   4.335   6.376   8.245
 2228TIP3    H228244   4.289   6.240   8.199
 2229TIP3   OH228245   3.299   1.487   8.368
 2229TIP3    H128246   3.212   1.456   8.341
 2229TIP3    H228247   3.327   1.545   8.297
 2230TIP3   OH228248   4.581   0.152   6.911
 2230TIP3    H128249   4.495   0.147   6.952
 2230TIP3    H228250   4.592   0.068   6.867
 2231TIP3   OH228251   5.411   0.247   1.496
 2231TIP3    H128252   5.343   0.202   1.545
 2231TIP3    H228253   5.365   0.291   1.425
 2232TIP3   OH228254   3.209   6.530   7.921
 2232TIP3    H128255   3.280   6.586   7.891
 2232TIP3    H228256   3.163   6.505   7.841
 2233TIP3   OH228257   5.175   0.422   7.503
 2233TIP3    H128258   5.230   0.465   7.438
 2233TIP3    H228259   5.147   0.341   7.459
 2234TIP3   OH228260   0.453   1.021   7.300
 2234TIP3    H128261   0.519   0.951   7.305
 2234TIP3    H228262   0.370   0.976   7.317
 2235TIP3   OH228263   0.507   6.335   7.477
 2235TIP3    H128264   0.532   6.318   7.568
 2235TIP3    H228265   0.532   6.426   7.462
 2236TIP3   OH228266   4.708   2.141   1.570
 2236TIP3    H128267   4.617   2.113   1.560
 2236TIP3    H228268   4.752   2.065   1.609
 2237TIP3   OH228269   4.139   1.967   0.967
 2237TIP3    H128270   4.062   1.942   1.019
 2237TIP3    H228271   4.107   1.970   0.877
 2238TIP3   OH228272   4.043   1.156   7.638
 2238TIP3    H128273   3.978   1.146   7.569
 2238TIP3    H228274   4.003   1.216   7.700
 2239TIP3   OH228275   2.115   4.474   7.670
 2239TIP3    H128276   2.159   4.539   7.725
 2239TIP3    H228277   2.158   4.391   7.692
 2240TIP3   OH228278   4.990   3.802   0.834
 2240TIP3    H128279   4.999   3.757   0.750
 2240TIP3    H228280   4.897   3.791   0.857
 2241TIP3   OH228281   5.086   1.461   8.420
 2241TIP3    H128282   4.999   1.432   8.393
 2241TIP3    H228283   5.077   1.482   8.513
 2242TIP3   OH228284   3.110   5.667   7.154
 2242TIP3    H128285   3.091   5.695   7.064
 2242TIP3    H228286   3.024   5.664   7.197
 2243TIP3   OH228287   3.863   4.696   7.295
 2243TIP3    H128288   3.779   4.735   7.270
 2243TIP3    H228289   3.839   4.628   7.359
 2244TIP3   OH228290   5.926   5.542   0.810
 2244TIP3    H128291   5.882   5.510   0.731
 2244TIP3    H228292   5.925   5.637   0.801
 2245TIP3   OH228293   0.349   4.351   8.248
 2245TIP3    H128294   0.324   4.365   8.156
 2245TIP3    H228295   0.267   4.356   8.296
 2246TIP3   OH228296   1.039   6.661   0.003
 2246TIP3    H128297   0.968   6.607   0.038
 2246TIP3    H228298   1.053   6.729   0.070
 2247TIP3   OH228299   5.094   0.731   7.023
 2247TIP3    H128300   5.076   0.653   6.971
 2247TIP3    H228301   5.024   0.792   7.000
 2248TIP3   OH228302   4.589   6.381   0.262
 2248TIP3    H128303   4.570   6.387   0.356
 2248TIP3    H228304   4.505   6.361   0.222
 2249TIP3   OH228305   1.525   5.405   1.874
 2249TIP3    H128306   1.479   5.351   1.810
 2249TIP3    H228307   1.455   5.439   1.931
 2250TIP3   OH228308   6.688   3.595   0.749
 2250TIP3    H128309   6.595   3.571   0.743
 2250TIP3    H228310   6.730   3.548   0.677
 2251TIP3   OH228311   1.683   0.626   0.433
 2251TIP3    H128312   1.724   0.610   0.519
 2251TIP3    H228313   1.659   0.718   0.435
 2252TIP3   OH228314   6.052   3.386   7.785
 2252TIP3    H128315   6.120   3.451   7.802
 2252TIP3    H228316   6.026   3.402   7.694
 2253TIP3   OH228317   5.375   3.688   1.735
 2253TIP3    H128318   5.417   3.675   1.649
 2253TIP3    H228319   5.439   3.654   1.798
 2254TIP3   OH228320   3.973   6.787   7.507
 2254TIP3    H128321   3.905   6.845   7.472
 2254TIP3    H228322   4.010   6.836   7.581
 2255TIP3   OH228323   1.903   5.051   7.341
 2255TIP3    H128324   1.970   4.988   7.315
 2255TIP3    H228325   1.820   5.006   7.324
 2256TIP3   OH228326   3.525   3.120   7.254
 2256TIP3    H128327   3.481   3.106   7.170
 2256TIP3    H228328   3.470   3.073   7.317
 2257TIP3   OH228329   5.330   2.233   6.304
 2257TIP3    H128330   5.276   2.300   6.346
 2257TIP3    H228331   5.276   2.154   6.304
 2258TIP3   OH228332   6.376   6.184   0.739
 2258TIP3    H128333   6.283   6.204   0.745
 2258TIP3    H228334   6.415   6.262   0.700
 2259TIP3   OH228335   4.099   1.616   0.815
 2259TIP3    H128336   4.010   1.648   0.804
 2259TIP3    H228337   4.150   1.661   0.747
 2260TIP3   OH228338   5.214   0.644   1.188
 2260TIP3    H128339   5.174   0.557   1.182
 2260TIP3    H228340   5.305   0.629   1.163
 2261TIP3   OH228341   0.387   0.748   5.627
 2261TIP3    H128342   0.339   0.825   5.657
 2261TIP3    H228343   0.469   0.750   5.677
 2262TIP3   OH228344   4.906   1.333   7.933
 2262TIP3    H128345   4.912   1.393   7.858
 2262TIP3    H228346   4.825   1.359   7.977
 2263TIP3   OH228347   4.086   1.099   6.792
 2263TIP3    H128348   3.994   1.109   6.769
 2263TIP3    H228349   4.134   1.124   6.713
 2264TIP3   OH228350   4.023   6.045   1.260
 2264TIP3    H128351   3.970   6.121   1.286
 2264TIP3    H228352   3.982   5.971   1.304
 2265TIP3   OH228353   5.334   5.891   0.029
 2265TIP3    H128354   5.332   5.982   8.619
 2265TIP3    H228355   5.244   5.873   0.056
 2266TIP3   OH228356   6.010   4.019   7.452
 2266TIP3    H128357   6.033   3.927   7.464
 2266TIP3    H228358   5.938   4.034   7.514
 2267TIP3   OH228359   1.387   6.884   2.190
 2267TIP3    H128360   1.446   0.058   2.204
 2267TIP3    H228361   1.438   6.823   2.138
 2268TIP3   OH228362   3.716   3.942   2.173
 2268TIP3    H128363   3.763   4.023   2.190
 2268TIP3    H228364   3.627   3.970   2.151
 2269TIP3   OH228365   3.283   4.154   1.682
 2269TIP3    H128366   3.210   4.209   1.654
 2269TIP3    H228367   3.258   4.065   1.655
 2270TIP3   OH228368   2.897   4.067   0.341
 2270TIP3    H128369   2.818   4.076   0.287
 2270TIP3    H228370   2.940   3.989   0.306
 2271TIP3   OH228371   4.180   5.503   8.509
 2271TIP3    H128372   4.107   5.476   8.565
 2271TIP3    H228373   4.224   5.572   8.558
 2272TIP3   OH228374   4.393   2.277   6.195
 2272TIP3    H128375   4.339   2.199   6.179
 2272TIP3    H228376   4.483   2.248   6.179
 2273TIP3   OH228377   4.974   4.047   6.516
 2273TIP3    H128378   5.057   3.999   6.513
 2273TIP3    H228379   4.926   4.015   6.440
 2274TIP3   OH228380   3.630   5.549   7.234
 2274TIP3    H128381   3.643   5.644   7.233
 2274TIP3    H228382   3.562   5.533   7.170
 2275TIP3   OH228383   0.894   6.261   1.073
 2275TIP3    H128384   0.912   6.342   1.026
 2275TIP3    H228385   0.975   6.241   1.119
 2276TIP3   OH228386   0.905   6.424   0.689
 2276TIP3    H128387   0.866   6.468   0.613
 2276TIP3    H228388   0.867   6.336   0.688
 2277TIP3   OH228389   1.068   0.496   1.626
 2277TIP3    H128390   1.055   0.487   1.720
 2277TIP3    H228391   0.987   0.463   1.587
 2278TIP3   OH228392   2.888   2.731   0.181
 2278TIP3    H128393   2.799   2.703   0.159
 2278TIP3    H228394   2.945   2.671   0.132
 2279TIP3   OH228395   2.161   4.215   0.504
 2279TIP3    H128396   2.143   4.246   0.593
 2279TIP3    H228397   2.115   4.278   0.447
 2280TIP3   OH228398   2.809   5.575   2.645
 2280TIP3    H128399   2.773   5.611   2.726
 2280TIP3    H228400   2.904   5.575   2.658
 2281TIP3   OH228401   4.554   0.777   2.210
 2281TIP3    H128402   4.543   0.763   2.116
 2281TIP3    H228403   4.603   0.700   2.239
 2282TIP3   OH228404   6.572   5.650   1.149
 2282TIP3    H128405   6.589   5.740   1.121
 2282TIP3    H228406   6.631   5.597   1.095
 2283TIP3   OH228407   4.306   6.765   1.779
 2283TIP3    H128408   4.391   6.721   1.780
 2283TIP3    H228409   4.302   6.808   1.693
 2284TIP3   OH228410   5.656   4.834   0.964
 2284TIP3    H128411   5.619   4.825   1.052
 2284TIP3    H228412   5.587   4.802   0.906
 2285TIP3   OH228413   2.280   0.517   7.319
 2285TIP3    H128414   2.349   0.487   7.378
 2285TIP3    H228415   2.218   0.563   7.377
 2286TIP3   OH228416   1.686   5.539   8.363
 2286TIP3    H128417   1.626   5.605   8.397
 2286TIP3    H228418   1.705   5.567   8.274
 2287TIP3   OH228419   2.930   3.704   0.257
 2287TIP3    H128420   2.896   3.773   0.201
 2287TIP3    H228421   3.017   3.735   0.284
 2288TIP3   OH228422   6.023   3.363   8.431
 2288TIP3    H128423   6.058   3.290   8.482
 2288TIP3    H228424   6.100   3.415   8.407
 2289TIP3   OH228425   0.289   6.523   1.091
 2289TIP3    H128426   0.320   6.589   1.152
 2289TIP3    H228427   0.226   6.471   1.141
 2290TIP3   OH228428   1.517   0.989   7.876
 2290TIP3    H128429   1.532   0.958   7.965
 2290TIP3    H228430   1.460   0.923   7.837
 2291TIP3   OH228431   0.718   4.870   0.406
 2291TIP3    H128432   0.629   4.839   0.391
 2291TIP3    H228433   0.773   4.793   0.394
 2292TIP3   OH228434   1.604   1.550   8.101
 2292TIP3    H128435   1.644   1.587   8.179
 2292TIP3    H228436   1.678   1.527   8.044
 2293TIP3   OH228437   3.180   5.134   8.450
 2293TIP3    H128438   3.118   5.068   8.420
 2293TIP3    H228439   3.132   5.186   8.514
 2294TIP3   OH228440   3.034   5.091   0.071
 2294TIP3    H128441   3.115   5.075   0.118
 2294TIP3    H228442   2.967   5.098   0.140
 2295TIP3   OH228443   0.418   3.433   0.800
 2295TIP3    H128444   0.410   3.339   0.786
 2295TIP3    H228445   0.465   3.441   0.883
 2296TIP3   OH228446   4.918   2.754   1.856
 2296TIP3    H128447   4.960   2.840   1.847
 2296TIP3    H228448   4.841   2.771   1.910
 2297TIP3   OH228449   2.114   2.334   0.218
 2297TIP3    H128450   2.020   2.321   0.203
 2297TIP3    H228451   2.141   2.397   0.152
 2298TIP3   OH228452   4.772   1.197   1.190
 2298TIP3    H128453   4.774   1.152   1.275
 2298TIP3    H228454   4.710   1.147   1.138
 2299TIP3   OH228455   4.540   1.642   0.302
 2299TIP3    H128456   4.555   1.563   0.250
 2299TIP3    H228457   4.481   1.614   0.372
 2300TIP3   OH228458   1.017   4.109   8.479
 2300TIP3    H128459   1.013   4.030   8.425
 2300TIP3    H228460   1.091   4.158   8.445
 2301TIP3   OH228461   6.437   1.720   2.366
 2301TIP3    H128462   6.418   1.813   2.378
 2301TIP3    H228463   6.352   1.676   2.378
 2302TIP3   OH228464   2.404   1.179   7.339
 2302TIP3    H128465   2.353   1.248   7.383
 2302TIP3    H228466   2.414   1.111   7.405
 2303TIP3   OH228467   4.157   1.630   1.926
 2303TIP3    H128468   4.129   1.705   1.874
 2303TIP3    H228469   4.077   1.599   1.968
 2304TIP3   OH228470   3.982   2.035   0.729
 2304TIP3    H128471   3.907   1.989   0.766
 2304TIP3    H228472   4.036   1.967   0.689
 2305TIP3   OH228473   2.699   4.812   6.319
 2305TIP3    H128474   2.686   4.891   6.267
 2305TIP3    H228475   2.713   4.844   6.408
 2306TIP3   OH228476   5.688   4.266   7.835
 2306TIP3    H128477   5.655   4.351   7.804
 2306TIP3    H228478   5.611   4.222   7.870
 2307TIP3   OH228479   6.758   1.991   7.576
 2307TIP3    H128480   6.705   2.010   7.653
 2307TIP3    H228481   6.696   1.960   7.511
 2308TIP3   OH228482   2.351   3.300   1.157
 2308TIP3    H128483   2.339   3.256   1.073
 2308TIP3    H228484   2.329   3.392   1.138
 2309TIP3   OH228485   5.357   6.841   1.717
 2309TIP3    H128486   5.384   6.796   1.796
 2309TIP3    H228487   5.438   6.865   1.673
 2310TIP3   OH228488   4.910   6.718   7.669
 2310TIP3    H128489   4.951   6.642   7.626
 2310TIP3    H228490   4.916   6.699   7.762
 2311TIP3   OH228491   4.497   1.363   0.104
 2311TIP3    H128492   4.577   1.325   0.139
 2311TIP3    H228493   4.431   1.295   0.114
 2312TIP3   OH228494   2.690   2.610   1.565
 2312TIP3    H128495   2.653   2.570   1.644
 2312TIP3    H228496   2.633   2.684   1.547
 2313TIP3   OH228497   1.507   0.030   0.625
 2313TIP3    H128498   1.509   0.126   0.631
 2313TIP3    H228499   1.545   0.012   0.538
 2314TIP3   OH228500   2.626   4.127   0.267
 2314TIP3    H128501   2.577   4.142   0.348
 2314TIP3    H228502   2.564   4.150   0.198
 2315TIP3   OH228503   1.044   2.273   0.956
 2315TIP3    H128504   0.997   2.235   1.031
 2315TIP3    H228505   1.001   2.236   0.879
 2316TIP3   OH228506   1.388   1.480   1.333
 2316TIP3    H128507   1.394   1.389   1.361
 2316TIP3    H228508   1.298   1.506   1.354
 2317TIP3   OH228509   1.384   2.639   0.969
 2317TIP3    H128510   1.474   2.626   0.939
 2317TIP3    H228511   1.358   2.553   1.003
 2318TIP3   OH228512   4.188   6.649   0.025
 2318TIP3    H128513   4.268   6.598   0.016
 2318TIP3    H228514   4.133   6.599   0.085
 2319TIP3   OH228515   5.269   1.612   0.447
 2319TIP3    H128516   5.258   1.581   0.358
 2319TIP3    H228517   5.330   1.686   0.440
 2320TIP3   OH228518   2.897   4.356   7.189
 2320TIP3    H128519   2.934   4.378   7.275
 2320TIP3    H228520   2.871   4.441   7.153
 2321TIP3   OH228521   1.891   2.261   0.687
 2321TIP3    H128522   1.812   2.278   0.737
 2321TIP3    H228523   1.946   2.338   0.702
 2322TIP3   OH228524   1.796   3.077   0.909
 2322TIP3    H128525   1.762   3.130   0.836
 2322TIP3    H228526   1.868   3.027   0.870
 2323TIP3   OH228527   0.085   0.445   6.403
 2323TIP3    H128528   0.009   0.470   6.349
 2323TIP3    H228529   0.088   0.350   6.397
 2324TIP3   OH228530   4.416   0.554   0.172
 2324TIP3    H128531   4.406   0.649   0.166
 2324TIP3    H228532   4.507   0.538   0.146
 2325TIP3   OH228533   4.547   1.967   7.414
 2325TIP3    H128534   4.617   1.902   7.405
 2325TIP3    H228535   4.582   2.030   7.477
 2326TIP3   OH228536   5.917   3.093   0.580
 2326TIP3    H128537   5.974   3.133   0.646
 2326TIP3    H228538   5.828   3.107   0.614
 2327TIP3   OH228539   4.568   2.195   8.445
 2327TIP3    H128540   4.605   2.261   8.387
 2327TIP3    H228541   4.485   2.171   8.404
 2328TIP3   OH228542   2.856   2.094   7.347
 2328TIP3    H128543   2.901   2.119   7.267
 2328TIP3    H228544   2.768   2.069   7.319
 2329TIP3   OH228545   3.824   0.910   8.136
 2329TIP3    H128546   3.902   0.945   8.179
 2329TIP3    H228547   3.826   0.816   8.154
 2330TIP3   OH228548   4.637   1.545   6.850
 2330TIP3    H128549   4.695   1.502   6.913
 2330TIP3    H228550   4.687   1.545   6.768
 2331TIP3   OH228551   3.855   1.945   2.427
 2331TIP3    H128552   3.787   1.966   2.363
 2331TIP3    H228553   3.876   2.029   2.468
 2332TIP3   OH228554   4.774   0.190   1.495
 2332TIP3    H128555   4.747   0.127   1.561
 2332TIP3    H228556   4.747   0.150   1.412
 2333TIP3   OH228557   0.197   6.009   7.935
 2333TIP3    H128558   0.232   5.923   7.959
 2333TIP3    H228559   0.229   6.025   7.847
 2334TIP3   OH228560   6.540   3.184   8.074
 2334TIP3    H128561   6.583   3.113   8.025
 2334TIP3    H228562   6.494   3.139   8.145
 2335TIP3   OH228563   2.358   6.786   1.765
 2335TIP3    H128564   2.366   6.691   1.767
 2335TIP3    H228565   2.274   6.802   1.721
 2336TIP3   OH228566   5.059   1.031   0.560
 2336TIP3    H128567   5.120   1.090   0.516
 2336TIP3    H228568   5.006   1.089   0.617
 2337TIP3   OH228569   3.376   4.518   1.335
 2337TIP3    H128570   3.369   4.611   1.313
 2337TIP3    H228571   3.379   4.516   1.431
 2338TIP3   OH228572   6.629   6.715   6.103
 2338TIP3    H128573   6.654   6.642   6.047
 2338TIP3    H228574   6.548   6.749   6.064
 2339TIP3   OH228575   1.746   3.785   1.161
 2339TIP3    H128576   1.821   3.801   1.104
 2339TIP3    H228577   1.780   3.726   1.229
 2340TIP3   OH228578   6.636   3.817   0.435
 2340TIP3    H128579   6.719   3.811   0.387
 2340TIP3    H228580   6.636   3.904   0.474
 2341TIP3   OH228581   1.560   0.435   0.704
 2341TIP3    H128582   1.604   0.454   0.787
 2341TIP3    H228583   1.487   0.497   0.701
 2342TIP3   OH228584   1.206   1.824   1.136
 2342TIP3    H128585   1.200   1.887   1.208
 2342TIP3    H228586   1.122   1.777   1.138
 2343TIP3   OH228587   3.303   2.334   1.068
 2343TIP3    H128588   3.234   2.396   1.042
 2343TIP3    H228589   3.256   2.266   1.116
 2344TIP3   OH228590   4.928   4.230   1.008
 2344TIP3    H128591   5.017   4.246   0.976
 2344TIP3    H228592   4.880   4.204   0.930
 2345TIP3   OH228593   1.884   3.946   7.242
 2345TIP3    H128594   1.867   3.854   7.222
 2345TIP3    H228595   1.882   3.990   7.157
 2346TIP3   OH228596   6.481   5.243   8.248
 2346TIP3    H128597   6.402   5.246   8.302
 2346TIP3    H228598   6.475   5.161   8.201
 2347TIP3   OH228599   3.148   3.907   0.772
 2347TIP3    H128600   3.159   4.000   0.752
 2347TIP3    H228601   3.228   3.866   0.738
 2348TIP3   OH228602   4.778   4.163   0.447
 2348TIP3    H128603   4.772   4.201   0.359
 2348TIP3    H228604   4.804   4.237   0.503
 2349TIP3   OH228605   3.878   1.090   2.454
 2349TIP3    H128606   3.863   0.996   2.464
 2349TIP3    H228607   3.848   1.128   2.537
 2350TIP3   OH228608   3.562   3.367   0.181
 2350TIP3    H128609   3.477   3.326   0.198
 2350TIP3    H228610   3.546   3.461   0.192
 2351TIP3   OH228611   3.604   1.658   7.205
 2351TIP3    H128612   3.581   1.565   7.197
 2351TIP3    H228613   3.698   1.657   7.224
 2352TIP3   OH228614   3.061   4.808   7.277
 2352TIP3    H128615   3.113   4.752   7.219
 2352TIP3    H228616   3.125   4.867   7.317
 2353TIP3   OH228617   3.424   5.123   8.028
 2353TIP3    H128618   3.358   5.181   8.066
 2353TIP3    H228619   3.392   5.104   7.940
 2354TIP3   OH228620   0.977   6.627   1.554
 2354TIP3    H128621   0.998   6.608   1.462
 2354TIP3    H228622   0.920   6.703   1.551
 2355TIP3   OH228623   0.746   3.920   1.249
 2355TIP3    H128624   0.766   3.882   1.335
 2355TIP3    H228625   0.711   3.847   1.198
 2356TIP3   OH228626   5.340   4.468   0.220
 2356TIP3    H128627   5.413   4.529   0.233
 2356TIP3    H228628   5.307   4.451   0.309
 2357TIP3   OH228629   1.647   2.271   6.082
 2357TIP3    H128630   1.554   2.285   6.065
 2357TIP3    H228631   1.670   2.194   6.030
 2358TIP3   OH228632   2.248   0.080   8.586
 2358TIP3    H128633   2.335   0.119   8.574
 2358TIP3    H228634   2.188   0.154   8.583
 2359TIP3   OH228635   0.037   6.372   7.801
 2359TIP3    H128636   6.876   6.401   7.732
 2359TIP3    H228637   0.123   6.401   7.771
 2360TIP3   OH228638   4.000   2.452   8.568
 2360TIP3    H128639   4.045   2.475   0.030
 2360TIP3    H228640   3.929   2.515   8.561
 2361TIP3   OH228641   4.985   1.017   1.283
 2361TIP3    H128642   5.074   1.019   1.318
 2361TIP3    H228643   4.981   1.090   1.222
 2362TIP3   OH228644   6.848   2.517   0.937
 2362TIP3    H128645   6.844   2.522   1.033
 2362TIP3    H228646   6.769   2.562   0.907
 2363TIP3   OH228647   2.285   3.377   0.562
 2363TIP3    H128648   2.266   3.460   0.518
 2363TIP3    H228649   2.374   3.387   0.596
 2364TIP3   OH228650   2.354   4.459   0.337
 2364TIP3    H128651   2.327   4.397   0.269
 2364TIP3    H228652   2.376   4.539   0.289
 2365TIP3   OH228653   6.209   6.802   0.080
 2365TIP3    H128654   6.180   6.713   0.060
 2365TIP3    H228655   6.241   6.798   0.170
 2366TIP3   OH228656   5.835   3.731   8.385
 2366TIP3    H128657   5.919   3.762   8.350
 2366TIP3    H228658   5.860   3.669   8.453
 2367TIP3   OH228659   1.506   5.822   0.582
 2367TIP3    H128660   1.493   5.893   0.644
 2367TIP3    H228661   1.418   5.788   0.565
 2368TIP3   OH228662   5.273   0.226   0.351
 2368TIP3    H128663   5.199   0.211   0.292
 2368TIP3    H228664   5.234   0.228   0.439
 2369TIP3   OH228665   0.332   5.775   1.308
 2369TIP3    H128666   0.271   5.834   1.353
 2369TIP3    H228667   0.407   5.769   1.367
 2370TIP3   OH228668   3.028   1.926   7.727
 2370TIP3    H128669   3.017   2.016   7.695
 2370TIP3    H228670   3.098   1.890   7.672
 2371TIP3   OH228671   4.470   5.736   6.924
 2371TIP3    H128672   4.510   5.812   6.966
 2371TIP3    H228673   4.544   5.687   6.889
 2372TIP3   OH228674   5.122   2.749   6.815
 2372TIP3    H128675   5.185   2.819   6.833
 2372TIP3    H228676   5.042   2.777   6.859
 2373TIP3   OH228677   1.799   6.028   8.450
 2373TIP3    H128678   1.813   6.045   8.357
 2373TIP3    H228679   1.801   5.933   8.458
 2374TIP3   OH228680   6.249   1.503   7.220
 2374TIP3    H128681   6.331   1.523   7.175
 2374TIP3    H228682   6.233   1.577   7.278
 2375TIP3   OH228683   0.678   3.235   6.335
 2375TIP3    H128684   0.609   3.218   6.270
 2375TIP3    H228685   0.664   3.169   6.403
 2376TIP3   OH228686   0.947   4.973   0.156
 2376TIP3    H128687   0.867   4.921   0.161
 2376TIP3    H228688   1.017   4.909   0.171
 2377TIP3   OH228689   0.913   4.298   7.412
 2377TIP3    H128690   0.959   4.273   7.492
 2377TIP3    H228691   0.937   4.231   7.348
 2378TIP3   OH228692   6.727   6.278   0.587
 2378TIP3    H128693   6.684   6.323   0.660
 2378TIP3    H228694   6.771   6.203   0.627
 2379TIP3   OH228695   0.101   2.241   1.805
 2379TIP3    H128696   0.008   2.260   1.801
 2379TIP3    H228697   0.142   2.322   1.836
 2380TIP3   OH228698   6.799   0.521   8.205
 2380TIP3    H128699   6.837   0.497   8.290
 2380TIP3    H228700   6.738   0.592   8.225
 2381TIP3   OH228701   2.031   5.367   0.959
 2381TIP3    H128702   2.065   5.426   1.026
 2381TIP3    H228703   2.108   5.337   0.912
 2382TIP3   OH228704   1.638   4.909   1.280
 2382TIP3    H128705   1.638   4.825   1.327
 2382TIP3    H228706   1.549   4.943   1.293
 2383TIP3   OH228707   1.018   1.111   8.538
 2383TIP3    H128708   0.943   1.054   8.523
 2383TIP3    H228709   0.996   1.159   8.618
 2384TIP3   OH228710   2.659   3.188   1.511
 2384TIP3    H128711   2.644   3.199   1.417
 2384TIP3    H228712   2.717   3.112   1.518
 2385TIP3   OH228713   2.071   1.573   7.188
 2385TIP3    H128714   2.145   1.580   7.127
 2385TIP3    H228715   1.995   1.593   7.134
 2386TIP3   OH228716   6.191   5.400   7.414
 2386TIP3    H128717   6.190   5.390   7.319
 2386TIP3    H228718   6.131   5.472   7.432
 2387TIP3   OH228719   5.970   2.611   1.827
 2387TIP3    H128720   5.989   2.548   1.896
 2387TIP3    H228721   6.033   2.682   1.840
 2388TIP3   OH228722   5.128   2.851   7.431
 2388TIP3    H128723   5.164   2.933   7.398
 2388TIP3    H228724   5.202   2.791   7.432
 2389TIP3   OH228725   6.131   2.507   0.556
 2389TIP3    H128726   6.055   2.508   0.615
 2389TIP3    H228727   6.154   2.599   0.545
 2390TIP3   OH228728   4.080   5.989   0.855
 2390TIP3    H128729   4.013   6.030   0.801
 2390TIP3    H228730   4.034   5.923   0.906
 2391TIP3   OH228731   4.125   0.879   1.198
 2391TIP3    H128732   4.067   0.871   1.274
 2391TIP3    H228733   4.145   0.972   1.193
 2392TIP3   OH228734   5.163   4.674   1.296
 2392TIP3    H128735   5.102   4.654   1.225
 2392TIP3    H228736   5.133   4.759   1.330
 2393TIP3   OH228737   4.945   5.990   7.944
 2393TIP3    H128738   5.033   6.021   7.964
 2393TIP3    H228739   4.888   6.065   7.959
 2394TIP3   OH228740   0.879   2.552   8.143
 2394TIP3    H128741   0.931   2.632   8.136
 2394TIP3    H228742   0.888   2.526   8.235
 2395TIP3   OH228743   4.526   4.726   7.321
 2395TIP3    H128744   4.454   4.787   7.337
 2395TIP3    H228745   4.582   4.770   7.258
 2396TIP3   OH228746   2.201   2.759   1.243
 2396TIP3    H128747   2.186   2.690   1.306
 2396TIP3    H228748   2.120   2.811   1.245
 2397TIP3   OH228749   2.222   3.778   1.431
 2397TIP3    H128750   2.218   3.682   1.426
 2397TIP3    H228751   2.146   3.807   1.380
 2398TIP3   OH228752   6.776   2.988   6.204
 2398TIP3    H128753   6.803   3.026   6.121
 2398TIP3    H228754   6.816   3.045   6.270
 2399TIP3   OH228755   5.782   5.626   8.332
 2399TIP3    H128756   5.786   5.621   8.427
 2399TIP3    H228757   5.844   5.694   8.308
 2400TIP3   OH228758   2.034   5.098   1.012
 2400TIP3    H128759   1.966   5.034   0.992
 2400TIP3    H228760   1.990   5.183   1.004
 2401TIP3   OH228761   0.974   6.199   6.827
 2401TIP3    H128762   0.880   6.209   6.843
 2401TIP3    H228763   0.981   6.122   6.771
 2402TIP3   OH228764   6.497   2.260   0.359
 2402TIP3    H128765   6.439   2.293   0.428
 2402TIP3    H228766   6.448   2.275   0.278
 2403TIP3   OH228767   3.664   4.058   0.098
 2403TIP3    H128768   3.601   4.097   0.038
 2403TIP3    H228769   3.682   4.127   0.162
 2404TIP3   OH228770   5.208   6.700   2.427
 2404TIP3    H128771   5.158   6.781   2.425
 2404TIP3    H228772   5.176   6.654   2.505
 2405TIP3   OH228773   0.546   1.307   0.347
 2405TIP3    H128774   0.574   1.269   0.264
 2405TIP3    H228775   0.517   1.232   0.399
 2406TIP3   OH228776   5.073   2.268   7.631
 2406TIP3    H128777   5.086   2.282   7.537
 2406TIP3    H228778   5.039   2.351   7.663
 2407TIP3   OH228779   0.476   6.560   7.850
 2407TIP3    H128780   0.479   6.619   7.775
 2407TIP3    H228781   0.485   6.473   7.812
 2408TIP3   OH228782   2.192   1.476   6.340
 2408TIP3    H128783   2.252   1.432   6.400
 2408TIP3    H228784   2.219   1.567   6.341
 2409TIP3   OH228785   2.333   3.132   1.366
 2409TIP3    H128786   2.249   3.091   1.388
 2409TIP3    H228787   2.314   3.190   1.293
 2410TIP3   OH228788   3.460   4.490   7.149
 2410TIP3    H128789   3.403   4.425   7.189
 2410TIP3    H228790   3.510   4.442   7.084
 2411TIP3   OH228791   0.043   5.661   6.972
 2411TIP3    H128792   0.138   5.651   6.966
 2411TIP3    H228793   0.029   5.755   6.962
 2412TIP3   OH228794   3.262   0.533   0.272
 2412TIP3    H128795   3.256   0.505   0.180
 2412TIP3    H228796   3.235   0.456   0.322
 2413TIP3   OH228797   2.837   4.145   6.111
 2413TIP3    H128798   2.779   4.072   6.085
 2413TIP3    H228799   2.922   4.104   6.124
 2414TIP3   OH228800   5.033   0.659   8.498
 2414TIP3    H128801   5.025   0.581   8.554
 2414TIP3    H228802   4.982   0.726   8.544
 2415TIP3   OH228803   0.088   4.015   7.432
 2415TIP3    H128804   0.066   4.086   7.372
 2415TIP3    H228805   0.079   3.935   7.380
 2416TIP3   OH228806   6.781   0.185   7.728
 2416TIP3    H128807   6.871   0.153   7.722
 2416TIP3    H228808   6.759   0.181   7.821
 2417TIP3   OH228809   5.597   2.162   6.184
 2417TIP3    H128810   5.513   2.204   6.205
 2417TIP3    H228811   5.574   2.071   6.167
 2418TIP3   OH228812   1.722   2.859   0.677
 2418TIP3    H128813   1.698   2.866   0.769
 2418TIP3    H228814   1.817   2.858   0.677
 2419TIP3   OH228815   0.230   0.901   0.225
 2419TIP3    H128816   0.189   0.818   0.202
 2419TIP3    H228817   0.197   0.920   0.313
 2420TIP3   OH228818   0.754   3.162   1.184
 2420TIP3    H128819   0.718   3.093   1.240
 2420TIP3    H228820   0.817   3.207   1.240
 2421TIP3   OH228821   2.651   1.453   7.837
 2421TIP3    H128822   2.703   1.526   7.804
 2421TIP3    H228823   2.646   1.392   7.763
 2422TIP3   OH228824   2.385   2.399   8.552
 2422TIP3    H128825   2.461   2.343   8.533
 2422TIP3    H228826   2.406   2.483   8.511
 2423TIP3   OH228827   4.931   2.881   0.810
 2423TIP3    H128828   4.842   2.853   0.830
 2423TIP3    H228829   4.930   2.976   0.822
 2424TIP3   OH228830   4.385   2.505   0.652
 2424TIP3    H128831   4.376   2.437   0.719
 2424TIP3    H228832   4.480   2.520   0.647
 2425TIP3   OH228833   3.564   0.498   1.581
 2425TIP3    H128834   3.544   0.426   1.641
 2425TIP3    H228835   3.534   0.576   1.627
 2426TIP3   OH228836   6.454   3.791   8.192
 2426TIP3    H128837   6.456   3.695   8.184
 2426TIP3    H228838   6.436   3.822   8.103
 2427TIP3   OH228839   4.326   0.638   1.760
 2427TIP3    H128840   4.261   0.581   1.802
 2427TIP3    H228841   4.274   0.695   1.703
 2428TIP3   OH228842   5.399   6.010   8.322
 2428TIP3    H128843   5.420   5.919   8.345
 2428TIP3    H228844   5.460   6.032   8.252
 2429TIP3   OH228845   0.037   4.159   7.201
 2429TIP3    H128846   0.048   4.254   7.212
 2429TIP3    H228847   0.087   4.138   7.122
 2430TIP3   OH228848   5.398   5.472   1.912
 2430TIP3    H128849   5.382   5.563   1.938
 2430TIP3    H228850   5.397   5.423   1.994
 2431TIP3   OH228851   4.378   5.967   7.757
 2431TIP3    H128852   4.369   5.875   7.731
 2431TIP3    H228853   4.342   6.016   7.683
 2432TIP3   OH228854   6.844   3.305   1.237
 2432TIP3    H128855   6.789   3.249   1.181
 2432TIP3    H228856   0.033   3.289   1.206
 2433TIP3   OH228857   3.794   3.233   7.307
 2433TIP3    H128858   3.757   3.312   7.347
 2433TIP3    H228859   3.718   3.178   7.288
 2434TIP3   OH228860   2.771   0.308   7.921
 2434TIP3    H128861   2.822   0.227   7.919
 2434TIP3    H228862   2.708   0.295   7.993
 2435TIP3   OH228863   2.686   1.194   1.273
 2435TIP3    H128864   2.778   1.200   1.298
 2435TIP3    H228865   2.678   1.108   1.233
 2436TIP3   OH228866   5.108   6.548   1.414
 2436TIP3    H128867   5.167   6.552   1.339
 2436TIP3    H228868   5.135   6.620   1.470
 2437TIP3   OH228869   6.083   6.826   6.045
 2437TIP3    H128870   6.042   6.879   6.114
 2437TIP3    H228871   6.011   6.775   6.009
 2438TIP3   OH228872   6.116   2.533   0.288
 2438TIP3    H128873   6.106   2.486   0.371
 2438TIP3    H228874   6.178   2.480   0.238
 2439TIP3   OH228875   5.833   0.028   1.800
 2439TIP3    H128876   5.813   0.055   1.890
 2439TIP3    H228877   5.910   0.079   1.777
 2440TIP3   OH228878   3.009   0.977   1.685
 2440TIP3    H128879   2.965   1.062   1.682
 2440TIP3    H228880   2.967   0.931   1.757
 2441TIP3   OH228881   6.437   4.264   0.140
 2441TIP3    H128882   6.396   4.189   0.183
 2441TIP3    H228883   6.469   4.229   0.057
 2442TIP3   OH228884   6.525   5.004   7.482
 2442TIP3    H128885   6.508   5.097   7.472
 2442TIP3    H228886   6.511   4.968   7.394
 2443TIP3   OH228887   0.345   5.556   0.931
 2443TIP3    H128888   0.268   5.502   0.945
 2443TIP3    H228889   0.418   5.495   0.933
 2444TIP3   OH228890   1.142   4.587   1.460
 2444TIP3    H128891   1.129   4.492   1.464
 2444TIP3    H228892   1.077   4.622   1.521
 2445TIP3   OH228893   6.662   5.016   1.825
 2445TIP3    H128894   6.583   5.031   1.771
 2445TIP3    H228895   6.643   4.937   1.874
 2446TIP3   OH228896   6.533   6.611   7.639
 2446TIP3    H128897   6.521   6.654   7.724
 2446TIP3    H228898   6.556   6.521   7.661
 2447TIP3   OH228899   0.985   4.979   1.875
 2447TIP3    H128900   0.951   4.912   1.935
 2447TIP3    H228901   0.908   5.012   1.830
 2448TIP3   OH228902   3.660   6.818   7.590
 2448TIP3    H128903   3.706   6.869   7.524
 2448TIP3    H228904   3.593   6.770   7.542
 2449TIP3   OH228905   4.897   6.076   1.162
 2449TIP3    H128906   4.854   6.057   1.246
 2449TIP3    H228907   4.972   6.130   1.185
 2450TIP3   OH228908   1.448   0.888   0.120
 2450TIP3    H128909   1.356   0.912   0.121
 2450TIP3    H228910   1.494   0.970   0.105
 2451TIP3   OH228911   1.482   3.344   1.699
 2451TIP3    H128912   1.482   3.431   1.740
 2451TIP3    H228913   1.455   3.360   1.609
 2452TIP3   OH228914   5.733   4.743   8.212
 2452TIP3    H128915   5.716   4.666   8.266
 2452TIP3    H228916   5.769   4.807   8.274
 2453TIP3   OH228917   6.774   5.429   1.295
 2453TIP3    H128918   6.714   5.428   1.221
 2453TIP3    H228919   6.738   5.494   1.355
 2454TIP3   OH228920   0.376   2.135   0.569
 2454TIP3    H128921   0.364   2.195   0.496
 2454TIP3    H228922   0.323   2.058   0.546
 2455TIP3   OH228923   5.762   2.776   7.359
 2455TIP3    H128924   5.841   2.814   7.398
 2455TIP3    H228925   5.765   2.683   7.385
 2456TIP3   OH228926   0.145   0.305   1.560
 2456TIP3    H128927   0.175   0.249   1.631
 2456TIP3    H228928   0.187   0.270   1.481
 2457TIP3   OH228929   2.283   1.458   1.453
 2457TIP3    H128930   2.284   1.534   1.394
 2457TIP3    H228931   2.272   1.497   1.540
 2458TIP3   OH228932   0.014   1.002   8.218
 2458TIP3    H128933   0.088   0.942   8.211
 2458TIP3    H228934   0.021   1.037   8.307
 2459TIP3   OH228935   0.652   1.927   8.166
 2459TIP3    H128936   0.661   1.865   8.238
 2459TIP3    H228937   0.663   2.013   8.207
 2460TIP3   OH228938   6.443   5.651   7.500
 2460TIP3    H128939   6.381   5.723   7.503
 2460TIP3    H228940   6.527   5.690   7.526
 2461TIP3   OH228941   2.955   0.102   8.029
 2461TIP3    H128942   2.878   0.047   8.048
 2461TIP3    H228943   3.013   0.087   8.103
 2462TIP3   OH228944   1.400   3.630   1.183
 2462TIP3    H128945   1.461   3.649   1.111
 2462TIP3    H228946   1.437   3.677   1.258
 2463TIP3   OH228947   2.069   3.329   7.413
 2463TIP3    H128948   2.039   3.329   7.322
 2463TIP3    H228949   2.037   3.246   7.448
 2464TIP3   OH228950   2.577   4.119   1.553
 2464TIP3    H128951   2.502   4.071   1.518
 2464TIP3    H228952   2.651   4.088   1.501
 2465TIP3   OH228953   2.047   0.080   0.938
 2465TIP3    H128954   1.983   0.058   0.871
 2465TIP3    H228955   2.003   0.144   0.993
 2466TIP3   OH228956   0.250   3.274   8.272
 2466TIP3    H128957   0.260   3.191   8.319
 2466TIP3    H228958   0.272   3.341   8.338
 2467TIP3   OH228959   6.468   3.178   0.325
 2467TIP3    H128960   6.453   3.085   0.339
 2467TIP3    H228961   6.388   3.221   0.354
 2468TIP3   OH228962   1.422   4.201   0.763
 2468TIP3    H128963   1.501   4.156   0.793
 2468TIP3    H228964   1.357   4.184   0.831
 2469TIP3   OH228965   3.654   2.392   7.866
 2469TIP3    H128966   3.611   2.355   7.788
 2469TIP3    H228967   3.587   2.449   7.904
 2470TIP3   OH228968   5.154   0.026   6.465
 2470TIP3    H128969   5.210   0.034   6.388
 2470TIP3    H228970   5.066   0.013   6.430
 2471TIP3   OH228971   0.943   3.890   0.370
 2471TIP3    H128972   0.903   3.937   0.443
 2471TIP3    H228973   0.945   3.954   0.298
 2472TIP3   OH228974   4.192   2.645   0.478
 2472TIP3    H128975   4.269   2.672   0.528
 2472TIP3    H228976   4.211   2.556   0.450
 2473TIP3   OH228977   6.302   4.389   7.758
 2473TIP3    H128978   6.366   4.392   7.828
 2473TIP3    H228979   6.348   4.351   7.684
 2474TIP3   OH228980   2.649   4.239   6.293
 2474TIP3    H128981   2.700   4.202   6.222
 2474TIP3    H228982   2.648   4.334   6.277
 2475TIP3   OH228983   3.710   3.337   0.576
 2475TIP3    H128984   3.670   3.424   0.572
 2475TIP3    H228985   3.745   3.322   0.488
 2476TIP3   OH228986   0.087   5.752   6.524
 2476TIP3    H128987   0.158   5.702   6.486
 2476TIP3    H228988   0.083   5.832   6.472
 2477TIP3   OH228989   6.428   4.357   7.474
 2477TIP3    H128990   6.518   4.324   7.469
 2477TIP3    H228991   6.403   4.373   7.383
 2478TIP3   OH228992   5.000   4.044   7.171
 2478TIP3    H128993   5.028   4.135   7.161
 2478TIP3    H228994   4.905   4.046   7.156
 2479TIP3   OH228995   0.198   1.796   7.678
 2479TIP3    H128996   0.204   1.721   7.737
 2479TIP3    H228997   0.276   1.790   7.624
 2480TIP3   OH228998   6.373   3.228   1.365
 2480TIP3    H128999   6.306   3.294   1.345
 2480TIP3    H229000   6.454   3.278   1.373
 2481TIP3   OH229001   5.201   1.898   6.972
 2481TIP3    H129002   5.197   1.848   6.890
 2481TIP3    H229003   5.199   1.831   7.040
 2482TIP3   OH229004   2.169   3.878   8.001
 2482TIP3    H129005   2.151   3.900   8.092
 2482TIP3    H229006   2.138   3.955   7.951
 2483TIP3   OH229007   0.937   0.271   7.197
 2483TIP3    H129008   0.885   0.193   7.180
 2483TIP3    H229009   1.012   0.241   7.248
 2484TIP3   OH229010   5.345   4.494   8.054
 2484TIP3    H129011   5.334   4.410   8.009
 2484TIP3    H229012   5.367   4.556   7.984
 2485TIP3   OH229013   2.173   1.828   0.461
 2485TIP3    H129014   2.093   1.798   0.419
 2485TIP3    H229015   2.167   1.924   0.459
 2486TIP3   OH229016   6.383   6.671   7.342
 2486TIP3    H129017   6.420   6.657   7.428
 2486TIP3    H229018   6.414   6.598   7.289
 2487TIP3   OH229019   4.035   3.630   6.958
 2487TIP3    H129020   3.982   3.709   6.956
 2487TIP3    H229021   3.992   3.570   6.897
 2488TIP3   OH229022   3.864   3.894   0.539
 2488TIP3    H129023   3.952   3.857   0.525
 2488TIP3    H229024   3.879   3.988   0.552
 2489TIP3   OH229025   3.042   6.189   0.472
 2489TIP3    H129026   3.004   6.108   0.437
 2489TIP3    H229027   2.967   6.239   0.503
 2490TIP3   OH229028   4.229   5.161   1.477
 2490TIP3    H129029   4.214   5.084   1.422
 2490TIP3    H229030   4.142   5.188   1.505
 2491TIP3   OH229031   3.875   2.340   1.598
 2491TIP3    H129032   3.796   2.389   1.620
 2491TIP3    H229033   3.853   2.295   1.516
 2492TIP3   OH229034   4.872   2.637   7.371
 2492TIP3    H129035   4.844   2.590   7.293
 2492TIP3    H229036   4.954   2.679   7.344
 2493TIP3   OH229037   5.227   3.110   7.943
 2493TIP3    H129038   5.252   3.127   7.852
 2493TIP3    H229039   5.191   3.021   7.942
 2494TIP3   OH229040   2.253   1.588   1.007
 2494TIP3    H129041   2.312   1.655   0.972
 2494TIP3    H229042   2.279   1.578   1.099
 2495TIP3   OH229043   3.222   3.711   7.299
 2495TIP3    H129044   3.170   3.664   7.234
 2495TIP3    H229045   3.241   3.646   7.366
 2496TIP3   OH229046   1.379   2.544   7.579
 2496TIP3    H129047   1.462   2.591   7.572
 2496TIP3    H229048   1.380   2.484   7.504
 2497TIP3   OH229049   2.583   2.921   2.820
 2497TIP3    H129050   2.677   2.935   2.813
 2497TIP3    H229051   2.551   2.920   2.730
 2498TIP3   OH229052   5.228   3.475   7.641
 2498TIP3    H129053   5.169   3.491   7.714
 2498TIP3    H229054   5.186   3.404   7.591
 2499TIP3   OH229055   4.231   4.898   7.825
 2499TIP3    H129056   4.311   4.876   7.873
 2499TIP3    H229057   4.233   4.843   7.747
 2500TIP3   OH229058   5.042   1.387   0.363
 2500TIP3    H129059   5.040   1.451   0.434
 2500TIP3    H229060   4.950   1.370   0.344
 2501TIP3   OH229061   4.771   5.671   1.388
 2501TIP3    H129062   4.736   5.760   1.390
 2501TIP3    H229063   4.854   5.679   1.341
 2502TIP3   OH229064   6.364   2.311   7.441
 2502TIP3    H129065   6.336   2.368   7.369
 2502TIP3    H229066   6.345   2.223   7.411
 2503TIP3   OH229067   3.695   5.215   0.625
 2503TIP3    H129068   3.632   5.144   0.633
 2503TIP3    H229069   3.749   5.191   0.550
 2504TIP3   OH229070   5.459   2.219   6.805
 2504TIP3    H129071   5.378   2.233   6.854
 2504TIP3    H229072   5.434   2.161   6.733
 2505TIP3   OH229073   0.280   3.622   8.031
 2505TIP3    H129074   0.233   3.641   8.112
 2505TIP3    H229075   0.263   3.529   8.016
 2506TIP3   OH229076   1.871   4.278   7.205
 2506TIP3    H129077   1.780   4.266   7.176
 2506TIP3    H229078   1.894   4.367   7.176
 2507TIP3   OH229079   4.953   6.327   1.485
 2507TIP3    H129080   5.006   6.401   1.457
 2507TIP3    H229081   4.907   6.357   1.563
 2508TIP3   OH229082   5.630   1.558   8.388
 2508TIP3    H129083   5.618   1.502   8.312
 2508TIP3    H229084   5.607   1.502   8.463
 2509TIP3   OH229085   3.620   5.388   7.903
 2509TIP3    H129086   3.671   5.318   7.944
 2509TIP3    H229087   3.553   5.410   7.968
 2510TIP3   OH229088   2.833   3.768   1.236
 2510TIP3    H129089   2.860   3.685   1.197
 2510TIP3    H229090   2.770   3.805   1.174
 2511TIP3   OH229091   5.148   6.078   0.930
 2511TIP3    H129092   5.189   6.019   0.867
 2511TIP3    H229093   5.086   6.023   0.977
 2512TIP3   OH229094   2.614   0.103   0.691
 2512TIP3    H129095   2.569   0.035   0.741
 2512TIP3    H229096   2.548   0.172   0.678
 2513TIP3   OH229097   1.819   4.469   7.967
 2513TIP3    H129098   1.854   4.546   7.923
 2513TIP3    H229099   1.776   4.419   7.898
 2514TIP3   OH229100   6.706   3.330   0.136
 2514TIP3    H129101   6.712   3.415   0.093
 2514TIP3    H229102   6.613   3.314   0.146
 2515TIP3   OH229103   4.071   0.930   8.251
 2515TIP3    H129104   4.098   0.852   8.203
 2515TIP3    H229105   4.149   0.985   8.253
 2516TIP3   OH229106   4.127   2.340   7.281
 2516TIP3    H129107   4.162   2.298   7.202
 2516TIP3    H229108   4.196   2.329   7.346
 2517TIP3   OH229109   3.070   4.729   8.159
 2517TIP3    H129110   3.146   4.683   8.124
 2517TIP3    H229111   3.009   4.659   8.182
 2518TIP3   OH229112   0.375   3.101   6.931
 2518TIP3    H129113   0.383   3.008   6.950
 2518TIP3    H229114   0.465   3.134   6.929
 2519TIP3   OH229115   0.532   6.388   1.589
 2519TIP3    H129116   0.501   6.366   1.501
 2519TIP3    H229117   0.531   6.305   1.637
 2520TIP3   OH229118   2.693   0.140   1.274
 2520TIP3    H129119   2.767   0.119   1.330
 2520TIP3    H229120   2.732   0.163   1.190
 2521TIP3   OH229121   1.601   1.444   1.174
 2521TIP3    H129122   1.525   1.468   1.227
 2521TIP3    H229123   1.571   1.454   1.083
 2522TIP3   OH229124   5.623   0.608   6.441
 2522TIP3    H129125   5.534   0.636   6.462
 2522TIP3    H229126   5.616   0.571   6.353
 2523TIP3   OH229127   5.329   6.374   7.914
 2523TIP3    H129128   5.398   6.366   7.980
 2523TIP3    H229129   5.248   6.382   7.965
 2524TIP3   OH229130   2.885   5.433   1.177
 2524TIP3    H129131   2.915   5.355   1.225
 2524TIP3    H229132   2.839   5.397   1.101
 2525TIP3   OH229133   0.164   6.254   0.233
 2525TIP3    H129134   0.132   6.198   0.163
 2525TIP3    H229135   0.154   6.201   0.312
 2526TIP3   OH229136   4.796   1.036   7.189
 2526TIP3    H129137   4.706   1.027   7.159
 2526TIP3    H229138   4.812   1.130   7.189
 2527TIP3   OH229139   1.842   0.308   0.974
 2527TIP3    H129140   1.769   0.369   0.982
 2527TIP3    H229141   1.803   0.222   0.994
 2528TIP3   OH229142   5.501   3.463   0.795
 2528TIP3    H129143   5.433   3.485   0.730
 2528TIP3    H229144   5.467   3.386   0.840
 2529TIP3   OH229145   3.243   6.683   1.973
 2529TIP3    H129146   3.185   6.704   2.046
 2529TIP3    H229147   3.324   6.731   1.993
 2530TIP3   OH229148   5.892   6.592   7.260
 2530TIP3    H129149   5.917   6.673   7.215
 2530TIP3    H229150   5.871   6.620   7.349
 2531TIP3   OH229151   5.542   4.627   1.428
 2531TIP3    H129152   5.465   4.573   1.445
 2531TIP3    H229153   5.610   4.590   1.483
 2532TIP3   OH229154   4.967   5.684   7.040
 2532TIP3    H129155   4.904   5.616   7.015
 2532TIP3    H229156   5.031   5.684   6.968
 2533TIP3   OH229157   0.854   6.707   8.420
 2533TIP3    H129158   0.926   6.708   8.484
 2533TIP3    H229159   0.890   6.661   8.344
 2534TIP3   OH229160   4.624   4.443   1.625
 2534TIP3    H129161   4.621   4.382   1.551
 2534TIP3    H229162   4.682   4.401   1.688
 2535TIP3   OH229163   3.258   3.329   8.311
 2535TIP3    H129164   3.312   3.253   8.291
 2535TIP3    H229165   3.173   3.293   8.334
 2536TIP3   OH229166   2.613   2.048   7.250
 2536TIP3    H129167   2.545   1.992   7.288
 2536TIP3    H229168   2.567   2.104   7.189
 2537TIP3   OH229169   3.656   2.766   7.889
 2537TIP3    H129170   3.656   2.798   7.800
 2537TIP3    H229171   3.619   2.678   7.883
 2538TIP3   OH229172   6.566   2.853   6.334
 2538TIP3    H129173   6.487   2.887   6.292
 2538TIP3    H229174   6.631   2.922   6.322
 2539TIP3   OH229175   1.137   0.027   8.078
 2539TIP3    H129176   1.110   0.117   8.096
 2539TIP3    H229177   1.085   0.000   8.002
 2540TIP3   OH229178   0.143   1.633   7.071
 2540TIP3    H129179   0.232   1.606   7.050
 2540TIP3    H229180   0.153   1.701   7.137
 2541TIP3   OH229181   0.676   2.389   1.391
 2541TIP3    H129182   0.612   2.459   1.401
 2541TIP3    H229183   0.755   2.422   1.434
 2542TIP3   OH229184   1.639   0.019   6.728
 2542TIP3    H129185   1.684   0.030   6.644
 2542TIP3    H229186   1.570   0.085   6.728
 2543TIP3   OH229187   5.568   4.029   1.105
 2543TIP3    H129188   5.644   3.972   1.095
 2543TIP3    H229189   5.604   4.113   1.133
 2544TIP3   OH229190   5.120   6.797   2.185
 2544TIP3    H129191   5.214   6.788   2.167
 2544TIP3    H229192   5.117   6.848   2.266
 2545TIP3   OH229193   0.990   2.778   8.521
 2545TIP3    H129194   0.937   2.824   8.456
 2545TIP3    H229195   1.078   2.816   8.512
 2546TIP3   OH229196   2.924   1.786   8.481
 2546TIP3    H129197   3.015   1.755   8.488
 2546TIP3    H229198   2.923   1.866   8.534
 2547TIP3   OH229199   0.601   2.560   7.423
 2547TIP3    H129200   0.649   2.642   7.413
 2547TIP3    H229201   0.534   2.579   7.488
 2548TIP3   OH229202   3.408   5.014   1.711
 2548TIP3    H129203   3.447   5.062   1.784
 2548TIP3    H229204   3.354   4.948   1.752
 2549TIP3   OH229205   4.164   2.782   7.548
 2549TIP3    H129206   4.197   2.703   7.589
 2549TIP3    H229207   4.068   2.774   7.553
 2550TIP3   OH229208   2.984   0.312   1.636
 2550TIP3    H129209   2.974   0.385   1.575
 2550TIP3    H229210   2.903   0.312   1.687
 2551TIP3   OH229211   6.525   2.218   1.676
 2551TIP3    H129212   6.576   2.196   1.599
 2551TIP3    H229213   6.444   2.255   1.641
 2552TIP3   OH229214   1.963   6.667   1.856
 2552TIP3    H129215   1.929   6.669   1.945
 2552TIP3    H229216   1.990   6.576   1.843
 2553TIP3   OH229217   4.036   0.446   7.726
 2553TIP3    H129218   3.951   0.445   7.770
 2553TIP3    H229219   4.018   0.488   7.642
 2554TIP3   OH229220   6.167   4.040   0.994
 2554TIP3    H129221   6.226   3.965   0.994
 2554TIP3    H229222   6.112   4.027   0.916
 2555TIP3   OH229223   2.093   2.990   0.127
 2555TIP3    H129224   2.105   3.060   0.191
 2555TIP3    H229225   2.020   2.938   0.162
 2556TIP3   OH229226   5.350   6.173   7.485
 2556TIP3    H129227   5.281   6.107   7.498
 2556TIP3    H229228   5.352   6.186   7.390
 2557TIP3   OH229229   2.316   5.868   7.321
 2557TIP3    H129230   2.280   5.874   7.232
 2557TIP3    H229231   2.403   5.906   7.313
 2558TIP3   OH229232   0.717   2.044   0.340
 2558TIP3    H129233   0.629   2.036   0.302
 2558TIP3    H229234   0.702   2.081   0.426
 2559TIP3   OH229235   4.982   1.071   7.779
 2559TIP3    H129236   5.009   1.047   7.868
 2559TIP3    H229237   4.887   1.082   7.786
 2560TIP3   OH229238   4.893   0.588   0.758
 2560TIP3    H129239   4.899   0.606   0.852
 2560TIP3    H229240   4.807   0.547   0.747
 2561TIP3   OH229241   3.353   2.043   7.637
 2561TIP3    H129242   3.331   1.966   7.584
 2561TIP3    H229243   3.393   2.006   7.716
 2562TIP3   OH229244   4.983   3.310   1.481
 2562TIP3    H129245   4.984   3.389   1.427
 2562TIP3    H229246   4.902   3.317   1.532
 2563TIP3   OH229247   1.514   5.080   7.547
 2563TIP3    H129248   1.501   5.173   7.565
 2563TIP3    H229249   1.429   5.040   7.563
 2564TIP3   OH229250   1.127   5.767   8.553
 2564TIP3    H129251   1.143   5.853   8.515
 2564TIP3    H229252   1.034   5.751   8.538
 2565TIP3   OH229253   6.296   5.933   7.578
 2565TIP3    H129254   6.216   5.893   7.613
 2565TIP3    H229255   6.281   5.939   7.483
 2566TIP3   OH229256   5.752   6.313   0.409
 2566TIP3    H129257   5.723   6.340   0.322
 2566TIP3    H229258   5.764   6.395   0.457
 2567TIP3   OH229259   4.405   1.826   0.156
 2567TIP3    H129260   4.444   1.755   0.207
 2567TIP3    H229261   4.479   1.870   0.115
 2568TIP3   OH229262   3.606   5.644   8.445
 2568TIP3    H129263   3.554   5.662   8.367
 2568TIP3    H229264   3.661   5.569   8.421
 2569TIP3   OH229265   4.313   5.924   1.481
 2569TIP3    H129266   4.335   5.968   1.399
 2569TIP3    H229267   4.346   5.983   1.549
 2570TIP3   OH229268   4.243   3.822   1.341
 2570TIP3    H129269   4.161   3.846   1.297
 2570TIP3    H229270   4.216   3.758   1.407
 2571TIP3   OH229271   3.927   3.694   8.007
 2571TIP3    H129272   4.014   3.688   7.969
 2571TIP3    H229273   3.888   3.770   7.964
 2572TIP3   OH229274   6.772   1.906   0.929
 2572TIP3    H129275   6.851   1.922   0.878
 2572TIP3    H229276   6.765   1.811   0.934
 2573TIP3   OH229277   6.443   6.290   8.247
 2573TIP3    H129278   6.382   6.356   8.213
 2573TIP3    H229279   6.422   6.211   8.198
 2574TIP3   OH229280   2.827   5.924   7.762
 2574TIP3    H129281   2.778   5.969   7.830
 2574TIP3    H229282   2.772   5.851   7.736
 2575TIP3   OH229283   6.770   1.474   7.636
 2575TIP3    H129284   6.829   1.474   7.561
 2575TIP3    H229285   6.769   1.566   7.665
 2576TIP3   OH229286   6.505   2.468   6.669
 2576TIP3    H129287   6.453   2.397   6.707
 2576TIP3    H229288   6.474   2.547   6.714
 2577TIP3   OH229289   5.287   1.388   2.123
 2577TIP3    H129290   5.263   1.317   2.183
 2577TIP3    H229291   5.233   1.462   2.151
 2578TIP3   OH229292   5.668   5.255   1.937
 2578TIP3    H129293   5.647   5.346   1.920
 2578TIP3    H229294   5.608   5.229   2.007
 2579TIP3   OH229295   2.220   3.436   8.319
 2579TIP3    H129296   2.260   3.492   8.385
 2579TIP3    H229297   2.290   3.421   8.255
 2580TIP3   OH229298   0.673   0.422   8.426
 2580TIP3    H129299   0.629   0.461   8.502
 2580TIP3    H229300   0.603   0.375   8.380
 2581TIP3   OH229301   5.822   0.091   1.248
 2581TIP3    H129302   5.898   0.094   1.307
 2581TIP3    H229303   5.747   0.108   1.305
 2582TIP3   OH229304   2.935   1.360   1.417
 2582TIP3    H129305   2.975   1.446   1.402
 2582TIP3    H229306   3.000   1.297   1.386
 2583TIP3   OH229307   3.831   1.570   1.398
 2583TIP3    H129308   3.882   1.619   1.334
 2583TIP3    H229309   3.836   1.479   1.369
 2584TIP3   OH229310   5.548   2.635   7.681
 2584TIP3    H129311   5.547   2.727   7.707
 2584TIP3    H229312   5.516   2.588   7.758
 2585TIP3   OH229313   3.646   0.077   2.483
 2585TIP3    H129314   3.645   0.103   2.391
 2585TIP3    H229315   3.599   0.148   2.528
 2586TIP3   OH229316   5.487   2.828   8.057
 2586TIP3    H129317   5.528   2.855   7.975
 2586TIP3    H229318   5.475   2.910   8.105
 2587TIP3   OH229319   5.464   0.603   7.956
 2587TIP3    H129320   5.448   0.565   8.042
 2587TIP3    H229321   5.378   0.611   7.916
 2588TIP3   OH229322   2.483   5.917   1.730
 2588TIP3    H129323   2.511   5.836   1.688
 2588TIP3    H229324   2.389   5.904   1.746
 2589TIP3   OH229325   0.471   5.838   7.212
 2589TIP3    H129326   0.437   5.811   7.297
 2589TIP3    H229327   0.443   5.929   7.203
 2590TIP3   OH229328   0.888   6.485   7.087
 2590TIP3    H129329   0.938   6.566   7.078
 2590TIP3    H229330   0.914   6.450   7.173
 2591TIP3   OH229331   1.618   2.085   0.039
 2591TIP3    H129332   1.560   2.057   8.588
 2591TIP3    H229333   1.563   2.141   0.095
 2592TIP3   OH229334   4.850   3.898   0.426
 2592TIP3    H129335   4.884   3.894   0.337
 2592TIP3    H229336   4.866   3.988   0.455
 2593TIP3   OH229337   1.698   4.556   0.866
 2593TIP3    H129338   1.675   4.623   0.801
 2593TIP3    H229339   1.761   4.500   0.820
 2594TIP3   OH229340   6.871   6.693   8.199
 2594TIP3    H129341   6.837   6.641   8.126
 2594TIP3    H229342   0.054   6.651   8.222
 2595TIP3   OH229343   4.947   4.225   7.814
 2595TIP3    H129344   4.903   4.206   7.731
 2595TIP3    H229345   4.891   4.186   7.881
 2596TIP3   OH229346   2.172   5.018   0.757
 2596TIP3    H129347   2.211   4.931   0.763
 2596TIP3    H229348   2.164   5.046   0.848
 2597TIP3   OH229349   2.408   1.963   1.801
 2597TIP3    H129350   2.314   1.968   1.814
 2597TIP3    H229351   2.445   2.018   1.871
 2598TIP3   OH229352   0.980   1.103   6.836
 2598TIP3    H129353   1.018   1.049   6.767
 2598TIP3    H229354   0.987   1.193   6.803
 2599TIP3   OH229355   0.480   4.730   0.352
 2599TIP3    H129356   0.393   4.745   0.391
 2599TIP3    H229357   0.505   4.643   0.381
 2600TIP3   OH229358   4.455   2.032   7.163
 2600TIP3    H129359   4.468   1.957   7.105
 2600TIP3    H229360   4.495   2.005   7.246
 2601TIP3   OH229361   3.535   0.934   0.083
 2601TIP3    H129362   3.551   0.971   0.170
 2601TIP3    H229363   3.577   0.848   0.086
 2602TIP3   OH229364   6.616   4.672   8.001
 2602TIP3    H129365   6.710   4.657   8.009
 2602TIP3    H229366   6.607   4.741   7.936
 2603TIP3   OH229367   3.888   1.886   1.028
 2603TIP3    H129368   3.880   1.967   1.079
 2603TIP3    H229369   3.815   1.888   0.967
 2604TIP3   OH229370   6.525   4.934   7.867
 2604TIP3    H129371   6.589   4.998   7.834
 2604TIP3    H229372   6.507   4.879   7.791
 2605TIP3   OH229373   4.553   1.642   1.627
 2605TIP3    H129374   4.627   1.588   1.653
 2605TIP3    H229375   4.556   1.717   1.686
 2606TIP3   OH229376   5.605   6.310   1.811
 2606TIP3    H129377   5.525   6.272   1.846
 2606TIP3    H229378   5.586   6.404   1.805
 2607TIP3   OH229379   2.253   6.593   6.992
 2607TIP3    H129380   2.244   6.635   6.907
 2607TIP3    H229381   2.166   6.603   7.033
 2608TIP3   OH229382   4.662   4.971   8.470
 2608TIP3    H129383   4.575   5.010   8.455
 2608TIP3    H229384   4.652   4.880   8.443
 2609TIP3   OH229385   2.566   6.199   7.921
 2609TIP3    H129386   2.619   6.123   7.948
 2609TIP3    H229387   2.553   6.248   8.002
 2610TIP3   OH229388   1.767   6.170   7.043
 2610TIP3    H129389   1.796   6.203   7.128
 2610TIP3    H229390   1.810   6.226   6.979
 2611TIP3   OH229391   6.609   0.865   0.283
 2611TIP3    H129392   6.551   0.796   0.249
 2611TIP3    H229393   6.611   0.931   0.214
 2612TIP3   OH229394   5.809   5.582   6.903
 2612TIP3    H129395   5.852   5.513   6.853
 2612TIP3    H229396   5.718   5.581   6.873
 2613TIP3   OH229397   2.071   1.165   7.711
 2613TIP3    H129398   2.128   1.211   7.650
 2613TIP3    H229399   2.001   1.128   7.657
 2614TIP3   OH229400   0.172   2.322   1.111
 2614TIP3    H129401   0.177   2.266   1.034
 2614TIP3    H229402   0.242   2.291   1.168
 2615TIP3   OH229403   6.447   2.940   7.699
 2615TIP3    H129404   6.402   2.943   7.783
 2615TIP3    H229405   6.384   2.979   7.638
 2616TIP3   OH229406   4.956   5.221   1.999
 2616TIP3    H129407   4.884   5.203   1.939
 2616TIP3    H229408   5.024   5.157   1.974
 2617TIP3   OH229409   1.997   6.388   1.861
 2617TIP3    H129410   1.929   6.356   1.921
 2617TIP3    H229411   2.064   6.320   1.863
 2618TIP3   OH229412   2.000   5.330   2.476
 2618TIP3    H129413   2.020   5.238   2.496
 2618TIP3    H229414   2.069   5.358   2.417
 2619TIP3   OH229415   2.581   4.610   1.696
 2619TIP3    H129416   2.631   4.529   1.701
 2619TIP3    H229417   2.576   4.641   1.786
 2620TIP3   OH229418   6.850   3.518   1.426
 2620TIP3    H129419   6.754   3.522   1.428
 2620TIP3    H229420   6.870   3.453   1.358
 2621TIP3   OH229421   1.943   3.703   7.950
 2621TIP3    H129422   1.965   3.636   8.014
 2621TIP3    H229423   2.007   3.772   7.964
 2622TIP3   OH229424   0.788   6.431   6.532
 2622TIP3    H129425   0.800   6.421   6.438
 2622TIP3    H229426   0.814   6.347   6.570
 2623TIP3   OH229427   0.805   3.590   7.257
 2623TIP3    H129428   0.850   3.607   7.340
 2623TIP3    H229429   0.760   3.671   7.237
 2624TIP3   OH229430   4.384   0.833   1.089
 2624TIP3    H129431   4.294   0.822   1.119
 2624TIP3    H229432   4.376   0.879   1.006
 2625TIP3   OH229433   0.856   3.377   7.623
 2625TIP3    H129434   0.894   3.354   7.538
 2625TIP3    H229435   0.928   3.366   7.685
 2626TIP3   OH229436   6.028   1.822   7.742
 2626TIP3    H129437   6.013   1.729   7.760
 2626TIP3    H229438   6.087   1.823   7.666
 2627TIP3   OH229439   6.768   4.324   0.789
 2627TIP3    H129440   6.756   4.391   0.856
 2627TIP3    H229441   6.714   4.251   0.818
 2628TIP3   OH229442   6.828   0.769   1.841
 2628TIP3    H129443   6.756   0.828   1.863
 2628TIP3    H229444   6.812   0.691   1.894
 2629TIP3   OH229445   2.120   5.918   6.233
 2629TIP3    H129446   2.147   5.828   6.248
 2629TIP3    H229447   2.132   5.962   6.317
 2630TIP3   OH229448   5.879   4.426   8.223
 2630TIP3    H129449   5.915   4.417   8.311
 2630TIP3    H229450   5.799   4.476   8.235
 2631TIP3   OH229451   1.941   0.530   7.312
 2631TIP3    H129452   1.943   0.593   7.240
 2631TIP3    H229453   1.910   0.449   7.272
 2632TIP3   OH229454   5.071   4.044   7.606
 2632TIP3    H129455   5.149   4.001   7.570
 2632TIP3    H229456   5.061   4.006   7.693
 2633TIP3   OH229457   6.428   2.901   8.185
 2633TIP3    H129458   6.478   2.821   8.200
 2633TIP3    H229459   6.395   2.925   8.272
 2634TIP3   OH229460   2.149   5.226   0.368
 2634TIP3    H129461   2.121   5.190   0.452
 2634TIP3    H229462   2.068   5.236   0.318
 2635TIP3   OH229463   6.353   2.911   6.869
 2635TIP3    H129464   6.358   2.879   6.779
 2635TIP3    H229465   6.260   2.909   6.890
 2636TIP3   OH229466   6.302   5.683   1.637
 2636TIP3    H129467   6.285   5.734   1.559
 2636TIP3    H229468   6.335   5.746   1.701
 2637TIP3   OH229469   0.316   0.413   0.517
 2637TIP3    H129470   0.266   0.331   0.522
 2637TIP3    H229471   0.272   0.464   0.449
 2638TIP3   OH229472   5.213   0.393   8.401
 2638TIP3    H129473   5.214   0.488   8.389
 2638TIP3    H229474   5.123   0.373   8.429
 2639TIP3   OH229475   1.362   6.421   0.322
 2639TIP3    H129476   1.413   6.385   0.395
 2639TIP3    H229477   1.377   6.515   0.327
 2640TIP3   OH229478   6.517   4.035   6.484
 2640TIP3    H129479   6.533   3.941   6.483
 2640TIP3    H229480   6.486   4.054   6.573
 2641TIP3   OH229481   6.723   1.036   6.958
 2641TIP3    H129482   6.774   1.000   7.031
 2641TIP3    H229483   6.650   0.975   6.947
 2642TIP3   OH229484   2.944   5.834   0.644
 2642TIP3    H129485   2.971   5.912   0.596
 2642TIP3    H229486   2.849   5.831   0.632
 2643TIP3   OH229487   2.469   6.103   6.612
 2643TIP3    H129488   2.395   6.163   6.601
 2643TIP3    H229489   2.545   6.160   6.624
 2644TIP3   OH229490   1.240   3.318   1.966
 2644TIP3    H129491   1.276   3.376   2.033
 2644TIP3    H229492   1.232   3.373   1.888
 2645TIP3   OH229493   6.880   0.479   7.958
 2645TIP3    H129494   0.021   0.396   7.979
 2645TIP3    H229495   6.856   0.516   8.043
 2646TIP3   OH229496   0.313   3.880   6.824
 2646TIP3    H129497   0.361   3.962   6.809
 2646TIP3    H229498   0.381   3.813   6.829
 2647TIP3   OH229499   4.510   5.202   2.049
 2647TIP3    H129500   4.538   5.270   1.988
 2647TIP3    H229501   4.504   5.123   1.995
 2648TIP3   OH229502   5.145   4.822   0.890
 2648TIP3    H129503   5.205   4.874   0.943
 2648TIP3    H229504   5.098   4.887   0.837
 2649TIP3   OH229505   2.715   1.531   1.502
 2649TIP3    H129506   2.775   1.517   1.429
 2649TIP3    H229507   2.657   1.455   1.501
 2650TIP3   OH229508   1.878   1.851   1.522
 2650TIP3    H129509   1.902   1.940   1.546
 2650TIP3    H229510   1.787   1.841   1.550
 2651TIP3   OH229511   5.122   4.289   1.287
 2651TIP3    H129512   5.171   4.297   1.205
 2651TIP3    H229513   5.172   4.225   1.338
 2652TIP3   OH229514   4.633   4.727   8.340
 2652TIP3    H129515   4.701   4.665   8.315
 2652TIP3    H229516   4.551   4.681   8.323
 2653TIP3   OH229517   0.434   0.361   6.894
 2653TIP3    H129518   0.521   0.366   6.934
 2653TIP3    H229519   0.383   0.426   6.941
 2654TIP3   OH229520   2.345   4.296   7.315
 2654TIP3    H129521   2.281   4.354   7.276
 2654TIP3    H229522   2.295   4.244   7.378
 2655TIP3   OH229523   3.689   5.926   8.130
 2655TIP3    H129524   3.652   6.012   8.148
 2655TIP3    H229525   3.784   5.939   8.136
 2656TIP3   OH229526   3.834   2.193   1.356
 2656TIP3    H129527   3.831   2.207   1.261
 2656TIP3    H229528   3.883   2.111   1.367
 2657TIP3   OH229529   4.594   5.023   7.513
 2657TIP3    H129530   4.666   5.014   7.451
 2657TIP3    H229531   4.636   5.039   7.597
 2658TIP3   OH229532   4.203   4.658   0.165
 2658TIP3    H129533   4.129   4.661   0.104
 2658TIP3    H229534   4.163   4.651   0.251
 2659TIP3   OH229535   6.585   3.785   6.998
 2659TIP3    H129536   6.568   3.745   6.912
 2659TIP3    H229537   6.635   3.864   6.978
 2660TIP3   OH229538   5.379   0.329   6.750
 2660TIP3    H129539   5.418   0.317   6.663
 2660TIP3    H229540   5.429   0.401   6.789
 2661TIP3   OH229541   6.153   4.453   8.225
 2661TIP3    H129542   6.216   4.399   8.176
 2661TIP3    H229543   6.069   4.408   8.213
 2662TIP3   OH229544   6.046   4.354   2.287
 2662TIP3    H129545   5.983   4.410   2.332
 2662TIP3    H229546   5.992   4.290   2.240
 2663TIP3   OH229547   3.001   5.190   0.725
 2663TIP3    H129548   3.072   5.254   0.718
 2663TIP3    H229549   2.941   5.212   0.654
 2664TIP3   OH229550   2.394   1.870   7.291
 2664TIP3    H129551   2.308   1.908   7.277
 2664TIP3    H229552   2.390   1.834   7.379
 2665TIP3   OH229553   4.639   3.399   0.511
 2665TIP3    H129554   4.633   3.459   0.436
 2665TIP3    H229555   4.727   3.414   0.545
 2666TIP3   OH229556   3.108   3.469   6.404
 2666TIP3    H129557   3.182   3.417   6.434
 2666TIP3    H229558   3.083   3.521   6.481
 2667TIP3   OH229559   1.986   4.676   0.681
 2667TIP3    H129560   2.077   4.683   0.652
 2667TIP3    H229561   1.984   4.722   0.765
 2668TIP3   OH229562   0.348   2.001   6.754
 2668TIP3    H129563   0.322   2.072   6.813
 2668TIP3    H229564   0.410   2.042   6.693
 2669TIP3   OH229565   3.822   2.838   1.217
 2669TIP3    H129566   3.889   2.770   1.216
 2669TIP3    H229567   3.740   2.791   1.198
 2670TIP3   OH229568   1.022   5.094   6.627
 2670TIP3    H129569   1.074   5.026   6.583
 2670TIP3    H229570   1.055   5.094   6.717
 2671TIP3   OH229571   2.537   6.514   2.394
 2671TIP3    H129572   2.536   6.590   2.335
 2671TIP3    H229573   2.446   6.506   2.422
 2672TIP3   OH229574   3.153   5.891   1.374
 2672TIP3    H129575   3.120   5.932   1.294
 2672TIP3    H229576   3.113   5.804   1.375
 2673TIP3   OH229577   5.720   5.038   1.229
 2673TIP3    H129578   5.662   5.109   1.203
 2673TIP3    H229579   5.676   4.996   1.302
 2674TIP3   OH229580   3.988   0.714   0.357
 2674TIP3    H129581   4.013   0.695   0.267
 2674TIP3    H229582   4.072   0.724   0.403
 2675TIP3   OH229583   0.054   6.193   6.770
 2675TIP3    H129584   0.144   6.172   6.796
 2675TIP3    H229585   0.057   6.194   6.674
 2676TIP3   OH229586   4.364   5.495   7.322
 2676TIP3    H129587   4.405   5.411   7.344
 2676TIP3    H229588   4.292   5.504   7.384
 2677TIP3   OH229589   6.313   3.437   8.345
 2677TIP3    H129590   6.296   3.412   8.255
 2677TIP3    H229591   6.391   3.387   8.370
 2678TIP3   OH229592   3.798   3.800   6.821
 2678TIP3    H129593   3.765   3.833   6.905
 2678TIP3    H229594   3.759   3.858   6.756
 2679TIP3   OH229595   5.354   6.703   0.978
 2679TIP3    H129596   5.282   6.723   0.919
 2679TIP3    H229597   5.414   6.649   0.926
 2680TIP3   OH229598   5.646   0.154   7.367
 2680TIP3    H129599   5.579   0.158   7.435
 2680TIP3    H229600   5.616   0.085   7.308
 2681TIP3   OH229601   2.553   4.023   0.769
 2681TIP3    H129602   2.528   4.003   0.679
 2681TIP3    H229603   2.501   4.101   0.791
 2682TIP3   OH229604   3.214   0.014   6.873
 2682TIP3    H129605   3.201   0.030   6.780
 2682TIP3    H229606   3.205   6.819   6.882
 2683TIP3   OH229607   3.079   5.503   0.894
 2683TIP3    H129608   3.040   5.416   0.902
 2683TIP3    H229609   3.113   5.505   0.804
 2684TIP3   OH229610   1.574   3.030   1.237
 2684TIP3    H129611   1.528   3.077   1.167
 2684TIP3    H229612   1.549   2.938   1.224
 2685TIP3   OH229613   4.597   6.598   7.445
 2685TIP3    H129614   4.609   6.692   7.431
 2685TIP3    H229615   4.511   6.590   7.487
 2686TIP3   OH229616   0.643   6.077   1.414
 2686TIP3    H129617   0.604   6.114   1.494
 2686TIP3    H229618   0.641   6.150   1.351
 2687TIP3   OH229619   0.684   5.118   0.550
 2687TIP3    H129620   0.690   5.040   0.494
 2687TIP3    H229621   0.736   5.184   0.504
 2688TIP3   OH229622   0.911   2.389   7.894
 2688TIP3    H129623   0.971   2.453   7.854
 2688TIP3    H229624   0.889   2.427   7.979
 2689TIP3   OH229625   4.849   5.273   8.265
 2689TIP3    H129626   4.944   5.258   8.271
 2689TIP3    H229627   4.814   5.237   8.346
 2690TIP3   OH229628   1.879   0.008   2.112
 2690TIP3    H129629   1.810   0.066   2.080
 2690TIP3    H229630   1.841   6.821   2.109
 2691TIP3   OH229631   6.037   2.114   7.184
 2691TIP3    H129632   6.029   2.024   7.151
 2691TIP3    H229633   5.948   2.138   7.210
 2692TIP3   OH229634   5.380   3.972   0.035
 2692TIP3    H129635   5.466   3.983   8.614
 2692TIP3    H229636   5.320   4.018   8.597
 2693TIP3   OH229637   2.776   0.262   2.098
 2693TIP3    H129638   2.768   0.292   2.189
 2693TIP3    H229639   2.691   0.223   2.078
 2694TIP3   OH229640   5.350   2.596   0.018
 2694TIP3    H129641   5.306   2.577   8.555
 2694TIP3    H229642   5.400   2.517   0.037
 2695TIP3   OH229643   3.037   4.427   1.415
 2695TIP3    H129644   3.048   4.405   1.507
 2695TIP3    H229645   3.045   4.522   1.412
 2696TIP3   OH229646   0.065   4.971   6.269
 2696TIP3    H129647   0.083   5.010   6.354
 2696TIP3    H229648   0.132   4.904   6.257
 2697TIP3   OH229649   0.174   0.460   2.099
 2697TIP3    H129650   0.268   0.443   2.097
 2697TIP3    H229651   0.149   0.445   2.191
 2698TIP3   OH229652   5.238   1.378   7.469
 2698TIP3    H129653   5.228   1.318   7.395
 2698TIP3    H229654   5.190   1.457   7.443
 2699TIP3   OH229655   0.304   0.604   6.260
 2699TIP3    H129656   0.286   0.519   6.219
 2699TIP3    H229657   0.221   0.630   6.300
 2700TIP3   OH229658   5.129   5.870   1.483
 2700TIP3    H129659   5.050   5.904   1.526
 2700TIP3    H229660   5.182   5.835   1.555
 2701TIP3   OH229661   2.135   1.867   1.396
 2701TIP3    H129662   2.047   1.856   1.431
 2701TIP3    H229663   2.174   1.936   1.451
 2702TIP3   OH229664   1.904   0.452   6.396
 2702TIP3    H129665   1.961   0.519   6.356
 2702TIP3    H229666   1.892   0.387   6.328
 2703TIP3   OH229667   4.407   3.133   8.309
 2703TIP3    H129668   4.476   3.198   8.302
 2703TIP3    H229669   4.343   3.158   8.242
 2704TIP3   OH229670   5.183   6.671   8.033
 2704TIP3    H129671   5.273   6.696   8.056
 2704TIP3    H229672   5.172   6.584   8.071
 2705TIP3   OH229673   6.075   6.288   8.559
 2705TIP3    H129674   6.035   6.230   0.004
 2705TIP3    H229675   6.143   6.234   8.518
 2706TIP3   OH229676   6.874   2.315   1.299
 2706TIP3    H129677   0.043   2.317   1.233
 2706TIP3    H229678   0.007   2.257   1.367
 2707TIP3   OH229679   2.609   1.950   0.877
 2707TIP3    H129680   2.557   2.005   0.820
 2707TIP3    H229681   2.682   1.920   0.822
 2708TIP3   OH229682   3.374   6.665   7.760
 2708TIP3    H129683   3.369   6.755   7.793
 2708TIP3    H229684   3.382   6.675   7.665
 2709TIP3   OH229685   3.403   1.442   7.098
 2709TIP3    H129686   3.330   1.481   7.145
 2709TIP3    H229687   3.389   1.347   7.104
 2710TIP3   OH229688   4.051   4.609   6.759
 2710TIP3    H129689   4.047   4.631   6.666
 2710TIP3    H229690   4.139   4.637   6.786
 2711TIP3   OH229691   3.337   6.118   7.175
 2711TIP3    H129692   3.377   6.136   7.090
 2711TIP3    H229693   3.367   6.189   7.231
 2712TIP3   OH229694   0.915   5.689   0.595
 2712TIP3    H129695   0.898   5.612   0.649
 2712TIP3    H229696   0.952   5.653   0.514
 2713TIP3   OH229697   4.388   0.659   6.210
 2713TIP3    H129698   4.428   0.574   6.197
 2713TIP3    H229699   4.294   0.644   6.198
 2714TIP3   OH229700   3.180   1.032   1.451
 2714TIP3    H129701   3.132   0.999   1.528
 2714TIP3    H229702   3.256   0.975   1.444
 2715TIP3   OH229703   5.823   3.368   8.209
 2715TIP3    H129704   5.889   3.414   8.261
 2715TIP3    H229705   5.768   3.324   8.274
 2716TIP3   OH229706   1.105   2.134   0.011
 2716TIP3    H129707   1.125   2.068   8.564
 2716TIP3    H229708   1.184   2.188   0.015
 2717TIP3   OH229709   1.215   4.716   8.057
 2717TIP3    H129710   1.210   4.665   8.138
 2717TIP3    H229711   1.164   4.665   7.994
 2718TIP3   OH229712   4.607   0.421   1.472
 2718TIP3    H129713   4.621   0.493   1.534
 2718TIP3    H229714   4.661   0.349   1.506
 2719TIP3   OH229715   1.831   5.934   0.554
 2719TIP3    H129716   1.809   5.981   0.634
 2719TIP3    H229717   1.926   5.930   0.554
 2720TIP3   OH229718   0.577   4.083   7.521
 2720TIP3    H129719   0.583   4.113   7.430
 2720TIP3    H229720   0.495   4.034   7.524
 2721TIP3   OH229721   5.584   3.247   1.165
 2721TIP3    H129722   5.532   3.310   1.115
 2721TIP3    H229723   5.586   3.168   1.111
 2722TIP3   OH229724   1.317   0.801   7.804
 2722TIP3    H129725   1.260   0.731   7.835
 2722TIP3    H229726   1.264   0.880   7.813
 2723TIP3   OH229727   3.651   2.627   0.288
 2723TIP3    H129728   3.684   2.630   0.378
 2723TIP3    H229729   3.606   2.543   0.282
 2724TIP3   OH229730   0.623   2.561   7.843
 2724TIP3    H129731   0.703   2.595   7.802
 2724TIP3    H229732   0.646   2.553   7.936
 2725TIP3   OH229733   2.556   0.948   0.086
 2725TIP3    H129734   2.559   0.889   0.161
 2725TIP3    H229735   2.517   0.896   0.016
 2726TIP3   OH229736   5.029   1.648   1.793
 2726TIP3    H129737   4.986   1.563   1.798
 2726TIP3    H229738   5.054   1.668   1.884
 2727TIP3   OH229739   2.685   1.252   7.354
 2727TIP3    H129740   2.677   1.293   7.440
 2727TIP3    H229741   2.595   1.247   7.322
 2728TIP3   OH229742   3.779   6.231   6.778
 2728TIP3    H129743   3.693   6.193   6.758
 2728TIP3    H229744   3.759   6.312   6.824
 2729TIP3   OH229745   5.082   2.770   8.575
 2729TIP3    H129746   4.992   2.748   8.551
 2729TIP3    H229747   5.136   2.719   8.515
 2730TIP3   OH229748   2.891   6.385   8.572
 2730TIP3    H129749   2.938   6.463   8.542
 2730TIP3    H229750   2.885   6.329   8.495
 2731TIP3   OH229751   6.669   0.555   0.288
 2731TIP3    H129752   6.591   0.592   0.246
 2731TIP3    H229753   6.741   0.612   0.260
 2732TIP3   OH229754   1.224   1.006   0.709
 2732TIP3    H129755   1.206   1.091   0.668
 2732TIP3    H229756   1.299   0.971   0.661
 2733TIP3   OH229757   3.850   3.453   7.524
 2733TIP3    H129758   3.759   3.457   7.493
 2733TIP3    H229759   3.846   3.488   7.613
 2734TIP3   OH229760   5.719   1.577   7.313
 2734TIP3    H129761   5.805   1.555   7.277
 2734TIP3    H229762   5.664   1.590   7.236
 2735TIP3   OH229763   6.427   5.001   1.668
 2735TIP3    H129764   6.358   4.936   1.654
 2735TIP3    H229765   6.391   5.059   1.735
 2736TIP3   OH229766   0.949   6.436   6.041
 2736TIP3    H129767   0.883   6.402   5.981
 2736TIP3    H229768   0.955   6.529   6.020
 2737TIP3   OH229769   3.819   2.506   2.043
 2737TIP3    H129770   3.781   2.480   1.959
 2737TIP3    H229771   3.913   2.491   2.032
 2738TIP3   OH229772   6.050   0.041   0.611
 2738TIP3    H129773   6.016   6.878   0.673
 2738TIP3    H229774   6.066   6.891   0.531
 2739TIP3   OH229775   2.004   4.235   8.530
 2739TIP3    H129776   1.918   4.218   8.569
 2739TIP3    H229777   1.987   4.300   8.462
 2740TIP3   OH229778   1.202   2.478   7.072
 2740TIP3    H129779   1.233   2.412   7.009
 2740TIP3    H229780   1.121   2.441   7.107
 2741TIP3   OH229781   5.326   1.249   0.045
 2741TIP3    H129782   5.360   1.175   0.095
 2741TIP3    H229783   5.242   1.219   0.012
 2742TIP3   OH229784   5.846   5.451   2.126
 2742TIP3    H129785   5.751   5.450   2.136
 2742TIP3    H229786   5.872   5.360   2.142
 2743TIP3   OH229787   1.070   0.475   8.494
 2743TIP3    H129788   1.028   0.408   8.440
 2743TIP3    H229789   1.015   0.482   8.572
 2744TIP3   OH229790   0.191   0.760   7.121
 2744TIP3    H129791   0.144   0.772   7.039
 2744TIP3    H229792   0.154   0.825   7.180
 2745TIP3   OH229793   2.022   2.052   8.062
 2745TIP3    H129794   2.051   2.008   7.982
 2745TIP3    H229795   2.103   2.071   8.110
 2746TIP3   OH229796   4.008   6.084   7.007
 2746TIP3    H129797   3.996   6.074   6.913
 2746TIP3    H229798   3.930   6.131   7.036
 2747TIP3   OH229799   4.035   5.824   0.570
 2747TIP3    H129800   3.971   5.804   0.501
 2747TIP3    H229801   3.993   5.793   0.651
 2748TIP3   OH229802   5.859   0.731   0.605
 2748TIP3    H129803   5.811   0.687   0.535
 2748TIP3    H229804   5.945   0.749   0.566
 2749TIP3   OH229805   0.141   2.804   0.029
 2749TIP3    H129806   0.049   2.796   0.007
 2749TIP3    H229807   0.154   2.897   0.046
 2750TIP3   OH229808   4.425   0.928   1.359
 2750TIP3    H129809   4.436   0.870   1.284
 2750TIP3    H229810   4.370   0.879   1.420
 2751TIP3   OH229811   4.072   5.815   7.254
 2751TIP3    H129812   4.103   5.749   7.192
 2751TIP3    H229813   4.133   5.888   7.244
 2752TIP3   OH229814   4.097   3.356   7.493
 2752TIP3    H129815   4.009   3.385   7.519
 2752TIP3    H229816   4.099   3.263   7.512
 2753TIP3   OH229817   0.576   5.347   7.037
 2753TIP3    H129818   0.538   5.432   7.060
 2753TIP3    H229819   0.666   5.351   7.069
 2754TIP3   OH229820   3.841   6.687   0.613
 2754TIP3    H129821   3.779   6.726   0.552
 2754TIP3    H229822   3.808   6.599   0.629
 2755TIP3   OH229823   0.341   6.884   7.058
 2755TIP3    H129824   0.295   6.850   7.134
 2755TIP3    H229825   0.297   0.067   7.038
 2756TIP3   OH229826   5.317   6.171   7.204
 2756TIP3    H129827   5.339   6.247   7.150
 2756TIP3    H229828   5.221   6.169   7.204
 2757TIP3   OH229829   1.271   0.837   6.350
 2757TIP3    H129830   1.262   0.838   6.254
 2757TIP3    H229831   1.223   0.914   6.379
 2758TIP3   OH229832   1.207   1.004   6.691
 2758TIP3    H129833   1.216   1.054   6.610
 2758TIP3    H229834   1.288   0.953   6.697
 2759TIP3   OH229835   6.665   2.467   6.940
 2759TIP3    H129836   6.613   2.547   6.935
 2759TIP3    H229837   6.693   2.462   7.032
 2760TIP3   OH229838   0.569   5.459   7.463
 2760TIP3    H129839   0.633   5.392   7.437
 2760TIP3    H229840   0.622   5.531   7.496
 2761TIP3   OH229841   6.597   4.025   0.885
 2761TIP3    H129842   6.629   3.936   0.901
 2761TIP3    H229843   6.525   4.037   0.947
 2762TIP3   OH229844   1.477   2.056   0.683
 2762TIP3    H129845   1.408   2.000   0.720
 2762TIP3    H229846   1.548   1.996   0.662
 2763TIP3   OH229847   3.554   2.733   1.383
 2763TIP3    H129848   3.623   2.667   1.386
 2763TIP3    H229849   3.513   2.729   1.469
 2764TIP3   OH229850   2.326   4.938   0.070
 2764TIP3    H129851   2.419   4.960   0.082
 2764TIP3    H229852   2.280   4.994   0.133
 2765TIP3   OH229853   2.538   0.550   1.682
 2765TIP3    H129854   2.580   0.609   1.745
 2765TIP3    H229855   2.452   0.590   1.667
 2766TIP3   OH229856   3.210   2.017   2.668
 2766TIP3    H129857   3.272   2.088   2.687
 2766TIP3    H229858   3.251   1.968   2.598
 2767TIP3   OH229859   0.554   5.003   0.130
 2767TIP3    H129860   0.608   4.927   0.150
 2767TIP3    H229861   0.615   5.068   0.095
 2768TIP3   OH229862   3.309   0.298   7.719
 2768TIP3    H129863   3.393   0.253   7.719
 2768TIP3    H229864   3.329   0.385   7.685
 2769TIP3   OH229865   0.416   3.761   1.242
 2769TIP3    H129866   0.374   3.763   1.328
 2769TIP3    H229867   0.384   3.840   1.198
 2770TIP3   OH229868   1.762   2.555   0.172
 2770TIP3    H129869   1.824   2.488   0.142
 2770TIP3    H229870   1.712   2.513   0.241
 2771TIP3   OH229871   1.041   5.795   0.182
 2771TIP3    H129872   1.062   5.785   0.089
 2771TIP3    H229873   0.987   5.719   0.202
 2772TIP3   OH229874   4.898   6.433   8.407
 2772TIP3    H129875   4.865   6.350   8.440
 2772TIP3    H229876   4.887   6.495   8.479
 2773TIP3   OH229877   1.535   1.962   6.808
 2773TIP3    H129878   1.545   1.904   6.732
 2773TIP3    H229879   1.614   2.015   6.808
 2774TIP3   OH229880   1.920   5.250   7.132
 2774TIP3    H129881   1.896   5.211   7.216
 2774TIP3    H229882   1.913   5.344   7.147
 2775TIP3   OH229883   5.266   2.619   7.509
 2775TIP3    H129884   5.332   2.554   7.532
 2775TIP3    H229885   5.220   2.581   7.434
 2776TIP3   OH229886   6.225   3.250   0.466
 2776TIP3    H129887   6.190   3.261   0.555
 2776TIP3    H229888   6.150   3.268   0.409
 2777TIP3   OH229889   5.110   3.418   8.599
 2777TIP3    H129890   5.113   3.510   8.571
 2777TIP3    H229891   5.159   3.416   0.062
 2778TIP3   OH229892   2.333   5.839   6.858
 2778TIP3    H129893   2.428   5.844   6.861
 2778TIP3    H229894   2.312   5.845   6.764
 2779TIP3   OH229895   2.966   2.262   2.148
 2779TIP3    H129896   2.969   2.167   2.138
 2779TIP3    H229897   2.873   2.281   2.160
 2780TIP3   OH229898   6.081   6.036   0.074
 2780TIP3    H129899   6.021   6.060   0.144
 2780TIP3    H229900   6.076   5.941   0.069
 2781TIP3   OH229901   2.988   1.905   1.456
 2781TIP3    H129902   3.068   1.930   1.503
 2781TIP3    H229903   2.950   1.987   1.426
 2782TIP3   OH229904   3.825   6.413   1.840
 2782TIP3    H129905   3.802   6.334   1.889
 2782TIP3    H229906   3.919   6.408   1.828
 2783TIP3   OH229907   6.171   0.691   8.511
 2783TIP3    H129908   6.092   0.668   8.560
 2783TIP3    H229909   6.230   0.617   8.524
 2784TIP3   OH229910   2.433   3.761   6.430
 2784TIP3    H129911   2.457   3.845   6.469
 2784TIP3    H229912   2.362   3.728   6.485
 2785TIP3   OH229913   2.424   0.906   1.557
 2785TIP3    H129914   2.438   1.000   1.571
 2785TIP3    H229915   2.511   0.868   1.566
 2786TIP3   OH229916   5.506   3.277   7.514
 2786TIP3    H129917   5.552   3.355   7.546
 2786TIP3    H229918   5.507   3.286   7.419
 2787TIP3   OH229919   5.479   1.169   1.490
 2787TIP3    H129920   5.532   1.096   1.522
 2787TIP3    H229921   5.434   1.202   1.568
 2788TIP3   OH229922   3.861   1.863   0.486
 2788TIP3    H129923   3.823   1.807   0.554
 2788TIP3    H229924   3.954   1.840   0.485
 2789TIP3   OH229925   1.462   5.400   8.129
 2789TIP3    H129926   1.432   5.480   8.172
 2789TIP3    H229927   1.535   5.369   8.183
 2790TIP3   OH229928   2.157   1.044   0.852
 2790TIP3    H129929   2.078   1.071   0.899
 2790TIP3    H229930   2.198   1.127   0.826
 2791TIP3   OH229931   6.681   4.236   7.488
 2791TIP3    H129932   6.677   4.245   7.392
 2791TIP3    H229933   6.773   4.248   7.509
 2792TIP3   OH229934   6.197   5.247   0.044
 2792TIP3    H129935   6.243   5.312   0.097
 2792TIP3    H229936   6.227   5.262   8.574
 2793TIP3   OH229937   2.008   0.469   0.836
 2793TIP3    H129938   1.954   0.393   0.859
 2793TIP3    H229939   1.955   0.545   0.863
 2794TIP3   OH229940   2.294   1.765   6.668
 2794TIP3    H129941   2.380   1.807   6.661
 2794TIP3    H229942   2.232   1.838   6.676
 2795TIP3   OH229943   4.898   5.010   0.369
 2795TIP3    H129944   4.886   5.069   0.443
 2795TIP3    H229945   4.876   4.923   0.403
 2796TIP3   OH229946   4.726   2.989   6.390
 2796TIP3    H129947   4.747   2.896   6.379
 2796TIP3    H229948   4.632   2.990   6.408
 2797TIP3   OH229949   3.170   2.894   1.603
 2797TIP3    H129950   3.126   2.948   1.537
 2797TIP3    H229951   3.257   2.934   1.613
 2798TIP3   OH229952   4.539   4.620   6.996
 2798TIP3    H129953   4.503   4.559   7.060
 2798TIP3    H229954   4.479   4.695   6.997
 2799TIP3   OH229955   6.324   5.588   1.083
 2799TIP3    H129956   6.412   5.579   1.119
 2799TIP3    H229957   6.299   5.678   1.105
 2800TIP3   OH229958   4.247   3.542   8.237
 2800TIP3    H129959   4.233   3.516   8.328
 2800TIP3    H229960   4.213   3.468   8.186
 2801TIP3   OH229961   6.617   1.265   6.691
 2801TIP3    H129962   6.558   1.309   6.630
 2801TIP3    H229963   6.573   1.271   6.775
 2802TIP3   OH229964   4.717   4.789   7.929
 2802TIP3    H129965   4.744   4.856   7.992
 2802TIP3    H229966   4.799   4.764   7.884
 2803TIP3   OH229967   6.305   1.246   1.387
 2803TIP3    H129968   6.269   1.158   1.375
 2803TIP3    H229969   6.350   1.242   1.471
 2804TIP3   OH229970   5.272   5.052   0.974
 2804TIP3    H129971   5.205   5.120   0.968
 2804TIP3    H229972   5.323   5.062   0.893
 2805TIP3   OH229973   3.240   2.877   2.164
 2805TIP3    H129974   3.199   2.881   2.250
 2805TIP3    H229975   3.211   2.956   2.120
 2806TIP3   OH229976   2.634   3.328   6.818
 2806TIP3    H129977   2.622   3.345   6.724
 2806TIP3    H229978   2.604   3.238   6.829
 2807TIP3   OH229979   1.217   1.377   8.149
 2807TIP3    H129980   1.280   1.306   8.152
 2807TIP3    H229981   1.266   1.452   8.114
 2808TIP3   OH229982   6.477   1.248   1.598
 2808TIP3    H129983   6.525   1.273   1.677
 2808TIP3    H229984   6.523   1.171   1.565
 2809TIP3   OH229985   2.313   1.671   7.578
 2809TIP3    H129986   2.361   1.650   7.658
 2809TIP3    H229987   2.226   1.634   7.591
 2810TIP3   OH229988   5.663   3.938   8.543
 2810TIP3    H129989   5.688   3.906   0.010
 2810TIP3    H229990   5.720   3.891   8.482
 2811TIP3   OH229991   0.587   3.873   8.370
 2811TIP3    H129992   0.524   3.941   8.345
 2811TIP3    H229993   0.581   3.809   8.299
 2812TIP3   OH229994   2.379   4.896   1.247
 2812TIP3    H129995   2.331   4.954   1.188
 2812TIP3    H229996   2.344   4.916   1.334
 2813TIP3   OH229997   6.122   5.044   7.961
 2813TIP3    H129998   6.174   5.059   7.883
 2813TIP3    H229999   6.032   5.062   7.933
 2814TIP3   OH230000   4.148   2.949   8.262
 2814TIP3    H130001   4.205   3.023   8.283
 2814TIP3    H230002   4.167   2.884   8.330
 2815TIP3   OH230003   3.002   1.883   1.032
 2815TIP3    H130004   2.929   1.847   1.083
 2815TIP3    H230005   3.076   1.881   1.092
 2816TIP3   OH230006   2.455   6.442   0.427
 2816TIP3    H130007   2.378   6.496   0.445
 2816TIP3    H230008   2.501   6.438   0.511
 2817TIP3   OH230009   6.697   4.280   1.213
 2817TIP3    H130010   6.709   4.268   1.119
 2817TIP3    H230011   6.691   4.191   1.249
 2818TIP3   OH230012   1.173   2.428   5.843
 2818TIP3    H130013   1.154   2.360   5.779
 2818TIP3    H230014   1.101   2.422   5.906
 2819TIP3   OH230015   0.627   3.873   7.074
 2819TIP3    H130016   0.598   3.925   7.000
 2819TIP3    H230017   0.550   3.823   7.100
 2820TIP3   OH230018   4.455   6.254   0.949
 2820TIP3    H130019   4.516   6.181   0.962
 2820TIP3    H230020   4.428   6.246   0.857
 2821TIP3   OH230021   3.750   5.011   0.467
 2821TIP3    H130022   3.763   4.923   0.501
 2821TIP3    H230023   3.700   4.999   0.387
 2822TIP3   OH230024   5.933   2.060   1.111
 2822TIP3    H130025   5.845   2.054   1.073
 2822TIP3    H230026   5.919   2.051   1.205
 2823TIP3   OH230027   4.876   4.889   6.869
 2823TIP3    H130028   4.792   4.879   6.826
 2823TIP3    H230029   4.861   4.955   6.936
 2824TIP3   OH230030   3.671   0.290   0.444
 2824TIP3    H130031   3.725   0.368   0.431
 2824TIP3    H230032   3.654   0.288   0.538
 2825TIP3   OH230033   0.620   0.825   7.338
 2825TIP3    H130034   0.702   0.872   7.353
 2825TIP3    H230035   0.648   0.737   7.311
 2826TIP3   OH230036   6.741   4.123   6.316
 2826TIP3    H130037   6.660   4.120   6.367
 2826TIP3    H230038   6.809   4.145   6.381
 2827TIP3   OH230039   4.097   0.671   1.606
 2827TIP3    H130040   4.042   0.598   1.576
 2827TIP3    H230041   4.051   0.704   1.683
 2828TIP3   OH230042   3.575   3.061   2.112
 2828TIP3    H130043   3.605   3.124   2.179
 2828TIP3    H230044   3.627   3.083   2.035
 2829TIP3   OH230045   4.715   0.263   7.498
 2829TIP3    H130046   4.620   0.259   7.495
 2829TIP3    H230047   4.741   0.303   7.415
 2830TIP3   OH230048   5.942   5.170   8.554
 2830TIP3    H130049   6.020   5.182   8.609
 2830TIP3    H230050   5.958   5.225   8.478
 2831TIP3   OH230051   2.539   1.823   1.338
 2831TIP3    H130052   2.526   1.893   1.275
 2831TIP3    H230053   2.551   1.868   1.422
 2832TIP3   OH230054   3.938   6.311   1.284
 2832TIP3    H130055   3.935   6.306   1.379
 2832TIP3    H230056   4.002   6.380   1.266
 2833TIP3   OH230057   4.091   0.312   7.970
 2833TIP3    H130058   4.104   0.356   7.886
 2833TIP3    H230059   4.170   0.260   7.982
 2834TIP3   OH230060   4.252   5.415   0.274
 2834TIP3    H130061   4.270   5.321   0.273
 2834TIP3    H230062   4.221   5.432   0.363
 2835TIP3   OH230063   1.047   2.484   6.719
 2835TIP3    H130064   1.116   2.512   6.659
 2835TIP3    H230065   1.021   2.565   6.764
 2836TIP3   OH230066   2.988   5.388   6.931
 2836TIP3    H130067   3.045   5.312   6.939
 2836TIP3    H230068   2.939   5.390   7.014
 2837TIP3   OH230069   2.809   5.924   8.273
 2837TIP3    H130070   2.846   5.889   8.192
 2837TIP3    H230071   2.727   5.877   8.285
 2838TIP3   OH230072   2.949   6.058   2.245
 2838TIP3    H130073   2.970   6.151   2.256
 2838TIP3    H230074   2.862   6.048   2.283
 2839TIP3   OH230075   5.357   5.900   7.783
 2839TIP3    H130076   5.283   5.888   7.723
 2839TIP3    H230077   5.430   5.923   7.726
 2840TIP3   OH230078   4.493   6.846   0.697
 2840TIP3    H130079   4.567   6.806   0.652
 2840TIP3    H230080   4.436   6.773   0.719
 2841TIP3   OH230081   3.349   5.917   7.572
 2841TIP3    H130082   3.387   5.938   7.658
 2841TIP3    H230083   3.386   5.832   7.549
 2842TIP3   OH230084   2.503   3.041   7.378
 2842TIP3    H130085   2.454   3.011   7.455
 2842TIP3    H230086   2.463   3.125   7.356
 2843TIP3   OH230087   4.375   1.089   7.258
 2843TIP3    H130088   4.459   1.133   7.270
 2843TIP3    H230089   4.310   1.157   7.277
 2844TIP3   OH230090   2.812   5.045   7.478
 2844TIP3    H130091   2.832   4.958   7.442
 2844TIP3    H230092   2.753   5.085   7.414
 2845TIP3   OH230093   5.344   2.325   7.718
 2845TIP3    H130094   5.345   2.291   7.808
 2845TIP3    H230095   5.255   2.307   7.687
 2846TIP3   OH230096   3.865   6.107   0.747
 2846TIP3    H130097   3.800   6.075   0.685
 2846TIP3    H230098   3.814   6.150   0.816
 2847TIP3   OH230099   5.932   1.132   1.480
 2847TIP3    H130100   5.996   1.185   1.433
 2847TIP3    H230101   5.848   1.154   1.440
 2848TIP3   OH230102   4.651   3.482   8.324
 2848TIP3    H130103   4.737   3.520   8.344
 2848TIP3    H230104   4.670   3.389   8.310
 2849TIP3   OH230105   3.631   2.874   8.405
 2849TIP3    H130106   3.678   2.924   8.338
 2849TIP3    H230107   3.569   2.821   8.355
 2850TIP3   OH230108   5.838   2.905   8.487
 2850TIP3    H130109   5.923   2.862   8.483
 2850TIP3    H230110   5.814   2.904   8.580
 2851TIP3   OH230111   1.356   2.020   7.045
 2851TIP3    H130112   1.305   2.101   7.039
 2851TIP3    H230113   1.446   2.046   7.026
 2852TIP3   OH230114   4.478   6.014   6.943
 2852TIP3    H130115   4.434   6.028   6.859
 2852TIP3    H230116   4.550   6.076   6.943
 2853TIP3   OH230117   5.946   2.952   6.819
 2853TIP3    H130118   5.861   2.962   6.776
 2853TIP3    H230119   5.981   3.041   6.824
 2854TIP3   OH230120   0.020   6.282   0.860
 2854TIP3    H130121   0.067   6.204   0.889
 2854TIP3    H230122   0.087   6.338   0.821
 2855TIP3   OH230123   2.949   2.656   7.162
 2855TIP3    H130124   2.942   2.598   7.238
 2855TIP3    H230125   2.977   2.598   7.091
 2856TIP3   OH230126   0.079   1.416   1.350
 2856TIP3    H130127   0.054   1.501   1.314
 2856TIP3    H230128   0.002   1.387   1.398
 2857TIP3   OH230129   2.140   5.854   8.588
 2857TIP3    H130130   2.152   5.843   0.063
 2857TIP3    H230131   2.110   5.769   8.557
 2858TIP3   OH230132   5.015   3.529   1.309
 2858TIP3    H130133   5.031   3.546   1.216
 2858TIP3    H230134   5.094   3.561   1.352
 2859TIP3   OH230135   0.598   3.643   7.814
 2859TIP3    H130136   0.597   3.683   7.727
 2859TIP3    H230137   0.618   3.551   7.798
 2860TIP3   OH230138   4.161   1.951   0.142
 2860TIP3    H130139   4.174   1.994   0.057
 2860TIP3    H230140   4.236   1.893   0.151
 2861TIP3   OH230141   1.739   1.764   7.234
 2861TIP3    H130142   1.814   1.820   7.215
 2861TIP3    H230143   1.693   1.809   7.305
 2862TIP3   OH230144   3.185   1.233   1.768
 2862TIP3    H130145   3.177   1.327   1.756
 2862TIP3    H230146   3.106   1.208   1.815
 2863TIP3   OH230147   2.201   5.604   7.335
 2863TIP3    H130148   2.187   5.694   7.306
 2863TIP3    H230149   2.131   5.554   7.292
 2864TIP3   OH230150   4.275   1.124   2.487
 2864TIP3    H130151   4.362   1.088   2.469
 2864TIP3    H230152   4.233   1.058   2.543
 2865TIP3   OH230153   2.337   5.815   7.836
 2865TIP3    H130154   2.269   5.754   7.806
 2865TIP3    H230155   2.291   5.898   7.848
 2866TIP3   OH230156   0.586   0.147   7.182
 2866TIP3    H130157   0.647   0.093   7.132
 2866TIP3    H230158   0.640   0.213   7.225
 2867TIP3   OH230159   3.574   3.847   1.544
 2867TIP3    H130160   3.564   3.918   1.607
 2867TIP3    H230161   3.668   3.846   1.524
 2868TIP3   OH230162   1.374   4.323   7.679
 2868TIP3    H130163   1.456   4.329   7.729
 2868TIP3    H230164   1.403   4.305   7.589
 2869TIP3   OH230165   6.283   2.003   1.326
 2869TIP3    H130166   6.238   1.946   1.265
 2869TIP3    H230167   6.230   2.001   1.406
 2870TIP3   OH230168   3.344   5.530   7.694
 2870TIP3    H130169   3.315   5.448   7.734
 2870TIP3    H230170   3.347   5.511   7.600
 2871TIP3   OH230171   1.046   1.532   7.727
 2871TIP3    H130172   1.029   1.450   7.680
 2871TIP3    H230173   0.962   1.578   7.727
 2872TIP3   OH230174   6.501   1.861   1.219
 2872TIP3    H130175   6.432   1.818   1.271
 2872TIP3    H230176   6.460   1.940   1.186
 2873TIP3   OH230177   1.985   0.628   7.060
 2873TIP3    H130178   2.026   0.692   7.002
 2873TIP3    H230179   1.900   0.666   7.082
 2874TIP3   OH230180   0.130   4.244   1.247
 2874TIP3    H130181   0.107   4.337   1.238
 2874TIP3    H230182   0.100   4.203   1.166
 2875TIP3   OH230183   2.973   4.681   8.540
 2875TIP3    H130184   2.944   4.710   0.007
 2875TIP3    H230185   3.046   4.621   8.557
 2876TIP3   OH230186   6.896   3.263   7.043
 2876TIP3    H130187   6.866   3.354   7.038
 2876TIP3    H230188   0.033   3.244   6.957
 2877TIP3   OH230189   5.277   0.292   7.722
 2877TIP3    H130190   5.227   0.337   7.654
 2877TIP3    H230191   5.294   0.359   7.788
 2878TIP3   OH230192   0.475   1.323   7.610
 2878TIP3    H130193   0.439   1.401   7.652
 2878TIP3    H230194   0.564   1.347   7.585
 2879TIP3   OH230195   4.779   1.170   6.463
 2879TIP3    H130196   4.722   1.244   6.442
 2879TIP3    H230197   4.806   1.135   6.378
 2880TIP3   OH230198   3.000   5.560   1.849
 2880TIP3    H130199   2.970   5.495   1.784
 2880TIP3    H230200   3.095   5.549   1.852
 2881TIP3   OH230201   4.313   3.007   1.293
 2881TIP3    H130202   4.264   2.973   1.219
 2881TIP3    H230203   4.391   2.952   1.297
 2882TIP3   OH230204   5.537   0.826   0.880
 2882TIP3    H130205   5.515   0.760   0.946
 2882TIP3    H230206   5.467   0.818   0.815
 2883TIP3   OH230207   5.150   1.203   7.251
 2883TIP3    H130208   5.155   1.140   7.323
 2883TIP3    H230209   5.057   1.222   7.242
 2884TIP3   OH230210   0.578   0.395   0.474
 2884TIP3    H130211   0.582   0.348   0.391
 2884TIP3    H230212   0.484   0.411   0.488
 2885TIP3   OH230213   2.500   1.656   8.160
 2885TIP3    H130214   2.572   1.683   8.217
 2885TIP3    H230215   2.530   1.573   8.122
 2886TIP3   OH230216   3.486   2.716   7.148
 2886TIP3    H130217   3.428   2.787   7.120
 2886TIP3    H230218   3.432   2.665   7.209
 2887TIP3   OH230219   6.743   1.144   5.996
 2887TIP3    H130220   6.678   1.073   5.998
 2887TIP3    H230221   6.700   1.218   6.039
 2888TIP3   OH230222   3.347   2.955   1.878
 2888TIP3    H130223   3.262   2.918   1.854
 2888TIP3    H230224   3.373   3.007   1.802
 2889TIP3   OH230225   2.536   6.046   2.001
 2889TIP3    H130226   2.453   6.026   2.045
 2889TIP3    H230227   2.529   6.002   1.917
 2890TIP3   OH230228   2.505   1.727   1.742
 2890TIP3    H130229   2.441   1.799   1.734
 2890TIP3    H230230   2.574   1.750   1.680
 2891TIP3   OH230231   1.574   0.759   8.486
 2891TIP3    H130232   1.515   0.798   8.550
 2891TIP3    H230233   1.608   0.833   8.436
 2892TIP3   OH230234   4.220   0.601   0.636
 2892TIP3    H130235   4.163   0.536   0.677
 2892TIP3    H230236   4.273   0.551   0.574
 2893TIP3   OH230237   6.431   2.812   6.631
 2893TIP3    H130238   6.428   2.885   6.569
 2893TIP3    H230239   6.399   2.737   6.581
 2894TIP3   OH230240   0.180   5.005   7.596
 2894TIP3    H130241   0.084   5.005   7.594
 2894TIP3    H230242   0.205   4.929   7.543
 2895TIP3   OH230243   5.307   5.787   7.046
 2895TIP3    H130244   5.270   5.750   6.966
 2895TIP3    H230245   5.290   5.720   7.113
 2896TIP3   OH230246   2.565   6.776   1.498
 2896TIP3    H130247   2.500   6.714   1.466
 2896TIP3    H230248   2.595   6.821   1.419
 2897TIP3   OH230249   0.301   6.733   8.362
 2897TIP3    H130250   0.383   6.706   8.320
 2897TIP3    H230251   0.301   6.685   8.445
 2898TIP3   OH230252   6.867   5.044   8.409
 2898TIP3    H130253   6.821   4.979   8.463
 2898TIP3    H230254   0.047   5.063   8.458
 2899TIP3   OH230255   3.162   2.702   0.924
 2899TIP3    H130256   3.096   2.642   0.958
 2899TIP3    H230257   3.145   2.785   0.968
 2900TIP3   OH230258   1.106   6.541   0.309
 2900TIP3    H130259   1.133   6.468   0.255
 2900TIP3    H230260   1.157   6.532   0.389
 2901TIP3   OH230261   5.958   0.439   6.130
 2901TIP3    H130262   6.023   0.410   6.067
 2901TIP3    H230263   6.005   0.503   6.185
 2902TIP3   OH230264   4.572   6.058   0.104
 2902TIP3    H130265   4.644   6.001   0.130
 2902TIP3    H230266   4.528   6.079   0.186
 2903TIP3   OH230267   3.647   6.030   0.590
 2903TIP3    H130268   3.659   6.123   0.572
 2903TIP3    H230269   3.578   6.027   0.656
 2904TIP3   OH230270   2.107   2.484   7.417
 2904TIP3    H130271   2.085   2.391   7.427
 2904TIP3    H230272   2.164   2.487   7.341
 2905TIP3   OH230273   0.670   6.566   6.036
 2905TIP3    H130274   0.750   6.606   6.003
 2905TIP3    H230275   0.623   6.637   6.079
 2906TIP3   OH230276   0.064   2.099   6.951
 2906TIP3    H130277   0.148   2.138   6.975
 2906TIP3    H230278   0.078   2.005   6.963
 2907TIP3   OH230279   3.052   0.822   8.127
 2907TIP3    H130280   2.992   0.778   8.068
 2907TIP3    H230281   3.007   0.823   8.211
 2908TIP3   OH230282   0.163   4.676   0.752
 2908TIP3    H130283   0.190   4.599   0.702
 2908TIP3    H230284   0.076   4.652   0.786
 2909TIP3   OH230285   1.294   2.105   5.731
 2909TIP3    H130286   1.272   2.095   5.823
 2909TIP3    H230287   1.342   2.188   5.727
 2910TIP3   OH230288   3.334   2.990   7.414
 2910TIP3    H130289   3.307   2.922   7.476
 2910TIP3    H230290   3.264   3.055   7.418
 2911TIP3   OH230291   1.724   1.145   8.102
 2911TIP3    H130292   1.806   1.186   8.132
 2911TIP3    H230293   1.753   1.073   8.046
 2912TIP3   OH230294   0.063   6.493   7.198
 2912TIP3    H130295   6.894   6.554   7.172
 2912TIP3    H230296   0.144   6.536   7.169
 2913TIP3   OH230297   2.616   5.381   0.683
 2913TIP3    H130298   2.604   5.386   0.588
 2913TIP3    H230299   2.594   5.290   0.704
 2914TIP3   OH230300   0.805   4.577   0.336
 2914TIP3    H130301   0.752   4.498   0.326
 2914TIP3    H230302   0.887   4.557   0.291
 2915TIP3   OH230303   1.483   2.398   8.395
 2915TIP3    H130304   1.416   2.430   8.335
 2915TIP3    H230305   1.512   2.476   8.442
 2916TIP3   OH230306   6.633   5.846   8.177
 2916TIP3    H130307   6.667   5.908   8.112
 2916TIP3    H230308   6.674   5.763   8.154
 2917TIP3   OH230309   4.361   4.638   2.094
 2917TIP3    H130310   4.380   4.588   2.172
 2917TIP3    H230311   4.413   4.596   2.025
 2918TIP3   OH230312   5.327   1.735   7.326
 2918TIP3    H130313   5.388   1.685   7.272
 2918TIP3    H230314   5.380   1.766   7.400
 2919TIP3   OH230315   5.059   6.284   0.775
 2919TIP3    H130316   5.098   6.211   0.823
 2919TIP3    H230317   4.972   6.295   0.814
 2920TIP3   OH230318   1.928   5.874   7.575
 2920TIP3    H130319   1.861   5.924   7.621
 2920TIP3    H230320   2.004   5.932   7.573
 2921TIP3   OH230321   0.847   6.548   0.191
 2921TIP3    H130322   0.920   6.550   0.254
 2921TIP3    H230323   0.826   6.455   0.182
 2922TIP3   OH230324   6.499   0.791   7.344
 2922TIP3    H130325   6.593   0.776   7.353
 2922TIP3    H230326   6.477   0.847   7.419
 2923TIP3   OH230327   1.746   4.969   0.662
 2923TIP3    H130328   1.833   4.947   0.627
 2923TIP3    H230329   1.689   4.970   0.586
 2924TIP3   OH230330   3.310   5.666   0.365
 2924TIP3    H130331   3.286   5.631   0.451
 2924TIP3    H230332   3.268   5.752   0.361
 2925TIP3   OH230333   3.657   3.599   0.474
 2925TIP3    H130334   3.585   3.619   0.534
 2925TIP3    H230335   3.623   3.623   0.388
 2926TIP3   OH230336   0.367   6.003   6.443
 2926TIP3    H130337   0.378   5.974   6.353
 2926TIP3    H230338   0.278   5.975   6.466
 2927TIP3   OH230339   1.186   5.773   6.566
 2927TIP3    H130340   1.156   5.835   6.499
 2927TIP3    H230341   1.176   5.687   6.525
 2928TIP3   OH230342   3.990   5.112   0.512
 2928TIP3    H130343   3.901   5.079   0.515
 2928TIP3    H230344   4.044   5.034   0.495
 2929TIP3   OH230345   1.476   4.228   7.436
 2929TIP3    H130346   1.384   4.237   7.413
 2929TIP3    H230347   1.512   4.170   7.369
 2930TIP3   OH230348   6.338   5.652   1.938
 2930TIP3    H130349   6.330   5.557   1.951
 2930TIP3    H230350   6.250   5.686   1.957
 2931TIP3   OH230351   4.906   4.326   6.256
 2931TIP3    H130352   4.813   4.347   6.249
 2931TIP3    H230353   4.908   4.242   6.301
 2932TIP3   OH230354   4.676   4.897   0.115
 2932TIP3    H130355   4.751   4.957   0.104
 2932TIP3    H230356   4.613   4.925   0.049
 2933TIP3   OH230357   2.890   3.393   6.934
 2933TIP3    H130358   2.882   3.370   7.027
 2933TIP3    H230359   2.800   3.413   6.907
 2934TIP3   OH230360   3.931   0.777   6.689
 2934TIP3    H130361   3.954   0.684   6.687
 2934TIP3    H230362   3.957   0.810   6.604
 2935TIP3   OH230363   0.163   0.181   0.566
 2935TIP3    H130364   0.210   0.104   0.597
 2935TIP3    H230365   0.114   0.150   0.490
 2936TIP3   OH230366   5.671   0.483   7.113
 2936TIP3    H130367   5.592   0.432   7.131
 2936TIP3    H230368   5.741   0.432   7.153
 2937TIP3   OH230369   1.417   4.793   0.091
 2937TIP3    H130370   1.447   4.702   0.101
 2937TIP3    H230371   1.380   4.815   0.177
 2938TIP3   OH230372   3.234   2.622   6.659
 2938TIP3    H130373   3.305   2.643   6.719
 2938TIP3    H230374   3.240   2.527   6.646
 2939TIP3   OH230375   2.563   1.517   7.131
 2939TIP3    H130376   2.521   1.594   7.094
 2939TIP3    H230377   2.499   1.447   7.119
 2940TIP3   OH230378   2.051   3.254   0.654
 2940TIP3    H130379   1.988   3.290   0.590
 2940TIP3    H230380   2.124   3.317   0.653
 2941TIP3   OH230381   3.147   2.626   8.207
 2941TIP3    H130382   3.060   2.667   8.209
 2941TIP3    H230383   3.133   2.540   8.248
 2942TIP3   OH230384   0.402   3.158   0.787
 2942TIP3    H130385   0.321   3.132   0.830
 2942TIP3    H230386   0.401   3.111   0.704
 2943TIP3   OH230387   2.431   0.307   1.885
 2943TIP3    H130388   2.338   0.290   1.876
 2943TIP3    H230389   2.450   0.294   1.978
 2944TIP3   OH230390   2.712   1.687   2.340
 2944TIP3    H130391   2.696   1.602   2.300
 2944TIP3    H230392   2.774   1.670   2.410
 2945TIP3   OH230393   2.062   0.306   8.562
 2945TIP3    H130394   1.977   0.321   8.520
 2945TIP3    H230395   2.058   0.358   0.023
 2946TIP3   OH230396   3.574   6.148   7.806
 2946TIP3    H130397   3.516   6.072   7.809
 2946TIP3    H230398   3.528   6.214   7.858
 2947TIP3   OH230399   4.449   4.263   6.752
 2947TIP3    H130400   4.363   4.273   6.791
 2947TIP3    H230401   4.499   4.213   6.816
 2948TIP3   OH230402   1.180   5.128   1.212
 2948TIP3    H130403   1.214   5.197   1.269
 2948TIP3    H230404   1.109   5.169   1.164
 2949TIP3   OH230405   6.090   5.877   2.000
 2949TIP3    H130406   6.051   5.865   1.913
 2949TIP3    H230407   6.073   5.794   2.045
 2950TIP3   OH230408   4.120   3.558   7.299
 2950TIP3    H130409   4.105   3.495   7.369
 2950TIP3    H230410   4.160   3.633   7.343
 2951TIP3   OH230411   0.948   6.547   6.815
 2951TIP3    H130412   0.860   6.574   6.789
 2951TIP3    H230413   0.934   6.486   6.888
 2952TIP3   OH230414   6.385   6.667   1.415
 2952TIP3    H130415   6.351   6.646   1.327
 2952TIP3    H230416   6.470   6.707   1.399
 2953TIP3   OH230417   0.995   1.963   1.267
 2953TIP3    H130418   0.987   2.054   1.239
 2953TIP3    H230419   0.906   1.929   1.261
 2954TIP3   OH230420   0.139   1.233   8.195
 2954TIP3    H130421   0.087   1.153   8.193
 2954TIP3    H230422   0.143   1.256   8.288
 2955TIP3   OH230423   0.304   5.144   1.018
 2955TIP3    H130424   0.214   5.113   1.007
 2955TIP3    H230425   0.318   5.143   1.113
 2956TIP3   OH230426   0.113   6.082   1.225
 2956TIP3    H130427   0.182   6.088   1.291
 2956TIP3    H230428   0.064   6.004   1.248
 2957TIP3   OH230429   3.350   0.818   7.435
 2957TIP3    H130430   3.364   0.761   7.360
 2957TIP3    H230431   3.435   0.823   7.478
 2958TIP3   OH230432   6.251   6.447   6.757
 2958TIP3    H130433   6.277   6.364   6.795
 2958TIP3    H230434   6.325   6.473   6.702
 2959TIP3   OH230435   2.549   3.725   6.761
 2959TIP3    H130436   2.460   3.702   6.735
 2959TIP3    H230437   2.539   3.768   6.846
 2960TIP3   OH230438   2.219   1.315   2.330
 2960TIP3    H130439   2.169   1.388   2.294
 2960TIP3    H230440   2.298   1.311   2.275
 2961TIP3   OH230441   1.654   4.650   7.302
 2961TIP3    H130442   1.652   4.745   7.315
 2961TIP3    H230443   1.745   4.631   7.279
 2962TIP3   OH230444   3.080   5.835   2.553
 2962TIP3    H130445   3.073   5.931   2.547
 2962TIP3    H230446   3.166   5.820   2.592
 2963TIP3   OH230447   6.033   4.440   0.119
 2963TIP3    H130448   6.066   4.397   0.198
 2963TIP3    H230449   5.949   4.478   0.146
 2964TIP3   OH230450   6.320   2.976   7.947
 2964TIP3    H130451   6.354   2.953   8.033
 2964TIP3    H230452   6.289   3.066   7.956
 2965TIP3   OH230453   6.005   5.976   0.605
 2965TIP3    H130454   6.055   5.939   0.532
 2965TIP3    H230455   6.052   6.056   0.629
 2966TIP3   OH230456   0.402   5.523   0.212
 2966TIP3    H130457   0.465   5.518   0.283
 2966TIP3    H230458   0.406   5.437   0.170
 2967TIP3   OH230459   3.981   6.735   1.023
 2967TIP3    H130460   3.993   6.762   0.932
 2967TIP3    H230461   4.070   6.734   1.060
 2968TIP3   OH230462   0.166   1.727   6.394
 2968TIP3    H130463   0.203   1.660   6.452
 2968TIP3    H230464   0.072   1.722   6.408
 2969TIP3   OH230465   1.936   1.982   2.179
 2969TIP3    H130466   1.937   1.945   2.091
 2969TIP3    H230467   1.850   1.959   2.214
 2970TIP3   OH230468   4.607   2.373   7.610
 2970TIP3    H130469   4.598   2.356   7.704
 2970TIP3    H230470   4.662   2.452   7.606
 2971TIP3   OH230471   3.569   5.517   6.672
 2971TIP3    H130472   3.613   5.563   6.600
 2971TIP3    H230473   3.577   5.424   6.650
 2972TIP3   OH230474   0.498   2.605   1.441
 2972TIP3    H130475   0.498   2.690   1.397
 2972TIP3    H230476   0.405   2.584   1.451
 2973TIP3   OH230477   2.781   6.197   7.518
 2973TIP3    H130478   2.852   6.154   7.566
 2973TIP3    H230479   2.724   6.125   7.490
 2974TIP3   OH230480   0.030   2.091   1.446
 2974TIP3    H130481   6.843   2.065   1.473
 2974TIP3    H230482   0.079   2.009   1.437
 2975TIP3   OH230483   2.848   2.013   0.020
 2975TIP3    H130484   2.853   2.059   8.555
 2975TIP3    H230485   2.939   2.007   0.049
 2976TIP3   OH230486   0.615   0.541   7.182
 2976TIP3    H130487   0.684   0.503   7.126
 2976TIP3    H230488   0.603   0.476   7.251
 2977TIP3   OH230489   4.365   3.598   0.609
 2977TIP3    H130490   4.287   3.623   0.658
 2977TIP3    H230491   4.424   3.561   0.674
 2978TIP3   OH230492   6.112   1.526   5.948
 2978TIP3    H130493   6.049   1.583   5.904
 2978TIP3    H230494   6.080   1.437   5.931
 2979TIP3   OH230495   6.238   1.276   6.736
 2979TIP3    H130496   6.224   1.245   6.826
 2979TIP3    H230497   6.248   1.371   6.745
 2980TIP3   OH230498   3.168   5.405   0.063
 2980TIP3    H130499   3.076   5.391   0.038
 2980TIP3    H230500   3.212   5.430   8.601
 2981TIP3   OH230501   3.754   3.509   1.735
 2981TIP3    H130502   3.797   3.580   1.783
 2981TIP3    H230503   3.732   3.548   1.650
 2982TIP3   OH230504   1.260   6.020   0.218
 2982TIP3    H130505   1.181   6.070   0.239
 2982TIP3    H230506   1.251   5.940   0.269
 2983TIP3   OH230507   0.943   4.081   0.125
 2983TIP3    H130508   1.024   4.096   0.174
 2983TIP3    H230509   0.971   4.080   0.034
 2984TIP3   OH230510   0.301   5.664   1.769
 2984TIP3    H130511   0.216   5.630   1.796
 2984TIP3    H230512   0.280   5.733   1.706
 2985TIP3   OH230513   4.654   0.169   6.318
 2985TIP3    H130514   4.598   0.161   6.240
 2985TIP3    H230515   4.596   0.147   6.391
 2986TIP3   OH230516   1.436   2.214   6.761
 2986TIP3    H130517   1.441   2.119   6.763
 2986TIP3    H230518   1.507   2.243   6.819
 2987TIP3   OH230519   4.063   6.653   1.833
 2987TIP3    H130520   4.025   6.703   1.905
 2987TIP3    H230521   4.139   6.705   1.805
 2988TIP3   OH230522   2.930   4.635   7.003
 2988TIP3    H130523   2.950   4.671   6.917
 2988TIP3    H230524   3.006   4.657   7.057
 2989TIP3   OH230525   2.371   4.844   8.006
 2989TIP3    H130526   2.424   4.869   8.081
 2989TIP3    H230527   2.345   4.926   7.965
 2990TIP3   OH230528   2.596   4.965   0.153
 2990TIP3    H130529   2.617   4.936   0.242
 2990TIP3    H230530   2.680   4.968   0.108
 2991TIP3   OH230531   2.117   2.673   1.786
 2991TIP3    H130532   2.087   2.656   1.875
 2991TIP3    H230533   2.213   2.671   1.792
 2992TIP3   OH230534   4.784   5.317   2.420
 2992TIP3    H130535   4.757   5.407   2.436
 2992TIP3    H230536   4.705   5.264   2.437
 2993TIP3   OH230537   0.851   0.644   7.324
 2993TIP3    H130538   0.930   0.595   7.303
 2993TIP3    H230539   0.882   0.720   7.373
 2994TIP3   OH230540   4.598   5.075   0.978
 2994TIP3    H130541   4.665   5.126   0.933
 2994TIP3    H230542   4.522   5.080   0.919
 2995TIP3   OH230543   1.895   6.098   1.783
 2995TIP3    H130544   1.853   6.015   1.804
 2995TIP3    H230545   1.973   6.099   1.838
 2996TIP3   OH230546   5.601   5.839   0.912
 2996TIP3    H130547   5.654   5.904   0.958
 2996TIP3    H230548   5.619   5.757   0.957
 2997TIP3   OH230549   3.139   0.844   0.601
 2997TIP3    H130550   3.104   0.811   0.683
 2997TIP3    H230551   3.219   0.890   0.625
 2998TIP3   OH230552   3.875   6.478   7.047
 2998TIP3    H130553   3.955   6.516   7.011
 2998TIP3    H230554   3.868   6.516   7.134
 2999TIP3   OH230555   3.200   6.487   7.480
 2999TIP3    H130556   3.210   6.419   7.413
 2999TIP3    H230557   3.277   6.542   7.470
 3000TIP3   OH230558   1.636   3.168   8.345
 3000TIP3    H130559   1.682   3.228   8.403
 3000TIP3    H230560   1.692   3.162   8.267
 3001TIP3   OH230561   6.881   1.239   0.078
 3001TIP3    H130562   6.828   1.249   0.157
 3001TIP3    H230563   0.069   1.266   0.105
 3002TIP3   OH230564   1.451   3.304   0.892
 3002TIP3    H130565   1.372   3.344   0.929
 3002TIP3    H230566   1.489   3.372   0.837
 3003TIP3   OH230567   3.590   5.622   7.777
 3003TIP3    H130568   3.509   5.586   7.742
 3003TIP3    H230569   3.634   5.546   7.817
 3004TIP3   OH230570   3.494   2.996   0.212
 3004TIP3    H130571   3.416   3.024   0.260
 3004TIP3    H230572   3.566   3.044   0.252
 3005TIP3   OH230573   2.986   1.109   8.519
 3005TIP3    H130574   3.069   1.149   8.493
 3005TIP3    H230575   2.982   1.121   8.614
 3006TIP3   OH230576   5.951   5.219   6.785
 3006TIP3    H130577   5.865   5.205   6.827
 3006TIP3    H230578   5.956   5.314   6.772
 3007TIP3   OH230579   2.274   1.779   6.392
 3007TIP3    H130580   2.363   1.753   6.416
 3007TIP3    H230581   2.278   1.874   6.384
 3008TIP3   OH230582   5.558   4.315   1.386
 3008TIP3    H130583   5.621   4.362   1.441
 3008TIP3    H230584   5.613   4.263   1.327
 3009TIP3   OH230585   3.432   6.713   7.502
 3009TIP3    H130586   3.457   6.645   7.439
 3009TIP3    H230587   3.409   6.789   7.447
 3010TIP3   OH230588   0.550   0.807   1.221
 3010TIP3    H130589   0.582   0.897   1.217
 3010TIP3    H230590   0.472   0.812   1.277
 3011TIP3   OH230591   0.420   4.194   1.045
 3011TIP3    H130592   0.408   4.231   0.958
 3011TIP3    H230593   0.370   4.253   1.102
 3012TIP3   OH230594   2.859   6.104   7.974
 3012TIP3    H130595   2.932   6.163   7.993
 3012TIP3    H230596   2.897   6.034   7.922
 3013TIP3   OH230597   5.200   1.772   8.007
 3013TIP3    H130598   5.199   1.688   8.054
 3013TIP3    H230599   5.268   1.823   8.051
 3014TIP3   OH230600   4.500   5.364   1.560
 3014TIP3    H130601   4.496   5.460   1.554
 3014TIP3    H230602   4.419   5.340   1.606
 3015TIP3   OH230603   2.037   1.273   1.176
 3015TIP3    H130604   2.012   1.226   1.096
 3015TIP3    H230605   2.033   1.366   1.151
 3016TIP3   OH230606   1.414   0.556   2.074
 3016TIP3    H130607   1.342   0.497   2.096
 3016TIP3    H230608   1.488   0.498   2.054
 3017TIP3   OH230609   1.728   5.504   8.059
 3017TIP3    H130610   1.681   5.511   7.976
 3017TIP3    H230611   1.784   5.427   8.048
 3018TIP3   OH230612   0.512   4.062   6.870
 3018TIP3    H130613   0.593   4.059   6.820
 3018TIP3    H230614   0.482   4.153   6.863
 3019TIP3   OH230615   3.162   4.464   0.512
 3019TIP3    H130616   3.209   4.531   0.462
 3019TIP3    H230617   3.142   4.507   0.595
 3020TIP3   OH230618   1.868   6.154   0.277
 3020TIP3    H130619   1.962   6.147   0.258
 3020TIP3    H230620   1.864   6.201   0.360
 3021TIP3   OH230621   4.683   3.528   1.048
 3021TIP3    H130622   4.691   3.584   1.126
 3021TIP3    H230623   4.592   3.497   1.051
 3022TIP3   OH230624   4.174   0.953   1.609
 3022TIP3    H130625   4.124   0.879   1.572
 3022TIP3    H230626   4.146   1.029   1.558
 3023TIP3   OH230627   6.312   3.446   0.085
 3023TIP3    H130628   6.295   3.364   0.038
 3023TIP3    H230629   6.280   3.430   0.174
 3024TIP3   OH230630   3.952   5.232   7.650
 3024TIP3    H130631   3.860   5.256   7.664
 3024TIP3    H230632   3.956   5.201   7.560
 3025TIP3   OH230633   4.094   3.564   1.169
 3025TIP3    H130634   4.048   3.639   1.206
 3025TIP3    H230635   4.032   3.491   1.177
 3026TIP3   OH230636   6.028   4.639   0.432
 3026TIP3    H130637   5.986   4.686   0.360
 3026TIP3    H230638   6.057   4.557   0.393
 3027TIP3   OH230639   3.869   1.763   7.243
 3027TIP3    H130640   3.846   1.833   7.183
 3027TIP3    H230641   3.865   1.803   7.330
 3028TIP3   OH230642   3.695   5.326   7.630
 3028TIP3    H130643   3.612   5.289   7.602
 3028TIP3    H230644   3.677   5.365   7.715
 3029TIP3   OH230645   0.081   1.923   0.775
 3029TIP3    H130646   0.171   1.893   0.765
 3029TIP3    H230647   0.076   2.003   0.724
 3030TIP3   OH230648   3.544   0.200   7.644
 3030TIP3    H130649   3.591   0.161   7.569
 3030TIP3    H230650   3.533   0.127   7.705
 3031TIP3   OH230651   0.521   0.885   0.596
 3031TIP3    H130652   0.613   0.866   0.581
 3031TIP3    H230653   0.481   0.799   0.611
 3032TIP3   OH230654   5.702   0.985   1.539
 3032TIP3    H130655   5.778   0.930   1.519
 3032TIP3    H230656   5.737   1.052   1.598
 3033TIP3   OH230657   4.557   2.330   0.071
 3033TIP3    H130658   4.471   2.368   0.052
 3033TIP3    H230659   4.572   2.268   8.619
 3034TIP3   OH230660   5.093   3.165   8.294
 3034TIP3    H130661   5.109   3.132   8.382
 3034TIP3    H230662   5.036   3.099   8.254
 3035TIP3   OH230663   3.399   0.114   1.520
 3035TIP3    H130664   3.446   0.036   1.492
 3035TIP3    H230665   3.389   0.103   1.615
 3036TIP3   OH230666   5.506   6.370   6.087
 3036TIP3    H130667   5.579   6.424   6.056
 3036TIP3    H230668   5.533   6.341   6.174
 3037TIP3   OH230669   3.326   0.490   6.930
 3037TIP3    H130670   3.302   0.504   6.838
 3037TIP3    H230671   3.268   0.420   6.960
 3038TIP3   OH230672   0.100   3.036   1.269
 3038TIP3    H130673   0.024   3.083   1.301
 3038TIP3    H230674   0.117   2.969   1.335
 3039TIP3   OH230675   0.196   0.252   1.027
 3039TIP3    H130676   0.190   0.337   1.069
 3039TIP3    H230677   0.113   0.242   0.979
 3040TIP3   OH230678   0.628   2.354   0.447
 3040TIP3    H130679   0.647   2.272   0.493
 3040TIP3    H230680   0.645   2.422   0.511
 3041TIP3   OH230681   0.817   6.893   7.119
 3041TIP3    H130682   0.754   6.838   7.072
 3041TIP3    H230683   0.891   6.835   7.138
 3042TIP3   OH230684   6.886   4.110   1.053
 3042TIP3    H130685   0.013   4.060   0.975
 3042TIP3    H230686   6.821   4.054   1.095
 3043TIP3   OH230687   2.467   5.473   8.195
 3043TIP3    H130688   2.428   5.521   8.268
 3043TIP3    H230689   2.452   5.529   8.119
 3044TIP3   OH230690   4.537   1.958   0.634
 3044TIP3    H130691   4.550   2.053   0.635
 3044TIP3    H230692   4.518   1.937   0.542
 3045TIP3   OH230693   6.171   3.909   8.594
 3045TIP3    H130694   6.183   3.816   8.574
 3045TIP3    H230695   6.253   3.935   0.016
 3046TIP3   OH230696   5.889   4.917   1.644
 3046TIP3    H130697   5.813   4.974   1.630
 3046TIP3    H230698   5.964   4.974   1.631
 3047TIP3   OH230699   3.382   4.639   0.807
 3047TIP3    H130700   3.400   4.634   0.901
 3047TIP3    H230701   3.457   4.685   0.770
 3048TIP3   OH230702   5.838   6.304   6.832
 3048TIP3    H130703   5.875   6.216   6.826
 3048TIP3    H230704   5.888   6.356   6.769
 3049TIP3   OH230705   0.000   5.858   1.327
 3049TIP3    H130706   6.824   5.873   1.383
 3049TIP3    H230707   0.041   5.779   1.363
 3050TIP3   OH230708   3.418   4.147   6.406
 3050TIP3    H130709   3.428   4.233   6.446
 3050TIP3    H230710   3.468   4.152   6.325
 3051TIP3   OH230711   2.018   4.347   8.284
 3051TIP3    H130712   1.982   4.287   8.219
 3051TIP3    H230713   2.104   4.371   8.250
 3052TIP3   OH230714   0.737   4.183   6.767
 3052TIP3    H130715   0.808   4.121   6.782
 3052TIP3    H230716   0.778   4.254   6.717
 3053TIP3   OH230717   2.673   2.562   7.949
 3053TIP3    H130718   2.608   2.630   7.933
 3053TIP3    H230719   2.699   2.532   7.862
 3054TIP3   OH230720   4.020   0.622   0.091
 3054TIP3    H130721   3.944   0.568   0.111
 3054TIP3    H230722   4.083   0.562   0.051
 3055TIP3   OH230723   2.740   4.864   6.588
 3055TIP3    H130724   2.719   4.954   6.611
 3055TIP3    H230725   2.658   4.816   6.599
 3056TIP3   OH230726   1.517   1.551   0.529
 3056TIP3    H130727   1.533   1.601   0.609
 3056TIP3    H230728   1.440   1.594   0.490
 3057TIP3   OH230729   0.001   4.771   8.247
 3057TIP3    H130730   0.023   4.719   8.324
 3057TIP3    H230731   0.024   4.714   8.173
 3058TIP3   OH230732   2.873   3.767   0.896
 3058TIP3    H130733   2.958   3.748   0.936
 3058TIP3    H230734   2.875   3.861   0.879
 3059TIP3   OH230735   1.810   5.112   1.329
 3059TIP3    H130736   1.750   5.039   1.318
 3059TIP3    H230737   1.779   5.178   1.267
 3060TIP3   OH230738   5.679   3.507   7.435
 3060TIP3    H130739   5.728   3.455   7.498
 3060TIP3    H230740   5.746   3.549   7.381
 3061TIP3   OH230741   5.265   5.236   1.412
 3061TIP3    H130742   5.348   5.268   1.446
 3061TIP3    H230743   5.263   5.265   1.321
 3062TIP3   OH230744   3.908   0.506   7.163
 3062TIP3    H130745   3.902   0.599   7.184
 3062TIP3    H230746   3.840   0.492   7.097
 3063TIP3   OH230747   4.860   2.478   8.335
 3063TIP3    H130748   4.908   2.412   8.384
 3063TIP3    H230749   4.909   2.486   8.253
 3064TIP3   OH230750   3.070   5.449   7.491
 3064TIP3    H130751   3.166   5.444   7.486
 3064TIP3    H230752   3.051   5.539   7.515
 3065TIP3   OH230753   4.606   4.752   1.803
 3065TIP3    H130754   4.578   4.707   1.882
 3065TIP3    H230755   4.547   4.828   1.797
 3066TIP3   OH230756   2.516   5.229   1.363
 3066TIP3    H130757   2.439   5.241   1.418
 3066TIP3    H230758   2.589   5.220   1.425
 3067TIP3   OH230759   3.550   2.197   0.563
 3067TIP3    H130760   3.466   2.209   0.518
 3067TIP3    H230761   3.527   2.155   0.646
 3068TIP3   OH230762   4.157   5.625   0.844
 3068TIP3    H130763   4.099   5.691   0.881
 3068TIP3    H230764   4.223   5.610   0.912
 3069TIP3   OH230765   6.126   3.112   8.217
 3069TIP3    H130766   6.040   3.081   8.246
 3069TIP3    H230767   6.116   3.128   8.123
 3070TIP3   OH230768   5.746   4.470   1.518
 3070TIP3    H130769   5.759   4.437   1.607
 3070TIP3    H230770   5.798   4.550   1.514
 3071TIP3   OH230771   3.161   5.958   6.867
 3071TIP3    H130772   3.226   5.924   6.807
 3071TIP3    H230773   3.130   6.039   6.826
 3072TIP3   OH230774   6.771   4.921   6.759
 3072TIP3    H130775   6.714   4.969   6.699
 3072TIP3    H230776   6.859   4.934   6.724
 3073TIP3   OH230777   0.948   2.534   7.499
 3073TIP3    H130778   1.012   2.566   7.435
 3073TIP3    H230779   0.891   2.609   7.515
 3074TIP3   OH230780   5.220   2.085   2.056
 3074TIP3    H130781   5.207   1.992   2.071
 3074TIP3    H230782   5.132   2.123   2.064
 3075TIP3   OH230783   5.956   5.494   7.535
 3075TIP3    H130784   5.930   5.438   7.462
 3075TIP3    H230785   5.899   5.570   7.530
 3076TIP3   OH230786   5.936   2.017   2.142
 3076TIP3    H130787   5.994   1.941   2.134
 3076TIP3    H230788   5.848   1.980   2.135
 3077TIP3   OH230789   5.246   4.990   0.591
 3077TIP3    H130790   5.178   4.975   0.656
 3077TIP3    H230791   5.218   4.941   0.514
 3078TIP3   OH230792   4.282   2.438   1.635
 3078TIP3    H130793   4.374   2.433   1.609
 3078TIP3    H230794   4.254   2.346   1.642
 3079TIP3   OH230795   4.436   3.434   6.302
 3079TIP3    H130796   4.471   3.353   6.266
 3079TIP3    H230797   4.503   3.465   6.362
 3080TIP3   OH230798   1.080   1.892   7.654
 3080TIP3    H130799   1.097   1.979   7.690
 3080TIP3    H230800   1.129   1.832   7.710
 3081TIP3   OH230801   0.481   4.553   8.442
 3081TIP3    H130802   0.459   4.640   8.476
 3081TIP3    H230803   0.417   4.538   8.372
 3082TIP3   OH230804   5.204   1.141   0.357
 3082TIP3    H130805   5.184   1.108   0.269
 3082TIP3    H230806   5.293   1.110   0.375
 3083TIP3   OH230807   6.155   1.000   1.310
 3083TIP3    H130808   6.069   0.996   1.267
 3083TIP3    H230809   6.139   0.970   1.399
 3084TIP3   OH230810   3.020   3.044   1.422
 3084TIP3    H130811   3.095   3.050   1.363
 3084TIP3    H230812   2.944   3.045   1.364
 3085TIP3   OH230813   0.021   2.740   1.740
 3085TIP3    H130814   6.827   2.759   1.741
 3085TIP3    H230815   0.026   2.644   1.736
 3086TIP3   OH230816   5.270   0.353   0.084
 3086TIP3    H130817   5.189   0.341   0.035
 3086TIP3    H230818   5.315   0.269   0.076
 3087TIP3   OH230819   4.721   4.396   7.076
 3087TIP3    H130820   4.679   4.345   7.145
 3087TIP3    H230821   4.776   4.459   7.123
 3088TIP3   OH230822   3.845   0.446   0.219
 3088TIP3    H130823   3.825   0.504   0.293
 3088TIP3    H230824   3.767   0.391   0.210
 3089TIP3   OH230825   3.479   1.296   8.422
 3089TIP3    H130826   3.565   1.303   8.381
 3089TIP3    H230827   3.421   1.349   8.367
 3090TIP3   OH230828   4.903   1.713   6.927
 3090TIP3    H130829   4.852   1.637   6.955
 3090TIP3    H230830   4.985   1.706   6.975
 3091TIP3   OH230831   4.984   6.676   8.545
 3091TIP3    H130832   4.966   6.726   8.466
 3091TIP3    H230833   5.080   6.665   8.545
 3092TIP3   OH230834   4.636   1.610   0.945
 3092TIP3    H130835   4.715   1.644   0.905
 3092TIP3    H230836   4.564   1.651   0.897
 3093TIP3   OH230837   6.553   3.613   7.206
 3093TIP3    H130838   6.579   3.639   7.294
 3093TIP3    H230839   6.532   3.695   7.161
 3094TIP3   OH230840   5.022   1.535   0.615
 3094TIP3    H130841   5.074   1.609   0.584
 3094TIP3    H230842   4.943   1.576   0.652
 3095TIP3   OH230843   6.627   2.176   7.230
 3095TIP3    H130844   6.564   2.243   7.202
 3095TIP3    H230845   6.655   2.134   7.149
 3096TIP3   OH230846   0.954   5.504   6.786
 3096TIP3    H130847   0.966   5.483   6.694
 3096TIP3    H230848   1.030   5.557   6.809
 3097TIP3   OH230849   6.450   4.548   1.057
 3097TIP3    H130850   6.514   4.614   1.030
 3097TIP3    H230851   6.365   4.589   1.038
 3098TIP3   OH230852   0.783   0.467   1.576
 3098TIP3    H130853   0.748   0.418   1.650
 3098TIP3    H230854   0.707   0.482   1.520
 3099TIP3   OH230855   3.177   0.010   7.171
 3099TIP3    H130856   3.197   0.043   7.083
 3099TIP3    H230857   3.103   6.851   7.158
 3100TIP3   OH230858   6.090   4.984   0.516
 3100TIP3    H130859   6.008   4.935   0.516
 3100TIP3    H230860   6.087   5.037   0.437
 3101TIP3   OH230861   6.623   3.111   0.802
 3101TIP3    H130862   6.616   3.148   0.715
 3101TIP3    H230863   6.541   3.134   0.846
 3102TIP3   OH230864   1.238   3.699   0.686
 3102TIP3    H130865   1.183   3.751   0.744
 3102TIP3    H230866   1.212   3.724   0.598
 3103TIP3   OH230867   2.286   1.062   2.063
 3103TIP3    H130868   2.272   1.066   2.158
 3103TIP3    H230869   2.205   1.025   2.029
 3104TIP3   OH230870   1.533   4.550   1.688
 3104TIP3    H130871   1.501   4.545   1.778
 3104TIP3    H230872   1.485   4.480   1.642
 3105TIP3   OH230873   0.769   0.049   2.055
 3105TIP3    H130874   0.706   0.016   1.991
 3105TIP3    H230875   0.727   0.033   2.140
 3106TIP3   OH230876   1.841   3.596   1.347
 3106TIP3    H130877   1.877   3.521   1.300
 3106TIP3    H230878   1.887   3.596   1.431
 3107TIP3   OH230879   3.364   1.864   8.057
 3107TIP3    H130880   3.278   1.848   8.019
 3107TIP3    H230881   3.347   1.890   8.147
 3108TIP3   OH230882   5.909   6.115   0.260
 3108TIP3    H130883   5.849   6.182   0.293
 3108TIP3    H230884   5.879   6.033   0.300
 3109TIP3   OH230885   0.675   6.277   1.997
 3109TIP3    H130886   0.677   6.370   1.974
 3109TIP3    H230887   0.584   6.251   1.985
 3110TIP3   OH230888   0.241   3.101   7.766
 3110TIP3    H130889   0.283   3.104   7.852
 3110TIP3    H230890   0.302   3.145   7.708
 3111TIP3   OH230891   1.454   1.998   0.327
 3111TIP3    H130892   1.399   2.074   0.344
 3111TIP3    H230893   1.537   2.018   0.371
 3112TIP3   OH230894   4.290   0.388   7.624
 3112TIP3    H130895   4.199   0.409   7.646
 3112TIP3    H230896   4.318   0.459   7.566
 3113TIP3   OH230897   5.837   2.201   6.305
 3113TIP3    H130898   5.766   2.209   6.241
 3113TIP3    H230899   5.894   2.133   6.269
 3114TIP3   OH230900   2.105   6.742   1.622
 3114TIP3    H130901   2.053   6.744   1.702
 3114TIP3    H230902   2.124   6.649   1.608
 3115TIP3   OH230903   4.066   6.087   7.420
 3115TIP3    H130904   4.086   6.158   7.358
 3115TIP3    H230905   3.996   6.038   7.378
 3116TIP3   OH230906   5.988   3.187   6.938
 3116TIP3    H130907   5.930   3.204   7.012
 3116TIP3    H230908   5.999   3.272   6.895
 3117TIP3   OH230909   0.293   4.983   7.979
 3117TIP3    H130910   0.381   5.008   8.007
 3117TIP3    H230911   0.235   5.025   8.042
 3118TIP3   OH230912   4.322   0.258   0.946
 3118TIP3    H130913   4.362   0.257   0.859
 3118TIP3    H230914   4.259   0.331   0.943
 3119TIP3   OH230915   1.716   3.381   8.528
 3119TIP3    H130916   1.784   3.444   8.504
 3119TIP3    H230917   1.641   3.435   8.554
 3120TIP3   OH230918   2.739   2.935   1.662
 3120TIP3    H130919   2.667   2.916   1.722
 3120TIP3    H230920   2.804   2.868   1.681
 3121TIP3   OH230921   1.838   3.316   0.164
 3121TIP3    H130922   1.919   3.308   0.113
 3121TIP3    H230923   1.770   3.283   0.106
 3122TIP3   OH230924   4.005   1.988   1.875
 3122TIP3    H130925   4.033   2.060   1.819
 3122TIP3    H230926   4.083   1.932   1.882
 3123TIP3   OH230927   5.080   3.563   1.950
 3123TIP3    H130928   5.053   3.480   1.990
 3123TIP3    H230929   4.997   3.607   1.930
 3124TIP3   OH230930   0.775   6.172   0.680
 3124TIP3    H130931   0.756   6.109   0.611
 3124TIP3    H230932   0.814   6.120   0.750
 3125TIP3   OH230933   6.280   2.091   7.279
 3125TIP3    H130934   6.319   2.046   7.205
 3125TIP3    H230935   6.192   2.115   7.249
 3126TIP3   OH230936   4.770   6.527   8.172
 3126TIP3    H130937   4.800   6.494   8.256
 3126TIP3    H230938   4.676   6.544   8.185
 3127TIP3   OH230939   2.345   5.147   7.925
 3127TIP3    H130940   2.297   5.196   7.992
 3127TIP3    H230941   2.424   5.199   7.909
 3128TIP3   OH230942   4.655   0.523   6.419
 3128TIP3    H130943   4.576   0.474   6.397
 3128TIP3    H230944   4.712   0.512   6.343
 3129TIP3   OH230945   2.423   0.054   1.289
 3129TIP3    H130946   2.515   0.079   1.295
 3129TIP3    H230947   2.405   0.049   1.195
 3130TIP3   OH230948   6.839   2.776   7.618
 3130TIP3    H130949   6.774   2.784   7.688
 3130TIP3    H230950   6.816   2.844   7.555
 3131TIP3   OH230951   2.143   4.732   8.177
 3131TIP3    H130952   2.174   4.690   8.257
 3131TIP3    H230953   2.216   4.723   8.115
 3132TIP3   OH230954   0.616   0.651   7.973
 3132TIP3    H130955   0.660   0.697   8.045
 3132TIP3    H230956   0.667   0.572   7.959
 3133TIP3   OH230957   2.688   0.375   0.200
 3133TIP3    H130958   2.748   0.354   0.128
 3133TIP3    H230959   2.740   0.359   0.279
 3134TIP3   OH230960   0.178   6.762   2.034
 3134TIP3    H130961   0.144   6.805   1.955
 3134TIP3    H230962   0.254   6.712   2.004
 3135TIP3   OH230963   4.713   2.783   0.986
 3135TIP3    H130964   4.767   2.706   0.969
 3135TIP3    H230965   4.763   2.832   1.052
 3136TIP3   OH230966   2.917   0.568   0.191
 3136TIP3    H130967   2.982   0.613   0.246
 3136TIP3    H230968   2.881   0.638   0.135
 3137TIP3   OH230969   3.255   5.949   1.003
 3137TIP3    H130970   3.205   5.998   1.068
 3137TIP3    H230971   3.191   5.890   0.963
 3138TIP3   OH230972   3.423   6.157   8.227
 3138TIP3    H130973   3.459   6.233   8.183
 3138TIP3    H230974   3.485   6.137   8.296
 3139TIP3   OH230975   5.681   1.575   1.586
 3139TIP3    H130976   5.601   1.533   1.616
 3139TIP3    H230977   5.746   1.505   1.582
 3140TIP3   OH230978   3.076   2.349   8.263
 3140TIP3    H130979   3.041   2.271   8.219
 3140TIP3    H230980   3.036   2.347   8.350
 3141TIP3   OH230981   2.928   0.466   1.390
 3141TIP3    H130982   2.860   0.462   1.323
 3141TIP3    H230983   2.898   0.533   1.451
 3142TIP3   OH230984   2.962   4.147   8.242
 3142TIP3    H130985   3.008   4.227   8.267
 3142TIP3    H230986   2.947   4.157   8.148
 3143TIP3   OH230987   6.144   6.146   8.111
 3143TIP3    H130988   6.108   6.067   8.071
 3143TIP3    H230989   6.217   6.115   8.164
 3144TIP3   OH230990   0.652   6.368   7.008
 3144TIP3    H130991   0.664   6.285   6.962
 3144TIP3    H230992   0.741   6.396   7.031
 3145TIP3   OH230993   2.982   4.377   0.099
 3145TIP3    H130994   3.051   4.419   0.048
 3145TIP3    H230995   3.027   4.310   0.150
 3146TIP3   OH230996   1.286   1.764   7.793
 3146TIP3    H130997   1.345   1.733   7.862
 3146TIP3    H230998   1.231   1.689   7.773
 3147TIP3   OH230999   4.266   0.818   7.816
 3147TIP3    H131000   4.334   0.781   7.761
 3147TIP3    H231001   4.302   0.902   7.846
 3148TIP3   OH231002   3.489   1.379   0.925
 3148TIP3    H131003   3.584   1.373   0.936
 3148TIP3    H231004   3.473   1.341   0.838
 3149TIP3   OH231005   6.155   0.922   7.546
 3149TIP3    H131006   6.133   0.829   7.538
 3149TIP3    H231007   6.155   0.938   7.641
 3150TIP3   OH231008   5.561   1.209   0.951
 3150TIP3    H131009   5.472   1.208   0.985
 3150TIP3    H231010   5.601   1.129   0.986
 3151TIP3   OH231011   0.119   6.555   1.776
 3151TIP3    H131012   0.112   6.647   1.802
 3151TIP3    H231013   0.036   6.516   1.803
 3152TIP3   OH231014   2.259   2.745   0.060
 3152TIP3    H131015   2.196   2.813   0.085
 3152TIP3    H231016   2.344   2.786   0.071
 3153TIP3   OH231017   3.050   1.225   7.754
 3153TIP3    H131018   3.086   1.208   7.841
 3153TIP3    H231019   3.075   1.149   7.702
 3154TIP3   OH231020   0.410   2.430   7.725
 3154TIP3    H131021   0.395   2.501   7.662
 3154TIP3    H231022   0.470   2.468   7.790
 3155TIP3   OH231023   0.484   4.578   0.139
 3155TIP3    H131024   0.470   4.645   0.206
 3155TIP3    H231025   0.405   4.525   0.142
 3156TIP3   OH231026   2.875   2.766   0.465
 3156TIP3    H131027   2.850   2.752   0.373
 3156TIP3    H231028   2.970   2.759   0.464
 3157TIP3   OH231029   5.571   5.745   0.651
 3157TIP3    H131030   5.574   5.789   0.735
 3157TIP3    H231031   5.597   5.812   0.588
 3158TIP3   OH231032   3.172   5.175   6.881
 3158TIP3    H131033   3.168   5.129   6.965
 3158TIP3    H231034   3.207   5.110   6.820
 3159TIP3   OH231035   6.266   5.341   7.960
 3159TIP3    H131036   6.260   5.369   7.869
 3159TIP3    H231037   6.192   5.281   7.972
 3160TIP3   OH231038   0.526   5.810   1.094
 3160TIP3    H131039   0.467   5.818   1.019
 3160TIP3    H231040   0.468   5.806   1.170
 3161TIP3   OH231041   3.542   1.125   6.354
 3161TIP3    H131042   3.551   1.037   6.391
 3161TIP3    H231043   3.609   1.176   6.399
 3162TIP3   OH231044   2.187   0.629   0.279
 3162TIP3    H131045   2.117   0.599   0.221
 3162TIP3    H231046   2.251   0.559   0.279
 3163TIP3   OH231047   1.808   5.320   7.520
 3163TIP3    H131048   1.833   5.408   7.548
 3163TIP3    H231049   1.818   5.266   7.599
 3164TIP3   OH231050   2.003   1.865   0.754
 3164TIP3    H131051   2.076   1.862   0.692
 3164TIP3    H231052   2.026   1.937   0.814
 3165TIP3   OH231053   1.260   2.501   0.516
 3165TIP3    H131054   1.347   2.541   0.517
 3165TIP3    H231055   1.273   2.414   0.552
 3166TIP3   OH231056   2.436   2.818   6.992
 3166TIP3    H131057   2.481   2.864   6.921
 3166TIP3    H231058   2.504   2.769   7.036
 3167TIP3   OH231059   0.579   5.438   1.443
 3167TIP3    H131060   0.626   5.361   1.412
 3167TIP3    H231061   0.560   5.488   1.363
 3168TIP3   OH231062   6.072   4.001   0.733
 3168TIP3    H131063   6.111   4.086   0.713
 3168TIP3    H231064   6.116   3.939   0.674
 3169TIP3   OH231065   0.375   4.186   7.808
 3169TIP3    H131066   0.349   4.137   7.730
 3169TIP3    H231067   0.466   4.211   7.791
 3170TIP3   OH231068   2.439   4.231   1.896
 3170TIP3    H131069   2.432   4.288   1.973
 3170TIP3    H231070   2.362   4.175   1.900
 3171TIP3   OH231071   1.596   1.889   8.020
 3171TIP3    H131072   1.543   1.961   7.988
 3171TIP3    H231073   1.547   1.854   8.095
 3172TIP3   OH231074   1.184   4.087   0.279
 3172TIP3    H131075   1.256   4.074   0.217
 3172TIP3    H231076   1.225   4.077   0.365
 3173TIP3   OH231077   5.154   4.132   6.818
 3173TIP3    H131078   5.225   4.185   6.780
 3173TIP3    H231079   5.199   4.062   6.865
 3174TIP3   OH231080   1.989   3.345   0.895
 3174TIP3    H131081   2.029   3.278   0.950
 3174TIP3    H231082   1.990   3.308   0.807
 3175TIP3   OH231083   1.950   5.250   0.145
 3175TIP3    H131084   1.925   5.290   0.062
 3175TIP3    H231085   1.980   5.162   0.121
 3176TIP3   OH231086   4.084   2.682   7.840
 3176TIP3    H131087   4.090   2.777   7.850
 3176TIP3    H231088   4.108   2.648   7.926
 3177TIP3   OH231089   1.130   4.116   6.106
 3177TIP3    H131090   1.074   4.150   6.035
 3177TIP3    H231091   1.069   4.070   6.164
 3178TIP3   OH231092   0.152   5.565   0.284
 3178TIP3    H131093   0.246   5.575   0.269
 3178TIP3    H231094   0.134   5.473   0.263
 3179TIP3   OH231095   3.573   2.433   8.619
 3179TIP3    H131096   3.481   2.434   8.592
 3179TIP3    H231097   3.572   2.389   0.084
 3180TIP3   OH231098   4.675   1.397   8.104
 3180TIP3    H131099   4.627   1.315   8.094
 3180TIP3    H231100   4.615   1.454   8.152
 3181TIP3   OH231101   0.793   5.938   0.489
 3181TIP3    H131102   0.748   5.894   0.417
 3181TIP3    H231103   0.833   5.867   0.539
 3182TIP3   OH231104   6.281   5.117   7.191
 3182TIP3    H131105   6.309   5.161   7.111
 3182TIP3    H231106   6.361   5.083   7.230
 3183TIP3   OH231107   4.024   1.820   1.638
 3183TIP3    H131108   4.098   1.806   1.579
 3183TIP3    H231109   4.042   1.904   1.680
 3184TIP3   OH231110   3.917   0.995   7.005
 3184TIP3    H131111   3.966   1.071   7.037
 3184TIP3    H231112   3.976   0.921   7.020
 3185TIP3   OH231113   3.747   3.807   7.543
 3185TIP3    H131114   3.796   3.766   7.472
 3185TIP3    H231115   3.813   3.857   7.592
 3186TIP3   OH231116   4.211   4.144   7.024
 3186TIP3    H131117   4.202   4.218   6.964
 3186TIP3    H231118   4.121   4.114   7.039
 3187TIP3   OH231119   4.178   1.277   7.375
 3187TIP3    H131120   4.170   1.194   7.421
 3187TIP3    H231121   4.093   1.289   7.332
 3188TIP3   OH231122   2.691   0.792   0.542
 3188TIP3    H131123   2.700   0.870   0.487
 3188TIP3    H231124   2.651   0.727   0.484
 3189TIP3   OH231125   3.083   5.543   1.502
 3189TIP3    H131126   3.025   5.596   1.446
 3189TIP3    H231127   3.144   5.502   1.441
 3190TIP3   OH231128   5.943   0.237   7.038
 3190TIP3    H131129   6.026   0.211   7.079
 3190TIP3    H231130   5.898   0.288   7.105
 3191TIP3   OH231131   4.009   1.580   0.443
 3191TIP3    H131132   4.058   1.500   0.460
 3191TIP3    H231133   4.059   1.649   0.487
 3192TIP3   OH231134   0.800   6.279   0.176
 3192TIP3    H131135   0.803   6.305   0.084
 3192TIP3    H231136   0.848   6.195   0.178
 3193TIP3   OH231137   2.287   4.371   8.215
 3193TIP3    H131138   2.350   4.438   8.242
 3193TIP3    H231139   2.324   4.289   8.247
 3194TIP3   OH231140   0.206   5.151   1.514
 3194TIP3    H131141   0.114   5.127   1.528
 3194TIP3    H231142   0.207   5.195   1.429
 3195TIP3   OH231143   3.258   0.934   1.124
 3195TIP3    H131144   3.182   0.978   1.162
 3195TIP3    H231145   3.229   0.844   1.110
 3196TIP3   OH231146   5.630   4.804   8.534
 3196TIP3    H131147   5.693   4.867   8.570
 3196TIP3    H231148   5.545   4.839   8.558
 3197TIP3   OH231149   5.629   2.357   0.808
 3197TIP3    H131150   5.647   2.327   0.719
 3197TIP3    H231151   5.654   2.284   0.864
 3198TIP3   OH231152   1.127   1.483   8.618
 3198TIP3    H131153   1.034   1.476   8.598
 3198TIP3    H231154   1.169   1.420   8.558
 3199TIP3   OH231155   5.837   0.355   7.274
 3199TIP3    H131156   5.773   0.305   7.325
 3199TIP3    H231157   5.874   0.417   7.337
 3200TIP3   OH231158   0.790   4.599   1.285
 3200TIP3    H131159   0.824   4.537   1.350
 3200TIP3    H231160   0.715   4.553   1.246
 3201TIP3   OH231161   6.190   1.544   8.110
 3201TIP3    H131162   6.218   1.495   8.187
 3201TIP3    H231163   6.269   1.554   8.058
 3202TIP3   OH231164   2.827   6.209   1.788
 3202TIP3    H131165   2.826   6.133   1.847
 3202TIP3    H231166   2.746   6.200   1.737
 3203TIP3   OH231167   3.882   5.490   6.576
 3203TIP3    H131168   3.965   5.443   6.588
 3203TIP3    H231169   3.840   5.444   6.502
 3204TIP3   OH231170   1.140   5.920   6.339
 3204TIP3    H131171   1.197   5.853   6.303
 3204TIP3    H231172   1.073   5.933   6.272
 3205TIP3   OH231173   4.053   4.612   0.400
 3205TIP3    H131174   4.115   4.577   0.463
 3205TIP3    H231175   4.017   4.536   0.355
 3206TIP3   OH231176   2.702   3.031   1.046
 3206TIP3    H131177   2.706   3.046   1.141
 3206TIP3    H231178   2.629   2.971   1.035
 3207TIP3   OH231179   0.920   6.068   7.144
 3207TIP3    H131180   0.907   5.995   7.084
 3207TIP3    H231181   0.831   6.092   7.172
 3208TIP3   OH231182   6.884   0.403   8.452
 3208TIP3    H131183   0.069   0.366   8.477
 3208TIP3    H231184   6.822   0.361   8.511
 3209TIP3   OH231185   4.849   1.928   1.787
 3209TIP3    H131186   4.896   1.993   1.839
 3209TIP3    H231187   4.909   1.854   1.781
 3210TIP3   OH231188   0.714   0.430   6.948
 3210TIP3    H131189   0.767   0.502   6.912
 3210TIP3    H231190   0.777   0.361   6.968
 3211TIP3   OH231191   1.930   6.691   0.295
 3211TIP3    H131192   1.852   6.740   0.323
 3211TIP3    H231193   1.972   6.747   0.230
 3212TIP3   OH231194   3.356   3.097   6.776
 3212TIP3    H131195   3.418   3.112   6.847
 3212TIP3    H231196   3.411   3.081   6.699
 3213TIP3   OH231197   5.931   2.981   1.928
 3213TIP3    H131198   6.020   2.945   1.931
 3213TIP3    H231199   5.939   3.066   1.971
 3214TIP3   OH231200   0.473   4.289   8.611
 3214TIP3    H131201   0.436   4.364   8.564
 3214TIP3    H231202   0.536   4.252   8.549
 3215TIP3   OH231203   5.899   5.180   2.099
 3215TIP3    H131204   5.830   5.185   2.032
 3215TIP3    H231205   5.899   5.088   2.126
 3216TIP3   OH231206   5.667   1.409   0.822
 3216TIP3    H131207   5.653   1.327   0.869
 3216TIP3    H231208   5.582   1.452   0.824
 3217TIP3   OH231209   4.332   6.710   0.407
 3217TIP3    H131210   4.378   6.635   0.371
 3217TIP3    H231211   4.339   6.699   0.502
 3218TIP3   OH231212   3.995   0.056   7.749
 3218TIP3    H131213   4.076   0.045   7.800
 3218TIP3    H231214   3.926   0.025   7.807
 3219TIP3   OH231215   3.232   5.057   0.797
 3219TIP3    H131216   3.219   4.981   0.855
 3219TIP3    H231217   3.151   5.107   0.805
 3220TIP3   OH231218   4.641   4.914   7.150
 3220TIP3    H131219   4.624   5.000   7.113
 3220TIP3    H231220   4.633   4.854   7.076
 3221TIP3   OH231221   1.513   4.138   0.189
 3221TIP3    H131222   1.547   4.050   0.201
 3221TIP3    H231223   1.583   4.196   0.219
 3222TIP3   OH231224   2.545   0.450   7.397
 3222TIP3    H131225   2.616   0.436   7.458
 3222TIP3    H231226   2.587   0.448   7.310
 3223TIP3   OH231227   5.222   1.350   0.622
 3223TIP3    H131228   5.154   1.417   0.632
 3223TIP3    H231229   5.215   1.321   0.531
 3224TIP3   OH231230   3.015   4.882   0.390
 3224TIP3    H131231   2.970   4.894   0.474
 3224TIP3    H231232   3.099   4.927   0.401
 3225TIP3   OH231233   1.087   6.044   8.152
 3225TIP3    H131234   1.015   5.981   8.148
 3225TIP3    H231235   1.166   5.990   8.162
 3226TIP3   OH231236   1.716   2.051   0.436
 3226TIP3    H131237   1.729   1.986   0.505
 3226TIP3    H231238   1.778   2.026   0.367
 3227TIP3   OH231239   0.983   2.522   8.451
 3227TIP3    H131240   1.015   2.466   8.522
 3227TIP3    H231241   0.994   2.611   8.485
 3228TIP3   OH231242   3.153   5.854   0.039
 3228TIP3    H131243   3.225   5.792   0.026
 3228TIP3    H231244   3.126   5.879   8.570
 3229TIP3   OH231245   2.761   4.405   6.932
 3229TIP3    H131246   2.848   4.420   6.894
 3229TIP3    H231247   2.700   4.438   6.867
 3230TIP3   OH231248   4.496   4.711   1.062
 3230TIP3    H131249   4.446   4.770   1.004
 3230TIP3    H231250   4.459   4.624   1.044
 3231TIP3   OH231251   0.903   6.063   6.265
 3231TIP3    H131252   0.940   6.090   6.181
 3231TIP3    H231253   0.928   6.132   6.326
 3232TIP3   OH231254   6.525   1.990   6.881
 3232TIP3    H131255   6.433   2.015   6.870
 3232TIP3    H231256   6.568   2.070   6.911
 3233TIP3   OH231257   6.193   3.877   6.558
 3233TIP3    H131258   6.112   3.890   6.508
 3233TIP3    H231259   6.184   3.789   6.594
 3234TIP3   OH231260   2.884   2.887   7.507
 3234TIP3    H131261   2.854   2.893   7.598
 3234TIP3    H231262   2.941   2.810   7.505
 3235TIP3   OH231263   6.100   4.735   1.918
 3235TIP3    H131264   6.189   4.721   1.886
 3235TIP3    H231265   6.100   4.699   2.007
 3236TIP3   OH231266   6.628   1.920   1.750
 3236TIP3    H131267   6.580   1.853   1.702
 3236TIP3    H231268   6.596   2.003   1.714
 3237TIP3   OH231269   3.687   1.991   2.218
 3237TIP3    H131270   3.752   2.048   2.176
 3237TIP3    H231271   3.697   1.907   2.173
 3238TIP3   OH231272   6.646   4.918   8.304
 3238TIP3    H131273   6.595   4.927   8.224
 3238TIP3    H231274   6.727   4.875   8.275
 3239TIP3   OH231275   0.623   4.360   7.293
 3239TIP3    H131276   0.671   4.316   7.362
 3239TIP3    H231277   0.590   4.440   7.334
 3240TIP3   OH231278   5.580   0.861   7.960
 3240TIP3    H131279   5.543   0.773   7.965
 3240TIP3    H231280   5.508   0.918   7.987
 3241TIP3   OH231281   1.124   4.608   7.043
 3241TIP3    H131282   1.187   4.670   7.081
 3241TIP3    H231283   1.068   4.661   6.987
 3242TIP3   OH231284   1.540   3.093   6.812
 3242TIP3    H131285   1.463   3.092   6.755
 3242TIP3    H231286   1.549   3.003   6.842
 3243TIP3   OH231287   5.964   1.559   6.698
 3243TIP3    H131288   5.903   1.549   6.625
 3243TIP3    H231289   6.051   1.564   6.657
 3244TIP3   OH231290   2.920   4.939   0.660
 3244TIP3    H131291   2.971   5.017   0.680
 3244TIP3    H231292   2.833   4.957   0.697
 3245TIP3   OH231293   4.028   3.152   0.808
 3245TIP3    H131294   3.965   3.114   0.869
 3245TIP3    H231295   4.113   3.130   0.844
 3246TIP3   OH231296   2.504   4.291   0.484
 3246TIP3    H131297   2.449   4.271   0.560
 3246TIP3    H231298   2.470   4.374   0.452
 3247TIP3   OH231299   5.966   6.093   8.348
 3247TIP3    H131300   6.048   6.094   8.298
 3247TIP3    H231301   5.989   6.133   8.432
 3248TIP3   OH231302   3.886   1.484   8.003
 3248TIP3    H131303   3.861   1.550   8.068
 3248TIP3    H231304   3.936   1.419   8.052
 3249TIP3   OH231305   3.615   2.071   1.698
 3249TIP3    H131306   3.522   2.081   1.718
 3249TIP3    H231307   3.660   2.121   1.766
 3250TIP3   OH231308   4.418   0.701   2.555
 3250TIP3    H131309   4.471   0.622   2.545
 3250TIP3    H231310   4.342   0.673   2.606
 3251TIP3   OH231311   1.032   1.889   8.415
 3251TIP3    H131312   1.065   1.923   8.332
 3251TIP3    H231313   0.971   1.820   8.390
 3252TIP3   OH231314   1.164   6.581   6.248
 3252TIP3    H131315   1.094   6.645   6.238
 3252TIP3    H231316   1.121   6.496   6.234
 3253TIP3   OH231317   1.016   0.768   5.947
 3253TIP3    H131318   1.007   0.681   5.906
 3253TIP3    H231319   0.948   0.770   6.014
 3254TIP3   OH231320   2.302   1.312   0.822
 3254TIP3    H131321   2.299   1.397   0.865
 3254TIP3    H231322   2.389   1.277   0.844
 3255TIP3   OH231323   6.224   0.092   8.495
 3255TIP3    H131324   6.214   0.029   8.567
 3255TIP3    H231325   6.136   0.123   8.478
 3256TIP3   OH231326   1.009   2.950   7.656
 3256TIP3    H131327   1.077   2.888   7.682
 3256TIP3    H231328   0.931   2.896   7.645
 3257TIP3   OH231329   6.665   0.332   0.494
 3257TIP3    H131330   6.656   0.384   0.574
 3257TIP3    H231331   6.714   0.389   0.434
 3258TIP3   OH231332   6.876   2.969   8.370
 3258TIP3    H131333   6.824   2.980   8.450
 3258TIP3    H231334   6.886   3.058   8.336
 3259TIP3   OH231335   2.671   5.410   2.493
 3259TIP3    H131336   2.576   5.424   2.499
 3259TIP3    H231337   2.709   5.480   2.545
 3260TIP3   OH231338   1.261   2.768   0.395
 3260TIP3    H131339   1.230   2.694   0.447
 3260TIP3    H231340   1.270   2.840   0.458
 3261TIP3   OH231341   0.152   3.101   0.889
 3261TIP3    H131342   0.069   3.148   0.896
 3261TIP3    H231343   0.126   3.009   0.879
 3262TIP3   OH231344   2.227   1.679   6.958
 3262TIP3    H131345   2.147   1.730   6.954
 3262TIP3    H231346   2.234   1.638   6.872
 3263TIP3   OH231347   1.176   3.512   0.450
 3263TIP3    H131348   1.151   3.451   0.380
 3263TIP3    H231349   1.096   3.560   0.471
 3264TIP3   OH231350   5.978   3.348   1.438
 3264TIP3    H131351   5.972   3.257   1.409
 3264TIP3    H231352   5.889   3.372   1.461
 3265TIP3   OH231353   3.809   2.671   0.952
 3265TIP3    H131354   3.733   2.718   0.919
 3265TIP3    H231355   3.883   2.706   0.902
 3266TIP3   OH231356   1.469   5.601   0.997
 3266TIP3    H131357   1.465   5.530   1.061
 3266TIP3    H231358   1.429   5.564   0.918
 3267TIP3   OH231359   1.697   2.159   1.153
 3267TIP3    H131360   1.663   2.239   1.191
 3267TIP3    H231361   1.674   2.090   1.215
 3268TIP3   OH231362   1.279   5.176   7.377
 3268TIP3    H131363   1.185   5.174   7.358
 3268TIP3    H231364   1.285   5.219   7.462
 3269TIP3   OH231365   0.458   2.811   7.935
 3269TIP3    H131366   0.553   2.821   7.934
 3269TIP3    H231367   0.424   2.899   7.950
 3270TIP3   OH231368   2.998   2.107   8.154
 3270TIP3    H131369   2.975   2.025   8.197
 3270TIP3    H231370   2.922   2.127   8.100
 3271TIP3   OH231371   1.141   6.757   0.546
 3271TIP3    H131372   1.167   6.835   0.498
 3271TIP3    H231373   1.078   6.788   0.611
 3272TIP3   OH231374   4.101   0.416   0.285
 3272TIP3    H131375   4.133   0.506   0.285
 3272TIP3    H231376   4.009   0.422   0.259
 3273TIP3   OH231377   1.062   2.161   1.857
 3273TIP3    H131378   0.996   2.128   1.795
 3273TIP3    H231379   1.032   2.249   1.879
 3274TIP3   OH231380   1.108   3.176   1.295
 3274TIP3    H131381   1.132   3.114   1.227
 3274TIP3    H231382   1.108   3.125   1.376
 3275TIP3   OH231383   1.699   6.785   8.060
 3275TIP3    H131384   1.609   6.814   8.053
 3275TIP3    H231385   1.747   6.839   7.998
 3276TIP3   OH231386   4.139   2.944   7.936
 3276TIP3    H131387   4.165   3.033   7.913
 3276TIP3    H231388   4.118   2.947   8.029
 3277TIP3   OH231389   5.777   1.776   8.514
 3277TIP3    H131390   5.746   1.703   8.460
 3277TIP3    H231391   5.747   1.755   8.602
 3278TIP3   OH231392   5.615   3.638   0.591
 3278TIP3    H131393   5.561   3.596   0.658
 3278TIP3    H231394   5.585   3.599   0.509
 3279TIP3   OH231395   2.573   5.572   0.029
 3279TIP3    H131396   2.511   5.581   0.101
 3279TIP3    H231397   2.610   5.485   0.040
 3280TIP3   OH231398   5.006   5.864   1.028
 3280TIP3    H131399   4.951   5.787   1.044
 3280TIP3    H231400   4.967   5.932   1.083
 3281TIP3   OH231401   2.041   0.060   6.830
 3281TIP3    H131402   2.127   0.076   6.791
 3281TIP3    H231403   1.987   0.029   6.758
 3282TIP3   OH231404   3.563   4.755   1.867
 3282TIP3    H131405   3.554   4.661   1.876
 3282TIP3    H231406   3.482   4.783   1.823
 3283TIP3   OH231407   6.758   3.028   1.734
 3283TIP3    H131408   6.849   3.054   1.747
 3283TIP3    H231409   6.738   2.971   1.808
 3284TIP3   OH231410   4.165   4.338   0.344
 3284TIP3    H131411   4.219   4.343   0.423
 3284TIP3    H231412   4.168   4.245   0.320
 3285TIP3   OH231413   4.935   6.597   1.200
 3285TIP3    H131414   4.973   6.546   1.272
 3285TIP3    H231415   4.989   6.676   1.196
 3286TIP3   OH231416   6.240   1.295   2.478
 3286TIP3    H131417   6.314   1.256   2.433
 3286TIP3    H231418   6.164   1.274   2.423
 3287TIP3   OH231419   1.042   0.397   0.482
 3287TIP3    H131420   0.971   0.461   0.473
 3287TIP3    H231421   1.110   0.429   0.423
 3288TIP3   OH231422   5.833   2.909   7.633
 3288TIP3    H131423   5.914   2.933   7.679
 3288TIP3    H231424   5.772   2.979   7.656
 3289TIP3   OH231425   1.324   6.500   8.029
 3289TIP3    H131426   1.362   6.540   8.108
 3289TIP3    H231427   1.344   6.407   8.038
 3290TIP3   OH231428   3.574   0.586   7.710
 3290TIP3    H131429   3.491   0.586   7.758
 3290TIP3    H231430   3.589   0.678   7.689
 3291TIP3   OH231431   3.218   1.203   8.476
 3291TIP3    H131432   3.259   1.130   8.521
 3291TIP3    H231433   3.289   1.265   8.461
 3292TIP3   OH231434   1.007   1.297   7.521
 3292TIP3    H131435   1.082   1.246   7.491
 3292TIP3    H231436   0.944   1.231   7.550
 3293TIP3   OH231437   3.521   4.957   6.722
 3293TIP3    H131438   3.541   4.894   6.653
 3293TIP3    H231439   3.442   4.922   6.764
 3294TIP3   OH231440   1.862   0.330   7.112
 3294TIP3    H131441   1.885   0.399   7.050
 3294TIP3    H231442   1.776   0.299   7.083
 3295TIP3   OH231443   4.504   1.901   1.075
 3295TIP3    H131444   4.420   1.864   1.048
 3295TIP3    H231445   4.524   1.857   1.158
 3296TIP3   OH231446   4.430   0.391   2.483
 3296TIP3    H131447   4.375   0.424   2.412
 3296TIP3    H231448   4.503   0.347   2.438
 3297TIP3   OH231449   6.537   4.067   0.568
 3297TIP3    H131450   6.540   4.043   0.660
 3297TIP3    H231451   6.534   4.163   0.568
 3298TIP3   OH231452   5.100   6.181   8.307
 3298TIP3    H131453   5.049   6.149   8.381
 3298TIP3    H231454   5.171   6.118   8.298
 3299TIP3   OH231455   0.582   1.268   1.852
 3299TIP3    H131456   0.622   1.355   1.854
 3299TIP3    H231457   0.651   1.210   1.883
 3300TIP3   OH231458   1.232   1.295   0.711
 3300TIP3    H131459   1.169   1.256   0.771
 3300TIP3    H231460   1.181   1.357   0.659
 3301TIP3   OH231461   0.679   1.901   7.885
 3301TIP3    H131462   0.771   1.916   7.862
 3301TIP3    H231463   0.676   1.912   7.980
 3302TIP3   OH231464   2.945   2.898   2.266
 3302TIP3    H131465   2.886   2.835   2.307
 3302TIP3    H231466   2.916   2.902   2.175
 3303TIP3   OH231467   1.734   3.038   7.396
 3303TIP3    H131468   1.673   2.966   7.379
 3303TIP3    H231469   1.724   3.095   7.320
 3304TIP3   OH231470   1.127   6.314   6.172
 3304TIP3    H131471   1.200   6.274   6.126
 3304TIP3    H231472   1.068   6.344   6.103
 3305TIP3   OH231473   5.144   4.361   0.819
 3305TIP3    H131474   5.221   4.316   0.783
 3305TIP3    H231475   5.180   4.422   0.883
 3306TIP3   OH231476   6.208   4.854   7.068
 3306TIP3    H131477   6.229   4.919   7.135
 3306TIP3    H231478   6.197   4.905   6.988
 3307TIP3   OH231479   3.598   4.500   6.233
 3307TIP3    H131480   3.521   4.449   6.205
 3307TIP3    H231481   3.671   4.460   6.185
 3308TIP3   OH231482   5.375   4.526   8.564
 3308TIP3    H131483   5.354   4.456   8.501
 3308TIP3    H231484   5.350   4.490   0.029
 3309TIP3   OH231485   5.846   6.037   7.598
 3309TIP3    H131486   5.926   6.062   7.552
 3309TIP3    H231487   5.786   6.110   7.584
 3310TIP3   OH231488   3.696   5.626   0.491
 3310TIP3    H131489   3.759   5.555   0.473
 3310TIP3    H231490   3.623   5.583   0.535
 3311TIP3   OH231491   2.241   6.309   8.075
 3311TIP3    H131492   2.161   6.277   8.033
 3311TIP3    H231493   2.251   6.399   8.044
 3312TIP3   OH231494   1.616   1.547   8.525
 3312TIP3    H131495   1.622   1.535   8.619
 3312TIP3    H231496   1.624   1.459   8.488
 3313TIP3   OH231497   0.479   1.744   6.814
 3313TIP3    H131498   0.447   1.832   6.797
 3313TIP3    H231499   0.549   1.732   6.750
 3314TIP3   OH231500   1.255   2.374   0.014
 3314TIP3    H131501   1.311   2.383   8.556
 3314TIP3    H231502   1.231   2.463   0.038
 3315TIP3   OH231503   0.563   5.959   0.733
 3315TIP3    H131504   0.489   6.007   0.770
 3315TIP3    H231505   0.625   5.950   0.806
 3316TIP3   OH231506   4.247   2.230   2.757
 3316TIP3    H131507   4.232   2.185   2.840
 3316TIP3    H231508   4.160   2.250   2.723
 3317TIP3   OH231509   6.736   1.706   1.240
 3317TIP3    H131510   6.670   1.770   1.214
 3317TIP3    H231511   6.744   1.717   1.335
 3318TIP3   OH231512   2.545   4.208   8.014
 3318TIP3    H131513   2.546   4.134   7.953
 3318TIP3    H231514   2.632   4.246   8.007
 3319TIP3   OH231515   6.460   3.424   0.789
 3319TIP3    H131516   6.435   3.332   0.797
 3319TIP3    H231517   6.376   3.471   0.783
 3320TIP3   OH231518   1.838   3.903   8.462
 3320TIP3    H131519   1.798   3.892   8.376
 3320TIP3    H231520   1.818   3.993   8.487
 3321TIP3   OH231521   5.013   6.640   1.922
 3321TIP3    H131522   5.046   6.728   1.902
 3321TIP3    H231523   4.920   6.644   1.901
 3322TIP3   OH231524   1.474   6.728   7.887
 3322TIP3    H131525   1.395   6.752   7.935
 3322TIP3    H231526   1.468   6.633   7.877
 3323TIP3   OH231527   1.770   2.175   7.978
 3323TIP3    H131528   1.785   2.113   7.907
 3323TIP3    H231529   1.835   2.152   8.045
 3324TIP3   OH231530   1.352   3.775   7.929
 3324TIP3    H131531   1.271   3.814   7.963
 3324TIP3    H231532   1.415   3.847   7.929
 3325TIP3   OH231533   1.711   3.296   1.092
 3325TIP3    H131534   1.617   3.308   1.086
 3325TIP3    H231535   1.732   3.229   1.027
 3326TIP3   OH231536   1.961   1.770   1.764
 3326TIP3    H131537   1.977   1.684   1.804
 3326TIP3    H231538   1.936   1.749   1.674
 3327TIP3   OH231539   1.114   1.228   0.266
 3327TIP3    H131540   1.023   1.216   0.238
 3327TIP3    H231541   1.108   1.288   0.341
 3328TIP3   OH231542   0.406   1.138   0.476
 3328TIP3    H131543   0.432   1.075   0.543
 3328TIP3    H231544   0.313   1.122   0.463
 3329TIP3   OH231545   1.458   0.907   8.137
 3329TIP3    H131546   1.367   0.880   8.148
 3329TIP3    H231547   1.507   0.851   8.197
 3330TIP3   OH231548   2.492   5.297   1.107
 3330TIP3    H131549   2.404   5.261   1.109
 3330TIP3    H231550   2.527   5.280   1.195
 3331TIP3   OH231551   0.859   1.222   0.158
 3331TIP3    H131552   0.829   1.285   0.223
 3331TIP3    H231553   0.778   1.189   0.118
 3332TIP3   OH231554   1.932   3.202   6.958
 3332TIP3    H131555   1.862   3.140   6.934
 3332TIP3    H231556   1.886   3.280   6.988
 3333TIP3   OH231557   0.691   6.288   8.140
 3333TIP3    H131558   0.616   6.307   8.196
 3333TIP3    H231559   0.689   6.193   8.129
 3334TIP3   OH231560   3.830   1.533   8.432
 3334TIP3    H131561   3.834   1.628   8.420
 3334TIP3    H231562   3.793   1.521   8.519
 3335TIP3   OH231563   0.169   4.200   0.407
 3335TIP3    H131564   0.231   4.226   0.338
 3335TIP3    H231565   0.204   4.118   0.441
 3336TIP3   OH231566   5.417   4.657   0.901
 3336TIP3    H131567   5.469   4.578   0.886
 3336TIP3    H231568   5.340   4.646   0.846
 3337TIP3   OH231569   0.179   3.965   0.550
 3337TIP3    H131570   0.222   3.879   0.546
 3337TIP3    H231571   0.104   3.951   0.609
 3338TIP3   OH231572   0.609   2.997   2.302
 3338TIP3    H131573   0.596   3.065   2.368
 3338TIP3    H231574   0.698   3.010   2.270
 3339TIP3   OH231575   3.645   1.447   8.233
 3339TIP3    H131576   3.618   1.539   8.234
 3339TIP3    H231577   3.736   1.449   8.261
 3340TIP3   OH231578   3.904   6.103   0.280
 3340TIP3    H131579   3.909   6.175   0.343
 3340TIP3    H231580   3.862   6.032   0.328
 3341TIP3   OH231581   3.563   0.356   6.343
 3341TIP3    H131582   3.600   0.434   6.301
 3341TIP3    H231583   3.475   0.349   6.305
 3342TIP3   OH231584   3.616   0.690   8.370
 3342TIP3    H131585   3.604   0.728   8.457
 3342TIP3    H231586   3.536   0.710   8.323
 3343TIP3   OH231587   2.615   0.078   1.709
 3343TIP3    H131588   2.709   0.078   1.692
 3343TIP3    H231589   2.583   0.000   1.663
 3344TIP3   OH231590   4.331   0.432   1.198
 3344TIP3    H131591   4.332   0.359   1.137
 3344TIP3    H231592   4.242   0.434   1.233
 3345TIP3   OH231593   5.108   2.153   7.313
 3345TIP3    H131594   5.128   2.075   7.363
 3345TIP3    H231595   5.168   2.151   7.239
 3346TIP3   OH231596   3.427   4.861   8.114
 3346TIP3    H131597   3.418   4.944   8.068
 3346TIP3    H231598   3.447   4.885   8.205
 3347TIP3   OH231599   2.905   3.745   1.612
 3347TIP3    H131600   2.850   3.821   1.630
 3347TIP3    H231601   2.851   3.689   1.556
 3348TIP3   OH231602   1.121   5.444   1.030
 3348TIP3    H131603   1.141   5.457   0.938
 3348TIP3    H231604   1.050   5.380   1.031
 3349TIP3   OH231605   3.474   6.478   0.081
 3349TIP3    H131606   3.412   6.530   0.030
 3349TIP3    H231607   3.450   6.387   0.062
 3350TIP3   OH231608   3.784   6.165   7.983
 3350TIP3    H131609   3.721   6.137   7.917
 3350TIP3    H231610   3.868   6.132   7.951
 3351TIP3   OH231611   6.269   2.376   0.134
 3351TIP3    H131612   6.256   2.303   0.074
 3351TIP3    H231613   6.359   2.405   0.118
 3352TIP3   OH231614   1.881   4.139   0.834
 3352TIP3    H131615   1.909   4.123   0.744
 3352TIP3    H231616   1.896   4.232   0.849
 3353TIP3   OH231617   5.254   0.765   0.369
 3353TIP3    H131618   5.303   0.683   0.361
 3353TIP3    H231619   5.220   0.764   0.458
 3354TIP3   OH231620   6.186   2.190   6.592
 3354TIP3    H131621   6.126   2.256   6.559
 3354TIP3    H231622   6.178   2.117   6.530
 3355TIP3   OH231623   3.141   0.923   6.846
 3355TIP3    H131624   3.140   0.870   6.766
 3355TIP3    H231625   3.234   0.935   6.866
 3356TIP3   OH231626   3.632   2.107   8.263
 3356TIP3    H131627   3.649   2.198   8.241
 3356TIP3    H231628   3.674   2.057   8.193
 3357TIP3   OH231629   1.161   6.071   8.563
 3357TIP3    H131630   1.146   6.151   8.514
 3357TIP3    H231631   1.176   6.101   0.034
 3358TIP3   OH231632   5.306   4.153   1.497
 3358TIP3    H131633   5.378   4.178   1.439
 3358TIP3    H231634   5.349   4.110   1.571
 3359TIP3   OH231635   6.395   1.835   1.609
 3359TIP3    H131636   6.336   1.903   1.576
 3359TIP3    H231637   6.356   1.808   1.692
 3360TIP3   OH231638   3.841   5.888   2.224
 3360TIP3    H131639   3.760   5.938   2.218
 3360TIP3    H231640   3.889   5.910   2.144
 3361TIP3   OH231641   5.549   0.842   1.398
 3361TIP3    H131642   5.609   0.894   1.452
 3361TIP3    H231643   5.560   0.753   1.431
 3362TIP3   OH231644   6.781   4.292   6.805
 3362TIP3    H131645   6.825   4.365   6.847
 3362TIP3    H231646   6.692   4.323   6.789
 3363TIP3   OH231647   5.612   3.261   8.349
 3363TIP3    H131648   5.605   3.354   8.328
 3363TIP3    H231649   5.525   3.237   8.380
 3364TIP3   OH231650   2.987   3.778   0.561
 3364TIP3    H131651   3.004   3.808   0.651
 3364TIP3    H231652   3.049   3.828   0.508
 3365TIP3   OH231653   5.378   0.099   7.258
 3365TIP3    H131654   5.341   0.054   7.334
 3365TIP3    H231655   5.344   0.052   7.182
 3366TIP3   OH231656   1.642   2.715   7.246
 3366TIP3    H131657   1.717   2.759   7.206
 3366TIP3    H231658   1.596   2.674   7.172
 3367TIP3   OH231659   0.173   2.466   6.847
 3367TIP3    H131660   0.204   2.389   6.894
 3367TIP3    H231661   0.251   2.504   6.807
 3368TIP3   OH231662   2.468   5.817   2.313
 3368TIP3    H131663   2.437   5.728   2.296
 3368TIP3    H231664   2.405   5.873   2.266
 3369TIP3   OH231665   0.345   6.365   8.480
 3369TIP3    H131666   0.250   6.362   8.484
 3369TIP3    H231667   0.370   6.431   8.545
 3370TIP3   OH231668   0.310   3.369   0.071
 3370TIP3    H131669   0.337   3.417   8.612
 3370TIP3    H231670   0.387   3.318   0.096
 3371TIP3   OH231671   4.745   4.527   0.371
 3371TIP3    H131672   4.815   4.473   0.333
 3371TIP3    H231673   4.667   4.472   0.369
 3372TIP3   OH231674   6.189   6.897   6.822
 3372TIP3    H131675   6.271   0.035   6.793
 3372TIP3    H231676   6.159   0.054   6.893
 3373TIP3   OH231677   3.100   2.368   0.619
 3373TIP3    H131678   3.043   2.327   0.683
 3373TIP3    H231679   3.137   2.444   0.664
 3374TIP3   OH231680   3.994   0.840   1.791
 3374TIP3    H131681   4.051   0.903   1.748
 3374TIP3    H231682   3.914   0.889   1.811
 3375TIP3   OH231683   5.350   0.725   6.681
 3375TIP3    H131684   5.421   0.662   6.696
 3375TIP3    H231685   5.360   0.791   6.749
 3376TIP3   OH231686   3.173   3.915   0.420
 3376TIP3    H131687   3.140   3.939   0.334
 3376TIP3    H231688   3.232   3.987   0.444
 3377TIP3   OH231689   6.668   0.172   2.072
 3377TIP3    H131690   6.585   0.127   2.092
 3377TIP3    H231691   6.653   0.263   2.097
 3378TIP3   OH231692   6.755   0.581   0.986
 3378TIP3    H131693   6.806   0.621   1.056
 3378TIP3    H231694   6.665   0.605   1.006
 3379TIP3   OH231695   5.177   2.424   1.822
 3379TIP3    H131696   5.203   2.449   1.910
 3379TIP3    H231697   5.154   2.507   1.779
 3380TIP3   OH231698   5.697   0.553   6.188
 3380TIP3    H131699   5.783   0.513   6.181
 3380TIP3    H231700   5.712   0.646   6.168
 3381TIP3   OH231701   3.220   1.291   1.460
 3381TIP3    H131702   3.212   1.210   1.509
 3381TIP3    H231703   3.246   1.264   1.372
 3382TIP3   OH231704   5.068   3.903   7.876
 3382TIP3    H131705   5.124   3.874   7.948
 3382TIP3    H231706   5.010   3.968   7.915
 3383TIP3   OH231707   5.970   0.597   6.516
 3383TIP3    H131708   6.034   0.527   6.528
 3383TIP3    H231709   5.992   0.635   6.431
 3384TIP3   OH231710   1.639   6.639   8.455
 3384TIP3    H131711   1.682   6.718   8.422
 3384TIP3    H231712   1.699   6.605   8.521
 3385TIP3   OH231713   4.055   5.293   7.174
 3385TIP3    H131714   4.056   5.262   7.265
 3385TIP3    H231715   4.133   5.254   7.134
 3386TIP3   OH231716   6.101   1.242   0.788
 3386TIP3    H131717   6.147   1.166   0.753
 3386TIP3    H231718   6.167   1.285   0.843
 3387TIP3   OH231719   5.934   1.111   0.949
 3387TIP3    H131720   5.903   1.057   0.876
 3387TIP3    H231721   6.000   1.168   0.910
 3388TIP3   OH231722   0.208   2.171   6.250
 3388TIP3    H131723   0.180   2.083   6.226
 3388TIP3    H231724   0.159   2.229   6.191
 3389TIP3   OH231725   3.317   3.357   0.347
 3389TIP3    H131726   3.276   3.276   0.319
 3389TIP3    H231727   3.342   3.341   0.439
 3390TIP3   OH231728   6.159   3.156   1.629
 3390TIP3    H131729   6.137   3.069   1.595
 3390TIP3    H231730   6.151   3.214   1.553
 3391TIP3   OH231731   0.297   3.077   2.611
 3391TIP3    H131732   0.347   3.113   2.684
 3391TIP3    H231733   0.349   3.101   2.533
 3392TIP3   OH231734   2.449   1.403   2.184
 3392TIP3    H131735   2.538   1.433   2.204
 3392TIP3    H231736   2.452   1.378   2.091
 3393TIP3   OH231737   1.075   1.343   6.444
 3393TIP3    H131738   1.020   1.306   6.513
 3393TIP3    H231739   1.019   1.343   6.366
 3394TIP3   OH231740   3.341   5.972   0.444
 3394TIP3    H131741   3.272   6.008   0.500
 3394TIP3    H231742   3.422   5.989   0.492
 3395TIP3   OH231743   4.953   4.472   1.817
 3395TIP3    H131744   4.985   4.417   1.745
 3395TIP3    H231745   4.941   4.410   1.890
 3396TIP3   OH231746   5.317   0.925   0.690
 3396TIP3    H131747   5.252   0.897   0.755
 3396TIP3    H231748   5.272   0.993   0.640
 3397TIP3   OH231749   1.077   2.039   6.191
 3397TIP3    H131750   1.057   2.101   6.262
 3397TIP3    H231751   1.000   1.982   6.187
 3398TIP3   OH231752   4.035   1.385   8.351
 3398TIP3    H131753   3.964   1.443   8.379
 3398TIP3    H231754   4.014   1.301   8.390
 3399TIP3   OH231755   1.979   3.784   7.440
 3399TIP3    H131756   1.956   3.826   7.358
 3399TIP3    H231757   1.895   3.769   7.484
 3400TIP3   OH231758   2.383   0.864   8.001
 3400TIP3    H131759   2.322   0.938   8.008
 3400TIP3    H231760   2.335   0.797   7.953
 3401TIP3   OH231761   0.572   6.088   5.989
 3401TIP3    H131762   0.570   6.116   5.897
 3401TIP3    H231763   0.660   6.051   6.001
 3402TIP3   OH231764   2.509   5.269   7.565
 3402TIP3    H131765   2.586   5.276   7.621
 3402TIP3    H231766   2.533   5.205   7.498
 3403TIP3   OH231767   1.471   0.644   7.643
 3403TIP3    H131768   1.418   0.696   7.704
 3403TIP3    H231769   1.561   0.654   7.677
 3404TIP3   OH231770   0.276   4.365   7.981
 3404TIP3    H131771   0.296   4.295   7.919
 3404TIP3    H231772   0.296   4.446   7.933
 3405TIP3   OH231773   5.586   5.420   2.202
 3405TIP3    H131774   5.494   5.408   2.181
 3405TIP3    H231775   5.609   5.342   2.253
 3406TIP3   OH231776   4.408   3.395   1.031
 3406TIP3    H131777   4.340   3.458   1.006
 3406TIP3    H231778   4.386   3.371   1.121
 3407TIP3   OH231779   2.619   2.353   8.154
 3407TIP3    H131780   2.617   2.420   8.085
 3407TIP3    H231781   2.539   2.369   8.204
 3408TIP3   OH231782   1.090   3.766   2.308
 3408TIP3    H131783   1.177   3.756   2.347
 3408TIP3    H231784   1.085   3.698   2.242
 3409TIP3   OH231785   0.311   2.627   8.315
 3409TIP3    H131786   0.309   2.720   8.341
 3409TIP3    H231787   0.342   2.628   8.225
 3410TIP3   OH231788   2.820   4.916   8.584
 3410TIP3    H131789   2.877   4.992   8.583
 3410TIP3    H231790   2.878   4.842   8.569
 3411TIP3   OH231791   2.056   0.193   1.663
 3411TIP3    H131792   2.115   0.148   1.602
 3411TIP3    H231793   2.067   0.145   1.745
 3412TIP3   OH231794   3.000   2.074   2.471
 3412TIP3    H131795   3.054   2.026   2.409
 3412TIP3    H231796   3.056   2.084   2.549
 3413TIP3   OH231797   4.628   5.365   6.555
 3413TIP3    H131798   4.647   5.335   6.466
 3413TIP3    H231799   4.694   5.433   6.572
 3414TIP3   OH231800   5.621   3.567   1.098
 3414TIP3    H131801   5.544   3.512   1.114
 3414TIP3    H231802   5.590   3.639   1.044
 3415TIP3   OH231803   5.633   6.836   1.664
 3415TIP3    H131804   5.670   6.748   1.661
 3415TIP3    H231805   5.705   6.891   1.696
 3416TIP3   OH231806   6.435   2.504   8.372
 3416TIP3    H131807   6.398   2.518   8.285
 3416TIP3    H231808   6.501   2.436   8.360
 3417TIP3   OH231809   5.849   6.214   2.305
 3417TIP3    H131810   5.942   6.236   2.308
 3417TIP3    H231811   5.842   6.149   2.235
 3418TIP3   OH231812   3.401   4.143   7.031
 3418TIP3    H131813   3.489   4.178   7.017
 3418TIP3    H231814   3.369   4.189   7.110
 3419TIP3   OH231815   0.680   4.444   0.801
 3419TIP3    H131816   0.732   4.376   0.757
 3419TIP3    H231817   0.590   4.413   0.792
 3420TIP3   OH231818   1.786   0.056   7.880
 3420TIP3    H131819   1.871   0.012   7.871
 3420TIP3    H231820   1.743   0.043   7.796
 3421TIP3   OH231821   3.787   3.642   0.988
 3421TIP3    H131822   3.792   3.711   0.923
 3421TIP3    H231823   3.747   3.568   0.941
 3422TIP3   OH231824   4.356   3.337   7.561
 3422TIP3    H131825   4.335   3.307   7.649
 3422TIP3    H231826   4.274   3.372   7.527
 3423TIP3   OH231827   3.606   3.653   1.203
 3423TIP3    H131828   3.667   3.662   1.131
 3423TIP3    H231829   3.615   3.562   1.231
 3424TIP3   OH231830   1.863   4.370   0.976
 3424TIP3    H131831   1.902   4.354   1.062
 3424TIP3    H231832   1.827   4.458   0.983
 3425TIP3   OH231833   4.595   3.947   7.690
 3425TIP3    H131834   4.530   3.882   7.716
 3425TIP3    H231835   4.671   3.896   7.662
 3426TIP3   OH231836   5.498   5.131   7.025
 3426TIP3    H131837   5.575   5.115   7.078
 3426TIP3    H231838   5.487   5.226   7.025
 3427TIP3   OH231839   0.695   2.285   2.345
 3427TIP3    H131840   0.756   2.343   2.390
 3427TIP3    H231841   0.618   2.282   2.402
 3428TIP3   OH231842   5.770   1.648   0.322
 3428TIP3    H131843   5.847   1.592   0.317
 3428TIP3    H231844   5.750   1.669   0.230
 3429TIP3   OH231845   5.607   2.158   1.556
 3429TIP3    H131846   5.532   2.206   1.591
 3429TIP3    H231847   5.572   2.107   1.484
 3430TIP3   OH231848   5.587   6.812   7.654
 3430TIP3    H131849   5.545   6.754   7.718
 3430TIP3    H231850   5.587   6.762   7.572
 3431TIP3   OH231851   4.435   1.772   6.433
 3431TIP3    H131852   4.484   1.695   6.463
 3431TIP3    H231853   4.375   1.738   6.366
 3432TIP3   OH231854   3.729   1.749   1.994
 3432TIP3    H131855   3.654   1.809   1.993
 3432TIP3    H231856   3.757   1.744   1.902
 3433TIP3   OH231857   0.120   3.622   7.072
 3433TIP3    H131858   0.197   3.565   7.065
 3433TIP3    H231859   0.045   3.564   7.062
 3434TIP3   OH231860   4.565   4.732   7.653
 3434TIP3    H131861   4.623   4.758   7.725
 3434TIP3    H231862   4.574   4.802   7.588
 3435TIP3   OH231863   1.278   0.774   7.113
 3435TIP3    H131864   1.323   0.828   7.179
 3435TIP3    H231865   1.338   0.774   7.038
 3436TIP3   OH231866   2.838   3.555   7.184
 3436TIP3    H131867   2.906   3.535   7.119
 3436TIP3    H231868   2.763   3.583   7.132
 3437TIP3   OH231869   6.505   0.897   7.618
 3437TIP3    H131870   6.591   0.859   7.599
 3437TIP3    H231871   6.468   0.841   7.686
 3438TIP3   OH231872   6.434   4.188   6.244
 3438TIP3    H131873   6.340   4.178   6.261
 3438TIP3    H231874   6.475   4.124   6.302
 3439TIP3   OH231875   5.227   1.987   7.498
 3439TIP3    H131876   5.243   1.968   7.590
 3439TIP3    H231877   5.297   2.047   7.473
 3440TIP3   OH231878   6.088   1.241   8.466
 3440TIP3    H131879   6.013   1.218   8.411
 3440TIP3    H231880   6.052   1.302   8.531
 3441TIP3   OH231881   4.714   2.506   0.678
 3441TIP3    H131882   4.744   2.587   0.637
 3441TIP3    H231883   4.762   2.502   0.761
 3442TIP3   OH231884   2.538   1.588   1.145
 3442TIP3    H131885   2.517   1.637   1.065
 3442TIP3    H231886   2.472   1.617   1.208
 3443TIP3   OH231887   6.710   5.974   0.451
 3443TIP3    H131888   6.672   5.967   0.539
 3443TIP3    H231889   6.651   5.924   0.395
 3444TIP3   OH231890   4.951   3.105   1.753
 3444TIP3    H131891   4.922   3.197   1.757
 3444TIP3    H231892   4.998   3.092   1.836
 3445TIP3   OH231893   5.689   2.072   0.971
 3445TIP3    H131894   5.718   2.054   0.882
 3445TIP3    H231895   5.664   1.987   1.006
 3446TIP3   OH231896   1.864   5.870   1.443
 3446TIP3    H131897   1.853   5.957   1.481
 3446TIP3    H231898   1.777   5.848   1.408
 3447TIP3   OH231899   1.857   6.527   8.564
 3447TIP3    H131900   1.902   6.561   8.486
 3447TIP3    H231901   1.927   6.503   0.005
 3448TIP3   OH231902   3.311   4.748   1.558
 3448TIP3    H131903   3.226   4.790   1.568
 3448TIP3    H231904   3.349   4.789   1.480
 3449TIP3   OH231905   0.147   3.240   6.806
 3449TIP3    H131906   0.186   3.294   6.736
 3449TIP3    H231907   0.222   3.195   6.846
 3450TIP3   OH231908   0.841   3.553   6.832
 3450TIP3    H131909   0.838   3.483   6.766
 3450TIP3    H231910   0.774   3.528   6.896
 3451TIP3   OH231911   5.427   0.323   7.135
 3451TIP3    H131912   5.407   0.304   7.043
 3451TIP3    H231913   5.431   0.237   7.176
 3452TIP3   OH231914   2.039   4.967   1.399
 3452TIP3    H131915   1.973   5.031   1.373
 3452TIP3    H231916   2.117   5.019   1.421
 3453TIP3   OH231917   1.838   0.668   0.700
 3453TIP3    H131918   1.914   0.663   0.643
 3453TIP3    H231919   1.842   0.755   0.739
 3454TIP3   OH231920   4.539   1.071   6.200
 3454TIP3    H131921   4.607   1.061   6.133
 3454TIP3    H231922   4.531   1.165   6.212
 3455TIP3   OH231923   6.346   4.365   0.718
 3455TIP3    H131924   6.403   4.347   0.794
 3455TIP3    H231925   6.404   4.403   0.653
 3456TIP3   OH231926   0.790   4.125   8.178
 3456TIP3    H131927   0.735   4.050   8.202
 3456TIP3    H231928   0.733   4.201   8.193
 3457TIP3   OH231929   6.720   3.917   7.578
 3457TIP3    H131930   6.718   3.947   7.487
 3457TIP3    H231931   6.714   3.998   7.629
 3458TIP3   OH231932   1.952   4.279   6.843
 3458TIP3    H131933   2.025   4.271   6.781
 3458TIP3    H231934   1.893   4.343   6.802
 3459TIP3   OH231935   6.144   0.827   7.829
 3459TIP3    H131936   6.198   0.751   7.805
 3459TIP3    H231937   6.205   0.901   7.827
 3460TIP3   OH231938   1.203   0.370   2.156
 3460TIP3    H131939   1.168   0.284   2.176
 3460TIP3    H231940   1.151   0.431   2.209
 3461TIP3   OH231941   2.704   2.777   7.084
 3461TIP3    H131942   2.706   2.853   7.142
 3461TIP3    H231943   2.773   2.720   7.118
 3462TIP3   OH231944   1.362   0.197   1.349
 3462TIP3    H131945   1.395   0.108   1.333
 3462TIP3    H231946   1.272   0.184   1.378
 3463TIP3   OH231947   0.234   5.390   8.087
 3463TIP3    H131948   0.255   5.319   8.026
 3463TIP3    H231949   0.164   5.355   8.141
 3464TIP3   OH231950   0.476   2.739   0.530
 3464TIP3    H131951   0.549   2.794   0.504
 3464TIP3    H231952   0.448   2.773   0.615
 3465TIP3   OH231953   6.306   0.940   0.180
 3465TIP3    H131954   6.301   0.969   0.089
 3465TIP3    H231955   6.354   1.009   0.224
 3466TIP3   OH231956   6.424   5.129   0.340
 3466TIP3    H131957   6.511   5.162   0.317
 3466TIP3    H231958   6.423   5.124   0.435
 3467TIP3   OH231959   1.990   2.697   7.166
 3467TIP3    H131960   1.937   2.622   7.140
 3467TIP3    H231961   1.933   2.773   7.152
 3468TIP3   OH231962   4.608   2.409   8.258
 3468TIP3    H131963   4.691   2.454   8.267
 3468TIP3    H231964   4.541   2.477   8.271
 3469TIP3   OH231965   1.098   0.029   6.776
 3469TIP3    H131966   1.159   0.078   6.832
 3469TIP3    H231967   1.014   0.074   6.786
 3470TIP3   OH231968   0.960   1.552   8.031
 3470TIP3    H131969   0.979   1.559   7.937
 3470TIP3    H231970   1.038   1.508   8.067
 3471TIP3   OH231971   0.838   6.305   7.689
 3471TIP3    H131972   0.863   6.281   7.779
 3471TIP3    H231973   0.908   6.363   7.660
 3472TIP3   OH231974   4.193   4.773   1.665
 3472TIP3    H131975   4.260   4.706   1.655
 3472TIP3    H231976   4.238   4.855   1.648
 3473TIP3   OH231977   6.542   3.235   1.662
 3473TIP3    H131978   6.633   3.263   1.653
 3473TIP3    H231979   6.541   3.145   1.627
 3474TIP3   OH231980   5.339   4.136   0.939
 3474TIP3    H131981   5.397   4.076   0.986
 3474TIP3    H231982   5.397   4.186   0.881
 3475TIP3   OH231983   0.464   1.337   1.422
 3475TIP3    H131984   0.431   1.265   1.369
 3475TIP3    H231985   0.543   1.302   1.463
 3476TIP3   OH231986   4.834   4.752   0.465
 3476TIP3    H131987   4.830   4.729   0.558
 3476TIP3    H231988   4.797   4.675   0.420
 3477TIP3   OH231989   6.773   0.176   1.776
 3477TIP3    H131990   6.737   0.207   1.859
 3477TIP3    H231991   6.851   0.229   1.762
 3478TIP3   OH231992   0.332   2.572   1.117
 3478TIP3    H131993   0.281   2.494   1.096
 3478TIP3    H231994   0.418   2.538   1.144
 3479TIP3   OH231995   2.719   1.059   6.527
 3479TIP3    H131996   2.793   0.999   6.538
 3479TIP3    H231997   2.676   1.061   6.612
 3480TIP3   OH231998   4.533   0.826   7.487
 3480TIP3    H131999   4.558   0.755   7.546
 3480TIP3    H232000   4.610   0.883   7.484
 3481TIP3   OH232001   1.921   3.908   1.546
 3481TIP3    H132002   1.858   3.839   1.569
 3481TIP3    H232003   1.930   3.960   1.625
 3482TIP3   OH232004   3.368   1.308   6.251
 3482TIP3    H132005   3.356   1.362   6.329
 3482TIP3    H232006   3.420   1.234   6.281
 3483TIP3   OH232007   0.656   6.699   6.998
 3483TIP3    H132008   0.610   6.671   7.077
 3483TIP3    H232009   0.673   6.618   6.950
 3484TIP3   OH232010   0.221   1.986   1.785
 3484TIP3    H132011   0.189   1.948   1.867
 3484TIP3    H232012   0.176   2.070   1.778
 3485TIP3   OH232013   4.621   1.824   6.895
 3485TIP3    H132014   4.607   1.730   6.911
 3485TIP3    H232015   4.550   1.849   6.836
 3486TIP3   OH232016   3.872   6.714   0.032
 3486TIP3    H132017   3.952   6.742   8.607
 3486TIP3    H232018   3.888   6.622   0.053
 3487TIP3   OH232019   1.639   3.803   8.168
 3487TIP3    H132020   1.611   3.876   8.222
 3487TIP3    H232021   1.735   3.801   8.178
 3488TIP3   OH232022   0.717   1.893   7.221
 3488TIP3    H132023   0.810   1.894   7.246
 3488TIP3    H232024   0.716   1.934   7.134
 3489TIP3   OH232025   2.583   4.419   7.478
 3489TIP3    H132026   2.581   4.353   7.547
 3489TIP3    H232027   2.495   4.417   7.441
 3490TIP3   OH232028   5.341   4.051   7.851
 3490TIP3    H132029   5.302   3.974   7.893
 3490TIP3    H232030   5.294   4.125   7.889
 3491TIP3   OH232031   1.133   4.886   6.493
 3491TIP3    H132032   1.210   4.943   6.494
 3491TIP3    H232033   1.159   4.809   6.544
 3492TIP3   OH232034   4.455   2.124   1.769
 3492TIP3    H132035   4.390   2.174   1.819
 3492TIP3    H232036   4.538   2.140   1.815
 3493TIP3   OH232037   0.684   0.873   0.878
 3493TIP3    H132038   0.725   0.917   0.953
 3493TIP3    H232039   0.592   0.864   0.903
 3494TIP3   OH232040   5.508   0.054   0.318
 3494TIP3    H132041   5.523   0.081   0.228
 3494TIP3    H232042   5.431   0.103   0.346
 3495TIP3   OH232043   0.890   3.976   6.744
 3495TIP3    H132044   0.938   3.908   6.792
 3495TIP3    H232045   0.808   3.933   6.719
 3496TIP3   OH232046   3.391   5.962   1.494
 3496TIP3    H132047   3.313   5.937   1.444
 3496TIP3    H232048   3.387   6.058   1.500
 3497TIP3   OH232049   5.803   6.460   7.856
 3497TIP3    H132050   5.828   6.486   7.767
 3497TIP3    H232051   5.879   6.482   7.909
 3498TIP3   OH232052   4.461   0.219   0.457
 3498TIP3    H132053   4.520   0.225   0.381
 3498TIP3    H232054   4.406   0.143   0.439
 3499TIP3   OH232055   3.829   2.623   8.101
 3499TIP3    H132056   3.860   2.659   8.184
 3499TIP3    H232057   3.767   2.688   8.069
 3500TIP3   OH232058   2.341   2.185   7.460
 3500TIP3    H132059   2.302   2.161   7.376
 3500TIP3    H232060   2.298   2.267   7.485
 3501TIP3   OH232061   4.063   4.303   7.453
 3501TIP3    H132062   4.119   4.353   7.513
 3501TIP3    H232063   3.975   4.338   7.467
 3502TIP3   OH232064   2.307   5.250   8.168
 3502TIP3    H132065   2.356   5.196   8.230
 3502TIP3    H232066   2.355   5.334   8.166
 3503TIP3   OH232067   3.534   4.380   6.539
 3503TIP3    H132068   3.510   4.457   6.487
 3503TIP3    H232069   3.630   4.379   6.537
 3504TIP3   OH232070   5.909   3.445   0.664
 3504TIP3    H132071   5.976   3.377   0.672
 3504TIP3    H232072   5.868   3.448   0.750
 3505TIP3   OH232073   2.777   1.042   7.123
 3505TIP3    H132074   2.690   1.011   7.149
 3505TIP3    H232075   2.784   1.020   7.030
 3506TIP3   OH232076   1.269   5.812   7.930
 3506TIP3    H132077   1.176   5.815   7.909
 3506TIP3    H232078   1.272   5.804   8.025
 3507TIP3   OH232079   5.182   6.516   0.117
 3507TIP3    H132080   5.228   6.568   0.183
 3507TIP3    H232081   5.090   6.523   0.141
 3508TIP3   OH232082   4.081   4.395   1.446
 3508TIP3    H132083   4.174   4.397   1.425
 3508TIP3    H232084   4.045   4.473   1.405
 3509TIP3   OH232085   2.332   6.687   0.988
 3509TIP3    H132086   2.239   6.664   0.982
 3509TIP3    H232087   2.378   6.611   0.951
 3510TIP3   OH232088   1.177   6.780   0.197
 3510TIP3    H132089   1.271   6.791   0.215
 3510TIP3    H232090   1.155   6.695   0.235
 3511TIP3   OH232091   0.472   3.564   0.405
 3511TIP3    H132092   0.464   3.636   0.342
 3511TIP3    H232093   0.555   3.580   0.449
 3512TIP3   OH232094   4.594   1.273   6.991
 3512TIP3    H132095   4.632   1.287   6.904
 3512TIP3    H232096   4.514   1.223   6.975
 3513TIP3   OH232097   6.882   1.332   8.424
 3513TIP3    H132098   0.058   1.389   8.425
 3513TIP3    H232099   6.883   1.290   8.510
 3514TIP3   OH232100   0.095   0.029   8.330
 3514TIP3    H132101   0.166   6.868   8.352
 3514TIP3    H232102   0.015   6.879   8.345
 3515TIP3   OH232103   2.029   0.394   0.549
 3515TIP3    H132104   2.035   0.391   0.645
 3515TIP3    H232105   2.010   0.486   0.530
 3516TIP3   OH232106   3.066   3.380   1.375
 3516TIP3    H132107   3.069   3.347   1.285
 3516TIP3    H232108   3.024   3.466   1.368
 3517TIP3   OH232109   4.292   1.193   0.125
 3517TIP3    H132110   4.297   1.141   0.206
 3517TIP3    H232111   4.251   1.135   0.061
 3518TIP3   OH232112   3.974   5.390   0.019
 3518TIP3    H132113   3.999   5.324   0.084
 3518TIP3    H232114   3.911   5.446   0.065
 3519TIP3   OH232115   5.337   1.057   8.021
 3519TIP3    H132116   5.261   1.003   8.041
 3519TIP3    H232117   5.316   1.098   7.937
 3520TIP3   OH232118   2.438   6.650   2.110
 3520TIP3    H132119   2.351   6.630   2.147
 3520TIP3    H232120   2.425   6.732   2.063
 3521TIP3   OH232121   5.829   2.755   1.395
 3521TIP3    H132122   5.831   2.832   1.338
 3521TIP3    H232123   5.802   2.789   1.481
 3522TIP3   OH232124   0.350   2.806   0.303
 3522TIP3    H132125   0.400   2.772   0.378
 3522TIP3    H232126   0.416   2.842   0.245
 3523TIP3   OH232127   3.659   2.434   1.832
 3523TIP3    H132128   3.685   2.345   1.855
 3523TIP3    H232129   3.567   2.427   1.807
 3524TIP3   OH232130   5.898   2.393   6.634
 3524TIP3    H132131   5.820   2.446   6.653
 3524TIP3    H232132   5.930   2.428   6.551
 3525TIP3   OH232133   1.523   6.079   7.625
 3525TIP3    H132134   1.495   6.049   7.539
 3525TIP3    H232135   1.469   6.157   7.642
 3526TIP3   OH232136   0.883   4.059   1.570
 3526TIP3    H132137   0.801   4.039   1.616
 3526TIP3    H232138   0.861   4.132   1.512
 3527TIP3   OH232139   6.308   4.942   2.072
 3527TIP3    H132140   6.237   4.992   2.114
 3527TIP3    H232141   6.343   5.001   2.006
 3528TIP3   OH232142   6.288   2.861   6.278
 3528TIP3    H132143   6.236   2.934   6.313
 3528TIP3    H232144   6.271   2.789   6.339
 3529TIP3   OH232145   0.314   4.013   7.597
 3529TIP3    H132146   0.307   3.923   7.630
 3529TIP3    H232147   0.257   4.015   7.520
 3530TIP3   OH232148   6.501   0.927   0.541
 3530TIP3    H132149   6.437   0.976   0.488
 3530TIP3    H232150   6.586   0.958   0.511
 3531TIP3   OH232151   0.461   3.224   6.174
 3531TIP3    H132152   0.408   3.278   6.116
 3531TIP3    H232153   0.417   3.139   6.175
 3532TIP3   OH232154   0.166   2.807   7.778
 3532TIP3    H132155   0.095   2.780   7.719
 3532TIP3    H232156   0.173   2.902   7.765
 3533TIP3   OH232157   0.355   2.799   0.931
 3533TIP3    H132158   0.339   2.866   0.998
 3533TIP3    H232159   0.349   2.716   0.978
 3534TIP3   OH232160   4.375   4.440   0.113
 3534TIP3    H132161   4.345   4.526   0.144
 3534TIP3    H232162   4.301   4.381   0.132
 3535TIP3   OH232163   2.013   6.086   0.951
 3535TIP3    H132164   2.101   6.065   0.922
 3535TIP3    H232165   2.023   6.113   1.042
 3536TIP3   OH232166   0.064   4.836   1.715
 3536TIP3    H132167   0.092   4.875   1.798
 3536TIP3    H232168   0.037   4.911   1.661
 3537TIP3   OH232169   6.376   5.271   6.970
 3537TIP3    H132170   6.418   5.226   6.896
 3537TIP3    H232171   6.320   5.337   6.929
 3538TIP3   OH232172   0.161   3.767   7.850
 3538TIP3    H132173   0.187   3.705   7.782
 3538TIP3    H232174   0.215   3.744   7.926
 3539TIP3   OH232175   3.039   1.886   0.201
 3539TIP3    H132176   2.948   1.859   0.217
 3539TIP3    H232177   3.080   1.884   0.288
 3540TIP3   OH232178   3.645   6.020   7.368
 3540TIP3    H132179   3.595   5.982   7.296
 3540TIP3    H232180   3.708   5.952   7.393
 3541TIP3   OH232181   4.534   5.831   8.478
 3541TIP3    H132182   4.468   5.900   8.487
 3541TIP3    H232183   4.615   5.870   8.510
 3542TIP3   OH232184   3.943   4.879   7.535
 3542TIP3    H132185   3.917   4.811   7.472
 3542TIP3    H232186   3.882   4.867   7.608
 3543TIP3   OH232187   1.249   2.789   8.566
 3543TIP3    H132188   1.322   2.840   8.530
 3543TIP3    H232189   1.283   2.754   0.029
 3544TIP3   OH232190   1.224   1.506   0.958
 3544TIP3    H132191   1.176   1.424   0.971
 3544TIP3    H232192   1.194   1.563   1.029
 3545TIP3   OH232193   5.080   4.536   8.514
 3545TIP3    H132194   5.045   4.584   8.589
 3545TIP3    H232195   5.129   4.601   8.464
 3546TIP3   OH232196   0.759   3.272   0.517
 3546TIP3    H132197   0.760   3.182   0.483
 3546TIP3    H232198   0.795   3.325   0.447
 3547TIP3   OH232199   6.105   4.848   8.207
 3547TIP3    H132200   6.099   4.832   8.113
 3547TIP3    H232201   6.020   4.885   8.231
 3548TIP3   OH232202   6.061   2.916   7.776
 3548TIP3    H132203   6.055   2.826   7.806
 3548TIP3    H232204   6.130   2.955   7.829
 3549TIP3   OH232205   4.797   4.746   0.745
 3549TIP3    H132206   4.766   4.656   0.734
 3549TIP3    H232207   4.786   4.765   0.838
 3550TIP3   OH232208   2.583   6.357   8.458
 3550TIP3    H132209   2.671   6.326   8.438
 3550TIP3    H232210   2.533   6.277   8.475
 3551TIP3   OH232211   2.746   0.379   7.579
 3551TIP3    H132212   2.808   0.310   7.600
 3551TIP3    H232213   2.792   0.460   7.603
 3552TIP3   OH232214   2.035   6.838   7.860
 3552TIP3    H132215   2.090   0.008   7.825
 3552TIP3    H232216   2.096   6.778   7.904
 3553TIP3   OH232217   3.338   4.747   8.484
 3553TIP3    H132218   3.258   4.737   8.432
 3553TIP3    H232219   3.361   4.839   8.474
 3554TIP3   OH232220   6.153   5.076   7.692
 3554TIP3    H132221   6.190   4.995   7.656
 3554TIP3    H232222   6.215   5.144   7.667
 3555TIP3   OH232223   5.936   5.327   8.329
 3555TIP3    H132224   5.977   5.409   8.303
 3555TIP3    H232225   5.928   5.277   8.248
 3556TIP3   OH232226   1.425   0.204   8.024
 3556TIP3    H132227   1.447   0.293   8.052
 3556TIP3    H232228   1.416   0.154   8.105
 3557TIP3   OH232229   6.605   5.876   0.195
 3557TIP3    H132230   6.674   5.810   0.202
 3557TIP3    H232231   6.629   5.929   0.119
 3558TIP3   OH232232   2.712   5.345   0.970
 3558TIP3    H132233   2.620   5.332   0.994
 3558TIP3    H232234   2.710   5.419   0.909
 3559TIP3   OH232235   3.178   2.755   8.492
 3559TIP3    H132236   3.179   2.743   8.587
 3559TIP3    H232237   3.101   2.706   8.462
 3560TIP3   OH232238   2.392   0.721   0.611
 3560TIP3    H132239   2.430   0.698   0.696
 3560TIP3    H232240   2.347   0.804   0.626
 3561TIP3   OH232241   0.650   1.682   0.922
 3561TIP3    H132242   0.647   1.631   0.841
 3561TIP3    H232243   0.725   1.647   0.970
 3562TIP3   OH232244   4.987   1.929   0.073
 3562TIP3    H132245   5.046   1.887   0.136
 3562TIP3    H232246   4.988   2.021   0.097
 3563TIP3   OH232247   1.417   4.711   8.308
 3563TIP3    H132248   1.478   4.685   8.376
 3563TIP3    H232249   1.344   4.650   8.316
 3564TIP3   OH232250   1.996   2.989   2.025
 3564TIP3    H132251   1.905   3.015   2.015
 3564TIP3    H232252   2.046   3.067   2.002
 3565TIP3   OH232253   0.822   4.518   6.851
 3565TIP3    H132254   0.848   4.466   6.775
 3565TIP3    H232255   0.813   4.454   6.921
 3566TIP3   OH232256   5.870   3.937   7.979
 3566TIP3    H132257   5.890   4.013   8.034
 3566TIP3    H232258   5.783   3.956   7.944
 3567TIP3   OH232259   2.139   2.082   0.573
 3567TIP3    H132260   2.205   2.144   0.541
 3567TIP3    H232261   2.058   2.133   0.574
 3568TIP3   OH232262   0.648   5.800   0.277
 3568TIP3    H132263   0.673   5.712   0.305
 3568TIP3    H232264   0.601   5.786   0.195
 3569TIP3   OH232265   4.976   3.119   7.693
 3569TIP3    H132266   5.052   3.121   7.751
 3569TIP3    H232267   4.928   3.199   7.714
 3570TIP3   OH232268   0.701   2.089   6.932
 3570TIP3    H132269   0.720   2.032   6.858
 3570TIP3    H232270   0.745   2.171   6.912
 3571TIP3   OH232271   0.934   2.483   0.443
 3571TIP3    H132272   0.898   2.405   0.401
 3571TIP3    H232273   0.946   2.458   0.534
 3572TIP3   OH232274   1.424   5.104   8.438
 3572TIP3    H132275   1.366   5.052   8.495
 3572TIP3    H232276   1.495   5.044   8.416
 3573TIP3   OH232277   2.254   2.752   7.706
 3573TIP3    H132278   2.222   2.842   7.702
 3573TIP3    H232279   2.203   2.706   7.640
 3574TIP3   OH232280   0.083   6.895   7.874
 3574TIP3    H132281   6.897   6.885   7.914
 3574TIP3    H232282   0.139   6.833   7.921
 3575TIP3   OH232283   0.431   1.012   0.843
 3575TIP3    H132284   0.480   0.965   0.776
 3575TIP3    H232285   0.339   0.997   0.820
 3576TIP3   OH232286   1.615   2.921   7.745
 3576TIP3    H132287   1.696   2.910   7.695
 3576TIP3    H232288   1.633   2.881   7.830
 3577TIP3   OH232289   1.581   5.876   1.363
 3577TIP3    H132290   1.533   5.869   1.281
 3577TIP3    H232291   1.519   5.916   1.424
 3578TIP3   OH232292   1.983   1.023   1.292
 3578TIP3    H132293   1.997   1.111   1.256
 3578TIP3    H232294   2.041   1.019   1.368
 3579TIP3   OH232295   6.692   2.519   7.218
 3579TIP3    H132296   6.727   2.503   7.306
 3579TIP3    H232297   6.606   2.477   7.219
 3580TIP3   OH232298   3.193   2.864   8.036
 3580TIP3    H132299   3.192   2.775   8.003
 3580TIP3    H232300   3.262   2.865   8.102
 3581TIP3   OH232301   4.497   4.107   7.416
 3581TIP3    H132302   4.510   4.110   7.511
 3581TIP3    H232303   4.405   4.083   7.405
 3582TIP3   OH232304   1.741   5.600   0.825
 3582TIP3    H132305   1.657   5.622   0.865
 3582TIP3    H232306   1.791   5.682   0.827
 3583TIP3   OH232307   6.705   0.331   7.126
 3583TIP3    H132308   6.704   0.427   7.132
 3583TIP3    H232309   6.641   0.303   7.192
 3584TIP3   OH232310   0.652   4.194   1.712
 3584TIP3    H132311   0.561   4.219   1.730
 3584TIP3    H232312   0.679   4.145   1.789
 3585TIP3   OH232313   0.571   0.475   1.210
 3585TIP3    H132314   0.563   0.508   1.120
 3585TIP3    H232315   0.561   0.553   1.265
 3586TIP3   OH232316   4.448   5.515   0.530
 3586TIP3    H132317   4.470   5.608   0.541
 3586TIP3    H232318   4.353   5.512   0.534
 3587TIP3   OH232319   0.788   5.481   1.126
 3587TIP3    H132320   0.703   5.522   1.142
 3587TIP3    H232321   0.772   5.387   1.135
 3588TIP3   OH232322   3.929   6.125   8.368
 3588TIP3    H132323   3.997   6.059   8.355
 3588TIP3    H232324   3.918   6.129   8.463
 3589TIP3   OH232325   0.013   4.541   8.041
 3589TIP3    H132326   0.086   4.602   8.030
 3589TIP3    H232327   6.899   4.503   7.954
 3590TIP3   OH232328   3.285   3.983   7.243
 3590TIP3    H132329   3.269   3.889   7.253
 3590TIP3    H232330   3.263   4.001   7.152
 3591TIP3   OH232331   0.115   5.297   1.321
 3591TIP3    H132332   0.170   5.376   1.318
 3591TIP3    H232333   0.026   5.330   1.336
 3592TIP3   OH232334   2.703   2.506   0.457
 3592TIP3    H132335   2.724   2.502   0.364
 3592TIP3    H232336   2.629   2.566   0.463
 3593TIP3   OH232337   5.493   0.889   6.835
 3593TIP3    H132338   5.586   0.875   6.854
 3593TIP3    H232339   5.462   0.945   6.906
 3594TIP3   OH232340   2.364   2.487   8.126
 3594TIP3    H132341   2.342   2.473   8.034
 3594TIP3    H232342   2.280   2.486   8.171
 3595TIP3   OH232343   1.030   6.422   7.327
 3595TIP3    H132344   1.105   6.461   7.372
 3595TIP3    H232345   1.062   6.338   7.296
 3596TIP3   OH232346   4.215   2.129   1.182
 3596TIP3    H132347   4.203   2.061   1.115
 3596TIP3    H232348   4.286   2.183   1.149
 3597TIP3   OH232349   6.535   3.484   8.113
 3597TIP3    H132350   6.540   3.388   8.107
 3597TIP3    H232351   6.625   3.513   8.097
 3598TIP3   OH232352   5.092   1.617   7.401
 3598TIP3    H132353   5.168   1.675   7.391
 3598TIP3    H232354   5.017   1.676   7.402
 3599TIP3   OH232355   4.068   5.098   0.051
 3599TIP3    H132356   4.064   5.091   8.575
 3599TIP3    H232357   4.078   5.008   0.081
 3600TIP3   OH232358   6.317   2.555   7.810
 3600TIP3    H132359   6.382   2.506   7.759
 3600TIP3    H232360   6.363   2.576   7.891
 3601TIP3   OH232361   6.526   1.110   6.294
 3601TIP3    H132362   6.484   1.063   6.221
 3601TIP3    H232363   6.520   1.202   6.270
 3602TIP3   OH232364   4.467   1.954   7.883
 3602TIP3    H132365   4.558   1.976   7.861
 3602TIP3    H232366   4.415   2.004   7.820
 3603TIP3   OH232367   5.335   3.146   7.692
 3603TIP3    H132368   5.382   3.194   7.624
 3603TIP3    H232369   5.327   3.057   7.657
 3604TIP3   OH232370   5.476   4.743   1.162
 3604TIP3    H132371   5.507   4.661   1.201
 3604TIP3    H232372   5.433   4.716   1.080
 3605TIP3   OH232373   6.211   3.206   8.583
 3605TIP3    H132374   6.201   3.158   0.046
 3605TIP3    H232375   6.270   3.152   8.531
 3606TIP3   OH232376   4.415   0.498   0.437
 3606TIP3    H132377   4.421   0.405   0.459
 3606TIP3    H232378   4.399   0.499   0.343
 3607TIP3   OH232379   1.916   0.260   1.378
 3607TIP3    H132380   1.930   0.170   1.406
 3607TIP3    H232381   1.964   0.267   1.295
 3608TIP3   OH232382   5.764   0.063   6.251
 3608TIP3    H132383   5.729   0.150   6.235
 3608TIP3    H232384   5.726   0.008   6.182
 3609TIP3   OH232385   4.769   1.237   0.099
 3609TIP3    H132386   4.717   1.167   0.138
 3609TIP3    H232387   4.796   1.291   0.173
 3610TIP3   OH232388   6.698   6.196   1.138
 3610TIP3    H132389   6.701   6.254   1.214
 3610TIP3    H232390   6.790   6.187   1.112
 3611TIP3   OH232391   4.415   0.017   2.016
 3611TIP3    H132392   4.378   6.848   2.072
 3611TIP3    H232393   4.373   0.004   1.931
 3612TIP3   OH232394   3.948   3.587   0.449
 3612TIP3    H132395   3.861   3.627   0.459
 3612TIP3    H232396   3.978   3.571   0.539
 3613TIP3   OH232397   4.897   0.327   7.685
 3613TIP3    H132398   4.816   0.332   7.635
 3613TIP3    H232399   4.930   0.238   7.669
 3614TIP3   OH232400   2.392   1.877   0.665
 3614TIP3    H132401   2.362   1.967   0.680
 3614TIP3    H232402   2.314   1.832   0.633
 3615TIP3   OH232403   4.136   1.119   0.886
 3615TIP3    H132404   4.043   1.096   0.877
 3615TIP3    H232405   4.136   1.210   0.913
 3616TIP3   OH232406   3.910   0.203   8.168
 3616TIP3    H132407   3.979   0.210   8.234
 3616TIP3    H232408   3.948   0.240   8.089
 3617TIP3   OH232409   2.646   2.289   8.524
 3617TIP3    H132410   2.660   2.195   8.514
 3617TIP3    H232411   2.702   2.330   8.458
 3618TIP3   OH232412   5.914   2.805   0.133
 3618TIP3    H132413   5.895   2.721   0.090
 3618TIP3    H232414   6.009   2.814   0.127
 3619TIP3   OH232415   5.492   1.160   0.379
 3619TIP3    H132416   5.526   1.242   0.344
 3619TIP3    H232417   5.546   1.092   0.339
 3620TIP3   OH232418   3.842   3.025   8.250
 3620TIP3    H132419   3.901   3.088   8.290
 3620TIP3    H232420   3.872   3.019   8.159
 3621TIP3   OH232421   0.086   2.852   1.462
 3621TIP3    H132422   0.077   2.843   1.557
 3621TIP3    H232423   0.001   2.825   1.427
 3622TIP3   OH232424   1.182   0.241   5.932
 3622TIP3    H132425   1.231   0.237   5.850
 3622TIP3    H232426   1.115   0.173   5.923
 3623TIP3   OH232427   1.613   6.600   6.459
 3623TIP3    H132428   1.672   6.528   6.482
 3623TIP3    H232429   1.544   6.558   6.407
 3624TIP3   OH232430   1.310   6.447   0.016
 3624TIP3    H132431   1.267   6.454   8.550
 3624TIP3    H232432   1.383   6.509   0.012
 3625TIP3   OH232433   5.538   3.152   1.917
 3625TIP3    H132434   5.469   3.218   1.913
 3625TIP3    H232435   5.614   3.194   1.878
 3626TIP3   OH232436   6.798   1.472   6.054
 3626TIP3    H132437   6.782   1.563   6.030
 3626TIP3    H232438   6.867   1.442   5.995
 3627TIP3   OH232439   6.525   1.402   0.175
 3627TIP3    H132440   6.538   1.381   0.083
 3627TIP3    H232441   6.532   1.497   0.180
 3628TIP3   OH232442   5.628   4.992   7.809
 3628TIP3    H132443   5.561   5.043   7.855
 3628TIP3    H232444   5.711   5.022   7.846
 3629TIP3   OH232445   0.077   6.553   6.861
 3629TIP3    H132446   0.160   6.600   6.849
 3629TIP3    H232447   0.029   6.603   6.926
 3630TIP3   OH232448   6.112   3.248   0.747
 3630TIP3    H132449   6.146   3.181   0.807
 3630TIP3    H232450   6.149   3.330   0.780
 3631TIP3   OH232451   2.969   2.314   0.881
 3631TIP3    H132452   2.960   2.261   0.961
 3631TIP3    H232453   2.987   2.402   0.913
 3632TIP3   OH232454   4.176   0.734   8.060
 3632TIP3    H132455   4.106   0.675   8.032
 3632TIP3    H232456   4.199   0.783   7.981
 3633TIP3   OH232457   1.344   5.466   0.782
 3633TIP3    H132458   1.427   5.451   0.736
 3633TIP3    H232459   1.296   5.384   0.774
 3634TIP3   OH232460   5.952   3.370   7.514
 3634TIP3    H132461   5.992   3.398   7.432
 3634TIP3    H232462   5.948   3.274   7.508
 3635TIP3   OH232463   2.542   3.438   0.584
 3635TIP3    H132464   2.581   3.494   0.651
 3635TIP3    H232465   2.615   3.383   0.554
 3636TIP3   OH232466   0.931   5.686   5.973
 3636TIP3    H132467   0.994   5.614   5.978
 3636TIP3    H232468   0.910   5.693   5.880
 3637TIP3   OH232469   5.945   4.564   7.040
 3637TIP3    H132470   5.855   4.531   7.034
 3637TIP3    H232471   5.943   4.624   7.114
 3638TIP3   OH232472   5.564   6.468   1.445
 3638TIP3    H132473   5.482   6.461   1.493
 3638TIP3    H232474   5.621   6.522   1.500
 3639TIP3   OH232475   3.917   3.780   1.231
 3639TIP3    H132476   3.879   3.824   1.307
 3639TIP3    H232477   3.842   3.742   1.185
 3640TIP3   OH232478   3.559   4.401   0.403
 3640TIP3    H132479   3.512   4.353   0.334
 3640TIP3    H232480   3.548   4.347   0.481
 3641TIP3   OH232481   4.108   6.521   1.242
 3641TIP3    H132482   4.175   6.576   1.283
 3641TIP3    H232483   4.105   6.551   1.151
 3642TIP3   OH232484   5.537   0.427   8.576
 3642TIP3    H132485   5.456   0.376   8.578
 3642TIP3    H232486   5.598   0.372   8.526
 3643TIP3   OH232487   6.144   1.700   0.942
 3643TIP3    H132488   6.190   1.768   0.891
 3643TIP3    H232489   6.074   1.670   0.884
 3644TIP3   OH232490   2.588   0.295   6.575
 3644TIP3    H132491   2.542   0.221   6.536
 3644TIP3    H232492   2.525   0.367   6.574
 3645TIP3   OH232493   6.806   2.677   2.147
 3645TIP3    H132494   6.883   2.717   2.107
 3645TIP3    H232495   6.835   2.647   2.233
 3646TIP3   OH232496   4.016   1.803   2.655
 3646TIP3    H132497   4.028   1.754   2.736
 3646TIP3    H232498   4.087   1.868   2.656
 3647TIP3   OH232499   4.330   2.386   7.845
 3647TIP3    H132500   4.315   2.344   7.930
 3647TIP3    H232501   4.424   2.375   7.829
 3648TIP3   OH232502   3.148   2.822   0.524
 3648TIP3    H132503   3.151   2.900   0.469
 3648TIP3    H232504   3.117   2.854   0.609
 3649TIP3   OH232505   6.563   5.723   6.968
 3649TIP3    H132506   6.612   5.783   7.024
 3649TIP3    H232507   6.486   5.699   7.020
 3650TIP3   OH232508   2.606   1.968   1.557
 3650TIP3    H132509   2.684   1.928   1.595
 3650TIP3    H232510   2.596   2.051   1.604
 3651TIP3   OH232511   4.077   6.596   8.147
 3651TIP3    H132512   4.148   6.565   8.091
 3651TIP3    H232513   4.004   6.538   8.126
 3652TIP3   OH232514   1.673   4.354   6.960
 3652TIP3    H132515   1.618   4.423   6.997
 3652TIP3    H232516   1.701   4.389   6.875
 3653TIP3   OH232517   4.967   3.888   7.387
 3653TIP3    H132518   4.969   3.940   7.306
 3653TIP3    H232519   5.007   3.945   7.453
 3654TIP3   OH232520   1.061   5.546   8.274
 3654TIP3    H132521   1.058   5.451   8.273
 3654TIP3    H232522   0.974   5.574   8.247
 3655TIP3   OH232523   0.092   2.830   6.146
 3655TIP3    H132524   0.068   2.800   6.058
 3655TIP3    H232525   0.012   2.870   6.180
 3656TIP3   OH232526   6.793   6.084   2.137
 3656TIP3    H132527   6.796   6.043   2.051
 3656TIP3    H232528   6.743   6.165   2.124
 3657TIP3   OH232529   4.632   3.017   0.485
 3657TIP3    H132530   4.721   2.984   0.470
 3657TIP3    H232531   4.597   3.031   0.397
 3658TIP3   OH232532   6.576   5.933   1.087
 3658TIP3    H132533   6.614   6.019   1.105
 3658TIP3    H232534   6.494   5.932   1.137
 3659TIP3   OH232535   6.021   5.348   6.347
 3659TIP3    H132536   6.004   5.397   6.267
 3659TIP3    H232537   5.995   5.258   6.326
 3660TIP3   OH232538   4.214   1.733   2.381
 3660TIP3    H132539   4.250   1.822   2.384
 3660TIP3    H232540   4.255   1.693   2.304
 3661TIP3   OH232541   5.475   5.388   6.950
 3661TIP3    H132542   5.538   5.444   6.994
 3661TIP3    H232543   5.506   5.382   6.860
 3662TIP3   OH232544   6.059   2.515   1.138
 3662TIP3    H132545   6.145   2.475   1.148
 3662TIP3    H232546   6.061   2.554   1.051
 3663TIP3   OH232547   2.856   1.520   1.170
 3663TIP3    H132548   2.834   1.613   1.164
 3663TIP3    H232549   2.788   1.483   1.226
 3664TIP3   OH232550   5.692   3.450   7.704
 3664TIP3    H132551   5.748   3.403   7.766
 3664TIP3    H232552   5.732   3.537   7.698
 3665TIP3   OH232553   0.707   4.312   1.070
 3665TIP3    H132554   0.676   4.327   0.981
 3665TIP3    H232555   0.640   4.353   1.125
 3666TIP3   OH232556   1.842   2.290   0.164
 3666TIP3    H132557   1.806   2.305   0.252
 3666TIP3    H232558   1.797   2.211   0.133
 3667TIP3   OH232559   0.282   5.416   1.580
 3667TIP3    H132560   0.248   5.425   1.670
 3667TIP3    H232561   0.254   5.329   1.552
 3668TIP3   OH232562   2.395   4.046   0.017
 3668TIP3    H132563   2.441   3.962   0.021
 3668TIP3    H232564   2.456   4.104   8.591
 3669TIP3   OH232565   0.782   1.922   1.829
 3669TIP3    H132566   0.707   1.928   1.889
 3669TIP3    H232567   0.841   1.860   1.871
 3670TIP3   OH232568   4.763   2.176   6.903
 3670TIP3    H132569   4.763   2.218   6.989
 3670TIP3    H232570   4.832   2.219   6.854
 3671TIP3   OH232571   0.499   1.555   7.763
 3671TIP3    H132572   0.492   1.606   7.844
 3671TIP3    H232573   0.562   1.486   7.783
 3672TIP3   OH232574   5.681   5.396   0.014
 3672TIP3    H132575   5.737   5.346   0.074
 3672TIP3    H232576   5.644   5.465   0.068
 3673TIP3   OH232577   4.756   4.094   0.793
 3673TIP3    H132578   4.697   4.058   0.859
 3673TIP3    H232579   4.702   4.156   0.744
 3674TIP3   OH232580   2.365   3.270   7.357
 3674TIP3    H132581   2.416   3.350   7.349
 3674TIP3    H232582   2.291   3.294   7.413
 3675TIP3   OH232583   4.004   5.400   0.818
 3675TIP3    H132584   4.048   5.484   0.830
 3675TIP3    H232585   3.978   5.375   0.907
 3676TIP3   OH232586   3.288   3.059   7.885
 3676TIP3    H132587   3.365   3.012   7.854
 3676TIP3    H232588   3.242   2.995   7.940
 3677TIP3   OH232589   6.487   1.319   8.066
 3677TIP3    H132590   6.558   1.256   8.049
 3677TIP3    H232591   6.507   1.352   8.154
 3678TIP3   OH232592   0.179   2.284   0.366
 3678TIP3    H132593   0.214   2.372   0.382
 3678TIP3    H232594   0.094   2.299   0.324
 3679TIP3   OH232595   5.813   1.125   5.835
 3679TIP3    H132596   5.807   1.050   5.894
 3679TIP3    H232597   5.728   1.170   5.845
 3680TIP3   OH232598   4.890   2.037   2.079
 3680TIP3    H132599   4.951   2.111   2.087
 3680TIP3    H232600   4.883   2.001   2.168
 3681TIP3   OH232601   5.443   6.393   0.411
 3681TIP3    H132602   5.508   6.349   0.466
 3681TIP3    H232603   5.387   6.440   0.474
 3682TIP3   OH232604   2.267   1.217   1.279
 3682TIP3    H132605   2.182   1.246   1.247
 3682TIP3    H232606   2.283   1.271   1.357
 3683TIP3   OH232607   4.312   2.348   7.516
 3683TIP3    H132608   4.271   2.432   7.535
 3683TIP3    H232609   4.405   2.368   7.507
 3684TIP3   OH232610   6.141   5.248   1.354
 3684TIP3    H132611   6.157   5.192   1.278
 3684TIP3    H232612   6.221   5.241   1.406
 3685TIP3   OH232613   4.639   5.908   1.389
 3685TIP3    H132614   4.709   5.971   1.404
 3685TIP3    H232615   4.595   5.901   1.474
 3686TIP3   OH232616   2.894   1.201   0.795
 3686TIP3    H132617   2.927   1.279   0.838
 3686TIP3    H232618   2.894   1.223   0.702
 3687TIP3   OH232619   1.428   6.631   6.653
 3687TIP3    H132620   1.494   6.619   6.586
 3687TIP3    H232621   1.389   6.716   6.634
 3688TIP3   OH232622   3.325   1.430   6.530
 3688TIP3    H132623   3.400   1.490   6.528
 3688TIP3    H232624   3.249   1.486   6.545
 3689TIP3   OH232625   6.702   3.799   1.629
 3689TIP3    H132626   6.716   3.749   1.709
 3689TIP3    H232627   6.653   3.740   1.572
 3690TIP3   OH232628   2.463   2.413   0.863
 3690TIP3    H132629   2.538   2.446   0.813
 3690TIP3    H232630   2.434   2.488   0.914
 3691TIP3   OH232631   1.708   0.977   8.328
 3691TIP3    H132632   1.689   1.029   8.250
 3691TIP3    H232633   1.674   1.029   8.401
 3692TIP3   OH232634   0.251   0.905   6.656
 3692TIP3    H132635   0.316   0.836   6.670
 3692TIP3    H232636   0.189   0.868   6.593
 3693TIP3   OH232637   4.959   2.875   7.041
 3693TIP3    H132638   4.905   2.811   7.086
 3693TIP3    H232639   5.049   2.853   7.066
 3694TIP3   OH232640   2.092   5.740   1.574
 3694TIP3    H132641   2.011   5.771   1.534
 3694TIP3    H232642   2.159   5.754   1.507
 3695TIP3   OH232643   1.101   2.232   1.462
 3695TIP3    H132644   1.154   2.167   1.417
 3695TIP3    H232645   1.157   2.310   1.466
 3696TIP3   OH232646   5.716   5.597   1.314
 3696TIP3    H132647   5.768   5.677   1.308
 3696TIP3    H232648   5.645   5.610   1.251
 3697TIP3   OH232649   2.240   6.695   6.719
 3697TIP3    H132650   2.199   6.695   6.632
 3697TIP3    H232651   2.256   6.787   6.738
 3698TIP3   OH232652   0.161   0.956   7.359
 3698TIP3    H132653   0.167   0.885   7.423
 3698TIP3    H232654   0.070   0.953   7.328
 3699TIP3   OH232655   3.997   6.105   2.115
 3699TIP3    H132656   3.924   6.144   2.066
 3699TIP3    H232657   4.062   6.175   2.121
 3700TIP3   OH232658   1.188   4.518   7.780
 3700TIP3    H132659   1.193   4.610   7.754
 3700TIP3    H232660   1.239   4.471   7.714
 3701TIP3   OH232661   3.285   0.158   0.315
 3701TIP3    H132662   3.379   0.158   0.294
 3701TIP3    H232663   3.242   0.132   0.234
 3702TIP3   OH232664   1.990   4.802   7.084
 3702TIP3    H132665   2.085   4.803   7.072
 3702TIP3    H232666   1.956   4.846   7.006
 3703TIP3   OH232667   0.336   5.057   0.575
 3703TIP3    H132668   0.399   5.082   0.642
 3703TIP3    H232669   0.296   5.140   0.547
 3704TIP3   OH232670   0.218   4.431   0.589
 3704TIP3    H132671   0.203   4.343   0.555
 3704TIP3    H232672   0.201   4.489   0.515
 3705TIP3   OH232673   2.309   2.991   0.436
 3705TIP3    H132674   2.395   3.031   0.419
 3705TIP3    H232675   2.248   3.065   0.437
 3706TIP3   OH232676   1.953   0.325   6.849
 3706TIP3    H132677   1.970   0.231   6.845
 3706TIP3    H232678   1.911   0.346   6.765
 3707TIP3   OH232679   3.151   1.258   0.283
 3707TIP3    H132680   3.114   1.343   0.263
 3707TIP3    H232681   3.241   1.276   0.311
 3708TIP3   OH232682   6.154   5.943   0.398
 3708TIP3    H132683   6.136   6.027   0.357
 3708TIP3    H232684   6.224   5.905   0.345
 3709TIP3   OH232685   6.458   6.758   7.860
 3709TIP3    H132686   6.445   6.713   7.943
 3709TIP3    H232687   6.430   6.848   7.876
 3710TIP3   OH232688   2.485   5.179   8.378
 3710TIP3    H132689   2.517   5.258   8.422
 3710TIP3    H232690   2.518   5.107   8.431
 3711TIP3   OH232691   6.261   4.158   6.645
 3711TIP3    H132692   6.247   4.081   6.590
 3711TIP3    H232693   6.219   4.229   6.597
 3712TIP3   OH232694   6.514   1.137   0.759
 3712TIP3    H132695   6.455   1.199   0.716
 3712TIP3    H232696   6.567   1.101   0.688
 3713TIP3   OH232697   1.471   3.816   7.373
 3713TIP3    H132698   1.502   3.748   7.313
 3713TIP3    H232699   1.399   3.858   7.326
 3714TIP3   OH232700   5.620   0.021   0.972
 3714TIP3    H132701   5.558   6.874   0.917
 3714TIP3    H232702   5.578   0.023   1.058
 3715TIP3   OH232703   2.864   6.056   2.826
 3715TIP3    H132704   2.807   6.084   2.754
 3715TIP3    H232705   2.951   6.087   2.802
 3716TIP3   OH232706   2.074   0.115   1.924
 3716TIP3    H132707   2.144   0.054   1.949
 3716TIP3    H232708   2.005   0.100   1.989
 3717TIP3   OH232709   3.510   6.628   1.070
 3717TIP3    H132710   3.533   6.581   0.990
 3717TIP3    H232711   3.486   6.558   1.131
 3718TIP3   OH232712   5.546   2.111   8.125
 3718TIP3    H132713   5.636   2.123   8.096
 3718TIP3    H232714   5.549   2.129   8.219
 3719TIP3   OH232715   2.331   4.016   1.445
 3719TIP3    H132716   2.372   4.010   1.358
 3719TIP3    H232717   2.271   3.942   1.448
 3720TIP3   OH232718   3.178   3.965   6.963
 3720TIP3    H132719   3.172   3.894   6.899
 3720TIP3    H232720   3.261   4.008   6.944
 3721TIP3   OH232721   1.771   5.026   0.931
 3721TIP3    H132722   1.767   4.940   0.973
 3721TIP3    H232723   1.782   5.007   0.838
 3722TIP3   OH232724   0.334   2.604   7.540
 3722TIP3    H132725   0.310   2.697   7.548
 3722TIP3    H232726   0.287   2.575   7.462
 3723TIP3   OH232727   5.015   2.167   1.819
 3723TIP3    H132728   5.087   2.222   1.851
 3723TIP3    H232729   4.946   2.228   1.796
 3724TIP3   OH232730   1.369   2.344   1.296
 3724TIP3    H132731   1.304   2.409   1.322
 3724TIP3    H232732   1.369   2.347   1.200
 3725TIP3   OH232733   6.515   1.698   0.229
 3725TIP3    H132734   6.497   1.791   0.218
 3725TIP3    H232735   6.575   1.694   0.304
 3726TIP3   OH232736   4.981   2.178   1.276
 3726TIP3    H132737   4.985   2.090   1.312
 3726TIP3    H232738   4.983   2.235   1.353
 3727TIP3   OH232739   4.681   6.286   1.651
 3727TIP3    H132740   4.753   6.348   1.640
 3727TIP3    H232741   4.630   6.293   1.571
 3728TIP3   OH232742   1.357   1.237   1.975
 3728TIP3    H132743   1.291   1.300   2.003
 3728TIP3    H232744   1.426   1.290   1.935
 3729TIP3   OH232745   2.048   5.874   1.220
 3729TIP3    H132746   1.973   5.858   1.278
 3729TIP3    H232747   2.010   5.912   1.141
 3730TIP3   OH232748   3.705   3.976   1.817
 3730TIP3    H132749   3.762   3.899   1.815
 3730TIP3    H232750   3.640   3.955   1.884
 3731TIP3   OH232751   0.232   4.003   7.073
 3731TIP3    H132752   0.285   3.925   7.092
 3731TIP3    H232753   0.206   3.993   6.982
 3732TIP3   OH232754   4.533   4.226   0.700
 3732TIP3    H132755   4.475   4.167   0.748
 3732TIP3    H232756   4.517   4.206   0.608
 3733TIP3   OH232757   6.034   2.808   6.612
 3733TIP3    H132758   5.975   2.824   6.538
 3733TIP3    H232759   5.996   2.859   6.683
 3734TIP3   OH232760   6.731   4.847   8.555
 3734TIP3    H132761   6.672   4.808   0.001
 3734TIP3    H232762   6.676   4.856   8.477
 3735TIP3   OH232763   4.628   6.684   1.259
 3735TIP3    H132764   4.580   6.685   1.342
 3735TIP3    H232765   4.692   6.614   1.269
 3736TIP3   OH232766   1.997   1.734   6.402
 3736TIP3    H132767   1.959   1.821   6.415
 3736TIP3    H232768   2.091   1.750   6.394
 3737TIP3   OH232769   1.582   0.860   0.970
 3737TIP3    H132770   1.677   0.847   0.966
 3737TIP3    H232771   1.571   0.955   0.968
 3738TIP3   OH232772   3.305   4.394   0.783
 3738TIP3    H132773   3.368   4.356   0.844
 3738TIP3    H232774   3.329   4.487   0.779
 3739TIP3   OH232775   2.750   1.898   6.503
 3739TIP3    H132776   2.674   1.950   6.530
 3739TIP3    H232777   2.801   1.957   6.448
 3740TIP3   OH232778   3.860   6.242   1.565
 3740TIP3    H132779   3.870   6.148   1.577
 3740TIP3    H232780   3.821   6.273   1.647
 3741TIP3   OH232781   5.407   2.788   1.009
 3741TIP3    H132782   5.466   2.725   1.050
 3741TIP3    H232783   5.357   2.736   0.946
 3742TIP3   OH232784   2.703   3.480   1.888
 3742TIP3    H132785   2.724   3.480   1.794
 3742TIP3    H232786   2.785   3.460   1.931
 3743TIP3   OH232787   0.812   6.011   0.131
 3743TIP3    H132788   0.748   5.950   0.168
 3743TIP3    H232789   0.839   5.970   0.049
 3744TIP3   OH232790   6.212   0.301   8.107
 3744TIP3    H132791   6.168   0.318   8.191
 3744TIP3    H232792   6.202   0.383   8.059
 3745TIP3   OH232793   4.923   6.630   7.948
 3745TIP3    H132794   5.016   6.631   7.972
 3745TIP3    H232795   4.878   6.605   8.029
 3746TIP3   OH232796   2.961   6.688   0.510
 3746TIP3    H132797   3.019   6.672   0.435
 3746TIP3    H232798   2.893   6.746   0.475
 3747TIP3   OH232799   4.680   5.650   7.574
 3747TIP3    H132800   4.605   5.629   7.631
 3747TIP3    H232801   4.743   5.692   7.633
 3748TIP3   OH232802   1.893   3.973   6.618
 3748TIP3    H132803   1.914   4.010   6.532
 3748TIP3    H232804   1.961   4.008   6.676
 3749TIP3   OH232805   4.107   3.982   7.956
 3749TIP3    H132806   4.086   4.060   7.906
 3749TIP3    H232807   4.127   4.014   8.044
 3750TIP3   OH232808   4.539   5.820   8.047
 3750TIP3    H132809   4.620   5.785   8.010
 3750TIP3    H232810   4.470   5.772   8.001
 3751TIP3   OH232811   1.440   3.412   1.431
 3751TIP3    H132812   1.446   3.355   1.355
 3751TIP3    H232813   1.491   3.489   1.407
 3752TIP3   OH232814   1.288   6.876   6.558
 3752TIP3    H132815   1.332   0.061   6.549
 3752TIP3    H232816   1.211   6.896   6.611
 3753TIP3   OH232817   3.507   4.706   0.339
 3753TIP3    H132818   3.509   4.787   0.288
 3753TIP3    H232819   3.595   4.698   0.376
 3754TIP3   OH232820   4.621   2.818   1.577
 3754TIP3    H132821   4.578   2.888   1.626
 3754TIP3    H232822   4.650   2.756   1.644
 3755TIP3   OH232823   2.570   6.393   6.405
 3755TIP3    H132824   2.560   6.488   6.403
 3755TIP3    H232825   2.660   6.379   6.433
 3756TIP3   OH232826   4.642   6.224   8.286
 3756TIP3    H132827   4.572   6.167   8.319
 3756TIP3    H232828   4.718   6.166   8.280
 3757TIP3   OH232829   0.714   6.010   8.437
 3757TIP3    H132830   0.790   6.048   8.393
 3757TIP3    H232831   0.682   5.943   8.376
 3758TIP3   OH232832   2.211   5.778   7.085
 3758TIP3    H132833   2.120   5.772   7.055
 3758TIP3    H232834   2.263   5.782   7.005
 3759TIP3   OH232835   2.756   2.587   7.534
 3759TIP3    H132836   2.784   2.547   7.451
 3759TIP3    H232837   2.728   2.675   7.510
 3760TIP3   OH232838   4.278   3.667   6.292
 3760TIP3    H132839   4.317   3.582   6.273
 3760TIP3    H232840   4.334   3.730   6.246
 3761TIP3   OH232841   2.915   5.127   7.044
 3761TIP3    H132842   2.854   5.062   7.080
 3761TIP3    H232843   2.868   5.210   7.052
 3762TIP3   OH232844   3.062   1.107   8.029
 3762TIP3    H132845   3.043   1.150   8.113
 3762TIP3    H232846   3.019   1.022   8.035
 3763TIP3   OH232847   0.858   5.465   0.806
 3763TIP3    H132848   0.862   5.370   0.808
 3763TIP3    H232849   0.765   5.486   0.807
 3764TIP3   OH232850   1.254   2.048   5.999
 3764TIP3    H132851   1.195   2.047   6.074
 3764TIP3    H232852   1.297   1.962   6.001
 3765TIP3   OH232853   4.140   4.488   7.679
 3765TIP3    H132854   4.198   4.483   7.755
 3765TIP3    H232855   4.156   4.575   7.641
 3766TIP3   OH232856   0.883   0.278   5.949
 3766TIP3    H132857   0.877   0.195   5.994
 3766TIP3    H232858   0.822   0.270   5.875
 3767TIP3   OH232859   6.181   6.367   7.502
 3767TIP3    H132860   6.132   6.290   7.473
 3767TIP3    H232861   6.195   6.418   7.422
 3768TIP3   OH232862   4.355   3.128   0.060
 3768TIP3    H132863   4.275   3.179   0.047
 3768TIP3    H232864   4.378   3.097   8.592
 3769TIP3   OH232865   3.013   6.717   7.456
 3769TIP3    H132866   2.926   6.685   7.477
 3769TIP3    H232867   3.070   6.641   7.468
 3770TIP3   OH232868   1.623   5.665   7.081
 3770TIP3    H132869   1.650   5.602   7.014
 3770TIP3    H232870   1.559   5.619   7.134
 3771TIP3   OH232871   0.891   0.319   0.195
 3771TIP3    H132872   0.977   0.277   0.190
 3771TIP3    H232873   0.900   0.398   0.141
 3772TIP3   OH232874   5.396   4.327   1.991
 3772TIP3    H132875   5.343   4.252   2.017
 3772TIP3    H232876   5.486   4.298   2.002
 3773TIP3   OH232877   2.688   0.877   0.801
 3773TIP3    H132878   2.669   0.853   0.711
 3773TIP3    H232879   2.725   0.964   0.795
 3774TIP3   OH232880   2.923   2.745   1.714
 3774TIP3    H132881   2.934   2.650   1.702
 3774TIP3    H232882   2.991   2.768   1.778
 3775TIP3   OH232883   4.416   3.009   6.208
 3775TIP3    H132884   4.464   2.932   6.179
 3775TIP3    H232885   4.483   3.075   6.226
 3776TIP3   OH232886   5.218   3.846   0.401
 3776TIP3    H132887   5.200   3.913   0.335
 3776TIP3    H232888   5.175   3.767   0.368
 3777TIP3   OH232889   4.356   4.955   7.372
 3777TIP3    H132890   4.418   4.995   7.433
 3777TIP3    H232891   4.385   4.985   7.286
 3778TIP3   OH232892   3.095   3.424   7.324
 3778TIP3    H132893   3.111   3.410   7.418
 3778TIP3    H232894   2.999   3.428   7.317
 3779TIP3   OH232895   1.227   3.382   0.678
 3779TIP3    H132896   1.219   3.424   0.592
 3779TIP3    H232897   1.298   3.430   0.721
 3780TIP3   OH232898   6.605   6.456   0.761
 3780TIP3    H132899   6.591   6.432   0.852
 3780TIP3    H232900   6.523   6.500   0.735
 3781TIP3   OH232901   1.237   3.983   8.078
 3781TIP3    H132902   1.303   4.003   8.145
 3781TIP3    H232903   1.170   4.051   8.090
 3782TIP3   OH232904   4.774   6.196   0.321
 3782TIP3    H132905   4.705   6.259   0.302
 3782TIP3    H232906   4.784   6.200   0.416
 3783TIP3   OH232907   5.971   5.028   7.192
 3783TIP3    H132908   6.055   5.073   7.193
 3783TIP3    H232909   5.990   4.938   7.217
 3784TIP3   OH232910   1.809   4.469   1.720
 3784TIP3    H132911   1.748   4.507   1.784
 3784TIP3    H232912   1.829   4.541   1.660
 3785TIP3   OH232913   0.523   5.307   0.646
 3785TIP3    H132914   0.534   5.286   0.739
 3785TIP3    H232915   0.549   5.228   0.600
 3786TIP3   OH232916   3.951   1.132   8.389
 3786TIP3    H132917   3.992   1.071   8.327
 3786TIP3    H232918   3.873   1.163   8.344
 3787TIP3   OH232919   2.579   3.135   7.716
 3787TIP3    H132920   2.622   3.199   7.659
 3787TIP3    H232921   2.486   3.155   7.709
 3788TIP3   OH232922   2.590   4.854   0.749
 3788TIP3    H132923   2.626   4.828   0.833
 3788TIP3    H232924   2.551   4.940   0.765
 3789TIP3   OH232925   0.777   1.992   6.699
 3789TIP3    H132926   0.818   1.910   6.668
 3789TIP3    H232927   0.851   2.047   6.724
 3790TIP3   OH232928   0.674   6.699   0.029
 3790TIP3    H132929   0.747   6.644   0.055
 3790TIP3    H232930   0.710   6.757   8.581
 3791TIP3   OH232931   6.134   4.388   0.371
 3791TIP3    H132932   6.175   4.404   0.456
 3791TIP3    H232933   6.126   4.293   0.366
 3792TIP3   OH232934   6.352   6.237   6.920
 3792TIP3    H132935   6.348   6.224   7.015
 3792TIP3    H232936   6.295   6.169   6.884
 3793TIP3   OH232937   2.201   6.656   1.238
 3793TIP3    H132938   2.255   6.688   1.166
 3793TIP3    H232939   2.262   6.613   1.297
 3794TIP3   OH232940   3.758   2.850   0.166
 3794TIP3    H132941   3.704   2.798   0.225
 3794TIP3    H232942   3.844   2.853   0.208
 3795TIP3   OH232943   5.463   6.649   7.337
 3795TIP3    H132944   5.386   6.677   7.287
 3795TIP3    H232945   5.535   6.655   7.275
 3796TIP3   OH232946   4.809   3.321   0.921
 3796TIP3    H132947   4.772   3.390   0.976
 3796TIP3    H232948   4.829   3.250   0.982
 3797TIP3   OH232949   3.984   1.398   0.681
 3797TIP3    H132950   3.922   1.469   0.671
 3797TIP3    H232951   4.063   1.440   0.716
 3798TIP3   OH232952   6.784   5.888   8.567
 3798TIP3    H132953   6.798   5.794   8.556
 3798TIP3    H232954   6.786   5.923   8.478
 3799TIP3   OH232955   2.337   3.833   7.780
 3799TIP3    H132956   2.272   3.793   7.722
 3799TIP3    H232957   2.311   3.805   7.868
 3800TIP3   OH232958   6.070   0.028   7.416
 3800TIP3    H132959   6.064   6.888   7.330
 3800TIP3    H232960   6.158   0.008   7.447
 3801TIP3   OH232961   0.087   0.950   1.398
 3801TIP3    H132962   0.072   1.002   1.319
 3801TIP3    H232963   0.092   1.013   1.469
 3802TIP3   OH232964   0.796   2.728   0.434
 3802TIP3    H132965   0.737   2.657   0.409
 3802TIP3    H232966   0.869   2.684   0.477
 3803TIP3   OH232967   5.485   2.367   0.066
 3803TIP3    H132968   5.437   2.305   0.012
 3803TIP3    H232969   5.572   2.371   0.026
 3804TIP3   OH232970   2.529   4.334   0.061
 3804TIP3    H132971   2.584   4.351   0.138
 3804TIP3    H232972   2.587   4.345   8.606
 3805TIP3   OH232973   3.198   2.778   0.161
 3805TIP3    H132974   3.294   2.779   0.159
 3805TIP3    H232975   3.174   2.855   0.212
 3806TIP3   OH232976   3.462   5.221   8.616
 3806TIP3    H132977   3.527   5.214   0.066
 3806TIP3    H232978   3.382   5.183   0.034
 3807TIP3   OH232979   3.686   5.242   2.396
 3807TIP3    H132980   3.765   5.277   2.356
 3807TIP3    H232981   3.626   5.317   2.401
 3808TIP3   OH232982   3.787   5.731   1.573
 3808TIP3    H132983   3.698   5.745   1.605
 3808TIP3    H232984   3.806   5.640   1.596
 3809TIP3   OH232985   4.094   5.131   7.402
 3809TIP3    H132986   4.179   5.090   7.388
 3809TIP3    H232987   4.030   5.067   7.371
 3810TIP3   OH232988   3.650   4.662   1.280
 3810TIP3    H132989   3.652   4.648   1.374
 3810TIP3    H232990   3.587   4.734   1.268
 3811TIP3   OH232991   6.871   5.065   0.088
 3811TIP3    H132992   6.803   5.004   0.059
 3811TIP3    H232993   6.823   5.129   0.142
 3812TIP3   OH232994   0.981   2.491   1.123
 3812TIP3    H132995   1.031   2.570   1.101
 3812TIP3    H232996   0.998   2.432   1.049
 3813TIP3   OH232997   6.485   6.006   8.500
 3813TIP3    H132998   6.567   6.054   8.484
 3813TIP3    H232999   6.499   5.921   8.457
 3814TIP3   OH233000   6.126   3.354   6.732
 3814TIP3    H133001   6.110   3.270   6.689
 3814TIP3    H233002   6.216   3.348   6.765
 3815TIP3   OH233003   6.000   4.711   7.507
 3815TIP3    H133004   6.018   4.645   7.573
 3815TIP3    H233005   6.064   4.780   7.524
 3816TIP3   OH233006   5.117   2.470   2.793
 3816TIP3    H133007   5.123   2.376   2.811
 3816TIP3    H233008   5.070   2.476   2.710
 3817TIP3   OH233009   0.705   4.329   7.022
 3817TIP3    H133010   0.636   4.337   6.956
 3817TIP3    H233011   0.659   4.339   7.105
 3818TIP3   OH233012   2.870   3.022   0.198
 3818TIP3    H133013   2.887   2.928   0.188
 3818TIP3    H233014   2.945   3.054   0.248
 3819TIP3   OH233015   2.387   4.254   0.790
 3819TIP3    H133016   2.291   4.260   0.789
 3819TIP3    H233017   2.414   4.319   0.854
 3820TIP3   OH233018   4.903   1.678   0.841
 3820TIP3    H133019   4.999   1.671   0.835
 3820TIP3    H233020   4.888   1.755   0.894
 3821TIP3   OH233021   1.278   5.150   0.744
 3821TIP3    H133022   1.320   5.159   0.829
 3821TIP3    H233023   1.350   5.137   0.682
 3822TIP3   OH233024   2.160   6.013   7.533
 3822TIP3    H133025   2.180   6.086   7.474
 3822TIP3    H233026   2.210   5.939   7.499
 3823TIP3   OH233027   2.691   3.382   7.599
 3823TIP3    H133028   2.760   3.448   7.593
 3823TIP3    H233029   2.660   3.373   7.509
 3824TIP3   OH233030   4.718   2.705   8.189
 3824TIP3    H133031   4.666   2.659   8.123
 3824TIP3    H233032   4.660   2.773   8.222
 3825TIP3   OH233033   5.853   6.016   2.101
 3825TIP3    H133034   5.939   5.987   2.072
 3825TIP3    H233035   5.799   6.016   2.022
 3826TIP3   OH233036   2.370   4.087   6.817
 3826TIP3    H133037   2.459   4.122   6.821
 3826TIP3    H233038   2.321   4.138   6.882
 3827TIP3   OH233039   4.792   6.768   7.224
 3827TIP3    H133040   4.724   6.832   7.244
 3827TIP3    H233041   4.832   6.801   7.143
 3828TIP3   OH233042   5.905   3.804   6.788
 3828TIP3    H133043   5.841   3.759   6.733
 3828TIP3    H233044   5.985   3.805   6.735
 3829TIP3   OH233045   6.444   5.671   8.364
 3829TIP3    H133046   6.535   5.694   8.346
 3829TIP3    H233047   6.417   5.620   8.288
 3830TIP3   OH233048   0.639   2.839   1.600
 3830TIP3    H133049   0.568   2.838   1.664
 3830TIP3    H233050   0.599   2.807   1.519
 3831TIP3   OH233051   6.321   3.760   0.747
 3831TIP3    H133052   6.303   3.679   0.794
 3831TIP3    H233053   6.306   3.739   0.655
 3832TIP3   OH233054   5.734   6.830   0.429
 3832TIP3    H133055   5.675   6.849   0.356
 3832TIP3    H233056   5.723   0.004   0.489
 3833TIP3   OH233057   2.455   0.490   7.127
 3833TIP3    H133058   2.378   0.497   7.183
 3833TIP3    H233059   2.452   0.567   7.071
 3834TIP3   OH233060   2.479   5.769   7.554
 3834TIP3    H133061   2.402   5.795   7.605
 3834TIP3    H233062   2.453   5.688   7.511
 3835TIP3   OH233063   5.119   5.009   7.652
 3835TIP3    H133064   5.058   5.081   7.635
 3835TIP3    H233065   5.193   5.024   7.593
 3836TIP3   OH233066   3.502   1.844   7.417
 3836TIP3    H133067   3.548   1.927   7.406
 3836TIP3    H233068   3.514   1.798   7.333
 3837TIP3   OH233069   4.292   2.158   0.634
 3837TIP3    H133070   4.307   2.066   0.657
 3837TIP3    H233071   4.285   2.159   0.538
 3838TIP3   OH233072   2.959   0.831   8.388
 3838TIP3    H133073   2.977   0.921   8.417
 3838TIP3    H233074   2.912   0.791   8.461
 3839TIP3   OH233075   3.348   5.440   8.435
 3839TIP3    H133076   3.419   5.391   8.477
 3839TIP3    H233077   3.386   5.469   8.352
 3840TIP3   OH233078   4.621   0.050   1.318
 3840TIP3    H133079   4.613   6.857   1.299
 3840TIP3    H233080   4.564   0.094   1.255
 3841TIP3   OH233081   6.086   1.681   1.642
 3841TIP3    H133082   6.162   1.708   1.590
 3841TIP3    H233083   6.086   1.742   1.716
 3842TIP3   OH233084   1.883   2.695   1.501
 3842TIP3    H133085   1.957   2.652   1.459
 3842TIP3    H233086   1.831   2.624   1.538
 3843TIP3   OH233087   6.791   3.934   8.614
 3843TIP3    H133088   6.709   3.886   8.606
 3843TIP3    H233089   6.784   4.005   8.550
 3844TIP3   OH233090   4.474   5.280   1.276
 3844TIP3    H133091   4.410   5.288   1.348
 3844TIP3    H233092   4.442   5.206   1.224
 3845TIP3   OH233093   5.368   0.109   8.149
 3845TIP3    H133094   5.352   0.014   8.152
 3845TIP3    H233095   5.315   0.139   8.076
 3846TIP3   OH233096   0.773   5.931   6.954
 3846TIP3    H133097   0.688   5.892   6.973
 3846TIP3    H233098   0.798   5.893   6.870
 3847TIP3   OH233099   6.549   4.296   2.304
 3847TIP3    H133100   6.599   4.366   2.262
 3847TIP3    H233101   6.502   4.254   2.232
 3848TIP3   OH233102   3.938   1.536   2.516
 3848TIP3    H133103   3.989   1.468   2.472
 3848TIP3    H233104   3.949   1.518   2.609
 3849TIP3   OH233105   4.804   5.927   8.546
 3849TIP3    H133106   4.816   6.020   8.525
 3849TIP3    H233107   4.800   5.884   8.460
 3850TIP3   OH233108   4.606   1.990   6.391
 3850TIP3    H133109   4.555   1.910   6.391
 3850TIP3    H233110   4.541   2.060   6.392
 3851TIP3   OH233111   0.467   4.469   0.430
 3851TIP3    H133112   0.398   4.455   0.365
 3851TIP3    H233113   0.543   4.425   0.393
 3852TIP3   OH233114   5.543   4.687   0.297
 3852TIP3    H133115   5.516   4.774   0.326
 3852TIP3    H233116   5.637   4.695   0.283
 3853TIP3   OH233117   5.995   0.989   6.695
 3853TIP3    H133118   6.028   1.029   6.614
 3853TIP3    H233119   5.932   0.923   6.666
 3854TIP3   OH233120   4.611   4.399   8.578
 3854TIP3    H133121   4.580   4.436   8.496
 3854TIP3    H233122   4.537   4.410   0.019
 3855TIP3   OH233123   4.538   1.503   7.163
 3855TIP3    H133124   4.447   1.476   7.174
 3855TIP3    H233125   4.563   1.470   7.077
 3856TIP3   OH233126   4.843   3.808   7.679
 3856TIP3    H133127   4.912   3.808   7.746
 3856TIP3    H233128   4.884   3.766   7.603
 3857TIP3   OH233129   1.147   4.299   8.274
 3857TIP3    H133130   1.139   4.366   8.207
 3857TIP3    H233131   1.237   4.309   8.307
 3858TIP3   OH233132   4.940   6.633   6.457
 3858TIP3    H133133   4.928   6.538   6.446
 3858TIP3    H233134   4.852   6.665   6.480
 3859TIP3   OH233135   0.020   1.679   8.324
 3859TIP3    H133136   0.070   1.650   8.247
 3859TIP3    H233137   0.063   1.636   8.398
 3860TIP3   OH233138   2.903   5.392   1.659
 3860TIP3    H133139   2.957   5.317   1.686
 3860TIP3    H233140   2.952   5.434   1.589
 3861TIP3   OH233141   5.916   0.479   7.815
 3861TIP3    H133142   5.830   0.457   7.850
 3861TIP3    H233143   5.932   0.413   7.748
 3862TIP3   OH233144   5.380   5.546   0.678
 3862TIP3    H133145   5.440   5.618   0.659
 3862TIP3    H233146   5.295   5.577   0.646
 3863TIP3   OH233147   0.983   6.089   5.978
 3863TIP3    H133148   0.936   6.125   5.903
 3863TIP3    H233149   0.924   6.024   6.015
 3864TIP3   OH233150   6.782   2.252   8.051
 3864TIP3    H133151   6.712   2.263   7.987
 3864TIP3    H233152   6.823   2.338   8.057
 3865TIP3   OH233153   4.561   6.720   8.184
 3865TIP3    H133154   4.593   6.761   8.104
 3865TIP3    H233155   4.485   6.773   8.210
 3866TIP3   OH233156   5.865   5.410   0.223
 3866TIP3    H133157   5.946   5.462   0.229
 3866TIP3    H233158   5.849   5.381   0.313
 3867TIP3   OH233159   2.701   4.041   1.099
 3867TIP3    H133160   2.631   3.980   1.076
 3867TIP3    H233161   2.747   4.058   1.016
 3868TIP3   OH233162   0.176   5.360   0.905
 3868TIP3    H133163   0.240   5.298   0.939
 3868TIP3    H233164   0.091   5.323   0.931
 3869TIP3   OH233165   4.397   1.572   0.509
 3869TIP3    H133166   4.327   1.637   0.511
 3869TIP3    H233167   4.351   1.488   0.511
 3870TIP3   OH233168   5.519   5.176   8.044
 3870TIP3    H133169   5.542   5.085   8.063
 3870TIP3    H233170   5.560   5.226   8.115
 3871TIP3   OH233171   3.638   1.683   1.025
 3871TIP3    H133172   3.643   1.588   1.020
 3871TIP3    H233173   3.575   1.700   1.095
 3872TIP3   OH233174   0.459   6.642   7.573
 3872TIP3    H133175   0.530   6.664   7.512
 3872TIP3    H233176   0.388   6.703   7.550
 3873TIP3   OH233177   2.045   2.095   1.633
 3873TIP3    H133178   2.024   2.180   1.593
 3873TIP3    H233179   2.136   2.079   1.608
 3874TIP3   OH233180   4.367   5.060   1.163
 3874TIP3    H133181   4.441   5.024   1.114
 3874TIP3    H233182   4.370   5.017   1.248
 3875TIP3   OH233183   1.820   5.341   1.142
 3875TIP3    H133184   1.759   5.381   1.080
 3875TIP3    H233185   1.906   5.365   1.109
 3876TIP3   OH233186   1.031   2.968   7.179
 3876TIP3    H133187   1.095   2.900   7.200
 3876TIP3    H233188   1.059   3.000   7.093
 3877TIP3   OH233189   5.371   3.993   2.447
 3877TIP3    H133190   5.299   4.005   2.510
 3877TIP3    H233191   5.327   3.989   2.362
 3878TIP3   OH233192   6.621   3.655   7.488
 3878TIP3    H133193   6.651   3.741   7.518
 3878TIP3    H233194   6.527   3.654   7.507
 3879TIP3   OH233195   3.539   4.820   1.039
 3879TIP3    H133196   3.526   4.726   1.054
 3879TIP3    H233197   3.498   4.862   1.115
 3880TIP3   OH233198   3.715   2.443   6.751
 3880TIP3    H133199   3.671   2.434   6.836
 3880TIP3    H233200   3.733   2.352   6.724
 3881TIP3   OH233201   0.781   3.382   6.625
 3881TIP3    H133202   0.736   3.298   6.630
 3881TIP3    H233203   0.728   3.434   6.564
 3882TIP3   OH233204   4.162   5.704   1.839
 3882TIP3    H133205   4.143   5.622   1.885
 3882TIP3    H233206   4.140   5.772   1.902
 3883TIP3   OH233207   6.441   6.262   1.451
 3883TIP3    H133208   6.523   6.269   1.402
 3883TIP3    H233209   6.437   6.343   1.502
 3884TIP3   OH233210   0.409   0.131   7.516
 3884TIP3    H133211   0.479   0.069   7.497
 3884TIP3    H233212   0.431   0.167   7.602
 3885TIP3   OH233213   3.397   6.475   0.538
 3885TIP3    H133214   3.343   6.554   0.534
 3885TIP3    H233215   3.435   6.467   0.451
 3886TIP3   OH233216   5.706   6.798   8.150
 3886TIP3    H133217   5.740   6.775   8.237
 3886TIP3    H233218   5.778   6.780   8.090
 3887TIP3   OH233219   6.747   2.732   1.426
 3887TIP3    H133220   6.733   2.666   1.494
 3887TIP3    H233221   6.665   2.734   1.377
 3888TIP3   OH233222   6.696   1.127   8.039
 3888TIP3    H133223   6.753   1.075   8.095
 3888TIP3    H233224   6.685   1.075   7.960
 3889TIP3   OH233225   5.569   6.824   8.477
 3889TIP3    H133226   5.658   6.802   8.451
 3889TIP3    H233227   5.556   0.013   8.444
 3890TIP3   OH233228   5.306   6.651   1.953
 3890TIP3    H133229   5.305   6.733   2.003
 3890TIP3    H233230   5.214   6.627   1.945
 3891TIP3   OH233231   4.710   6.627   0.287
 3891TIP3    H133232   4.633   6.662   0.243
 3891TIP3    H233233   4.704   6.533   0.276
 3892TIP3   OH233234   5.498   4.953   0.333
 3892TIP3    H133235   5.459   5.021   0.278
 3892TIP3    H233236   5.546   5.002   0.400
 3893TIP3   OH233237   2.483   4.576   8.173
 3893TIP3    H133238   2.521   4.661   8.150
 3893TIP3    H233239   2.468   4.533   8.089
 3894TIP3   OH233240   1.256   6.594   1.680
 3894TIP3    H133241   1.286   6.678   1.716
 3894TIP3    H233242   1.170   6.581   1.719
 3895TIP3   OH233243   2.318   1.762   7.946
 3895TIP3    H133244   2.349   1.724   8.028
 3895TIP3    H233245   2.383   1.735   7.881
 3896TIP3   OH233246   3.078   4.110   1.473
 3896TIP3    H133247   3.130   4.138   1.397
 3896TIP3    H233248   2.995   4.156   1.464
 3897TIP3   OH233249   5.130   2.220   0.117
 3897TIP3    H133250   5.208   2.222   0.062
 3897TIP3    H233251   5.159   2.176   0.197
 3898TIP3   OH233252   1.315   0.696   8.350
 3898TIP3    H133253   1.285   0.785   8.334
 3898TIP3    H233254   1.377   0.704   8.422
 3899TIP3   OH233255   3.638   2.890   0.910
 3899TIP3    H133256   3.622   2.977   0.947
 3899TIP3    H233257   3.567   2.877   0.847
 3900TIP3   OH233258   0.271   6.133   8.219
 3900TIP3    H133259   0.305   6.217   8.249
 3900TIP3    H233260   0.250   6.147   8.127
 3901TIP3   OH233261   0.412   0.208   6.345
 3901TIP3    H133262   0.339   0.269   6.352
 3901TIP3    H233263   0.379   0.126   6.383
 3902TIP3   OH233264   3.622   2.421   7.009
 3902TIP3    H133265   3.632   2.402   7.102
 3902TIP3    H233266   3.535   2.388   6.987
 3903TIP3   OH233267   1.375   1.115   2.208
 3903TIP3    H133268   1.447   1.069   2.164
 3903TIP3    H233269   1.340   1.174   2.141
 3904TIP3   OH233270   5.059   0.613   1.749
 3904TIP3    H133271   4.978   0.635   1.794
 3904TIP3    H233272   5.088   0.531   1.790
 3905TIP3   OH233273   4.156   0.782   8.529
 3905TIP3    H133274   4.149   0.873   8.556
 3905TIP3    H233275   4.094   0.736   8.585
 3906TIP3   OH233276   2.388   2.648   1.072
 3906TIP3    H133277   2.299   2.665   1.104
 3906TIP3    H233278   2.440   2.635   1.151
 3907TIP3   OH233279   4.207   3.219   8.125
 3907TIP3    H133280   4.115   3.243   8.115
 3907TIP3    H233281   4.236   3.195   8.037
 3908TIP3   OH233282   4.727   5.108   2.161
 3908TIP3    H133283   4.731   5.020   2.123
 3908TIP3    H233284   4.639   5.139   2.141
 3909TIP3   OH233285   5.866   1.227   7.156
 3909TIP3    H133286   5.797   1.263   7.100
 3909TIP3    H233287   5.915   1.168   7.099
 3910TIP3   OH233288   3.171   1.655   8.561
 3910TIP3    H133289   3.166   1.657   0.037
 3910TIP3    H233290   3.260   1.626   8.542
 3911TIP3   OH233291   1.324   4.584   0.862
 3911TIP3    H133292   1.240   4.620   0.889
 3911TIP3    H233293   1.320   4.583   0.766
 3912TIP3   OH233294   2.527   1.939   7.866
 3912TIP3    H133295   2.596   1.875   7.852
 3912TIP3    H233296   2.573   2.022   7.879
 3913TIP3   OH233297   1.045   5.035   0.470
 3913TIP3    H133298   1.138   5.053   0.456
 3913TIP3    H233299   1.020   4.977   0.398
 3914TIP3   OH233300   3.033   1.075   1.237
 3914TIP3    H133301   3.062   1.047   1.324
 3914TIP3    H233302   3.072   1.161   1.225
 3915TIP3   OH233303   2.842   1.874   0.762
 3915TIP3    H133304   2.908   1.939   0.738
 3915TIP3    H233305   2.890   1.806   0.809
 3916TIP3   OH233306   3.264   1.618   0.280
 3916TIP3    H133307   3.322   1.542   0.270
 3916TIP3    H233308   3.244   1.620   0.374
 3917TIP3   OH233309   6.757   0.143   1.158
 3917TIP3    H133310   6.785   0.155   1.249
 3917TIP3    H233311   6.815   0.076   1.124
 3918TIP3   OH233312   4.728   1.429   6.285
 3918TIP3    H133313   4.782   1.460   6.358
 3918TIP3    H233314   4.757   1.480   6.210
 3919TIP3   OH233315   0.634   0.229   0.161
 3919TIP3    H133316   0.652   0.147   0.114
 3919TIP3    H233317   0.715   0.279   0.153
 3920TIP3   OH233318   4.389   2.289   0.855
 3920TIP3    H133319   4.363   2.214   0.803
 3920TIP3    H233320   4.467   2.260   0.902
 3921TIP3   OH233321   5.744   5.521   0.589
 3921TIP3    H133322   5.697   5.458   0.534
 3921TIP3    H233323   5.678   5.585   0.615
 3922TIP3   OH233324   4.602   0.644   1.647
 3922TIP3    H133325   4.623   0.617   1.737
 3922TIP3    H233326   4.509   0.664   1.649
 3923TIP3   OH233327   2.453   0.806   8.476
 3923TIP3    H133328   2.365   0.795   8.439
 3923TIP3    H233329   2.485   0.717   8.488
 3924TIP3   OH233330   2.792   3.822   8.132
 3924TIP3    H133331   2.700   3.825   8.158
 3924TIP3    H233332   2.840   3.833   8.214
 3925TIP3   OH233333   0.890   3.922   0.639
 3925TIP3    H133334   0.878   3.834   0.676
 3925TIP3    H233335   0.809   3.968   0.660
 3926TIP3   OH233336   3.779   6.156   7.108
 3926TIP3    H133337   3.780   6.127   7.199
 3926TIP3    H233338   3.709   6.222   7.105
 3927TIP3   OH233339   2.206   5.883   1.775
 3927TIP3    H133340   2.176   5.827   1.846
 3927TIP3    H233341   2.173   5.840   1.695
 3928TIP3   OH233342   5.183   0.213   1.340
 3928TIP3    H133343   5.123   0.199   1.413
 3928TIP3    H233344   5.187   0.128   1.296
 3929TIP3   OH233345   4.747   6.214   8.572
 3929TIP3    H133346   4.764   6.297   8.617
 3929TIP3    H233347   4.681   6.171   0.007
 3930TIP3   OH233348   1.266   3.905   7.629
 3930TIP3    H133349   1.209   3.962   7.681
 3930TIP3    H233350   1.355   3.932   7.653
 3931TIP3   OH233351   2.434   1.052   0.652
 3931TIP3    H133352   2.444   1.062   0.747
 3931TIP3    H233353   2.455   1.138   0.617
 3932TIP3   OH233354   3.051   4.884   1.608
 3932TIP3    H133355   2.985   4.942   1.570
 3932TIP3    H233356   3.003   4.833   1.673
 3933TIP3   OH233357   2.557   1.314   7.612
 3933TIP3    H133358   2.498   1.240   7.596
 3933TIP3    H233359   2.520   1.385   7.559
 3934TIP3   OH233360   4.646   5.395   0.170
 3934TIP3    H133361   4.682   5.472   0.126
 3934TIP3    H233362   4.565   5.376   0.123
 3935TIP3   OH233363   4.884   1.310   7.244
 3935TIP3    H133364   4.876   1.405   7.247
 3935TIP3    H233365   4.889   1.284   7.336
 3936TIP3   OH233366   0.623   5.090   8.456
 3936TIP3    H133367   0.618   5.184   8.443
 3936TIP3    H233368   0.716   5.072   8.466
 3937TIP3   OH233369   6.516   3.003   1.336
 3937TIP3    H133370   6.490   2.967   1.421
 3937TIP3    H233371   6.485   3.094   1.338
 3938TIP3   OH233372   4.377   4.798   1.318
 3938TIP3    H133373   4.413   4.727   1.372
 3938TIP3    H233374   4.426   4.794   1.236
 3939TIP3   OH233375   2.359   0.424   0.253
 3939TIP3    H133376   2.301   0.358   0.292
 3939TIP3    H233377   2.447   0.389   0.264
 3940TIP3   OH233378   5.262   1.717   8.476
 3940TIP3    H133379   5.273   1.643   8.417
 3940TIP3    H233380   5.174   1.751   8.455
 3941TIP3   OH233381   6.200   3.669   2.017
 3941TIP3    H133382   6.243   3.751   2.040
 3941TIP3    H233383   6.270   3.603   2.021
 3942TIP3   OH233384   4.823   4.967   1.462
 3942TIP3    H133385   4.846   4.968   1.555
 3942TIP3    H233386   4.780   4.883   1.448
 3943TIP3   OH233387   6.832   5.081   7.528
 3943TIP3    H133388   6.739   5.096   7.515
 3943TIP3    H233389   6.871   5.098   7.442
 3944TIP3   OH233390   0.502   1.357   6.490
 3944TIP3    H133391   0.509   1.364   6.395
 3944TIP3    H233392   0.501   1.448   6.520
 3945TIP3   OH233393   5.758   1.961   1.799
 3945TIP3    H133394   5.789   2.051   1.807
 3945TIP3    H233395   5.750   1.931   1.890
 3946TIP3   OH233396   2.621   1.206   8.398
 3946TIP3    H133397   2.609   1.263   8.321
 3946TIP3    H233398   2.603   1.118   8.365
 3947TIP3   OH233399   0.913   0.567   0.046
 3947TIP3    H133400   0.961   0.643   0.080
 3947TIP3    H233401   0.821   0.595   0.046
 3948TIP3   OH233402   4.973   0.068   7.625
 3948TIP3    H133403   5.059   0.060   7.666
 3948TIP3    H233404   4.935   6.881   7.633
 3949TIP3   OH233405   0.275   1.317   7.966
 3949TIP3    H133406   0.240   1.341   8.052
 3949TIP3    H233407   0.229   1.237   7.943
 3950TIP3   OH233408   3.870   4.429   0.956
 3950TIP3    H133409   3.879   4.521   0.933
 3950TIP3    H233410   3.814   4.392   0.888
 3951TIP3   OH233411   2.102   0.279   6.477
 3951TIP3    H133412   2.008   0.285   6.498
 3951TIP3    H233413   2.105   0.228   6.396
 3952TIP3   OH233414   1.188   2.298   6.865
 3952TIP3    H133415   1.129   2.362   6.826
 3952TIP3    H233416   1.265   2.299   6.808
 3953TIP3   OH233417   2.042   0.672   2.264
 3953TIP3    H133418   2.033   0.758   2.305
 3953TIP3    H233419   1.974   0.671   2.196
 3954TIP3   OH233420   5.081   0.696   8.144
 3954TIP3    H133421   5.068   0.601   8.150
 3954TIP3    H233422   5.161   0.712   8.195
 3955TIP3   OH233423   5.815   4.113   7.650
 3955TIP3    H133424   5.759   4.181   7.688
 3955TIP3    H233425   5.870   4.084   7.723
 3956TIP3   OH233426   3.139   3.744   0.999
 3956TIP3    H133427   3.177   3.795   1.070
 3956TIP3    H233428   3.135   3.805   0.925
 3957TIP3   OH233429   2.215   0.422   7.631
 3957TIP3    H133430   2.277   0.426   7.704
 3957TIP3    H233431   2.185   0.512   7.620
 3958TIP3   OH233432   3.739   0.945   6.558
 3958TIP3    H133433   3.757   0.908   6.472
 3958TIP3    H233434   3.787   0.889   6.619
 3959TIP3   OH233435   2.207   3.444   8.016
 3959TIP3    H133436   2.138   3.483   8.071
 3959TIP3    H233437   2.159   3.392   7.951
 3960TIP3   OH233438   4.748   3.291   0.158
 3960TIP3    H133439   4.778   3.367   0.208
 3960TIP3    H233440   4.816   3.276   0.093
 3961TIP3   OH233441   0.309   3.407   7.766
 3961TIP3    H133442   0.335   3.430   7.855
 3961TIP3    H233443   0.387   3.423   7.713
 3962TIP3   OH233444   3.171   6.777   8.117
 3962TIP3    H133445   3.138   6.688   8.106
 3962TIP3    H233446   3.264   6.771   8.097
 3963TIP3   OH233447   6.529   4.432   6.746
 3963TIP3    H133448   6.561   4.518   6.773
 3963TIP3    H233449   6.455   4.452   6.688
 3964TIP3   OH233450   5.546   5.479   6.666
 3964TIP3    H133451   5.502   5.409   6.618
 3964TIP3    H233452   5.636   5.477   6.633
 3965TIP3   OH233453   5.198   2.774   7.114
 3965TIP3    H133454   5.287   2.798   7.138
 3965TIP3    H233455   5.205   2.685   7.078
 3966TIP3   OH233456   3.013   5.432   8.003
 3966TIP3    H133457   2.952   5.371   7.962
 3966TIP3    H233458   2.959   5.489   8.057
 3967TIP3   OH233459   0.706   3.860   5.971
 3967TIP3    H133460   0.746   3.857   6.058
 3967TIP3    H233461   0.770   3.904   5.916
 3968TIP3   OH233462   0.360   4.755   6.960
 3968TIP3    H133463   0.455   4.750   6.952
 3968TIP3    H233464   0.328   4.742   6.871
 3969TIP3   OH233465   1.130   5.435   8.502
 3969TIP3    H133466   1.104   5.521   8.469
 3969TIP3    H233467   1.220   5.446   8.533
 3970TIP3   OH233468   4.347   5.924   0.815
 3970TIP3    H133469   4.316   5.840   0.783
 3970TIP3    H233470   4.267   5.974   0.833
 3971TIP3   OH233471   1.431   1.914   7.611
 3971TIP3    H133472   1.355   1.877   7.655
 3971TIP3    H233473   1.495   1.842   7.610
 3972TIP3   OH233474   4.468   6.743   0.967
 3972TIP3    H133475   4.535   6.674   0.966
 3972TIP3    H233476   4.517   6.823   0.984
 3973TIP3   OH233477   2.599   0.735   8.090
 3973TIP3    H133478   2.567   0.650   8.120
 3973TIP3    H233479   2.520   0.787   8.075
 3974TIP3   OH233480   0.520   2.256   2.136
 3974TIP3    H133481   0.437   2.302   2.145
 3974TIP3    H233482   0.567   2.276   2.217
 3975TIP3   OH233483   4.678   2.595   1.757
 3975TIP3    H133484   4.696   2.535   1.830
 3975TIP3    H233485   4.761   2.640   1.743
 3976TIP3   OH233486   6.891   5.326   8.220
 3976TIP3    H133487   6.841   5.245   8.221
 3976TIP3    H233488   0.028   5.333   8.308
 3977TIP3   OH233489   3.041   3.136   7.758
 3977TIP3    H133490   3.003   3.049   7.744
 3977TIP3    H233491   3.119   3.119   7.812
 3978TIP3   OH233492   1.360   4.779   7.611
 3978TIP3    H133493   1.368   4.773   7.516
 3978TIP3    H233494   1.294   4.847   7.626
 3979TIP3   OH233495   6.032   6.557   6.359
 3979TIP3    H133496   6.123   6.530   6.376
 3979TIP3    H233497   6.019   6.539   6.266
 3980TIP3   OH233498   5.431   5.719   8.415
 3980TIP3    H133499   5.394   5.753   8.496
 3980TIP3    H233500   5.434   5.624   8.428
 3981TIP3   OH233501   2.862   4.577   8.309
 3981TIP3    H133502   2.906   4.611   8.387
 3981TIP3    H233503   2.802   4.510   8.342
 3982TIP3   OH233504   4.624   2.193   1.984
 3982TIP3    H133505   4.679   2.272   1.980
 3982TIP3    H233506   4.681   2.126   2.021
 3983TIP3   OH233507   3.237   4.920   7.454
 3983TIP3    H133508   3.219   4.845   7.510
 3983TIP3    H233509   3.258   4.991   7.515
 3984TIP3   OH233510   1.351   4.775   7.056
 3984TIP3    H133511   1.420   4.708   7.052
 3984TIP3    H233512   1.349   4.812   6.968
 3985TIP3   OH233513   3.089   3.639   7.027
 3985TIP3    H133514   3.016   3.691   7.061
 3985TIP3    H233515   3.128   3.694   6.959
 3986TIP3   OH233516   1.708   4.145   8.548
 3986TIP3    H133517   1.662   4.194   8.616
 3986TIP3    H233518   1.640   4.094   8.504
 3987TIP3   OH233519   4.433   2.466   1.960
 3987TIP3    H133520   4.457   2.507   2.043
 3987TIP3    H233521   4.414   2.540   1.902
 3988TIP3   OH233522   5.054   1.134   8.326
 3988TIP3    H133523   5.010   1.210   8.288
 3988TIP3    H233524   5.061   1.154   8.420
 3989TIP3   OH233525   1.049   4.494   0.216
 3989TIP3    H133526   1.120   4.450   0.262
 3989TIP3    H233527   1.053   4.460   0.126
 3990TIP3   OH233528   3.280   3.794   1.383
 3990TIP3    H133529   3.239   3.818   1.466
 3990TIP3    H233530   3.223   3.832   1.316
 3991TIP3   OH233531   6.621   2.522   0.409
 3991TIP3    H133532   6.549   2.491   0.353
 3991TIP3    H233533   6.581   2.536   0.494
 3992TIP3   OH233534   5.438   1.536   7.880
 3992TIP3    H133535   5.478   1.454   7.852
 3992TIP3    H233536   5.387   1.566   7.805
 3993TIP3   OH233537   6.353   4.171   1.443
 3993TIP3    H133538   6.394   4.248   1.403
 3993TIP3    H233539   6.266   4.167   1.403
 3994TIP3   OH233540   3.713   2.057   0.374
 3994TIP3    H133541   3.657   2.091   0.444
 3994TIP3    H233542   3.768   1.991   0.416
 3995TIP3   OH233543   1.707   5.937   2.215
 3995TIP3    H133544   1.780   5.894   2.171
 3995TIP3    H233545   1.652   5.971   2.144
 3996TIP3   OH233546   6.450   0.406   0.873
 3996TIP3    H133547   6.369   0.427   0.827
 3996TIP3    H233548   6.519   0.448   0.822
 3997TIP3   OH233549   3.623   2.357   2.382
 3997TIP3    H133550   3.706   2.403   2.367
 3997TIP3    H233551   3.558   2.427   2.387
 3998TIP3   OH233552   5.672   2.072   2.440
 3998TIP3    H133553   5.607   2.112   2.497
 3998TIP3    H233554   5.622   2.039   2.365
 3999TIP3   OH233555   3.089   5.202   1.765
 3999TIP3    H133556   3.060   5.115   1.790
 3999TIP3    H233557   3.159   5.223   1.826
 4000TIP3   OH233558   4.850   3.845   8.160
 4000TIP3    H133559   4.807   3.816   8.079
 4000TIP3    H233560   4.921   3.783   8.173
 4001TIP3   OH233561   3.187   0.016   7.598
 4001TIP3    H133562   3.232   0.021   7.513
 4001TIP3    H233563   3.111   6.861   7.581
 4002TIP3   OH233564   3.598   1.358   7.355
 4002TIP3    H133565   3.676   1.396   7.395
 4002TIP3    H233566   3.592   1.270   7.391
 4003TIP3   OH233567   0.639   4.733   6.881
 4003TIP3    H133568   0.608   4.713   6.793
 4003TIP3    H233569   0.706   4.667   6.899
 4004TIP3   OH233570   0.078   0.688   0.800
 4004TIP3    H133571   0.013   0.676   0.869
 4004TIP3    H233572   0.084   0.603   0.757
 4005TIP3   OH233573   4.411   5.681   2.596
 4005TIP3    H133574   4.373   5.769   2.589
 4005TIP3    H233575   4.340   5.626   2.629
 4006TIP3   OH233576   6.273   1.473   8.602
 4006TIP3    H133577   6.326   1.393   8.599
 4006TIP3    H233578   6.270   1.496   0.075
 4007TIP3   OH233579   1.520   4.549   7.075
 4007TIP3    H133580   1.544   4.590   7.158
 4007TIP3    H233581   1.442   4.498   7.096
 4008TIP3   OH233582   6.808   3.455   0.541
 4008TIP3    H133583   6.896   3.459   0.503
 4008TIP3    H233584   6.756   3.516   0.488
 4009TIP3   OH233585   2.957   4.647   1.014
 4009TIP3    H133586   2.902   4.709   0.965
 4009TIP3    H233587   2.956   4.679   1.104
 4010TIP3   OH233588   4.022   3.398   1.431
 4010TIP3    H133589   4.080   3.374   1.504
 4010TIP3    H233590   4.053   3.345   1.357
 4011TIP3   OH233591   2.779   1.336   8.595
 4011TIP3    H133592   2.731   1.307   8.517
 4011TIP3    H233593   2.737   1.291   0.048
 4012TIP3   OH233594   0.946   5.142   7.686
 4012TIP3    H133595   1.010   5.129   7.616
 4012TIP3    H233596   0.972   5.081   7.754
 4013TIP3   OH233597   4.125   1.827   8.106
 4013TIP3    H133598   4.050   1.819   8.046
 4013TIP3    H233599   4.158   1.916   8.092
 4014TIP3   OH233600   0.736   2.848   7.979
 4014TIP3    H133601   0.741   2.796   8.059
 4014TIP3    H233602   0.820   2.833   7.935
 4015TIP3   OH233603   5.059   0.244   7.173
 4015TIP3    H133604   5.125   0.219   7.237
 4015TIP3    H233605   5.107   0.252   7.090
 4016TIP3   OH233606   5.813   6.832   7.444
 4016TIP3    H133607   5.767   0.014   7.434
 4016TIP3    H233608   5.905   6.857   7.454
 4017TIP3   OH233609   5.312   1.727   0.122
 4017TIP3    H133610   5.297   1.743   0.029
 4017TIP3    H233611   5.307   1.632   0.132
 4018TIP3   OH233612   0.788   4.622   0.596
 4018TIP3    H133613   0.743   4.548   0.637
 4018TIP3    H233614   0.802   4.594   0.506
 4019TIP3   OH233615   2.023   4.777   0.273
 4019TIP3    H133616   1.935   4.754   0.303
 4019TIP3    H233617   2.072   4.797   0.353
 4020TIP3   OH233618   3.210   5.280   8.131
 4020TIP3    H133619   3.204   5.267   8.226
 4020TIP3    H233620   3.124   5.311   8.106
 4021TIP3   OH233621   2.168   3.527   1.089
 4021TIP3    H133622   2.088   3.483   1.118
 4021TIP3    H233623   2.163   3.614   1.129
 4022TIP3   OH233624   6.144   0.538   7.952
 4022TIP3    H133625   6.141   0.627   7.989
 4022TIP3    H233626   6.055   0.522   7.921
 4023TIP3   OH233627   0.884   0.494   8.150
 4023TIP3    H133628   0.864   0.457   8.236
 4023TIP3    H233629   0.906   0.585   8.168
 4024TIP3   OH233630   5.036   4.273   8.234
 4024TIP3    H133631   4.959   4.280   8.291
 4024TIP3    H233632   5.079   4.358   8.241
 4025TIP3   OH233633   0.640   4.234   7.725
 4025TIP3    H133634   0.624   4.160   7.666
 4025TIP3    H233635   0.732   4.225   7.751
 4026TIP3   OH233636   2.724   0.165   0.446
 4026TIP3    H133637   2.713   0.132   0.535
 4026TIP3    H233638   2.816   0.190   0.440
 4027TIP3   OH233639   6.355   6.665   0.312
 4027TIP3    H133640   6.432   6.711   0.345
 4027TIP3    H233641   6.383   6.574   0.302
 4028TIP3   OH233642   1.690   0.937   1.316
 4028TIP3    H133643   1.773   0.913   1.275
 4028TIP3    H233644   1.637   0.970   1.244
 4029TIP3   OH233645   5.406   0.938   1.182
 4029TIP3    H133646   5.422   0.847   1.157
 4029TIP3    H233647   5.440   0.944   1.272
 4030TIP3   OH233648   0.653   4.053   0.721
 4030TIP3    H133649   0.645   4.051   0.816
 4030TIP3    H233650   0.611   4.135   0.695
 4031TIP3   OH233651   5.853   5.264   1.405
 4031TIP3    H133652   5.826   5.291   1.317
 4031TIP3    H233653   5.947   5.246   1.397
 4032TIP3   OH233654   2.381   3.117   0.718
 4032TIP3    H133655   2.345   3.195   0.675
 4032TIP3    H233656   2.476   3.125   0.708
 4033TIP3   OH233657   5.965   2.290   0.006
 4033TIP3    H133658   6.033   2.304   8.559
 4033TIP3    H233659   5.929   2.204   8.604
 4034TIP3   OH233660   5.971   5.753   1.082
 4034TIP3    H133661   5.952   5.750   0.988
 4034TIP3    H233662   5.938   5.838   1.110
 4035TIP3   OH233663   0.899   4.897   8.114
 4035TIP3    H133664   0.952   4.919   8.038
 4035TIP3    H233665   0.818   4.947   8.101
 4036TIP3   OH233666   5.166   1.354   7.995
 4036TIP3    H133667   5.209   1.270   8.013
 4036TIP3    H233668   5.075   1.340   8.021
 4037TIP3   OH233669   1.101   0.766   6.841
 4037TIP3    H133670   1.177   0.745   6.896
 4037TIP3    H233671   1.127   0.844   6.793
 4038TIP3   OH233672   0.925   5.699   6.268
 4038TIP3    H133673   0.924   5.732   6.179
 4038TIP3    H233674   0.850   5.638   6.272
 4039TIP3   OH233675   1.980   2.996   0.719
 4039TIP3    H133676   1.982   3.085   0.684
 4039TIP3    H233677   2.043   2.947   0.667
 4040TIP3   OH233678   1.869   4.949   1.813
 4040TIP3    H133679   1.790   4.906   1.846
 4040TIP3    H233680   1.867   4.931   1.719
 4041TIP3   OH233681   4.520   2.629   1.148
 4041TIP3    H133682   4.541   2.669   1.064
 4041TIP3    H233683   4.515   2.702   1.210
 4042TIP3   OH233684   4.296   0.453   7.230
 4042TIP3    H133685   4.376   0.456   7.177
 4042TIP3    H233686   4.226   0.437   7.167
 4043TIP3   OH233687   1.483   1.486   0.888
 4043TIP3    H133688   1.500   1.568   0.840
 4043TIP3    H233689   1.392   1.493   0.915
 4044TIP3   OH233690   1.368   6.070   7.085
 4044TIP3    H133691   1.294   6.112   7.130
 4044TIP3    H233692   1.422   6.034   7.156
 4045TIP3   OH233693   0.822   1.694   7.721
 4045TIP3    H133694   0.766   1.721   7.794
 4045TIP3    H233695   0.815   1.766   7.658
 4046TIP3   OH233696   0.666   2.508   0.669
 4046TIP3    H133697   0.611   2.584   0.650
 4046TIP3    H233698   0.746   2.545   0.706
 4047TIP3   OH233699   5.515   1.382   7.240
 4047TIP3    H133700   5.533   1.317   7.308
 4047TIP3    H233701   5.501   1.464   7.287
 4048TIP3   OH233702   5.180   5.643   6.843
 4048TIP3    H133703   5.145   5.566   6.800
 4048TIP3    H233704   5.236   5.685   6.778
 4049TIP3   OH233705   0.636   2.972   8.526
 4049TIP3    H133706   0.705   3.001   8.586
 4049TIP3    H233707   0.683   2.937   8.450
 4050TIP3   OH233708   1.884   4.568   7.138
 4050TIP3    H133709   1.933   4.647   7.114
 4050TIP3    H233710   1.830   4.549   7.062
 4051TIP3   OH233711   4.306   0.389   8.195
 4051TIP3    H133712   4.212   0.374   8.206
 4051TIP3    H233713   4.316   0.484   8.206
 4052TIP3   OH233714   3.917   0.241   8.617
 4052TIP3    H133715   3.979   0.269   0.064
 4052TIP3    H233716   3.958   0.265   8.534
 4053TIP3   OH233717   6.585   0.774   0.753
 4053TIP3    H133718   6.542   0.830   0.817
 4053TIP3    H233719   6.557   0.807   0.668
 4054TIP3   OH233720   4.958   1.926   1.407
 4054TIP3    H133721   4.892   1.865   1.441
 4054TIP3    H233722   5.020   1.869   1.360
 4055TIP3   OH233723   3.562   3.408   7.488
 4055TIP3    H133724   3.484   3.405   7.432
 4055TIP3    H233725   3.528   3.427   7.575
 4056TIP3   OH233726   5.500   3.283   7.230
 4056TIP3    H133727   5.556   3.214   7.194
 4056TIP3    H233728   5.509   3.355   7.168
 4057TIP3   OH233729   5.656   4.738   7.102
 4057TIP3    H133730   5.665   4.643   7.098
 4057TIP3    H233731   5.635   4.763   7.012
 4058TIP3   OH233732   6.420   6.117   0.418
 4058TIP3    H133733   6.394   6.144   0.329
 4058TIP3    H233734   6.504   6.072   0.406
 4059TIP3   OH233735   1.017   6.623   1.276
 4059TIP3    H133736   1.052   6.564   1.210
 4059TIP3    H233737   0.927   6.640   1.249
 4060TIP3   OH233738   6.529   6.039   5.967
 4060TIP3    H133739   6.499   6.064   5.879
 4060TIP3    H233740   6.475   5.964   5.990
 4061TIP3   OH233741   4.109   2.609   1.468
 4061TIP3    H133742   4.164   2.666   1.522
 4061TIP3    H233743   4.161   2.530   1.455
 4062TIP3   OH233744   2.937   1.011   7.407
 4062TIP3    H133745   2.982   0.993   7.490
 4062TIP3    H233746   2.969   0.944   7.347
 4063TIP3   OH233747   2.541   0.884   6.758
 4063TIP3    H133748   2.454   0.899   6.795
 4063TIP3    H233749   2.542   0.791   6.737
 4064TIP3   OH233750   5.393   5.728   6.714
 4064TIP3    H133751   5.450   5.651   6.719
 4064TIP3    H233752   5.453   5.802   6.704
 4065TIP3   OH233753   6.357   3.361   2.375
 4065TIP3    H133754   6.419   3.289   2.364
 4065TIP3    H233755   6.294   3.328   2.439
 4066TIP3   OH233756   1.038   0.365   1.014
 4066TIP3    H133757   1.037   0.367   0.919
 4066TIP3    H233758   1.043   0.457   1.041
 4067TIP3   OH233759   0.678   0.369   7.617
 4067TIP3    H133760   0.585   0.386   7.633
 4067TIP3    H233761   0.725   0.432   7.672
 4068TIP3   OH233762   4.302   1.099   8.300
 4068TIP3    H133763   4.376   1.113   8.360
 4068TIP3    H233764   4.301   1.177   8.245
 4069TIP3   OH233765   4.676   3.037   1.809
 4069TIP3    H133766   4.611   3.081   1.755
 4069TIP3    H233767   4.760   3.060   1.769
 4070TIP3   OH233768   2.230   5.376   0.613
 4070TIP3    H133769   2.221   5.471   0.621
 4070TIP3    H233770   2.203   5.357   0.523
 4071TIP3   OH233771   3.877   2.206   2.503
 4071TIP3    H133772   3.919   2.261   2.437
 4071TIP3    H233773   3.949   2.182   2.563
 4072TIP3   OH233774   1.689   0.403   7.563
 4072TIP3    H133775   1.612   0.347   7.565
 4072TIP3    H233776   1.686   0.446   7.477
 4073TIP3   OH233777   1.179   4.716   6.726
 4073TIP3    H133778   1.225   4.791   6.763
 4073TIP3    H233779   1.244   4.645   6.728
 4074TIP3   OH233780   0.984   5.687   0.864
 4074TIP3    H133781   0.894   5.719   0.870
 4074TIP3    H233782   0.977   5.593   0.876
 4075TIP3   OH233783   2.706   5.098   8.150
 4075TIP3    H133784   2.722   5.179   8.102
 4075TIP3    H233785   2.621   5.111   8.193
 4076TIP3   OH233786   6.696   0.045   7.052
 4076TIP3    H133787   6.708   0.138   7.069
 4076TIP3    H233788   6.612   0.024   7.091
 4077TIP3   OH233789   5.379   6.684   0.293
 4077TIP3    H133790   5.329   6.670   0.373
 4077TIP3    H233791   5.431   6.763   0.312
 4078TIP3   OH233792   2.726   1.126   8.079
 4078TIP3    H133793   2.697   1.062   8.145
 4078TIP3    H233794   2.798   1.173   8.122
 4079TIP3   OH233795   2.520   0.984   7.171
 4079TIP3    H133796   2.488   1.018   7.255
 4079TIP3    H233797   2.462   0.910   7.152
 4080TIP3   OH233798   6.074   6.421   0.524
 4080TIP3    H133799   6.015   6.496   0.513
 4080TIP3    H233800   6.021   6.356   0.570
 4081TIP3   OH233801   4.494   1.790   2.523
 4081TIP3    H133802   4.444   1.852   2.469
 4081TIP3    H233803   4.475   1.816   2.613
 4082TIP3   OH233804   4.091   3.657   0.726
 4082TIP3    H133805   4.087   3.583   0.787
 4082TIP3    H233806   4.051   3.729   0.774
 4083TIP3   OH233807   1.148   0.605   7.914
 4083TIP3    H133808   1.107   0.526   7.880
 4083TIP3    H233809   1.088   0.636   7.981
 4084TIP3   OH233810   1.562   3.820   8.579
 4084TIP3    H133811   1.538   3.856   8.493
 4084TIP3    H233812   1.613   3.890   0.000
 4085TIP3   OH233813   6.406   4.096   1.162
 4085TIP3    H133814   6.419   4.038   1.237
 4085TIP3    H233815   6.328   4.061   1.118
 4086TIP3   OH233816   3.805   2.450   1.095
 4086TIP3    H133817   3.850   2.481   1.175
 4086TIP3    H233818   3.826   2.517   1.030
 4087TIP3   OH233819   5.811   3.284   7.878
 4087TIP3    H133820   5.818   3.207   7.935
 4087TIP3    H233821   5.899   3.321   7.878
 4088TIP3   OH233822   3.950   5.763   6.920
 4088TIP3    H133823   3.874   5.821   6.912
 4088TIP3    H233824   3.937   5.716   7.002
 4089TIP3   OH233825   1.137   0.094   2.278
 4089TIP3    H133826   1.214   0.037   2.269
 4089TIP3    H233827   1.063   0.036   2.258
 4090TIP3   OH233828   2.602   2.340   0.197
 4090TIP3    H133829   2.588   2.253   0.234
 4090TIP3    H233830   2.639   2.322   0.110
 4091TIP3   OH233831   0.082   5.733   8.137
 4091TIP3    H133832   0.011   5.795   8.127
 4091TIP3    H233833   0.094   5.725   8.232
 4092TIP3   OH233834   0.055   1.607   0.763
 4092TIP3    H133835   0.076   1.699   0.754
 4092TIP3    H233836   6.860   1.604   0.770
 4093TIP3   OH233837   1.303   5.053   7.738
 4093TIP3    H133838   1.366   5.117   7.770
 4093TIP3    H233839   1.305   4.982   7.803
 4094TIP3   OH233840   6.346   6.463   7.910
 4094TIP3    H133841   6.365   6.369   7.909
 4094TIP3    H233842   6.382   6.494   7.993
 4095TIP3   OH233843   2.219   3.511   1.358
 4095TIP3    H133844   2.213   3.460   1.439
 4095TIP3    H233845   2.179   3.456   1.291
 4096TIP3   OH233846   0.814   1.572   0.045
 4096TIP3    H133847   0.739   1.628   0.066
 4096TIP3    H233848   0.890   1.622   0.074
 4097TIP3   OH233849   0.011   6.375   7.481
 4097TIP3    H133850   0.058   6.408   7.404
 4097TIP3    H233851   6.857   6.303   7.447
 4098TIP3   OH233852   0.630   5.022   1.067
 4098TIP3    H133853   0.549   4.975   1.083
 4098TIP3    H233854   0.645   5.073   1.146
 4099TIP3   OH233855   4.713   3.355   1.599
 4099TIP3    H133856   4.625   3.325   1.622
 4099TIP3    H233857   4.756   3.371   1.683
 4100TIP3   OH233858   2.727   3.344   7.923
 4100TIP3    H133859   2.695   3.281   7.858
 4100TIP3    H233860   2.796   3.296   7.970
 4101TIP3   OH233861   2.152   6.247   7.404
 4101TIP3    H133862   2.086   6.299   7.450
 4101TIP3    H233863   2.218   6.311   7.377
 4102TIP3   OH233864   1.714   3.711   7.525
 4102TIP3    H133865   1.636   3.736   7.475
 4102TIP3    H233866   1.687   3.718   7.617
 4103TIP3   OH233867   0.472   0.963   8.222
 4103TIP3    H133868   0.439   0.942   8.134
 4103TIP3    H233869   0.408   0.924   8.282
 4104TIP3   OH233870   5.706   5.111   7.230
 4104TIP3    H133871   5.665   5.048   7.289
 4104TIP3    H233872   5.792   5.074   7.211
 4105TIP3   OH233873   4.633   3.903   0.969
 4105TIP3    H133874   4.669   3.839   0.907
 4105TIP3    H233875   4.561   3.857   1.012
 4106TIP3   OH233876   3.849   5.487   1.583
 4106TIP3    H133877   3.794   5.466   1.507
 4106TIP3    H233878   3.800   5.452   1.658
 4107TIP3   OH233879   3.834   1.806   8.466
 4107TIP3    H133880   3.841   1.894   8.430
 4107TIP3    H233881   3.868   1.814   8.555
 4108TIP3   OH233882   4.869   5.912   1.912
 4108TIP3    H133883   4.890   5.930   2.004
 4108TIP3    H233884   4.937   5.850   1.885
 4109TIP3   OH233885   4.528   0.115   0.131
 4109TIP3    H133886   4.533   0.144   0.040
 4109TIP3    H233887   4.575   0.183   0.181
 4110TIP3   OH233888   1.966   6.513   2.133
 4110TIP3    H133889   1.952   6.444   2.068
 4110TIP3    H233890   1.883   6.560   2.136
 4111TIP3   OH233891   2.624   6.146   1.626
 4111TIP3    H133892   2.594   6.066   1.669
 4111TIP3    H233893   2.584   6.144   1.539
 4112TIP3   OH233894   2.626   6.182   0.787
 4112TIP3    H133895   2.613   6.149   0.876
 4112TIP3    H233896   2.550   6.150   0.739
 4113TIP3   OH233897   4.393   0.347   1.779
 4113TIP3    H133898   4.454   0.290   1.826
 4113TIP3    H233899   4.437   0.432   1.776
 4114TIP3   OH233900   5.661   3.756   6.246
 4114TIP3    H133901   5.579   3.737   6.291
 4114TIP3    H233902   5.686   3.844   6.276
 4115TIP3   OH233903   5.094   5.241   0.852
 4115TIP3    H133904   5.085   5.244   0.757
 4115TIP3    H233905   5.119   5.329   0.877
 4116TIP3   OH233906   0.977   3.976   2.146
 4116TIP3    H133907   1.011   3.905   2.200
 4116TIP3    H233908   0.993   3.946   2.056
 4117TIP3   OH233909   0.733   0.474   6.081
 4117TIP3    H133910   0.751   0.567   6.093
 4117TIP3    H233911   0.792   0.446   6.011
 4118TIP3   OH233912   1.937   5.142   8.354
 4118TIP3    H133913   2.010   5.112   8.408
 4118TIP3    H233914   1.969   5.134   8.264
 4119TIP3   OH233915   2.946   4.163   0.595
 4119TIP3    H133916   3.037   4.161   0.624
 4119TIP3    H233917   2.949   4.132   0.504
 4120TIP3   OH233918   6.115   3.091   6.619
 4120TIP3    H133919   6.149   3.078   6.530
 4120TIP3    H233920   6.163   3.028   6.673
 4121TIP3   OH233921   3.335   0.617   7.832
 4121TIP3    H133922   3.326   0.555   7.905
 4121TIP3    H233923   3.270   0.589   7.768
 4122TIP3   OH233924   4.211   6.356   1.625
 4122TIP3    H133925   4.184   6.347   1.716
 4122TIP3    H233926   4.144   6.413   1.586
 4123TIP3   OH233927   5.737   3.781   0.800
 4123TIP3    H133928   5.718   3.716   0.731
 4123TIP3    H233929   5.667   3.845   0.792
 4124TIP3   OH233930   3.383   2.114   1.837
 4124TIP3    H133931   3.384   2.202   1.801
 4124TIP3    H233932   3.358   2.126   1.929
 4125TIP3   OH233933   5.140   2.555   0.229
 4125TIP3    H133934   5.050   2.571   0.200
 4125TIP3    H233935   5.193   2.609   0.169
 4126TIP3   OH233936   2.086   6.722   8.606
 4126TIP3    H133937   2.145   6.670   8.552
 4126TIP3    H233938   2.052   6.789   8.546
 4127TIP3   OH233939   1.845   1.996   0.161
 4127TIP3    H133940   1.768   2.014   0.107
 4127TIP3    H233941   1.864   1.904   0.146
 4128TIP3   OH233942   1.947   6.238   7.653
 4128TIP3    H133943   1.992   6.264   7.733
 4128TIP3    H233944   1.895   6.162   7.679
 4129TIP3   OH233945   6.517   2.565   0.666
 4129TIP3    H133946   6.533   2.594   0.756
 4129TIP3    H233947   6.541   2.640   0.612
 4130TIP3   OH233948   4.891   3.785   6.938
 4130TIP3    H133949   4.881   3.723   6.867
 4130TIP3    H233950   4.874   3.734   7.017
 4131TIP3   OH233951   4.329   6.099   1.721
 4131TIP3    H133952   4.283   6.169   1.676
 4131TIP3    H233953   4.367   6.141   1.798
 4132TIP3   OH233954   0.392   0.628   6.997
 4132TIP3    H133955   0.470   0.631   7.052
 4132TIP3    H233956   0.327   0.679   7.045
 4133TIP3   OH233957   3.641   2.824   7.361
 4133TIP3    H133958   3.561   2.834   7.310
 4133TIP3    H233959   3.712   2.845   7.301
 4134TIP3   OH233960   2.876   0.246   2.622
 4134TIP3    H133961   2.852   0.191   2.547
 4134TIP3    H233962   2.824   0.213   2.695
 4135TIP3   OH233963   1.878   1.750   0.060
 4135TIP3    H133964   1.932   1.752   8.601
 4135TIP3    H233965   1.803   1.695   0.035
 4136TIP3   OH233966   3.850   0.761   7.212
 4136TIP3    H133967   3.813   0.829   7.155
 4136TIP3    H233968   3.847   0.799   7.300
 4137TIP3   OH233969   0.141   4.070   8.370
 4137TIP3    H133970   0.154   4.112   8.455
 4137TIP3    H233971   0.223   4.022   8.355
 4138TIP3   OH233972   1.354   0.542   6.671
 4138TIP3    H133973   1.266   0.572   6.648
 4138TIP3    H233974   1.343   0.448   6.688
 4139TIP3   OH233975   3.289   5.536   1.885
 4139TIP3    H133976   3.352   5.590   1.933
 4139TIP3    H233977   3.279   5.458   1.939
 4140TIP3   OH233978   2.727   6.467   6.861
 4140TIP3    H133979   2.815   6.493   6.835
 4140TIP3    H233980   2.673   6.486   6.784
 4141TIP3   OH233981   2.133   1.319   0.614
 4141TIP3    H133982   2.212   1.324   0.668
 4141TIP3    H233983   2.163   1.281   0.531
 4142TIP3   OH233984   0.704   4.313   0.305
 4142TIP3    H133985   0.685   4.234   0.255
 4142TIP3    H233986   0.741   4.280   0.388
 4143TIP3   OH233987   2.372   0.299   1.538
 4143TIP3    H133988   2.326   0.349   1.470
 4143TIP3    H233989   2.337   0.210   1.529
 4144TIP3   OH233990   1.700   3.715   7.801
 4144TIP3    H133991   1.754   3.638   7.815
 4144TIP3    H233992   1.704   3.763   7.885
 4145TIP3   OH233993   5.997   6.460   6.654
 4145TIP3    H133994   6.089   6.440   6.670
 4145TIP3    H233995   5.980   6.426   6.566
 4146TIP3   OH233996   0.056   3.612   1.084
 4146TIP3    H133997   0.107   3.537   1.114
 4146TIP3    H233998   0.022   3.652   1.165
 4147TIP3   OH233999   4.230   5.724   8.322
 4147TIP3    H134000   4.199   5.648   8.372
 4147TIP3    H234001   4.212   5.799   8.379
 4148TIP3   OH234002   4.857   2.913   0.147
 4148TIP3    H134003   4.844   2.983   0.083
 4148TIP3    H234004   4.769   2.885   0.171
 4149TIP3   OH234005   2.099   1.407   6.923
 4149TIP3    H134006   2.018   1.457   6.932
 4149TIP3    H234007   2.138   1.438   6.841
 4150TIP3   OH234008   5.376   1.814   2.622
 4150TIP3    H134009   5.468   1.809   2.647
 4150TIP3    H234010   5.353   1.725   2.596
 4151TIP3   OH234011   2.767   6.208   6.583
 4151TIP3    H134012   2.776   6.135   6.645
 4151TIP3    H234013   2.810   6.176   6.503
 4152TIP3   OH234014   1.188   2.492   1.465
 4152TIP3    H134015   1.253   2.520   1.531
 4152TIP3    H234016   1.127   2.565   1.460
 4153TIP3   OH234017   1.371   1.060   0.426
 4153TIP3    H134018   1.406   1.144   0.456
 4153TIP3    H234019   1.447   1.010   0.397
 4154TIP3   OH234020   4.053   2.137   1.641
 4154TIP3    H134021   4.104   2.175   1.569
 4154TIP3    H234022   3.984   2.202   1.658
 4155TIP3   OH234023   5.955   5.503   7.958
 4155TIP3    H134024   5.917   5.438   7.899
 4155TIP3    H234025   5.927   5.587   7.922
 4156TIP3   OH234026   4.379   6.330   7.916
 4156TIP3    H134027   4.335   6.343   7.832
 4156TIP3    H234028   4.346   6.402   7.971
 4157TIP3   OH234029   2.312   0.776   0.950
 4157TIP3    H134030   2.273   0.860   0.926
 4157TIP3    H234031   2.254   0.740   1.017
 4158TIP3   OH234032   0.201   5.387   1.841
 4158TIP3    H134033   0.119   5.432   1.864
 4158TIP3    H234034   0.253   5.391   1.921
 4159TIP3   OH234035   3.660   6.890   0.577
 4159TIP3    H134036   3.692   0.064   0.627
 4159TIP3    H234037   3.566   0.003   0.571
 4160TIP3   OH234038   4.195   1.983   6.698
 4160TIP3    H134039   4.103   1.958   6.707
 4160TIP3    H234040   4.196   2.044   6.624
 4161TIP3   OH234041   5.700   4.015   7.278
 4161TIP3    H134042   5.708   3.951   7.349
 4161TIP3    H234043   5.711   3.963   7.198
 4162TIP3   OH234044   0.843   3.373   8.024
 4162TIP3    H134045   0.878   3.321   7.952
 4162TIP3    H234046   0.862   3.464   8.000
 4163TIP3   OH234047   5.140   5.689   0.655
 4163TIP3    H134048   5.151   5.771   0.606
 4163TIP3    H234049   5.063   5.648   0.615
 4164TIP3   OH234050   2.723   5.099   0.826
 4164TIP3    H134051   2.761   5.179   0.860
 4164TIP3    H234052   2.629   5.111   0.836
 4165TIP3   OH234053   2.224   5.554   0.048
 4165TIP3    H134054   2.226   5.582   0.140
 4165TIP3    H234055   2.132   5.562   0.023
 4166TIP3   OH234056   6.900   5.554   1.764
 4166TIP3    H134057   6.893   5.619   1.834
 4166TIP3    H234058   6.833   5.489   1.784
 4167TIP3   OH234059   5.466   5.081   0.039
 4167TIP3    H134060   5.377   5.046   0.029
 4167TIP3    H234061   5.460   5.171   0.009
 4168TIP3   OH234062   5.073   5.899   0.066
 4168TIP3    H134063   5.048   5.840   0.137
 4168TIP3    H234064   4.998   5.898   0.007
 4169TIP3   OH234065   3.716   1.888   1.394
 4169TIP3    H134066   3.759   1.809   1.428
 4169TIP3    H234067   3.788   1.943   1.363
 4170TIP3   OH234068   4.295   4.476   7.939
 4170TIP3    H134069   4.273   4.563   7.974
 4170TIP3    H234070   4.386   4.484   7.910
 4171TIP3   OH234071   2.759   6.813   8.026
 4171TIP3    H134072   2.759   6.815   8.122
 4171TIP3    H234073   2.697   6.743   8.004
 4172TIP3   OH234074   1.080   0.349   7.850
 4172TIP3    H134075   1.170   0.323   7.833
 4172TIP3    H234076   1.065   0.327   7.942
 4173TIP3   OH234077   6.867   1.847   6.913
 4173TIP3    H134078   6.880   1.771   6.970
 4173TIP3    H234079   6.772   1.855   6.906
 4174TIP3   OH234080   0.194   1.794   6.741
 4174TIP3    H134081   0.135   1.821   6.812
 4174TIP3    H234082   0.271   1.849   6.752
 4175TIP3   OH234083   4.790   6.663   0.820
 4175TIP3    H134084   4.761   6.651   0.730
 4175TIP3    H234085   4.879   6.699   0.812
 4176TIP3   OH234086   6.406   1.445   0.475
 4176TIP3    H134087   6.358   1.507   0.419
 4176TIP3    H234088   6.424   1.495   0.555
 4177TIP3   OH234089   1.352   2.200   7.579
 4177TIP3    H134090   1.429   2.254   7.562
 4177TIP3    H234091   1.385   2.110   7.580
 4178TIP3   OH234092   5.599   3.532   8.420
 4178TIP3    H134093   5.520   3.559   8.373
 4178TIP3    H234094   5.662   3.601   8.401
 4179TIP3   OH234095   2.230   5.862   6.590
 4179TIP3    H134096   2.205   5.948   6.557
 4179TIP3    H234097   2.319   5.848   6.557
 4180TIP3   OH234098   4.904   5.057   7.085
 4180TIP3    H134099   4.939   5.146   7.091
 4180TIP3    H234100   4.816   5.063   7.122
 4181TIP3   OH234101   4.350   1.608   2.160
 4181TIP3    H134102   4.415   1.541   2.180
 4181TIP3    H234103   4.330   1.596   2.067
 4182TIP3   OH234104   1.521   2.732   0.305
 4182TIP3    H134105   1.447   2.739   0.366
 4182TIP3    H234106   1.588   2.789   0.342
 4183TIP3   OH234107   1.843   5.352   0.736
 4183TIP3    H134108   1.799   5.436   0.747
 4183TIP3    H234109   1.897   5.342   0.814
 4184TIP3   OH234110   0.359   2.485   0.085
 4184TIP3    H134111   0.450   2.464   0.106
 4184TIP3    H234112   0.348   2.454   8.614
 4185TIP3   OH234113   4.823   2.658   2.503
 4185TIP3    H134114   4.761   2.585   2.511
 4185TIP3    H234115   4.775   2.734   2.536
 4186TIP3   OH234116   1.831   4.074   6.999
 4186TIP3    H134117   1.781   4.046   6.922
 4186TIP3    H234118   1.880   4.151   6.969
 4187TIP3   OH234119   3.572   1.184   0.423
 4187TIP3    H134120   3.560   1.089   0.421
 4187TIP3    H234121   3.666   1.197   0.425
 4188TIP3   OH234122   1.736   3.300   7.560
 4188TIP3    H134123   1.770   3.216   7.529
 4188TIP3    H234124   1.696   3.280   7.645
 4189TIP3   OH234125   1.177   0.658   1.424
 4189TIP3    H134126   1.162   0.582   1.481
 4189TIP3    H234127   1.262   0.641   1.384
 4190TIP3   OH234128   0.039   5.409   7.430
 4190TIP3    H134129   0.129   5.379   7.445
 4190TIP3    H234130   0.042   5.454   7.346
 4191TIP3   OH234131   0.576   1.203   6.714
 4191TIP3    H134132   0.496   1.191   6.764
 4191TIP3    H234133   0.554   1.270   6.649
 4192TIP3   OH234134   0.021   2.931   2.542
 4192TIP3    H134135   0.114   2.930   2.566
 4192TIP3    H234136   6.878   2.978   2.613
 4193TIP3   OH234137   1.474   2.657   0.601
 4193TIP3    H134138   1.487   2.742   0.642
 4193TIP3    H234139   1.513   2.594   0.662
 4194TIP3   OH234140   0.271   4.797   0.527
 4194TIP3    H134141   0.326   4.872   0.550
 4194TIP3    H234142   0.248   4.757   0.611
 4195TIP3   OH234143   6.576   1.928   7.379
 4195TIP3    H134144   6.616   1.860   7.325
 4195TIP3    H234145   6.596   2.010   7.332
 4196TIP3   OH234146   2.512   5.820   6.569
 4196TIP3    H134147   2.602   5.796   6.588
 4196TIP3    H234148   2.511   5.915   6.572
 4197TIP3   OH234149   4.431   3.994   8.080
 4197TIP3    H134150   4.424   3.901   8.058
 4197TIP3    H234151   4.409   4.040   7.999
 4198TIP3   OH234152   5.144   2.440   7.307
 4198TIP3    H134153   5.092   2.361   7.291
 4198TIP3    H234154   5.178   2.464   7.220
 4199TIP3   OH234155   0.979   3.827   1.927
 4199TIP3    H134156   1.039   3.860   1.860
 4199TIP3    H234157   0.904   3.794   1.878
 4200TIP3   OH234158   6.271   3.294   7.454
 4200TIP3    H134159   6.342   3.328   7.508
 4200TIP3    H234160   6.218   3.371   7.432
 4201TIP3   OH234161   4.804   0.482   6.661
 4201TIP3    H134162   4.826   0.492   6.568
 4201TIP3    H234163   4.732   0.544   6.676
 4202TIP3   OH234164   2.137   4.020   0.122
 4202TIP3    H134165   2.088   4.101   0.108
 4202TIP3    H234166   2.229   4.045   0.110
 4203TIP3   OH234167   4.115   0.100   1.964
 4203TIP3    H134168   4.131   0.173   2.024
 4203TIP3    H234169   4.088   0.028   2.021
 4204TIP3   OH234170   2.146   2.373   1.127
 4204TIP3    H134171   2.153   2.298   1.067
 4204TIP3    H234172   2.158   2.449   1.071
 4205TIP3   OH234173   2.340   2.007   7.675
 4205TIP3    H134174   2.363   2.079   7.617
 4205TIP3    H234175   2.420   1.991   7.726
 4206TIP3   OH234176   5.452   3.716   0.917
 4206TIP3    H134177   5.478   3.791   0.864
 4206TIP3    H234178   5.474   3.639   0.864
 4207TIP3   OH234179   6.369   3.851   1.004
 4207TIP3    H134180   6.371   3.834   0.910
 4207TIP3    H234181   6.325   3.775   1.041
 4208TIP3   OH234182   4.490   5.640   8.299
 4208TIP3    H134183   4.395   5.652   8.292
 4208TIP3    H234184   4.518   5.707   8.362
 4209TIP3   OH234185   0.580   5.792   1.419
 4209TIP3    H134186   0.608   5.879   1.393
 4209TIP3    H234187   0.655   5.757   1.467
 4210TIP3   OH234188   2.450   4.489   7.900
 4210TIP3    H134189   2.542   4.478   7.874
 4210TIP3    H234190   2.410   4.404   7.881
 4211TIP3   OH234191   0.362   6.682   0.418
 4211TIP3    H134192   0.347   6.613   0.354
 4211TIP3    H234193   0.446   6.721   0.392
 4212TIP3   OH234194   3.550   5.900   1.273
 4212TIP3    H134195   3.558   5.807   1.294
 4212TIP3    H234196   3.493   5.935   1.342
 4213TIP3   OH234197   2.159   4.566   0.968
 4213TIP3    H134198   2.236   4.616   0.997
 4213TIP3    H234199   2.173   4.478   1.003
 4214TIP3   OH234200   0.285   5.066   6.971
 4214TIP3    H134201   0.266   5.147   7.017
 4214TIP3    H234202   0.334   5.013   7.034
 4215TIP3   OH234203   5.378   2.878   7.568
 4215TIP3    H134204   5.418   2.910   7.487
 4215TIP3    H234205   5.400   2.785   7.571
 4216TIP3   OH234206   1.141   1.370   2.085
 4216TIP3    H134207   1.159   1.445   2.141
 4216TIP3    H234208   1.045   1.363   2.086
 4217TIP3   OH234209   3.151   3.122   2.060
 4217TIP3    H134210   3.065   3.137   2.021
 4217TIP3    H234211   3.196   3.206   2.051
 4218TIP3   OH234212   2.240   4.654   8.435
 4218TIP3    H134213   2.318   4.684   8.481
 4218TIP3    H234214   2.241   4.559   8.446
 4219TIP3   OH234215   0.796   0.291   1.795
 4219TIP3    H134216   0.837   0.350   1.858
 4219TIP3    H234217   0.840   0.207   1.808
 4220TIP3   OH234218   3.166   0.642   1.123
 4220TIP3    H134219   3.253   0.609   1.147
 4220TIP3    H234220   3.106   0.572   1.149
 4221TIP3   OH234221   1.941   4.787   7.759
 4221TIP3    H134222   1.995   4.860   7.790
 4221TIP3    H234223   2.002   4.728   7.716
 4222TIP3   OH234224   2.813   3.637   7.470
 4222TIP3    H134225   2.718   3.625   7.468
 4222TIP3    H234226   2.839   3.632   7.378
 4223TIP3   OH234227   3.129   0.214   2.452
 4223TIP3    H134228   3.057   0.212   2.515
 4223TIP3    H234229   3.134   0.305   2.424
 4224TIP3   OH234230   6.376   1.310   2.115
 4224TIP3    H134231   6.396   1.404   2.116
 4224TIP3    H234232   6.456   1.269   2.079
 4225TIP3   OH234233   0.986   4.455   8.560
 4225TIP3    H134234   0.896   4.445   8.591
 4225TIP3    H234235   0.984   4.425   8.469
 4226TIP3   OH234236   5.745   4.741   7.737
 4226TIP3    H134237   5.823   4.761   7.686
 4226TIP3    H234238   5.708   4.827   7.759
 4227TIP3   OH234239   3.189   2.098   7.940
 4227TIP3    H134240   3.128   2.138   8.002
 4227TIP3    H234241   3.146   2.017   7.913
 4228TIP3   OH234242   4.251   1.736   6.204
 4228TIP3    H134243   4.176   1.775   6.158
 4228TIP3    H234244   4.247   1.643   6.182
 4229TIP3   OH234245   6.569   2.271   7.887
 4229TIP3    H134246   6.480   2.278   7.852
 4229TIP3    H234247   6.582   2.353   7.936
 4230TIP3   OH234248   3.074   0.750   0.344
 4230TIP3    H134249   3.168   0.743   0.365
 4230TIP3    H234250   3.033   0.769   0.428
 4231TIP3   OH234251   6.327   4.736   1.341
 4231TIP3    H134252   6.366   4.746   1.254
 4231TIP3    H234253   6.396   4.765   1.401
 4232TIP3   OH234254   6.118   5.032   1.817
 4232TIP3    H134255   6.197   5.085   1.830
 4232TIP3    H234256   6.115   4.974   1.893
 4233TIP3   OH234257   1.335   0.336   1.081
 4233TIP3    H134258   1.380   0.368   1.159
 4233TIP3    H234259   1.242   0.334   1.106
 4234TIP3   OH234260   2.013   3.655   2.119
 4234TIP3    H134261   2.103   3.625   2.127
 4234TIP3    H234262   2.018   3.730   2.060
 4235TIP3   OH234263   3.704   4.976   8.261
 4235TIP3    H134264   3.708   4.917   8.336
 4235TIP3    H234265   3.644   5.045   8.287
 4236TIP3   OH234266   5.124   0.433   0.822
 4236TIP3    H134267   5.085   0.360   0.870
 4236TIP3    H234268   5.050   0.487   0.796
 4237TIP3   OH234269   4.703   6.764   6.531
 4237TIP3    H134270   4.679   6.796   6.618
 4237TIP3    H234271   4.624   6.775   6.478
 4238TIP3   OH234272   3.111   1.483   6.829
 4238TIP3    H134273   3.080   1.477   6.739
 4238TIP3    H234274   3.094   1.396   6.866
 4239TIP3   OH234275   2.740   3.819   8.424
 4239TIP3    H134276   2.834   3.832   8.415
 4239TIP3    H234277   2.701   3.905   8.404
 4240TIP3   OH234278   1.962   3.076   8.482
 4240TIP3    H134279   2.006   3.159   8.498
 4240TIP3    H234280   1.993   3.018   8.552
 4241TIP3   OH234281   2.176   5.018   8.452
 4241TIP3    H134282   2.168   4.955   8.523
 4241TIP3    H234283   2.260   4.998   8.411
 4242TIP3   OH234284   5.471   2.099   7.423
 4242TIP3    H134285   5.550   2.051   7.447
 4242TIP3    H234286   5.483   2.120   7.330
 4243TIP3   OH234287   6.850   2.455   6.699
 4243TIP3    H134288   6.785   2.459   6.769
 4243TIP3    H234289   0.034   2.470   6.743
 4244TIP3   OH234290   0.934   5.320   0.046
 4244TIP3    H134291   1.007   5.336   8.605
 4244TIP3    H234292   0.864   5.287   8.610
 4245TIP3   OH234293   1.299   6.651   7.072
 4245TIP3    H134294   1.378   6.598   7.075
 4245TIP3    H234295   1.263   6.637   6.985
 4246TIP3   OH234296   1.001   2.027   7.176
 4246TIP3    H134297   1.048   1.998   7.253
 4246TIP3    H234298   0.923   2.072   7.210
 4247TIP3   OH234299   1.047   4.339   1.479
 4247TIP3    H134300   1.017   4.275   1.416
 4247TIP3    H234301   1.101   4.289   1.541
 4248TIP3   OH234302   6.423   1.348   6.524
 4248TIP3    H134303   6.332   1.330   6.548
 4248TIP3    H234304   6.424   1.347   6.429
 4249TIP3   OH234305   0.761   3.862   8.005
 4249TIP3    H134306   0.781   3.955   8.006
 4249TIP3    H234307   0.715   3.848   7.923
 4250TIP3   OH234308   0.108   0.986   1.740
 4250TIP3    H134309   0.014   1.000   1.727
 4250TIP3    H234310   0.147   1.072   1.727
 4251TIP3   OH234311   5.692   3.864   0.212
 4251TIP3    H134312   5.734   3.848   0.297
 4251TIP3    H234313   5.600   3.879   0.234
 4252TIP3   OH234314   0.986   5.368   6.504
 4252TIP3    H134315   1.004   5.275   6.485
 4252TIP3    H234316   1.067   5.413   6.480
 4253TIP3   OH234317   2.144   6.397   0.796
 4253TIP3    H134318   2.079   6.434   0.855
 4253TIP3    H234319   2.225   6.397   0.847
 4254TIP3   OH234320   5.054   2.843   2.665
 4254TIP3    H134321   5.139   2.802   2.652
 4254TIP3    H234322   5.023   2.809   2.749
 4255TIP3   OH234323   1.624   2.285   7.643
 4255TIP3    H134324   1.663   2.259   7.559
 4255TIP3    H234325   1.684   2.349   7.679
 4256TIP3   OH234326   6.508   4.383   7.961
 4256TIP3    H134327   6.567   4.371   7.886
 4256TIP3    H234328   6.566   4.412   8.032
 4257TIP3   OH234329   0.711   0.308   7.366
 4257TIP3    H134330   0.798   0.334   7.334
 4257TIP3    H234331   0.710   0.336   7.457
 4258TIP3   OH234332   0.317   0.860   8.469
 4258TIP3    H134333   0.307   0.765   8.476
 4258TIP3    H234334   0.373   0.883   8.543
 4259TIP3   OH234335   4.244   3.757   7.465
 4259TIP3    H134336   4.238   3.850   7.484
 4259TIP3    H234337   4.229   3.714   7.550
 4260TIP3   OH234338   1.656   1.914   8.355
 4260TIP3    H134339   1.569   1.910   8.395
 4260TIP3    H234340   1.675   2.008   8.347
 4261TIP3   OH234341   4.986   2.815   1.106
 4261TIP3    H134342   5.066   2.769   1.130
 4261TIP3    H234343   5.008   2.861   1.025
 4262TIP3   OH234344   4.299   6.644   0.682
 4262TIP3    H134345   4.288   6.549   0.683
 4262TIP3    H234346   4.210   6.677   0.667
 4263TIP3   OH234347   3.676   4.358   1.304
 4263TIP3    H134348   3.616   4.432   1.296
 4263TIP3    H234349   3.721   4.354   1.220
 4264TIP3   OH234350   5.544   2.890   7.801
 4264TIP3    H134351   5.606   2.959   7.778
 4264TIP3    H234352   5.459   2.933   7.805
 4265TIP3   OH234353   0.828   0.133   6.862
 4265TIP3    H134354   0.733   0.140   6.852
 4265TIP3    H234355   0.839   0.081   6.942
 4266TIP3   OH234356   0.261   1.422   0.354
 4266TIP3    H134357   0.292   1.454   0.270
 4266TIP3    H234358   0.337   1.378   0.393
 4267TIP3   OH234359   4.806   0.915   7.446
 4267TIP3    H134360   4.787   0.894   7.355
 4267TIP3    H234361   4.841   1.004   7.443
 4268TIP3   OH234362   1.849   2.385   1.725
 4268TIP3    H134363   1.823   2.422   1.809
 4268TIP3    H234364   1.794   2.429   1.661
 4269TIP3   OH234365   2.177   5.253   1.417
 4269TIP3    H134366   2.123   5.329   1.394
 4269TIP3    H234367   2.227   5.282   1.493
 4270TIP3   OH234368   3.792   3.545   1.451
 4270TIP3    H134369   3.870   3.489   1.446
 4270TIP3    H234370   3.724   3.495   1.405
 4271TIP3   OH234371   1.235   5.675   0.637
 4271TIP3    H134372   1.271   5.602   0.688
 4271TIP3    H234373   1.163   5.708   0.690
 4272TIP3   OH234374   4.017   1.727   1.205
 4272TIP3    H134375   3.969   1.760   1.130
 4272TIP3    H234376   4.033   1.804   1.259
 4273TIP3   OH234377   6.201   1.574   2.454
 4273TIP3    H134378   6.112   1.566   2.422
 4273TIP3    H234379   6.231   1.484   2.466
 4274TIP3   OH234380   0.471   0.287   8.286
 4274TIP3    H134381   0.540   0.222   8.270
 4274TIP3    H234382   0.412   0.278   8.211
 4275TIP3   OH234383   0.531   5.347   8.147
 4275TIP3    H134384   0.438   5.343   8.173
 4275TIP3    H234385   0.573   5.396   8.218
 4276TIP3   OH234386   3.677   0.784   6.825
 4276TIP3    H134387   3.773   0.781   6.817
 4276TIP3    H234388   3.645   0.755   6.740
 4277TIP3   OH234389   1.501   4.525   0.079
 4277TIP3    H134390   1.565   4.549   0.011
 4277TIP3    H234391   1.416   4.544   0.039
 4278TIP3   OH234392   3.387   1.118   7.223
 4278TIP3    H134393   3.354   1.033   7.251
 4278TIP3    H234394   3.448   1.097   7.152
 4279TIP3   OH234395   5.863   4.106   8.414
 4279TIP3    H134396   5.877   4.064   8.499
 4279TIP3    H234397   5.949   4.104   8.373
 4280TIP3   OH234398   1.540   0.407   8.507
 4280TIP3    H134399   1.501   0.337   8.455
 4280TIP3    H234400   1.466   0.445   8.555
 4281TIP3   OH234401   0.671   2.113   1.428
 4281TIP3    H134402   0.581   2.081   1.429
 4281TIP3    H234403   0.663   2.206   1.411
 4282TIP3   OH234404   3.127   6.139   2.718
 4282TIP3    H134405   3.178   6.217   2.738
 4282TIP3    H234406   3.151   6.117   2.628
 4283TIP3   OH234407   6.549   4.772   1.922
 4283TIP3    H134408   6.578   4.681   1.929
 4283TIP3    H234409   6.480   4.781   1.988
 4284TIP3   OH234410   1.338   1.422   7.420
 4284TIP3    H134411   1.306   1.365   7.351
 4284TIP3    H234412   1.329   1.510   7.384
 4285TIP3   OH234413   6.299   1.416   0.917
 4285TIP3    H134414   6.303   1.506   0.948
 4285TIP3    H234415   6.303   1.363   0.997
 4286TIP3   OH234416   5.007   5.501   8.002
 4286TIP3    H134417   5.067   5.544   7.942
 4286TIP3    H234418   5.054   5.424   8.033
 4287TIP3   OH234419   2.139   2.233   1.360
 4287TIP3    H134420   2.228   2.222   1.393
 4287TIP3    H234421   2.151   2.274   1.274
 4288TIP3   OH234422   6.572   2.003   7.787
 4288TIP3    H134423   6.571   2.076   7.849
 4288TIP3    H234424   6.498   1.948   7.814
 4289TIP3   OH234425   5.032   4.632   1.572
 4289TIP3    H134426   5.064   4.687   1.500
 4289TIP3    H234427   4.985   4.692   1.629
 4290TIP3   OH234428   6.710   1.598   0.974
 4290TIP3    H134429   6.615   1.595   0.970
 4290TIP3    H234430   6.729   1.649   1.053
 4291TIP3   OH234431   5.055   1.174   8.614
 4291TIP3    H134432   4.988   1.117   0.032
 4291TIP3    H234433   5.030   1.262   0.022
 4292TIP3   OH234434   0.333   3.069   1.607
 4292TIP3    H134435   0.369   2.982   1.625
 4292TIP3    H234436   0.403   3.115   1.560
 4293TIP3   OH234437   4.111   4.078   0.348
 4293TIP3    H134438   4.122   4.013   0.417
 4293TIP3    H234439   4.122   4.029   0.267
 4294TIP3   OH234440   0.131   1.860   7.221
 4294TIP3    H134441   0.073   1.798   7.264
 4294TIP3    H234442   0.134   1.935   7.281
 4295TIP3   OH234443   5.397   2.939   0.719
 4295TIP3    H134444   5.407   2.846   0.698
 4295TIP3    H234445   5.305   2.958   0.699
 4296TIP3   OH234446   0.671   0.923   7.686
 4296TIP3    H134447   0.611   0.978   7.737
 4296TIP3    H234448   0.616   0.883   7.619
 4297TIP3   OH234449   6.475   5.263   0.886
 4297TIP3    H134450   6.401   5.309   0.924
 4297TIP3    H234451   6.443   5.230   0.802
 4298TIP3   OH234452   5.935   6.789   2.490
 4298TIP3    H134453   5.853   6.743   2.505
 4298TIP3    H234454   5.919   6.842   2.411
 4299TIP3   OH234455   0.630   4.480   7.591
 4299TIP3    H134456   0.581   4.538   7.650
 4299TIP3    H234457   0.655   4.406   7.647
 4300TIP3   OH234458   6.365   0.496   8.424
 4300TIP3    H134459   6.404   0.411   8.406
 4300TIP3    H234460   6.394   0.552   8.352
 4301TIP3   OH234461   2.528   6.608   6.699
 4301TIP3    H134462   2.444   6.641   6.729
 4301TIP3    H234463   2.529   6.626   6.605
 4302TIP3   OH234464   6.015   0.977   7.218
 4302TIP3    H134465   6.096   1.023   7.240
 4302TIP3    H234466   5.971   0.964   7.302
 4303TIP3   OH234467   1.628   0.909   0.371
 4303TIP3    H134468   1.572   0.899   0.294
 4303TIP3    H234469   1.698   0.968   0.342
 4304TIP3   OH234470   1.098   0.949   7.220
 4304TIP3    H134471   1.138   1.008   7.156
 4304TIP3    H234472   1.109   0.862   7.183
 4305TIP3   OH234473   5.513   4.195   8.054
 4305TIP3    H134474   5.438   4.143   8.028
 4305TIP3    H234475   5.556   4.143   8.122
 4306TIP3   OH234476   2.090   2.716   2.057
 4306TIP3    H134477   2.046   2.800   2.045
 4306TIP3    H234478   2.090   2.703   2.152
 4307TIP3   OH234479   5.637   2.363   7.052
 4307TIP3    H134480   5.601   2.411   6.977
 4307TIP3    H234481   5.728   2.390   7.056
 4308TIP3   OH234482   0.739   4.776   0.113
 4308TIP3    H134483   0.721   4.703   0.172
 4308TIP3    H234484   0.784   4.736   0.039
 4309TIP3   OH234485   1.014   1.400   0.477
 4309TIP3    H134486   0.945   1.419   0.414
 4309TIP3    H234487   1.067   1.479   0.481
 4310TIP3   OH234488   3.507   3.474   8.011
 4310TIP3    H134489   3.415   3.451   7.994
 4310TIP3    H234490   3.524   3.549   7.955
 4311TIP3   OH234491   4.941   5.881   0.492
 4311TIP3    H134492   5.035   5.877   0.477
 4311TIP3    H234493   4.932   5.909   0.583
 4312TIP3   OH234494   6.756   6.812   8.404
 4312TIP3    H134495   6.707   6.738   8.440
 4312TIP3    H234496   6.777   6.787   8.315
 4313TIP3   OH234497   2.074   0.897   2.035
 4313TIP3    H134498   1.995   0.862   1.994
 4313TIP3    H234499   2.059   0.887   2.129
 4314TIP3   OH234500   4.705   6.158   6.829
 4314TIP3    H134501   4.697   6.252   6.813
 4314TIP3    H234502   4.769   6.152   6.900
 4315TIP3   OH234503   3.151   4.348   8.314
 4315TIP3    H134504   3.200   4.407   8.257
 4315TIP3    H234505   3.215   4.282   8.340
 4316TIP3   OH234506   6.633   0.719   8.301
 4316TIP3    H134507   6.555   0.759   8.340
 4316TIP3    H234508   6.694   0.710   8.375
 4317TIP3   OH234509   5.400   1.010   7.082
 4317TIP3    H134510   5.357   1.003   7.168
 4317TIP3    H234511   5.348   1.075   7.035
 4318TIP3   OH234512   5.352   2.327   0.290
 4318TIP3    H134513   5.269   2.365   0.259
 4318TIP3    H234514   5.411   2.332   0.215
 4319TIP3   OH234515   6.452   0.101   6.420
 4319TIP3    H134516   6.545   0.122   6.416
 4319TIP3    H234517   6.408   0.179   6.386
 4320TIP3   OH234518   5.730   1.999   7.557
 4320TIP3    H134519   5.721   1.995   7.652
 4320TIP3    H234520   5.818   1.967   7.539
 4321TIP3   OH234521   6.003   3.723   0.830
 4321TIP3    H134522   5.909   3.738   0.819
 4321TIP3    H234523   6.044   3.807   0.810
 4322TIP3   OH234524   6.660   3.892   8.352
 4322TIP3    H134525   6.596   3.872   8.283
 4322TIP3    H234526   6.736   3.837   8.331
 4323TIP3   OH234527   1.956   1.726   0.373
 4323TIP3    H134528   1.949   1.651   0.432
 4323TIP3    H234529   1.911   1.698   0.293
 4324TIP3   OH234530   4.622   4.111   8.606
 4324TIP3    H134531   4.594   4.050   8.537
 4324TIP3    H234532   4.628   4.195   8.562
 4325TIP3   OH234533   2.184   2.015   6.689
 4325TIP3    H134534   2.240   2.089   6.664
 4325TIP3    H234535   2.097   2.038   6.657
 4326TIP3   OH234536   6.609   4.172   7.726
 4326TIP3    H134537   6.686   4.207   7.770
 4326TIP3    H234538   6.618   4.202   7.635
 4327TIP3   OH234539   3.060   1.576   0.482
 4327TIP3    H134540   3.016   1.520   0.545
 4327TIP3    H234541   3.032   1.542   0.397
 4328TIP3   OH234542   2.180   6.283   0.562
 4328TIP3    H134543   2.208   6.364   0.518
 4328TIP3    H234544   2.143   6.314   0.646
 4329TIP3   OH234545   5.275   3.588   7.960
 4329TIP3    H134546   5.195   3.541   7.938
 4329TIP3    H234547   5.345   3.535   7.921
 4330TIP3   OH234548   6.640   6.596   8.523
 4330TIP3    H134549   6.708   6.529   8.515
 4330TIP3    H234550   6.568   6.553   8.569
 4331TIP3   OH234551   2.888   0.415   7.068
 4331TIP3    H134552   2.868   0.338   7.120
 4331TIP3    H234553   2.980   0.404   7.042
 4332TIP3   OH234554   0.384   4.175   0.255
 4332TIP3    H134555   0.444   4.100   0.253
 4332TIP3    H234556   0.406   4.225   0.176
 4333TIP3   OH234557   2.323   3.492   0.868
 4333TIP3    H134558   2.339   3.580   0.833
 4333TIP3    H234559   2.265   3.507   0.943
 4334TIP3   OH234560   5.951   5.814   8.248
 4334TIP3    H134561   5.921   5.896   8.288
 4334TIP3    H234562   5.933   5.825   8.155
 4335TIP3   OH234563   0.726   2.216   0.881
 4335TIP3    H134564   0.658   2.283   0.887
 4335TIP3    H234565   0.738   2.187   0.972
 4336TIP3   OH234566   0.880   2.879   1.718
 4336TIP3    H134567   0.905   2.808   1.778
 4336TIP3    H234568   0.792   2.854   1.688
 4337TIP3   OH234569   5.167   0.260   6.898
 4337TIP3    H134570   5.240   0.280   6.839
 4337TIP3    H234571   5.091   0.301   6.856
 4338TIP3   OH234572   0.451   3.185   2.429
 4338TIP3    H134573   0.515   3.244   2.391
 4338TIP3    H234574   0.368   3.208   2.387
 4339TIP3   OH234575   1.489   5.754   1.986
 4339TIP3    H134576   1.401   5.764   2.022
 4339TIP3    H234577   1.522   5.843   1.978
 4340TIP3   OH234578   2.084   4.018   8.219
 4340TIP3    H134579   2.158   4.064   8.259
 4340TIP3    H234580   2.008   4.071   8.242
 4341TIP3   OH234581   3.889   4.426   7.786
 4341TIP3    H134582   3.907   4.387   7.872
 4341TIP3    H234583   3.975   4.456   7.756
 4342TIP3   OH234584   6.423   2.902   0.290
 4342TIP3    H134585   6.331   2.901   0.317
 4342TIP3    H234586   6.465   2.835   0.345
 4343TIP3   OH234587   0.266   0.451   6.683
 4343TIP3    H134588   0.174   0.430   6.667
 4343TIP3    H234589   0.290   0.399   6.759
 4344TIP3   OH234590   6.359   0.856   1.755
 4344TIP3    H134591   6.443   0.842   1.799
 4344TIP3    H234592   6.300   0.792   1.795
 4345TIP3   OH234593   2.991   3.885   8.310
 4345TIP3    H134594   2.980   3.972   8.273
 4345TIP3    H234595   3.039   3.836   8.242
 4346TIP3   OH234596   0.494   4.937   6.631
 4346TIP3    H134597   0.586   4.960   6.625
 4346TIP3    H234598   0.494   4.843   6.650
 4347TIP3   OH234599   0.564   6.284   6.184
 4347TIP3    H134600   0.573   6.366   6.135
 4347TIP3    H234601   0.561   6.216   6.117
 4348TIP3   OH234602   5.151   1.760   6.736
 4348TIP3    H134603   5.108   1.684   6.775
 4348TIP3    H234604   5.221   1.723   6.682
 4349TIP3   OH234605   1.738   2.232   7.385
 4349TIP3    H134606   1.706   2.294   7.320
 4349TIP3    H234607   1.686   2.153   7.371
 4350TIP3   OH234608   5.988   0.468   1.086
 4350TIP3    H134609   5.979   0.395   1.025
 4350TIP3    H234610   5.997   0.545   1.031
 4351TIP3   OH234611   4.504   4.116   6.257
 4351TIP3    H134612   4.500   4.196   6.204
 4351TIP3    H234613   4.556   4.141   6.333
 4352TIP3   OH234614   1.025   1.795   0.872
 4352TIP3    H134615   0.994   1.808   0.962
 4352TIP3    H234616   0.973   1.723   0.839
 4353TIP3   OH234617   0.480   5.173   7.598
 4353TIP3    H134618   0.417   5.110   7.563
 4353TIP3    H234619   0.543   5.186   7.527
 4354TIP3   OH234620   1.304   1.398   7.688
 4354TIP3    H134621   1.222   1.436   7.719
 4354TIP3    H234622   1.287   1.375   7.597
 4355TIP3   OH234623   5.444   5.656   7.508
 4355TIP3    H134624   5.477   5.708   7.581
 4355TIP3    H234625   5.447   5.715   7.433
 4356TIP3   OH234626   6.688   5.480   6.877
 4356TIP3    H134627   6.639   5.559   6.899
 4356TIP3    H234628   6.778   5.510   6.865
 4357TIP3   OH234629   1.063   2.123   0.581
 4357TIP3    H134630   1.066   2.028   0.589
 4357TIP3    H234631   1.077   2.140   0.488
 4358TIP3   OH234632   2.507   3.498   0.150
 4358TIP3    H134633   2.582   3.484   0.207
 4358TIP3    H234634   2.541   3.551   0.077
 4359TIP3   OH234635   1.879   4.226   8.097
 4359TIP3    H134636   1.880   4.321   8.083
 4359TIP3    H234637   1.795   4.197   8.062
 4360TIP3   OH234638   1.087   0.097   1.444
 4360TIP3    H134639   1.116   0.012   1.479
 4360TIP3    H234640   1.023   0.074   1.376
 4361TIP3   OH234641   6.116   2.747   6.916
 4361TIP3    H134642   6.092   2.657   6.892
 4361TIP3    H234643   6.063   2.801   6.857
 4362TIP3   OH234644   6.203   2.611   1.377
 4362TIP3    H134645   6.224   2.600   1.469
 4362TIP3    H234646   6.286   2.636   1.336
 4363TIP3   OH234647   3.802   5.426   8.363
 4363TIP3    H134648   3.883   5.401   8.409
 4363TIP3    H234649   3.829   5.437   8.272
 4364TIP3   OH234650   2.505   5.583   1.176
 4364TIP3    H134651   2.481   5.493   1.155
 4364TIP3    H234652   2.457   5.636   1.112
 4365TIP3   OH234653   1.485   5.359   1.180
 4365TIP3    H134654   1.545   5.415   1.229
 4365TIP3    H234655   1.426   5.323   1.247
 4366TIP3   OH234656   3.267   5.141   0.208
 4366TIP3    H134657   3.296   5.229   0.229
 4366TIP3    H234658   3.245   5.102   0.293
 4367TIP3   OH234659   5.580   1.426   0.021
 4367TIP3    H134660   5.502   1.370   0.021
 4367TIP3    H234661   5.631   1.397   0.097
 4368TIP3   OH234662   0.113   3.662   8.569
 4368TIP3    H134663   0.086   3.573   8.550
 4368TIP3    H234664   0.199   3.653   8.610
 4369TIP3   OH234665   6.527   5.816   2.023
 4369TIP3    H134666   6.481   5.851   2.099
 4369TIP3    H234667   6.471   5.745   1.991
 4370TIP3   OH234668   6.066   1.525   6.237
 4370TIP3    H134669   6.102   1.601   6.282
 4370TIP3    H234670   6.102   1.529   6.149
 4371TIP3   OH234671   4.350   2.707   1.809
 4371TIP3    H134672   4.369   2.800   1.821
 4371TIP3    H234673   4.305   2.702   1.725
 4372TIP3   OH234674   1.757   0.221   8.105
 4372TIP3    H134675   1.761   0.163   8.029
 4372TIP3    H234676   1.818   0.291   8.085
 4373TIP3   OH234677   4.862   0.394   1.912
 4373TIP3    H134678   4.951   0.361   1.903
 4373TIP3    H234679   4.872   0.485   1.939
 4374TIP3   OH234680   6.637   1.336   1.819
 4374TIP3    H134681   6.605   1.280   1.890
 4374TIP3    H234682   6.650   1.422   1.860
 4375TIP3   OH234683   6.376   4.794   8.411
 4375TIP3    H134684   6.353   4.853   8.483
 4375TIP3    H234685   6.450   4.837   8.368
 4376TIP3   OH234686   5.786   1.083   6.160
 4376TIP3    H134687   5.821   1.158   6.207
 4376TIP3    H234688   5.703   1.114   6.124
 4377TIP3   OH234689   0.188   6.807   7.289
 4377TIP3    H134690   0.200   6.773   7.378
 4377TIP3    H234691   0.113   6.866   7.296
 4378TIP3   OH234692   1.423   1.201   8.175
 4378TIP3    H134693   1.503   1.208   8.123
 4378TIP3    H234694   1.417   1.109   8.197
 4379TIP3   OH234695   1.038   2.807   8.134
 4379TIP3    H134696   1.129   2.789   8.156
 4379TIP3    H234697   1.012   2.876   8.195
 4380TIP3   OH234698   1.479   1.267   0.587
 4380TIP3    H134699   1.493   1.354   0.550
 4380TIP3    H234700   1.403   1.276   0.644
 4381TIP3   OH234701   5.745   2.796   6.492
 4381TIP3    H134702   5.656   2.823   6.468
 4381TIP3    H234703   5.732   2.717   6.545
 4382TIP3   OH234704   6.129   2.194   2.032
 4382TIP3    H134705   6.193   2.133   1.995
 4382TIP3    H234706   6.064   2.138   2.075
 4383TIP3   OH234707   6.353   2.345   6.855
 4383TIP3    H134708   6.314   2.259   6.838
 4383TIP3    H234709   6.428   2.326   6.912
 4384TIP3   OH234710   0.905   1.820   7.457
 4384TIP3    H134711   0.920   1.728   7.437
 4384TIP3    H234712   0.974   1.843   7.520
 4385TIP3   OH234713   3.348   6.404   1.753
 4385TIP3    H134714   3.360   6.469   1.684
 4385TIP3    H234715   3.378   6.448   1.833
 4386TIP3   OH234716   2.602   6.345   7.672
 4386TIP3    H134717   2.621   6.307   7.758
 4386TIP3    H234718   2.635   6.281   7.610
 4387TIP3   OH234719   0.309   1.418   6.789
 4387TIP3    H134720   0.250   1.483   6.751
 4387TIP3    H234721   0.341   1.459   6.870
 4388TIP3   OH234722   6.219   0.479   0.723
 4388TIP3    H134723   6.243   0.412   0.659
 4388TIP3    H234724   6.134   0.450   0.756
 4389TIP3   OH234725   0.156   2.506   7.348
 4389TIP3    H134726   0.071   2.495   7.392
 4389TIP3    H234727   0.135   2.503   7.255
 4390TIP3   OH234728   1.326   1.001   2.436
 4390TIP3    H134729   1.404   0.999   2.490
 4390TIP3    H234730   1.351   1.052   2.359
 4391TIP3   OH234731   3.288   2.414   8.615
 4391TIP3    H134732   3.230   2.424   0.071
 4391TIP3    H234733   3.232   2.428   8.539
 4392TIP3   OH234734   5.302   3.614   8.461
 4392TIP3    H134735   5.325   3.549   8.394
 4392TIP3    H234736   5.321   3.699   8.420
 4393TIP3   OH234737   0.058   4.625   0.435
 4393TIP3    H134738   0.103   4.708   0.453
 4393TIP3    H234739   6.885   4.649   0.379
 4394TIP3   OH234740   0.735   5.649   7.540
 4394TIP3    H134741   0.825   5.660   7.570
 4394TIP3    H234742   0.705   5.738   7.522
 4395TIP3   OH234743   6.864   6.459   1.104
 4395TIP3    H134744   6.866   6.553   1.083
 4395TIP3    H234745   6.896   6.416   1.024
 4396TIP3   OH234746   4.960   6.548   0.267
 4396TIP3    H134747   4.881   6.601   0.271
 4396TIP3    H234748   5.007   6.570   0.347
 4397TIP3   OH234749   2.853   6.298   0.824
 4397TIP3    H134750   2.895   6.331   0.745
 4397TIP3    H234751   2.788   6.235   0.793
 4398TIP3   OH234752   3.115   4.230   0.315
 4398TIP3    H134753   3.094   4.297   0.380
 4398TIP3    H234754   3.045   4.166   0.323
 4399TIP3   OH234755   6.899   6.138   7.324
 4399TIP3    H134756   6.889   6.120   7.417
 4399TIP3    H234757   0.093   6.155   7.313
 4400TIP3   OH234758   5.192   2.719   1.374
 4400TIP3    H134759   5.151   2.806   1.368
 4400TIP3    H234760   5.280   2.737   1.408
 4401TIP3   OH234761   6.339   0.117   0.292
 4401TIP3    H134762   6.252   0.140   0.326
 4401TIP3    H234763   6.359   0.186   0.229
 4402TIP3   OH234764   1.128   5.956   6.792
 4402TIP3    H134765   1.080   5.973   6.711
 4402TIP3    H234766   1.098   5.869   6.819
 4403TIP3   OH234767   3.777   5.022   7.777
 4403TIP3    H134768   3.757   5.075   7.854
 4403TIP3    H234769   3.851   5.066   7.735
 4404TIP3   OH234770   4.549   0.937   7.046
 4404TIP3    H134771   4.503   0.999   6.989
 4404TIP3    H234772   4.482   0.876   7.076
 4405TIP3   OH234773   0.959   3.388   1.859
 4405TIP3    H134774   0.955   3.351   1.947
 4405TIP3    H234775   0.929   3.318   1.802
 4406TIP3   OH234776   6.060   6.119   7.432
 4406TIP3    H134777   6.077   6.036   7.388
 4406TIP3    H234778   5.999   6.165   7.374
 4407TIP3   OH234779   4.112   2.112   7.849
 4407TIP3    H134780   4.143   2.179   7.788
 4407TIP3    H234781   4.162   2.127   7.930
 4408TIP3   OH234782   5.594   4.352   7.516
 4408TIP3    H134783   5.609   4.419   7.582
 4408TIP3    H234784   5.554   4.279   7.563
 4409TIP3   OH234785   6.240   5.348   7.683
 4409TIP3    H134786   6.334   5.338   7.669
 4409TIP3    H234787   6.203   5.361   7.596
 4410TIP3   OH234788   2.468   3.777   0.437
 4410TIP3    H134789   2.426   3.696   0.464
 4410TIP3    H234790   2.560   3.765   0.459
 4411TIP3   OH234791   6.871   2.704   8.309
 4411TIP3    H134792   6.856   2.799   8.308
 4411TIP3    H234793   0.057   2.693   8.348
 4412TIP3   OH234794   1.179   1.586   0.633
 4412TIP3    H134795   1.217   1.591   0.721
 4412TIP3    H234796   1.226   1.652   0.582
 4413TIP3   OH234797   4.683   0.421   0.800
 4413TIP3    H134798   4.711   0.355   0.864
 4413TIP3    H234799   4.612   0.379   0.751
 4414TIP3   OH234800   4.894   1.866   1.067
 4414TIP3    H134801   4.988   1.858   1.054
 4414TIP3    H234802   4.873   1.800   1.133
 4415TIP3   OH234803   1.684   2.921   0.422
 4415TIP3    H134804   1.632   3.001   0.423
 4415TIP3    H234805   1.709   2.908   0.514
 4416TIP3   OH234806   3.843   6.756   8.362
 4416TIP3    H134807   3.908   6.825   8.347
 4416TIP3    H234808   3.845   6.741   8.456
 4417TIP3   OH234809   1.321   0.553   8.602
 4417TIP3    H134810   1.234   0.529   8.572
 4417TIP3    H234811   1.307   0.597   0.066
 4418TIP3   OH234812   4.471   3.682   8.356
 4418TIP3    H134813   4.389   3.663   8.310
 4418TIP3    H234814   4.527   3.607   8.339
 4419TIP3   OH234815   5.837   1.161   0.266
 4419TIP3    H134816   5.873   1.159   0.355
 4419TIP3    H234817   5.778   1.086   0.261
 4420TIP3   OH234818   6.434   1.653   1.000
 4420TIP3    H134819   6.449   1.706   1.078
 4420TIP3    H234820   6.397   1.715   0.936
 4421TIP3   OH234821   5.024   3.847   2.199
 4421TIP3    H134822   4.981   3.930   2.217
 4421TIP3    H234823   4.952   3.785   2.183
 4422TIP3   OH234824   6.187   6.849   7.731
 4422TIP3    H134825   6.211   6.758   7.709
 4422TIP3    H234826   6.091   6.848   7.732
 4423TIP3   OH234827   5.955   0.590   0.073
 4423TIP3    H134828   6.027   0.587   0.136
 4423TIP3    H234829   5.914   0.504   0.081
 4424TIP3   OH234830   6.596   4.573   6.114
 4424TIP3    H134831   6.567   4.495   6.066
 4424TIP3    H234832   6.558   4.564   6.201
 4425TIP3   OH234833   3.312   1.618   0.822
 4425TIP3    H134834   3.395   1.589   0.861
 4425TIP3    H234835   3.305   1.567   0.742
 4426TIP3   OH234836   5.302   0.530   7.270
 4426TIP3    H134837   5.324   0.448   7.226
 4426TIP3    H234838   5.335   0.598   7.210
 4427TIP3   OH234839   4.292   2.042   0.368
 4427TIP3    H134840   4.258   1.974   0.427
 4427TIP3    H234841   4.243   2.029   0.286
 4428TIP3   OH234842   0.462   4.850   7.309
 4428TIP3    H134843   0.487   4.942   7.307
 4428TIP3    H234844   0.431   4.832   7.220
 4429TIP3   OH234845   6.446   2.390   7.142
 4429TIP3    H134846   6.452   2.469   7.089
 4429TIP3    H234847   6.352   2.375   7.153
 4430TIP3   OH234848   5.755   0.563   0.405
 4430TIP3    H134849   5.730   0.602   0.321
 4430TIP3    H234850   5.705   0.481   0.409
 4431TIP3   OH234851   2.666   5.694   1.607
 4431TIP3    H134852   2.753   5.712   1.642
 4431TIP3    H234853   2.681   5.669   1.516
 4432TIP3   OH234854   3.014   0.189   1.379
 4432TIP3    H134855   2.981   0.279   1.376
 4432TIP3    H234856   3.083   0.191   1.446
 4433TIP3   OH234857   2.242   2.369   0.440
 4433TIP3    H134858   2.170   2.354   0.380
 4433TIP3    H234859   2.316   2.391   0.384
 4434TIP3   OH234860   3.923   4.676   1.227
 4434TIP3    H134861   3.833   4.648   1.246
 4434TIP3    H234862   3.940   4.748   1.288
 4435TIP3   OH234863   5.570   3.926   7.900
 4435TIP3    H134864   5.502   3.984   7.866
 4435TIP3    H234865   5.529   3.883   7.975
 4436TIP3   OH234866   0.739   0.929   8.091
 4436TIP3    H134867   0.661   0.937   8.145
 4436TIP3    H234868   0.768   1.019   8.078
 4437TIP3   OH234869   4.613   2.956   7.871
 4437TIP3    H134870   4.549   2.958   7.942
 4437TIP3    H234871   4.559   2.951   7.792
 4438TIP3   OH234872   5.928   1.340   0.042
 4438TIP3    H134873   5.883   1.294   0.113
 4438TIP3    H234874   5.951   1.425   0.079
 4439TIP3   OH234875   6.770   5.799   1.910
 4439TIP3    H134876   6.691   5.802   1.964
 4439TIP3    H234877   6.745   5.750   1.832
 4440TIP3   OH234878   1.873   1.245   0.590
 4440TIP3    H134879   1.818   1.280   0.660
 4440TIP3    H234880   1.953   1.297   0.593
 4441TIP3   OH234881   4.345   2.090   7.643
 4441TIP3    H134882   4.315   2.034   7.572
 4441TIP3    H234883   4.314   2.178   7.620
 4442TIP3   OH234884   2.446   5.975   0.089
 4442TIP3    H134885   2.376   5.912   0.110
 4442TIP3    H234886   2.417   6.057   0.129
 4443TIP3   OH234887   1.937   5.774   8.354
 4443TIP3    H134888   2.018   5.817   8.328
 4443TIP3    H234889   1.896   5.748   8.272
 4444TIP3   OH234890   2.571   4.441   6.740
 4444TIP3    H134891   2.595   4.505   6.673
 4444TIP3    H234892   2.479   4.422   6.722
 4445TIP3   OH234893   0.068   2.827   8.044
 4445TIP3    H134894   0.125   2.814   7.969
 4445TIP3    H234895   0.125   2.863   8.112
 4446TIP3   OH234896   6.774   1.679   0.403
 4446TIP3    H134897   6.840   1.648   0.340
 4446TIP3    H234898   6.794   1.773   0.413
 4447TIP3   OH234899   3.387   6.758   0.848
 4447TIP3    H134900   3.326   6.727   0.781
 4447TIP3    H234901   3.374   6.698   0.922
 4448TIP3   OH234902   2.555   5.421   0.397
 4448TIP3    H134903   2.500   5.493   0.367
 4448TIP3    H234904   2.511   5.342   0.365
 4449TIP3   OH234905   1.611   5.214   0.810
 4449TIP3    H134906   1.640   5.139   0.862
 4449TIP3    H234907   1.692   5.264   0.794
 4450TIP3   OH234908   1.465   1.731   1.248
 4450TIP3    H134909   1.418   1.782   1.314
 4450TIP3    H234910   1.438   1.641   1.264
 4451TIP3   OH234911   2.495   3.760   8.137
 4451TIP3    H134912   2.423   3.775   8.198
 4451TIP3    H234913   2.466   3.686   8.084
 4452TIP3   OH234914   4.805   0.839   6.073
 4452TIP3    H134915   4.792   0.933   6.061
 4452TIP3    H234916   4.788   0.824   6.166
 4453TIP3   OH234917   3.537   1.964   7.843
 4453TIP3    H134918   3.620   1.998   7.876
 4453TIP3    H234919   3.482   1.956   7.921
 4454TIP3   OH234920   3.753   2.368   0.517
 4454TIP3    H134921   3.814   2.300   0.547
 4454TIP3    H234922   3.670   2.323   0.507
 4455TIP3   OH234923   0.507   4.035   7.253
 4455TIP3    H134924   0.573   4.012   7.188
 4455TIP3    H234925   0.425   4.036   7.204
 4456TIP3   OH234926   1.687   3.088   0.046
 4456TIP3    H134927   1.625   3.157   0.069
 4456TIP3    H234928   1.740   3.126   8.595
 4457TIP3   OH234929   2.771   2.483   7.275
 4457TIP3    H134930   2.676   2.473   7.276
 4457TIP3    H234931   2.800   2.423   7.206
 4458TIP3   OH234932   2.891   3.796   1.922
 4458TIP3    H134933   2.937   3.817   2.003
 4458TIP3    H234934   2.945   3.729   1.880
 4459TIP3   OH234935   1.612   1.448   6.795
 4459TIP3    H134936   1.539   1.404   6.753
 4459TIP3    H234937   1.655   1.379   6.846
 4460TIP3   OH234938   2.256   4.913   6.529
 4460TIP3    H134939   2.275   5.002   6.558
 4460TIP3    H234940   2.164   4.899   6.551
 4461TIP3   OH234941   5.911   5.504   8.553
 4461TIP3    H134942   5.905   5.449   8.475
 4461TIP3    H234943   5.868   5.454   0.002
 4462TIP3   OH234944   1.704   5.242   7.836
 4462TIP3    H134945   1.750   5.191   7.769
 4462TIP3    H234946   1.684   5.325   7.792
 4463TIP3   OH234947   2.419   5.696   8.051
 4463TIP3    H134948   2.371   5.741   7.981
 4463TIP3    H234949   2.440   5.766   8.114
 4464TIP3   OH234950   2.410   0.388   5.954
 4464TIP3    H134951   2.430   0.340   6.034
 4464TIP3    H234952   2.379   0.474   5.985
 4465TIP3   OH234953   1.910   0.611   8.486
 4465TIP3    H134954   1.856   0.584   8.411
 4465TIP3    H234955   1.893   0.704   8.495
 4466TIP3   OH234956   5.398   6.177   1.231
 4466TIP3    H134957   5.357   6.168   1.317
 4466TIP3    H234958   5.399   6.088   1.196
 4467TIP3   OH234959   1.198   3.084   1.538
 4467TIP3    H134960   1.225   3.013   1.597
 4467TIP3    H234961   1.250   3.159   1.566
 4468TIP3   OH234962   2.791   4.643   0.489
 4468TIP3    H134963   2.868   4.675   0.537
 4468TIP3    H234964   2.774   4.557   0.526
 4469TIP3   OH234965   1.290   0.430   8.273
 4469TIP3    H134966   1.288   0.518   8.310
 4469TIP3    H234967   1.337   0.441   8.190
 4470TIP3   OH234968   5.690   4.454   7.055
 4470TIP3    H134969   5.676   4.414   6.970
 4470TIP3    H234970   5.689   4.381   7.117
 4471TIP3   OH234971   0.949   3.242   8.384
 4471TIP3    H134972   0.886   3.212   8.318
 4471TIP3    H234973   0.897   3.299   8.442
 4472TIP3   OH234974   5.955   0.406   0.694
 4472TIP3    H134975   5.862   0.414   0.715
 4472TIP3    H234976   5.967   0.459   0.616
 4473TIP3   OH234977   0.046   2.599   7.073
 4473TIP3    H134978   0.064   2.524   7.016
 4473TIP3    H234979   6.868   2.573   7.122
 4474TIP3   OH234980   4.428   2.193   6.459
 4474TIP3    H134981   4.428   2.231   6.372
 4474TIP3    H234982   4.338   2.163   6.473
 4475TIP3   OH234983   4.577   5.989   0.951
 4475TIP3    H134984   4.494   5.965   0.909
 4475TIP3    H234985   4.598   5.913   1.006
 4476TIP3   OH234986   3.309   4.548   8.211
 4476TIP3    H134987   3.340   4.635   8.239
 4476TIP3    H234988   3.388   4.504   8.180
 4477TIP3   OH234989   3.559   2.733   2.240
 4477TIP3    H134990   3.493   2.717   2.307
 4477TIP3    H234991   3.636   2.685   2.269
 4478TIP3   OH234992   6.398   0.635   6.967
 4478TIP3    H134993   6.308   0.602   6.970
 4478TIP3    H234994   6.451   0.558   6.944
 4479TIP3   OH234995   6.827   0.220   1.398
 4479TIP3    H134996   0.014   0.249   1.371
 4479TIP3    H234997   6.837   0.199   1.491
 4480TIP3   OH234998   1.962   3.697   0.456
 4480TIP3    H134999   2.008   3.779   0.444
 4480TIP3    H235000   1.903   3.713   0.529
 4481TIP3   OH235001   3.452   4.277   7.535
 4481TIP3    H135002   3.525   4.219   7.512
 4481TIP3    H235003   3.375   4.237   7.494
 4482TIP3   OH235004   5.802   5.800   7.506
 4482TIP3    H135005   5.841   5.870   7.558
 4482TIP3    H235006   5.837   5.813   7.418
 4483TIP3   OH235007   1.577   3.759   6.904
 4483TIP3    H135008   1.628   3.698   6.850
 4483TIP3    H235009   1.589   3.844   6.862
 4484TIP3   OH235010   1.255   2.344   8.099
 4484TIP3    H135011   1.326   2.317   8.042
 4484TIP3    H235012   1.199   2.398   8.043
 4485TIP3   OH235013   1.355   1.792   0.518
 4485TIP3    H135014   1.269   1.821   0.547
 4485TIP3    H235015   1.391   1.867   0.471
 4486TIP3   OH235016   6.570   1.925   8.557
 4486TIP3    H135017   6.533   1.964   8.478
 4486TIP3    H235018   6.556   1.831   8.547
 4487TIP3   OH235019   0.420   2.827   6.975
 4487TIP3    H135020   0.430   2.764   7.046
 4487TIP3    H235021   0.455   2.783   6.898
 4488TIP3   OH235022   5.015   3.990   0.207
 4488TIP3    H135023   5.058   4.072   0.231
 4488TIP3    H235024   5.062   3.960   0.130
 4489TIP3   OH235025   3.769   4.228   2.537
 4489TIP3    H135026   3.846   4.252   2.485
 4489TIP3    H235027   3.776   4.133   2.547
 4490TIP3   OH235028   4.304   6.577   2.523
 4490TIP3    H135029   4.251   6.656   2.530
 4490TIP3    H235030   4.285   6.544   2.435
 4491TIP3   OH235031   5.697   2.243   7.874
 4491TIP3    H135032   5.718   2.269   7.964
 4491TIP3    H235033   5.717   2.150   7.870
 4492TIP3   OH235034   0.438   5.936   6.189
 4492TIP3    H135035   0.515   5.910   6.240
 4492TIP3    H235036   0.470   6.005   6.132
 4493TIP3   OH235037   4.615   1.152   1.820
 4493TIP3    H135038   4.556   1.215   1.862
 4493TIP3    H235039   4.700   1.198   1.818
 4494TIP3   OH235040   0.008   2.907   7.011
 4494TIP3    H135041   6.819   2.913   6.975
 4494TIP3    H235042   0.026   2.813   7.014
 4495TIP3   OH235043   6.820   2.324   0.299
 4495TIP3    H135044   6.773   2.241   0.295
 4495TIP3    H235045   6.770   2.378   0.360
 4496TIP3   OH235046   0.778   2.398   0.192
 4496TIP3    H135047   0.720   2.374   0.264
 4496TIP3    H235048   0.799   2.316   0.149
 4497TIP3   OH235049   1.865   1.778   1.226
 4497TIP3    H135050   1.869   1.779   1.322
 4497TIP3    H235051   1.883   1.686   1.203
 4498TIP3   OH235052   6.378   5.486   1.385
 4498TIP3    H135053   6.343   5.404   1.419
 4498TIP3    H235054   6.321   5.509   1.312
 4499TIP3   OH235055   5.509   3.787   6.447
 4499TIP3    H135056   5.415   3.767   6.450
 4499TIP3    H235057   5.517   3.871   6.491
 4500TIP3   OH235058   1.893   0.719   8.054
 4500TIP3    H135059   1.855   0.690   7.971
 4500TIP3    H235060   1.817   0.744   8.107
 4501TIP3   OH235061   2.882   4.284   7.642
 4501TIP3    H135062   2.910   4.202   7.602
 4501TIP3    H235063   2.932   4.289   7.724
 4502TIP3   OH235064   5.243   1.545   1.189
 4502TIP3    H135065   5.213   1.635   1.200
 4502TIP3    H235066   5.332   1.553   1.155
 4503TIP3   OH235067   3.870   5.983   1.609
 4503TIP3    H135068   3.801   5.920   1.588
 4503TIP3    H235069   3.948   5.929   1.624
 4504TIP3   OH235070   1.795   5.626   0.481
 4504TIP3    H135071   1.838   5.584   0.406
 4504TIP3    H235072   1.866   5.640   0.544
 4505TIP3   OH235073   0.233   6.375   1.581
 4505TIP3    H135074   0.188   6.436   1.639
 4505TIP3    H235075   0.250   6.298   1.637
 4506TIP3   OH235076   6.690   1.825   8.317
 4506TIP3    H135077   6.781   1.799   8.330
 4506TIP3    H235078   6.650   1.753   8.269
 4507TIP3   OH235079   5.387   3.540   8.213
 4507TIP3    H135080   5.338   3.460   8.197
 4507TIP3    H235081   5.374   3.593   8.134
 4508TIP3   OH235082   4.479   4.690   0.635
 4508TIP3    H135083   4.564   4.646   0.638
 4508TIP3    H235084   4.495   4.768   0.582
 4509TIP3   OH235085   0.048   4.497   6.885
 4509TIP3    H135086   0.102   4.557   6.835
 4509TIP3    H235087   0.103   4.469   6.958
 4510TIP3   OH235088   5.634   6.307   1.221
 4510TIP3    H135089   5.545   6.274   1.214
 4510TIP3    H235090   5.631   6.372   1.291
 4511TIP3   OH235091   1.081   1.236   0.950
 4511TIP3    H135092   1.067   1.141   0.950
 4511TIP3    H235093   1.156   1.249   1.007
 4512TIP3   OH235094   1.241   4.555   0.009
 4512TIP3    H135095   1.189   4.599   0.077
 4512TIP3    H235096   1.176   4.509   8.575
 4513TIP3   OH235097   1.978   1.376   6.228
 4513TIP3    H135098   2.016   1.309   6.171
 4513TIP3    H235099   2.054   1.420   6.267
 4514TIP3   OH235100   5.666   1.135   1.989
 4514TIP3    H135101   5.596   1.089   1.945
 4514TIP3    H235102   5.666   1.100   2.078
 4515TIP3   OH235103   0.315   2.535   6.614
 4515TIP3    H135104   0.328   2.442   6.594
 4515TIP3    H235105   0.238   2.560   6.564
 4516TIP3   OH235106   4.856   4.386   8.425
 4516TIP3    H135107   4.786   4.377   8.490
 4516TIP3    H235108   4.927   4.430   8.472
 4517TIP3   OH235109   5.008   1.365   1.577
 4517TIP3    H135110   4.993   1.378   1.671
 4517TIP3    H235111   5.020   1.270   1.568
 4518TIP3   OH235112   2.929   4.193   1.834
 4518TIP3    H135113   2.925   4.104   1.799
 4518TIP3    H235114   2.940   4.182   1.928
 4519TIP3   OH235115   6.153   6.448   7.220
 4519TIP3    H135116   6.065   6.485   7.220
 4519TIP3    H235117   6.202   6.501   7.157
 4520TIP3   OH235118   5.493   1.470   6.851
 4520TIP3    H135119   5.409   1.426   6.841
 4520TIP3    H235120   5.514   1.503   6.763
 4521TIP3   OH235121   4.281   2.974   0.893
 4521TIP3    H135122   4.341   2.903   0.871
 4521TIP3    H235123   4.204   2.929   0.930
 4522TIP3   OH235124   2.221   0.085   0.722
 4522TIP3    H135125   2.144   0.073   0.778
 4522TIP3    H235126   2.195   0.046   0.638
 4523TIP3   OH235127   4.998   3.879   1.247
 4523TIP3    H135128   4.909   3.907   1.227
 4523TIP3    H235129   5.048   3.898   1.167
 4524TIP3   OH235130   2.556   0.375   0.483
 4524TIP3    H135131   2.518   0.364   0.570
 4524TIP3    H235132   2.623   0.307   0.477
 4525TIP3   OH235133   5.147   3.008   8.497
 4525TIP3    H135134   5.100   2.925   8.502
 4525TIP3    H235135   5.240   2.983   8.505
 4526TIP3   OH235136   6.333   1.882   8.198
 4526TIP3    H135137   6.295   1.881   8.110
 4526TIP3    H235138   6.413   1.933   8.189
 4527TIP3   OH235139   2.162   1.905   1.058
 4527TIP3    H135140   2.135   1.879   1.146
 4527TIP3    H235141   2.226   1.840   1.031
 4528TIP3   OH235142   4.084   5.117   1.759
 4528TIP3    H135143   4.161   5.066   1.784
 4528TIP3    H235144   4.043   5.140   1.843
 4529TIP3   OH235145   5.586   1.684   0.092
 4529TIP3    H135146   5.511   1.708   0.146
 4529TIP3    H235147   5.568   1.593   0.067
 4530TIP3   OH235148   5.944   0.109   1.485
 4530TIP3    H135149   5.974   0.115   1.576
 4530TIP3    H235150   5.858   0.152   1.485
 4531TIP3   OH235151   1.729   0.611   1.534
 4531TIP3    H135152   1.674   0.577   1.605
 4531TIP3    H235153   1.753   0.699   1.563
 4532TIP3   OH235154   6.811   2.535   7.477
 4532TIP3    H135155   6.839   2.625   7.493
 4532TIP3    H235156   6.726   2.529   7.521
 4533TIP3   OH235157   0.091   4.118   6.829
 4533TIP3    H135158   0.026   4.189   6.829
 4533TIP3    H235159   0.175   4.162   6.844
 4534TIP3   OH235160   6.361   4.233   8.135
 4534TIP3    H135161   6.326   4.156   8.091
 4534TIP3    H235162   6.411   4.279   8.067
 4535TIP3   OH235163   0.509   1.956   0.155
 4535TIP3    H135164   0.461   2.020   0.208
 4535TIP3    H235165   0.473   1.965   0.067
 4536TIP3   OH235166   4.412   4.092   0.385
 4536TIP3    H135167   4.448   4.020   0.438
 4536TIP3    H235168   4.372   4.151   0.449
 4537TIP3   OH235169   0.708   2.166   1.132
 4537TIP3    H135170   0.622   2.166   1.175
 4537TIP3    H235171   0.770   2.184   1.203
 4538TIP3   OH235172   4.956   1.655   1.226
 4538TIP3    H135173   4.938   1.580   1.169
 4538TIP3    H235174   4.917   1.632   1.310
 4539TIP3   OH235175   5.867   6.346   0.767
 4539TIP3    H135176   5.778   6.336   0.734
 4539TIP3    H235177   5.856   6.377   0.857
 4540TIP3   OH235178   2.167   4.240   6.671
 4540TIP3    H135179   2.155   4.199   6.585
 4540TIP3    H235180   2.228   4.182   6.717
 4541TIP3   OH235181   3.607   3.922   8.285
 4541TIP3    H135182   3.646   3.969   8.211
 4541TIP3    H235183   3.682   3.879   8.328
 4542TIP3   OH235184   2.259   4.359   1.108
 4542TIP3    H135185   2.217   4.392   1.187
 4542TIP3    H235186   2.352   4.374   1.121
 4543TIP3   OH235187   1.500   2.885   0.084
 4543TIP3    H135188   1.556   2.963   0.090
 4543TIP3    H235189   1.518   2.837   0.165
 4544TIP3   OH235190   2.752   3.965   1.722
 4544TIP3    H135191   2.673   3.989   1.675
 4544TIP3    H235192   2.739   4.001   1.810
 4545TIP3   OH235193   1.209   4.402   6.844
 4545TIP3    H135194   1.288   4.453   6.827
 4545TIP3    H235195   1.152   4.461   6.893
 4546TIP3   OH235196   1.705   0.572   8.313
 4546TIP3    H135197   1.663   0.578   8.227
 4546TIP3    H235198   1.635   0.588   8.376
 4547TIP3   OH235199   2.345   3.277   7.825
 4547TIP3    H135200   2.264   3.327   7.817
 4547TIP3    H235201   2.364   3.275   7.919
 4548TIP3   OH235202   4.888   5.745   6.672
 4548TIP3    H135203   4.983   5.754   6.664
 4548TIP3    H235204   4.865   5.677   6.608
 4549TIP3   OH235205   3.614   3.224   8.354
 4549TIP3    H135206   3.527   3.192   8.329
 4549TIP3    H235207   3.674   3.172   8.302
 4550TIP3   OH235208   2.591   6.898   0.258
 4550TIP3    H135209   2.657   6.849   0.211
 4550TIP3    H235210   2.641   0.062   0.310
 4551TIP3   OH235211   3.528   0.320   1.787
 4551TIP3    H135212   3.497   0.235   1.818
 4551TIP3    H235213   3.572   0.358   1.863
 4552TIP3   OH235214   0.736   6.640   7.602
 4552TIP3    H135215   0.660   6.698   7.596
 4552TIP3    H235216   0.790   6.678   7.672
 4553TIP3   OH235217   2.830   1.295   6.725
 4553TIP3    H135218   2.853   1.255   6.641
 4553TIP3    H235219   2.908   1.286   6.779
 4554TIP3   OH235220   6.734   1.759   7.899
 4554TIP3    H135221   6.795   1.737   7.829
 4554TIP3    H235222   6.687   1.835   7.866
 4555TIP3   OH235223   1.121   0.998   1.155
 4555TIP3    H135224   1.046   0.967   1.206
 4555TIP3    H235225   1.134   1.089   1.183
 4556TIP3   OH235226   3.584   4.169   6.173
 4556TIP3    H135227   3.646   4.147   6.103
 4556TIP3    H235228   3.499   4.137   6.140
 4557TIP3   OH235229   4.118   2.897   1.117
 4557TIP3    H135230   4.032   2.918   1.082
 4557TIP3    H235231   4.107   2.812   1.160
 4558TIP3   OH235232   3.766   0.947   0.660
 4558TIP3    H135233   3.857   0.921   0.657
 4558TIP3    H235234   3.739   0.951   0.568
 4559TIP3   OH235235   4.921   4.585   7.155
 4559TIP3    H135236   4.898   4.668   7.197
 4559TIP3    H235237   4.978   4.610   7.082
 4560TIP3   OH235238   2.043   2.560   0.040
 4560TIP3    H135239   2.068   2.583   8.570
 4560TIP3    H235240   2.025   2.645   0.082
 4561TIP3   OH235241   1.203   3.317   8.157
 4561TIP3    H135242   1.112   3.307   8.185
 4561TIP3    H235243   1.235   3.391   8.208
 4562TIP3   OH235244   1.997   5.808   7.834
 4562TIP3    H135245   1.969   5.798   7.743
 4562TIP3    H235246   2.059   5.880   7.832
 4563TIP3   OH235247   4.820   5.433   7.778
 4563TIP3    H135248   4.861   5.383   7.849
 4563TIP3    H235249   4.729   5.441   7.804
 4564TIP3   OH235250   1.044   1.580   1.180
 4564TIP3    H135251   0.959   1.554   1.146
 4564TIP3    H235252   1.058   1.522   1.255
 4565TIP3   OH235253   6.475   2.887   1.570
 4565TIP3    H135254   6.438   2.906   1.656
 4565TIP3    H235255   6.557   2.840   1.588
 4566TIP3   OH235256   0.453   3.332   7.355
 4566TIP3    H135257   0.545   3.333   7.329
 4566TIP3    H235258   0.407   3.295   7.280
 4567TIP3   OH235259   0.909   3.158   1.744
 4567TIP3    H135260   0.937   3.137   1.833
 4567TIP3    H235261   0.891   3.073   1.704
 4568TIP3   OH235262   4.251   3.401   1.613
 4568TIP3    H135263   4.286   3.343   1.680
 4568TIP3    H235264   4.327   3.449   1.580
 4569TIP3   OH235265   5.444   4.158   7.100
 4569TIP3    H135266   5.462   4.073   7.061
 4569TIP3    H235267   5.500   4.219   7.052
 4570TIP3   OH235268   4.497   1.454   7.849
 4570TIP3    H135269   4.457   1.527   7.897
 4570TIP3    H235270   4.554   1.413   7.913
 4571TIP3   OH235271   1.231   0.095   0.444
 4571TIP3    H135272   1.296   0.159   0.474
 4571TIP3    H235273   1.147   0.137   0.463
 4572TIP3   OH235274   6.126   2.570   7.601
 4572TIP3    H135275   6.050   2.587   7.657
 4572TIP3    H235276   6.200   2.566   7.662
 4573TIP3   OH235277   3.455   4.256   0.953
 4573TIP3    H135278   3.518   4.206   0.901
 4573TIP3    H235279   3.443   4.204   1.032
 4574TIP3   OH235280   6.865   6.823   1.008
 4574TIP3    H135281   6.813   6.751   0.972
 4574TIP3    H235282   0.042   6.827   0.952
 4575TIP3   OH235283   1.745   0.011   7.351
 4575TIP3    H135284   1.661   6.866   7.347
 4575TIP3    H235285   1.787   6.875   7.429
 4576TIP3   OH235286   1.992   0.469   1.575
 4576TIP3    H135287   1.959   0.439   1.490
 4576TIP3    H235288   2.032   0.392   1.614
 4577TIP3   OH235289   3.299   3.808   0.133
 4577TIP3    H135290   3.261   3.722   0.117
 4577TIP3    H235291   3.335   3.835   0.049
 4578TIP3   OH235292   5.942   1.374   1.059
 4578TIP3    H135293   5.967   1.289   1.023
 4578TIP3    H235294   5.850   1.363   1.084
 4579TIP3   OH235295   0.703   3.847   0.020
 4579TIP3    H135296   0.694   3.872   8.547
 4579TIP3    H235297   0.765   3.774   0.019
 4580TIP3   OH235298   4.966   4.981   1.713
 4580TIP3    H135299   5.008   4.943   1.791
 4580TIP3    H235300   5.038   4.991   1.650
 4581TIP3   OH235301   2.939   3.282   2.597
 4581TIP3    H135302   2.994   3.219   2.644
 4581TIP3    H235303   2.960   3.267   2.504
 4582TIP3   OH235304   4.279   2.716   7.300
 4582TIP3    H135305   4.202   2.772   7.299
 4582TIP3    H235306   4.293   2.695   7.392
 4583TIP3   OH235307   6.730   4.720   6.447
 4583TIP3    H135308   6.719   4.763   6.362
 4583TIP3    H235309   6.641   4.709   6.480
 4584TIP3   OH235310   2.936   3.161   1.886
 4584TIP3    H135311   2.919   3.246   1.926
 4584TIP3    H235312   2.973   3.182   1.800
 4585TIP3   OH235313   6.238   1.595   7.708
 4585TIP3    H135314   6.333   1.598   7.694
 4585TIP3    H235315   6.227   1.542   7.786
 4586TIP3   OH235316   6.478   0.647   0.459
 4586TIP3    H135317   6.477   0.737   0.491
 4586TIP3    H235318   6.569   0.630   0.437
 4587TIP3   OH235319   1.863   4.822   1.568
 4587TIP3    H135320   1.799   4.754   1.550
 4587TIP3    H235321   1.918   4.826   1.490
 4588TIP3   OH235322   5.043   1.777   2.086
 4588TIP3    H135323   5.085   1.771   2.172
 4588TIP3    H235324   4.955   1.742   2.100
 4589TIP3   OH235325   5.667   3.113   7.716
 4589TIP3    H135326   5.654   3.205   7.693
 4589TIP3    H235327   5.707   3.116   7.803
 4590TIP3   OH235328   1.250   1.556   2.247
 4590TIP3    H135329   1.345   1.559   2.234
 4590TIP3    H235330   1.218   1.637   2.208
 4591TIP3   OH235331   6.249   5.962   0.871
 4591TIP3    H135332   6.328   6.008   0.842
 4591TIP3    H235333   6.178   6.025   0.857
 4592TIP3   OH235334   0.905   4.702   1.553
 4592TIP3    H135335   0.837   4.653   1.599
 4592TIP3    H235336   0.858   4.754   1.489
 4593TIP3   OH235337   6.661   5.825   7.586
 4593TIP3    H135338   6.687   5.768   7.658
 4593TIP3    H235339   6.728   5.811   7.519
 4594TIP3   OH235340   3.738   4.679   6.996
 4594TIP3    H135341   3.694   4.702   7.078
 4594TIP3    H235342   3.668   4.671   6.932
 4595TIP3   OH235343   3.736   0.916   1.139
 4595TIP3    H135344   3.711   0.939   1.050
 4595TIP3    H235345   3.720   0.822   1.145
 4596TIP3   OH235346   2.988   0.153   0.558
 4596TIP3    H135347   3.023   0.120   0.641
 4596TIP3    H235348   3.020   0.243   0.552
 4597TIP3   OH235349   3.415   0.169   6.544
 4597TIP3    H135350   3.326   0.142   6.570
 4597TIP3    H235351   3.402   0.233   6.475
 4598TIP3   OH235352   1.161   1.909   8.159
 4598TIP3    H135353   1.130   1.892   8.070
 4598TIP3    H235354   1.202   1.995   8.154
 4599TIP3   OH235355   6.018   2.834   0.598
 4599TIP3    H135356   6.074   2.853   0.673
 4599TIP3    H235357   5.988   2.919   0.568
 4600TIP3   OH235358   6.323   3.802   1.719
 4600TIP3    H135359   6.261   3.869   1.749
 4600TIP3    H235360   6.410   3.839   1.740
 4601TIP3   OH235361   5.454   3.091   8.142
 4601TIP3    H135362   5.470   3.151   8.215
 4601TIP3    H235363   5.380   3.129   8.095
 4602TIP3   OH235364   4.939   0.175   0.205
 4602TIP3    H135365   5.012   0.137   0.253
 4602TIP3    H235366   4.891   0.100   0.171
 4603TIP3   OH235367   1.520   4.193   6.615
 4603TIP3    H135368   1.444   4.250   6.629
 4603TIP3    H235369   1.505   4.153   6.529
 4604TIP3   OH235370   2.077   2.259   2.037
 4604TIP3    H135371   2.011   2.328   2.042
 4604TIP3    H235372   2.031   2.179   2.062
 4605TIP3   OH235373   3.753   4.257   7.293
 4605TIP3    H135374   3.721   4.227   7.208
 4605TIP3    H235375   3.848   4.245   7.288
 4606TIP3   OH235376   3.931   5.022   6.452
 4606TIP3    H135377   4.004   4.977   6.410
 4606TIP3    H235378   3.972   5.073   6.522
 4607TIP3   OH235379   1.596   0.646   8.070
 4607TIP3    H135380   1.629   0.664   7.982
 4607TIP3    H235381   1.547   0.565   8.062
 4608TIP3   OH235382   4.370   0.991   1.785
 4608TIP3    H135383   4.301   0.973   1.720
 4608TIP3    H235384   4.430   1.050   1.739
 4609TIP3   OH235385   5.828   6.691   1.020
 4609TIP3    H135386   5.750   6.667   1.070
 4609TIP3    H235387   5.862   6.769   1.065
 4610TIP3   OH235388   3.395   3.229   0.591
 4610TIP3    H135389   3.319   3.183   0.555
 4610TIP3    H235390   3.462   3.162   0.601
 4611TIP3   OH235391   3.400   1.771   1.669
 4611TIP3    H135392   3.482   1.817   1.685
 4611TIP3    H235393   3.425   1.684   1.640
 4612TIP3   OH235394   2.695   4.100   8.362
 4612TIP3    H135395   2.651   4.185   8.358
 4612TIP3    H235396   2.785   4.119   8.336
 4613TIP3   OH235397   5.421   1.480   1.648
 4613TIP3    H135398   5.334   1.494   1.610
 4613TIP3    H235399   5.405   1.422   1.723
 4614TIP3   OH235400   3.838   1.694   8.181
 4614TIP3    H135401   3.896   1.763   8.212
 4614TIP3    H235402   3.750   1.725   8.201
 4615TIP3   OH235403   6.371   0.106   8.003
 4615TIP3    H135404   6.300   0.151   8.049
 4615TIP3    H235405   6.408   0.172   7.944
 4616TIP3   OH235406   0.265   5.753   7.932
 4616TIP3    H135407   0.327   5.681   7.935
 4616TIP3    H235408   0.207   5.739   8.007
 4617TIP3   OH235409   3.098   2.489   6.982
 4617TIP3    H135410   3.184   2.517   7.015
 4617TIP3    H235411   3.117   2.441   6.902
 4618TIP3   OH235412   1.846   3.194   7.832
 4618TIP3    H135413   1.752   3.179   7.826
 4618TIP3    H235414   1.865   3.188   7.926
 4619TIP3   OH235415   3.700   5.265   0.148
 4619TIP3    H135416   3.770   5.248   0.211
 4619TIP3    H235417   3.684   5.359   0.154
 4620TIP3   OH235418   2.758   2.946   1.357
 4620TIP3    H135419   2.673   2.918   1.325
 4620TIP3    H235420   2.748   2.950   1.452
 4621TIP3   OH235421   5.359   0.702   7.047
 4621TIP3    H135422   5.264   0.713   7.038
 4621TIP3    H235423   5.396   0.748   6.972
 4622TIP3   OH235424   4.643   0.682   6.755
 4622TIP3    H135425   4.679   0.757   6.708
 4622TIP3    H235426   4.658   0.701   6.847
 4623TIP3   OH235427   6.154   5.663   0.542
 4623TIP3    H135428   6.175   5.669   0.635
 4623TIP3    H235429   6.186   5.746   0.505
 4624TIP3   OH235430   2.472   2.905   1.266
 4624TIP3    H135431   2.409   2.839   1.237
 4624TIP3    H235432   2.418   2.973   1.306
 4625TIP3   OH235433   2.645   3.163   0.695
 4625TIP3    H135434   2.694   3.190   0.617
 4625TIP3    H235435   2.710   3.159   0.764
 4626TIP3   OH235436   5.139   6.418   8.162
 4626TIP3    H135437   5.136   6.335   8.210
 4626TIP3    H235438   5.110   6.483   8.225
 4627TIP3   OH235439   6.675   0.218   7.997
 4627TIP3    H135440   6.678   0.129   8.032
 4627TIP3    H235441   6.643   0.271   8.069
 4628TIP3   OH235442   4.683   5.684   1.916
 4628TIP3    H135443   4.594   5.698   1.883
 4628TIP3    H235444   4.730   5.765   1.893
 4629TIP3   OH235445   5.642   3.317   1.454
 4629TIP3    H135446   5.652   3.278   1.367
 4629TIP3    H235447   5.664   3.409   1.442
 4630TIP3   OH235448   0.188   4.347   7.465
 4630TIP3    H135449   0.116   4.409   7.456
 4630TIP3    H235450   0.229   4.344   7.379
 4631TIP3   OH235451   6.696   1.156   7.529
 4631TIP3    H135452   6.738   1.208   7.462
 4631TIP3    H235453   6.606   1.145   7.498
 4632TIP3   OH235454   5.180   6.161   1.392
 4632TIP3    H135455   5.201   6.128   1.479
 4632TIP3    H235456   5.101   6.214   1.405
 4633TIP3   OH235457   5.803   3.411   0.365
 4633TIP3    H135458   5.854   3.483   0.401
 4633TIP3    H235459   5.712   3.443   0.367
 4634TIP3   OH235460   1.854   3.614   8.488
 4634TIP3    H135461   1.795   3.672   8.440
 4634TIP3    H235462   1.911   3.674   8.537
 4635TIP3   OH235463   1.497   6.337   7.017
 4635TIP3    H135464   1.437   6.282   6.966
 4635TIP3    H235465   1.581   6.330   6.971
 4636TIP3   OH235466   1.718   3.465   8.229
 4636TIP3    H135467   1.678   3.448   8.314
 4636TIP3    H235468   1.665   3.415   8.167
 4637TIP3   OH235469   3.963   4.049   7.377
 4637TIP3    H135470   3.951   4.129   7.428
 4637TIP3    H235471   3.990   3.984   7.442
 4638TIP3   OH235472   4.290   1.048   7.587
 4638TIP3    H135473   4.344   1.120   7.619
 4638TIP3    H235474   4.203   1.067   7.622
 4639TIP3   OH235475   2.351   0.897   7.410
 4639TIP3    H135476   2.403   0.820   7.435
 4639TIP3    H235477   2.302   0.868   7.333
 4640TIP3   OH235478   6.276   2.257   1.556
 4640TIP3    H135479   6.203   2.273   1.496
 4640TIP3    H235480   6.250   2.178   1.605
 4641TIP3   OH235481   2.364   2.401   6.968
 4641TIP3    H135482   2.349   2.436   6.880
 4641TIP3    H235483   2.458   2.414   6.984
 4642TIP3   OH235484   0.209   2.238   7.216
 4642TIP3    H135485   0.144   2.197   7.272
 4642TIP3    H235486   0.273   2.276   7.276
 4643TIP3   OH235487   3.165   1.489   1.656
 4643TIP3    H135488   3.176   1.423   1.588
 4643TIP3    H235489   3.100   1.550   1.621
 4644TIP3   OH235490   4.244   2.283   1.961
 4644TIP3    H135491   4.326   2.332   1.964
 4644TIP3    H235492   4.182   2.339   2.009
 4645TIP3   OH235493   6.050   4.085   1.685
 4645TIP3    H135494   6.059   4.179   1.694
 4645TIP3    H235495   6.018   4.055   1.771
 4646TIP3   OH235496   0.270   4.988   6.493
 4646TIP3    H135497   0.264   4.906   6.444
 4646TIP3    H235498   0.360   4.988   6.528
 4647TIP3   OH235499   1.216   3.009   1.084
 4647TIP3    H135500   1.310   2.992   1.092
 4647TIP3    H235501   1.210   3.075   1.015
 4648TIP3   OH235502   3.726   6.400   1.112
 4648TIP3    H135503   3.766   6.470   1.061
 4648TIP3    H235504   3.801   6.351   1.148
 4649TIP3   OH235505   4.858   5.141   7.991
 4649TIP3    H135506   4.824   5.101   8.071
 4649TIP3    H235507   4.945   5.174   8.016
 4650TIP3   OH235508   3.862   6.306   7.645
 4650TIP3    H135509   3.854   6.375   7.711
 4650TIP3    H235510   3.776   6.302   7.604
 4651TIP3   OH235511   2.774   2.935   7.757
 4651TIP3    H135512   2.696   2.990   7.770
 4651TIP3    H235513   2.741   2.845   7.761
 4652TIP3   OH235514   5.200   0.828   0.982
 4652TIP3    H135515   5.190   0.760   1.049
 4652TIP3    H235516   5.246   0.899   1.027
 4653TIP3   OH235517   6.900   5.610   7.240
 4653TIP3    H135518   6.825   5.555   7.219
 4653TIP3    H235519   0.032   5.641   7.156
 4654TIP3   OH235520   4.413   3.558   2.319
 4654TIP3    H135521   4.369   3.487   2.271
 4654TIP3    H235522   4.358   3.571   2.397
 4655TIP3   OH235523   1.849   1.469   1.306
 4655TIP3    H135524   1.773   1.461   1.249
 4655TIP3    H235525   1.909   1.400   1.276
 4656TIP3   OH235526   0.711   3.564   1.992
 4656TIP3    H135527   0.670   3.582   1.907
 4656TIP3    H235528   0.787   3.510   1.971
 4657TIP3   OH235529   0.009   4.155   6.542
 4657TIP3    H135530   6.854   4.232   6.528
 4657TIP3    H235531   0.003   4.138   6.636
 4658TIP3   OH235532   5.695   3.787   1.628
 4658TIP3    H135533   5.710   3.880   1.646
 4658TIP3    H235534   5.733   3.742   1.704
 4659TIP3   OH235535   5.856   0.386   6.655
 4659TIP3    H135536   5.883   0.475   6.631
 4659TIP3    H235537   5.840   0.391   6.750
 4660TIP3   OH235538   5.614   6.353   7.228
 4660TIP3    H135539   5.616   6.335   7.135
 4660TIP3    H235540   5.564   6.434   7.236
 4661TIP3   OH235541   6.332   6.818   0.841
 4661TIP3    H135542   6.320   0.005   0.878
 4661TIP3    H235543   6.243   6.786   0.825
 4662TIP3   OH235544   4.055   4.140   0.944
 4662TIP3    H135545   4.050   4.091   1.026
 4662TIP3    H235546   3.965   4.168   0.927
 4663TIP3   OH235547   2.547   1.664   6.357
 4663TIP3    H135548   2.625   1.717   6.376
 4663TIP3    H235549   2.583   1.580   6.329
 4664TIP3   OH235550   3.642   4.665   1.577
 4664TIP3    H135551   3.738   4.670   1.583
 4664TIP3    H235552   3.614   4.755   1.562
 4665TIP3   OH235553   2.432   2.939   8.016
 4665TIP3    H135554   2.411   2.915   8.106
 4665TIP3    H235555   2.446   3.034   8.020
 4666TIP3   OH235556   1.040   4.895   8.335
 4666TIP3    H135557   0.988   4.886   8.255
 4666TIP3    H235558   1.075   4.984   8.330
 4667TIP3   OH235559   3.583   4.490   8.178
 4667TIP3    H135560   3.605   4.444   8.259
 4667TIP3    H235561   3.636   4.570   8.180
 4668TIP3   OH235562   4.182   5.239   0.684
 4668TIP3    H135563   4.111   5.262   0.743
 4668TIP3    H235564   4.140   5.192   0.612
 4669TIP3   OH235565   0.563   0.501   6.302
 4669TIP3    H135566   0.473   0.520   6.276
 4669TIP3    H235567   0.614   0.514   6.222
 4670TIP3   OH235568   5.928   2.978   1.091
 4670TIP3    H135569   5.867   2.910   1.117
 4670TIP3    H235570   5.881   3.029   1.025
 4671TIP3   OH235571   1.676   4.893   2.092
 4671TIP3    H135572   1.644   4.931   2.010
 4671TIP3    H235573   1.656   4.960   2.158
 4672TIP3   OH235574   0.154   2.549   0.760
 4672TIP3    H135575   0.102   2.518   0.834
 4672TIP3    H235576   0.227   2.486   0.754
 4673TIP3   OH235577   6.089   3.804   8.035
 4673TIP3    H135578   5.997   3.825   8.019
 4673TIP3    H235579   6.134   3.888   8.036
 4674TIP3   OH235580   6.581   5.226   8.520
 4674TIP3    H135581   6.565   5.133   8.536
 4674TIP3    H235582   6.572   5.235   8.425
 4675TIP3   OH235583   0.718   1.406   7.537
 4675TIP3    H135584   0.725   1.484   7.482
 4675TIP3    H235585   0.776   1.342   7.496
 4676TIP3   OH235586   4.731   1.549   7.569
 4676TIP3    H135587   4.803   1.554   7.632
 4676TIP3    H235588   4.773   1.556   7.483
 4677TIP3   OH235589   5.379   2.241   7.961
 4677TIP3    H135590   5.301   2.186   7.963
 4677TIP3    H235591   5.441   2.197   8.019
 4678TIP3   OH235592   4.676   4.507   0.675
 4678TIP3    H135593   4.759   4.467   0.652
 4678TIP3    H235594   4.622   4.434   0.705
 4679TIP3   OH235595   1.543   2.835   6.881
 4679TIP3    H135596   1.589   2.812   6.800
 4679TIP3    H235597   1.464   2.782   6.879
 4680TIP3   OH235598   1.306   4.029   8.529
 4680TIP3    H135599   1.380   4.018   8.469
 4680TIP3    H235600   1.300   4.123   8.543
 4681TIP3   OH235601   3.956   6.305   0.446
 4681TIP3    H135602   4.008   6.370   0.401
 4681TIP3    H235603   4.018   6.257   0.501
 4682TIP3   OH235604   2.508   1.883   0.045
 4682TIP3    H135605   2.460   1.812   0.087
 4682TIP3    H235606   2.561   1.921   0.115
 4683TIP3   OH235607   2.178   0.258   0.338
 4683TIP3    H135608   2.113   0.202   0.296
 4683TIP3    H235609   2.135   0.290   0.417
 4684TIP3   OH235610   4.701   6.446   7.822
 4684TIP3    H135611   4.781   6.472   7.867
 4684TIP3    H235612   4.673   6.366   7.866
 4685TIP3   OH235613   3.565   0.991   2.025
 4685TIP3    H135614   3.509   1.060   1.989
 4685TIP3    H235615   3.630   1.038   2.078
 4686TIP3   OH235616   0.688   1.997   7.536
 4686TIP3    H135617   0.759   1.948   7.495
 4686TIP3    H235618   0.725   2.029   7.618
 4687TIP3   OH235619   6.799   5.404   7.700
 4687TIP3    H135620   6.778   5.494   7.725
 4687TIP3    H235621   6.829   5.411   7.609
 4688TIP3   OH235622   6.275   0.245   0.569
 4688TIP3    H135623   6.210   0.176   0.572
 4688TIP3    H235624   6.359   0.200   0.582
 4689TIP3   OH235625   5.743   1.710   0.601
 4689TIP3    H135626   5.823   1.730   0.552
 4689TIP3    H235627   5.716   1.625   0.569
 4690TIP3   OH235628   5.738   3.049   8.020
 4690TIP3    H135629   5.645   3.059   8.041
 4690TIP3    H235630   5.784   3.087   8.095
 4691TIP3   OH235631   0.385   1.529   8.285
 4691TIP3    H135632   0.301   1.545   8.242
 4691TIP3    H235633   0.395   1.602   8.346
 4692TIP3   OH235634   1.831   6.268   2.053
 4692TIP3    H135635   1.887   6.195   2.079
 4692TIP3    H235636   1.791   6.298   2.134
 4693TIP3   OH235637   3.897   6.771   1.636
 4693TIP3    H135638   3.949   6.720   1.699
 4693TIP3    H235639   3.839   6.707   1.595
 4694TIP3   OH235640   2.234   4.145   8.446
 4694TIP3    H135641   2.263   4.071   8.500
 4694TIP3    H235642   2.150   4.171   8.486
 4695TIP3   OH235643   3.699   6.292   0.525
 4695TIP3    H135644   3.793   6.308   0.515
 4695TIP3    H235645   3.659   6.350   0.460
 4696TIP3   OH235646   5.394   3.851   1.218
 4696TIP3    H135647   5.375   3.782   1.155
 4696TIP3    H235648   5.453   3.911   1.172
 4697TIP3   OH235649   2.660   5.264   0.097
 4697TIP3    H135650   2.601   5.189   0.095
 4697TIP3    H235651   2.712   5.252   0.176
 4698TIP3   OH235652   5.133   3.036   0.688
 4698TIP3    H135653   5.066   3.103   0.699
 4698TIP3    H235654   5.085   2.953   0.689
 4699TIP3   OH235655   0.296   1.928   8.596
 4699TIP3    H135656   0.279   1.957   8.506
 4699TIP3    H235657   0.212   1.942   0.022
 4700TIP3   OH235658   4.149   3.734   7.768
 4700TIP3    H135659   4.158   3.644   7.799
 4700TIP3    H235660   4.179   3.788   7.841
 4701TIP3   OH235661   2.460   2.744   1.575
 4701TIP3    H135662   2.419   2.705   1.652
 4701TIP3    H235663   2.428   2.835   1.575
 4702TIP3   OH235664   6.165   5.142   8.232
 4702TIP3    H135665   6.195   5.058   8.266
 4702TIP3    H235666   6.123   5.121   8.148
 4703TIP3   OH235667   6.324   4.976   8.605
 4703TIP3    H135668   6.322   4.929   0.068
 4703TIP3    H235669   6.271   5.055   0.001
 4704TIP3   OH235670   4.717   3.211   8.287
 4704TIP3    H135671   4.749   3.168   8.208
 4704TIP3    H235672   4.737   3.149   8.357
 4705TIP3   OH235673   6.388   2.068   0.565
 4705TIP3    H135674   6.358   2.149   0.605
 4705TIP3    H235675   6.449   2.030   0.629
 4706TIP3   OH235676   2.259   3.602   0.441
 4706TIP3    H135677   2.239   3.614   0.348
 4706TIP3    H235678   2.177   3.621   0.486
 4707TIP3   OH235679   5.186   0.929   0.143
 4707TIP3    H135680   5.206   0.864   0.211
 4707TIP3    H235681   5.269   0.939   0.095
 4708TIP3   OH235682   0.303   6.085   1.423
 4708TIP3    H135683   0.260   6.126   1.498
 4708TIP3    H235684   0.387   6.131   1.416
 4709TIP3   OH235685   0.481   3.574   1.072
 4709TIP3    H135686   0.477   3.657   1.120
 4709TIP3    H235687   0.393   3.539   1.077
 4710TIP3   OH235688   6.517   1.169   0.311
 4710TIP3    H135689   6.593   1.213   0.351
 4710TIP3    H235690   6.495   1.223   0.235
 4711TIP3   OH235691   5.115   4.308   0.019
 4711TIP3    H135692   5.152   4.311   0.107
 4711TIP3    H235693   5.123   4.398   8.606
 4712TIP3   OH235694   3.418   2.863   0.733
 4712TIP3    H135695   3.354   2.795   0.753
 4712TIP3    H235696   3.465   2.829   0.657
 4713TIP3   OH235697   1.173   6.169   1.050
 4713TIP3    H135698   1.182   6.076   1.074
 4713TIP3    H235699   1.161   6.168   0.955
 4714TIP3   OH235700   1.679   2.183   8.291
 4714TIP3    H135701   1.634   2.264   8.314
 4714TIP3    H235702   1.750   2.209   8.233
 4715TIP3   OH235703   3.179   1.873   7.500
 4715TIP3    H135704   3.180   1.950   7.443
 4715TIP3    H235705   3.225   1.806   7.450
 4716TIP3   OH235706   1.450   0.000   0.210
 4716TIP3    H135707   1.512   0.066   0.178
 4716TIP3    H235708   1.384   0.050   0.258
 4717TIP3   OH235709   6.445   2.639   7.023
 4717TIP3    H135710   6.389   2.684   6.959
 4717TIP3    H235711   6.464   2.706   7.089
 4718TIP3   OH235712   1.025   2.758   1.525
 4718TIP3    H135713   0.987   2.752   1.613
 4718TIP3    H235714   0.957   2.801   1.473
 4719TIP3   OH235715   3.828   1.086   1.344
 4719TIP3    H135716   3.878   1.035   1.408
 4719TIP3    H235717   3.790   1.020   1.286
 4720TIP3   OH235718   0.679   3.366   2.289
 4720TIP3    H135719   0.704   3.441   2.344
 4720TIP3    H235720   0.726   3.379   2.207
 4721TIP3   OH235721   1.614   2.551   0.822
 4721TIP3    H135722   1.691   2.604   0.845
 4721TIP3    H235723   1.645   2.460   0.829
 4722TIP3   OH235724   1.199   3.088   7.918
 4722TIP3    H135725   1.234   3.135   7.843
 4722TIP3    H235726   1.244   3.003   7.915
 4723TIP3   OH235727   5.555   0.784   0.516
 4723TIP3    H135728   5.615   0.849   0.553
 4723TIP3    H235729   5.468   0.811   0.547
 4724TIP3   OH235730   0.257   5.561   6.858
 4724TIP3    H135731   0.329   5.544   6.919
 4724TIP3    H235732   0.293   5.538   6.772
 4725TIP3   OH235733   4.585   5.399   1.871
 4725TIP3    H135734   4.515   5.398   1.806
 4725TIP3    H235735   4.623   5.487   1.864
 4726TIP3   OH235736   0.499   5.819   6.879
 4726TIP3    H135737   0.527   5.750   6.939
 4726TIP3    H235738   0.418   5.787   6.841
 4727TIP3   OH235739   3.601   1.186   1.765
 4727TIP3    H135740   3.525   1.128   1.767
 4727TIP3    H235741   3.623   1.194   1.673
 4728TIP3   OH235742   5.547   5.942   7.572
 4728TIP3    H135743   5.641   5.940   7.552
 4728TIP3    H235744   5.510   6.001   7.507
 4729TIP3   OH235745   0.758   3.702   1.050
 4729TIP3    H135746   0.745   3.615   1.087
 4729TIP3    H235747   0.718   3.699   0.964
 4730TIP3   OH235748   1.665   4.800   7.744
 4730TIP3    H135749   1.644   4.739   7.672
 4730TIP3    H235750   1.750   4.771   7.776
 4731TIP3   OH235751   5.112   2.644   1.681
 4731TIP3    H135752   5.050   2.695   1.732
 4731TIP3    H235753   5.111   2.684   1.594
 4732TIP3   OH235754   2.799   0.620   8.287
 4732TIP3    H135755   2.805   0.713   8.313
 4732TIP3    H235756   2.877   0.580   8.326
 4733TIP3   OH235757   4.771   1.956   7.801
 4733TIP3    H135758   4.797   1.873   7.841
 4733TIP3    H235759   4.831   1.967   7.727
 4734TIP3   OH235760   6.061   2.084   0.199
 4734TIP3    H135761   6.078   2.178   0.191
 4734TIP3    H235762   6.018   2.074   0.284
 4735TIP3   OH235763   3.594   0.675   7.280
 4735TIP3    H135764   3.673   0.725   7.257
 4735TIP3    H235765   3.564   0.640   7.197
 4736TIP3   OH235766   0.260   0.585   8.552
 4736TIP3    H135767   0.321   0.512   8.560
 4736TIP3    H235768   0.216   0.589   0.018
 4737TIP3   OH235769   2.713   3.748   7.763
 4737TIP3    H135770   2.776   3.697   7.814
 4737TIP3    H235771   2.634   3.693   7.761
 4738TIP3   OH235772   6.518   0.220   7.317
 4738TIP3    H135773   6.426   0.247   7.321
 4738TIP3    H235774   6.516   0.126   7.330
 4739TIP3   OH235775   6.733   3.487   8.424
 4739TIP3    H135776   6.810   3.530   8.388
 4739TIP3    H235777   6.690   3.555   8.475
 4740TIP3   OH235778   4.291   6.002   1.216
 4740TIP3    H135779   4.199   6.023   1.234
 4740TIP3    H235780   4.327   6.083   1.181
 4741TIP3   OH235781   1.509   6.560   8.233
 4741TIP3    H135782   1.552   6.571   8.318
 4741TIP3    H235783   1.540   6.635   8.181
 4742TIP3   OH235784   3.674   3.693   2.294
 4742TIP3    H135785   3.588   3.707   2.334
 4742TIP3    H235786   3.684   3.767   2.234
 4743TIP3   OH235787   4.068   4.879   1.409
 4743TIP3    H135788   4.160   4.869   1.388
 4743TIP3    H235789   4.061   4.855   1.501
 4744TIP3   OH235790   6.742   5.082   7.802
 4744TIP3    H135791   6.767   5.106   7.713
 4744TIP3    H235792   6.799   5.135   7.858
 4745TIP3   OH235793   6.743   5.701   7.818
 4745TIP3    H135794   6.823   5.674   7.862
 4745TIP3    H235795   6.680   5.714   7.890
 4746TIP3   OH235796   3.305   6.045   0.187
 4746TIP3    H135797   3.278   5.980   0.121
 4746TIP3    H235798   3.302   5.998   0.270
 4747TIP3   OH235799   3.587   5.943   0.107
 4747TIP3    H135800   3.547   6.013   0.160
 4747TIP3    H235801   3.602   5.872   0.169
 4748TIP3   OH235802   3.885   6.477   8.003
 4748TIP3    H135803   3.886   6.522   7.918
 4748TIP3    H235804   3.854   6.388   7.983
 4749TIP3   OH235805   6.264   2.089   6.835
 4749TIP3    H135806   6.230   2.098   6.746
 4749TIP3    H235807   6.189   2.061   6.887
 4750TIP3   OH235808   5.846   6.384   1.051
 4750TIP3    H135809   5.762   6.367   1.095
 4750TIP3    H235810   5.861   6.477   1.063
 4751TIP3   OH235811   6.112   1.669   7.000
 4751TIP3    H135812   6.112   1.613   7.078
 4751TIP3    H235813   6.027   1.653   6.959
 4752TIP3   OH235814   6.447   4.751   6.512
 4752TIP3    H135815   6.416   4.662   6.524
 4752TIP3    H235816   6.368   4.802   6.495
 4753TIP3   OH235817   3.064   1.226   6.917
 4753TIP3    H135818   3.047   1.135   6.891
 4753TIP3    H235819   3.098   1.219   7.006
 4754TIP3   OH235820   2.703   4.419   7.844
 4754TIP3    H135821   2.772   4.355   7.825
 4754TIP3    H235822   2.738   4.472   7.915
 4755TIP3   OH235823   2.349   5.685   1.421
 4755TIP3    H135824   2.325   5.754   1.359
 4755TIP3    H235825   2.428   5.646   1.385
 4756TIP3   OH235826   3.858   4.278   8.095
 4756TIP3    H135827   3.866   4.301   8.188
 4756TIP3    H235828   3.942   4.305   8.057
 4757TIP3   OH235829   1.243   1.271   8.475
 4757TIP3    H135830   1.174   1.205   8.470
 4757TIP3    H235831   1.268   1.286   8.384
 4758TIP3   OH235832   4.335   6.591   8.010
 4758TIP3    H135833   4.377   6.631   7.934
 4758TIP3    H235834   4.389   6.617   8.084
 4759TIP3   OH235835   6.317   3.661   0.477
 4759TIP3    H135836   6.334   3.754   0.461
 4759TIP3    H235837   6.380   3.615   0.420
 4760TIP3   OH235838   2.433   4.264   6.442
 4760TIP3    H135839   2.351   4.218   6.422
 4760TIP3    H235840   2.493   4.235   6.373
 4761TIP3   OH235841   3.945   3.205   8.436
 4761TIP3    H135842   3.874   3.203   8.500
 4761TIP3    H235843   3.951   3.296   8.409
 4762TIP3   OH235844   1.855   6.445   7.477
 4762TIP3    H135845   1.900   6.412   7.555
 4762TIP3    H235846   1.773   6.396   7.475
 4763TIP3   OH235847   3.892   0.607   8.020
 4763TIP3    H135848   3.845   0.578   8.098
 4763TIP3    H235849   3.870   0.544   7.952
 4764TIP3   OH235850   0.404   0.805   7.567
 4764TIP3    H135851   0.482   0.762   7.531
 4764TIP3    H235852   0.334   0.740   7.556
 4765TIP3   OH235853   2.752   4.162   6.527
 4765TIP3    H135854   2.814   4.233   6.544
 4765TIP3    H235855   2.707   4.189   6.447
 4766TIP3   OH235856   2.442   5.516   7.436
 4766TIP3    H135857   2.449   5.447   7.502
 4766TIP3    H235858   2.351   5.510   7.406
 4767TIP3   OH235859   4.832   6.044   8.283
 4767TIP3    H135860   4.890   6.098   8.229
 4767TIP3    H235861   4.822   5.963   8.233
 4768TIP3   OH235862   5.032   2.327   8.468
 4768TIP3    H135863   5.064   2.247   8.427
 4768TIP3    H235864   5.038   2.310   8.562
 4769TIP3   OH235865   6.525   5.595   0.014
 4769TIP3    H135866   6.555   5.681   0.043
 4769TIP3    H235867   6.489   5.610   8.546
 4770TIP3   OH235868   5.560   1.772   7.470
 4770TIP3    H135869   5.612   1.721   7.409
 4770TIP3    H235870   5.623   1.829   7.514
 4771TIP3   OH235871   0.566   3.083   1.438
 4771TIP3    H135872   0.504   3.141   1.394
 4771TIP3    H235873   0.630   3.142   1.479
 4772TIP3   OH235874   4.787   0.938   1.888
 4772TIP3    H135875   4.818   1.021   1.853
 4772TIP3    H235876   4.702   0.959   1.927
 4773TIP3   OH235877   0.434   1.624   1.419
 4773TIP3    H135878   0.391   1.664   1.343
 4773TIP3    H235879   0.442   1.531   1.395
 4774TIP3   OH235880   4.912   2.645   7.976
 4774TIP3    H135881   4.933   2.730   7.937
 4774TIP3    H235882   4.867   2.667   8.058
 4775TIP3   OH235883   3.389   2.619   6.882
 4775TIP3    H135884   3.431   2.561   6.946
 4775TIP3    H235885   3.431   2.704   6.895
 4776TIP3   OH235886   4.182   4.263   2.513
 4776TIP3    H135887   4.243   4.232   2.447
 4776TIP3    H235888   4.097   4.263   2.470
 4777TIP3   OH235889   6.437   1.604   7.035
 4777TIP3    H135890   6.378   1.584   6.963
 4777TIP3    H235891   6.519   1.559   7.013
 4778TIP3   OH235892   4.613   6.255   8.016
 4778TIP3    H135893   4.520   6.272   8.003
 4778TIP3    H235894   4.624   6.252   8.111
 4779TIP3   OH235895   1.572   4.751   6.762
 4779TIP3    H135896   1.510   4.814   6.799
 4779TIP3    H235897   1.655   4.797   6.762
 4780TIP3   OH235898   0.012   3.663   2.102
 4780TIP3    H135899   6.854   3.691   2.173
 4780TIP3    H235900   0.081   3.614   2.146
 4781TIP3   OH235901   4.815   4.945   7.361
 4781TIP3    H135902   4.897   4.899   7.348
 4781TIP3    H235903   4.767   4.933   7.279
 4782TIP3   OH235904   2.718   4.673   7.205
 4782TIP3    H135905   2.793   4.654   7.149
 4782TIP3    H235906   2.642   4.638   7.158
 4783TIP3   OH235907   3.934   2.810   0.744
 4783TIP3    H135908   3.925   2.729   0.694
 4783TIP3    H235909   3.934   2.880   0.678
 4784TIP3   OH235910   1.166   3.557   1.763
 4784TIP3    H135911   1.099   3.496   1.793
 4784TIP3    H235912   1.156   3.558   1.667
 4785TIP3   OH235913   1.089   1.922   1.586
 4785TIP3    H135914   1.043   2.002   1.614
 4785TIP3    H235915   1.099   1.872   1.667
 4786TIP3   OH235916   3.641   6.196   0.897
 4786TIP3    H135917   3.653   6.257   0.970
 4786TIP3    H235918   3.587   6.244   0.834
 4787TIP3   OH235919   4.456   5.826   7.450
 4787TIP3    H135920   4.391   5.792   7.388
 4787TIP3    H235921   4.509   5.750   7.473
 4788TIP3   OH235922   5.805   1.206   8.430
 4788TIP3    H135923   5.710   1.203   8.413
 4788TIP3    H235924   5.812   1.244   8.517
 4789TIP3   OH235925   6.462   2.722   1.289
 4789TIP3    H135926   6.476   2.816   1.281
 4789TIP3    H235927   6.477   2.688   1.201
 4790TIP3   OH235928   2.633   1.337   1.774
 4790TIP3    H135929   2.638   1.290   1.691
 4790TIP3    H235930   2.567   1.290   1.825
 4791TIP3   OH235931   5.756   1.424   0.570
 4791TIP3    H135932   5.827   1.360   0.567
 4791TIP3    H235933   5.723   1.418   0.660
 4792TIP3   OH235934   5.707   2.161   0.351
 4792TIP3    H135935   5.730   2.147   0.259
 4792TIP3    H235936   5.614   2.140   0.356
 4793TIP3   OH235937   3.349   3.387   8.555
 4793TIP3    H135938   3.320   3.360   8.467
 4793TIP3    H235939   3.429   3.437   8.539
 4794TIP3   OH235940   4.700   5.589   2.359
 4794TIP3    H135941   4.678   5.578   2.452
 4794TIP3    H235942   4.619   5.617   2.318
 4795TIP3   OH235943   3.601   3.935   0.554
 4795TIP3    H135944   3.683   3.886   0.558
 4795TIP3    H235945   3.571   3.924   0.464
 4796TIP3   OH235946   3.236   5.319   0.612
 4796TIP3    H135947   3.251   5.409   0.586
 4796TIP3    H235948   3.321   5.288   0.643
 4797TIP3   OH235949   5.251   3.064   7.313
 4797TIP3    H135950   5.213   3.121   7.246
 4797TIP3    H235951   5.338   3.042   7.280
 4798TIP3   OH235952   1.132   6.283   0.123
 4798TIP3    H135953   1.050   6.316   0.086
 4798TIP3    H235954   1.200   6.336   0.081
 4799TIP3   OH235955   5.259   3.994   2.198
 4799TIP3    H135956   5.236   4.081   2.164
 4799TIP3    H235957   5.188   3.937   2.171
 4800TIP3   OH235958   0.947   3.655   0.473
 4800TIP3    H135959   0.948   3.733   0.418
 4800TIP3    H235960   0.897   3.681   0.550
 4801TIP3   OH235961   0.287   0.340   8.053
 4801TIP3    H135962   0.269   0.434   8.059
 4801TIP3    H235963   0.204   0.302   8.023
 4802TIP3   OH235964   0.059   3.010   0.422
 4802TIP3    H135965   6.890   2.988   0.484
 4802TIP3    H235966   0.105   2.927   0.407
 4803TIP3   OH235967   6.835   4.785   7.102
 4803TIP3    H135968   6.776   4.824   7.038
 4803TIP3    H235969   6.845   4.853   7.169
 4804TIP3   OH235970   1.371   2.272   6.077
 4804TIP3    H135971   1.291   2.320   6.099
 4804TIP3    H235972   1.341   2.199   6.023
 4805TIP3   OH235973   1.443   4.989   7.205
 4805TIP3    H135974   1.374   5.022   7.263
 4805TIP3    H235975   1.399   4.923   7.151
 4806TIP3   OH235976   1.884   2.191   1.388
 4806TIP3    H135977   1.854   2.206   1.298
 4806TIP3    H235978   1.979   2.203   1.384
 4807TIP3   OH235979   6.745   6.503   8.041
 4807TIP3    H135980   6.763   6.483   7.949
 4807TIP3    H235981   6.777   6.427   8.089
 4808TIP3   OH235982   3.472   1.684   8.569
 4808TIP3    H135983   3.557   1.643   8.588
 4808TIP3    H235984   3.494   1.774   8.546
 4809TIP3   OH235985   5.995   5.741   0.096
 4809TIP3    H135986   5.943   5.673   0.052
 4809TIP3    H235987   6.060   5.693   0.147
 4810TIP3   OH235988   6.195   6.646   8.372
 4810TIP3    H135989   6.160   6.624   8.458
 4810TIP3    H235990   6.192   6.564   8.323
 4811TIP3   OH235991   5.291   2.396   8.217
 4811TIP3    H135992   5.354   2.333   8.183
 4811TIP3    H235993   5.310   2.402   8.310
 4812TIP3   OH235994   3.829   3.085   7.547
 4812TIP3    H135995   3.804   3.129   7.466
 4812TIP3    H235996   3.925   3.082   7.545
 4813TIP3   OH235997   6.724   3.868   6.155
 4813TIP3    H135998   6.743   3.959   6.175
 4813TIP3    H235999   6.684   3.833   6.234
 4814TIP3   OH236000   0.746   1.261   1.513
 4814TIP3    H136001   0.829   1.291   1.549
 4814TIP3    H236002   0.770   1.213   1.433
 4815TIP3   OH236003   5.441   3.429   1.638
 4815TIP3    H136004   5.508   3.433   1.568
 4815TIP3    H236005   5.491   3.412   1.717
 4816TIP3   OH236006   0.192   6.438   8.173
 4816TIP3    H136007   0.164   6.368   8.114
 4816TIP3    H236008   0.174   6.404   8.261
 4817TIP3   OH236009   5.249   3.824   7.505
 4817TIP3    H136010   5.328   3.782   7.539
 4817TIP3    H236011   5.281   3.880   7.434
 4818TIP3   OH236012   3.678   4.843   8.502
 4818TIP3    H136013   3.600   4.853   8.556
 4818TIP3    H236014   3.738   4.911   8.534
 4819TIP3   OH236015   0.314   1.145   6.856
 4819TIP3    H136016   0.272   1.097   6.786
 4819TIP3    H236017   0.301   1.237   6.834
 4820TIP3   OH236018   3.737   2.444   7.306
 4820TIP3    H136019   3.787   2.524   7.326
 4820TIP3    H236020   3.800   2.373   7.318
 4821TIP3   OH236021   4.089   5.167   7.883
 4821TIP3    H136022   4.146   5.092   7.865
 4821TIP3    H236023   4.042   5.182   7.801
 4822TIP3   OH236024   3.800   1.070   0.095
 4822TIP3    H136025   3.745   1.007   0.047
 4822TIP3    H236026   3.771   1.156   0.063
 4823TIP3   OH236027   6.596   3.721   1.147
 4823TIP3    H136028   6.625   3.639   1.106
 4823TIP3    H236029   6.500   3.714   1.147
 4824TIP3   OH236030   6.544   4.430   6.339
 4824TIP3    H136031   6.493   4.436   6.419
 4824TIP3    H236032   6.505   4.357   6.291
 4825TIP3   OH236033   5.785   1.482   6.202
 4825TIP3    H136034   5.880   1.487   6.194
 4825TIP3    H236035   5.752   1.511   6.117
 4826TIP3   OH236036   5.390   3.009   1.650
 4826TIP3    H136037   5.308   2.992   1.696
 4826TIP3    H236038   5.429   3.083   1.696
 4827TIP3   OH236039   4.249   3.364   7.142
 4827TIP3    H136040   4.176   3.423   7.160
 4827TIP3    H236041   4.323   3.400   7.190
 4828TIP3   OH236042   2.163   6.046   7.803
 4828TIP3    H136043   2.170   6.138   7.828
 4828TIP3    H236044   2.150   6.047   7.709
 4829TIP3   OH236045   4.158   5.158   0.989
 4829TIP3    H136046   4.130   5.082   0.939
 4829TIP3    H236047   4.222   5.124   1.052
 4830TIP3   OH236048   1.807   5.062   7.674
 4830TIP3    H136049   1.732   5.011   7.643
 4830TIP3    H236050   1.859   4.999   7.725
 4831TIP3   OH236051   2.179   3.602   1.760
 4831TIP3    H136052   2.229   3.681   1.783
 4831TIP3    H236053   2.169   3.556   1.843
 4832TIP3   OH236054   6.237   4.050   7.966
 4832TIP3    H136055   6.200   4.085   7.885
 4832TIP3    H236056   6.315   4.002   7.938
 4833TIP3   OH236057   5.667   6.000   1.270
 4833TIP3    H136058   5.641   6.065   1.335
 4833TIP3    H236059   5.585   5.978   1.224
 4834TIP3   OH236060   3.254   3.620   8.386
 4834TIP3    H136061   3.209   3.664   8.313
 4834TIP3    H236062   3.264   3.529   8.357
 4835TIP3   OH236063   1.380   3.413   7.490
 4835TIP3    H136064   1.351   3.467   7.417
 4835TIP3    H236065   1.463   3.452   7.518
 4836TIP3   OH236066   4.739   2.401   2.284
 4836TIP3    H136067   4.764   2.479   2.236
 4836TIP3    H236068   4.818   2.345   2.282
 4837TIP3   OH236069   1.095   5.272   0.575
 4837TIP3    H136070   1.143   5.257   0.656
 4837TIP3    H236071   1.066   5.185   0.547
 4838TIP3   OH236072   5.060   0.754   0.585
 4838TIP3    H136073   5.030   0.844   0.573
 4838TIP3    H236074   4.999   0.718   0.650
 4839TIP3   OH236075   5.978   6.701   6.817
 4839TIP3    H136076   6.048   6.764   6.799
 4839TIP3    H236077   5.994   6.630   6.756
 4840TIP3   OH236078   4.928   6.004   1.654
 4840TIP3    H136079   4.917   5.976   1.745
 4840TIP3    H236080   4.989   6.079   1.660
 4841TIP3   OH236081   5.100   0.329   0.563
 4841TIP3    H136082   5.121   0.354   0.653
 4841TIP3    H236083   5.025   0.384   0.539
 4842TIP3   OH236084   2.764   1.791   7.795
 4842TIP3    H136085   2.749   1.727   7.725
 4842TIP3    H236086   2.859   1.798   7.801
 4843TIP3   OH236087   2.592   4.927   6.904
 4843TIP3    H136088   2.611   4.847   6.855
 4843TIP3    H236089   2.497   4.935   6.903
 4844TIP3   OH236090   5.635   6.634   1.215
 4844TIP3    H136091   5.591   6.716   1.192
 4844TIP3    H236092   5.579   6.595   1.283
 4845TIP3   OH236093   5.698   1.499   1.327
 4845TIP3    H136094   5.675   1.501   1.420
 4845TIP3    H236095   5.696   1.591   1.300
 4846TIP3   OH236096   5.785   0.932   8.134
 4846TIP3    H136097   5.735   0.874   8.077
 4846TIP3    H236098   5.872   0.936   8.094
 4847TIP3   OH236099   4.099   3.702   0.239
 4847TIP3    H136100   4.187   3.664   0.247
 4847TIP3    H236101   4.048   3.656   0.306
 4848TIP3   OH236102   1.788   1.377   0.831
 4848TIP3    H136103   1.700   1.397   0.863
 4848TIP3    H236104   1.846   1.431   0.885
 4849TIP3   OH236105   6.837   1.954   0.405
 4849TIP3    H136106   6.807   1.971   0.316
 4849TIP3    H236107   6.838   2.040   0.447
 4850TIP3   OH236108   3.885   3.741   7.299
 4850TIP3    H136109   3.954   3.675   7.299
 4850TIP3    H236110   3.886   3.777   7.211
 4851TIP3   OH236111   0.408   6.592   0.031
 4851TIP3    H136112   0.405   6.570   0.124
 4851TIP3    H236113   0.487   6.645   0.022
 4852TIP3   OH236114   3.755   0.843   2.432
 4852TIP3    H136115   3.687   0.890   2.481
 4852TIP3    H236116   3.727   0.752   2.435
 4853TIP3   OH236117   4.904   0.932   2.409
 4853TIP3    H136118   4.995   0.929   2.437
 4853TIP3    H236119   4.854   0.951   2.489
 4854TIP3   OH236120   1.765   6.705   7.107
 4854TIP3    H136121   1.694   6.682   7.167
 4854TIP3    H236122   1.731   6.684   7.020
 4855TIP3   OH236123   3.838   1.056   1.839
 4855TIP3    H136124   3.745   1.076   1.853
 4855TIP3    H236125   3.875   1.137   1.807
 4856TIP3   OH236126   3.504   5.735   7.424
 4856TIP3    H136127   3.493   5.797   7.353
 4856TIP3    H236128   3.480   5.650   7.386
 4857TIP3   OH236129   4.129   2.670   8.100
 4857TIP3    H136130   4.148   2.734   8.168
 4857TIP3    H236131   4.082   2.600   8.145
 4858TIP3   OH236132   0.816   5.314   7.182
 4858TIP3    H136133   0.865   5.243   7.141
 4858TIP3    H236134   0.871   5.392   7.168
 4859TIP3   OH236135   6.436   2.724   8.561
 4859TIP3    H136136   6.466   2.668   8.489
 4859TIP3    H236137   6.371   2.672   8.608
 4860TIP3   OH236138   0.433   1.888   6.402
 4860TIP3    H136139   0.347   1.900   6.362
 4860TIP3    H236140   0.433   1.797   6.432
 4861TIP3   OH236141   6.238   5.740   8.036
 4861TIP3    H136142   6.172   5.809   8.020
 4861TIP3    H236143   6.209   5.667   7.981
 4862TIP3   OH236144   3.136   5.197   7.186
 4862TIP3    H136145   3.151   5.145   7.265
 4862TIP3    H236146   3.052   5.167   7.153
 4863TIP3   OH236147   6.077   0.883   8.331
 4863TIP3    H136148   6.116   0.842   8.408
 4863TIP3    H236149   5.986   0.899   8.357
 4864TIP3   OH236150   3.205   3.319   6.639
 4864TIP3    H136151   3.256   3.241   6.659
 4864TIP3    H236152   3.193   3.363   6.723
 4865TIP3   OH236153   4.613   6.019   2.183
 4865TIP3    H136154   4.568   5.954   2.238
 4865TIP3    H236155   4.560   6.098   2.191
 4866TIP3   OH236156   6.081   4.354   1.735
 4866TIP3    H136157   6.022   4.430   1.737
 4866TIP3    H236158   6.106   4.344   1.644
 4867TIP3   OH236159   6.082   2.489   6.837
 4867TIP3    H136160   6.066   2.455   6.749
 4867TIP3    H236161   6.155   2.437   6.869
 4868TIP3   OH236162   3.379   2.060   0.360
 4868TIP3    H136163   3.369   2.040   0.267
 4868TIP3    H236164   3.297   2.103   0.384
 4869TIP3   OH236165   1.387   6.485   6.341
 4869TIP3    H136166   1.310   6.530   6.307
 4869TIP3    H236167   1.448   6.483   6.267
 4870TIP3   OH236168   1.236   6.509   0.562
 4870TIP3    H136169   1.206   6.599   0.575
 4870TIP3    H236170   1.155   6.459   0.547
 4871TIP3   OH236171   2.940   4.692   0.190
 4871TIP3    H136172   2.958   4.609   0.234
 4871TIP3    H236173   2.965   4.759   0.254
 4872TIP3   OH236174   4.898   0.020   6.385
 4872TIP3    H136175   4.847   0.063   6.316
 4872TIP3    H236176   4.839   6.852   6.418
 4873TIP3   OH236177   1.493   6.024   0.080
 4873TIP3    H136178   1.542   6.105   0.095
 4873TIP3    H236179   1.410   6.039   0.124
 4874TIP3   OH236180   2.582   0.616   0.100
 4874TIP3    H136181   2.647   0.546   0.106
 4874TIP3    H236182   2.545   0.622   0.188
 4875TIP3   OH236183   5.593   2.268   1.135
 4875TIP3    H136184   5.628   2.193   1.087
 4875TIP3    H236185   5.534   2.312   1.073
 4876TIP3   OH236186   4.550   3.468   0.762
 4876TIP3    H136187   4.579   3.410   0.692
 4876TIP3    H236188   4.496   3.413   0.818
 4877TIP3   OH236189   6.330   3.864   1.437
 4877TIP3    H136190   6.345   3.958   1.446
 4877TIP3    H236191   6.376   3.825   1.512
 4878TIP3   OH236192   6.805   0.803   8.077
 4878TIP3    H136193   6.895   0.789   8.108
 4878TIP3    H236194   6.752   0.805   8.157
 4879TIP3   OH236195   3.249   0.062   7.925
 4879TIP3    H136196   3.207   6.891   7.974
 4879TIP3    H236197   3.342   0.054   7.945
 4880TIP3   OH236198   2.144   1.095   8.028
 4880TIP3    H136199   2.108   1.024   8.080
 4880TIP3    H236200   2.127   1.069   7.937
 4881TIP3   OH236201   2.538   0.511   8.273
 4881TIP3    H136202   2.525   0.485   8.365
 4881TIP3    H236203   2.632   0.503   8.259
 4882TIP3   OH236204   0.886   4.916   1.101
 4882TIP3    H136205   0.938   4.996   1.115
 4882TIP3    H236206   0.796   4.947   1.093
 4883TIP3   OH236207   6.427   4.253   8.396
 4883TIP3    H136208   6.405   4.260   8.303
 4883TIP3    H236209   6.377   4.323   8.438
 4884TIP3   OH236210   2.126   2.856   8.177
 4884TIP3    H136211   2.065   2.812   8.236
 4884TIP3    H236212   2.078   2.865   8.095
 4885TIP3   OH236213   3.901   2.967   0.976
 4885TIP3    H136214   3.832   2.924   1.026
 4885TIP3    H236215   3.907   2.916   0.895
 4886TIP3   OH236216   0.971   3.424   0.854
 4886TIP3    H136217   1.007   3.445   0.768
 4886TIP3    H236218   0.927   3.340   0.842
 4887TIP3   OH236219   6.675   1.754   7.140
 4887TIP3    H136220   6.631   1.670   7.130
 4887TIP3    H236221   6.751   1.735   7.195
 4888TIP3   OH236222   5.566   5.612   8.132
 4888TIP3    H136223   5.538   5.694   8.172
 4888TIP3    H236224   5.643   5.585   8.182
 4889TIP3   OH236225   0.124   3.912   1.289
 4889TIP3    H136226   0.035   3.942   1.272
 4889TIP3    H236227   0.168   3.917   1.204
 4890TIP3   OH236228   4.873   3.453   0.662
 4890TIP3    H136229   4.962   3.418   0.654
 4890TIP3    H236230   4.844   3.425   0.749
 4891TIP3   OH236231   1.804   1.501   7.486
 4891TIP3    H136232   1.819   1.453   7.404
 4891TIP3    H236233   1.724   1.461   7.522
 4892TIP3   OH236234   1.757   0.879   1.572
 4892TIP3    H136235   1.764   0.944   1.502
 4892TIP3    H236236   1.747   0.932   1.652
 4893TIP3   OH236237   1.853   2.839   7.619
 4893TIP3    H136238   1.785   2.775   7.599
 4893TIP3    H236239   1.927   2.813   7.564
 4894TIP3   OH236240   3.168   2.168   1.240
 4894TIP3    H136241   3.130   2.143   1.324
 4894TIP3    H236242   3.226   2.096   1.217
 4895TIP3   OH236243   2.177   4.166   7.497
 4895TIP3    H136244   2.207   4.216   7.573
 4895TIP3    H236245   2.082   4.170   7.502
 4896TIP3   OH236246   4.461   0.084   6.463
 4896TIP3    H136247   4.462   6.890   6.444
 4896TIP3    H236248   4.368   0.106   6.469
 4897TIP3   OH236249   3.241   1.255   0.769
 4897TIP3    H136250   3.276   1.306   0.696
 4897TIP3    H236251   3.199   1.320   0.826
 4898TIP3   OH236252   4.738   4.977   8.151
 4898TIP3    H136253   4.692   4.976   8.235
 4898TIP3    H236254   4.825   4.943   8.170
 4899TIP3   OH236255   4.773   5.450   0.960
 4899TIP3    H136256   4.794   5.535   0.920
 4899TIP3    H236257   4.714   5.472   1.032
 4900TIP3   OH236258   5.736   6.034   1.840
 4900TIP3    H136259   5.699   6.122   1.841
 4900TIP3    H236260   5.664   5.977   1.867
 4901TIP3   OH236261   6.284   2.414   1.941
 4901TIP3    H136262   6.224   2.343   1.964
 4901TIP3    H236263   6.264   2.483   2.004
 4902TIP3   OH236264   5.092   4.897   1.435
 4902TIP3    H136265   5.014   4.952   1.436
 4902TIP3    H236266   5.164   4.958   1.419
 4903TIP3   OH236267   0.873   5.202   1.560
 4903TIP3    H136268   0.812   5.194   1.487
 4903TIP3    H236269   0.829   5.158   1.633
 4904TIP3   OH236270   0.627   1.385   8.240
 4904TIP3    H136271   0.638   1.408   8.333
 4904TIP3    H236272   0.540   1.417   8.218
 4905TIP3   OH236273   0.412   3.936   1.841
 4905TIP3    H136274   0.423   4.028   1.816
 4905TIP3    H236275   0.477   3.923   1.910
 4906TIP3   OH236276   3.857   5.843   7.706
 4906TIP3    H136277   3.900   5.834   7.621
 4906TIP3    H236278   3.799   5.767   7.713
 4907TIP3   OH236279   3.483   2.455   8.184
 4907TIP3    H136280   3.447   2.372   8.216
 4907TIP3    H236281   3.575   2.437   8.166
 4908TIP3   OH236282   0.672   5.812   7.897
 4908TIP3    H136283   0.747   5.800   7.839
 4908TIP3    H236284   0.636   5.724   7.909
 4909TIP3   OH236285   1.218   2.971   0.617
 4909TIP3    H136286   1.149   3.005   0.675
 4909TIP3    H236287   1.282   2.933   0.677
 4910TIP3   OH236288   3.138   4.168   2.021
 4910TIP3    H136289   3.125   4.228   2.094
 4910TIP3    H236290   3.182   4.220   1.954
 4911TIP3   OH236291   5.806   0.253   7.687
 4911TIP3    H136292   5.882   0.220   7.638
 4911TIP3    H236293   5.731   0.230   7.633
 4912TIP3   OH236294   4.478   1.561   8.239
 4912TIP3    H136295   4.402   1.591   8.190
 4912TIP3    H236296   4.442   1.537   8.325
 4913TIP3   OH236297   2.646   0.747   1.512
 4913TIP3    H136298   2.638   0.653   1.528
 4913TIP3    H236299   2.740   0.764   1.513
 4914TIP3   OH236300   5.930   0.682   0.889
 4914TIP3    H136301   5.873   0.755   0.914
 4914TIP3    H236302   5.928   0.681   0.794
 4915TIP3   OH236303   3.513   1.249   0.053
 4915TIP3    H136304   3.508   1.283   8.584
 4915TIP3    H236305   3.522   1.154   0.042
 4916TIP3   OH236306   2.845   3.829   6.970
 4916TIP3    H136307   2.877   3.919   6.978
 4916TIP3    H236308   2.875   3.801   6.883
 4917TIP3   OH236309   0.209   6.814   0.861
 4917TIP3    H136310   0.273   6.865   0.812
 4917TIP3    H236311   0.206   6.729   0.816
 4918TIP3   OH236312   0.207   2.507   1.590
 4918TIP3    H136313   0.121   2.466   1.593
 4918TIP3    H236314   0.200   2.573   1.522
 4919TIP3   OH236315   2.742   5.991   6.771
 4919TIP3    H136316   2.719   5.913   6.720
 4919TIP3    H236317   2.692   5.982   6.852
 4920TIP3   OH236318   5.126   6.389   1.818
 4920TIP3    H136319   5.080   6.464   1.855
 4920TIP3    H236320   5.099   6.315   1.873
 4921TIP3   OH236321   3.133   0.634   1.928
 4921TIP3    H136322   3.044   0.600   1.921
 4921TIP3    H236323   3.184   0.561   1.962
 4922TIP3   OH236324   0.697   2.505   7.136
 4922TIP3    H136325   0.710   2.531   7.045
 4922TIP3    H236326   0.770   2.545   7.183
 4923TIP3   OH236327   2.764   1.984   2.352
 4923TIP3    H136328   2.758   2.051   2.284
 4923TIP3    H236329   2.839   2.012   2.406
 4924TIP3   OH236330   6.150   6.516   1.160
 4924TIP3    H136331   6.070   6.545   1.203
 4924TIP3    H236332   6.201   6.597   1.148
 4925TIP3   OH236333   6.720   6.394   0.107
 4925TIP3    H136334   6.696   6.383   0.199
 4925TIP3    H236335   6.808   6.431   0.110
 4926TIP3   OH236336   5.468   2.812   7.199
 4926TIP3    H136337   5.455   2.719   7.219
 4926TIP3    H236338   5.491   2.852   7.283
 4927TIP3   OH236339   2.223   3.010   7.506
 4927TIP3    H136340   2.227   3.048   7.418
 4927TIP3    H236341   2.133   3.023   7.534
 4928TIP3   OH236342   1.145   0.216   0.143
 4928TIP3    H136343   1.233   0.252   0.153
 4928TIP3    H236344   1.147   0.135   0.194
 4929TIP3   OH236345   1.171   2.771   7.039
 4929TIP3    H136346   1.187   2.770   6.945
 4929TIP3    H236347   1.213   2.691   7.071
 4930TIP3   OH236348   2.016   0.195   6.208
 4930TIP3    H136349   1.933   0.154   6.184
 4930TIP3    H236350   2.061   0.210   6.125
 4931TIP3   OH236351   5.023   6.735   7.377
 4931TIP3    H136352   5.017   6.654   7.427
 4931TIP3    H236353   4.932   6.765   7.369
 4932TIP3   OH236354   1.769   0.662   7.824
 4932TIP3    H136355   1.795   0.583   7.777
 4932TIP3    H236356   1.782   0.733   7.761
 4933TIP3   OH236357   3.512   4.323   7.936
 4933TIP3    H136358   3.465   4.254   7.982
 4933TIP3    H236359   3.566   4.365   8.004
 4934TIP3   OH236360   3.535   3.168   6.950
 4934TIP3    H136361   3.586   3.087   6.965
 4934TIP3    H236362   3.602   3.235   6.934
 4935TIP3   OH236363   6.230   4.490   2.130
 4935TIP3    H136364   6.170   4.458   2.197
 4935TIP3    H236365   6.302   4.530   2.179
 4936TIP3   OH236366   6.345   0.190   0.978
 4936TIP3    H136367   6.270   0.229   0.934
 4936TIP3    H236368   6.418   0.248   0.957
 4937TIP3   OH236369   5.617   3.778   8.202
 4937TIP3    H136370   5.642   3.707   8.143
 4937TIP3    H236371   5.694   3.791   8.258
 4938TIP3   OH236372   4.858   0.485   0.455
 4938TIP3    H136373   4.910   0.539   0.396
 4938TIP3    H236374   4.812   0.547   0.511
 4939TIP3   OH236375   0.026   5.631   1.484
 4939TIP3    H136376   0.030   5.547   1.529
 4939TIP3    H236377   0.040   5.696   1.553
 4940TIP3   OH236378   4.239   4.544   0.639
 4940TIP3    H136379   4.233   4.534   0.734
 4940TIP3    H236380   4.321   4.592   0.626
 4941TIP3   OH236381   6.329   5.682   0.782
 4941TIP3    H136382   6.368   5.646   0.861
 4941TIP3    H236383   6.338   5.777   0.791
 4942TIP3   OH236384   1.168   5.274   2.164
 4942TIP3    H136385   1.165   5.189   2.120
 4942TIP3    H236386   1.239   5.265   2.228
 4943TIP3   OH236387   6.396   1.719   8.377
 4943TIP3    H136388   6.369   1.759   8.295
 4943TIP3    H236389   6.315   1.704   8.425
 4944TIP3   OH236390   5.246   2.151   7.049
 4944TIP3    H136391   5.214   2.066   7.020
 4944TIP3    H236392   5.203   2.214   6.991
 4945TIP3   OH236393   6.532   6.091   7.589
 4945TIP3    H136394   6.441   6.076   7.564
 4945TIP3    H236395   6.576   6.008   7.571
 4946TIP3   OH236396   4.475   6.443   8.352
 4946TIP3    H136397   4.511   6.521   8.394
 4946TIP3    H236398   4.550   6.386   8.339
 4947TIP3   OH236399   2.237   6.676   8.237
 4947TIP3    H136400   2.243   6.765   8.200
 4947TIP3    H236401   2.248   6.619   8.161
 4948TIP3   OH236402   3.876   4.560   6.335
 4948TIP3    H136403   3.801   4.562   6.276
 4948TIP3    H236404   3.844   4.513   6.412
 4949TIP3   OH236405   1.172   6.047   7.551
 4949TIP3    H136406   1.252   6.020   7.505
 4949TIP3    H236407   1.203   6.095   7.627
 4950TIP3   OH236408   5.493   1.255   7.490
 4950TIP3    H136409   5.414   1.304   7.512
 4950TIP3    H236410   5.498   1.186   7.556
 4951TIP3   OH236411   3.761   1.613   0.299
 4951TIP3    H136412   3.845   1.579   0.330
 4951TIP3    H236413   3.782   1.699   0.262
 4952TIP3   OH236414   2.254   0.041   6.233
 4952TIP3    H136415   2.193   0.083   6.173
 4952TIP3    H236416   2.230   6.849   6.232
 4953TIP3   OH236417   1.002   6.037   0.358
 4953TIP3    H136418   0.926   6.008   0.408
 4953TIP3    H236419   1.009   5.974   0.286
 4954TIP3   OH236420   1.919   1.139   0.946
 4954TIP3    H136421   1.891   1.209   0.887
 4954TIP3    H236422   1.854   1.140   1.017
 4955TIP3   OH236423   4.999   3.717   0.571
 4955TIP3    H136424   4.938   3.646   0.593
 4955TIP3    H236425   4.949   3.774   0.513
 4956TIP3   OH236426   4.863   1.428   1.103
 4956TIP3    H136427   4.794   1.464   1.048
 4956TIP3    H236428   4.828   1.345   1.135
 4957TIP3   OH236429   2.078   3.090   1.431
 4957TIP3    H136430   1.985   3.110   1.417
 4957TIP3    H236431   2.094   3.116   1.522
 4958TIP3   OH236432   6.439   6.515   6.566
 4958TIP3    H136433   6.420   6.451   6.498
 4958TIP3    H236434   6.408   6.598   6.530
 4959TIP3   OH236435   6.755   1.328   0.331
 4959TIP3    H136436   6.782   1.345   0.421
 4959TIP3    H236437   6.681   1.387   0.316
 4960TIP3   OH236438   2.247   6.334   8.360
 4960TIP3    H136439   2.233   6.307   8.269
 4960TIP3    H236440   2.203   6.267   8.413
 4961TIP3   OH236441   3.733   6.828   1.097
 4961TIP3    H136442   3.809   6.786   1.057
 4961TIP3    H236443   3.659   6.774   1.071
 4962TIP3   OH236444   0.353   6.700   6.860
 4962TIP3    H136445   0.372   6.768   6.924
 4962TIP3    H236446   0.385   6.619   6.901
 4963TIP3   OH236447   3.461   2.710   0.090
 4963TIP3    H136448   3.521   2.692   0.163
 4963TIP3    H236449   3.431   2.624   0.061
 4964TIP3   OH236450   3.650   4.276   8.349
 4964TIP3    H136451   3.744   4.267   8.359
 4964TIP3    H236452   3.613   4.210   8.409
 4965TIP3   OH236453   5.116   2.498   1.223
 4965TIP3    H136454   5.063   2.468   1.298
 4965TIP3    H236455   5.158   2.578   1.255
 4966TIP3   OH236456   2.425   5.158   0.533
 4966TIP3    H136457   2.352   5.213   0.561
 4966TIP3    H236458   2.416   5.153   0.437
 4967TIP3   OH236459   1.609   1.288   8.383
 4967TIP3    H136460   1.603   1.297   8.288
 4967TIP3    H236461   1.548   1.218   8.406
 4968TIP3   OH236462   2.127   5.571   1.159
 4968TIP3    H136463   2.113   5.662   1.184
 4968TIP3    H236464   2.097   5.520   1.235
 4969TIP3   OH236465   0.264   0.538   8.254
 4969TIP3    H136466   0.323   0.463   8.259
 4969TIP3    H236467   0.200   0.523   8.323
 4970TIP3   OH236468   2.096   0.156   7.084
 4970TIP3    H136469   2.159   0.227   7.077
 4970TIP3    H236470   2.071   0.136   6.994
 4971TIP3   OH236471   6.108   0.004   8.028
 4971TIP3    H136472   6.192   0.003   7.982
 4971TIP3    H236473   6.075   0.093   8.017
 4972TIP3   OH236474   6.565   1.113   7.270
 4972TIP3    H136475   6.609   1.036   7.232
 4972TIP3    H236476   6.472   1.089   7.272
 4973TIP3   OH236477   3.650   5.021   7.409
 4973TIP3    H136478   3.689   5.103   7.439
 4973TIP3    H236479   3.559   5.043   7.391
 4974TIP3   OH236480   4.813   4.181   1.575
 4974TIP3    H136481   4.750   4.137   1.518
 4974TIP3    H236482   4.838   4.260   1.526
 4975TIP3   OH236483   2.637   0.106   7.425
 4975TIP3    H136484   2.654   0.025   7.474
 4975TIP3    H236485   2.647   0.175   7.490
 4976TIP3   OH236486   0.916   5.828   8.111
 4976TIP3    H136487   0.858   5.754   8.091
 4976TIP3    H236488   0.952   5.854   8.026
 4977TIP3   OH236489   1.637   6.249   0.136
 4977TIP3    H136490   1.714   6.216   0.183
 4977TIP3    H236491   1.626   6.339   0.168
 4978TIP3   OH236492   3.868   0.286   1.019
 4978TIP3    H136493   3.879   0.377   0.991
 4978TIP3    H236494   3.830   0.243   0.942
 4979TIP3   OH236495   3.758   2.183   1.888
 4979TIP3    H136496   3.767   2.185   1.983
 4979TIP3    H236497   3.808   2.107   1.860
 4980TIP3   OH236498   0.025   3.140   6.368
 4980TIP3    H136499   0.092   3.095   6.420
 4980TIP3    H236500   0.065   3.224   6.345
 4981TIP3   OH236501   1.546   3.283   7.012
 4981TIP3    H136502   1.473   3.344   7.021
 4981TIP3    H236503   1.516   3.219   6.947
 4982TIP3   OH236504   2.239   1.346   8.370
 4982TIP3    H136505   2.155   1.350   8.417
 4982TIP3    H236506   2.305   1.347   8.440
 4983TIP3   OH236507   6.745   2.340   1.793
 4983TIP3    H136508   6.727   2.425   1.834
 4983TIP3    H236509   6.658   2.309   1.765
 4984TIP3   OH236510   3.396   6.743   0.401
 4984TIP3    H136511   3.379   6.820   0.455
 4984TIP3    H236512   3.459   6.774   0.335
 4985TIP3   OH236513   1.089   6.483   1.876
 4985TIP3    H136514   1.112   6.394   1.852
 4985TIP3    H236515   1.137   6.500   1.957
 4986TIP3   OH236516   5.878   1.004   2.235
 4986TIP3    H136517   5.823   0.931   2.208
 4986TIP3    H236518   5.933   1.023   2.158
 4987TIP3   OH236519   1.294   0.934   7.530
 4987TIP3    H136520   1.296   0.948   7.625
 4987TIP3    H236521   1.260   0.846   7.519
 4988TIP3   OH236522   5.128   3.958   0.999
 4988TIP3    H136523   5.069   3.929   0.930
 4988TIP3    H236524   5.194   4.011   0.953
 4989TIP3   OH236525   2.990   6.368   2.227
 4989TIP3    H136526   2.931   6.443   2.215
 4989TIP3    H236527   3.060   6.383   2.164
 4990TIP3   OH236528   4.736   6.596   6.920
 4990TIP3    H136529   4.827   6.627   6.926
 4990TIP3    H236530   4.732   6.520   6.977
 4991TIP3   OH236531   6.214   6.516   0.020
 4991TIP3    H136532   6.171   6.434   0.000
 4991TIP3    H236533   6.301   6.491   0.052
 4992TIP3   OH236534   0.242   2.665   1.374
 4992TIP3    H136535   0.222   2.756   1.396
 4992TIP3    H236536   0.240   2.663   1.278
 4993TIP3   OH236537   3.598   6.501   0.339
 4993TIP3    H136538   3.658   6.575   0.329
 4993TIP3    H236539   3.573   6.478   0.250
 4994TIP3   OH236540   6.815   3.838   8.143
 4994TIP3    H136541   6.773   3.758   8.110
 4994TIP3    H236542   0.009   3.823   8.130
 4995TIP3   OH236543   6.193   2.409   7.235
 4995TIP3    H136544   6.123   2.457   7.280
 4995TIP3    H236545   6.161   2.318   7.231
 4996TIP3   OH236546   3.805   5.864   0.407
 4996TIP3    H136547   3.752   5.897   0.480
 4996TIP3    H236548   3.811   5.770   0.422
 4997TIP3   OH236549   1.761   1.231   7.804
 4997TIP3    H136550   1.680   1.253   7.849
 4997TIP3    H236551   1.776   1.139   7.826
 4998TIP3   OH236552   5.394   3.412   1.977
 4998TIP3    H136553   5.450   3.482   1.944
 4998TIP3    H236554   5.348   3.450   2.051
 4999TIP3   OH236555   1.810   3.727   7.115
 4999TIP3    H136556   1.745   3.661   7.140
 4999TIP3    H236557   1.803   3.734   7.020
 5000TIP3   OH236558   5.367   4.536   7.140
 5000TIP3    H136559   5.311   4.504   7.210
 5000TIP3    H236560   5.437   4.471   7.133
 5001TIP3   OH236561   2.442   1.744   0.937
 5001TIP3    H136562   2.506   1.814   0.945
 5001TIP3    H236563   2.434   1.730   0.842
 5002TIP3   OH236564   1.100   0.574   6.470
 5002TIP3    H136565   1.153   0.526   6.407
 5002TIP3    H236566   1.047   0.633   6.417
 5003TIP3   OH236567   2.220   2.956   7.029
 5003TIP3    H136568   2.297   2.901   7.016
 5003TIP3    H236569   2.200   2.948   7.122
 5004TIP3   OH236570   0.166   4.929   6.754
 5004TIP3    H136571   0.179   4.982   6.675
 5004TIP3    H236572   0.217   4.973   6.821
 5005TIP3   OH236573   4.230   1.854   1.432
 5005TIP3    H136574   4.282   1.777   1.413
 5005TIP3    H236575   4.292   1.927   1.427
 5006TIP3   OH236576   4.166   6.098   0.181
 5006TIP3    H136577   4.173   6.012   0.222
 5006TIP3    H236578   4.073   6.119   0.184
 5007TIP3   OH236579   3.144   3.368   6.902
 5007TIP3    H136580   3.048   3.368   6.901
 5007TIP3    H236581   3.168   3.414   6.982
 5008TIP3   OH236582   1.708   0.136   8.539
 5008TIP3    H136583   1.755   0.212   8.504
 5008TIP3    H236584   1.720   0.068   8.473
 5009TIP3   OH236585   4.985   0.551   6.841
 5009TIP3    H136586   4.918   0.512   6.786
 5009TIP3    H236587   5.063   0.554   6.785
 5010TIP3   OH236588   4.722   1.533   1.790
 5010TIP3    H136589   4.784   1.459   1.787
 5010TIP3    H236590   4.770   1.602   1.836
 5011TIP3   OH236591   4.939   3.184   0.003
 5011TIP3    H136592   5.010   3.248   0.009
 5011TIP3    H236593   4.984   3.101   8.605
 5012TIP3   OH236594   1.474   3.087   1.821
 5012TIP3    H136595   1.505   3.171   1.789
 5012TIP3    H236596   1.486   3.027   1.747
 5013TIP3   OH236597   1.754   6.852   8.342
 5013TIP3    H136598   1.752   6.828   8.249
 5013TIP3    H236599   1.845   6.878   8.357
 5014TIP3   OH236600   3.451   1.922   7.122
 5014TIP3    H136601   3.529   1.977   7.121
 5014TIP3    H236602   3.378   1.984   7.131
 5015TIP3   OH236603   6.855   1.713   7.351
 5015TIP3    H136604   6.845   1.723   7.446
 5015TIP3    H236605   6.842   1.619   7.336
 5016TIP3   OH236606   2.459   2.181   1.329
 5016TIP3    H136607   2.416   2.257   1.290
 5016TIP3    H236608   2.524   2.154   1.264
 5017TIP3   OH236609   5.418   4.705   0.600
 5017TIP3    H136610   5.417   4.790   0.557
 5017TIP3    H236611   5.340   4.661   0.566
 5018TIP3   OH236612   1.947   3.888   7.719
 5018TIP3    H136613   1.900   3.826   7.774
 5018TIP3    H236614   2.029   3.843   7.697
 5019TIP3   OH236615   6.831   4.623   0.872
 5019TIP3    H136616   6.785   4.609   0.790
 5019TIP3    H236617   6.766   4.663   0.930
 5020TIP3   OH236618   3.432   0.291   0.748
 5020TIP3    H136619   3.423   0.321   0.838
 5020TIP3    H236620   3.524   0.266   0.739
 5021TIP3   OH236621   2.228   0.147   7.886
 5021TIP3    H136622   2.243   0.225   7.939
 5021TIP3    H236623   2.313   0.102   7.887
 5022TIP3   OH236624   1.036   3.731   1.111
 5022TIP3    H136625   1.059   3.810   1.160
 5022TIP3    H236626   0.941   3.725   1.120
 5023TIP3   OH236627   6.480   6.026   1.833
 5023TIP3    H136628   6.395   6.018   1.790
 5023TIP3    H236629   6.491   5.945   1.881
 5024TIP3   OH236630   2.618   2.034   8.432
 5024TIP3    H136631   2.697   1.981   8.435
 5024TIP3    H236632   2.554   1.985   8.485
 5025TIP3   OH236633   3.907   2.752   8.329
 5025TIP3    H136634   3.838   2.742   8.395
 5025TIP3    H236635   3.923   2.846   8.325
 5026TIP3   OH236636   1.391   3.288   1.192
 5026TIP3    H136637   1.312   3.257   1.237
 5026TIP3    H236638   1.358   3.346   1.123
 5027TIP3   OH236639   6.722   0.090   6.451
 5027TIP3    H136640   6.730   0.156   6.382
 5027TIP3    H236641   6.798   0.105   6.507
 5028TIP3   OH236642   2.503   6.885   1.990
 5028TIP3    H136643   2.485   0.067   2.035
 5028TIP3    H236644   2.486   0.004   1.897
 5029TIP3   OH236645   2.668   2.197   6.814
 5029TIP3    H136646   2.575   2.212   6.794
 5029TIP3    H236647   2.686   2.256   6.887
 5030TIP3   OH236648   3.844   1.244   0.377
 5030TIP3    H136649   3.926   1.233   0.426
 5030TIP3    H236650   3.872   1.253   0.286
 5031TIP3   OH236651   4.680   5.650   0.059
 5031TIP3    H136652   4.765   5.683   0.030
 5031TIP3    H236653   4.618   5.681   8.612
 5032TIP3   OH236654   4.443   3.617   0.347
 5032TIP3    H136655   4.411   3.610   0.437
 5032TIP3    H236656   4.400   3.546   0.301
 5033TIP3   OH236657   2.849   2.941   2.725
 5033TIP3    H136658   2.904   2.900   2.659
 5033TIP3    H236659   2.901   3.016   2.755
 5034TIP3   OH236660   3.772   0.072   7.413
 5034TIP3    H136661   3.706   0.120   7.362
 5034TIP3    H236662   3.826   0.141   7.452
 5035TIP3   OH236663   5.149   4.580   6.701
 5035TIP3    H136664   5.173   4.625   6.619
 5035TIP3    H236665   5.072   4.528   6.678
 5036TIP3   OH236666   1.274   5.352   0.270
 5036TIP3    H136667   1.222   5.291   0.218
 5036TIP3    H236668   1.296   5.423   0.210
 5037TIP3   OH236669   2.142   4.465   7.138
 5037TIP3    H136670   2.169   4.556   7.123
 5037TIP3    H236671   2.070   4.472   7.200
 5038TIP3   OH236672   6.642   6.068   1.625
 5038TIP3    H136673   6.631   6.042   1.716
 5038TIP3    H236674   6.606   6.157   1.622
 5039TIP3   OH236675   5.143   1.958   6.546
 5039TIP3    H136676   5.108   2.020   6.610
 5039TIP3    H236677   5.138   1.873   6.590
 5040TIP3   OH236678   1.807   5.738   1.089
 5040TIP3    H136679   1.739   5.786   1.041
 5040TIP3    H236680   1.873   5.717   1.024
 5041TIP3   OH236681   1.015   4.337   7.135
 5041TIP3    H136682   1.032   4.428   7.109
 5041TIP3    H236683   0.924   4.338   7.167
 5042TIP3   OH236684   4.769   0.704   7.610
 5042TIP3    H136685   4.763   0.737   7.700
 5042TIP3    H236686   4.808   0.777   7.560
 5043TIP3   OH236687   2.070   6.887   7.370
 5043TIP3    H136688   2.136   0.050   7.399
 5043TIP3    H236689   2.099   6.804   7.408
 5044TIP3   OH236690   0.599   0.045   0.615
 5044TIP3    H136691   0.614   6.888   0.539
 5044TIP3    H236692   0.684   0.045   0.660
 5045TIP3   OH236693   5.272   4.088   8.299
 5045TIP3    H136694   5.197   4.079   8.358
 5045TIP3    H236695   5.306   4.175   8.317
 5046TIP3   OH236696   0.943   6.500   0.955
 5046TIP3    H136697   0.893   6.503   0.873
 5046TIP3    H236698   0.892   6.553   1.016
 5047TIP3   OH236699   4.950   3.224   1.154
 5047TIP3    H136700   4.922   3.141   1.115
 5047TIP3    H236701   4.877   3.250   1.210
 5048TIP3   OH236702   4.787   3.987   6.750
 5048TIP3    H136703   4.807   3.924   6.819
 5048TIP3    H236704   4.723   3.942   6.695
 5049TIP3   OH236705   2.622   6.071   7.160
 5049TIP3    H136706   2.624   6.166   7.174
 5049TIP3    H236707   2.614   6.034   7.248
 5050TIP3   OH236708   0.150   2.739   0.578
 5050TIP3    H136709   0.073   2.749   0.522
 5050TIP3    H236710   0.131   2.662   0.631
 5051TIP3   OH236711   1.300   0.244   7.250
 5051TIP3    H136712   1.345   0.302   7.188
 5051TIP3    H236713   1.309   0.157   7.211
 5052TIP3   OH236714   0.101   0.397   7.552
 5052TIP3    H136715   0.101   0.301   7.549
 5052TIP3    H236716   0.123   0.424   7.463
 5053TIP3   OH236717   1.972   5.449   1.351
 5053TIP3    H136718   1.915   5.478   1.423
 5053TIP3    H236719   1.912   5.413   1.286
 5054TIP3   OH236720   3.758   4.592   8.519
 5054TIP3    H136721   3.812   4.572   8.443
 5054TIP3    H236722   3.720   4.677   8.499
 5055TIP3   OH236723   5.982   2.202   0.830
 5055TIP3    H136724   5.954   2.185   0.920
 5055TIP3    H236725   5.963   2.121   0.782
 5056TIP3   OH236726   3.427   5.201   7.567
 5056TIP3    H136727   3.333   5.202   7.552
 5056TIP3    H236728   3.439   5.141   7.640
 5057TIP3   OH236729   1.318   5.022   8.127
 5057TIP3    H136730   1.312   5.082   8.202
 5057TIP3    H236731   1.380   5.065   8.068
 5058TIP3   OH236732   5.857   3.032   6.373
 5058TIP3    H136733   5.819   2.944   6.379
 5058TIP3    H236734   5.818   3.080   6.446
 5059TIP3   OH236735   0.919   6.798   0.763
 5059TIP3    H136736   0.865   6.718   0.762
 5059TIP3    H236737   0.871   6.858   0.820
 5060TIP3   OH236738   0.257   2.296   1.398
 5060TIP3    H136739   0.261   2.361   1.467
 5060TIP3    H236740   0.206   2.224   1.435
 5061TIP3   OH236741   6.744   4.916   0.591
 5061TIP3    H136742   6.788   4.832   0.599
 5061TIP3    H236743   6.798   4.966   0.529
 5062TIP3   OH236744   1.594   4.630   8.073
 5062TIP3    H136745   1.671   4.685   8.067
 5062TIP3    H236746   1.583   4.593   7.985
 5063TIP3   OH236747   4.507   2.282   0.353
 5063TIP3    H136748   4.523   2.188   0.364
 5063TIP3    H236749   4.529   2.300   0.262
 5064TIP3   OH236750   2.351   6.852   7.651
 5064TIP3    H136751   2.312   6.849   7.738
 5064TIP3    H236752   2.431   6.800   7.658
 5065TIP3   OH236753   4.390   2.963   7.656
 5065TIP3    H136754   4.344   3.008   7.727
 5065TIP3    H236755   4.321   2.916   7.610
 5066TIP3   OH236756   5.957   6.578   0.212
 5066TIP3    H136757   5.909   6.541   0.286
 5066TIP3    H236758   5.934   6.522   0.138
 5067TIP3   OH236759   6.770   0.489   1.524
 5067TIP3    H136760   6.825   0.431   1.577
 5067TIP3    H236761   6.792   0.577   1.556
 5068TIP3   OH236762   1.835   1.702   0.910
 5068TIP3    H136763   1.879   1.769   0.859
 5068TIP3    H236764   1.754   1.743   0.941
 5069TIP3   OH236765   2.869   2.062   1.780
 5069TIP3    H136766   2.800   2.123   1.804
 5069TIP3    H236767   2.855   1.985   1.836
 5070TIP3   OH236768   3.242   4.082   0.990
 5070TIP3    H136769   3.272   4.161   0.946
 5070TIP3    H236770   3.148   4.096   1.003
 5071TIP3   OH236771   0.011   0.179   6.645
 5071TIP3    H136772   0.018   0.223   6.730
 5071TIP3    H236773   0.076   0.109   6.649
 5072TIP3   OH236774   4.669   1.974   0.128
 5072TIP3    H136775   4.740   2.038   0.138
 5072TIP3    H236776   4.705   1.907   0.070
 5073TIP3   OH236777   4.806   2.415   1.973
 5073TIP3    H136778   4.880   2.354   1.967
 5073TIP3    H236779   4.833   2.478   2.040
 5074TIP3   OH236780   2.121   4.698   6.851
 5074TIP3    H136781   2.170   4.663   6.777
 5074TIP3    H236782   2.110   4.623   6.910
 5075TIP3   OH236783   0.420   2.017   1.399
 5075TIP3    H136784   0.329   1.988   1.390
 5075TIP3    H236785   0.447   1.986   1.485
 5076TIP3   OH236786   4.768   3.664   7.153
 5076TIP3    H136787   4.715   3.584   7.155
 5076TIP3    H236788   4.740   3.713   7.230
 5077TIP3   OH236789   2.496   3.565   7.727
 5077TIP3    H136790   2.421   3.581   7.670
 5077TIP3    H236791   2.532   3.482   7.696
 5078TIP3   OH236792   6.633   5.595   1.451
 5078TIP3    H136793   6.538   5.587   1.442
 5078TIP3    H236794   6.652   5.683   1.420
 5079TIP3   OH236795   0.575   6.316   7.760
 5079TIP3    H136796   0.575   6.221   7.770
 5079TIP3    H236797   0.666   6.338   7.738
 5080TIP3   OH236798   4.877   5.525   0.565
 5080TIP3    H136799   4.797   5.480   0.538
 5080TIP3    H236800   4.866   5.537   0.659
 5081TIP3   OH236801   4.635   2.163   6.189
 5081TIP3    H136802   4.722   2.177   6.151
 5081TIP3    H236803   4.645   2.084   6.243
 5082TIP3   OH236804   2.021   2.226   7.449
 5082TIP3    H136805   2.039   2.149   7.504
 5082TIP3    H236806   1.926   2.226   7.438
 5083TIP3   OH236807   4.953   4.689   1.098
 5083TIP3    H136808   5.012   4.660   1.028
 5083TIP3    H236809   4.891   4.748   1.054
 5084TIP3   OH236810   4.166   4.282   1.698
 5084TIP3    H136811   4.245   4.231   1.718
 5084TIP3    H236812   4.195   4.349   1.636
 5085TIP3   OH236813   3.717   0.045   1.821
 5085TIP3    H136814   3.764   0.005   1.748
 5085TIP3    H236815   3.693   0.132   1.789
 5086TIP3   OH236816   2.089   6.804   0.504
 5086TIP3    H136817   1.997   6.785   0.489
 5086TIP3    H236818   2.125   6.818   0.416
 5087TIP3   OH236819   0.891   0.322   2.086
 5087TIP3    H136820   0.821   0.387   2.093
 5087TIP3    H236821   0.845   0.239   2.074
 5088TIP3   OH236822   2.863   6.579   7.806
 5088TIP3    H136823   2.934   6.516   7.795
 5088TIP3    H236824   2.838   6.571   7.898
 5089TIP3   OH236825   2.628   5.897   0.305
 5089TIP3    H136826   2.536   5.872   0.301
 5089TIP3    H236827   2.649   5.930   0.217
 5090TIP3   OH236828   3.341   1.033   2.588
 5090TIP3    H136829   3.290   1.114   2.591
 5090TIP3    H236830   3.296   0.978   2.525
 5091TIP3   OH236831   4.770   2.502   1.437
 5091TIP3    H136832   4.753   2.457   1.355
 5091TIP3    H236833   4.828   2.575   1.413
 5092TIP3   OH236834   2.799   6.481   6.552
 5092TIP3    H136835   2.854   6.514   6.623
 5092TIP3    H236836   2.781   6.390   6.576
 5093TIP3   OH236837   4.767   6.423   7.560
 5093TIP3    H136838   4.714   6.493   7.524
 5093TIP3    H236839   4.741   6.418   7.652
 5094TIP3   OH236840   5.747   0.631   8.388
 5094TIP3    H136841   5.775   0.587   8.307
 5094TIP3    H236842   5.823   0.681   8.416
 5095TIP3   OH236843   0.060   2.517   1.887
 5095TIP3    H136844   0.103   2.598   1.915
 5095TIP3    H236845   6.887   2.506   1.947
 5096TIP3   OH236846   6.614   2.662   8.218
 5096TIP3    H136847   6.588   2.590   8.277
 5096TIP3    H236848   6.698   2.693   8.253
 5097TIP3   OH236849   0.091   4.242   1.612
 5097TIP3    H136850   0.000   4.268   1.598
 5097TIP3    H236851   0.111   4.270   1.701
 5098TIP3   OH236852   6.251   3.402   8.061
 5098TIP3    H136853   6.208   3.452   7.992
 5098TIP3    H236854   6.344   3.424   8.054
 5099TIP3   OH236855   5.437   6.175   8.540
 5099TIP3    H136856   5.412   6.108   8.476
 5099TIP3    H236857   5.365   6.238   8.538
 5100TIP3   OH236858   5.624   6.136   0.097
 5100TIP3    H136859   5.620   6.221   0.141
 5100TIP3    H236860   5.555   6.140   0.031
 5101TIP3   OH236861   3.925   4.721   0.952
 5101TIP3    H136862   3.857   4.785   0.933
 5101TIP3    H236863   3.925   4.713   1.047
 5102TIP3   OH236864   2.377   5.600   1.681
 5102TIP3    H136865   2.318   5.593   1.605
 5102TIP3    H236866   2.458   5.636   1.645
 5103TIP3   OH236867   0.077   6.521   0.043
 5103TIP3    H136868   0.088   6.612   0.071
 5103TIP3    H236869   0.124   6.470   0.109
 5104TIP3   OH236870   6.249   2.938   7.262
 5104TIP3    H136871   6.220   2.963   7.349
 5104TIP3    H236872   6.169   2.936   7.210
 5105TIP3   OH236873   3.006   2.490   1.606
 5105TIP3    H136874   2.999   2.404   1.646
 5105TIP3    H236875   3.098   2.514   1.617
 5106TIP3   OH236876   5.671   2.929   1.272
 5106TIP3    H136877   5.667   2.852   1.215
 5106TIP3    H236878   5.669   3.004   1.213
 5107TIP3   OH236879   4.760   1.341   0.375
 5107TIP3    H136880   4.746   1.266   0.433
 5107TIP3    H236881   4.735   1.417   0.427
 5108TIP3   OH236882   5.065   3.662   0.269
 5108TIP3    H136883   5.119   3.583   0.255
 5108TIP3    H236884   5.088   3.720   0.197
 5109TIP3   OH236885   3.045   4.710   0.603
 5109TIP3    H136886   3.026   4.784   0.661
 5109TIP3    H236887   3.080   4.750   0.524
 5110TIP3   OH236888   5.414   1.530   0.742
 5110TIP3    H136889   5.371   1.459   0.695
 5110TIP3    H236890   5.439   1.593   0.673
 5111TIP3   OH236891   2.576   5.940   7.949
 5111TIP3    H136892   2.510   5.967   8.013
 5111TIP3    H236893   2.526   5.908   7.874
 5112TIP3   OH236894   5.520   0.742   7.288
 5112TIP3    H136895   5.471   0.748   7.206
 5112TIP3    H236896   5.538   0.833   7.312
 5113TIP3   OH236897   2.824   0.803   0.036
 5113TIP3    H136898   2.731   0.782   0.042
 5113TIP3    H236899   2.830   0.894   0.065
 5114TIP3   OH236900   6.281   3.386   1.075
 5114TIP3    H136901   6.212   3.347   1.129
 5114TIP3    H236902   6.296   3.472   1.115
 5115TIP3   OH236903   0.243   2.886   8.308
 5115TIP3    H136904   0.163   2.935   8.330
 5115TIP3    H236905   0.313   2.931   8.355
 5116TIP3   OH236906   4.354   2.763   7.931
 5116TIP3    H136907   4.302   2.750   8.010
 5116TIP3    H236908   4.300   2.820   7.876
 5117TIP3   OH236909   5.211   3.200   1.184
 5117TIP3    H136910   5.118   3.223   1.186
 5117TIP3    H236911   5.217   3.125   1.125
 5118TIP3   OH236912   6.725   2.957   7.982
 5118TIP3    H136913   6.791   2.895   8.013
 5118TIP3    H236914   6.775   3.031   7.948
 5119TIP3   OH236915   0.945   2.640   7.168
 5119TIP3    H136916   0.998   2.651   7.089
 5119TIP3    H236917   0.995   2.683   7.237
 5120TIP3   OH236918   0.037   3.402   8.612
 5120TIP3    H136919   0.119   3.360   0.019
 5120TIP3    H236920   6.869   3.339   0.019
 5121TIP3   OH236921   6.555   2.819   0.545
 5121TIP3    H136922   6.640   2.835   0.586
 5121TIP3    H236923   6.497   2.885   0.584
 5122TIP3   OH236924   3.324   5.604   1.629
 5122TIP3    H136925   3.333   5.568   1.718
 5122TIP3    H236926   3.230   5.601   1.612
 5123TIP3   OH236927   3.908   6.448   2.178
 5123TIP3    H136928   3.859   6.368   2.199
 5123TIP3    H236929   3.849   6.519   2.207
 5124TIP3   OH236930   4.074   6.779   0.378
 5124TIP3    H136931   4.164   6.776   0.409
 5124TIP3    H236932   4.035   6.854   0.424
 5125TIP3   OH236933   5.027   1.851   0.369
 5125TIP3    H136934   4.935   1.829   0.355
 5125TIP3    H236935   5.034   1.865   0.463
 5126TIP3   OH236936   2.091   3.366   7.767
 5126TIP3    H136937   2.034   3.428   7.721
 5126TIP3    H236938   2.056   3.280   7.744
 5127TIP3   OH236939   4.585   5.779   1.130
 5127TIP3    H136940   4.630   5.697   1.147
 5127TIP3    H236941   4.565   5.814   1.217
 5128TIP3   OH236942   2.767   1.639   8.312
 5128TIP3    H136943   2.828   1.573   8.281
 5128TIP3    H236944   2.822   1.702   8.359
 5129TIP3   OH236945   5.750   3.323   2.213
 5129TIP3    H136946   5.705   3.407   2.204
 5129TIP3    H236947   5.832   3.344   2.257
 5130TIP3   OH236948   4.743   5.680   6.293
 5130TIP3    H136949   4.721   5.770   6.268
 5130TIP3    H236950   4.658   5.638   6.308
 5131TIP3   OH236951   3.305   0.994   8.264
 5131TIP3    H136952   3.218   0.970   8.232
 5131TIP3    H236953   3.296   1.000   8.359
 5132TIP3   OH236954   3.112   0.186   8.568
 5132TIP3    H136955   3.183   0.127   8.595
 5132TIP3    H236956   3.091   0.159   8.479
 5133TIP3   OH236957   2.151   0.808   1.162
 5133TIP3    H136958   2.081   0.857   1.205
 5133TIP3    H236959   2.231   0.856   1.184
 5134TIP3   OH236960   2.510   6.669   7.961
 5134TIP3    H136961   2.416   6.655   7.958
 5134TIP3    H236962   2.545   6.589   8.000
 5135TIP3   OH236963   5.999   2.299   7.613
 5135TIP3    H136964   6.040   2.378   7.577
 5135TIP3    H236965   5.910   2.301   7.578
 5136TIP3   OH236966   1.558   5.354   6.129
 5136TIP3    H136967   1.596   5.273   6.096
 5136TIP3    H236968   1.487   5.326   6.187
 5137TIP3   OH236969   1.088   0.608   1.147
 5137TIP3    H136970   1.068   0.646   1.233
 5137TIP3    H236971   1.149   0.670   1.107
 5138TIP3   OH236972   0.944   0.722   8.360
 5138TIP3    H136973   0.982   0.665   8.426
 5138TIP3    H236974   0.875   0.770   8.405
 5139TIP3   OH236975   4.964   2.730   0.520
 5139TIP3    H136976   4.984   2.743   0.613
 5139TIP3    H236977   4.938   2.817   0.490
 5140TIP3   OH236978   1.008   0.726   6.262
 5140TIP3    H136979   1.060   0.683   6.194
 5140TIP3    H236980   0.918   0.721   6.231
 5141TIP3   OH236981   2.499   4.480   0.937
 5141TIP3    H136982   2.517   4.475   1.031
 5141TIP3    H236983   2.549   4.556   0.907
 5142TIP3   OH236984   0.139   1.186   7.569
 5142TIP3    H136985   0.181   1.272   7.564
 5142TIP3    H236986   0.195   1.129   7.515
 5143TIP3   OH236987   3.814   6.678   6.839
 5143TIP3    H136988   3.816   6.589   6.874
 5143TIP3    H236989   3.777   6.731   6.909
 5144TIP3   OH236990   2.129   2.135   6.977
 5144TIP3    H136991   2.052   2.191   6.970
 5144TIP3    H236992   2.159   2.122   6.887
 5145TIP3   OH236993   4.822   2.537   0.944
 5145TIP3    H136994   4.769   2.481   1.000
 5145TIP3    H236995   4.909   2.497   0.944
 5146TIP3   OH236996   2.486   2.728   7.861
 5146TIP3    H136997   2.484   2.807   7.916
 5146TIP3    H236998   2.400   2.727   7.819
 5147TIP3   OH236999   5.761   2.422   1.274
 5147TIP3    H137000   5.721   2.368   1.206
 5147TIP3    H237001   5.692   2.434   1.339
 5148TIP3   OH237002   3.094   6.169   6.721
 5148TIP3    H137003   3.106   6.186   6.627
 5148TIP3    H237004   3.069   6.254   6.757
 5149TIP3   OH237005   5.345   0.078   6.276
 5149TIP3    H137006   5.328   0.032   6.194
 5149TIP3    H237007   5.427   0.125   6.261
 5150TIP3   OH237008   3.584   2.219   7.653
 5150TIP3    H137009   3.529   2.140   7.645
 5150TIP3    H237010   3.668   2.193   7.615
 5151TIP3   OH237011   4.781   1.755   0.359
 5151TIP3    H137012   4.725   1.679   0.373
 5151TIP3    H237013   4.732   1.829   0.396
 5152TIP3   OH237014   3.476   0.920   0.505
 5152TIP3    H137015   3.433   0.926   0.590
 5152TIP3    H237016   3.470   0.827   0.482
 5153TIP3   OH237017   3.283   4.545   0.203
 5153TIP3    H137018   3.246   4.628   0.174
 5153TIP3    H237019   3.348   4.569   0.269
 5154TIP3   OH237020   2.298   3.667   0.169
 5154TIP3    H137021   2.339   3.753   0.172
 5154TIP3    H237022   2.370   3.607   0.147
 5155TIP3   OH237023   4.899   3.389   1.822
 5155TIP3    H137024   4.895   3.484   1.829
 5155TIP3    H237025   4.910   3.358   1.912
 5156TIP3   OH237026   2.355   1.308   6.497
 5156TIP3    H137027   2.310   1.242   6.444
 5156TIP3    H237028   2.364   1.267   6.583
 5157TIP3   OH237029   5.249   5.440   7.502
 5157TIP3    H137030   5.273   5.381   7.573
 5157TIP3    H237031   5.304   5.517   7.515
 5158TIP3   OH237032   1.183   3.089   7.485
 5158TIP3    H137033   1.276   3.079   7.504
 5158TIP3    H237034   1.139   3.040   7.554
 5159TIP3   OH237035   6.434   0.033   1.729
 5159TIP3    H137036   6.387   0.117   1.724
 5159TIP3    H237037   6.402   6.893   1.810
 5160TIP3   OH237038   0.162   3.654   0.567
 5160TIP3    H137039   0.132   3.615   0.649
 5160TIP3    H237040   0.211   3.584   0.524
 5161TIP3   OH237041   6.771   5.439   0.331
 5161TIP3    H137042   6.818   5.522   0.333
 5161TIP3    H237043   6.750   5.425   0.239
 5162TIP3   OH237044   2.857   0.037   1.613
 5162TIP3    H137045   2.922   0.102   1.637
 5162TIP3    H237046   2.906   6.868   1.569
 5163TIP3   OH237047   5.651   4.552   8.402
 5163TIP3    H137048   5.641   4.466   8.443
 5163TIP3    H237049   5.608   4.612   8.463
 5164TIP3   OH237050   1.950   6.101   8.198
 5164TIP3    H137051   1.914   6.189   8.198
 5164TIP3    H237052   1.943   6.071   8.108
 5165TIP3   OH237053   2.277   4.231   7.019
 5165TIP3    H137054   2.270   4.177   7.097
 5165TIP3    H237055   2.225   4.309   7.039
 5166TIP3   OH237056   5.421   4.137   7.613
 5166TIP3    H137057   5.376   4.080   7.675
 5166TIP3    H237058   5.353   4.168   7.555
 5167TIP3   OH237059   4.857   6.810   2.147
 5167TIP3    H137060   4.845   6.877   2.080
 5167TIP3    H237061   4.949   6.783   2.138
 5168TIP3   OH237062   1.028   3.752   6.857
 5168TIP3    H137063   1.113   3.717   6.832
 5168TIP3    H237064   0.966   3.682   6.835
 5169TIP3   OH237065   5.426   4.657   8.252
 5169TIP3    H137066   5.502   4.634   8.305
 5169TIP3    H237067   5.407   4.579   8.201
 5170TIP3   OH237068   1.011   4.040   7.287
 5170TIP3    H137069   0.933   4.074   7.243
 5170TIP3    H237070   0.981   3.959   7.329
 5171TIP3   OH237071   3.717   3.235   7.746
 5171TIP3    H137072   3.716   3.323   7.710
 5171TIP3    H237073   3.765   3.182   7.683
 5172TIP3   OH237074   3.315   0.955   0.767
 5172TIP3    H137075   3.282   1.045   0.766
 5172TIP3    H237076   3.302   0.926   0.857
 5173TIP3   OH237077   6.862   5.322   6.529
 5173TIP3    H137078   6.890   5.387   6.593
 5173TIP3    H237079   6.858   5.370   6.446
 5174TIP3   OH237080   2.972   5.726   7.566
 5174TIP3    H137081   3.028   5.764   7.634
 5174TIP3    H237082   2.886   5.720   7.608
 5175TIP3   OH237083   3.395   0.056   1.822
 5175TIP3    H137084   3.302   0.077   1.825
 5175TIP3    H237085   3.399   6.862   1.839
 5176TIP3   OH237086   4.470   0.277   8.533
 5176TIP3    H137087   4.452   0.228   8.454
 5176TIP3    H237088   4.524   0.351   8.504
 5177TIP3   OH237089   4.758   3.613   1.290
 5177TIP3    H137090   4.850   3.597   1.310
 5177TIP3    H237091   4.740   3.699   1.328
 5178TIP3   OH237092   2.174   5.646   7.641
 5178TIP3    H137093   2.190   5.643   7.547
 5178TIP3    H237094   2.192   5.557   7.672
 5179TIP3   OH237095   5.684   0.409   0.713
 5179TIP3    H137096   5.625   0.382   0.783
 5179TIP3    H237097   5.627   0.448   0.647
 5180TIP3   OH237098   1.380   0.487   8.017
 5180TIP3    H137099   1.307   0.536   7.979
 5180TIP3    H237100   1.430   0.455   7.942
 5181TIP3   OH237101   4.847   6.528   2.453
 5181TIP3    H137102   4.793   6.453   2.476
 5181TIP3    H237103   4.784   6.600   2.439
 5182TIP3   OH237104   0.882   4.127   7.817
 5182TIP3    H137105   0.925   4.122   7.902
 5182TIP3    H237106   0.951   4.153   7.757
 5183TIP3   OH237107   3.425   6.432   1.247
 5183TIP3    H137108   3.496   6.422   1.310
 5183TIP3    H237109   3.360   6.367   1.273
 5184TIP3   OH237110   0.799   0.505   7.851
 5184TIP3    H137111   0.891   0.484   7.866
 5184TIP3    H237112   0.800   0.593   7.813
 5185TIP3   OH237113   3.387   6.193   6.922
 5185TIP3    H137114   3.444   6.266   6.898
 5185TIP3    H237115   3.388   6.135   6.847
 5186TIP3   OH237116   0.837   0.382   6.489
 5186TIP3    H137117   0.908   0.398   6.427
 5186TIP3    H237118   0.829   0.465   6.537
 5187TIP3   OH237119   1.115   5.202   8.070
 5187TIP3    H137120   1.071   5.175   8.150
 5187TIP3    H237121   1.202   5.164   8.076
 5188TIP3   OH237122   5.209   6.071   8.043
 5188TIP3    H137123   5.295   6.039   8.014
 5188TIP3    H237124   5.227   6.150   8.092
 5189TIP3   OH237125   1.895   6.277   6.219
 5189TIP3    H137126   1.968   6.312   6.269
 5189TIP3    H237127   1.935   6.242   6.139
 5190TIP3   OH237128   0.057   0.843   6.901
 5190TIP3    H137129   0.128   0.902   6.877
 5190TIP3    H237130   6.878   0.896   6.892
 5191TIP3   OH237131   3.747   0.497   8.227
 5191TIP3    H137132   3.695   0.418   8.240
 5191TIP3    H237133   3.682   0.568   8.225
 5192TIP3   OH237134   1.062   6.469   7.934
 5192TIP3    H137135   1.147   6.504   7.960
 5192TIP3    H237136   1.083   6.388   7.887
 5193TIP3   OH237137   4.709   3.743   7.948
 5193TIP3    H137138   4.631   3.776   7.902
 5193TIP3    H237139   4.779   3.749   7.883
 5194TIP3   OH237140   4.273   1.930   6.967
 5194TIP3    H137141   4.221   1.929   7.048
 5194TIP3    H237142   4.211   1.951   6.898
 5195TIP3   OH237143   4.140   3.419   6.677
 5195TIP3    H137144   4.067   3.453   6.728
 5195TIP3    H237145   4.202   3.387   6.743
 5196TIP3   OH237146   5.881   5.093   7.849
 5196TIP3    H137147   5.880   5.034   7.773
 5196TIP3    H237148   5.898   5.179   7.812
 5197TIP3   OH237149   5.050   0.717   7.324
 5197TIP3    H137150   5.106   0.644   7.348
 5197TIP3    H237151   5.049   0.717   7.228
 5198TIP3   OH237152   1.320   4.037   6.834
 5198TIP3    H137153   1.245   4.055   6.891
 5198TIP3    H237154   1.396   4.042   6.892
 5199TIP3   OH237155   0.620   0.326   0.750
 5199TIP3    H137156   0.580   0.318   0.664
 5199TIP3    H237157   0.714   0.329   0.732
 5200TIP3   OH237158   6.221   3.461   1.411
 5200TIP3    H137159   6.129   3.441   1.429
 5200TIP3    H237160   6.255   3.496   1.493
 5201TIP3   OH237161   4.181   4.097   8.189
 5201TIP3    H137162   4.270   4.063   8.184
 5201TIP3    H237163   4.173   4.130   8.279
 5202TIP3   OH237164   3.541   2.950   6.555
 5202TIP3    H137165   3.564   2.866   6.595
 5202TIP3    H237166   3.623   3.000   6.558
 5203TIP3   OH237167   3.920   5.368   2.318
 5203TIP3    H137168   3.962   5.307   2.257
 5203TIP3    H237169   3.950   5.454   2.290
 5204TIP3   OH237170   4.901   1.754   7.942
 5204TIP3    H137171   4.972   1.724   7.999
 5204TIP3    H237172   4.822   1.747   7.996
 5205TIP3   OH237173   0.657   3.854   6.675
 5205TIP3    H137174   0.611   3.873   6.593
 5205TIP3    H237175   0.600   3.792   6.720
 5206TIP3   OH237176   0.062   6.092   0.019
 5206TIP3    H137177   0.009   6.013   0.005
 5206TIP3    H237178   0.120   6.096   8.562
 5207TIP3   OH237179   3.741   4.451   0.685
 5207TIP3    H137180   3.690   4.431   0.607
 5207TIP3    H237181   3.823   4.488   0.651
 5208TIP3   OH237182   6.350   2.347   0.582
 5208TIP3    H137183   6.259   2.374   0.571
 5208TIP3    H237184   6.395   2.427   0.607
 5209TIP3   OH237185   6.739   5.284   0.568
 5209TIP3    H137186   6.742   5.361   0.511
 5209TIP3    H237187   6.828   5.274   0.600
 5210TIP3   OH237188   0.112   4.396   8.395
 5210TIP3    H137189   0.050   4.334   8.433
 5210TIP3    H237190   0.075   4.483   8.414
 5211TIP3   OH237191   2.360   6.496   1.895
 5211TIP3    H137192   2.291   6.453   1.946
 5211TIP3    H237193   2.404   6.553   1.958
 5212TIP3   OH237194   2.294   6.331   7.686
 5212TIP3    H137195   2.277   6.371   7.771
 5212TIP3    H237196   2.381   6.363   7.662
 5213TIP3   OH237197   3.035   4.930   8.355
 5213TIP3    H137198   3.017   4.838   8.376
 5213TIP3    H237199   3.062   4.929   8.263
 5214TIP3   OH237200   0.869   1.652   8.280
 5214TIP3    H137201   0.879   1.652   8.185
 5214TIP3    H237202   0.874   1.559   8.305
 5215TIP3   OH237203   0.453   6.418   8.228
 5215TIP3    H137204   0.401   6.427   8.307
 5215TIP3    H237205   0.389   6.416   8.157
 5216TIP3   OH237206   5.856   6.828   7.729
 5216TIP3    H137207   5.783   6.876   7.689
 5216TIP3    H237208   5.877   6.760   7.665
 5217TIP3   OH237209   6.510   4.311   0.948
 5217TIP3    H137210   6.480   4.241   1.006
 5217TIP3    H237211   6.487   4.392   0.994
 5218TIP3   OH237212   2.312   6.560   0.183
 5218TIP3    H137213   2.322   6.537   0.275
 5218TIP3    H237214   2.335   6.480   0.135
 5219TIP3   OH237215   6.752   1.014   1.663
 5219TIP3    H137216   6.695   0.988   1.735
 5219TIP3    H237217   6.703   0.989   1.584
 5220TIP3   OH237218   6.029   5.519   6.132
 5220TIP3    H137219   6.068   5.491   6.049
 5220TIP3    H237220   5.991   5.605   6.113
 5221TIP3   OH237221   0.014   4.801   7.868
 5221TIP3    H137222   6.839   4.859   7.859
 5221TIP3    H237223   0.076   4.849   7.923
 5222TIP3   OH237224   3.870   3.712   0.025
 5222TIP3    H137225   3.855   3.747   8.556
 5222TIP3    H237226   3.903   3.787   0.075
 5223TIP3   OH237227   4.192   6.453   0.986
 5223TIP3    H137228   4.167   6.361   0.982
 5223TIP3    H237229   4.260   6.462   0.919
 5224TIP3   OH237230   4.793   6.427   0.098
 5224TIP3    H137231   4.863   6.459   0.155
 5224TIP3    H237232   4.725   6.397   0.158
 5225TIP3   OH237233   3.281   3.479   1.047
 5225TIP3    H137234   3.277   3.400   0.993
 5225TIP3    H237235   3.208   3.533   1.015
 5226TIP3   OH237236   4.257   4.032   7.524
 5226TIP3    H137237   4.237   4.072   7.439
 5226TIP3    H237238   4.231   4.099   7.588
 5227TIP3   OH237239   3.631   5.447   1.433
 5227TIP3    H137240   3.637   5.473   1.341
 5227TIP3    H237241   3.549   5.487   1.463
 5228TIP3   OH237242   1.852   5.861   0.236
 5228TIP3    H137243   1.841   5.954   0.257
 5228TIP3    H237244   1.947   5.848   0.236
 5229TIP3   OH237245   6.871   3.956   0.297
 5229TIP3    H137246   6.895   3.897   0.225
 5229TIP3    H237247   0.039   3.943   0.363
 5230TIP3   OH237248   5.348   2.788   0.319
 5230TIP3    H137249   5.372   2.752   0.233
 5230TIP3    H237250   5.274   2.846   0.301
 5231TIP3   OH237251   5.659   2.412   2.098
 5231TIP3    H137252   5.573   2.370   2.104
 5231TIP3    H237253   5.715   2.359   2.154
 5232TIP3   OH237254   5.246   3.277   1.782
 5232TIP3    H137255   5.300   3.325   1.845
 5232TIP3    H237256   5.191   3.221   1.836
 5233TIP3   OH237257   1.229   5.591   1.764
 5233TIP3    H137258   1.188   5.535   1.699
 5233TIP3    H237259   1.232   5.538   1.843
 5234TIP3   OH237260   1.795   0.044   0.739
 5234TIP3    H137261   1.730   6.898   0.687
 5234TIP3    H237262   1.774   0.022   0.830
 5235TIP3   OH237263   2.919   0.769   1.508
 5235TIP3    H137264   2.934   0.854   1.547
 5235TIP3    H237265   2.981   0.764   1.436
 5236TIP3   OH237266   6.721   3.083   1.170
 5236TIP3    H137267   6.776   3.008   1.148
 5236TIP3    H237268   6.647   3.045   1.218
 5237TIP3   OH237269   0.843   5.879   2.271
 5237TIP3    H137270   0.755   5.857   2.300
 5237TIP3    H237271   0.832   5.956   2.216
 5238TIP3   OH237272   4.139   3.662   1.525
 5238TIP3    H137273   4.147   3.577   1.567
 5238TIP3    H237274   4.102   3.719   1.593
 5239TIP3   OH237275   2.856   6.002   1.982
 5239TIP3    H137276   2.881   6.036   2.068
 5239TIP3    H237277   2.777   5.951   1.998
 5240TIP3   OH237278   1.602   1.821   1.589
 5240TIP3    H137279   1.517   1.850   1.557
 5240TIP3    H237280   1.589   1.729   1.613
 5241TIP3   OH237281   5.263   1.172   1.700
 5241TIP3    H137282   5.246   1.250   1.753
 5241TIP3    H237283   5.335   1.128   1.745
 5242TIP3   OH237284   3.573   5.875   6.288
 5242TIP3    H137285   3.668   5.884   6.275
 5242TIP3    H237286   3.546   5.959   6.324
 5243TIP3   OH237287   6.866   0.703   1.210
 5243TIP3    H137288   6.786   0.753   1.223
 5243TIP3    H237289   6.892   0.676   1.298
 5244TIP3   OH237290   5.405   5.592   0.321
 5244TIP3    H137291   5.329   5.598   0.263
 5244TIP3    H237292   5.475   5.636   0.274
 5245TIP3   OH237293   3.633   0.307   7.032
 5245TIP3    H137294   3.605   0.274   6.947
 5245TIP3    H237295   3.652   0.400   7.016
 5246TIP3   OH237296   6.300   1.316   8.274
 5246TIP3    H137297   6.333   1.251   8.213
 5246TIP3    H237298   6.244   1.266   8.333
 5247TIP3   OH237299   3.878   5.448   0.413
 5247TIP3    H137300   3.944   5.415   0.474
 5247TIP3    H237301   3.874   5.382   0.344
 5248TIP3   OH237302   2.445   0.283   1.050
 5248TIP3    H137303   2.426   0.360   0.996
 5248TIP3    H237304   2.379   0.219   1.025
 5249TIP3   OH237305   5.854   1.112   7.400
 5249TIP3    H137306   5.833   1.197   7.437
 5249TIP3    H237307   5.893   1.132   7.315
 5250TIP3   OH237308   4.564   4.518   1.944
 5250TIP3    H137309   4.621   4.525   2.020
 5250TIP3    H237310   4.613   4.464   1.882
 5251TIP3   OH237311   2.528   6.093   1.329
 5251TIP3    H137312   2.621   6.076   1.337
 5251TIP3    H237313   2.489   6.008   1.309
 5252TIP3   OH237314   3.860   5.850   7.423
 5252TIP3    H137315   3.824   5.763   7.440
 5252TIP3    H237316   3.939   5.834   7.371
 5253TIP3   OH237317   4.070   3.886   0.868
 5253TIP3    H137318   4.142   3.860   0.926
 5253TIP3    H237319   4.069   3.981   0.872
 5254TIP3   OH237320   2.516   4.549   7.024
 5254TIP3    H137321   2.441   4.490   7.026
 5254TIP3    H237322   2.588   4.496   6.991
 5255TIP3   OH237323   2.942   6.641   8.462
 5255TIP3    H137324   2.995   6.669   8.537
 5255TIP3    H237325   2.899   6.721   8.432
 5256TIP3   OH237326   3.007   5.618   8.413
 5256TIP3    H137327   2.938   5.626   8.346
 5256TIP3    H237328   3.009   5.525   8.434
 5257TIP3   OH237329   3.797   5.063   8.601
 5257TIP3    H137330   3.759   5.140   0.024
 5257TIP3    H237331   3.842   5.098   8.524
 5258TIP3   OH237332   5.489   0.530   0.550
 5258TIP3    H137333   5.457   0.508   0.463
 5258TIP3    H237334   5.542   0.609   0.537
 5259TIP3   OH237335   2.661   4.070   1.997
 5259TIP3    H137336   2.705   4.140   2.045
 5259TIP3    H237337   2.582   4.112   1.962
 5260TIP3   OH237338   4.470   2.806   0.838
 5260TIP3    H137339   4.470   2.776   0.746
 5260TIP3    H237340   4.562   2.829   0.855
 5261TIP3   OH237341   1.146   0.553   0.263
 5261TIP3    H137342   1.239   0.557   0.242
 5261TIP3    H237343   1.114   0.642   0.248
 5262TIP3   OH237344   2.982   6.126   0.064
 5262TIP3    H137345   2.976   6.220   0.045
 5262TIP3    H237346   2.992   6.084   8.598
 5263TIP3   OH237347   5.904   6.532   7.620
 5263TIP3    H137348   5.996   6.507   7.626
 5263TIP3    H237349   5.858   6.452   7.594
 5264TIP3   OH237350   3.612   5.218   8.385
 5264TIP3    H137351   3.584   5.228   8.476
 5264TIP3    H237352   3.683   5.282   8.374
 5265TIP3   OH237353   0.002   2.500   8.083
 5265TIP3    H137354   6.860   2.574   8.127
 5265TIP3    H237355   0.059   2.541   8.017
 5266TIP3   OH237356   1.136   6.255   0.782
 5266TIP3    H137357   1.071   6.325   0.772
 5266TIP3    H237358   1.142   6.216   0.695
 5267TIP3   OH237359   3.027   1.637   1.475
 5267TIP3    H137360   2.987   1.718   1.444
 5267TIP3    H237361   3.105   1.628   1.420
 5268TIP3   OH237362   5.026   2.493   2.531
 5268TIP3    H137363   5.015   2.432   2.458
 5268TIP3    H237364   4.959   2.560   2.516
 5269TIP3   OH237365   2.575   0.197   8.419
 5269TIP3    H137366   2.596   0.269   8.479
 5269TIP3    H237367   2.650   0.138   8.428
 5270TIP3   OH237368   2.553   4.936   8.499
 5270TIP3    H137369   2.638   4.965   8.534
 5270TIP3    H237370   2.527   4.863   8.556
 5271TIP3   OH237371   0.845   0.948   1.100
 5271TIP3    H137372   0.931   0.933   1.061
 5271TIP3    H237373   0.842   0.886   1.173
 5272TIP3   OH237374   4.558   1.842   2.123
 5272TIP3    H137375   4.519   1.895   2.193
 5272TIP3    H237376   4.505   1.762   2.121
 5273TIP3   OH237377   1.753   3.507   0.768
 5273TIP3    H137378   1.828   3.474   0.818
 5273TIP3    H237379   1.718   3.430   0.723
 5274TIP3   OH237380   4.910   2.996   0.424
 5274TIP3    H137381   4.883   2.983   0.333
 5274TIP3    H237382   4.947   3.085   0.425
 5275TIP3   OH237383   6.303   1.111   1.884
 5275TIP3    H137384   6.312   1.037   1.824
 5275TIP3    H237385   6.393   1.132   1.910
 5276TIP3   OH237386   0.080   1.992   0.135
 5276TIP3    H137387   0.003   1.987   0.078
 5276TIP3    H237388   0.074   2.077   0.178
 5277TIP3   OH237389   5.818   1.583   6.450
 5277TIP3    H137390   5.803   1.530   6.371
 5277TIP3    H237391   5.731   1.605   6.481
 5278TIP3   OH237392   6.177   1.049   6.088
 5278TIP3    H137393   6.177   0.985   6.159
 5278TIP3    H237394   6.213   1.002   6.013
 5279TIP3   OH237395   0.386   4.865   1.065
 5279TIP3    H137396   0.308   4.916   1.044
 5279TIP3    H237397   0.408   4.819   0.984
 5280TIP3   OH237398   0.268   0.777   1.279
 5280TIP3    H137399   0.204   0.818   1.338
 5280TIP3    H237400   0.236   0.797   1.191
 5281TIP3   OH237401   4.055   1.914   7.674
 5281TIP3    H137402   4.133   1.885   7.628
 5281TIP3    H237403   4.088   1.962   7.750
 5282TIP3   OH237404   2.904   4.709   7.694
 5282TIP3    H137405   2.890   4.769   7.621
 5282TIP3    H237406   2.877   4.623   7.660
 5283TIP3   OH237407   2.957   1.463   7.837
 5283TIP3    H137408   3.011   1.385   7.822
 5283TIP3    H237409   2.964   1.513   7.755
 5284TIP3   OH237410   2.114   3.305   8.609
 5284TIP3    H137411   2.156   3.350   8.537
 5284TIP3    H237412   2.173   3.319   0.064
 5285TIP3   OH237413   4.003   1.988   1.329
 5285TIP3    H137414   4.054   2.043   1.270
 5285TIP3    H237415   4.065   1.965   1.399
 5286TIP3   OH237416   0.839   3.358   8.606
 5286TIP3    H137417   0.753   3.376   0.024
 5286TIP3    H237418   0.866   3.275   0.026
 5287TIP3   OH237419   6.186   0.721   8.159
 5287TIP3    H137420   6.234   0.782   8.103
 5287TIP3    H237421   6.162   0.772   8.235
 5288TIP3   OH237422   5.547   2.574   6.912
 5288TIP3    H137423   5.469   2.629   6.918
 5288TIP3    H237424   5.619   2.636   6.903
 5289TIP3   OH237425   5.003   0.365   0.005
 5289TIP3    H137426   4.970   0.299   0.066
 5289TIP3    H237427   4.939   0.366   8.553
 5290TIP3   OH237428   6.814   4.124   8.197
 5290TIP3    H137429   6.804   4.030   8.182
 5290TIP3    H237430   0.000   4.133   8.237
 5291TIP3   OH237431   0.089   6.005   1.892
 5291TIP3    H137432   0.036   5.937   1.851
 5291TIP3    H237433   0.122   6.057   1.818
 5292TIP3   OH237434   2.751   4.480   1.406
 5292TIP3    H137435   2.724   4.449   1.493
 5292TIP3    H237436   2.842   4.450   1.398
 5293TIP3   OH237437   6.498   2.157   1.321
 5293TIP3    H137438   6.485   2.227   1.385
 5293TIP3    H237439   6.411   2.117   1.312
 5294TIP3   OH237440   2.283   4.228   7.749
 5294TIP3    H137441   2.375   4.205   7.765
 5294TIP3    H237442   2.234   4.171   7.808
 5295TIP3   OH237443   0.292   3.226   7.166
 5295TIP3    H137444   0.197   3.240   7.161
 5295TIP3    H237445   0.313   3.175   7.087
 5296TIP3   OH237446   1.300   0.298   1.866
 5296TIP3    H137447   1.262   0.330   1.947
 5296TIP3    H237448   1.258   0.213   1.851
 5297TIP3   OH237449   6.165   2.613   8.405
 5297TIP3    H137450   6.259   2.598   8.400
 5297TIP3    H237451   6.126   2.527   8.395
 5298TIP3   OH237452   0.015   6.079   1.601
 5298TIP3    H137453   0.008   6.174   1.608
 5298TIP3    H237454   6.825   6.048   1.608
 5299TIP3   OH237455   3.628   0.599   6.572
 5299TIP3    H137456   3.658   0.585   6.482
 5299TIP3    H237457   3.675   0.532   6.623
 5300TIP3   OH237458   2.492   2.522   7.327
 5300TIP3    H137459   2.398   2.507   7.316
 5300TIP3    H237460   2.498   2.612   7.358
 5301TIP3   OH237461   0.118   1.134   7.145
 5301TIP3    H137462   0.175   1.133   7.068
 5301TIP3    H237463   0.165   1.084   7.211
 5302TIP3   OH237464   4.661   5.569   7.310
 5302TIP3    H137465   4.569   5.551   7.290
 5302TIP3    H237466   4.661   5.594   7.402
 5303TIP3   OH237467   4.400   5.663   1.542
 5303TIP3    H137468   4.414   5.687   1.634
 5303TIP3    H237469   4.369   5.743   1.501
 5304TIP3   OH237470   4.341   3.601   8.609
 5304TIP3    H137471   4.419   3.549   0.007
 5304TIP3    H237472   4.372   3.673   8.553
 5305TIP3   OH237473   1.680   4.914   8.425
 5305TIP3    H137474   1.666   4.972   8.500
 5305TIP3    H237475   1.771   4.884   8.435
 5306TIP3   OH237476   5.080   4.423   6.444
 5306TIP3    H137477   5.018   4.396   6.376
 5306TIP3    H237478   5.031   4.414   6.526
 5307TIP3   OH237479   5.804   5.440   6.608
 5307TIP3    H137480   5.813   5.363   6.551
 5307TIP3    H237481   5.893   5.458   6.639
 5308TIP3   OH237482   2.226   4.583   0.551
 5308TIP3    H137483   2.197   4.556   0.464
 5308TIP3    H237484   2.293   4.520   0.575
 5309TIP3   OH237485   5.466   5.305   1.583
 5309TIP3    H137486   5.516   5.385   1.571
 5309TIP3    H237487   5.531   5.238   1.601
 5310TIP3   OH237488   6.112   6.296   1.003
 5310TIP3    H137489   6.017   6.297   1.012
 5310TIP3    H237490   6.142   6.367   1.060
 5311TIP3   OH237491   3.117   1.992   8.600
 5311TIP3    H137492   3.101   1.941   0.059
 5311TIP3    H237493   3.211   2.011   8.603
 5312TIP3   OH237494   2.564   1.384   8.112
 5312TIP3    H137495   2.589   1.377   8.019
 5312TIP3    H237496   2.495   1.318   8.122
 5313TIP3   OH237497   1.898   2.076   0.971
 5313TIP3    H137498   1.808   2.078   1.004
 5313TIP3    H237499   1.933   1.992   1.002
 5314TIP3   OH237500   0.702   0.961   0.273
 5314TIP3    H137501   0.752   0.901   0.329
 5314TIP3    H237502   0.610   0.938   0.291
 5315TIP3   OH237503   2.115   1.111   8.541
 5315TIP3    H137504   2.166   1.089   8.464
 5315TIP3    H237505   2.134   1.041   8.603
 5316TIP3   OH237506   5.894   6.500   8.533
 5316TIP3    H137507   5.807   6.460   8.527
 5316TIP3    H237508   5.954   6.425   8.542
 5317TIP3   OH237509   4.877   2.367   3.005
 5317TIP3    H137510   4.902   2.449   2.964
 5317TIP3    H237511   4.927   2.300   2.958
 5318TIP3   OH237512   5.821   2.837   1.687
 5318TIP3    H137513   5.870   2.897   1.743
 5318TIP3    H237514   5.871   2.755   1.688
 5319TIP3   OH237515   2.062   3.962   0.393
 5319TIP3    H137516   2.102   3.977   0.307
 5319TIP3    H237517   2.084   4.040   0.443
 5320TIP3   OH237518   5.989   1.484   0.281
 5320TIP3    H137519   6.065   1.541   0.267
 5320TIP3    H237520   6.008   1.440   0.364
 5321TIP3   OH237521   4.713   3.879   0.108
 5321TIP3    H137522   4.671   3.956   0.069
 5321TIP3    H237523   4.796   3.911   0.143
 5322TIP3   OH237524   1.585   6.295   1.073
 5322TIP3    H137525   1.557   6.318   0.985
 5322TIP3    H237526   1.635   6.371   1.103
 5323TIP3   OH237527   1.533   3.159   0.363
 5323TIP3    H137528   1.531   3.216   0.286
 5323TIP3    H237529   1.448   3.172   0.405
 5324TIP3   OH237530   2.501   4.767   6.615
 5324TIP3    H137531   2.479   4.679   6.585
 5324TIP3    H237532   2.437   4.824   6.572
 5325TIP3   OH237533   3.529   5.796   1.659
 5325TIP3    H137534   3.463   5.727   1.650
 5325TIP3    H237535   3.504   5.861   1.593
 5326TIP3   OH237536   0.447   1.714   0.369
 5326TIP3    H137537   0.418   1.681   0.453
 5326TIP3    H237538   0.366   1.740   0.324
 5327TIP3   OH237539   5.714   0.336   8.332
 5327TIP3    H137540   5.802   0.335   8.368
 5327TIP3    H237541   5.712   0.412   8.273
 5328TIP3   OH237542   4.872   2.294   0.453
 5328TIP3    H137543   4.820   2.280   0.532
 5328TIP3    H237544   4.953   2.336   0.484
 5329TIP3   OH237545   1.361   5.790   7.561
 5329TIP3    H137546   1.287   5.739   7.594
 5329TIP3    H237547   1.431   5.776   7.626
 5330TIP3   OH237548   5.675   6.156   8.279
 5330TIP3    H137549   5.642   6.094   8.344
 5330TIP3    H237550   5.770   6.153   8.287
 5331TIP3   OH237551   2.254   0.186   7.511
 5331TIP3    H137552   2.237   0.267   7.559
 5331TIP3    H237553   2.284   0.124   7.578
 5332TIP3   OH237554   4.504   5.142   0.500
 5332TIP3    H137555   4.560   5.220   0.502
 5332TIP3    H237556   4.531   5.094   0.423
 5333TIP3   OH237557   5.508   2.431   1.668
 5333TIP3    H137558   5.429   2.385   1.696
 5333TIP3    H237559   5.483   2.523   1.667
 5334TIP3   OH237560   5.938   0.807   6.993
 5334TIP3    H137561   5.887   0.874   6.947
 5334TIP3    H237562   5.969   0.851   7.072
 5335TIP3   OH237563   3.051   3.079   7.394
 5335TIP3    H137564   2.986   3.031   7.445
 5335TIP3    H237565   3.039   3.171   7.420
 5336TIP3   OH237566   3.246   1.975   1.500
 5336TIP3    H137567   3.289   2.060   1.506
 5336TIP3    H237568   3.303   1.915   1.548
 5337TIP3   OH237569   2.587   5.098   6.554
 5337TIP3    H137570   2.570   5.111   6.460
 5337TIP3    H237571   2.500   5.105   6.594
 5338TIP3   OH237572   3.940   1.809   0.103
 5338TIP3    H137573   4.016   1.869   0.102
 5338TIP3    H237574   3.875   1.854   0.156
 5339TIP3   OH237575   2.941   1.496   0.201
 5339TIP3    H137576   2.977   1.562   0.141
 5339TIP3    H237577   2.852   1.481   0.168
 5340TIP3   OH237578   4.963   2.760   6.603
 5340TIP3    H137579   5.026   2.760   6.675
 5340TIP3    H237580   4.881   2.788   6.644
 5341TIP3   OH237581   6.533   2.425   1.214
 5341TIP3    H137582   6.584   2.357   1.169
 5341TIP3    H237583   6.522   2.494   1.149
 5342TIP3   OH237584   5.383   6.888   2.089
 5342TIP3    H137585   5.329   0.061   2.059
 5342TIP3    H237586   5.441   0.025   2.155
 5343TIP3   OH237587   4.456   0.926   0.641
 5343TIP3    H137588   4.532   0.962   0.687
 5343TIP3    H237589   4.478   0.834   0.626
 5344TIP3   OH237590   1.098   3.871   0.864
 5344TIP3    H137591   1.011   3.871   0.824
 5344TIP3    H237592   1.087   3.819   0.944
 5345TIP3   OH237593   2.435   2.732   7.490
 5345TIP3    H137594   2.377   2.756   7.562
 5345TIP3    H237595   2.406   2.787   7.417
 5346TIP3   OH237596   0.799   2.156   0.092
 5346TIP3    H137597   0.767   2.092   0.155
 5346TIP3    H237598   0.894   2.142   0.090
 5347TIP3   OH237599   2.263   1.007   8.333
 5347TIP3    H137600   2.200   0.955   8.282
 5347TIP3    H237601   2.319   1.048   8.268
 5348TIP3   OH237602   3.717   0.565   6.983
 5348TIP3    H137603   3.744   0.525   6.900
 5348TIP3    H237604   3.670   0.644   6.958
 5349TIP3   OH237605   5.739   0.052   6.951
 5349TIP3    H137606   5.802   0.114   6.989
 5349TIP3    H237607   5.768   6.867   6.983
 5350TIP3   OH237608   2.144   5.573   0.419
 5350TIP3    H137609   2.169   5.658   0.381
 5350TIP3    H237610   2.065   5.548   0.371
 5351TIP3   OH237611   0.003   6.232   7.045
 5351TIP3    H137612   0.032   6.311   7.090
 5351TIP3    H237613   6.897   6.257   6.953
 5352TIP3   OH237614   6.268   6.631   6.117
 5352TIP3    H137615   6.250   6.545   6.080
 5352TIP3    H237616   6.221   6.692   6.060
 5353TIP3   OH237617   5.985   6.323   1.323
 5353TIP3    H137618   5.961   6.414   1.340
 5353TIP3    H237619   5.927   6.296   1.252
 5354TIP3   OH237620   0.772   2.182   7.305
 5354TIP3    H137621   0.702   2.119   7.321
 5354TIP3    H237622   0.788   2.222   7.391
 5355TIP3   OH237623   4.333   4.901   0.202
 5355TIP3    H137624   4.379   4.895   0.286
 5355TIP3    H237625   4.297   4.814   0.189
 5356TIP3   OH237626   6.561   2.656   2.232
 5356TIP3    H137627   6.636   2.666   2.173
 5356TIP3    H237628   6.599   2.654   2.319
 5357TIP3   OH237629   0.352   3.595   7.338
 5357TIP3    H137630   0.275   3.611   7.393
 5357TIP3    H237631   0.383   3.509   7.365
 5358TIP3   OH237632   1.170   5.806   8.215
 5358TIP3    H137633   1.225   5.762   8.279
 5358TIP3    H237634   1.081   5.776   8.235
 5359TIP3   OH237635   4.787   2.849   1.315
 5359TIP3    H137636   4.839   2.866   1.394
 5359TIP3    H237637   4.852   2.840   1.246
 5360TIP3   OH237638   0.575   5.798   8.259
 5360TIP3    H137639   0.568   5.880   8.210
 5360TIP3    H237640   0.636   5.745   8.209
 5361TIP3   OH237641   2.562   0.626   6.744
 5361TIP3    H137642   2.503   0.551   6.745
 5361TIP3    H237643   2.648   0.589   6.767
 5362TIP3   OH237644   4.919   4.466   7.918
 5362TIP3    H137645   4.848   4.515   7.877
 5362TIP3    H237646   4.940   4.397   7.856
 5363TIP3   OH237647   6.284   4.759   0.544
 5363TIP3    H137648   6.189   4.773   0.540
 5363TIP3    H237649   6.315   4.828   0.602
 5364TIP3   OH237650   5.532   4.896   8.081
 5364TIP3    H137651   5.453   4.854   8.116
 5364TIP3    H237652   5.602   4.833   8.099
 5365TIP3   OH237653   3.326   0.904   7.787
 5365TIP3    H137654   3.308   0.810   7.791
 5365TIP3    H237655   3.388   0.920   7.858
 5366TIP3   OH237656   5.629   3.070   2.176
 5366TIP3    H137657   5.659   3.161   2.184
 5366TIP3    H237658   5.592   3.066   2.087
 5367TIP3   OH237659   1.516   3.676   1.484
 5367TIP3    H137660   1.479   3.661   1.572
 5367TIP3    H237661   1.610   3.686   1.499
 5368TIP3   OH237662   1.061   3.598   2.081
 5368TIP3    H137663   1.086   3.672   2.025
 5368TIP3    H237664   0.974   3.573   2.050
 5369TIP3   OH237665   2.890   1.399   1.870
 5369TIP3    H137666   2.906   1.422   1.961
 5369TIP3    H237667   2.799   1.370   1.868
 5370TIP3   OH237668   3.979   0.110   0.509
 5370TIP3    H137669   4.043   0.178   0.530
 5370TIP3    H237670   3.913   0.117   0.578
 5371TIP3   OH237671   2.110   6.840   2.261
 5371TIP3    H137672   2.175   0.005   2.235
 5371TIP3    H237673   2.027   6.873   2.226
 5372TIP3   OH237674   0.802   4.959   6.920
 5372TIP3    H137675   0.740   4.886   6.922
 5372TIP3    H237676   0.855   4.944   6.842
 5373TIP3   OH237677   1.097   0.298   8.134
 5373TIP3    H137678   1.169   0.307   8.196
 5373TIP3    H237679   1.039   0.371   8.155
 5374TIP3   OH237680   4.530   6.596   1.487
 5374TIP3    H137681   4.516   6.502   1.477
 5374TIP3    H237682   4.539   6.609   1.581
 5375TIP3   OH237683   4.895   5.995   6.975
 5375TIP3    H137684   4.925   6.058   7.040
 5375TIP3    H237685   4.938   5.913   6.999
 5376TIP3   OH237686   5.265   2.522   7.014
 5376TIP3    H137687   5.348   2.508   7.061
 5376TIP3    H237688   5.246   2.438   6.973
 5377TIP3   OH237689   3.399   0.843   1.343
 5377TIP3    H137690   3.358   0.885   1.267
 5377TIP3    H237691   3.351   0.760   1.353
 5378TIP3   OH237692   4.104   6.874   8.033
 5378TIP3    H137693   4.113   6.798   8.091
 5378TIP3    H237694   4.020   0.013   8.057
 5379TIP3   OH237695   5.176   1.111   6.948
 5379TIP3    H137696   5.095   1.161   6.949
 5379TIP3    H237697   5.149   1.020   6.964
 5380TIP3   OH237698   4.597   5.896   0.640
 5380TIP3    H137699   4.592   5.846   0.559
 5380TIP3    H237700   4.526   5.862   0.695
 5381TIP3   OH237701   0.294   1.152   8.573
 5381TIP3    H137702   0.324   1.069   8.534
 5381TIP3    H237703   0.203   1.159   8.545
 5382TIP3   OH237704   5.047   6.505   7.542
 5382TIP3    H137705   5.137   6.474   7.529
 5382TIP3    H237706   4.994   6.426   7.543
 5383TIP3   OH237707   4.683   1.553   0.564
 5383TIP3    H137708   4.667   1.501   0.642
 5383TIP3    H237709   4.610   1.614   0.559
 5384TIP3   OH237710   5.345   0.421   8.128
 5384TIP3    H137711   5.258   0.426   8.088
 5384TIP3    H237712   5.336   0.360   8.200
 5385TIP3   OH237713   0.538   2.006   2.333
 5385TIP3    H137714   0.598   2.076   2.305
 5385TIP3    H237715   0.464   2.013   2.273
 5386TIP3   OH237716   0.505   4.840   8.500
 5386TIP3    H137717   0.496   4.935   8.501
 5386TIP3    H237718   0.596   4.824   8.526
 5387TIP3   OH237719   4.720   0.680   7.042
 5387TIP3    H137720   4.736   0.662   7.135
 5387TIP3    H237721   4.681   0.767   7.042
 5388TIP3   OH237722   1.181   6.705   8.384
 5388TIP3    H137723   1.267   6.745   8.392
 5388TIP3    H237724   1.160   6.676   8.473
 5389TIP3   OH237725   2.687   1.472   0.462
 5389TIP3    H137726   2.678   1.555   0.508
 5389TIP3    H237727   2.690   1.495   0.369
 5390TIP3   OH237728   2.622   6.344   7.251
 5390TIP3    H137729   2.613   6.420   7.308
 5390TIP3    H237730   2.568   6.365   7.174
 5391TIP3   OH237731   5.549   2.527   1.414
 5391TIP3    H137732   5.536   2.485   1.499
 5391TIP3    H237733   5.540   2.621   1.432
 5392TIP3   OH237734   5.043   3.506   7.866
 5392TIP3    H137735   4.953   3.482   7.843
 5392TIP3    H237736   5.036   3.545   7.953
 5393TIP3   OH237737   4.421   4.970   8.230
 5393TIP3    H137738   4.410   4.962   8.325
 5393TIP3    H237739   4.453   5.059   8.216
 5394TIP3   OH237740   3.062   3.602   7.634
 5394TIP3    H137741   2.980   3.641   7.604
 5394TIP3    H237742   3.113   3.677   7.666
 5395TIP3   OH237743   5.300   3.654   2.091
 5395TIP3    H137744   5.257   3.645   2.176
 5395TIP3    H237745   5.237   3.617   2.028
 5396TIP3   OH237746   1.297   2.359   0.995
 5396TIP3    H137747   1.203   2.346   0.980
 5396TIP3    H237748   1.340   2.309   0.926
 5397TIP3   OH237749   1.077   0.279   7.581
 5397TIP3    H137750   1.041   0.319   7.660
 5397TIP3    H237751   1.160   0.323   7.566
 5398TIP3   OH237752   4.785   6.229   7.132
 5398TIP3    H137753   4.765   6.318   7.161
 5398TIP3    H237754   4.729   6.173   7.186
 5399TIP3   OH237755   1.079   4.952   7.920
 5399TIP3    H137756   1.135   5.024   7.948
 5399TIP3    H237757   1.115   4.875   7.966
 5400TIP3   OH237758   1.001   4.321   6.386
 5400TIP3    H137759   0.972   4.238   6.347
 5400TIP3    H237760   1.090   4.333   6.351
 5401TIP3   OH237761   4.047   3.612   6.437
 5401TIP3    H137762   4.064   3.520   6.460
 5401TIP3    H237763   4.128   3.642   6.397
 5402TIP3   OH237764   4.805   6.206   0.898
 5402TIP3    H137765   4.781   6.144   0.967
 5402TIP3    H237766   4.788   6.292   0.935
 5403TIP3   OH237767   0.335   2.977   1.119
 5403TIP3    H137768   0.393   3.053   1.116
 5403TIP3    H237769   0.256   3.009   1.161
 5404TIP3   OH237770   1.250   2.775   7.630
 5404TIP3    H137771   1.303   2.704   7.593
 5404TIP3    H237772   1.293   2.797   7.712
 5405TIP3   OH237773   3.092   2.390   2.737
 5405TIP3    H137774   3.127   2.447   2.668
 5405TIP3    H237775   3.140   2.308   2.727
 5406TIP3   OH237776   3.287   6.234   0.631
 5406TIP3    H137777   3.195   6.219   0.609
 5406TIP3    H237778   3.306   6.320   0.596
 5407TIP3   OH237779   0.046   5.034   0.436
 5407TIP3    H137780   0.088   5.116   0.413
 5407TIP3    H237781   0.117   4.980   0.472
 5408TIP3   OH237782   4.569   3.168   7.083
 5408TIP3    H137783   4.538   3.177   7.173
 5408TIP3    H237784   4.528   3.087   7.051
 5409TIP3   OH237785   1.264   3.843   7.171
 5409TIP3    H137786   1.272   3.861   7.078
 5409TIP3    H237787   1.192   3.899   7.200
 5410TIP3   OH237788   5.114   6.497   2.597
 5410TIP3    H137789   5.110   6.430   2.529
 5410TIP3    H237790   5.023   6.508   2.625
 5411TIP3   OH237791   3.457   4.236   8.589
 5411TIP3    H137792   3.435   4.245   0.062
 5411TIP3    H237793   3.463   4.326   8.557
 5412TIP3   OH237794   0.524   4.635   7.834
 5412TIP3    H137795   0.443   4.584   7.829
 5412TIP3    H237796   0.496   4.726   7.824
 5413TIP3   OH237797   6.124   1.429   0.549
 5413TIP3    H137798   6.188   1.368   0.512
 5413TIP3    H237799   6.173   1.477   0.615
 5414TIP3   OH237800   0.504   0.725   0.279
 5414TIP3    H137801   0.448   0.648   0.279
 5414TIP3    H237802   0.566   0.710   0.350
 5415TIP3   OH237803   3.133   2.749   1.938
 5415TIP3    H137804   3.182   2.711   2.010
 5415TIP3    H237805   3.082   2.820   1.978
 5416TIP3   OH237806   6.671   6.560   2.021
 5416TIP3    H137807   6.675   6.613   1.941
 5416TIP3    H237808   6.703   6.618   2.090
 5417TIP3   OH237809   2.008   1.186   6.549
 5417TIP3    H137810   2.098   1.166   6.523
 5417TIP3    H237811   1.956   1.119   6.505
 5418TIP3   OH237812   2.488   1.275   0.486
 5418TIP3    H137813   2.424   1.323   0.433
 5418TIP3    H237814   2.562   1.335   0.493
 5419TIP3   OH237815   5.538   1.241   8.369
 5419TIP3    H137816   5.514   1.297   8.296
 5419TIP3    H237817   5.459   1.191   8.389
 5420TIP3   OH237818   1.589   1.377   7.610
 5420TIP3    H137819   1.494   1.368   7.618
 5420TIP3    H237820   1.622   1.365   7.699
 5421TIP3   OH237821   1.612   1.020   0.621
 5421TIP3    H137822   1.608   0.975   0.537
 5421TIP3    H237823   1.585   1.109   0.602
 5422TIP3   OH237824   6.542   3.302   8.424
 5422TIP3    H137825   6.555   3.246   8.501
 5422TIP3    H237826   6.609   3.370   8.433
 5423TIP3   OH237827   0.997   2.032   7.936
 5423TIP3    H137828   1.079   2.054   7.891
 5423TIP3    H237829   0.935   2.100   7.907
 5424TIP3   OH237830   1.061   4.804   1.300
 5424TIP3    H137831   1.106   4.735   1.347
 5424TIP3    H237832   1.101   4.885   1.331
 5425TIP3   OH237833   6.129   4.533   1.167
 5425TIP3    H137834   6.172   4.602   1.217
 5425TIP3    H237835   6.158   4.547   1.077
 5426TIP3   OH237836   2.758   4.467   8.569
 5426TIP3    H137837   2.833   4.424   8.610
 5426TIP3    H237838   2.725   4.528   0.016
 5427TIP3   OH237839   0.361   0.647   0.701
 5427TIP3    H137840   0.339   0.645   0.794
 5427TIP3    H237841   0.319   0.569   0.664
 5428TIP3   OH237842   6.207   3.533   0.847
 5428TIP3    H137843   6.127   3.583   0.867
 5428TIP3    H237844   6.230   3.492   0.931
 5429TIP3   OH237845   1.064   6.699   7.198
 5429TIP3    H137846   1.145   6.676   7.154
 5429TIP3    H237847   1.088   6.769   7.258
 5430TIP3   OH237848   5.508   6.563   1.763
 5430TIP3    H137849   5.450   6.544   1.690
 5430TIP3    H237850   5.449   6.590   1.834
 5431TIP3   OH237851   6.461   2.963   1.021
 5431TIP3    H137852   6.475   2.870   1.002
 5431TIP3    H237853   6.540   2.990   1.068
 5432TIP3   OH237854   0.430   4.388   1.491
 5432TIP3    H137855   0.367   4.436   1.545
 5432TIP3    H237856   0.515   4.414   1.526
 5433TIP3   OH237857   4.816   2.629   2.182
 5433TIP3    H137858   4.911   2.637   2.191
 5433TIP3    H237859   4.789   2.713   2.143
 5434TIP3   OH237860   2.731   6.847   7.646
 5434TIP3    H137861   2.808   6.852   7.701
 5434TIP3    H237862   2.697   6.758   7.659
 5435TIP3   OH237863   2.124   1.344   0.098
 5435TIP3    H137864   2.031   1.329   0.085
 5435TIP3    H237865   2.166   1.264   0.067
 5436TIP3   OH237866   5.887   0.781   1.522
 5436TIP3    H137867   5.887   0.703   1.467
 5436TIP3    H237868   5.977   0.812   1.520
 5437TIP3   OH237869   2.131   4.280   1.842
 5437TIP3    H137870   2.054   4.289   1.898
 5437TIP3    H237871   2.163   4.192   1.860
 5438TIP3   OH237872   3.604   3.388   1.295
 5438TIP3    H137873   3.626   3.305   1.253
 5438TIP3    H237874   3.525   3.370   1.345
 5439TIP3   OH237875   6.519   3.877   6.734
 5439TIP3    H137876   6.458   3.938   6.776
 5439TIP3    H237877   6.469   3.796   6.727
 5440TIP3   OH237878   1.563   4.983   1.857
 5440TIP3    H137879   1.483   4.931   1.849
 5440TIP3    H237880   1.583   5.010   1.768
 5441TIP3   OH237881   2.058   4.143   7.894
 5441TIP3    H137882   2.016   4.170   7.975
 5441TIP3    H237883   1.998   4.170   7.825
 5442TIP3   OH237884   4.598   0.228   2.346
 5442TIP3    H137885   4.615   0.201   2.256
 5442TIP3    H237886   4.542   0.159   2.382
 5443TIP3   OH237887   3.944   1.793   7.904
 5443TIP3    H137888   3.943   1.697   7.895
 5443TIP3    H237889   3.984   1.824   7.823
 5444TIP3   OH237890   2.460   4.069   8.245
 5444TIP3    H137891   2.456   4.112   8.159
 5444TIP3    H237892   2.552   4.044   8.254
 5445TIP3   OH237893   5.626   5.572   1.032
 5445TIP3    H137894   5.713   5.533   1.045
 5445TIP3    H237895   5.574   5.501   0.994
 5446TIP3   OH237896   5.733   5.170   6.556
 5446TIP3    H137897   5.653   5.121   6.537
 5446TIP3    H237898   5.738   5.172   6.652
 5447TIP3   OH237899   4.941   4.987   8.618
 5447TIP3    H137900   4.894   5.060   0.039
 5447TIP3    H237901   4.877   4.946   8.560
 5448TIP3   OH237902   2.008   3.775   0.100
 5448TIP3    H137903   2.081   3.714   0.111
 5448TIP3    H237904   2.048   3.862   0.100
 5449TIP3   OH237905   3.373   5.476   7.995
 5449TIP3    H137906   3.290   5.429   8.003
 5449TIP3    H237907   3.373   5.509   7.906
 5450TIP3   OH237908   4.625   2.238   0.643
 5450TIP3    H137909   4.641   2.312   0.701
 5450TIP3    H237910   4.597   2.279   0.560
 5451TIP3   OH237911   1.067   3.469   7.829
 5451TIP3    H137912   1.060   3.449   7.923
 5451TIP3    H237913   1.041   3.560   7.822
 5452TIP3   OH237914   6.630   6.347   0.356
 5452TIP3    H137915   6.540   6.356   0.387
 5452TIP3    H237916   6.680   6.319   0.433
 5453TIP3   OH237917   5.289   4.992   7.157
 5453TIP3    H137918   5.348   4.930   7.201
 5453TIP3    H237919   5.344   5.034   7.091
 5454TIP3   OH237920   3.491   0.752   1.710
 5454TIP3    H137921   3.498   0.844   1.733
 5454TIP3    H237922   3.398   0.733   1.714
 5455TIP3   OH237923   1.316   0.429   7.557
 5455TIP3    H137924   1.375   0.482   7.611
 5455TIP3    H237925   1.363   0.347   7.542
 5456TIP3   OH237926   2.256   5.082   7.194
 5456TIP3    H137927   2.202   5.083   7.115
 5456TIP3    H237928   2.308   5.162   7.189
 5457TIP3   OH237929   5.293   6.553   1.198
 5457TIP3    H137930   5.336   6.617   1.140
 5457TIP3    H237931   5.280   6.476   1.144
 5458TIP3   OH237932   2.508   3.452   1.468
 5458TIP3    H137933   2.578   3.506   1.505
 5458TIP3    H237934   2.440   3.516   1.444
 5459TIP3   OH237935   1.412   2.383   7.360
 5459TIP3    H137936   1.484   2.407   7.302
 5459TIP3    H237937   1.351   2.335   7.305
 5460TIP3   OH237938   1.241   3.301   7.704
 5460TIP3    H137939   1.278   3.348   7.630
 5460TIP3    H237940   1.164   3.351   7.729
 5461TIP3   OH237941   4.839   2.586   0.312
 5461TIP3    H137942   4.792   2.536   0.378
 5461TIP3    H237943   4.911   2.628   0.360
 5462TIP3   OH237944   6.697   2.867   1.978
 5462TIP3    H137945   6.700   2.782   2.022
 5462TIP3    H237946   6.654   2.924   2.041
 5463TIP3   OH237947   6.424   6.193   7.869
 5463TIP3    H137948   6.438   6.184   7.775
 5463TIP3    H237949   6.398   6.106   7.898
 5464TIP3   OH237950   2.949   4.003   7.533
 5464TIP3    H137951   2.854   4.000   7.518
 5464TIP3    H237952   2.967   3.922   7.581
 5465TIP3   OH237953   3.227   1.880   1.202
 5465TIP3    H137954   3.211   1.817   1.271
 5465TIP3    H237955   3.320   1.900   1.207
 5466TIP3   OH237956   0.301   4.627   1.205
 5466TIP3    H137957   0.214   4.607   1.171
 5466TIP3    H237958   0.329   4.705   1.156
 5467TIP3   OH237959   2.037   5.260   8.074
 5467TIP3    H137960   2.077   5.182   8.112
 5467TIP3    H237961   2.105   5.327   8.080
 5468TIP3   OH237962   4.883   4.637   7.630
 5468TIP3    H137963   4.807   4.612   7.578
 5468TIP3    H237964   4.957   4.598   7.584
 5469TIP3   OH237965   1.613   6.309   1.370
 5469TIP3    H137966   1.529   6.271   1.397
 5469TIP3    H237967   1.589   6.390   1.325
 5470TIP3   OH237968   1.794   4.292   6.527
 5470TIP3    H137969   1.805   4.379   6.566
 5470TIP3    H237970   1.720   4.253   6.574
 5471TIP3   OH237971   3.375   2.217   2.645
 5471TIP3    H137972   3.470   2.217   2.652
 5471TIP3    H237973   3.356   2.285   2.580
 5472TIP3   OH237974   3.627   1.769   7.666
 5472TIP3    H137975   3.577   1.782   7.585
 5472TIP3    H237976   3.617   1.852   7.714
 5473TIP3   OH237977   1.637   4.046   0.875
 5473TIP3    H137978   1.632   3.953   0.899
 5473TIP3    H237979   1.731   4.061   0.860
 5474TIP3   OH237980   5.989   3.410   2.256
 5474TIP3    H137981   5.999   3.503   2.234
 5474TIP3    H237982   6.075   3.372   2.239
 5475TIP3   OH237983   5.834   1.827   1.283
 5475TIP3    H137984   5.857   1.817   1.375
 5475TIP3    H237985   5.908   1.790   1.235
 5476TIP3   OH237986   4.760   0.724   8.190
 5476TIP3    H137987   4.852   0.718   8.215
 5476TIP3    H237988   4.740   0.640   8.150
 5477TIP3   OH237989   0.549   3.602   1.634
 5477TIP3    H137990   0.496   3.536   1.589
 5477TIP3    H237991   0.499   3.622   1.714
 5478TIP3   OH237992   0.323   4.826   0.099
 5478TIP3    H137993   0.366   4.886   0.160
 5478TIP3    H237994   0.387   4.816   0.028
 5479TIP3   OH237995   4.383   4.097   0.110
 5479TIP3    H137996   4.476   4.102   0.089
 5479TIP3    H237997   4.380   4.083   0.205
 5480TIP3   OH237998   3.524   6.750   1.902
 5480TIP3    H137999   3.539   6.656   1.912
 5480TIP3    H238000   3.607   6.784   1.871
 5481TIP3   OH238001   1.481   2.781   1.307
 5481TIP3    H138002   1.505   2.783   1.400
 5481TIP3    H238003   1.389   2.808   1.306
 5482TIP3   OH238004   2.475   5.165   6.326
 5482TIP3    H138005   2.385   5.145   6.351
 5482TIP3    H238006   2.468   5.244   6.273
 5483TIP3   OH238007   6.427   4.389   1.306
 5483TIP3    H138008   6.495   4.324   1.285
 5483TIP3    H238009   6.411   4.435   1.224
 5484TIP3   OH238010   2.022   6.896   8.393
 5484TIP3    H138011   2.050   0.086   8.410
 5484TIP3    H238012   2.063   6.874   8.310
 5485TIP3   OH238013   6.198   1.902   0.422
 5485TIP3    H138014   6.119   1.955   0.431
 5485TIP3    H238015   6.261   1.944   0.480
 5486TIP3   OH238016   6.836   5.963   8.033
 5486TIP3    H138017   6.791   6.046   8.013
 5486TIP3    H238018   0.023   5.973   7.996
 5487TIP3   OH238019   3.497   4.199   0.570
 5487TIP3    H138020   3.410   4.168   0.595
 5487TIP3    H238021   3.546   4.119   0.551
 5488TIP3   OH238022   0.950   0.104   8.588
 5488TIP3    H138023   1.019   0.070   8.531
 5488TIP3    H238024   0.996   0.136   0.045
 5489TIP3   OH238025   0.443   2.241   1.206
 5489TIP3    H138026   0.398   2.208   1.284
 5489TIP3    H238027   0.472   2.329   1.230
 5490TIP3   OH238028   3.153   6.789   1.277
 5490TIP3    H138029   3.161   6.714   1.218
 5490TIP3    H238030   3.169   6.865   1.221
 5491TIP3   OH238031   0.244   2.369   2.157
 5491TIP3    H138032   0.187   2.428   2.106
 5491TIP3    H238033   0.184   2.302   2.191
 5492TIP3   OH238034   5.764   1.960   7.831
 5492TIP3    H138035   5.682   1.912   7.843
 5492TIP3    H238036   5.831   1.892   7.825
 5493TIP3   OH238037   0.182   1.591   8.507
 5493TIP3    H138038   0.269   1.618   8.480
 5493TIP3    H238039   0.183   1.598   8.603
 5494TIP3   OH238040   2.634   3.031   8.530
 5494TIP3    H138041   2.694   3.021   8.456
 5494TIP3    H238042   2.557   3.073   8.492
 5495TIP3   OH238043   3.489   6.864   6.868
 5495TIP3    H138044   3.564   0.021   6.885
 5495TIP3    H238045   3.415   0.009   6.907
 5496TIP3   OH238046   6.190   0.405   6.644
 5496TIP3    H138047   6.279   0.438   6.657
 5496TIP3    H238048   6.151   0.408   6.732
 5497TIP3   OH238049   5.220   5.719   1.280
 5497TIP3    H138050   5.224   5.639   1.332
 5497TIP3    H238051   5.191   5.787   1.341
 5498TIP3   OH238052   3.277   4.466   7.873
 5498TIP3    H138053   3.310   4.555   7.888
 5498TIP3    H238054   3.350   4.409   7.899
 5499TIP3   OH238055   1.295   2.294   0.325
 5499TIP3    H138056   1.383   2.326   0.306
 5499TIP3    H238057   1.252   2.367   0.370
 5500TIP3   OH238058   0.724   2.400   8.374
 5500TIP3    H138059   0.755   2.404   8.464
 5500TIP3    H238060   0.644   2.452   8.373
 5501TIP3   OH238061   1.305   4.367   7.077
 5501TIP3    H138062   1.231   4.352   7.019
 5501TIP3    H238063   1.359   4.289   7.068
 5502TIP3   OH238064   3.761   0.410   7.763
 5502TIP3    H138065   3.705   0.488   7.756
 5502TIP3    H238066   3.700   0.337   7.768
 5503TIP3   OH238067   3.339   3.871   8.455
 5503TIP3    H138068   3.284   3.794   8.469
 5503TIP3    H238069   3.425   3.835   8.431
 5504TIP3   OH238070   1.416   4.524   1.385
 5504TIP3    H138071   1.410   4.454   1.450
 5504TIP3    H238072   1.343   4.582   1.406
 5505TIP3   OH238073   0.146   0.885   6.351
 5505TIP3    H138074   0.124   0.835   6.430
 5505TIP3    H238075   0.101   0.839   6.280
 5506TIP3   OH238076   3.089   0.736   7.068
 5506TIP3    H138077   3.021   0.758   7.133
 5506TIP3    H238078   3.090   0.812   7.009
 5507TIP3   OH238079   2.638   6.719   0.527
 5507TIP3    H138080   2.584   6.792   0.498
 5507TIP3    H238081   2.671   6.679   0.447
 5508TIP3   OH238082   6.696   5.930   7.166
 5508TIP3    H138083   6.791   5.943   7.161
 5508TIP3    H238084   6.676   5.934   7.259
 5509TIP3   OH238085   4.992   5.605   6.375
 5509TIP3    H138086   4.986   5.539   6.444
 5509TIP3    H238087   4.902   5.617   6.345
 5510TIP3   OH238088   6.279   1.823   0.052
 5510TIP3    H138089   6.199   1.770   0.047
 5510TIP3    H238090   6.302   1.841   8.580
 5511TIP3   OH238091   6.033   4.228   1.199
 5511TIP3    H138092   6.049   4.152   1.143
 5511TIP3    H238093   6.042   4.303   1.141
 5512TIP3   OH238094   5.995   1.472   7.926
 5512TIP3    H138095   6.051   1.488   8.002
 5512TIP3    H238096   5.912   1.514   7.948
 5513TIP3   OH238097   5.264   2.137   1.120
 5513TIP3    H138098   5.169   2.144   1.129
 5513TIP3    H238099   5.292   2.223   1.089
 5514TIP3   OH238100   0.787   3.265   1.499
 5514TIP3    H138101   0.852   3.234   1.563
 5514TIP3    H238102   0.829   3.339   1.456
 5515TIP3   OH238103   5.857   4.257   0.507
 5515TIP3    H138104   5.805   4.311   0.448
 5515TIP3    H238105   5.946   4.262   0.471
 5516TIP3   OH238106   3.279   2.561   1.359
 5516TIP3    H138107   3.306   2.652   1.349
 5516TIP3    H238108   3.352   2.518   1.404
 5517TIP3   OH238109   4.225   4.353   6.567
 5517TIP3    H138110   4.144   4.335   6.519
 5517TIP3    H238111   4.215   4.305   6.650
 5518TIP3   OH238112   5.951   4.828   1.273
 5518TIP3    H138113   5.901   4.910   1.270
 5518TIP3    H238114   5.930   4.784   1.191
 5519TIP3   OH238115   3.022   6.092   7.616
 5519TIP3    H138116   3.002   6.002   7.641
 5519TIP3    H238117   3.051   6.087   7.525
 5520TIP3   OH238118   5.704   5.192   2.315
 5520TIP3    H138119   5.782   5.157   2.272
 5520TIP3    H238120   5.658   5.114   2.347
 5521TIP3   OH238121   3.158   0.134   1.148
 5521TIP3    H138122   3.115   0.153   1.231
 5521TIP3    H238123   3.095   0.161   1.081
 5522TIP3   OH238124   2.227   2.528   7.182
 5522TIP3    H138125   2.271   2.508   7.100
 5522TIP3    H238126   2.136   2.542   7.158
 5523TIP3   OH238127   4.798   6.202   1.913
 5523TIP3    H138128   4.741   6.220   1.839
 5523TIP3    H238129   4.774   6.113   1.940
 5524TIP3   OH238130   6.846   1.731   7.665
 5524TIP3    H138131   0.041   1.735   7.671
 5524TIP3    H238132   6.819   1.822   7.647
 5525TIP3   OH238133   1.906   5.698   7.363
 5525TIP3    H138134   1.930   5.759   7.432
 5525TIP3    H238135   1.837   5.644   7.402
 5526TIP3   OH238136   6.788   4.389   6.484
 5526TIP3    H138137   6.715   4.399   6.422
 5526TIP3    H238138   6.826   4.477   6.489
 5527TIP3   OH238139   1.507   1.745   0.810
 5527TIP3    H138140   1.550   1.764   0.893
 5527TIP3    H238141   1.426   1.795   0.813
 5528TIP3   OH238142   4.476   3.206   7.338
 5528TIP3    H138143   4.450   3.117   7.360
 5528TIP3    H238144   4.438   3.260   7.408
 5529TIP3   OH238145   6.389   5.608   7.830
 5529TIP3    H138146   6.457   5.575   7.771
 5529TIP3    H238147   6.323   5.646   7.773
 5530TIP3   OH238148   5.821   0.540   8.136
 5530TIP3    H138149   5.777   0.470   8.087
 5530TIP3    H238150   5.859   0.597   8.069
 5531TIP3   OH238151   4.043   6.519   1.489
 5531TIP3    H138152   4.037   6.512   1.393
 5531TIP3    H238153   4.006   6.605   1.508
 5532TIP3   OH238154   0.998   1.051   6.028
 5532TIP3    H138155   1.017   0.970   5.980
 5532TIP3    H238156   0.912   1.036   6.067
 5533TIP3   OH238157   3.875   2.795   1.525
 5533TIP3    H138158   3.945   2.734   1.548
 5533TIP3    H238159   3.919   2.878   1.510
 5534TIP3   OH238160   6.844   2.329   8.506
 5534TIP3    H138161   6.838   2.244   8.550
 5534TIP3    H238162   0.016   2.320   8.444
 5535TIP3   OH238163   4.703   1.972   8.369
 5535TIP3    H138164   4.712   1.981   8.274
 5535TIP3    H238165   4.642   2.041   8.394
 5536TIP3   OH238166   2.845   5.153   8.369
 5536TIP3    H138167   2.810   5.135   8.282
 5536TIP3    H238168   2.893   5.073   8.392
 5537TIP3   OH238169   3.334   2.216   8.161
 5537TIP3    H138170   3.314   2.153   8.093
 5537TIP3    H238171   3.249   2.248   8.191
 5538TIP3   OH238172   4.632   5.100   1.628
 5538TIP3    H138173   4.576   5.173   1.602
 5538TIP3    H238174   4.699   5.096   1.560
 5539TIP3   OH238175   3.501   3.738   7.643
 5539TIP3    H138176   3.591   3.751   7.612
 5539TIP3    H238177   3.470   3.825   7.666
 5540TIP3   OH238178   5.408   6.185   1.930
 5540TIP3    H138179   5.428   6.203   2.022
 5540TIP3    H238180   5.328   6.134   1.932
 5541TIP3   OH238181   1.502   0.785   0.710
 5541TIP3    H138182   1.492   0.746   0.797
 5541TIP3    H238183   1.554   0.864   0.726
 5542TIP3   OH238184   3.579   6.674   6.698
 5542TIP3    H138185   3.670   6.699   6.715
 5542TIP3    H238186   3.527   6.742   6.740
 5543TIP3   OH238187   1.460   5.288   2.414
 5543TIP3    H138188   1.395   5.357   2.427
 5543TIP3    H238189   1.542   5.326   2.445
 5544TIP3   OH238190   4.047   1.300   2.409
 5544TIP3    H138191   3.990   1.227   2.433
 5544TIP3    H238192   4.136   1.266   2.419
 5545TIP3   OH238193   2.671   4.984   2.583
 5545TIP3    H138194   2.691   4.939   2.502
 5545TIP3    H238195   2.729   5.061   2.583
 5546TIP3   OH238196   1.981   0.495   6.010
 5546TIP3    H138197   1.921   0.534   5.946
 5546TIP3    H238198   2.016   0.569   6.059
 5547TIP3   OH238199   4.317   3.755   1.043
 5547TIP3    H138200   4.383   3.763   1.112
 5547TIP3    H238201   4.260   3.684   1.072
 5548TIP3   OH238202   2.187   0.696   7.798
 5548TIP3    H138203   2.251   0.628   7.821
 5548TIP3    H238204   2.200   0.709   7.704
 5549TIP3   OH238205   4.259   5.262   8.429
 5549TIP3    H138206   4.311   5.287   8.352
 5549TIP3    H238207   4.219   5.343   8.458
 5550TIP3   OH238208   3.081   3.965   0.155
 5550TIP3    H138209   3.157   3.914   0.125
 5550TIP3    H238210   3.050   4.009   0.076
 5551TIP3   OH238211   3.673   6.672   0.822
 5551TIP3    H138212   3.582   6.700   0.810
 5551TIP3    H238213   3.723   6.728   0.762
 5552TIP3   OH238214   0.724   6.016   8.065
 5552TIP3    H138215   0.798   5.969   8.102
 5552TIP3    H238216   0.686   5.955   8.001
 5553TIP3   OH238217   2.251   5.134   1.167
 5553TIP3    H138218   2.230   5.187   1.244
 5553TIP3    H238219   2.168   5.122   1.123
 5554TIP3   OH238220   0.111   6.809   0.372
 5554TIP3    H138221   0.126   6.798   0.278
 5554TIP3    H238222   0.193   6.781   0.413
 5555TIP3   OH238223   5.608   1.237   7.023
 5555TIP3    H138224   5.555   1.263   6.948
 5555TIP3    H238225   5.583   1.298   7.093
 5556TIP3   OH238226   3.658   5.199   1.567
 5556TIP3    H138227   3.628   5.219   1.655
 5556TIP3    H238228   3.648   5.280   1.518
 5557TIP3   OH238229   5.117   1.306   1.192
 5557TIP3    H138230   5.036   1.349   1.166
 5557TIP3    H238231   5.179   1.378   1.207
 5558TIP3   OH238232   1.493   5.105   0.585
 5558TIP3    H138233   1.555   5.140   0.650
 5558TIP3    H238234   1.519   5.147   0.503
 5559TIP3   OH238235   4.919   5.495   7.537
 5559TIP3    H138236   4.912   5.461   7.626
 5559TIP3    H238237   4.862   5.572   7.536
 5560TIP3   OH238238   2.719   2.557   1.262
 5560TIP3    H138239   2.641   2.585   1.309
 5560TIP3    H238240   2.693   2.477   1.216
 5561TIP3   OH238241   1.659   5.220   8.262
 5561TIP3    H138242   1.635   5.136   8.224
 5561TIP3    H238243   1.750   5.208   8.290
 5562TIP3   OH238244   0.789   0.102   1.299
 5562TIP3    H138245   0.719   0.136   1.355
 5562TIP3    H238246   0.801   0.170   1.233
 5563TIP3   OH238247   1.983   1.649   8.412
 5563TIP3    H138248   1.996   1.554   8.408
 5563TIP3    H238249   1.893   1.663   8.382
 5564TIP3   OH238250   5.554   2.325   6.577
 5564TIP3    H138251   5.509   2.287   6.653
 5564TIP3    H238252   5.509   2.289   6.501
 5565TIP3   OH238253   2.204   2.994   7.810
 5565TIP3    H138254   2.258   3.049   7.753
 5565TIP3    H238255   2.268   2.949   7.866
 5566TIP3   OH238256   1.753   5.870   1.834
 5566TIP3    H138257   1.743   5.777   1.817
 5566TIP3    H238258   1.803   5.875   1.915
 5567TIP3   OH238259   1.738   3.574   2.162
 5567TIP3    H138260   1.673   3.578   2.091
 5567TIP3    H238261   1.794   3.500   2.138
 5568TIP3   OH238262   1.460   3.577   8.130
 5568TIP3    H138263   1.525   3.634   8.169
 5568TIP3    H238264   1.411   3.633   8.070
 5569TIP3   OH238265   5.345   5.099   7.480
 5569TIP3    H138266   5.422   5.136   7.525
 5569TIP3    H238267   5.375   5.013   7.449
 5570TIP3   OH238268   4.480   2.439   2.756
 5570TIP3    H138269   4.398   2.396   2.731
 5570TIP3    H238270   4.503   2.399   2.840
 5571TIP3   OH238271   6.761   3.374   6.144
 5571TIP3    H138272   6.827   3.310   6.115
 5571TIP3    H238273   6.777   3.451   6.091
 5572TIP3   OH238274   6.746   6.311   1.944
 5572TIP3    H138275   6.725   6.397   1.981
 5572TIP3    H238276   6.740   6.323   1.849
 5573TIP3   OH238277   4.436   1.270   7.635
 5573TIP3    H138278   4.421   1.332   7.707
 5573TIP3    H238279   4.393   1.311   7.560
 5574TIP3   OH238280   4.601   0.998   1.084
 5574TIP3    H138281   4.666   0.930   1.100
 5574TIP3    H238282   4.519   0.951   1.070
 5575TIP3   OH238283   2.573   0.246   8.083
 5575TIP3    H138284   2.525   0.307   8.139
 5575TIP3    H238285   2.532   0.161   8.099
 5576TIP3   OH238286   3.375   5.229   6.448
 5576TIP3    H138287   3.471   5.221   6.448
 5576TIP3    H238288   3.358   5.315   6.411
 5577TIP3   OH238289   2.878   5.694   1.000
 5577TIP3    H138290   2.907   5.610   1.036
 5577TIP3    H238291   2.852   5.673   0.910
 5578TIP3   OH238292   3.300   0.428   7.307
 5578TIP3    H138293   3.298   0.455   7.216
 5578TIP3    H238294   3.393   0.422   7.329
 5579TIP3   OH238295   6.388   5.102   6.157
 5579TIP3    H138296   6.479   5.075   6.142
 5579TIP3    H238297   6.358   5.046   6.229
 5580TIP3   OH238298   5.878   2.101   1.430
 5580TIP3    H138299   5.803   2.151   1.462
 5580TIP3    H238300   5.872   2.017   1.476
 5581TIP3   OH238301   6.679   4.485   2.159
 5581TIP3    H138302   6.768   4.505   2.132
 5581TIP3    H238303   6.626   4.556   2.123
 5582TIP3   OH238304   4.841   2.741   6.359
 5582TIP3    H138305   4.892   2.687   6.298
 5582TIP3    H238306   4.900   2.754   6.434
 5583TIP3   OH238307   6.518   0.137   0.617
 5583TIP3    H138308   6.580   0.197   0.577
 5583TIP3    H238309   6.561   0.106   0.697
 5584TIP3   OH238310   1.628   6.315   0.466
 5584TIP3    H138311   1.719   6.286   0.475
 5584TIP3    H238312   1.631   6.381   0.397
 5585TIP3   OH238313   2.838   1.458   7.180
 5585TIP3    H138314   2.746   1.482   7.182
 5585TIP3    H238315   2.884   1.539   7.203
 5586TIP3   OH238316   0.353   1.467   2.129
 5586TIP3    H138317   0.407   1.488   2.205
 5586TIP3    H238318   0.315   1.550   2.102
 5587TIP3   OH238319   3.571   1.536   6.565
 5587TIP3    H138320   3.638   1.594   6.602
 5587TIP3    H238321   3.618   1.481   6.503
 5588TIP3   OH238322   2.230   4.507   6.669
 5588TIP3    H138323   2.306   4.510   6.611
 5588TIP3    H238324   2.213   4.413   6.681
 5589TIP3   OH238325   0.295   2.986   6.682
 5589TIP3    H138326   0.332   3.045   6.617
 5589TIP3    H238327   0.336   3.013   6.765
 5590TIP3   OH238328   1.416   5.009   1.381
 5590TIP3    H138329   1.405   4.947   1.453
 5590TIP3    H238330   1.328   5.025   1.348
 5591TIP3   OH238331   1.554   0.442   7.312
 5591TIP3    H138332   1.484   0.469   7.253
 5591TIP3    H238333   1.514   0.373   7.366
 5592TIP3   OH238334   0.771   1.185   1.193
 5592TIP3    H138335   0.687   1.190   1.148
 5592TIP3    H238336   0.826   1.130   1.137
 5593TIP3   OH238337   2.207   0.070   1.467
 5593TIP3    H138338   2.234   0.043   1.379
 5593TIP3    H238339   2.199   6.888   1.515
 5594TIP3   OH238340   4.749   5.913   0.305
 5594TIP3    H138341   4.761   5.999   0.266
 5594TIP3    H238342   4.791   5.919   0.391
 5595TIP3   OH238343   3.934   0.898   2.695
 5595TIP3    H138344   3.897   0.837   2.631
 5595TIP3    H238345   3.857   0.941   2.733
 5596TIP3   OH238346   6.690   6.182   7.970
 5596TIP3    H138347   6.714   6.213   8.057
 5596TIP3    H238348   6.597   6.201   7.962
 5597TIP3   OH238349   1.342   1.271   1.151
 5597TIP3    H138350   1.302   1.356   1.169
 5597TIP3    H238351   1.361   1.235   1.237
 5598TIP3   OH238352   3.260   3.659   0.461
 5598TIP3    H138353   3.234   3.747   0.433
 5598TIP3    H238354   3.291   3.616   0.382
 5599TIP3   OH238355   0.128   1.193   1.553
 5599TIP3    H138356   0.099   1.242   1.630
 5599TIP3    H238357   0.108   1.249   1.479
 5600TIP3   OH238358   3.072   3.906   2.111
 5600TIP3    H138359   3.141   3.867   2.058
 5600TIP3    H238360   3.091   4.000   2.110
 5601TIP3   OH238361   5.506   1.767   0.390
 5601TIP3    H138362   5.535   1.849   0.349
 5601TIP3    H238363   5.585   1.716   0.402
 5602TIP3   OH238364   5.227   6.427   0.630
 5602TIP3    H138365   5.171   6.396   0.702
 5602TIP3    H238366   5.200   6.375   0.555
 5603TIP3   OH238367   6.432   2.591   6.176
 5603TIP3    H138368   6.488   2.576   6.100
 5603TIP3    H238369   6.378   2.666   6.153
 5604TIP3   OH238370   5.985   2.516   8.183
 5604TIP3    H138371   6.019   2.511   8.093
 5604TIP3    H238372   5.930   2.594   8.183
 5605TIP3   OH238373   3.482   3.899   1.988
 5605TIP3    H138374   3.397   3.857   1.972
 5605TIP3    H238375   3.461   3.992   1.996
 5606TIP3   OH238376   3.854   3.835   1.506
 5606TIP3    H138377   3.899   3.833   1.590
 5606TIP3    H238378   3.869   3.748   1.469
 5607TIP3   OH238379   3.056   3.250   1.118
 5607TIP3    H138380   3.002   3.242   1.039
 5607TIP3    H238381   3.100   3.165   1.126
 5608TIP3   OH238382   4.189   2.250   0.072
 5608TIP3    H138383   4.207   2.213   8.605
 5608TIP3    H238384   4.118   2.196   0.107
 5609TIP3   OH238385   3.473   0.986   6.938
 5609TIP3    H138386   3.507   0.901   6.909
 5609TIP3    H238387   3.544   1.025   6.988
 5610TIP3   OH238388   0.789   1.214   8.082
 5610TIP3    H138389   0.774   1.273   8.156
 5610TIP3    H238390   0.713   1.227   8.025
 5611TIP3   OH238391   4.073   6.469   8.411
 5611TIP3    H138392   4.077   6.533   8.341
 5611TIP3    H238393   4.114   6.390   8.374
 5612TIP3   OH238394   6.484   6.457   7.187
 5612TIP3    H138395   6.532   6.377   7.210
 5612TIP3    H238396   6.477   6.455   7.092
 5613TIP3   OH238397   1.571   5.501   0.629
 5613TIP3    H138398   1.630   5.512   0.703
 5613TIP3    H238399   1.621   5.531   0.553
 5614TIP3   OH238400   2.080   0.381   1.995
 5614TIP3    H138401   2.021   0.435   1.941
 5614TIP3    H238402   2.065   0.292   1.964
 5615TIP3   OH238403   4.696   2.591   0.083
 5615TIP3    H138404   4.733   2.614   0.168
 5615TIP3    H238405   4.659   2.504   0.096
 5616TIP3   OH238406   6.146   3.709   7.167
 5616TIP3    H138407   6.185   3.767   7.101
 5616TIP3    H238408   6.088   3.652   7.117
 5617TIP3   OH238409   4.604   1.304   1.564
 5617TIP3    H138410   4.605   1.285   1.657
 5617TIP3    H238411   4.640   1.225   1.523
 5618TIP3   OH238412   6.214   1.080   8.023
 5618TIP3    H138413   6.248   1.101   7.936
 5618TIP3    H238414   6.124   1.114   8.022
 5619TIP3   OH238415   4.276   4.156   1.184
 5619TIP3    H138416   4.225   4.221   1.232
 5619TIP3    H238417   4.214   4.086   1.165
 5620TIP3   OH238418   1.815   0.969   6.795
 5620TIP3    H138419   1.829   1.063   6.803
 5620TIP3    H238420   1.770   0.945   6.876
 5621TIP3   OH238421   3.454   0.838   2.229
 5621TIP3    H138422   3.519   0.890   2.182
 5621TIP3    H238423   3.379   0.835   2.170
 5622TIP3   OH238424   2.915   5.016   2.365
 5622TIP3    H138425   2.880   5.071   2.434
 5622TIP3    H238426   2.973   5.074   2.315
 5623TIP3   OH238427   3.437   3.073   0.941
 5623TIP3    H138428   3.422   3.024   0.860
 5623TIP3    H238429   3.351   3.110   0.963
 5624TIP3   OH238430   0.793   3.704   1.694
 5624TIP3    H138431   0.832   3.708   1.607
 5624TIP3    H238432   0.706   3.668   1.680
 5625TIP3   OH238433   0.228   3.066   0.114
 5625TIP3    H138434   0.163   3.090   0.179
 5625TIP3    H238435   0.305   3.118   0.136
 5626TIP3   OH238436   3.598   3.727   7.278
 5626TIP3    H138437   3.693   3.726   7.291
 5626TIP3    H238438   3.568   3.645   7.315
 5627TIP3   OH238439   5.484   2.099   1.321
 5627TIP3    H138440   5.393   2.129   1.323
 5627TIP3    H238441   5.532   2.173   1.285
 5628TIP3   OH238442   1.763   6.546   0.860
 5628TIP3    H138443   1.671   6.574   0.849
 5628TIP3    H238444   1.794   6.532   0.771
 5629TIP3   OH238445   6.762   6.384   6.807
 5629TIP3    H138446   6.829   6.447   6.833
 5629TIP3    H238447   6.810   6.316   6.760
 5630TIP3   OH238448   5.400   1.179   6.784
 5630TIP3    H138449   5.312   1.173   6.822
 5630TIP3    H238450   5.386   1.220   6.698
 5631TIP3   OH238451   6.816   6.611   0.813
 5631TIP3    H138452   0.001   6.577   0.785
 5631TIP3    H238453   6.758   6.535   0.813
 5632TIP3   OH238454   4.153   4.200   7.739
 5632TIP3    H138455   4.241   4.195   7.776
 5632TIP3    H238456   4.144   4.291   7.712
 5633TIP3   OH238457   6.827   2.478   1.567
 5633TIP3    H138458   6.759   2.453   1.505
 5633TIP3    H238459   6.807   2.427   1.646
 5634TIP3   OH238460   5.473   5.957   8.039
 5634TIP3    H138461   5.416   5.881   8.051
 5634TIP3    H238462   5.486   5.963   7.945
 5635TIP3   OH238463   2.103   2.564   7.951
 5635TIP3    H138464   2.132   2.655   7.943
 5635TIP3    H238465   2.160   2.515   7.892
 5636TIP3   OH238466   4.005   4.735   6.494
 5636TIP3    H138467   3.948   4.679   6.441
 5636TIP3    H238468   4.073   4.764   6.433
 5637TIP3   OH238469   2.317   4.627   1.231
 5637TIP3    H138470   2.342   4.719   1.235
 5637TIP3    H238471   2.377   4.583   1.292
 5638TIP3   OH238472   3.437   0.502   0.939
 5638TIP3    H138473   3.526   0.512   0.906
 5638TIP3    H238474   3.447   0.499   1.034
 5639TIP3   OH238475   6.513   5.321   7.680
 5639TIP3    H138476   6.534   5.280   7.764
 5639TIP3    H238477   6.594   5.315   7.630
 5640TIP3   OH238478   5.959   5.821   7.295
 5640TIP3    H138479   6.023   5.770   7.245
 5640TIP3    H238480   5.945   5.899   7.241
 5641TIP3   OH238481   1.413   4.278   6.265
 5641TIP3    H138482   1.335   4.332   6.276
 5641TIP3    H238483   1.419   4.263   6.171
 5642TIP3   OH238484   2.281   4.927   6.907
 5642TIP3    H138485   2.225   5.003   6.924
 5642TIP3    H238486   2.222   4.860   6.875
 5643TIP3   OH238487   1.639   0.845   6.984
 5643TIP3    H138488   1.550   0.813   6.966
 5643TIP3    H238489   1.680   0.774   7.033
 5644TIP3   OH238490   2.491   6.044   7.651
 5644TIP3    H138491   2.509   6.074   7.741
 5644TIP3    H238492   2.408   6.086   7.628
 5645TIP3   OH238493   0.605   4.592   8.086
 5645TIP3    H138494   0.564   4.660   8.140
 5645TIP3    H238495   0.561   4.600   8.001
 5646TIP3   OH238496   3.651   0.250   8.229
 5646TIP3    H138497   3.742   0.222   8.215
 5646TIP3    H238498   3.650   0.280   8.320
 5647TIP3   OH238499   5.995   2.667   0.896
 5647TIP3    H138500   5.962   2.597   0.840
 5647TIP3    H238501   6.088   2.672   0.875
 5648TIP3   OH238502   1.497   1.724   7.108
 5648TIP3    H138503   1.486   1.818   7.115
 5648TIP3    H238504   1.582   1.707   7.150
 5649TIP3   OH238505   5.596   1.292   7.804
 5649TIP3    H138506   5.596   1.246   7.888
 5649TIP3    H238507   5.641   1.232   7.744
 5650TIP3   OH238508   3.126   6.128   8.222
 5650TIP3    H138509   3.218   6.142   8.245
 5650TIP3    H238510   3.118   6.161   8.133
 5651TIP3   OH238511   6.840   3.266   0.811
 5651TIP3    H138512   6.762   3.212   0.821
 5651TIP3    H238513   6.830   3.308   0.725
 5652TIP3   OH238514   5.399   4.324   8.365
 5652TIP3    H138515   5.430   4.309   8.276
 5652TIP3    H238516   5.470   4.293   8.421
 5653TIP3   OH238517   1.803   1.481   7.914
 5653TIP3    H138518   1.894   1.510   7.918
 5653TIP3    H238519   1.807   1.395   7.874
 5654TIP3   OH238520   1.751   0.573   1.261
 5654TIP3    H138521   1.752   0.479   1.239
 5654TIP3    H238522   1.737   0.575   1.355
 5655TIP3   OH238523   3.605   3.484   8.496
 5655TIP3    H138524   3.623   3.409   8.439
 5655TIP3    H238525   3.672   3.479   8.564
 5656TIP3   OH238526   6.522   4.751   1.566
 5656TIP3    H138527   6.548   4.706   1.646
 5656TIP3    H238528   6.514   4.843   1.592
 5657TIP3   OH238529   4.941   4.391   1.475
 5657TIP3    H138530   4.987   4.471   1.501
 5657TIP3    H238531   5.002   4.348   1.415
 5658TIP3   OH238532   0.963   5.479   2.115
 5658TIP3    H138533   0.970   5.385   2.125
 5658TIP3    H238534   1.049   5.512   2.141
 5659TIP3   OH238535   3.744   5.485   0.807
 5659TIP3    H138536   3.711   5.415   0.864
 5659TIP3    H238537   3.829   5.454   0.778
 5660TIP3   OH238538   3.358   1.288   7.625
 5660TIP3    H138539   3.326   1.279   7.715
 5660TIP3    H238540   3.446   1.249   7.627
 5661TIP3   OH238541   3.439   6.389   6.730
 5661TIP3    H138542   3.345   6.398   6.712
 5661TIP3    H238543   3.475   6.476   6.712
 5662TIP3   OH238544   3.000   0.417   0.648
 5662TIP3    H138545   3.059   0.455   0.713
 5662TIP3    H238546   2.915   0.455   0.668
 5663TIP3   OH238547   3.715   6.652   2.223
 5663TIP3    H138548   3.641   6.659   2.283
 5663TIP3    H238549   3.710   6.730   2.169
 5664TIP3   OH238550   4.314   4.663   6.808
 5664TIP3    H138551   4.307   4.716   6.887
 5664TIP3    H238552   4.358   4.720   6.744
 5665TIP3   OH238553   0.575   2.045   1.973
 5665TIP3    H138554   0.602   2.101   2.046
 5665TIP3    H238555   0.482   2.026   1.991
 5666TIP3   OH238556   4.894   3.678   1.604
 5666TIP3    H138557   4.870   3.691   1.696
 5666TIP3    H238558   4.985   3.647   1.607
 5667TIP3   OH238559   4.976   1.922   7.591
 5667TIP3    H138560   5.054   1.929   7.537
 5667TIP3    H238561   5.005   1.878   7.670
 5668TIP3   OH238562   6.615   0.611   7.964
 5668TIP3    H138563   6.697   0.639   8.004
 5668TIP3    H238564   6.643   0.560   7.887
 5669TIP3   OH238565   0.516   6.285   0.611
 5669TIP3    H138566   0.584   6.237   0.657
 5669TIP3    H238567   0.525   6.258   0.519
 5670TIP3   OH238568   3.912   4.184   0.034
 5670TIP3    H138569   3.845   4.141   0.088
 5670TIP3    H238570   3.978   4.117   0.021
 5671TIP3   OH238571   4.224   0.464   8.577
 5671TIP3    H138572   4.288   0.474   8.506
 5671TIP3    H238573   4.274   0.478   0.037
 5672TIP3   OH238574   6.813   2.820   1.120
 5672TIP3    H138575   6.835   2.744   1.174
 5672TIP3    H238576   6.729   2.799   1.081
 5673TIP3   OH238577   6.167   2.856   0.378
 5673TIP3    H138578   6.122   2.862   0.462
 5673TIP3    H238579   6.101   2.821   0.318
 5674TIP3   OH238580   2.570   1.205   0.186
 5674TIP3    H138581   2.571   1.117   0.147
 5674TIP3    H238582   2.519   1.195   0.266
 5675TIP3   OH238583   6.468   5.406   0.616
 5675TIP3    H138584   6.513   5.478   0.661
 5675TIP3    H238585   6.534   5.337   0.610
 5676TIP3   OH238586   1.581   4.055   7.247
 5676TIP3    H138587   1.554   3.974   7.291
 5676TIP3    H238588   1.675   4.046   7.236
 5677TIP3   OH238589   0.744   3.006   0.372
 5677TIP3    H138590   0.794   2.929   0.399
 5677TIP3    H238591   0.689   2.975   0.300
 5678TIP3   OH238592   3.694   4.991   2.270
 5678TIP3    H138593   3.699   4.946   2.354
 5678TIP3    H238594   3.705   5.083   2.291
 5679TIP3   OH238595   4.694   3.701   0.820
 5679TIP3    H138596   4.670   3.636   0.886
 5679TIP3    H238597   4.651   3.670   0.740
 5680TIP3   OH238598   6.481   5.936   0.628
 5680TIP3    H138599   6.482   6.024   0.666
 5680TIP3    H238600   6.408   5.937   0.566
 5681TIP3   OH238601   5.699   5.602   7.314
 5681TIP3    H138602   5.697   5.652   7.395
 5681TIP3    H238603   5.642   5.527   7.331
 5682TIP3   OH238604   0.082   4.507   1.104
 5682TIP3    H138605   0.115   4.482   1.018
 5682TIP3    H238606   6.893   4.537   1.088
 5683TIP3   OH238607   3.831   5.822   1.298
 5683TIP3    H138608   3.824   5.843   1.205
 5683TIP3    H238609   3.748   5.853   1.335
 5684TIP3   OH238610   1.941   3.534   7.620
 5684TIP3    H138611   1.859   3.576   7.595
 5684TIP3    H238612   1.957   3.470   7.550
 5685TIP3   OH238613   5.778   4.631   0.093
 5685TIP3    H138614   5.737   4.669   0.016
 5685TIP3    H238615   5.787   4.704   0.154
 5686TIP3   OH238616   3.748   6.719   0.363
 5686TIP3    H138617   3.828   6.746   0.319
 5686TIP3    H238618   3.728   6.791   0.423
 5687TIP3   OH238619   5.182   0.068   8.385
 5687TIP3    H138620   5.093   0.099   8.403
 5687TIP3    H238621   5.232   0.148   8.371
 5688TIP3   OH238622   2.059   1.544   8.153
 5688TIP3    H138623   2.082   1.560   8.062
 5688TIP3    H238624   2.024   1.627   8.185
 5689TIP3   OH238625   5.208   5.872   0.453
 5689TIP3    H138626   5.275   5.822   0.407
 5689TIP3    H238627   5.197   5.951   0.401
 5690TIP3   OH238628   5.750   4.169   0.123
 5690TIP3    H138629   5.689   4.117   0.174
 5690TIP3    H238630   5.836   4.130   0.141
 5691TIP3   OH238631   3.097   0.202   7.403
 5691TIP3    H138632   3.163   0.271   7.406
 5691TIP3    H238633   3.141   0.128   7.362
 5692TIP3   OH238634   2.367   0.463   6.590
 5692TIP3    H138635   2.319   0.490   6.511
 5692TIP3    H238636   2.306   0.478   6.662
 5693TIP3   OH238637   4.008   6.760   2.131
 5693TIP3    H138638   3.945   6.832   2.134
 5693TIP3    H238639   3.954   6.682   2.118
 5694TIP3   OH238640   1.673   6.242   8.021
 5694TIP3    H138641   1.719   6.161   7.997
 5694TIP3    H238642   1.733   6.285   8.082
 5695TIP3   OH238643   1.591   6.179   6.593
 5695TIP3    H138644   1.498   6.164   6.578
 5695TIP3    H238645   1.605   6.153   6.685
 5696TIP3   OH238646   1.977   4.529   2.143
 5696TIP3    H138647   2.046   4.529   2.209
 5696TIP3    H238648   1.941   4.617   2.146
 5697TIP3   OH238649   5.781   3.402   0.907
 5697TIP3    H138650   5.710   3.465   0.917
 5697TIP3    H238651   5.837   3.417   0.983
 5698TIP3   OH238652   2.551   5.770   8.380
 5698TIP3    H138653   2.616   5.737   8.442
 5698TIP3    H238654   2.484   5.702   8.377
 5699TIP3   OH238655   5.966   1.139   6.928
 5699TIP3    H138656   6.051   1.161   6.968
 5699TIP3    H238657   5.989   1.100   6.844
 5700TIP3   OH238658   6.042   1.138   2.003
 5700TIP3    H138659   6.014   1.144   1.911
 5700TIP3    H238660   6.126   1.092   1.998
 5701TIP3   OH238661   4.415   0.107   1.140
 5701TIP3    H138662   4.327   0.080   1.169
 5701TIP3    H238663   4.399   0.159   1.062
 5702TIP3   OH238664   3.020   4.068   8.540
 5702TIP3    H138665   3.081   4.008   8.496
 5702TIP3    H238666   2.956   4.090   8.472
 5703TIP3   OH238667   4.409   5.374   0.064
 5703TIP3    H138668   4.352   5.332   8.619
 5703TIP3    H238669   4.350   5.422   0.121
 5704TIP3   OH238670   6.063   6.478   7.959
 5704TIP3    H138671   6.094   6.566   7.937
 5704TIP3    H238672   6.141   6.423   7.953
 5705TIP3   OH238673   5.925   1.589   8.288
 5705TIP3    H138674   5.943   1.525   8.219
 5705TIP3    H238675   5.875   1.541   8.354
 5706TIP3   OH238676   0.298   3.879   0.827
 5706TIP3    H138677   0.248   3.799   0.811
 5706TIP3    H238678   0.378   3.868   0.776
 5707TIP3   OH238679   1.485   5.373   8.451
 5707TIP3    H138680   1.477   5.277   8.451
 5707TIP3    H238681   1.566   5.390   8.402
 5708TIP3   OH238682   4.117   1.935   7.208
 5708TIP3    H138683   4.159   1.865   7.257
 5708TIP3    H238684   4.094   2.001   7.274
 5709TIP3   OH238685   1.290   0.936   1.400
 5709TIP3    H138686   1.272   0.942   1.306
 5709TIP3    H238687   1.327   0.848   1.411
 5710TIP3   OH238688   3.137   3.515   8.061
 5710TIP3    H138689   3.195   3.458   8.112
 5710TIP3    H238690   3.100   3.457   7.994
 5711TIP3   OH238691   5.112   6.310   2.397
 5711TIP3    H138692   5.098   6.392   2.351
 5711TIP3    H238693   5.160   6.255   2.334
 5712TIP3   OH238694   4.388   1.637   1.359
 5712TIP3    H138695   4.416   1.590   1.280
 5712TIP3    H238696   4.470   1.663   1.402
 5713TIP3   OH238697   1.256   6.486   1.005
 5713TIP3    H138698   1.163   6.461   1.003
 5713TIP3    H238699   1.300   6.415   0.958
 5714TIP3   OH238700   6.786   2.907   0.636
 5714TIP3    H138701   6.730   2.968   0.685
 5714TIP3    H238702   6.855   2.883   0.697
 5715TIP3   OH238703   0.761   2.969   7.118
 5715TIP3    H138704   0.732   2.879   7.131
 5715TIP3    H238705   0.852   2.969   7.147
 5716TIP3   OH238706   1.791   4.532   6.774
 5716TIP3    H138707   1.726   4.602   6.778
 5716TIP3    H238708   1.871   4.574   6.744
 5717TIP3   OH238709   1.314   1.831   0.155
 5717TIP3    H138710   1.330   1.859   0.065
 5717TIP3    H238711   1.369   1.889   0.208
 5718TIP3   OH238712   0.875   4.847   2.067
 5718TIP3    H138713   0.786   4.874   2.088
 5718TIP3    H238714   0.916   4.830   2.152
 5719TIP3   OH238715   2.048   5.187   7.552
 5719TIP3    H138716   1.962   5.201   7.513
 5719TIP3    H238717   2.103   5.158   7.480
 5720TIP3   OH238718   0.413   0.706   6.725
 5720TIP3    H138719   0.384   0.703   6.816
 5720TIP3    H238720   0.362   0.639   6.681
 5721TIP3   OH238721   4.552   1.194   8.377
 5721TIP3    H138722   4.571   1.286   8.395
 5721TIP3    H238723   4.638   1.151   8.378
 5722TIP3   OH238724   5.907   6.012   7.127
 5722TIP3    H138725   5.833   6.002   7.068
 5722TIP3    H238726   5.907   6.106   7.149
 5723TIP3   OH238727   3.412   2.685   8.361
 5723TIP3    H138728   3.427   2.601   8.317
 5723TIP3    H238729   3.320   2.682   8.388
 5724TIP3   OH238730   2.700   5.352   8.053
 5724TIP3    H138731   2.727   5.426   7.998
 5724TIP3    H238732   2.639   5.389   8.116
 5725TIP3   OH238733   0.861   3.104   0.138
 5725TIP3    H138734   0.945   3.058   0.144
 5725TIP3    H238735   0.819   3.089   0.223
 5726TIP3   OH238736   3.486   5.440   0.645
 5726TIP3    H138737   3.484   5.519   0.699
 5726TIP3    H238738   3.565   5.394   0.674
 5727TIP3   OH238739   6.258   0.783   0.884
 5727TIP3    H138740   6.254   0.832   0.802
 5727TIP3    H238741   6.203   0.706   0.869
 5728TIP3   OH238742   5.771   6.574   6.932
 5728TIP3    H138743   5.849   6.624   6.907
 5728TIP3    H238744   5.800   6.483   6.933
 5729TIP3   OH238745   4.026   0.310   7.322
 5729TIP3    H138746   3.999   0.315   7.413
 5729TIP3    H238747   3.968   0.373   7.277
 5730TIP3   OH238748   2.023   0.691   6.280
 5730TIP3    H138749   1.960   0.732   6.339
 5730TIP3    H238750   2.062   0.765   6.232
 5731TIP3   OH238751   6.719   0.957   6.395
 5731TIP3    H138752   6.711   0.877   6.343
 5731TIP3    H238753   6.649   1.014   6.362
 5732TIP3   OH238754   0.663   4.041   0.997
 5732TIP3    H138755   0.615   4.110   1.044
 5732TIP3    H238756   0.702   3.987   1.065
 5733TIP3   OH238757   6.770   1.006   0.473
 5733TIP3    H138758   6.722   0.975   0.396
 5733TIP3    H238759   6.820   1.081   0.441
 5734TIP3   OH238760   2.634   4.740   1.473
 5734TIP3    H138761   2.702   4.674   1.465
 5734TIP3    H238762   2.593   4.723   1.558
 5735TIP3   OH238763   4.539   0.001   7.290
 5735TIP3    H138764   4.489   6.845   7.231
 5735TIP3    H238765   4.519   6.868   7.378
 5736TIP3   OH238766   3.479   0.641   0.410
 5736TIP3    H138767   3.500   0.602   0.494
 5736TIP3    H238768   3.418   0.580   0.369
 5737TIP3   OH238769   5.189   6.144   1.688
 5737TIP3    H138770   5.214   6.069   1.743
 5737TIP3    H238771   5.173   6.215   1.750
 5738TIP3   OH238772   0.846   5.884   1.184
 5738TIP3    H138773   0.761   5.916   1.215
 5738TIP3    H238774   0.825   5.805   1.134
 5739TIP3   OH238775   5.014   2.449   8.117
 5739TIP3    H138776   5.102   2.413   8.105
 5739TIP3    H238777   5.004   2.512   8.046
 5740TIP3   OH238778   1.871   1.251   0.078
 5740TIP3    H138779   1.856   1.157   0.068
 5740TIP3    H238780   1.884   1.283   8.609
 5741TIP3   OH238781   0.980   0.770   8.097
 5741TIP3    H138782   0.995   0.781   8.190
 5741TIP3    H238783   0.894   0.808   8.081
 5742TIP3   OH238784   6.122   1.887   1.150
 5742TIP3    H138785   6.062   1.957   1.124
 5742TIP3    H238786   6.130   1.832   1.072
 5743TIP3   OH238787   5.440   5.306   7.825
 5743TIP3    H138788   5.436   5.261   7.910
 5743TIP3    H238789   5.434   5.399   7.847
 5744TIP3   OH238790   5.492   6.332   7.674
 5744TIP3    H138791   5.449   6.365   7.753
 5744TIP3    H238792   5.432   6.265   7.641
 5745TIP3   OH238793   1.848   0.190   0.503
 5745TIP3    H138794   1.850   0.158   0.593
 5745TIP3    H238795   1.903   0.268   0.504
 5746TIP3   OH238796   5.767   3.915   7.061
 5746TIP3    H138797   5.734   3.989   7.011
 5746TIP3    H238798   5.776   3.845   6.997
 5747TIP3   OH238799   2.676   1.380   0.960
 5747TIP3    H138800   2.770   1.394   0.971
 5747TIP3    H238801   2.638   1.402   1.045
 5748TIP3   OH238802   2.063   3.627   0.784
 5748TIP3    H138803   2.030   3.548   0.828
 5748TIP3    H238804   2.154   3.606   0.762
 5749TIP3   OH238805   0.781   4.908   1.387
 5749TIP3    H138806   0.857   4.881   1.335
 5749TIP3    H238807   0.779   5.003   1.379
 5750TIP3   OH238808   5.033   0.664   1.426
 5750TIP3    H138809   5.094   0.651   1.353
 5750TIP3    H238810   4.996   0.578   1.442
 5751TIP3   OH238811   3.739   4.023   1.263
 5751TIP3    H138812   3.772   4.090   1.322
 5751TIP3    H238813   3.722   4.068   1.181
 5752TIP3   OH238814   5.093   2.213   0.668
 5752TIP3    H138815   5.005   2.177   0.684
 5752TIP3    H238816   5.141   2.141   0.627
 5753TIP3   OH238817   2.057   6.685   7.156
 5753TIP3    H138818   2.057   6.756   7.221
 5753TIP3    H238819   1.976   6.638   7.172
 5754TIP3   OH238820   1.699   3.721   0.580
 5754TIP3    H138821   1.661   3.659   0.518
 5754TIP3    H238822   1.715   3.670   0.659
 5755TIP3   OH238823   6.325   6.805   1.967
 5755TIP3    H138824   6.347   6.715   1.992
 5755TIP3    H238825   6.360   6.859   2.037
 5756TIP3   OH238826   2.377   3.209   0.098
 5756TIP3    H138827   2.431   3.287   0.112
 5756TIP3    H238828   2.309   3.214   0.164
 5757TIP3   OH238829   2.990   6.693   1.489
 5757TIP3    H138830   2.932   6.644   1.431
 5757TIP3    H238831   3.068   6.710   1.436
 5758TIP3   OH238832   4.301   5.159   0.300
 5758TIP3    H138833   4.295   5.070   0.265
 5758TIP3    H238834   4.342   5.148   0.386
 5759TIP3   OH238835   4.119   5.433   1.954
 5759TIP3    H138836   4.146   5.425   2.046
 5759TIP3    H238837   4.023   5.432   1.957
 5760TIP3   OH238838   0.655   6.651   0.812
 5760TIP3    H138839   0.621   6.704   0.884
 5760TIP3    H238840   0.577   6.626   0.762
 5761TIP3   OH238841   0.149   0.116   7.635
 5761TIP3    H138842   0.240   0.100   7.610
 5761TIP3    H238843   0.142   0.078   7.723
 5762TIP3   OH238844   2.757   2.960   7.275
 5762TIP3    H138845   2.667   2.976   7.303
 5762TIP3    H238846   2.801   2.930   7.355
 5763TIP3   OH238847   4.235   5.960   7.059
 5763TIP3    H138848   4.311   6.012   7.034
 5763TIP3    H238849   4.161   6.019   7.049
 5764TIP3   OH238850   6.857   3.432   7.784
 5764TIP3    H138851   6.890   3.463   7.700
 5764TIP3    H238852   6.784   3.490   7.805
 5765TIP3   OH238853   3.357   1.034   1.767
 5765TIP3    H138854   3.313   0.949   1.765
 5765TIP3    H238855   3.286   1.098   1.769
 5766TIP3   OH238856   5.803   3.287   7.101
 5766TIP3    H138857   5.779   3.375   7.071
 5766TIP3    H238858   5.725   3.234   7.085
 5767TIP3   OH238859   1.250   3.463   1.014
 5767TIP3    H138860   1.297   3.523   1.071
 5767TIP3    H238861   1.162   3.501   1.007
 5768TIP3   OH238862   4.101   0.421   1.337
 5768TIP3    H138863   4.177   0.425   1.396
 5768TIP3    H238864   4.101   0.332   1.304
 5769TIP3   OH238865   5.934   4.665   1.546
 5769TIP3    H138866   5.944   4.751   1.587
 5769TIP3    H238867   5.960   4.679   1.455
 5770TIP3   OH238868   5.712   4.410   0.282
 5770TIP3    H138869   5.714   4.330   0.229
 5770TIP3    H238870   5.700   4.480   0.218
 5771TIP3   OH238871   1.710   1.197   1.413
 5771TIP3    H138872   1.728   1.104   1.399
 5771TIP3    H238873   1.619   1.201   1.441
 5772TIP3   OH238874   2.608   3.242   1.234
 5772TIP3    H138875   2.524   3.286   1.223
 5772TIP3    H238876   2.629   3.208   1.147
 5773TIP3   OH238877   0.374   2.145   0.965
 5773TIP3    H138878   0.402   2.055   0.947
 5773TIP3    H238879   0.429   2.172   1.039
 5774TIP3   OH238880   1.237   4.097   7.827
 5774TIP3    H138881   1.199   4.047   7.899
 5774TIP3    H238882   1.331   4.099   7.846
 5775TIP3   OH238883   5.274   0.169   2.533
 5775TIP3    H138884   5.285   0.262   2.518
 5775TIP3    H238885   5.195   0.146   2.485
 5776TIP3   OH238886   5.525   6.591   7.820
 5776TIP3    H138887   5.612   6.551   7.827
 5776TIP3    H238888   5.469   6.539   7.878
 5777TIP3   OH238889   6.571   4.826   6.052
 5777TIP3    H138890   6.612   4.741   6.039
 5777TIP3    H238891   6.605   4.857   6.136
 5778TIP3   OH238892   6.667   5.436   0.984
 5778TIP3    H138893   6.669   5.484   0.901
 5778TIP3    H238894   6.585   5.387   0.982
 5779TIP3   OH238895   0.208   1.896   0.520
 5779TIP3    H138896   0.240   1.866   0.435
 5779TIP3    H238897   0.116   1.917   0.505
 5780TIP3   OH238898   3.731   6.898   7.847
 5780TIP3    H138899   3.698   6.864   7.764
 5780TIP3    H238900   3.719   6.826   7.909
 5781TIP3   OH238901   0.537   1.417   0.606
 5781TIP3    H138902   0.563   1.498   0.563
 5781TIP3    H238903   0.562   1.348   0.544
 5782TIP3   OH238904   3.265   1.598   1.325
 5782TIP3    H138905   3.328   1.579   1.395
 5782TIP3    H238906   3.263   1.519   1.272
 5783TIP3   OH238907   6.341   3.805   7.365
 5783TIP3    H138908   6.293   3.763   7.293
 5783TIP3    H238909   6.383   3.880   7.324
 5784TIP3   OH238910   5.745   4.404   1.788
 5784TIP3    H138911   5.810   4.463   1.827
 5784TIP3    H238912   5.746   4.327   1.844
 5785TIP3   OH238913   6.042   1.352   1.358
 5785TIP3    H138914   6.016   1.395   1.277
 5785TIP3    H238915   6.133   1.378   1.371
 5786TIP3   OH238916   0.390   1.568   7.006
 5786TIP3    H138917   0.423   1.635   6.946
 5786TIP3    H238918   0.457   1.500   7.006
 5787TIP3   OH238919   4.877   1.801   7.382
 5787TIP3    H138920   4.897   1.865   7.450
 5787TIP3    H238921   4.839   1.853   7.311
 5788TIP3   OH238922   2.149   0.263   5.977
 5788TIP3    H138923   2.104   0.347   5.966
 5788TIP3    H238924   2.241   0.283   5.962
 5789TIP3   OH238925   0.328   6.880   0.624
 5789TIP3    H138926   0.328   6.794   0.582
 5789TIP3    H238927   0.421   0.003   0.633
 5790TIP3   OH238928   6.559   0.961   6.044
 5790TIP3    H138929   6.578   0.878   6.089
 5790TIP3    H238930   6.492   0.938   5.979
 5791TIP3   OH238931   2.801   2.619   1.971
 5791TIP3    H138932   2.796   2.713   1.951
 5791TIP3    H238933   2.717   2.598   2.010
 5792TIP3   OH238934   3.246   1.161   6.589
 5792TIP3    H138935   3.158   1.138   6.557
 5792TIP3    H238936   3.260   1.250   6.558
 5793TIP3   OH238937   0.310   4.144   0.791
 5793TIP3    H138938   0.298   4.055   0.825
 5793TIP3    H238939   0.223   4.184   0.797
 5794TIP3   OH238940   2.529   4.888   8.215
 5794TIP3    H138941   2.535   4.877   8.309
 5794TIP3    H238942   2.615   4.919   8.188
 5795TIP3   OH238943   5.141   3.195   7.094
 5795TIP3    H138944   5.059   3.162   7.131
 5795TIP3    H238945   5.136   3.173   7.001
 5796TIP3   OH238946   2.371   4.006   0.570
 5796TIP3    H138947   2.280   4.035   0.577
 5796TIP3    H238948   2.381   3.980   0.479
 5797TIP3   OH238949   0.328   3.465   6.988
 5797TIP3    H138950   0.335   3.394   7.052
 5797TIP3    H238951   0.355   3.425   6.905
 5798TIP3   OH238952   6.648   6.275   5.907
 5798TIP3    H138953   6.704   6.251   5.833
 5798TIP3    H238954   6.617   6.191   5.942
 5799TIP3   OH238955   0.012   5.554   6.692
 5799TIP3    H138956   0.032   5.632   6.639
 5799TIP3    H238957   0.061   5.567   6.773
 5800TIP3   OH238958   6.873   5.204   0.967
 5800TIP3    H138959   6.789   5.222   1.009
 5800TIP3    H238960   0.002   5.121   1.006
 5801TIP3   OH238961   0.790   4.808   7.782
 5801TIP3    H138962   0.823   4.770   7.701
 5801TIP3    H238963   0.729   4.743   7.817
 5802TIP3   OH238964   0.567   0.429   1.794
 5802TIP3    H138965   0.552   0.440   1.888
 5802TIP3    H238966   0.639   0.367   1.789
 5803TIP3   OH238967   1.852   2.515   7.555
 5803TIP3    H138968   1.934   2.501   7.508
 5803TIP3    H238969   1.857   2.456   7.630
 5804TIP3   OH238970   3.184   1.893   2.334
 5804TIP3    H138971   3.240   1.925   2.263
 5804TIP3    H238972   3.244   1.859   2.400
 5805TIP3   OH238973   1.970   3.093   7.599
 5805TIP3    H138974   1.923   3.015   7.571
 5805TIP3    H238975   1.945   3.105   7.691
 5806TIP3   OH238976   0.848   6.125   2.128
 5806TIP3    H138977   0.891   6.196   2.176
 5806TIP3    H238978   0.778   6.169   2.079
 5807TIP3   OH238979   3.924   0.821   1.452
 5807TIP3    H138980   3.982   0.746   1.460
 5807TIP3    H238981   3.837   0.783   1.442
 5808TIP3   OH238982   2.590   4.381   8.325
 5808TIP3    H138983   2.585   4.425   8.240
 5808TIP3    H238984   2.604   4.452   8.388
 5809TIP3   OH238985   6.717   0.944   7.834
 5809TIP3    H138986   6.750   0.873   7.889
 5809TIP3    H238987   6.632   0.914   7.804
 5810TIP3   OH238988   6.290   1.754   6.597
 5810TIP3    H138989   6.377   1.794   6.597
 5810TIP3    H238990   6.243   1.796   6.525
 5811TIP3   OH238991   5.355   5.219   1.850
 5811TIP3    H138992   5.425   5.194   1.910
 5811TIP3    H238993   5.371   5.312   1.831
 5812TIP3   OH238994   3.021   5.411   2.605
 5812TIP3    H138995   3.057   5.440   2.689
 5812TIP3    H238996   3.098   5.388   2.553
 5813TIP3   OH238997   0.488   4.585   7.390
 5813TIP3    H138998   0.499   4.680   7.378
 5813TIP3    H238999   0.525   4.567   7.476
 5814TIP3   OH239000   0.765   2.622   6.905
 5814TIP3    H139001   0.698   2.631   6.837
 5814TIP3    H239002   0.839   2.673   6.873
 5815TIP3   OH239003   3.597   4.712   7.210
 5815TIP3    H139004   3.582   4.736   7.301
 5815TIP3    H239005   3.562   4.623   7.203
 5816TIP3   OH239006   6.660   4.387   0.212
 5816TIP3    H139007   6.599   4.321   0.179
 5816TIP3    H239008   6.696   4.348   0.292
 5817TIP3   OH239009   0.937   6.186   7.948
 5817TIP3    H139010   0.866   6.137   7.989
 5817TIP3    H239011   1.003   6.195   8.017
 5818TIP3   OH239012   1.656   4.670   1.445
 5818TIP3    H139013   1.625   4.627   1.365
 5818TIP3    H239014   1.608   4.627   1.516
 5819TIP3   OH239015   5.175   2.884   7.735
 5819TIP3    H139016   5.120   2.812   7.703
 5819TIP3    H239017   5.226   2.910   7.658
 5820TIP3   OH239018   1.077   0.360   6.159
 5820TIP3    H139019   1.141   0.304   6.115
 5820TIP3    H239020   1.024   0.396   6.088
 5821TIP3   OH239021   3.658   4.096   7.502
 5821TIP3    H139022   3.685   4.005   7.489
 5821TIP3    H239023   3.690   4.141   7.424
 5822TIP3   OH239024   4.609   0.506   8.435
 5822TIP3    H139025   4.656   0.539   8.511
 5822TIP3    H239026   4.543   0.572   8.415
 5823TIP3   OH239027   1.865   3.383   1.996
 5823TIP3    H139028   1.961   3.377   2.001
 5823TIP3    H239029   1.847   3.406   1.905
 5824TIP3   OH239030   4.434   5.603   2.295
 5824TIP3    H139031   4.391   5.526   2.258
 5824TIP3    H239032   4.407   5.604   2.387
 5825TIP3   OH239033   0.079   3.826   7.241
 5825TIP3    H139034   0.077   3.756   7.176
 5825TIP3    H239035   0.136   3.892   7.202
 5826TIP3   OH239036   6.515   1.326   8.540
 5826TIP3    H139037   6.558   1.254   8.494
 5826TIP3    H239038   6.533   1.403   8.486
 5827TIP3   OH239039   0.394   4.216   1.867
 5827TIP3    H139040   0.472   4.255   1.906
 5827TIP3    H239041   0.325   4.281   1.878
 5828TIP3   OH239042   1.720   6.868   0.427
 5828TIP3    H139043   1.777   0.026   0.477
 5828TIP3    H239044   1.721   0.003   0.338
 5829TIP3   OH239045   1.909   1.986   7.178
 5829TIP3    H139046   1.951   1.918   7.126
 5829TIP3    H239047   1.981   2.036   7.215
 5830TIP3   OH239048   1.482   4.172   7.022
 5830TIP3    H139049   1.531   4.127   7.091
 5830TIP3    H239050   1.546   4.228   6.978
 5831TIP3   OH239051   4.644   6.418   6.752
 5831TIP3    H139052   4.682   6.487   6.807
 5831TIP3    H239053   4.699   6.417   6.674
 5832TIP3   OH239054   1.407   6.687   0.392
 5832TIP3    H139055   1.336   6.733   0.438
 5832TIP3    H239056   1.456   6.756   0.348
 5833TIP3   OH239057   6.577   5.365   1.573
 5833TIP3    H139058   6.639   5.373   1.645
 5833TIP3    H239059   6.604   5.432   1.510
 5834TIP3   OH239060   2.357   6.538   1.449
 5834TIP3    H139061   2.402   6.485   1.516
 5834TIP3    H239062   2.282   6.575   1.495
 5835TIP3   OH239063   2.419   3.895   7.246
 5835TIP3    H139064   2.343   3.911   7.191
 5835TIP3    H239065   2.390   3.921   7.334
 5836TIP3   OH239066   6.066   4.648   8.475
 5836TIP3    H139067   6.066   4.553   8.471
 5836TIP3    H239068   6.050   4.668   8.568
 5837TIP3   OH239069   1.779   4.516   8.306
 5837TIP3    H139070   1.753   4.545   8.218
 5837TIP3    H239071   1.868   4.482   8.294
 5838TIP3   OH239072   4.566   0.715   0.880
 5838TIP3    H139073   4.489   0.711   0.936
 5838TIP3    H239074   4.618   0.639   0.906
 5839TIP3   OH239075   1.508   2.083   7.812
 5839TIP3    H139076   1.505   2.005   7.757
 5839TIP3    H239077   1.541   2.152   7.754
 5840TIP3   OH239078   0.091   3.633   8.305
 5840TIP3    H139079   0.131   3.710   8.265
 5840TIP3    H239080   0.075   3.658   8.396
 5841TIP3   OH239081   6.245   6.129   8.415
 5841TIP3    H139082   6.230   6.035   8.417
 5841TIP3    H239083   6.337   6.140   8.437
 5842TIP3   OH239084   1.821   3.401   1.731
 5842TIP3    H139085   1.768   3.428   1.656
 5842TIP3    H239086   1.809   3.306   1.736
 5843TIP3   OH239087   6.629   0.051   1.552
 5843TIP3    H139088   6.713   0.079   1.589
 5843TIP3    H239089   6.572   0.040   1.627
 5844TIP3   OH239090   5.803   0.688   7.262
 5844TIP3    H139091   5.846   0.760   7.217
 5844TIP3    H239092   5.724   0.671   7.212
 5845TIP3   OH239093   4.668   1.252   6.723
 5845TIP3    H139094   4.683   1.321   6.659
 5845TIP3    H239095   4.589   1.207   6.692
 5846TIP3   OH239096   0.792   5.030   7.199
 5846TIP3    H139097   0.807   5.042   7.106
 5846TIP3    H239098   0.782   4.935   7.210
 5847TIP3   OH239099   3.585   1.825   6.816
 5847TIP3    H139100   3.626   1.760   6.759
 5847TIP3    H239101   3.654   1.887   6.836
 5848TIP3   OH239102   5.914   5.739   7.758
 5848TIP3    H139103   5.865   5.809   7.715
 5848TIP3    H239104   5.866   5.659   7.737
 5849TIP3   OH239105   6.045   0.275   7.554
 5849TIP3    H139106   6.107   0.269   7.627
 5849TIP3    H239107   6.058   0.194   7.504
 5850TIP3   OH239108   0.199   0.004   1.136
 5850TIP3    H139109   0.172   6.857   1.058
 5850TIP3    H239110   0.227   0.090   1.104
 5851TIP3   OH239111   3.201   6.066   2.466
 5851TIP3    H139112   3.284   6.032   2.434
 5851TIP3    H239113   3.156   6.097   2.388
 5852TIP3   OH239114   1.656   5.554   1.270
 5852TIP3    H139115   1.703   5.626   1.227
 5852TIP3    H239116   1.688   5.555   1.361
 5853TIP3   OH239117   4.528   5.164   2.452
 5853TIP3    H139118   4.530   5.186   2.358
 5853TIP3    H239119   4.436   5.178   2.477
 5854TIP3   OH239120   3.674   3.451   0.847
 5854TIP3    H139121   3.713   3.421   0.765
 5854TIP3    H239122   3.658   3.370   0.897
 5855TIP3   OH239123   1.734   6.679   7.559
 5855TIP3    H139124   1.677   6.657   7.485
 5855TIP3    H239125   1.806   6.617   7.553
 5856TIP3   OH239126   1.356   3.568   6.389
 5856TIP3    H139127   1.446   3.561   6.423
 5856TIP3    H239128   1.330   3.478   6.372
 5857TIP3   OH239129   5.874   6.360   1.638
 5857TIP3    H139130   5.927   6.348   1.559
 5857TIP3    H239131   5.824   6.278   1.646
 5858TIP3   OH239132   2.613   3.549   6.291
 5858TIP3    H139133   2.522   3.544   6.320
 5858TIP3    H239134   2.638   3.457   6.278
 5859TIP3   OH239135   5.811   4.128   0.755
 5859TIP3    H139136   5.832   4.180   0.678
 5859TIP3    H239137   5.883   4.066   0.763
 5860TIP3   OH239138   2.483   4.729   7.577
 5860TIP3    H139139   2.430   4.762   7.505
 5860TIP3    H239140   2.529   4.653   7.541
 5861TIP3   OH239141   1.323   5.588   0.063
 5861TIP3    H139142   1.373   5.612   8.604
 5861TIP3    H239143   1.248   5.648   0.063
 5862TIP3   OH239144   6.877   2.145   7.383
 5862TIP3    H139145   6.797   2.170   7.338
 5862TIP3    H239146   6.850   2.124   7.472
 5863TIP3   OH239147   5.096   2.400   0.877
 5863TIP3    H139148   5.054   2.348   0.946
 5863TIP3    H239149   5.098   2.341   0.802
 5864TIP3   OH239150   2.612   6.084   1.031
 5864TIP3    H139151   2.602   5.993   1.004
 5864TIP3    H239152   2.660   6.081   1.113
 5865TIP3   OH239153   0.404   0.884   7.980
 5865TIP3    H139154   0.389   0.916   7.891
 5865TIP3    H239155   0.473   0.818   7.970
 5866TIP3   OH239156   5.053   4.842   7.280
 5866TIP3    H139157   5.129   4.783   7.286
 5866TIP3    H239158   5.078   4.905   7.212
 5867TIP3   OH239159   4.405   1.224   2.091
 5867TIP3    H139160   4.381   1.274   2.012
 5867TIP3    H239161   4.458   1.285   2.142
 5868TIP3   OH239162   2.243   5.368   7.649
 5868TIP3    H139163   2.184   5.302   7.615
 5868TIP3    H239164   2.330   5.341   7.620
 5869TIP3   OH239165   0.486   3.860   6.476
 5869TIP3    H139166   0.410   3.865   6.418
 5869TIP3    H239167   0.552   3.916   6.433
 5870TIP3   OH239168   6.658   1.618   8.114
 5870TIP3    H139169   6.722   1.672   8.067
 5870TIP3    H239170   6.574   1.643   8.076
 5871TIP3   OH239171   1.534   6.026   0.386
 5871TIP3    H139172   1.498   6.005   0.472
 5871TIP3    H239173   1.527   6.121   0.380
 5872TIP3   OH239174   0.299   2.321   0.762
 5872TIP3    H139175   0.310   2.258   0.691
 5872TIP3    H239176   0.335   2.277   0.839
 5873TIP3   OH239177   2.374   5.304   0.241
 5873TIP3    H139178   2.291   5.274   0.280
 5873TIP3    H239179   2.358   5.301   0.147
 5874TIP3   OH239180   1.672   5.816   0.034
 5874TIP3    H139181   1.603   5.882   0.043
 5874TIP3    H239182   1.736   5.839   0.102
 5875TIP3   OH239183   4.095   5.815   1.595
 5875TIP3    H139184   4.126   5.768   1.672
 5875TIP3    H239185   4.174   5.855   1.558
 5876TIP3   OH239186   6.163   0.723   0.606
 5876TIP3    H139187   6.194   0.639   0.638
 5876TIP3    H239188   6.174   0.719   0.511
 5877TIP3   OH239189   4.223   0.473   6.500
 5877TIP3    H139190   4.189   0.509   6.418
 5877TIP3    H239191   4.181   0.524   6.569
 5878TIP3   OH239192   4.397   5.540   6.545
 5878TIP3    H139193   4.423   5.548   6.453
 5878TIP3    H239194   4.437   5.457   6.574
 5879TIP3   OH239195   1.747   6.509   0.251
 5879TIP3    H139196   1.714   6.551   0.171
 5879TIP3    H239197   1.839   6.534   0.256
 5880TIP3   OH239198   4.309   0.139   7.687
 5880TIP3    H139199   4.312   0.136   7.783
 5880TIP3    H239200   4.307   0.232   7.667
 5881TIP3   OH239201   3.644   3.218   0.995
 5881TIP3    H139202   3.562   3.173   0.972
 5881TIP3    H239203   3.672   3.175   1.076
 5882TIP3   OH239204   5.034   3.258   0.426
 5882TIP3    H139205   5.084   3.289   0.350
 5882TIP3    H239206   5.048   3.326   0.493
 5883TIP3   OH239207   1.421   4.830   7.878
 5883TIP3    H139208   1.383   4.779   7.806
 5883TIP3    H239209   1.515   4.828   7.862
 5884TIP3   OH239210   6.140   2.035   8.342
 5884TIP3    H139211   6.198   1.960   8.327
 5884TIP3    H239212   6.124   2.071   8.255
 5885TIP3   OH239213   2.457   2.831   0.632
 5885TIP3    H139214   2.453   2.766   0.562
 5885TIP3    H239215   2.417   2.909   0.595
 5886TIP3   OH239216   5.206   2.897   1.806
 5886TIP3    H139217   5.160   2.954   1.868
 5886TIP3    H239218   5.243   2.827   1.860
 5887TIP3   OH239219   5.473   5.581   7.865
 5887TIP3    H139220   5.385   5.615   7.853
 5887TIP3    H239221   5.492   5.594   7.958
 5888TIP3   OH239222   4.981   1.892   8.405
 5888TIP3    H139223   4.993   1.896   8.499
 5888TIP3    H239224   4.899   1.938   8.389
 5889TIP3   OH239225   0.427   1.076   7.696
 5889TIP3    H139226   0.414   1.042   7.608
 5889TIP3    H239227   0.437   1.171   7.684
 5890TIP3   OH239228   4.235   0.092   0.719
 5890TIP3    H139229   4.234   0.120   0.810
 5890TIP3    H239230   4.304   0.026   0.715
 5891TIP3   OH239231   5.681   2.884   0.297
 5891TIP3    H139232   5.711   2.795   0.316
 5891TIP3    H239233   5.743   2.917   0.232
 5892TIP3   OH239234   1.382   4.816   0.698
 5892TIP3    H139235   1.414   4.771   0.776
 5892TIP3    H239236   1.424   4.903   0.703
 5893TIP3   OH239237   2.948   2.135   0.699
 5893TIP3    H139238   2.855   2.154   0.684
 5893TIP3    H239239   2.968   2.181   0.781
 5894TIP3   OH239240   2.162   6.581   2.313
 5894TIP3    H139241   2.092   6.545   2.259
 5894TIP3    H239242   2.160   6.675   2.295
 5895TIP3   OH239243   4.523   4.140   1.053
 5895TIP3    H139244   4.431   4.115   1.061
 5895TIP3    H239245   4.566   4.062   1.016
 5896TIP3   OH239246   4.822   6.498   7.224
 5896TIP3    H139247   4.866   6.468   7.304
 5896TIP3    H239248   4.798   6.589   7.243
 5897TIP3   OH239249   4.672   5.386   0.456
 5897TIP3    H139250   4.586   5.421   0.478
 5897TIP3    H239251   4.687   5.414   0.365
 5898TIP3   OH239252   2.951   2.244   0.408
 5898TIP3    H139253   2.945   2.168   0.466
 5898TIP3    H239254   2.992   2.312   0.462
 5899TIP3   OH239255   0.576   3.685   8.163
 5899TIP3    H139256   0.509   3.617   8.162
 5899TIP3    H239257   0.603   3.695   8.072
 5900TIP3   OH239258   3.561   1.601   7.856
 5900TIP3    H139259   3.635   1.591   7.916
 5900TIP3    H239260   3.581   1.680   7.806
 5901TIP3   OH239261   6.114   0.655   7.138
 5901TIP3    H139262   6.081   0.692   7.056
 5901TIP3    H239263   6.050   0.681   7.204
 5902TIP3   OH239264   6.789   6.569   0.346
 5902TIP3    H139265   6.726   6.497   0.347
 5902TIP3    H239266   6.853   6.546   0.414
 5903TIP3   OH239267   6.593   1.114   8.371
 5903TIP3    H139268   6.643   1.115   8.290
 5903TIP3    H239269   6.638   1.051   8.427
 5904TIP3   OH239270   5.858   1.298   8.176
 5904TIP3    H139271   5.764   1.284   8.163
 5904TIP3    H239272   5.876   1.262   8.262
 5905TIP3   OH239273   6.544   2.436   5.899
 5905TIP3    H139274   6.606   2.456   5.969
 5905TIP3    H239275   6.596   2.387   5.835
 5906TIP3   OH239276   3.819   3.765   8.395
 5906TIP3    H139277   3.871   3.831   8.349
 5906TIP3    H239278   3.808   3.694   8.331
 5907TIP3   OH239279   6.430   1.129   2.337
 5907TIP3    H139280   6.479   1.049   2.320
 5907TIP3    H239281   6.436   1.179   2.256
 5908TIP3   OH239282   5.513   3.109   0.308
 5908TIP3    H139283   5.535   3.016   0.313
 5908TIP3    H239284   5.568   3.150   0.374
 5909TIP3   OH239285   5.623   2.639   0.792
 5909TIP3    H139286   5.551   2.662   0.733
 5909TIP3    H239287   5.616   2.544   0.803
 5910TIP3   OH239288   4.449   6.067   0.365
 5910TIP3    H139289   4.379   6.127   0.391
 5910TIP3    H239290   4.413   5.980   0.380
 5911TIP3   OH239291   3.974   2.160   0.197
 5911TIP3    H139292   3.960   2.255   0.199
 5911TIP3    H239293   3.958   2.131   0.287
 5912TIP3   OH239294   1.592   5.087   1.598
 5912TIP3    H139295   1.563   5.043   1.518
 5912TIP3    H239296   1.520   5.146   1.620
 5913TIP3   OH239297   6.385   4.888   0.761
 5913TIP3    H139298   6.477   4.915   0.757
 5913TIP3    H239299   6.336   4.970   0.758
 5914TIP3   OH239300   2.564   3.987   7.822
 5914TIP3    H139301   2.481   3.941   7.828
 5914TIP3    H239302   2.627   3.921   7.794
 5915TIP3   OH239303   1.322   0.205   8.488
 5915TIP3    H139304   1.238   0.189   8.529
 5915TIP3    H239305   1.303   0.268   8.418
 5916TIP3   OH239306   4.519   0.425   7.080
 5916TIP3    H139307   4.536   0.338   7.042
 5916TIP3    H239308   4.601   0.473   7.068
 5917TIP3   OH239309   0.346   3.089   8.479
 5917TIP3    H139310   0.298   3.065   8.558
 5917TIP3    H239311   0.438   3.079   8.502
 5918TIP3   OH239312   1.785   3.121   1.734
 5918TIP3    H139313   1.711   3.121   1.674
 5918TIP3    H239314   1.817   3.031   1.734
 5919TIP3   OH239315   0.989   1.095   1.560
 5919TIP3    H139316   0.968   1.070   1.650
 5919TIP3    H239317   0.980   1.191   1.560
 5920TIP3   OH239318   2.267   4.051   1.043
 5920TIP3    H139319   2.330   4.123   1.036
 5920TIP3    H239320   2.187   4.093   1.073
 5921TIP3   OH239321   3.202   0.794   1.715
 5921TIP3    H139322   3.127   0.854   1.709
 5921TIP3    H239323   3.182   0.738   1.790
 5922TIP3   OH239324   5.215   1.482   7.741
 5922TIP3    H139325   5.213   1.417   7.811
 5922TIP3    H239326   5.233   1.431   7.661
 5923TIP3   OH239327   2.525   2.502   7.663
 5923TIP3    H139328   2.582   2.507   7.586
 5923TIP3    H239329   2.492   2.591   7.673
 5924TIP3   OH239330   3.149   1.838   0.761
 5924TIP3    H139331   3.104   1.835   0.846
 5924TIP3    H239332   3.199   1.757   0.758
 5925TIP3   OH239333   2.415   0.195   7.222
 5925TIP3    H139334   2.477   0.139   7.269
 5925TIP3    H239335   2.382   0.256   7.288
 5926TIP3   OH239336   1.098   4.214   2.239
 5926TIP3    H139337   1.192   4.207   2.222
 5926TIP3    H239338   1.064   4.126   2.226
 5927TIP3   OH239339   5.489   6.572   8.399
 5927TIP3    H139340   5.522   6.486   8.424
 5927TIP3    H239341   5.558   6.633   8.427
 5928TIP3   OH239342   3.280   2.549   0.736
 5928TIP3    H139343   3.269   2.600   0.816
 5928TIP3    H239344   3.365   2.508   0.746
 5929TIP3   OH239345   2.070   5.026   7.799
 5929TIP3    H139346   2.133   5.056   7.865
 5929TIP3    H239347   2.095   5.073   7.719
 5930TIP3   OH239348   0.865   4.432   8.307
 5930TIP3    H139349   0.795   4.376   8.274
 5930TIP3    H239350   0.883   4.494   8.236
 5931TIP3   OH239351   1.453   0.741   1.357
 5931TIP3    H139352   1.544   0.768   1.356
 5931TIP3    H239353   1.451   0.662   1.302
 5932TIP3   OH239354   6.866   5.701   1.061
 5932TIP3    H139355   6.860   5.646   1.139
 5932TIP3    H239356   0.005   5.782   1.092
 5933TIP3   OH239357   6.345   2.116   8.044
 5933TIP3    H139358   6.417   2.097   8.104
 5933TIP3    H239359   6.292   2.180   8.091
 5934TIP3   OH239360   5.839   6.258   6.486
 5934TIP3    H139361   5.922   6.213   6.472
 5934TIP3    H239362   5.780   6.190   6.518
 5935TIP3   OH239363   0.582   1.168   1.005
 5935TIP3    H139364   0.534   1.115   0.941
 5935TIP3    H239365   0.645   1.217   0.953
 5936TIP3   OH239366   0.809   0.103   0.899
 5936TIP3    H139367   0.790   0.074   0.988
 5936TIP3    H239368   0.774   0.192   0.895
 5937TIP3   OH239369   2.046   5.673   6.663
 5937TIP3    H139370   2.015   5.718   6.742
 5937TIP3    H239371   2.117   5.729   6.630
 5938TIP3   OH239372   4.783   0.987   6.776
 5938TIP3    H139373   4.719   1.055   6.756
 5938TIP3    H239374   4.788   0.935   6.696
 5939TIP3   OH239375   5.302   4.431   7.642
 5939TIP3    H139376   5.220   4.403   7.602
 5939TIP3    H239377   5.286   4.428   7.736
 5940TIP3   OH239378   4.704   5.637   6.863
 5940TIP3    H139379   4.715   5.548   6.830
 5940TIP3    H239380   4.786   5.681   6.837
 5941TIP3   OH239381   0.705   2.946   0.663
 5941TIP3    H139382   0.682   2.981   0.577
 5941TIP3    H239383   0.780   2.888   0.646
 5942TIP3   OH239384   0.745   5.034   7.923
 5942TIP3    H139385   0.716   5.103   7.864
 5942TIP3    H239386   0.781   4.966   7.866
 5943TIP3   OH239387   6.764   1.757   5.998
 5943TIP3    H139388   6.684   1.804   5.974
 5943TIP3    H239389   6.780   1.781   6.089
 5944TIP3   OH239390   0.968   4.635   6.137
 5944TIP3    H139391   0.940   4.667   6.223
 5944TIP3    H239392   0.888   4.634   6.084
 5945TIP3   OH239393   3.011   4.287   2.243
 5945TIP3    H139394   2.931   4.305   2.193
 5945TIP3    H239395   3.057   4.371   2.245
 5946TIP3   OH239396   2.178   0.811   7.209
 5946TIP3    H139397   2.213   0.724   7.226
 5946TIP3    H239398   2.180   0.820   7.114
 5947TIP3   OH239399   3.233   2.463   7.575
 5947TIP3    H139400   3.235   2.401   7.649
 5947TIP3    H239401   3.322   2.461   7.540
 5948TIP3   OH239402   6.697   4.169   8.465
 5948TIP3    H139403   6.726   4.117   8.390
 5948TIP3    H239404   6.606   4.190   8.446
 5949TIP3   OH239405   0.574   0.097   6.549
 5949TIP3    H139406   0.495   0.049   6.524
 5949TIP3    H239407   0.559   0.123   6.640
 5950TIP3   OH239408   6.857   6.719   7.053
 5950TIP3    H139409   6.767   6.750   7.045
 5950TIP3    H239410   0.010   6.798   7.057
 5951TIP3   OH239411   5.888   2.397   7.311
 5951TIP3    H139412   5.831   2.462   7.352
 5951TIP3    H239413   5.864   2.399   7.219
 5952TIP3   OH239414   5.134   3.267   7.487
 5952TIP3    H139415   5.069   3.206   7.524
 5952TIP3    H239416   5.212   3.214   7.474
 5953TIP3   OH239417   0.113   1.188   0.415
 5953TIP3    H139418   0.148   1.259   0.359
 5953TIP3    H239419   0.093   1.231   0.498
 5954TIP3   OH239420   6.417   2.385   0.913
 5954TIP3    H139421   6.438   2.466   0.959
 5954TIP3    H239422   6.502   2.351   0.884
 5955TIP3   OH239423   1.759   1.496   0.423
 5955TIP3    H139424   1.680   1.537   0.456
 5955TIP3    H239425   1.822   1.503   0.495
 5956TIP3   OH239426   4.905   4.731   1.813
 5956TIP3    H139427   4.905   4.635   1.805
 5956TIP3    H239428   4.813   4.755   1.803
 5957TIP3   OH239429   6.437   0.818   7.891
 5957TIP3    H139430   6.445   0.870   7.971
 5957TIP3    H239431   6.486   0.738   7.908
 5958TIP3   OH239432   4.607   5.507   2.593
 5958TIP3    H139433   4.548   5.581   2.609
 5958TIP3    H239434   4.552   5.430   2.599
 5959TIP3   OH239435   2.302   6.272   1.339
 5959TIP3    H139436   2.394   6.245   1.337
 5959TIP3    H239437   2.303   6.361   1.374
 5960TIP3   OH239438   6.641   2.371   8.287
 5960TIP3    H139439   6.677   2.354   8.199
 5960TIP3    H239440   6.717   2.366   8.345
 5961TIP3   OH239441   3.407   5.694   1.022
 5961TIP3    H139442   3.413   5.690   0.927
 5961TIP3    H239443   3.381   5.784   1.041
 5962TIP3   OH239444   5.578   1.027   7.367
 5962TIP3    H139445   5.667   1.063   7.370
 5962TIP3    H239446   5.522   1.098   7.398
 5963TIP3   OH239447   6.673   6.705   1.430
 5963TIP3    H139448   6.653   6.798   1.433
 5963TIP3    H239449   6.741   6.697   1.363
 5964TIP3   OH239450   2.233   4.915   0.474
 5964TIP3    H139451   2.279   4.841   0.514
 5964TIP3    H239452   2.223   4.978   0.546
 5965TIP3   OH239453   2.241   1.513   6.698
 5965TIP3    H139454   2.292   1.441   6.659
 5965TIP3    H239455   2.285   1.592   6.668
 5966TIP3   OH239456   6.061   3.896   1.499
 5966TIP3    H139457   6.152   3.867   1.498
 5966TIP3    H239458   6.058   3.963   1.567
 5967TIP3   OH239459   3.382   1.791   0.461
 5967TIP3    H139460   3.397   1.882   0.435
 5967TIP3    H239461   3.377   1.743   0.378
 5968TIP3   OH239462   0.244   4.519   0.268
 5968TIP3    H139463   0.172   4.511   0.330
 5968TIP3    H239464   0.208   4.572   0.197
 5969TIP3   OH239465   6.721   4.409   8.221
 5969TIP3    H139466   6.749   4.317   8.222
 5969TIP3    H239467   6.792   4.455   8.176
 5970TIP3   OH239468   2.931   0.704   6.009
 5970TIP3    H139469   2.891   0.790   6.005
 5970TIP3    H239470   2.915   0.666   5.922
 5971TIP3   OH239471   2.861   0.793   7.254
 5971TIP3    H139472   2.807   0.726   7.213
 5971TIP3    H239473   2.799   0.862   7.279
 5972TIP3   OH239474   3.201   6.318   0.253
 5972TIP3    H139475   3.251   6.236   0.252
 5972TIP3    H239476   3.129   6.302   0.314
 5973TIP3   OH239477   3.608   5.513   1.153
 5973TIP3    H139478   3.535   5.565   1.118
 5973TIP3    H239479   3.598   5.427   1.112
 5974TIP3   OH239480   6.511   2.724   7.495
 5974TIP3    H139481   6.440   2.775   7.533
 5974TIP3    H239482   6.498   2.635   7.528
 5975TIP3   OH239483   2.159   3.795   1.143
 5975TIP3    H139484   2.226   3.861   1.125
 5975TIP3    H239485   2.077   3.836   1.117
 5976TIP3   OH239486   3.874   6.833   6.488
 5976TIP3    H139487   3.796   6.888   6.482
 5976TIP3    H239488   3.846   6.747   6.457
 5977TIP3   OH239489   1.477   6.828   1.529
 5977TIP3    H139490   1.456   6.818   1.621
 5977TIP3    H239491   1.432   6.755   1.486
 5978TIP3   OH239492   0.934   2.346   0.699
 5978TIP3    H139493   0.985   2.277   0.656
 5978TIP3    H239494   0.853   2.302   0.726
 5979TIP3   OH239495   2.648   2.321   1.154
 5979TIP3    H139496   2.698   2.247   1.119
 5979TIP3    H239497   2.603   2.358   1.078
 5980TIP3   OH239498   3.086   6.364   2.488
 5980TIP3    H139499   3.046   6.344   2.404
 5980TIP3    H239500   3.067   6.288   2.543
 5981TIP3   OH239501   1.703   6.878   6.450
 5981TIP3    H139502   1.674   6.788   6.434
 5981TIP3    H239503   1.662   0.028   6.380
 5982TIP3   OH239504   4.089   3.064   7.583
 5982TIP3    H139505   4.129   3.105   7.660
 5982TIP3    H239506   4.128   2.977   7.579
 5983TIP3   OH239507   5.153   2.935   0.156
 5983TIP3    H139508   5.117   2.888   0.081
 5983TIP3    H239509   5.078   2.956   0.211
 5984TIP3   OH239510   2.329   2.138   1.053
 5984TIP3    H139511   2.266   2.069   1.031
 5984TIP3    H239512   2.314   2.205   0.986
 5985TIP3   OH239513   3.167   6.575   1.117
 5985TIP3    H139514   3.109   6.564   1.041
 5985TIP3    H239515   3.242   6.518   1.097
 5986TIP3   OH239516   6.618   4.785   1.036
 5986TIP3    H139517   6.633   4.869   0.993
 5986TIP3    H239518   6.674   4.787   1.113
 5987TIP3   OH239519   1.045   5.362   7.838
 5987TIP3    H139520   1.013   5.273   7.822
 5987TIP3    H239521   1.097   5.356   7.918
 5988TIP3   OH239522   3.402   6.626   7.015
 5988TIP3    H139523   3.313   6.625   6.982
 5988TIP3    H239524   3.449   6.685   6.956
 5989TIP3   OH239525   2.683   3.529   8.157
 5989TIP3    H139526   2.661   3.620   8.134
 5989TIP3    H239527   2.707   3.488   8.074
 5990TIP3   OH239528   2.810   4.039   0.837
 5990TIP3    H139529   2.716   4.036   0.816
 5990TIP3    H239530   2.850   4.079   0.760
 5991TIP3   OH239531   5.661   0.166   1.445
 5991TIP3    H139532   5.641   0.249   1.403
 5991TIP3    H239533   5.583   0.144   1.495
 5992TIP3   OH239534   6.572   1.885   0.703
 5992TIP3    H139535   6.617   1.803   0.681
 5992TIP3    H239536   6.629   1.928   0.766
 5993TIP3   OH239537   3.882   4.711   0.192
 5993TIP3    H139538   3.921   4.673   0.271
 5993TIP3    H239539   3.873   4.637   0.132
 5994TIP3   OH239540   2.581   2.030   1.138
 5994TIP3    H139541   2.495   2.056   1.106
 5994TIP3    H239542   2.622   1.986   1.063
 5995TIP3   OH239543   0.009   4.566   1.630
 5995TIP3    H139544   0.028   4.652   1.668
 5995TIP3    H239545   0.095   4.524   1.622
 5996TIP3   OH239546   4.021   0.891   0.634
 5996TIP3    H139547   4.040   0.832   0.707
 5996TIP3    H239548   4.102   0.891   0.582
 5997TIP3   OH239549   4.034   2.211   8.184
 5997TIP3    H139550   4.038   2.127   8.231
 5997TIP3    H239551   3.997   2.188   8.098
 5998TIP3   OH239552   1.278   0.463   0.666
 5998TIP3    H139553   1.229   0.383   0.651
 5998TIP3    H239554   1.264   0.482   0.759
 5999TIP3   OH239555   3.248   0.544   7.596
 5999TIP3    H139556   3.287   0.503   7.519
 5999TIP3    H239557   3.158   0.564   7.570
 6000TIP3   OH239558   4.381   0.134   8.322
 6000TIP3    H139559   4.321   0.062   8.341
 6000TIP3    H239560   4.327   0.199   8.276
 6001TIP3   OH239561   6.543   0.402   6.908
 6001TIP3    H139562   6.633   0.390   6.939
 6001TIP3    H239563   6.519   0.317   6.872
 6002TIP3   OH239564   1.674   4.363   7.749
 6002TIP3    H139565   1.698   4.270   7.740
 6002TIP3    H239566   1.660   4.393   7.659
 6003TIP3   OH239567   4.280   6.747   8.284
 6003TIP3    H139568   4.193   6.725   8.250
 6003TIP3    H239569   4.303   6.673   8.340
 6004TIP3   OH239570   2.044   1.758   7.403
 6004TIP3    H139571   2.047   1.691   7.335
 6004TIP3    H239572   2.045   1.709   7.485
 6005TIP3   OH239573   4.265   2.067   8.058
 6005TIP3    H139574   4.306   2.149   8.085
 6005TIP3    H239575   4.334   2.021   8.009
 6006TIP3   OH239576   1.114   4.870   1.656
 6006TIP3    H139577   1.036   4.830   1.618
 6006TIP3    H239578   1.090   4.890   1.746
 6007TIP3   OH239579   5.252   5.766   0.947
 6007TIP3    H139580   5.237   5.792   0.856
 6007TIP3    H239581   5.168   5.782   0.990
 6008TIP3   OH239582   1.650   4.435   7.500
 6008TIP3    H139583   1.647   4.521   7.457
 6008TIP3    H239584   1.609   4.375   7.437
 6009TIP3   OH239585   6.152   6.307   2.253
 6009TIP3    H139586   6.245   6.308   2.230
 6009TIP3    H239587   6.138   6.389   2.300
 6010TIP3   OH239588   0.263   2.902   7.208
 6010TIP3    H139589   0.191   2.964   7.205
 6010TIP3    H239590   0.267   2.865   7.120
 6011TIP3   OH239591   5.236   1.957   0.250
 6011TIP3    H139592   5.159   1.912   0.286
 6011TIP3    H239593   5.282   1.888   0.201
 6012TIP3   OH239594   5.307   3.852   8.025
 6012TIP3    H139595   5.309   3.758   8.007
 6012TIP3    H239596   5.307   3.858   8.121
 6013TIP3   OH239597   3.551   1.446   2.724
 6013TIP3    H139598   3.519   1.534   2.704
 6013TIP3    H239599   3.591   1.454   2.810
 6014TIP3   OH239600   1.643   2.386   1.325
 6014TIP3    H139601   1.547   2.387   1.326
 6014TIP3    H239602   1.668   2.424   1.409
 6015TIP3   OH239603   3.416   3.079   1.621
 6015TIP3    H139604   3.444   3.171   1.627
 6015TIP3    H239605   3.492   3.034   1.585
 6016TIP3   OH239606   3.160   4.503   8.538
 6016TIP3    H139607   3.251   4.505   8.565
 6016TIP3    H239608   3.161   4.460   8.452
 6017TIP3   OH239609   1.190   4.417   8.041
 6017TIP3    H139610   1.170   4.425   7.948
 6017TIP3    H239611   1.285   4.410   8.045
 6018TIP3   OH239612   4.280   2.614   0.074
 6018TIP3    H139613   4.275   2.591   0.167
 6018TIP3    H239614   4.267   2.708   0.072
 6019TIP3   OH239615   1.302   2.267   0.672
 6019TIP3    H139616   1.377   2.207   0.670
 6019TIP3    H239617   1.227   2.211   0.655
 6020TIP3   OH239618   6.099   2.691   7.182
 6020TIP3    H139619   6.119   2.740   7.102
 6020TIP3    H239620   6.162   2.619   7.182
 6021TIP3   OH239621   2.007   4.382   0.318
 6021TIP3    H139622   2.050   4.406   0.236
 6021TIP3    H239623   1.914   4.396   0.302
 6022TIP3   OH239624   3.109   2.350   1.929
 6022TIP3    H139625   3.045   2.369   1.997
 6022TIP3    H239626   3.173   2.293   1.971
 6023TIP3   OH239627   5.230   0.106   0.651
 6023TIP3    H139628   5.179   0.065   0.720
 6023TIP3    H239629   5.166   0.152   0.597
 6024TIP3   OH239630   5.928   6.889   0.115
 6024TIP3    H139631   5.882   6.815   0.154
 6024TIP3    H239632   6.021   6.867   0.122
 6025TIP3   OH239633   1.178   5.163   0.105
 6025TIP3    H139634   1.198   5.098   0.039
 6025TIP3    H239635   1.087   5.188   0.088
 6026TIP3   OH239636   1.249   5.784   0.382
 6026TIP3    H139637   1.172   5.786   0.326
 6026TIP3    H239638   1.215   5.764   0.469
 6027TIP3   OH239639   6.831   5.724   0.284
 6027TIP3    H139640   0.013   5.678   0.268
 6027TIP3    H239641   6.857   5.805   0.329
 6028TIP3   OH239642   3.501   5.082   0.777
 6028TIP3    H139643   3.407   5.066   0.774
 6028TIP3    H239644   3.516   5.119   0.864
 6029TIP3   OH239645   4.386   5.397   0.888
 6029TIP3    H139646   4.310   5.339   0.883
 6029TIP3    H239647   4.456   5.348   0.846
 6030TIP3   OH239648   2.604   3.610   1.142
 6030TIP3    H139649   2.598   3.678   1.074
 6030TIP3    H239650   2.592   3.528   1.094
 6031TIP3   OH239651   1.082   0.037   1.119
 6031TIP3    H139652   1.033   0.114   1.090
 6031TIP3    H239653   1.088   6.882   1.041
 6032TIP3   OH239654   3.310   0.384   8.358
 6032TIP3    H139655   3.403   0.370   8.338
 6032TIP3    H239656   3.270   0.406   8.274
 6033TIP3   OH239657   1.978   2.808   0.945
 6033TIP3    H139658   2.027   2.846   0.872
 6033TIP3    H239659   2.034   2.821   1.021
 6034TIP3   OH239660   6.890   3.954   1.838
 6034TIP3    H139661   6.894   3.895   1.763
 6034TIP3    H239662   0.054   4.022   1.818
 6035TIP3   OH239663   1.788   6.117   0.756
 6035TIP3    H139664   1.708   6.104   0.805
 6035TIP3    H239665   1.858   6.111   0.821
 6036TIP3   OH239666   2.933   5.189   1.285
 6036TIP3    H139667   2.888   5.105   1.285
 6036TIP3    H239668   3.001   5.180   1.351
 6037TIP3   OH239669   2.714   6.009   8.598
 6037TIP3    H139670   2.760   5.927   8.585
 6037TIP3    H239671   2.621   5.987   8.589
 6038TIP3   OH239672   0.970   0.126   0.540
 6038TIP3    H139673   0.959   0.116   0.635
 6038TIP3    H239674   0.975   0.221   0.527
 6039TIP3   OH239675   3.374   2.374   1.738
 6039TIP3    H139676   3.296   2.420   1.770
 6039TIP3    H239677   3.382   2.401   1.646
 6040TIP3   OH239678   1.841   6.306   6.822
 6040TIP3    H139679   1.860   6.399   6.824
 6040TIP3    H239680   1.886   6.274   6.744
 6041TIP3   OH239681   5.206   1.153   1.408
 6041TIP3    H139682   5.300   1.143   1.422
 6041TIP3    H239683   5.197   1.236   1.362
 6042TIP3   OH239684   1.213   2.114   7.808
 6042TIP3    H139685   1.228   2.178   7.738
 6042TIP3    H239686   1.300   2.079   7.827
 6043TIP3   OH239687   2.728   6.684   0.797
 6043TIP3    H139688   2.718   6.696   0.703
 6043TIP3    H239689   2.648   6.721   0.835
 6044TIP3   OH239690   1.012   2.659   0.213
 6044TIP3    H139691   1.107   2.648   0.217
 6044TIP3    H239692   0.980   2.611   0.289
 6045TIP3   OH239693   4.836   3.508   0.285
 6045TIP3    H139694   4.783   3.585   0.264
 6045TIP3    H239695   4.922   3.544   0.310
 6046TIP3   OH239696   1.473   5.813   8.209
 6046TIP3    H139697   1.436   5.727   8.230
 6046TIP3    H239698   1.445   5.870   8.280
 6047TIP3   OH239699   5.238   3.911   6.498
 6047TIP3    H139700   5.260   3.868   6.580
 6047TIP3    H239701   5.294   3.989   6.496
 6048TIP3   OH239702   5.262   6.388   8.522
 6048TIP3    H139703   5.222   6.439   8.451
 6048TIP3    H239704   5.246   6.441   8.600
 6049TIP3   OH239705   4.715   1.395   8.485
 6049TIP3    H139706   4.745   1.343   8.559
 6049TIP3    H239707   4.724   1.486   8.513
 6050TIP3   OH239708   3.915   0.143   1.594
 6050TIP3    H139709   3.974   0.191   1.652
 6050TIP3    H239710   3.934   0.051   1.611
 6051TIP3   OH239711   2.107   5.010   8.154
 6051TIP3    H139712   2.172   5.017   8.224
 6051TIP3    H239713   2.105   4.917   8.133
 6052TIP3   OH239714   4.009   2.814   0.325
 6052TIP3    H139715   4.046   2.747   0.383
 6052TIP3    H239716   4.082   2.845   0.273
 6053TIP3   OH239717   5.922   5.581   7.154
 6053TIP3    H139718   5.849   5.581   7.216
 6053TIP3    H239719   5.881   5.585   7.068
 6054TIP3   OH239720   4.056   2.580   1.867
 6054TIP3    H139721   4.113   2.538   1.803
 6054TIP3    H239722   4.087   2.549   1.952
 6055TIP3   OH239723   3.349   2.640   0.413
 6055TIP3    H139724   3.423   2.701   0.415
 6055TIP3    H239725   3.276   2.690   0.449
 6056TIP3   OH239726   2.781   6.803   0.093
 6056TIP3    H139727   2.786   6.808   8.617
 6056TIP3    H239728   2.870   6.826   0.123
 6057TIP3   OH239729   3.572   5.690   0.252
 6057TIP3    H139730   3.481   5.662   0.268
 6057TIP3    H239731   3.612   5.690   0.339
 6058TIP3   OH239732   0.710   0.104   7.585
 6058TIP3    H139733   0.684   0.192   7.613
 6058TIP3    H239734   0.718   0.055   7.667
 6059TIP3   OH239735   3.415   4.694   7.888
 6059TIP3    H139736   3.422   4.736   7.974
 6059TIP3    H239737   3.505   4.665   7.869
 6060TIP3   OH239738   2.315   1.680   1.294
 6060TIP3    H139739   2.244   1.732   1.331
 6060TIP3    H239740   2.395   1.722   1.328
 6061TIP3   OH239741   4.134   1.415   1.759
 6061TIP3    H139742   4.188   1.433   1.683
 6061TIP3    H239743   4.146   1.491   1.817
 6062TIP3   OH239744   1.324   4.287   0.002
 6062TIP3    H139745   1.326   4.378   0.031
 6062TIP3    H239746   1.377   4.240   0.067
 6063TIP3   OH239747   3.721   5.483   6.908
 6063TIP3    H139748   3.706   5.496   6.814
 6063TIP3    H239749   3.641   5.440   6.938
 6064TIP3   OH239750   6.101   6.180   0.770
 6064TIP3    H139751   6.020   6.218   0.736
 6064TIP3    H239752   6.111   6.220   0.857
 6065TIP3   OH239753   2.264   4.707   0.154
 6065TIP3    H139754   2.171   4.705   0.176
 6065TIP3    H239755   2.281   4.799   0.131
 6066TIP3   OH239756   2.417   0.706   6.973
 6066TIP3    H139757   2.342   0.738   6.923
 6066TIP3    H239758   2.484   0.773   6.961
 6067TIP3   OH239759   6.343   1.886   0.842
 6067TIP3    H139760   6.430   1.890   0.802
 6067TIP3    H239761   6.331   1.972   0.882
 6068TIP3   OH239762   2.428   2.213   7.139
 6068TIP3    H139763   2.357   2.149   7.146
 6068TIP3    H239764   2.399   2.274   7.071
 6069TIP3   OH239765   3.612   3.711   7.914
 6069TIP3    H139766   3.563   3.710   7.832
 6069TIP3    H239767   3.684   3.772   7.899
 6070TIP3   OH239768   5.374   4.775   0.056
 6070TIP3    H139769   5.408   4.747   0.140
 6070TIP3    H239770   5.344   4.695   0.014
 6071TIP3   OH239771   2.528   6.632   7.332
 6071TIP3    H139772   2.480   6.704   7.290
 6071TIP3    H239773   2.485   6.620   7.416
 6072TIP3   OH239774   2.651   1.483   0.189
 6072TIP3    H139775   2.605   1.399   0.190
 6072TIP3    H239776   2.600   1.538   0.130
 6073TIP3   OH239777   3.308   0.010   0.054
 6073TIP3    H139778   3.376   6.894   0.120
 6073TIP3    H239779   3.272   6.823   0.035
 6074TIP3   OH239780   2.842   1.595   6.582
 6074TIP3    H139781   2.786   1.668   6.554
 6074TIP3    H239782   2.786   1.518   6.575
 6075TIP3   OH239783   5.174   2.718   8.178
 6075TIP3    H139784   5.248   2.777   8.165
 6075TIP3    H239785   5.177   2.658   8.103
 6076TIP3   OH239786   2.418   1.323   8.581
 6076TIP3    H139787   2.435   1.280   0.045
 6076TIP3    H239788   2.491   1.296   8.525
 6077TIP3   OH239789   5.565   6.353   8.092
 6077TIP3    H139790   5.597   6.279   8.143
 6077TIP3    H239791   5.630   6.422   8.106
 6078TIP3   OH239792   0.320   5.812   0.867
 6078TIP3    H139793   0.264   5.807   0.789
 6078TIP3    H239794   0.334   5.721   0.892
 6079TIP3   OH239795   4.741   4.814   0.995
 6079TIP3    H139796   4.717   4.907   0.994
 6079TIP3    H239797   4.658   4.768   1.011
 6080TIP3   OH239798   4.488   5.234   7.356
 6080TIP3    H139799   4.535   5.205   7.279
 6080TIP3    H239800   4.531   5.188   7.429
 6081TIP3   OH239801   1.878   6.501   0.621
 6081TIP3    H139802   1.851   6.409   0.626
 6081TIP3    H239803   1.924   6.508   0.537
 6082TIP3   OH239804   6.176   2.647   2.346
 6082TIP3    H139805   6.170   2.738   2.375
 6082TIP3    H239806   6.086   2.615   2.349
 6083TIP3   OH239807   6.453   4.063   1.662
 6083TIP3    H139808   6.447   4.114   1.581
 6083TIP3    H239809   6.531   4.097   1.706
 6084TIP3   OH239810   0.818   1.209   7.269
 6084TIP3    H139811   0.905   1.168   7.271
 6084TIP3    H239812   0.787   1.193   7.180
 6085TIP3   OH239813   0.323   2.984   6.211
 6085TIP3    H139814   0.342   2.901   6.255
 6085TIP3    H239815   0.231   2.977   6.184
 6086TIP3   OH239816   2.848   5.630   8.146
 6086TIP3    H139817   2.784   5.616   8.076
 6086TIP3    H239818   2.917   5.682   8.106
 6087TIP3   OH239819   3.171   4.787   0.897
 6087TIP3    H139820   3.120   4.719   0.941
 6087TIP3    H239821   3.229   4.738   0.838
 6088TIP3   OH239822   6.824   0.147   0.332
 6088TIP3    H139823   6.817   0.195   0.249
 6088TIP3    H239824   6.765   0.194   0.392
 6089TIP3   OH239825   1.844   2.014   1.841
 6089TIP3    H139826   1.919   2.074   1.838
 6089TIP3    H239827   1.879   1.931   1.809
 6090TIP3   OH239828   0.134   3.652   1.595
 6090TIP3    H139829   0.067   3.664   1.663
 6090TIP3    H239830   0.084   3.624   1.518
 6091TIP3   OH239831   0.268   1.550   0.590
 6091TIP3    H139832   0.296   1.472   0.637
 6091TIP3    H239833   0.242   1.518   0.503
 6092TIP3   OH239834   5.984   6.723   1.516
 6092TIP3    H139835   6.059   6.708   1.575
 6092TIP3    H239836   5.976   6.818   1.510
 6093TIP3   OH239837   1.105   0.392   6.686
 6093TIP3    H139838   1.130   0.304   6.660
 6093TIP3    H239839   1.053   0.426   6.613
 6094TIP3   OH239840   4.838   6.093   1.422
 6094TIP3    H139841   4.853   6.063   1.511
 6094TIP3    H239842   4.874   6.182   1.420
 6095TIP3   OH239843   6.425   6.053   1.279
 6095TIP3    H139844   6.331   6.041   1.265
 6095TIP3    H239845   6.431   6.133   1.332
 6096TIP3   OH239846   3.303   6.892   2.451
 6096TIP3    H139847   3.369   0.049   2.491
 6096TIP3    H239848   3.229   0.050   2.435
 6097TIP3   OH239849   1.756   1.742   7.844
 6097TIP3    H139850   1.700   1.787   7.908
 6097TIP3    H239851   1.742   1.649   7.861
 6098TIP3   OH239852   5.184   5.467   8.544
 6098TIP3    H139853   5.175   5.407   8.618
 6098TIP3    H239854   5.264   5.439   8.499
 6099TIP3   OH239855   0.605   5.578   0.738
 6099TIP3    H139856   0.522   5.533   0.756
 6099TIP3    H239857   0.586   5.638   0.666
 6100TIP3   OH239858   3.527   4.941   7.715
 6100TIP3    H139859   3.618   4.971   7.729
 6100TIP3    H239860   3.532   4.846   7.722
 6101TIP3   OH239861   6.181   1.352   1.734
 6101TIP3    H139862   6.112   1.290   1.711
 6101TIP3    H239863   6.251   1.298   1.770
 6102TIP3   OH239864   1.745   2.422   6.299
 6102TIP3    H139865   1.755   2.499   6.243
 6102TIP3    H239866   1.743   2.348   6.239
 6103TIP3   OH239867   5.580   5.190   7.604
 6103TIP3    H139868   5.630   5.131   7.661
 6103TIP3    H239869   5.536   5.249   7.665
 6104TIP3   OH239870   1.089   4.780   7.683
 6104TIP3    H139871   1.027   4.748   7.618
 6104TIP3    H239872   1.044   4.852   7.727
 6105TIP3   OH239873   5.540   1.834   7.794
 6105TIP3    H139874   5.491   1.817   7.714
 6105TIP3    H239875   5.485   1.797   7.864
 6106TIP3   OH239876   5.142   5.285   8.143
 6106TIP3    H139877   5.157   5.191   8.140
 6106TIP3    H239878   5.151   5.307   8.236
 6107TIP3   OH239879   3.317   6.226   1.510
 6107TIP3    H139880   3.254   6.280   1.462
 6107TIP3    H239881   3.352   6.284   1.577
 6108TIP3   OH239882   6.207   5.142   1.116
 6108TIP3    H139883   6.141   5.077   1.090
 6108TIP3    H239884   6.204   5.208   1.047
 6109TIP3   OH239885   2.637   3.413   7.324
 6109TIP3    H139886   2.723   3.427   7.283
 6109TIP3    H239887   2.588   3.494   7.305
 6110TIP3   OH239888   2.767   1.776   1.643
 6110TIP3    H139889   2.846   1.811   1.601
 6110TIP3    H239890   2.763   1.685   1.613
 6111TIP3   OH239891   5.569   4.901   1.422
 6111TIP3    H139892   5.575   4.806   1.416
 6111TIP3    H239893   5.505   4.925   1.354
 6112TIP3   OH239894   6.100   4.387   7.339
 6112TIP3    H139895   6.152   4.307   7.346
 6112TIP3    H239896   6.021   4.368   7.389
 6113TIP3   OH239897   0.094   2.630   2.449
 6113TIP3    H139898   0.115   2.689   2.522
 6113TIP3    H239899   0.174   2.626   2.398
 6114TIP3   OH239900   1.742   2.327   0.431
 6114TIP3    H139901   1.735   2.234   0.452
 6114TIP3    H239902   1.750   2.370   0.516
 6115TIP3   OH239903   5.958   2.491   1.574
 6115TIP3    H139904   5.956   2.398   1.595
 6115TIP3    H239905   5.967   2.535   1.659
 6116TIP3   OH239906   5.065   5.397   2.305
 6116TIP3    H139907   5.088   5.482   2.343
 6116TIP3    H239908   5.086   5.334   2.374
 6117TIP3   OH239909   4.948   0.465   7.897
 6117TIP3    H139910   4.936   0.394   7.834
 6117TIP3    H239911   4.862   0.477   7.937
 6118TIP3   OH239912   6.502   3.637   2.061
 6118TIP3    H139913   6.556   3.716   2.053
 6118TIP3    H239914   6.525   3.601   2.146
 6119TIP3   OH239915   4.897   4.087   8.047
 6119TIP3    H139916   4.859   4.020   8.104
 6119TIP3    H239917   4.945   4.145   8.107
 6120TIP3   OH239918   1.053   5.432   1.635
 6120TIP3    H139919   0.996   5.441   1.559
 6120TIP3    H239920   0.994   5.411   1.707
 6121TIP3   OH239921   4.756   3.166   7.991
 6121TIP3    H139922   4.695   3.128   7.928
 6121TIP3    H239923   4.779   3.251   7.953
 6122TIP3   OH239924   0.869   0.523   5.661
 6122TIP3    H139925   0.805   0.452   5.669
 6122TIP3    H239926   0.821   0.594   5.619
 6123TIP3   OH239927   0.444   5.197   0.317
 6123TIP3    H139928   0.455   5.118   0.264
 6123TIP3    H239929   0.533   5.217   0.347
 6124TIP3   OH239930   4.701   5.838   7.267
 6124TIP3    H139931   4.666   5.836   7.178
 6124TIP3    H239932   4.702   5.746   7.294
 6125TIP3   OH239933   4.620   3.218   6.274
 6125TIP3    H139934   4.676   3.296   6.276
 6125TIP3    H239935   4.673   3.150   6.315
 6126TIP3   OH239936   0.876   1.793   0.372
 6126TIP3    H139937   0.933   1.761   0.301
 6126TIP3    H239938   0.827   1.865   0.333
 6127TIP3   OH239939   6.553   6.519   5.922
 6127TIP3    H139940   6.457   6.518   5.925
 6127TIP3    H239941   6.577   6.437   5.880
 6128TIP3   OH239942   4.799   4.607   0.037
 6128TIP3    H139943   4.760   4.688   0.004
 6128TIP3    H239944   4.724   4.555   0.067
 6129TIP3   OH239945   1.982   4.664   6.611
 6129TIP3    H139946   1.990   4.758   6.627
 6129TIP3    H239947   2.072   4.632   6.611
 6130TIP3   OH239948   5.627   4.915   7.430
 6130TIP3    H139949   5.671   4.871   7.502
 6130TIP3    H239950   5.584   4.844   7.381
 6131TIP3   OH239951   5.339   5.451   8.280
 6131TIP3    H139952   5.434   5.448   8.270
 6131TIP3    H239953   5.305   5.444   8.191
 6132TIP3   OH239954   6.138   2.953   0.818
 6132TIP3    H139955   6.164   2.867   0.852
 6132TIP3    H239956   6.065   2.980   0.873
 6133TIP3   OH239957   6.795   6.696   2.238
 6133TIP3    H139958   6.867   6.750   2.205
 6133TIP3    H239959   6.838   6.620   2.278
 6134TIP3   OH239960   5.059   6.535   2.240
 6134TIP3    H139961   5.093   6.622   2.218
 6134TIP3    H239962   4.979   6.552   2.288
 6135TIP3   OH239963   6.235   4.654   0.924
 6135TIP3    H139964   6.291   4.712   0.871
 6135TIP3    H239965   6.174   4.616   0.861
 6136TIP3   OH239966   0.447   5.433   7.703
 6136TIP3    H139967   0.359   5.406   7.679
 6136TIP3    H239968   0.492   5.447   7.620
 6137TIP3   OH239969   2.815   6.494   7.524
 6137TIP3    H139970   2.811   6.508   7.619
 6137TIP3    H239971   2.805   6.400   7.514
 6138TIP3   OH239972   6.596   1.026   1.433
 6138TIP3    H139973   6.602   0.944   1.384
 6138TIP3    H239974   6.588   1.094   1.365
 6139TIP3   OH239975   6.455   6.736   8.340
 6139TIP3    H139976   6.362   6.713   8.347
 6139TIP3    H239977   6.483   6.749   8.430
 6140TIP3   OH239978   3.217   6.453   8.518
 6140TIP3    H139979   3.162   6.475   8.593
 6140TIP3    H239980   3.227   6.358   8.523
 6141TIP3   OH239981   4.201   1.534   7.451
 6141TIP3    H139982   4.291   1.542   7.484
 6141TIP3    H239983   4.189   1.440   7.438
 6142TIP3   OH239984   2.109   2.047   0.204
 6142TIP3    H139985   2.094   2.142   0.198
 6142TIP3    H239986   2.024   2.008   0.186
 6143TIP3   OH239987   2.301   5.939   1.258
 6143TIP3    H139988   2.300   6.030   1.289
 6143TIP3    H239989   2.209   5.919   1.241
 6144TIP3   OH239990   0.782   0.300   1.105
 6144TIP3    H139991   0.722   0.368   1.134
 6144TIP3    H239992   0.867   0.344   1.096
 6145TIP3   OH239993   3.320   4.116   8.383
 6145TIP3    H139994   3.321   4.021   8.394
 6145TIP3    H239995   3.365   4.150   8.461
 6146TIP3   OH239996   3.161   0.176   0.810
 6146TIP3    H139997   3.160   0.269   0.833
 6146TIP3    H239998   3.254   0.157   0.792
 6147TIP3   OH239999   6.015   3.571   7.003
 6147TIP3    H140000   6.049   3.574   6.914
 6147TIP3    H240001   5.920   3.584   6.994
 6148TIP3   OH240002   6.202   5.504   7.145
 6148TIP3    H140003   6.218   5.476   7.054
 6148TIP3    H240004   6.109   5.529   7.146
 6149TIP3   OH240005   6.237   1.645   0.306
 6149TIP3    H140006   6.304   1.659   0.239
 6149TIP3    H240007   6.225   1.732   0.345
 6150TIP3   OH240008   6.525   1.237   6.968
 6150TIP3    H140009   6.565   1.323   6.982
 6150TIP3    H240010   6.599   1.176   6.972
 6151TIP3   OH240011   4.482   1.408   1.883
 6151TIP3    H140012   4.436   1.396   1.800
 6151TIP3    H240013   4.532   1.489   1.871
 6152TIP3   OH240014   2.025   6.218   1.573
 6152TIP3    H140015   1.965   6.170   1.631
 6152TIP3    H240016   2.109   6.172   1.582
 6153TIP3   OH240017   1.557   4.474   6.448
 6153TIP3    H140018   1.639   4.507   6.413
 6153TIP3    H240019   1.541   4.393   6.399
 6154TIP3   OH240020   3.377   0.083   0.570
 6154TIP3    H140021   3.394   0.147   0.640
 6154TIP3    H240022   3.327   0.132   0.504
 6155TIP3   OH240023   5.774   0.145   8.590
 6155TIP3    H140024   5.837   0.170   8.523
 6155TIP3    H240025   5.816   0.073   0.017
 6156TIP3   OH240026   3.889   4.177   0.624
 6156TIP3    H140027   3.805   4.211   0.655
 6156TIP3    H240028   3.944   4.255   0.617
 6157TIP3   OH240029   5.444   6.257   2.194
 6157TIP3    H140030   5.491   6.329   2.236
 6157TIP3    H240031   5.476   6.178   2.238
 6158TIP3   OH240032   3.628   2.136   2.617
 6158TIP3    H140033   3.720   2.156   2.599
 6158TIP3    H240034   3.624   2.041   2.623
 6159TIP3   OH240035   1.583   0.701   2.255
 6159TIP3    H140036   1.644   0.726   2.185
 6159TIP3    H240037   1.516   0.650   2.210
 6160TIP3   OH240038   0.324   6.022   8.476
 6160TIP3    H140039   0.322   6.041   8.382
 6160TIP3    H240040   0.383   6.087   8.513
 6161TIP3   OH240041   6.538   6.823   5.798
 6161TIP3    H140042   6.559   6.730   5.787
 6161TIP3    H240043   6.470   6.824   5.866
 6162TIP3   OH240044   5.820   3.051   8.277
 6162TIP3    H140045   5.753   3.113   8.303
 6162TIP3    H240046   5.832   2.995   8.354
 6163TIP3   OH240047   6.776   3.724   7.775
 6163TIP3    H140048   6.751   3.795   7.716
 6163TIP3    H240049   6.866   3.746   7.800
 6164TIP3   OH240050   6.327   1.224   1.115
 6164TIP3    H140051   6.318   1.131   1.097
 6164TIP3    H240052   6.320   1.232   1.210
 6165TIP3   OH240053   2.173   6.156   0.270
 6165TIP3    H140054   2.169   6.062   0.257
 6165TIP3    H240055   2.266   6.176   0.279
 6166TIP3   OH240056   4.188   1.296   8.136
 6166TIP3    H140057   4.199   1.381   8.178
 6166TIP3    H240058   4.103   1.265   8.168
 6167TIP3   OH240059   0.188   1.734   1.161
 6167TIP3    H140060   0.205   1.651   1.117
 6167TIP3    H240061   0.147   1.789   1.094
 6168TIP3   OH240062   1.132   3.348   0.241
 6168TIP3    H140063   1.182   3.268   0.256
 6168TIP3    H240064   1.113   3.347   0.147
 6169TIP3   OH240065   1.896   5.808   6.877
 6169TIP3    H140066   1.834   5.738   6.861
 6169TIP3    H240067   1.887   5.827   6.971
 6170TIP3   OH240068   6.246   5.997   1.727
 6170TIP3    H140069   6.204   6.022   1.645
 6170TIP3    H240070   6.174   5.979   1.787
 6171TIP3   OH240071   1.519   5.705   8.472
 6171TIP3    H140072   1.586   5.725   8.537
 6171TIP3    H240073   1.463   5.783   8.470
 6172TIP3   OH240074   3.498   5.371   6.970
 6172TIP3    H140075   3.418   5.393   7.018
 6172TIP3    H240076   3.470   5.310   6.903
 6173TIP3   OH240077   2.465   5.689   7.162
 6173TIP3    H140078   2.387   5.669   7.109
 6173TIP3    H240079   2.430   5.712   7.248
 6174TIP3   OH240080   1.178   5.875   1.077
 6174TIP3    H140081   1.184   5.807   1.145
 6174TIP3    H240082   1.140   5.830   1.002
 6175TIP3   OH240083   3.599   4.008   1.001
 6175TIP3    H140084   3.675   3.951   0.985
 6175TIP3    H240085   3.539   3.953   1.051
 6176TIP3   OH240086   6.719   6.708   6.701
 6176TIP3    H140087   6.813   6.690   6.698
 6176TIP3    H240088   6.678   6.627   6.671
 6177TIP3   OH240089   0.619   3.185   6.991
 6177TIP3    H140090   0.645   3.114   7.050
 6177TIP3    H240091   0.682   3.180   6.919
 6178TIP3   OH240092   0.975   2.341   7.204
 6178TIP3    H140093   0.942   2.431   7.205
 6178TIP3    H240094   0.907   2.289   7.246
 6179TIP3   OH240095   4.896   2.222   7.986
 6179TIP3    H140096   4.916   2.262   8.071
 6179TIP3    H240097   4.887   2.296   7.926
 6180TIP3   OH240098   5.896   4.907   8.393
 6180TIP3    H140099   5.910   4.990   8.438
 6180TIP3    H240100   5.941   4.842   8.446
 6181TIP3   OH240101   0.258   5.067   8.584
 6181TIP3    H140102   0.181   5.017   8.612
 6181TIP3    H240103   0.331   5.007   8.597
 6182TIP3   OH240104   5.452   4.083   1.693
 6182TIP3    H140105   5.432   4.021   1.763
 6182TIP3    H240106   5.546   4.098   1.701
 6183TIP3   OH240107   5.814   4.828   0.269
 6183TIP3    H140108   5.815   4.857   0.360
 6183TIP3    H240109   5.789   4.906   0.219
 6184TIP3   OH240110   0.094   5.509   7.867
 6184TIP3    H140111   0.141   5.426   7.853
 6184TIP3    H240112   0.123   5.538   7.953
 6185TIP3   OH240113   4.336   2.976   1.883
 6185TIP3    H140114   4.355   3.063   1.847
 6185TIP3    H240115   4.360   2.982   1.975
 6186TIP3   OH240116   5.360   3.911   1.886
 6186TIP3    H140117   5.322   3.895   1.972
 6186TIP3    H240118   5.374   3.823   1.849
 6187TIP3   OH240119   0.421   3.111   7.988
 6187TIP3    H140120   0.446   3.168   8.061
 6187TIP3    H240121   0.504   3.093   7.942
 6188TIP3   OH240122   1.453   2.604   7.006
 6188TIP3    H140123   1.498   2.530   6.965
 6188TIP3    H240124   1.377   2.564   7.049
 6189TIP3   OH240125   3.711   1.143   8.252
 6189TIP3    H140126   3.712   1.054   8.218
 6189TIP3    H240127   3.653   1.190   8.193
 6190TIP3   OH240128   0.376   3.830   0.350
 6190TIP3    H140129   0.318   3.857   0.279
 6190TIP3    H240130   0.317   3.796   0.417
 6191TIP3   OH240131   3.787   4.956   1.017
 6191TIP3    H140132   3.802   5.009   1.096
 6191TIP3    H240133   3.692   4.959   1.004
 6192TIP3   OH240134   6.634   1.497   7.266
 6192TIP3    H140135   6.694   1.425   7.246
 6192TIP3    H240136   6.547   1.456   7.265
 6193TIP3   OH240137   1.176   6.141   7.265
 6193TIP3    H140138   1.092   6.131   7.220
 6193TIP3    H240139   1.165   6.095   7.348
 6194TIP3   OH240140   3.654   3.887   7.032
 6194TIP3    H140141   3.604   3.852   7.105
 6194TIP3    H240142   3.647   3.982   7.041
 6195TIP3   OH240143   2.925   3.201   8.098
 6195TIP3    H140144   2.971   3.119   8.079
 6195TIP3    H240145   2.965   3.232   8.179
 6196TIP3   OH240146   5.683   1.375   0.302
 6196TIP3    H140147   5.699   1.420   0.385
 6196TIP3    H240148   5.742   1.299   0.304
 6197TIP3   OH240149   1.019   6.034   6.564
 6197TIP3    H140150   1.058   6.121   6.556
 6197TIP3    H240151   1.045   5.989   6.484
 6198TIP3   OH240152   0.853   4.224   1.290
 6198TIP3    H140153   0.798   4.256   1.219
 6198TIP3    H240154   0.835   4.130   1.294
 6199TIP3   OH240155   4.472   1.358   6.207
 6199TIP3    H140156   4.434   1.344   6.293
 6199TIP3    H240157   4.566   1.367   6.222
 6200TIP3   OH240158   1.990   1.504   1.012
 6200TIP3    H140159   2.081   1.533   1.010
 6200TIP3    H240160   1.941   1.578   0.975
 6201TIP3   OH240161   3.818   1.164   6.716
 6201TIP3    H140162   3.766   1.214   6.779
 6201TIP3    H240163   3.760   1.093   6.688
 6202TIP3   OH240164   5.798   0.125   0.636
 6202TIP3    H140165   5.787   0.214   0.668
 6202TIP3    H240166   5.889   0.121   0.606
 6203TIP3   OH240167   2.084   1.116   7.233
 6203TIP3    H140168   2.112   1.147   7.318
 6203TIP3    H240169   2.163   1.116   7.179
 6204TIP3   OH240170   5.173   2.565   8.425
 6204TIP3    H140171   5.177   2.589   8.332
 6204TIP3    H240172   5.128   2.480   8.425
 6205TIP3   OH240173   6.177   2.434   6.143
 6205TIP3    H140174   6.157   2.441   6.049
 6205TIP3    H240175   6.269   2.459   6.149
 6206TIP3   OH240176   2.700   0.594   7.189
 6206TIP3    H140177   2.759   0.536   7.143
 6206TIP3    H240178   2.613   0.571   7.156
 6207TIP3   OH240179   6.546   3.583   0.018
 6207TIP3    H140180   6.451   3.591   0.029
 6207TIP3    H240181   6.582   3.654   0.070
 6208TIP3   OH240182   6.218   0.151   7.082
 6208TIP3    H140183   6.289   0.091   7.106
 6208TIP3    H240184   6.227   0.223   7.144
 6209TIP3   OH240185   5.382   5.070   8.363
 6209TIP3    H140186   5.344   5.042   8.280
 6209TIP3    H240187   5.322   5.038   8.430
 6210TIP3   OH240188   0.562   6.692   8.326
 6210TIP3    H140189   0.591   6.611   8.286
 6210TIP3    H240190   0.642   6.730   8.364
 6211TIP3   OH240191   6.864   3.638   1.854
 6211TIP3    H140192   6.871   3.658   1.947
 6211TIP3    H240193   6.828   3.550   1.850
 6212TIP3   OH240194   0.564   3.423   7.612
 6212TIP3    H140195   0.659   3.418   7.613
 6212TIP3    H240196   0.535   3.338   7.578
 6213TIP3   OH240197   3.872   6.589   7.739
 6213TIP3    H140198   3.779   6.581   7.718
 6213TIP3    H240199   3.904   6.660   7.683
 6214TIP3   OH240200   0.301   3.940   1.078
 6214TIP3    H140201   0.270   3.917   0.990
 6214TIP3    H240202   0.355   4.017   1.064
 6215TIP3   OH240203   4.080   0.307   8.371
 6215TIP3    H140204   4.048   0.396   8.352
 6215TIP3    H240205   4.149   0.320   8.435
 6216TIP3   OH240206   3.547   0.083   0.314
 6216TIP3    H140207   3.625   0.075   0.260
 6216TIP3    H240208   3.576   0.137   0.388
 6217TIP3   OH240209   6.010   1.722   0.547
 6217TIP3    H140210   6.033   1.652   0.607
 6217TIP3    H240211   6.053   1.699   0.465
 6218TIP3   OH240212   0.610   5.621   0.043
 6218TIP3    H140213   0.529   5.588   0.082
 6218TIP3    H240214   0.638   5.552   8.603
 6219TIP3   OH240215   6.714   6.401   1.332
 6219TIP3    H140216   6.712   6.467   1.402
 6219TIP3    H240217   6.768   6.441   1.264
 6220TIP3   OH240218   0.461   0.901   0.077
 6220TIP3    H140219   0.375   0.929   0.110
 6220TIP3    H240220   0.493   0.839   0.143
 6221TIP3   OH240221   2.677   6.236   0.113
 6221TIP3    H140222   2.692   6.148   0.079
 6221TIP3    H240223   2.718   6.294   0.050
 6222TIP3   OH240224   4.429   6.846   7.552
 6222TIP3    H140225   4.513   6.855   7.597
 6222TIP3    H240226   4.374   0.016   7.588
 6223TIP3   OH240227   1.854   0.972   0.127
 6223TIP3    H140228   1.888   0.995   0.213
 6223TIP3    H240229   1.901   0.893   0.103
 6224TIP3   OH240230   5.747   5.915   6.932
 6224TIP3    H140231   5.727   5.845   6.994
 6224TIP3    H240232   5.676   5.911   6.867
 6225TIP3   OH240233   5.037   2.278   2.097
 6225TIP3    H140234   5.013   2.289   2.189
 6225TIP3    H240235   5.074   2.363   2.072
 6226TIP3   OH240236   0.551   2.805   7.654
 6226TIP3    H140237   0.484   2.836   7.592
 6226TIP3    H240238   0.504   2.795   7.737
 6227TIP3   OH240239   3.538   6.496   1.973
 6227TIP3    H140240   3.630   6.478   1.955
 6227TIP3    H240241   3.527   6.477   2.066
 6228TIP3   OH240242   4.634   4.900   2.390
 6228TIP3    H140243   4.619   4.990   2.419
 6228TIP3    H240244   4.725   4.883   2.413
 6229TIP3   OH240245   2.570   4.876   7.788
 6229TIP3    H140246   2.522   4.844   7.711
 6229TIP3    H240247   2.507   4.871   7.860
 6230TIP3   OH240248   2.502   3.298   1.804
 6230TIP3    H140249   2.457   3.304   1.888
 6230TIP3    H240250   2.580   3.352   1.814
 6231TIP3   OH240251   6.705   4.640   6.837
 6231TIP3    H140252   6.707   4.733   6.814
 6231TIP3    H240253   6.786   4.626   6.886
 6232TIP3   OH240254   1.080   3.528   7.088
 6232TIP3    H140255   1.138   3.575   7.028
 6232TIP3    H240256   1.037   3.596   7.138
 6233TIP3   OH240257   5.830   4.900   0.549
 6233TIP3    H140258   5.738   4.873   0.549
 6233TIP3    H240259   5.857   4.893   0.641
 6234TIP3   OH240260   1.442   4.379   8.111
 6234TIP3    H140261   1.439   4.362   8.205
 6234TIP3    H240262   1.508   4.447   8.100
 6235TIP3   OH240263   2.756   5.616   0.748
 6235TIP3    H140264   2.721   5.537   0.706
 6235TIP3    H240265   2.771   5.677   0.676
 6236TIP3   OH240266   1.214   4.207   7.391
 6236TIP3    H140267   1.154   4.161   7.333
 6236TIP3    H240268   1.192   4.175   7.479
 6237TIP3   OH240269   2.337   4.310   1.609
 6237TIP3    H140270   2.396   4.234   1.604
 6237TIP3    H240271   2.326   4.325   1.703
 6238TIP3   OH240272   1.503   5.581   6.706
 6238TIP3    H140273   1.591   5.574   6.743
 6238TIP3    H240274   1.513   5.552   6.615
 6239TIP3   OH240275   2.696   4.008   7.217
 6239TIP3    H140276   2.754   4.035   7.288
 6239TIP3    H240277   2.610   4.001   7.257
 6240TIP3   OH240278   3.248   5.050   0.465
 6240TIP3    H140279   3.274   5.101   0.541
 6240TIP3    H240280   3.272   4.960   0.488
 6241TIP3   OH240281   0.374   3.753   7.108
 6241TIP3    H140282   0.329   3.695   7.047
 6241TIP3    H240283   0.371   3.707   7.192
 6242TIP3   OH240284   5.709   1.232   1.287
 6242TIP3    H140285   5.720   1.327   1.282
 6242TIP3    H240286   5.639   1.219   1.351
 6243TIP3   OH240287   5.597   6.348   0.716
 6243TIP3    H140288   5.544   6.428   0.723
 6243TIP3    H240289   5.572   6.296   0.793
 6244TIP3   OH240290   2.632   2.459   6.920
 6244TIP3    H140291   2.654   2.539   6.871
 6244TIP3    H240292   2.715   2.430   6.958
 6245TIP3   OH240293   3.226   2.174   7.369
 6245TIP3    H140294   3.307   2.223   7.387
 6245TIP3    H240295   3.240   2.137   7.282
 6246TIP3   OH240296   6.444   6.267   2.025
 6246TIP3    H140297   6.502   6.220   1.965
 6246TIP3    H240298   6.366   6.213   2.030
 6247TIP3   OH240299   5.498   0.045   0.713
 6247TIP3    H140300   5.421   0.099   0.729
 6247TIP3    H240301   5.557   0.101   0.662
 6248TIP3   OH240302   5.392   0.418   0.785
 6248TIP3    H140303   5.299   0.431   0.807
 6248TIP3    H240304   5.404   0.464   0.702
 6249TIP3   OH240305   1.379   1.203   1.458
 6249TIP3    H140306   1.343   1.119   1.429
 6249TIP3    H240307   1.400   1.189   1.551
 6250TIP3   OH240308   4.164   2.053   8.477
 6250TIP3    H140309   4.240   2.019   8.431
 6250TIP3    H240310   4.090   2.031   8.421
 6251TIP3   OH240311   1.783   2.622   7.989
 6251TIP3    H140312   1.864   2.673   7.996
 6251TIP3    H240313   1.715   2.680   8.025
 6252TIP3   OH240314   4.994   2.978   1.527
 6252TIP3    H140315   4.981   3.008   1.616
 6252TIP3    H240316   4.984   3.056   1.473
 6253TIP3   OH240317   1.229   5.065   1.966
 6253TIP3    H140318   1.296   4.998   1.952
 6253TIP3    H240319   1.154   5.034   1.916
 6254TIP3   OH240320   2.686   5.046   6.171
 6254TIP3    H140321   2.608   5.056   6.225
 6254TIP3    H240322   2.669   5.103   6.095
 6255TIP3   OH240323   2.427   0.629   7.565
 6255TIP3    H140324   2.477   0.569   7.509
 6255TIP3    H240325   2.452   0.605   7.654
 6256TIP3   OH240326   4.834   6.397   2.109
 6256TIP3    H140327   4.920   6.428   2.081
 6256TIP3    H240328   4.813   6.326   2.048
 6257TIP3   OH240329   1.206   1.147   7.427
 6257TIP3    H140330   1.170   1.130   7.340
 6257TIP3    H240331   1.246   1.063   7.452
 6258TIP3   OH240332   0.302   2.527   0.393
 6258TIP3    H140333   0.369   2.579   0.349
 6258TIP3    H240334   0.297   2.564   0.481
 6259TIP3   OH240335   3.721   2.379   8.143
 6259TIP3    H140336   3.719   2.403   8.050
 6259TIP3    H240337   3.771   2.449   8.185
 6260TIP3   OH240338   4.109   0.623   6.941
 6260TIP3    H140339   4.101   0.564   7.016
 6260TIP3    H240340   4.052   0.585   6.874
 6261TIP3   OH240341   2.800   0.488   6.796
 6261TIP3    H140342   2.807   0.488   6.891
 6261TIP3    H240343   2.872   0.433   6.766
 6262TIP3   OH240344   3.807   2.720   1.794
 6262TIP3    H140345   3.818   2.763   1.709
 6262TIP3    H240346   3.878   2.656   1.798
 6263TIP3   OH240347   0.867   3.816   7.401
 6263TIP3    H140348   0.940   3.760   7.428
 6263TIP3    H240349   0.830   3.849   7.483
 6264TIP3   OH240350   2.834   2.910   2.008
 6264TIP3    H140351   2.854   2.981   1.946
 6264TIP3    H240352   2.742   2.922   2.029
 6265TIP3   OH240353   6.353   5.832   6.078
 6265TIP3    H140354   6.259   5.850   6.085
 6265TIP3    H240355   6.371   5.775   6.153
 6266TIP3   OH240356   2.809   5.542   0.491
 6266TIP3    H140357   2.891   5.535   0.442
 6266TIP3    H240358   2.742   5.513   0.429
 6267TIP3   OH240359   5.404   2.665   1.683
 6267TIP3    H140360   5.315   2.699   1.691
 6267TIP3    H240361   5.445   2.720   1.615
 6268TIP3   OH240362   6.378   6.584   0.709
 6268TIP3    H140363   6.287   6.555   0.722
 6268TIP3    H240364   6.382   6.670   0.751
 6269TIP3   OH240365   1.313   3.485   8.353
 6269TIP3    H140366   1.269   3.562   8.389
 6269TIP3    H240367   1.379   3.521   8.294
 6270TIP3   OH240368   0.836   0.665   0.780
 6270TIP3    H140369   0.920   0.711   0.789
 6270TIP3    H240370   0.770   0.733   0.791
 6271TIP3   OH240371   4.907   1.038   0.343
 6271TIP3    H140372   4.972   1.108   0.349
 6271TIP3    H240373   4.917   0.990   0.426
 6272TIP3   OH240374   1.014   5.887   7.853
 6272TIP3    H140375   1.024   5.845   7.768
 6272TIP3    H240376   1.022   5.981   7.835
 6273TIP3   OH240377   2.172   3.896   6.732
 6273TIP3    H140378   2.253   3.942   6.753
 6273TIP3    H240379   2.200   3.808   6.707
 6274TIP3   OH240380   3.529   1.954   8.482
 6274TIP3    H140381   3.544   2.003   8.401
 6274TIP3    H240382   3.606   1.973   8.536
 6275TIP3   OH240383   4.162   1.199   1.483
 6275TIP3    H140384   4.195   1.178   1.396
 6275TIP3    H240385   4.206   1.280   1.507
 6276TIP3   OH240386   5.247   6.726   6.804
 6276TIP3    H140387   5.306   6.799   6.788
 6276TIP3    H240388   5.175   6.740   6.742
 6277TIP3   OH240389   6.633   4.095   0.287
 6277TIP3    H140390   6.719   4.055   0.292
 6277TIP3    H240391   6.615   4.126   0.376
 6278TIP3   OH240392   4.803   5.476   2.107
 6278TIP3    H140393   4.766   5.500   2.192
 6278TIP3    H240394   4.775   5.546   2.048
 6279TIP3   OH240395   3.049   1.084   1.968
 6279TIP3    H140396   3.097   1.146   2.024
 6279TIP3    H240397   2.958   1.091   1.996
 6280TIP3   OH240398   1.565   5.283   0.070
 6280TIP3    H140399   1.523   5.326   8.614
 6280TIP3    H240400   1.658   5.284   0.049
 6281TIP3   OH240401   6.190   6.131   2.000
 6281TIP3    H140402   6.151   6.043   1.995
 6281TIP3    H240403   6.166   6.163   2.087
 6282TIP3   OH240404   5.428   6.731   8.171
 6282TIP3    H140405   5.516   6.771   8.172
 6282TIP3    H240406   5.424   6.680   8.252
 6283TIP3   OH240407   5.433   6.498   6.844
 6283TIP3    H140408   5.388   6.526   6.924
 6283TIP3    H240409   5.384   6.540   6.773
 6284TIP3   OH240410   3.598   6.839   6.216
 6284TIP3    H140411   3.625   6.853   6.307
 6284TIP3    H240412   3.659   6.892   6.165
 6285TIP3   OH240413   5.125   0.152   7.420
 6285TIP3    H140414   5.201   0.098   7.443
 6285TIP3    H240415   5.050   0.106   7.458
 6286TIP3   OH240416   1.502   5.604   2.225
 6286TIP3    H140417   1.507   5.664   2.151
 6286TIP3    H240418   1.580   5.622   2.277
 6287TIP3   OH240419   0.471   0.158   0.934
 6287TIP3    H140420   0.381   0.189   0.939
 6287TIP3    H240421   0.512   0.213   0.868
 6288TIP3   OH240422   0.174   5.736   8.398
 6288TIP3    H140423   0.176   5.790   8.477
 6288TIP3    H240424   0.260   5.694   8.396
 6289TIP3   OH240425   5.192   1.168   0.833
 6289TIP3    H140426   5.219   1.236   0.772
 6289TIP3    H240427   5.232   1.194   0.916
 6290TIP3   OH240428   6.655   4.974   7.018
 6290TIP3    H140429   6.670   5.067   7.031
 6290TIP3    H240430   6.652   4.963   6.923
 6291TIP3   OH240431   2.845   3.494   1.241
 6291TIP3    H140432   2.762   3.536   1.218
 6291TIP3    H240433   2.821   3.405   1.265
 6292TIP3   OH240434   1.325   6.807   1.207
 6292TIP3    H140435   1.233   6.831   1.208
 6292TIP3    H240436   1.341   6.777   1.118
 6293TIP3   OH240437   4.439   4.836   7.973
 6293TIP3    H140438   4.527   4.801   7.961
 6293TIP3    H240439   4.443   4.880   8.059
 6294TIP3   OH240440   0.642   0.079   8.514
 6294TIP3    H140441   0.726   0.060   8.556
 6294TIP3    H240442   0.663   0.082   8.420
 6295TIP3   OH240443   2.312   5.938   2.087
 6295TIP3    H140444   2.273   5.852   2.070
 6295TIP3    H240445   2.237   5.996   2.098
 6296TIP3   OH240446   3.690   3.107   1.250
 6296TIP3    H140447   3.728   3.021   1.234
 6296TIP3    H240448   3.683   3.113   1.345
 6297TIP3   OH240449   3.220   6.399   2.047
 6297TIP3    H140450   3.287   6.360   2.104
 6297TIP3    H240451   3.261   6.478   2.013
 6298TIP3   OH240452   6.191   6.435   8.195
 6298TIP3    H140453   6.191   6.348   8.234
 6298TIP3    H240454   6.109   6.440   8.146
 6299TIP3   OH240455   2.919   6.414   0.573
 6299TIP3    H140456   2.976   6.489   0.552
 6299TIP3    H240457   2.862   6.405   0.497
 6300TIP3   OH240458   3.768   3.004   6.878
 6300TIP3    H140459   3.774   2.936   6.811
 6300TIP3    H240460   3.799   3.084   6.834
 6301TIP3   OH240461   4.810   2.704   8.490
 6301TIP3    H140462   4.763   2.663   8.563
 6301TIP3    H240463   4.817   2.634   8.425
 6302TIP3   OH240464   3.974   1.554   7.058
 6302TIP3    H140465   3.949   1.602   7.136
 6302TIP3    H240466   3.909   1.579   6.992
 6303TIP3   OH240467   1.152   2.593   0.798
 6303TIP3    H140468   1.167   2.565   0.708
 6303TIP3    H240469   1.233   2.570   0.844
 6304TIP3   OH240470   3.503   6.450   0.795
 6304TIP3    H140471   3.586   6.496   0.810
 6304TIP3    H240472   3.484   6.464   0.702
 6305TIP3   OH240473   5.110   1.017   2.566
 6305TIP3    H140474   5.173   0.949   2.590
 6305TIP3    H240475   5.110   1.077   2.640
 6306TIP3   OH240476   1.593   6.045   6.865
 6306TIP3    H140477   1.623   5.955   6.875
 6306TIP3    H240478   1.632   6.092   6.938
 6307TIP3   OH240479   2.752   0.998   0.339
 6307TIP3    H140480   2.807   0.984   0.262
 6307TIP3    H240481   2.716   1.086   0.328
 6308TIP3   OH240482   2.716   1.475   2.159
 6308TIP3    H140483   2.809   1.494   2.164
 6308TIP3    H240484   2.687   1.516   2.077
 6309TIP3   OH240485   5.170   5.615   0.162
 6309TIP3    H140486   5.145   5.587   0.074
 6309TIP3    H240487   5.087   5.624   0.209
 6310TIP3   OH240488   6.670   2.016   1.471
 6310TIP3    H140489   6.627   2.060   1.398
 6310TIP3    H240490   6.635   1.927   1.468
 6311TIP3   OH240491   6.033   6.850   8.298
 6311TIP3    H140492   6.104   6.793   8.329
 6311TIP3    H240493   6.053   6.864   8.205
 6312TIP3   OH240494   6.581   0.359   8.242
 6312TIP3    H140495   6.663   0.400   8.214
 6312TIP3    H240496   6.513   0.423   8.218
 6313TIP3   OH240497   1.231   4.453   0.636
 6313TIP3    H140498   1.144   4.456   0.676
 6313TIP3    H240499   1.271   4.374   0.672
 6314TIP3   OH240500   1.702   2.783   0.943
 6314TIP3    H140501   1.685   2.737   1.025
 6314TIP3    H240502   1.791   2.815   0.951
 6315TIP3   OH240503   1.982   2.355   6.556
 6315TIP3    H140504   2.077   2.352   6.561
 6315TIP3    H240505   1.953   2.273   6.595
 6316TIP3   OH240506   2.554   2.831   0.929
 6316TIP3    H140507   2.478   2.773   0.943
 6316TIP3    H240508   2.574   2.820   0.836
 6317TIP3   OH240509   2.805   0.850   7.770
 6317TIP3    H140510   2.743   0.910   7.813
 6317TIP3    H240511   2.788   0.862   7.676
 6318TIP3   OH240512   4.844   3.368   6.378
 6318TIP3    H140513   4.931   3.330   6.365
 6318TIP3    H240514   4.861   3.461   6.394
 6319TIP3   OH240515   6.777   0.922   6.667
 6319TIP3    H140516   6.843   0.989   6.685
 6319TIP3    H240517   6.789   0.900   6.575
 6320TIP3   OH240518   3.179   6.015   7.382
 6320TIP3    H140519   3.252   6.007   7.320
 6320TIP3    H240520   3.208   5.969   7.460
 6321TIP3   OH240521   4.332   1.077   7.879
 6321TIP3    H140522   4.426   1.094   7.888
 6321TIP3    H240523   4.291   1.163   7.885
 6322TIP3   OH240524   6.239   3.026   7.521
 6322TIP3    H140525   6.144   3.013   7.524
 6322TIP3    H240526   6.250   3.118   7.497
 6323TIP3   OH240527   4.131   5.533   7.489
 6323TIP3    H140528   4.047   5.566   7.458
 6323TIP3    H240529   4.108   5.472   7.560
 6324TIP3   OH240530   3.002   1.481   8.427
 6324TIP3    H140531   2.989   1.417   8.498
 6324TIP3    H240532   3.065   1.543   8.463
 6325TIP3   OH240533   4.704   2.827   2.012
 6325TIP3    H140534   4.638   2.822   2.081
 6325TIP3    H240535   4.679   2.904   1.961
 6326TIP3   OH240536   2.933   2.355   0.139
 6326TIP3    H140537   3.001   2.407   0.183
 6326TIP3    H240538   2.914   2.284   0.201
 6327TIP3   OH240539   4.403   6.778   6.191
 6327TIP3    H140540   4.380   6.700   6.141
 6327TIP3    H240541   4.440   6.744   6.272
 6328TIP3   OH240542   2.039   0.753   1.503
 6328TIP3    H140543   1.990   0.677   1.534
 6328TIP3    H240544   1.974   0.824   1.500
 6329TIP3   OH240545   6.526   1.424   0.746
 6329TIP3    H140546   6.456   1.419   0.811
 6329TIP3    H240547   6.570   1.340   0.752
 6330TIP3   OH240548   2.702   0.213   0.936
 6330TIP3    H140549   2.688   0.158   0.859
 6330TIP3    H240550   2.614   0.242   0.961
 6331TIP3   OH240551   4.077   3.233   1.847
 6331TIP3    H140552   4.172   3.227   1.836
 6331TIP3    H240553   4.065   3.282   1.928
 6332TIP3   OH240554   0.786   5.026   6.516
 6332TIP3    H140555   0.802   4.946   6.466
 6332TIP3    H240556   0.869   5.045   6.559
 6333TIP3   OH240557   2.826   4.210   7.971
 6333TIP3    H140558   2.906   4.261   7.984
 6333TIP3    H240559   2.856   4.127   7.934
 6334TIP3   OH240560   5.348   3.235   1.418
 6334TIP3    H140561   5.443   3.226   1.422
 6334TIP3    H240562   5.323   3.191   1.337
 6335TIP3   OH240563   6.284   1.685   1.329
 6335TIP3    H140564   6.202   1.661   1.286
 6335TIP3    H240565   6.296   1.619   1.397
 6336TIP3   OH240566   4.169   2.748   8.452
 6336TIP3    H140567   4.235   2.679   8.444
 6336TIP3    H240568   4.089   2.702   8.475
 6337TIP3   OH240569   4.991   1.009   0.912
 6337TIP3    H140570   5.034   1.083   0.868
 6337TIP3    H240571   5.062   0.948   0.932
 6338TIP3   OH240572   4.363   4.506   7.281
 6338TIP3    H140573   4.424   4.574   7.312
 6338TIP3    H240574   4.277   4.536   7.311
 6339TIP3   OH240575   6.298   1.917   7.516
 6339TIP3    H140576   6.392   1.911   7.532
 6339TIP3    H240577   6.288   1.991   7.457
 6340TIP3   OH240578   4.138   4.705   7.318
 6340TIP3    H140579   4.145   4.773   7.251
 6340TIP3    H240580   4.047   4.675   7.313
 6341TIP3   OH240581   2.864   0.653   8.003
 6341TIP3    H140582   2.785   0.626   8.050
 6341TIP3    H240583   2.833   0.715   7.937
 6342TIP3   OH240584   1.642   4.247   0.581
 6342TIP3    H140585   1.611   4.158   0.563
 6342TIP3    H240586   1.570   4.289   0.627
 6343TIP3   OH240587   5.198   4.263   1.748
 6343TIP3    H140588   5.248   4.302   1.819
 6343TIP3    H240589   5.260   4.257   1.675
 6344TIP3   OH240590   2.496   6.788   8.545
 6344TIP3    H140591   2.520   6.841   8.470
 6344TIP3    H240592   2.564   6.721   8.551
 6345TIP3   OH240593   3.866   1.653   2.222
 6345TIP3    H140594   3.855   1.563   2.193
 6345TIP3    H240595   3.841   1.706   2.146
 6346TIP3   OH240596   5.343   1.936   8.159
 6346TIP3    H140597   5.384   1.871   8.215
 6346TIP3    H240598   5.413   1.997   8.136
 6347TIP3   OH240599   4.633   1.044   2.117
 6347TIP3    H140600   4.593   0.958   2.132
 6347TIP3    H240601   4.560   1.099   2.090
 6348TIP3   OH240602   3.251   4.813   1.838
 6348TIP3    H140603   3.287   4.746   1.895
 6348TIP3    H240604   3.228   4.766   1.757
 6349TIP3   OH240605   1.613   4.181   8.063
 6349TIP3    H140606   1.541   4.239   8.085
 6349TIP3    H240607   1.619   4.120   8.137
 6350TIP3   OH240608   2.635   5.795   1.999
 6350TIP3    H140609   2.578   5.720   1.981
 6350TIP3    H240610   2.576   5.861   2.037
 6351TIP3   OH240611   6.360   4.545   0.174
 6351TIP3    H140612   6.398   4.458   0.178
 6351TIP3    H240613   6.282   4.535   0.119
 6352TIP3   OH240614   5.568   2.875   6.862
 6352TIP3    H140615   5.474   2.896   6.865
 6352TIP3    H240616   5.610   2.955   6.832
 6353TIP3   OH240617   2.640   4.161   6.812
 6353TIP3    H140618   2.698   4.126   6.745
 6353TIP3    H240619   2.634   4.254   6.792
 6354TIP3   OH240620   3.746   1.821   1.693
 6354TIP3    H140621   3.837   1.852   1.695
 6354TIP3    H240622   3.694   1.900   1.675
 6355TIP3   OH240623   2.664   0.331   1.472
 6355TIP3    H140624   2.656   0.246   1.429
 6355TIP3    H240625   2.643   0.395   1.404
 6356TIP3   OH240626   1.849   0.873   0.864
 6356TIP3    H140627   1.898   0.955   0.864
 6356TIP3    H240628   1.861   0.838   0.952
 6357TIP3   OH240629   3.218   4.121   7.465
 6357TIP3    H140630   3.246   4.071   7.389
 6357TIP3    H240631   3.136   4.080   7.492
 6358TIP3   OH240632   5.503   5.387   0.483
 6358TIP3    H140633   5.440   5.381   0.555
 6358TIP3    H240634   5.480   5.468   0.437
 6359TIP3   OH240635   0.490   3.193   1.066
 6359TIP3    H140636   0.575   3.239   1.066
 6359TIP3    H240637   0.484   3.155   0.978
 6360TIP3   OH240638   6.785   0.366   0.128
 6360TIP3    H140639   6.692   0.372   0.106
 6360TIP3    H240640   6.817   0.456   0.123
 6361TIP3   OH240641   1.597   6.437   7.800
 6361TIP3    H140642   1.668   6.495   7.775
 6361TIP3    H240643   1.625   6.399   7.884
 6362TIP3   OH240644   4.722   0.545   0.146
 6362TIP3    H140645   4.789   0.479   0.134
 6362TIP3    H240646   4.764   0.614   0.198
 6363TIP3   OH240647   0.855   5.844   6.718
 6363TIP3    H140648   0.914   5.903   6.670
 6363TIP3    H240649   0.803   5.802   6.651
 6364TIP3   OH240650   2.211   0.539   6.411
 6364TIP3    H140651   2.146   0.595   6.369
 6364TIP3    H240652   2.160   0.468   6.450
 6365TIP3   OH240653   1.148   4.618   8.302
 6365TIP3    H140654   1.067   4.586   8.262
 6365TIP3    H240655   1.128   4.708   8.328
 6366TIP3   OH240656   1.593   1.167   6.892
 6366TIP3    H140657   1.550   1.186   6.975
 6366TIP3    H240658   1.685   1.191   6.907
 6367TIP3   OH240659   1.298   2.876   1.679
 6367TIP3    H140660   1.227   2.827   1.638
 6367TIP3    H240661   1.372   2.814   1.679
 6368TIP3   OH240662   5.839   4.514   1.212
 6368TIP3    H140663   5.925   4.491   1.177
 6368TIP3    H240664   5.839   4.478   1.301
 6369TIP3   OH240665   1.654   4.919   7.368
 6369TIP3    H140666   1.596   4.961   7.305
 6369TIP3    H240667   1.627   4.956   7.453
 6370TIP3   OH240668   1.554   3.545   0.012
 6370TIP3    H140669   1.580   3.576   0.099
 6370TIP3    H240670   1.548   3.625   8.579
 6371TIP3   OH240671   4.228   0.832   0.463
 6371TIP3    H140672   4.258   0.764   0.524
 6371TIP3    H240673   4.292   0.902   0.472
 6372TIP3   OH240674   2.340   2.047   8.068
 6372TIP3    H140675   2.391   2.128   8.075
 6372TIP3    H240676   2.373   2.005   7.989
 6373TIP3   OH240677   3.655   0.458   1.334
 6373TIP3    H140678   3.717   0.386   1.332
 6373TIP3    H240679   3.634   0.470   1.427
 6374TIP3   OH240680   5.394   2.293   2.097
 6374TIP3    H140681   5.317   2.348   2.089
 6374TIP3    H240682   5.364   2.205   2.074
 6375TIP3   OH240683   0.817   1.195   0.585
 6375TIP3    H140684   0.828   1.101   0.572
 6375TIP3    H240685   0.895   1.235   0.547
 6376TIP3   OH240686   4.821   0.814   1.183
 6376TIP3    H140687   4.764   0.785   1.255
 6376TIP3    H240688   4.894   0.858   1.227
 6377TIP3   OH240689   4.354   5.685   0.262
 6377TIP3    H140690   4.324   5.723   0.179
 6377TIP3    H240691   4.326   5.593   0.258
 6378TIP3   OH240692   4.232   6.789   1.094
 6378TIP3    H140693   4.256   6.748   1.177
 6378TIP3    H240694   4.310   6.780   1.040
 6379TIP3   OH240695   5.341   3.616   0.629
 6379TIP3    H140696   5.309   3.706   0.622
 6379TIP3    H240697   5.264   3.562   0.616
 6380TIP3   OH240698   3.814   1.558   1.704
 6380TIP3    H140699   3.839   1.530   1.616
 6380TIP3    H240700   3.819   1.653   1.701
 6381TIP3   OH240701   5.923   5.801   0.817
 6381TIP3    H140702   5.974   5.872   0.776
 6381TIP3    H240703   5.832   5.828   0.805
 6382TIP3   OH240704   3.031   5.508   0.305
 6382TIP3    H140705   3.092   5.469   0.243
 6382TIP3    H240706   3.032   5.602   0.286
 6383TIP3   OH240707   2.308   2.815   7.273
 6383TIP3    H140708   2.255   2.735   7.260
 6383TIP3    H240709   2.351   2.829   7.189
 6384TIP3   OH240710   1.106   6.693   7.678
 6384TIP3    H140711   1.019   6.669   7.709
 6384TIP3    H240712   1.128   6.772   7.728
 6385TIP3   OH240713   4.505   3.786   1.257
 6385TIP3    H140714   4.562   3.820   1.326
 6385TIP3    H240715   4.419   3.777   1.298
 6386TIP3   OH240716   4.353   5.322   2.268
 6386TIP3    H140717   4.267   5.317   2.226
 6386TIP3    H240718   4.413   5.286   2.203
 6387TIP3   OH240719   0.613   4.364   8.207
 6387TIP3    H140720   0.610   4.432   8.139
 6387TIP3    H240721   0.523   4.355   8.236
 6388TIP3   OH240722   6.192   1.674   7.425
 6388TIP3    H140723   6.180   1.608   7.494
 6388TIP3    H240724   6.242   1.744   7.467
 6389TIP3   OH240725   1.464   3.629   1.756
 6389TIP3    H140726   1.483   3.630   1.850
 6389TIP3    H240727   1.368   3.638   1.752
 6390TIP3   OH240728   1.776   6.381   6.495
 6390TIP3    H140729   1.708   6.313   6.501
 6390TIP3    H240730   1.855   6.337   6.526
 6391TIP3   OH240731   5.269   6.464   7.081
 6391TIP3    H140732   5.186   6.478   7.036
 6391TIP3    H240733   5.277   6.539   7.140
 6392TIP3   OH240734   0.424   5.591   8.392
 6392TIP3    H140735   0.479   5.668   8.377
 6392TIP3    H240736   0.485   5.524   8.423
 6393TIP3   OH240737   6.643   4.080   7.002
 6393TIP3    H140738   6.557   4.086   6.958
 6393TIP3    H240739   6.703   4.122   6.940
 6394TIP3   OH240740   3.640   0.253   8.506
 6394TIP3    H140741   3.691   0.174   8.521
 6394TIP3    H240742   3.613   0.282   8.593
 6395TIP3   OH240743   5.620   5.139   0.472
 6395TIP3    H140744   5.713   5.138   0.495
 6395TIP3    H240745   5.588   5.222   0.506
 6396TIP3   OH240746   1.869   0.984   7.930
 6396TIP3    H140747   1.875   0.941   7.845
 6396TIP3    H240748   1.898   0.918   7.993
 6397TIP3   OH240749   0.438   1.752   7.575
 6397TIP3    H140750   0.421   1.721   7.486
 6397TIP3    H240751   0.466   1.674   7.623
 6398TIP3   OH240752   3.711   0.648   1.139
 6398TIP3    H140753   3.696   0.603   1.056
 6398TIP3    H240754   3.675   0.589   1.205
 6399TIP3   OH240755   3.558   0.253   6.775
 6399TIP3    H140756   3.618   0.322   6.747
 6399TIP3    H240757   3.538   0.204   6.695
 6400TIP3   OH240758   5.983   2.442   2.041
 6400TIP3    H140759   5.889   2.425   2.034
 6400TIP3    H240760   6.024   2.358   2.022
 6401TIP3   OH240761   4.784   4.532   8.211
 6401TIP3    H140762   4.872   4.567   8.196
 6401TIP3    H240763   4.796   4.468   8.281
 6402TIP3   OH240764   5.069   2.394   1.494
 6402TIP3    H140765   5.144   2.387   1.554
 6402TIP3    H240766   4.995   2.416   1.550
 6403TIP3   OH240767   6.207   4.838   1.598
 6403TIP3    H140768   6.164   4.781   1.662
 6403TIP3    H240769   6.162   4.819   1.516
 6404TIP3   OH240770   3.308   1.108   2.255
 6404TIP3    H140771   3.237   1.160   2.216
 6404TIP3    H240772   3.357   1.074   2.180
 6405TIP3   OH240773   0.123   0.177   6.345
 6405TIP3    H140774   0.134   0.102   6.403
 6405TIP3    H240775   0.113   0.138   6.258
 6406TIP3   OH240776   3.966   0.432   0.655
 6406TIP3    H140777   3.913   0.364   0.697
 6406TIP3    H240778   3.904   0.483   0.604
 6407TIP3   OH240779   0.679   3.131   6.693
 6407TIP3    H140780   0.638   3.099   6.612
 6407TIP3    H240781   0.716   3.053   6.734
 6408TIP3   OH240782   5.160   1.141   2.254
 6408TIP3    H140783   5.173   1.076   2.184
 6408TIP3    H240784   5.168   1.090   2.335
 6409TIP3   OH240785   3.996   5.769   0.025
 6409TIP3    H140786   3.954   5.850   8.616
 6409TIP3    H240787   3.923   5.714   0.054
 6410TIP3   OH240788   0.252   5.133   7.299
 6410TIP3    H140789   0.343   5.160   7.294
 6410TIP3    H240790   0.203   5.214   7.313
 6411TIP3   OH240791   4.419   4.147   7.830
 6411TIP3    H140792   4.461   4.233   7.836
 6411TIP3    H240793   4.462   4.104   7.757
 6412TIP3   OH240794   6.024   4.017   1.966
 6412TIP3    H140795   5.962   4.008   2.039
 6412TIP3    H240796   6.094   3.955   1.986
 6413TIP3   OH240797   0.431   1.702   8.492
 6413TIP3    H140798   0.518   1.731   8.465
 6413TIP3    H240799   0.395   1.777   8.540
 6414TIP3   OH240800   4.315   6.046   7.500
 6414TIP3    H140801   4.351   5.966   7.461
 6414TIP3    H240802   4.229   6.056   7.460
 6415TIP3   OH240803   3.391   3.774   2.342
 6415TIP3    H140804   3.336   3.746   2.415
 6415TIP3    H240805   3.384   3.869   2.341
 6416TIP3   OH240806   5.270   6.728   0.541
 6416TIP3    H140807   5.203   6.683   0.593
 6416TIP3    H240808   5.262   6.820   0.567
 6417TIP3   OH240809   1.057   0.841   0.881
 6417TIP3    H140810   1.128   0.817   0.939
 6417TIP3    H240811   1.098   0.894   0.812
 6418TIP3   OH240812   5.778   0.116   6.612
 6418TIP3    H140813   5.737   0.096   6.696
 6418TIP3    H240814   5.816   0.203   6.624
 6419TIP3   OH240815   0.268   0.017   6.687
 6419TIP3    H140816   0.299   6.851   6.748
 6419TIP3    H240817   0.332   0.014   6.615
 6420TIP3   OH240818   2.045   5.529   1.758
 6420TIP3    H140819   2.013   5.578   1.834
 6420TIP3    H240820   2.064   5.597   1.693
 6421TIP3   OH240821   3.473   6.865   8.358
 6421TIP3    H140822   3.532   0.039   8.342
 6421TIP3    H240823   3.400   0.003   8.406
 6422TIP3   OH240824   3.509   6.429   2.241
 6422TIP3    H140825   3.589   6.395   2.282
 6422TIP3    H240826   3.448   6.356   2.242
 6423TIP3   OH240827   3.799   3.881   7.858
 6423TIP3    H140828   3.767   3.953   7.913
 6423TIP3    H240829   3.851   3.923   7.790
 6424TIP3   OH240830   6.429   2.905   1.851
 6424TIP3    H140831   6.515   2.864   1.853
 6424TIP3    H240832   6.436   2.976   1.915
 6425TIP3   OH240833   0.413   6.122   7.151
 6425TIP3    H140834   0.376   6.159   7.071
 6425TIP3    H240835   0.502   6.157   7.155
 6426TIP3   OH240836   3.861   1.946   6.910
 6426TIP3    H140837   3.902   1.927   6.826
 6426TIP3    H240838   3.893   2.033   6.933
 6427TIP3   OH240839   4.247   2.832   1.535
 6427TIP3    H140840   4.261   2.915   1.581
 6427TIP3    H240841   4.246   2.857   1.442
 6428TIP3   OH240842   3.689   1.508   0.066
 6428TIP3    H140843   3.688   1.555   0.149
 6428TIP3    H240844   3.653   1.422   0.087
 6429TIP3   OH240845   3.134   5.130   6.581
 6429TIP3    H140846   3.206   5.144   6.520
 6429TIP3    H240847   3.156   5.048   6.626
 6430TIP3   OH240848   3.721   0.058   0.073
 6430TIP3    H140849   3.785   0.128   0.063
 6430TIP3    H240850   3.772   6.881   0.096
 6431TIP3   OH240851   0.885   5.735   2.049
 6431TIP3    H140852   0.906   5.643   2.062
 6431TIP3    H240853   0.927   5.780   2.123
 6432TIP3   OH240854   0.874   3.166   0.943
 6432TIP3    H140855   0.793   3.189   0.898
 6432TIP3    H240856   0.848   3.154   1.035
 6433TIP3   OH240857   4.464   0.809   0.197
 6433TIP3    H140858   4.406   0.821   0.272
 6433TIP3    H240859   4.503   0.896   0.185
 6434TIP3   OH240860   4.064   6.509   0.294
 6434TIP3    H140861   3.983   6.509   0.244
 6434TIP3    H240862   4.074   6.599   0.324
 6435TIP3   OH240863   2.393   3.123   8.442
 6435TIP3    H140864   2.377   3.131   8.536
 6435TIP3    H240865   2.371   3.210   8.407
 6436TIP3   OH240866   5.795   2.247   1.739
 6436TIP3    H140867   5.768   2.338   1.728
 6436TIP3    H240868   5.730   2.196   1.690
 6437TIP3   OH240869   4.187   0.883   6.910
 6437TIP3    H140870   4.132   0.933   6.850
 6437TIP3    H240871   4.155   0.793   6.903
 6438TIP3   OH240872   3.526   0.553   0.647
 6438TIP3    H140873   3.490   0.485   0.703
 6438TIP3    H240874   3.522   0.633   0.699
 6439TIP3   OH240875   0.404   3.717   8.595
 6439TIP3    H140876   0.361   3.798   0.001
 6439TIP3    H240877   0.492   3.724   0.012
 6440TIP3   OH240878   1.886   6.279   1.345
 6440TIP3    H140879   1.918   6.236   1.425
 6440TIP3    H240880   1.791   6.267   1.348
 6441TIP3   OH240881   2.512   6.406   8.185
 6441TIP3    H140882   2.540   6.396   8.276
 6441TIP3    H240883   2.424   6.370   8.183
 6442TIP3   OH240884   0.653   1.465   6.957
 6442TIP3    H140885   0.683   1.374   6.960
 6442TIP3    H240886   0.690   1.500   6.875
 6443TIP3   OH240887   3.959   4.027   7.104
 6443TIP3    H140888   3.949   4.030   7.199
 6443TIP3    H240889   3.874   4.055   7.070
 6444TIP3   OH240890   6.180   5.072   6.894
 6444TIP3    H140891   6.120   5.117   6.835
 6444TIP3    H240892   6.237   5.141   6.927
 6445TIP3   OH240893   5.594   1.041   0.646
 6445TIP3    H140894   5.527   1.052   0.714
 6445TIP3    H240895   5.563   1.093   0.572
 6446TIP3   OH240896   6.691   0.158   6.802
 6446TIP3    H140897   6.706   0.100   6.877
 6446TIP3    H240898   6.749   0.125   6.734
 6447TIP3   OH240899   3.428   3.580   1.599
 6447TIP3    H140900   3.335   3.599   1.585
 6447TIP3    H240901   3.472   3.664   1.590
 6448TIP3   OH240902   5.571   3.004   0.986
 6448TIP3    H140903   5.631   2.964   0.923
 6448TIP3    H240904   5.506   2.936   1.003
 6449TIP3   OH240905   4.492   2.848   7.202
 6449TIP3    H140906   4.410   2.803   7.222
 6449TIP3    H240907   4.538   2.852   7.286
 6450TIP3   OH240908   1.040   4.977   0.746
 6450TIP3    H140909   1.104   5.034   0.788
 6450TIP3    H240910   1.075   4.962   0.658
 6451TIP3   OH240911   2.660   3.384   0.940
 6451TIP3    H140912   2.600   3.336   0.884
 6451TIP3    H240913   2.714   3.434   0.879
 6452TIP3   OH240914   1.237   0.838   0.286
 6452TIP3    H140915   1.292   0.910   0.319
 6452TIP3    H240916   1.292   0.760   0.296
 6453TIP3   OH240917   1.434   6.084   1.502
 6453TIP3    H140918   1.370   6.113   1.436
 6453TIP3    H240919   1.380   6.051   1.574
 6454TIP3   OH240920   2.616   3.780   1.466
 6454TIP3    H140921   2.525   3.783   1.437
 6454TIP3    H240922   2.664   3.747   1.391
 6455TIP3   OH240923   6.360   3.169   0.879
 6455TIP3    H140924   6.374   3.080   0.911
 6455TIP3    H240925   6.312   3.213   0.949
 6456TIP3   OH240926   3.172   2.527   0.206
 6456TIP3    H140927   3.160   2.621   0.220
 6456TIP3    H240928   3.241   2.502   0.268
 6457TIP3   OH240929   6.884   1.381   2.055
 6457TIP3    H140930   6.808   1.437   2.041
 6457TIP3    H240931   6.877   1.352   2.145
 6458TIP3   OH240932   3.162   0.488   0.882
 6458TIP3    H140933   3.147   0.578   0.911
 6458TIP3    H240934   3.257   0.478   0.884
 6459TIP3   OH240935   6.344   5.937   7.873
 6459TIP3    H140936   6.364   5.903   7.786
 6459TIP3    H240937   6.324   5.859   7.925
 6460TIP3   OH240938   4.612   3.873   1.744
 6460TIP3    H140939   4.549   3.945   1.735
 6460TIP3    H240940   4.610   3.851   1.837
 6461TIP3   OH240941   2.629   0.188   6.226
 6461TIP3    H140942   2.662   0.129   6.294
 6461TIP3    H240943   2.706   0.211   6.174
 6462TIP3   OH240944   0.847   5.737   8.559
 6462TIP3    H140945   0.783   5.758   8.492
 6462TIP3    H240946   0.804   5.670   8.612
 6463TIP3   OH240947   6.804   6.875   1.970
 6463TIP3    H140948   6.747   0.026   2.028
 6463TIP3    H240949   6.816   0.031   1.893
 6464TIP3   OH240950   2.327   1.394   0.298
 6464TIP3    H140951   2.293   1.454   0.232
 6464TIP3    H240952   2.250   1.350   0.333
 6465TIP3   OH240953   2.741   0.349   1.832
 6465TIP3    H140954   2.761   0.442   1.836
 6465TIP3    H240955   2.747   0.319   1.922
 6466TIP3   OH240956   0.425   5.962   0.290
 6466TIP3    H140957   0.503   5.909   0.308
 6466TIP3    H240958   0.381   5.917   0.219
 6467TIP3   OH240959   1.379   4.710   7.356
 6467TIP3    H140960   1.461   4.667   7.333
 6467TIP3    H240961   1.312   4.641   7.349
 6468TIP3   OH240962   1.629   2.662   7.498
 6468TIP3    H140963   1.626   2.680   7.404
 6468TIP3    H240964   1.700   2.598   7.508
 6469TIP3   OH240965   3.871   2.165   2.143
 6469TIP3    H140966   3.913   2.241   2.184
 6469TIP3    H240967   3.926   2.091   2.167
 6470TIP3   OH240968   4.557   3.974   8.344
 6470TIP3    H140969   4.520   3.886   8.355
 6470TIP3    H240970   4.558   3.988   8.249
 6471TIP3   OH240971   4.156   1.489   1.275
 6471TIP3    H140972   4.098   1.565   1.261
 6471TIP3    H240973   4.237   1.527   1.309
 6472TIP3   OH240974   0.568   2.271   8.619
 6472TIP3    H140975   0.633   2.202   0.014
 6472TIP3    H240976   0.544   2.262   8.527
 6473TIP3   OH240977   6.453   4.139   6.822
 6473TIP3    H140978   6.370   4.126   6.775
 6473TIP3    H240979   6.476   4.230   6.804
 6474TIP3   OH240980   5.699   4.282   7.269
 6474TIP3    H140981   5.655   4.313   7.348
 6474TIP3    H240982   5.700   4.186   7.279
 6475TIP3   OH240983   0.612   6.488   1.825
 6475TIP3    H140984   0.586   6.470   1.734
 6475TIP3    H240985   0.692   6.540   1.817
 6476TIP3   OH240986   6.872   3.074   6.660
 6476TIP3    H140987   6.886   3.168   6.663
 6476TIP3    H240988   0.034   3.038   6.724
 6477TIP3   OH240989   6.549   4.337   0.498
 6477TIP3    H140990   6.530   4.412   0.441
 6477TIP3    H240991   6.645   4.333   0.500
 6478TIP3   OH240992   4.533   4.361   0.344
 6478TIP3    H140993   4.483   4.386   0.266
 6478TIP3    H240994   4.505   4.271   0.362
 6479TIP3   OH240995   4.947   2.219   1.017
 6479TIP3    H140996   4.867   2.174   0.989
 6479TIP3    H240997   4.953   2.200   1.111
 6480TIP3   OH240998   0.873   2.955   1.405
 6480TIP3    H140999   0.858   2.871   1.361
 6480TIP3    H241000   0.801   2.962   1.467
 6481TIP3   OH241001   6.045   3.704   7.673
 6481TIP3    H141002   5.954   3.721   7.695
 6481TIP3    H241003   6.043   3.673   7.583
 6482TIP3   OH241004   1.700   5.434   6.515
 6482TIP3    H141005   1.658   5.469   6.436
 6482TIP3    H241006   1.635   5.376   6.553
 6483TIP3   OH241007   4.437   4.947   1.998
 6483TIP3    H141008   4.464   4.875   2.055
 6483TIP3    H241009   4.351   4.973   2.030
 6484TIP3   OH241010   4.330   6.006   8.584
 6484TIP3    H141011   4.406   6.028   0.019
 6484TIP3    H241012   4.261   6.063   8.616
 6485TIP3   OH241013   0.413   1.985   7.280
 6485TIP3    H141014   0.421   1.911   7.220
 6485TIP3    H241015   0.424   2.062   7.224
 6486TIP3   OH241016   3.354   1.171   1.996
 6486TIP3    H141017   3.280   1.216   2.037
 6486TIP3    H241018   3.354   1.203   1.906
 6487TIP3   OH241019   6.700   4.545   1.834
 6487TIP3    H141020   6.721   4.467   1.886
 6487TIP3    H241021   6.766   4.546   1.765
 6488TIP3   OH241022   0.873   5.186   2.085
 6488TIP3    H141023   0.939   5.117   2.081
 6488TIP3    H241024   0.804   5.151   2.141
 6489TIP3   OH241025   4.785   5.672   0.778
 6489TIP3    H141026   4.806   5.756   0.737
 6489TIP3    H241027   4.691   5.675   0.795
 6490TIP3   OH241028   6.504   6.583   8.108
 6490TIP3    H141029   6.599   6.571   8.110
 6490TIP3    H241030   6.485   6.632   8.188
 6491TIP3   OH241031   6.749   3.734   2.329
 6491TIP3    H141032   6.674   3.678   2.309
 6491TIP3    H241033   6.722   3.785   2.405
 6492TIP3   OH241034   6.457   0.642   1.028
 6492TIP3    H141035   6.392   0.709   1.004
 6492TIP3    H241036   6.442   0.572   0.965
 6493TIP3   OH241037   1.693   5.540   0.077
 6493TIP3    H141038   1.694   5.635   0.082
 6493TIP3    H241039   1.603   5.518   0.053
 6494TIP3   OH241040   4.852   4.216   6.925
 6494TIP3    H141041   4.808   4.289   6.969
 6494TIP3    H241042   4.793   4.141   6.938
 6495TIP3   OH241043   4.974   3.446   8.265
 6495TIP3    H141044   4.998   3.354   8.268
 6495TIP3    H241045   4.963   3.471   8.357
 6496TIP3   OH241046   0.514   2.723   6.423
 6496TIP3    H141047   0.567   2.644   6.435
 6496TIP3    H241048   0.432   2.691   6.384
 6497TIP3   OH241049   5.712   0.555   2.202
 6497TIP3    H141050   5.706   0.476   2.256
 6497TIP3    H241051   5.794   0.544   2.154
 6498TIP3   OH241052   3.671   1.332   6.920
 6498TIP3    H141053   3.576   1.331   6.930
 6498TIP3    H241054   3.701   1.255   6.968
 6499TIP3   OH241055   0.325   4.511   7.718
 6499TIP3    H141056   0.326   4.423   7.679
 6499TIP3    H241057   0.263   4.560   7.664
 6500TIP3   OH241058   4.266   2.403   0.307
 6500TIP3    H141059   4.357   2.385   0.331
 6500TIP3    H241060   4.250   2.345   0.233
 6501TIP3   OH241061   0.759   4.771   7.294
 6501TIP3    H141062   0.713   4.753   7.376
 6501TIP3    H241063   0.817   4.696   7.282
 6502TIP3   OH241064   6.426   6.877   7.117
 6502TIP3    H141065   6.406   6.801   7.173
 6502TIP3    H241066   6.431   6.841   7.029
 6503TIP3   OH241067   4.244   2.903   0.198
 6503TIP3    H141068   4.295   2.949   0.131
 6503TIP3    H241069   4.252   2.958   0.276
 6504TIP3   OH241070   2.177   2.814   0.689
 6504TIP3    H141071   2.181   2.769   0.604
 6504TIP3    H241072   2.269   2.824   0.714
 6505TIP3   OH241073   1.219   6.129   7.793
 6505TIP3    H141074   1.270   6.049   7.806
 6505TIP3    H241075   1.263   6.194   7.847
 6506TIP3   OH241076   2.308   6.851   0.278
 6506TIP3    H141077   2.399   6.879   0.288
 6506TIP3    H241078   2.259   0.033   0.271
 6507TIP3   OH241079   3.625   1.173   7.651
 6507TIP3    H141080   3.676   1.254   7.649
 6507TIP3    H241081   3.679   1.109   7.605
 6508TIP3   OH241082   1.633   2.001   1.351
 6508TIP3    H141083   1.655   1.908   1.348
 6508TIP3    H241084   1.687   2.036   1.422
 6509TIP3   OH241085   3.653   0.074   6.454
 6509TIP3    H141086   3.663   0.164   6.423
 6509TIP3    H241087   3.560   0.066   6.475
 6510TIP3   OH241088   5.898   6.725   7.980
 6510TIP3    H141089   5.868   6.744   7.891
 6510TIP3    H241090   5.967   6.789   7.997
 6511TIP3   OH241091   5.318   4.975   1.243
 6511TIP3    H141092   5.318   5.021   1.159
 6511TIP3    H241093   5.340   4.885   1.221
 6512TIP3   OH241094   6.432   1.990   0.264
 6512TIP3    H141095   6.426   2.048   0.340
 6512TIP3    H241096   6.346   1.950   0.258
 6513TIP3   OH241097   5.391   2.050   6.577
 6513TIP3    H141098   5.447   1.971   6.575
 6513TIP3    H241099   5.302   2.016   6.574
 6514TIP3   OH241100   5.359   5.921   1.145
 6514TIP3    H141101   5.342   5.877   1.062
 6514TIP3    H241102   5.320   5.864   1.211
 6515TIP3   OH241103   3.933   4.265   8.390
 6515TIP3    H141104   3.949   4.359   8.392
 6515TIP3    H241105   3.908   4.243   8.480
 6516TIP3   OH241106   6.679   6.110   6.951
 6516TIP3    H141107   6.770   6.138   6.957
 6516TIP3    H241108   6.666   6.054   7.028
 6517TIP3   OH241109   5.916   6.047   6.767
 6517TIP3    H141110   5.880   6.054   6.678
 6517TIP3    H241111   5.859   5.983   6.811
 6518TIP3   OH241112   3.421   3.967   0.751
 6518TIP3    H141113   3.463   3.961   0.837
 6518TIP3    H241114   3.489   3.942   0.689
 6519TIP3   OH241115   4.941   1.105   1.581
 6519TIP3    H141116   4.901   1.140   1.661
 6519TIP3    H241117   4.883   1.135   1.511
 6520TIP3   OH241118   2.567   0.486   1.232
 6520TIP3    H141119   2.540   0.572   1.200
 6520TIP3    H241120   2.516   0.424   1.180
 6521TIP3   OH241121   4.383   1.097   0.372
 6521TIP3    H141122   4.456   1.137   0.418
 6521TIP3    H241123   4.312   1.096   0.436
 6522TIP3   OH241124   0.518   6.886   8.049
 6522TIP3    H141125   0.598   6.899   8.099
 6522TIP3    H241126   0.479   6.806   8.086
 6523TIP3   OH241127   1.366   2.879   0.820
 6523TIP3    H141128   1.355   2.800   0.872
 6523TIP3    H241129   1.403   2.943   0.881
 6524TIP3   OH241130   0.226   0.727   1.865
 6524TIP3    H141131   0.174   0.794   1.820
 6524TIP3    H241132   0.238   0.659   1.799
 6525TIP3   OH241133   6.601   5.702   1.721
 6525TIP3    H141134   6.609   5.651   1.641
 6525TIP3    H241135   6.517   5.677   1.758
 6526TIP3   OH241136   1.914   6.842   6.604
 6526TIP3    H141137   1.961   6.763   6.576
 6526TIP3    H241138   1.854   6.861   6.533
 6527TIP3   OH241139   2.811   5.083   6.776
 6527TIP3    H141140   2.722   5.057   6.800
 6527TIP3    H241141   2.859   5.082   6.859
 6528TIP3   OH241142   4.014   2.277   0.595
 6528TIP3    H141143   4.107   2.296   0.583
 6528TIP3    H241144   4.011   2.184   0.619
 6529TIP3   OH241145   5.318   5.406   1.201
 6529TIP3    H141146   5.263   5.421   1.124
 6529TIP3    H241147   5.325   5.493   1.242
 6530TIP3   OH241148   2.239   1.601   0.112
 6530TIP3    H141149   2.188   1.521   0.098
 6530TIP3    H241150   2.287   1.613   0.030
 6531TIP3   OH241151   4.870   3.125   7.125
 6531TIP3    H141152   4.776   3.121   7.107
 6531TIP3    H241153   4.898   3.034   7.128
 6532TIP3   OH241154   5.831   0.868   7.524
 6532TIP3    H141155   5.834   0.905   7.612
 6532TIP3    H241156   5.826   0.945   7.466
 6533TIP3   OH241157   1.215   4.461   7.311
 6533TIP3    H141158   1.190   4.384   7.362
 6533TIP3    H241159   1.231   4.428   7.223
 6534TIP3   OH241160   1.180   5.621   1.243
 6534TIP3    H141161   1.236   5.604   1.319
 6534TIP3    H241162   1.199   5.548   1.183
 6535TIP3   OH241163   6.585   3.795   2.584
 6535TIP3    H141164   6.501   3.773   2.543
 6535TIP3    H241165   6.592   3.890   2.573
 6536TIP3   OH241166   1.581   6.893   7.686
 6536TIP3    H141167   1.556   6.844   7.764
 6536TIP3    H241168   1.622   6.827   7.629
 6537TIP3   OH241169   1.287   0.795   1.052
 6537TIP3    H141170   1.242   0.878   1.035
 6537TIP3    H241171   1.380   0.816   1.042
 6538TIP3   OH241172   2.596   3.311   8.536
 6538TIP3    H141173   2.641   3.246   8.589
 6538TIP3    H241174   2.616   3.394   8.577
 6539TIP3   OH241175   1.001   4.456   0.769
 6539TIP3    H141176   0.981   4.384   0.828
 6539TIP3    H241177   0.975   4.535   0.817
 6540TIP3   OH241178   4.204   1.579   8.192
 6540TIP3    H141179   4.157   1.535   8.262
 6540TIP3    H241180   4.158   1.662   8.180
 6541TIP3   OH241181   0.798   0.945   8.602
 6541TIP3    H141182   0.757   0.925   0.066
 6541TIP3    H241183   0.733   0.999   8.556
 6542TIP3   OH241184   0.287   5.507   1.328
 6542TIP3    H141185   0.288   5.602   1.330
 6542TIP3    H241186   0.298   5.481   1.419
 6543TIP3   OH241187   2.160   3.694   7.642
 6543TIP3    H141188   2.103   3.628   7.683
 6543TIP3    H241189   2.108   3.726   7.568
 6544TIP3   OH241190   4.606   0.474   1.871
 6544TIP3    H141191   4.576   0.495   1.960
 6544TIP3    H241192   4.699   0.454   1.881
 6545TIP3   OH241193   0.102   3.487   0.266
 6545TIP3    H141194   0.184   3.507   0.222
 6545TIP3    H241195   0.108   3.395   0.290
 6546TIP3   OH241196   0.747   5.582   8.180
 6546TIP3    H141197   0.754   5.545   8.268
 6546TIP3    H241198   0.773   5.511   8.122
 6547TIP3   OH241199   3.698   4.051   8.078
 6547TIP3    H141200   3.614   4.096   8.065
 6547TIP3    H241201   3.763   4.120   8.071
 6548TIP3   OH241202   2.256   1.614   1.693
 6548TIP3    H141203   2.344   1.622   1.732
 6548TIP3    H241204   2.215   1.699   1.710
 6549TIP3   OH241205   1.516   2.457   0.298
 6549TIP3    H141206   1.522   2.552   0.315
 6549TIP3    H241207   1.579   2.418   0.359
 6550TIP3   OH241208   1.554   5.255   0.349
 6550TIP3    H141209   1.553   5.284   0.258
 6550TIP3    H241210   1.480   5.302   0.389
 6551TIP3   OH241211   2.777   6.346   0.352
 6551TIP3    H141212   2.759   6.311   0.265
 6551TIP3    H241213   2.741   6.435   0.348
 6552TIP3   OH241214   6.775   4.371   1.465
 6552TIP3    H141215   6.740   4.347   1.379
 6552TIP3    H241216   6.781   4.466   1.463
 6553TIP3   OH241217   1.482   0.930   6.700
 6553TIP3    H141218   1.530   1.004   6.735
 6553TIP3    H241219   1.525   0.910   6.617
 6554TIP3   OH241220   6.793   6.823   0.111
 6554TIP3    H141221   6.735   6.749   0.094
 6554TIP3    H241222   6.788   6.875   0.031
 6555TIP3   OH241223   2.647   5.858   0.578
 6555TIP3    H141224   2.655   5.949   0.549
 6555TIP3    H241225   2.576   5.822   0.525
 6556TIP3   OH241226   1.645   0.581   0.064
 6556TIP3    H141227   1.625   0.515   8.617
 6556TIP3    H241228   1.627   0.665   0.020
 6557TIP3   OH241229   3.191   1.303   6.047
 6557TIP3    H141230   3.263   1.322   6.107
 6557TIP3    H241231   3.217   1.222   6.003
 6558TIP3   OH241232   0.413   2.564   7.117
 6558TIP3    H141233   0.505   2.543   7.103
 6558TIP3    H241234   0.389   2.516   7.196
 6559TIP3   OH241235   5.498   1.933   8.569
 6559TIP3    H141236   5.490   1.902   8.479
 6559TIP3    H241237   5.497   1.853   0.002
 6560TIP3   OH241238   0.479   4.712   0.838
 6560TIP3    H141239   0.564   4.755   0.833
 6560TIP3    H241240   0.493   4.627   0.798
 6561TIP3   OH241241   4.598   6.806   6.788
 6561TIP3    H141242   4.541   6.740   6.749
 6561TIP3    H241243   4.658   6.756   6.843
 6562TIP3   OH241244   3.064   0.455   8.107
 6562TIP3    H141245   3.030   0.413   8.186
 6562TIP3    H241246   2.995   0.516   8.080
 6563TIP3   OH241247   5.681   4.064   0.429
 6563TIP3    H141248   5.755   4.123   0.443
 6563TIP3    H241249   5.716   3.977   0.444
 6564TIP3   OH241250   5.883   0.540   1.330
 6564TIP3    H141251   5.927   0.490   1.261
 6564TIP3    H241252   5.842   0.613   1.284
 6565TIP3   OH241253   1.873   5.575   7.618
 6565TIP3    H141254   1.967   5.585   7.604
 6565TIP3    H241255   1.842   5.664   7.634
 6566TIP3   OH241256   2.939   5.184   7.870
 6566TIP3    H141257   2.844   5.178   7.881
 6566TIP3    H241258   2.970   5.096   7.889
 6567TIP3   OH241259   4.547   6.144   7.239
 6567TIP3    H141260   4.548   6.049   7.252
 6567TIP3    H241261   4.514   6.179   7.322
 6568TIP3   OH241262   6.144   6.074   1.218
 6568TIP3    H141263   6.138   6.157   1.170
 6568TIP3    H241264   6.057   6.035   1.209
 6569TIP3   OH241265   5.760   2.867   0.837
 6569TIP3    H141266   5.836   2.815   0.808
 6569TIP3    H241267   5.685   2.809   0.822
 6570TIP3   OH241268   1.682   0.587   0.914
 6570TIP3    H141269   1.702   0.652   0.982
 6570TIP3    H241270   1.727   0.619   0.836
 6571TIP3   OH241271   1.082   3.966   1.281
 6571TIP3    H141272   1.006   3.921   1.318
 6571TIP3    H241273   1.157   3.916   1.313
 6572TIP3   OH241274   0.924   0.316   8.351
 6572TIP3    H141275   0.842   0.340   8.393
 6572TIP3    H241276   0.919   0.221   8.341
 6573TIP3   OH241277   5.697   2.285   7.602
 6573TIP3    H141278   5.662   2.197   7.616
 6573TIP3    H241279   5.681   2.331   7.684
 6574TIP3   OH241280   1.979   3.550   1.570
 6574TIP3    H141281   2.043   3.590   1.628
 6574TIP3    H241282   1.940   3.480   1.622
 6575TIP3   OH241283   0.716   4.185   8.466
 6575TIP3    H141284   0.763   4.159   8.545
 6575TIP3    H241285   0.771   4.252   8.426
 6576TIP3   OH241286   5.132   2.131   7.886
 6576TIP3    H141287   5.115   2.163   7.798
 6576TIP3    H241288   5.058   2.163   7.938
 6577TIP3   OH241289   6.724   6.255   8.231
 6577TIP3    H141290   6.752   6.232   8.319
 6577TIP3    H241291   6.636   6.291   8.242
 6578TIP3   OH241292   3.127   0.303   6.960
 6578TIP3    H141293   3.205   0.248   6.955
 6578TIP3    H241294   3.082   0.288   6.877
 6579TIP3   OH241295   2.612   4.754   1.027
 6579TIP3    H141296   2.593   4.750   1.121
 6579TIP3    H241297   2.694   4.803   1.021
 6580TIP3   OH241298   3.715   6.855   7.080
 6580TIP3    H141299   3.669   0.023   7.129
 6580TIP3    H241300   3.787   6.828   7.137
 6581TIP3   OH241301   1.621   0.577   1.865
 6581TIP3    H141302   1.608   0.668   1.891
 6581TIP3    H241303   1.615   0.528   1.947
 6582TIP3   OH241304   0.206   6.630   7.940
 6582TIP3    H141305   0.203   6.554   7.998
 6582TIP3    H241306   0.297   6.633   7.910
 6583TIP3   OH241307   5.266   3.978   0.638
 6583TIP3    H141308   5.235   3.930   0.561
 6583TIP3    H241309   5.188   4.020   0.674
 6584TIP3   OH241310   0.853   2.185   7.726
 6584TIP3    H141311   0.799   2.245   7.674
 6584TIP3    H241312   0.887   2.239   7.797
 6585TIP3   OH241313   4.172   5.507   0.555
 6585TIP3    H141314   4.187   5.425   0.601
 6585TIP3    H241315   4.134   5.565   0.621
 6586TIP3   OH241316   4.609   0.196   2.066
 6586TIP3    H141317   4.684   0.143   2.039
 6586TIP3    H241318   4.534   0.138   2.056
 6587TIP3   OH241319   5.528   5.236   1.174
 6587TIP3    H141320   5.461   5.281   1.226
 6587TIP3    H241321   5.514   5.269   1.085
 6588TIP3   OH241322   4.142   0.250   1.743
 6588TIP3    H141323   4.139   0.183   1.810
 6588TIP3    H241324   4.234   0.277   1.740
 6589TIP3   OH241325   1.999   0.881   7.441
 6589TIP3    H141326   1.942   0.919   7.374
 6589TIP3    H241327   2.081   0.864   7.395
 6590TIP3   OH241328   3.023   5.244   0.429
 6590TIP3    H141329   3.000   5.328   0.390
 6590TIP3    H241330   3.111   5.256   0.463
 6591TIP3   OH241331   3.382   6.226   8.607
 6591TIP3    H141332   3.348   6.188   0.068
 6591TIP3    H241333   3.394   6.152   8.548
 6592TIP3   OH241334   3.230   2.097   0.731
 6592TIP3    H141335   3.139   2.125   0.730
 6592TIP3    H241336   3.225   2.001   0.733
 6593TIP3   OH241337   6.716   3.963   7.309
 6593TIP3    H141338   6.785   3.897   7.300
 6593TIP3    H241339   6.744   4.035   7.253
 6594TIP3   OH241340   6.868   6.099   7.625
 6594TIP3    H141341   6.790   6.061   7.666
 6594TIP3    H241342   0.020   6.132   7.698
 6595TIP3   OH241343   4.425   0.017   2.432
 6595TIP3    H141344   4.434   0.042   2.524
 6595TIP3    H241345   4.331   0.022   2.415
 6596TIP3   OH241346   6.220   6.327   1.772
 6596TIP3    H141347   6.182   6.289   1.692
 6596TIP3    H241348   6.272   6.256   1.810
 6597TIP3   OH241349   4.185   0.889   2.618
 6597TIP3    H141350   4.194   0.796   2.639
 6597TIP3    H241351   4.105   0.916   2.663
 6598TIP3   OH241352   5.905   1.011   1.201
 6598TIP3    H141353   5.903   1.037   1.109
 6598TIP3    H241354   5.869   1.087   1.247
 6599TIP3   OH241355   0.600   6.830   7.413
 6599TIP3    H141356   0.662   6.867   7.475
 6599TIP3    H241357   0.594   6.895   7.343
 6600TIP3   OH241358   5.754   5.015   0.067
 6600TIP3    H141359   5.664   5.045   0.055
 6600TIP3    H241360   5.808   5.083   0.027
 6601TIP3   OH241361   6.718   4.018   1.471
 6601TIP3    H141362   6.738   3.945   1.530
 6601TIP3    H241363   6.688   4.088   1.529
 6602TIP3   OH241364   3.706   2.663   0.578
 6602TIP3    H141365   3.640   2.626   0.637
 6602TIP3    H241366   3.781   2.605   0.585
 6603TIP3   OH241367   4.174   5.738   1.233
 6603TIP3    H141368   4.219   5.822   1.236
 6603TIP3    H241369   4.238   5.678   1.196
 6604TIP3   OH241370   1.744   3.153   7.169
 6604TIP3    H141371   1.666   3.192   7.130
 6604TIP3    H241372   1.806   3.225   7.175
 6605TIP3   OH241373   5.006   3.641   7.516
 6605TIP3    H141374   5.083   3.590   7.541
 6605TIP3    H241375   5.041   3.713   7.463
 6606TIP3   OH241376   4.309   0.388   1.497
 6606TIP3    H141377   4.382   0.396   1.436
 6606TIP3    H241378   4.343   0.336   1.570
 6607TIP3   OH241379   3.500   2.396   7.444
 6607TIP3    H141380   3.559   2.409   7.369
 6607TIP3    H241381   3.552   2.346   7.507
 6608TIP3   OH241382   3.276   3.040   1.336
 6608TIP3    H141383   3.276   3.129   1.301
 6608TIP3    H241384   3.319   3.048   1.421
 6609TIP3   OH241385   4.868   4.894   2.554
 6609TIP3    H141386   4.879   4.936   2.639
 6609TIP3    H241387   4.931   4.939   2.497
 6610TIP3   OH241388   5.150   2.027   6.292
 6610TIP3    H141389   5.144   1.990   6.380
 6610TIP3    H241390   5.116   1.959   6.234
 6611TIP3   OH241391   4.842   0.980   8.400
 6611TIP3    H141392   4.889   0.974   8.483
 6611TIP3    H241393   4.893   1.042   8.348
 6612TIP3   OH241394   5.187   1.706   0.845
 6612TIP3    H141395   5.266   1.653   0.835
 6612TIP3    H241396   5.212   1.777   0.904
 6613TIP3   OH241397   5.572   5.357   7.368
 6613TIP3    H141398   5.635   5.285   7.359
 6613TIP3    H241399   5.494   5.315   7.404
 6614TIP3   OH241400   5.610   4.512   7.742
 6614TIP3    H141401   5.527   4.551   7.770
 6614TIP3    H241402   5.671   4.586   7.741
 6615TIP3   OH241403   4.223   5.631   7.087
 6615TIP3    H141404   4.318   5.625   7.093
 6615TIP3    H241405   4.191   5.551   7.128
 6616TIP3   OH241406   6.182   2.811   0.065
 6616TIP3    H141407   6.177   2.839   8.593
 6616TIP3    H241408   6.222   2.885   0.111
 6617TIP3   OH241409   2.033   3.031   7.229
 6617TIP3    H141410   1.963   3.009   7.290
 6617TIP3    H241411   1.989   3.041   7.145
 6618TIP3   OH241412   2.774   3.413   1.641
 6618TIP3    H141413   2.858   3.366   1.647
 6618TIP3    H241414   2.722   3.363   1.579
 6619TIP3   OH241415   5.268   6.797   7.789
 6619TIP3    H141416   5.219   6.753   7.859
 6619TIP3    H241417   5.316   6.727   7.745
 6620TIP3   OH241418   6.144   1.671   8.464
 6620TIP3    H141419   6.163   1.593   8.516
 6620TIP3    H241420   6.061   1.652   8.420
 6621TIP3   OH241421   0.825   2.729   1.250
 6621TIP3    H141422   0.847   2.654   1.195
 6621TIP3    H241423   0.823   2.803   1.190
 6622TIP3   OH241424   1.443   6.354   0.825
 6622TIP3    H141425   1.367   6.313   0.784
 6622TIP3    H241426   1.469   6.423   0.764
 6623TIP3   OH241427   0.446   3.299   1.393
 6623TIP3    H141428   0.405   3.371   1.441
 6623TIP3    H241429   0.517   3.341   1.344
 6624TIP3   OH241430   3.019   3.209   8.388
 6624TIP3    H141431   2.955   3.273   8.419
 6624TIP3    H241432   3.025   3.144   8.457
 6625TIP3   OH241433   5.383   4.658   2.489
 6625TIP3    H141434   5.449   4.592   2.468
 6625TIP3    H241435   5.326   4.660   2.412
 6626TIP3   OH241436   4.976   2.479   7.781
 6626TIP3    H141437   4.954   2.526   7.862
 6626TIP3    H241438   4.911   2.510   7.718
 6627TIP3   OH241439   1.577   0.419   7.837
 6627TIP3    H141440   1.564   0.326   7.852
 6627TIP3    H241441   1.632   0.423   7.758
 6628TIP3   OH241442   4.519   2.857   1.310
 6628TIP3    H141443   4.606   2.895   1.303
 6628TIP3    H241444   4.517   2.817   1.397
 6629TIP3   OH241445   4.640   6.047   7.832
 6629TIP3    H141446   4.623   6.095   7.913
 6629TIP3    H241447   4.566   5.987   7.823
 6630TIP3   OH241448   4.989   6.659   0.517
 6630TIP3    H141449   4.946   6.573   0.522
 6630TIP3    H241450   4.968   6.701   0.600
 6631TIP3   OH241451   5.324   2.405   0.569
 6631TIP3    H141452   5.239   2.449   0.580
 6631TIP3    H241453   5.327   2.382   0.476
 6632TIP3   OH241454   2.855   3.403   8.479
 6632TIP3    H141455   2.764   3.431   8.474
 6632TIP3    H241456   2.904   3.476   8.440
 6633TIP3   OH241457   2.010   6.337   7.912
 6633TIP3    H141458   2.067   6.407   7.879
 6633TIP3    H241459   1.937   6.382   7.952
 6634TIP3   OH241460   0.802   3.647   8.313
 6634TIP3    H141461   0.723   3.650   8.259
 6634TIP3    H241462   0.815   3.554   8.331
 6635TIP3   OH241463   0.330   6.138   6.790
 6635TIP3    H141464   0.311   6.047   6.766
 6635TIP3    H241465   0.425   6.139   6.803
 6636TIP3   OH241466   5.106   4.038   8.544
 6636TIP3    H141467   5.027   3.995   8.509
 6636TIP3    H241468   5.072   4.113   8.592
 6637TIP3   OH241469   0.118   3.235   1.658
 6637TIP3    H141470   0.192   3.174   1.652
 6637TIP3    H241471   0.153   3.310   1.707
 6638TIP3   OH241472   3.370   1.389   0.558
 6638TIP3    H141473   3.370   1.408   0.464
 6638TIP3    H241474   3.463   1.388   0.582
 6639TIP3   OH241475   6.023   3.645   0.478
 6639TIP3    H141476   6.008   3.591   0.556
 6639TIP3    H241477   6.118   3.646   0.467
 6640TIP3   OH241478   4.479   4.411   1.017
 6640TIP3    H141479   4.568   4.431   1.045
 6640TIP3    H241480   4.471   4.316   1.030
 6641TIP3   OH241481   2.861   2.347   7.003
 6641TIP3    H141482   2.933   2.409   6.990
 6641TIP3    H241483   2.903   2.264   7.024
 6642TIP3   OH241484   2.449   2.596   0.484
 6642TIP3    H141485   2.434   2.604   0.389
 6642TIP3    H241486   2.385   2.532   0.513
 6643TIP3   OH241487   4.569   0.387   8.182
 6643TIP3    H141488   4.474   0.384   8.175
 6643TIP3    H241489   4.585   0.402   8.276
 6644TIP3   OH241490   5.511   0.146   0.065
 6644TIP3    H141491   5.596   0.176   0.032
 6644TIP3    H241492   5.483   0.079   0.002
 6645TIP3   OH241493   1.931   2.305   8.456
 6645TIP3    H141494   2.026   2.309   8.470
 6645TIP3    H241495   1.894   2.319   8.543
 6646TIP3   OH241496   1.046   5.246   6.990
 6646TIP3    H141497   1.105   5.210   6.924
 6646TIP3    H241498   1.033   5.337   6.964
 6647TIP3   OH241499   5.814   0.814   6.572
 6647TIP3    H141500   5.860   0.732   6.555
 6647TIP3    H241501   5.721   0.791   6.567
 6648TIP3   OH241502   6.272   2.637   6.466
 6648TIP3    H141503   6.197   2.670   6.515
 6648TIP3    H241504   6.236   2.566   6.413
 6649TIP3   OH241505   4.772   3.356   7.730
 6649TIP3    H141506   4.759   3.369   7.636
 6649TIP3    H241507   4.687   3.328   7.763
 6650TIP3   OH241508   1.031   0.506   1.892
 6650TIP3    H141509   0.994   0.454   1.964
 6650TIP3    H241510   1.040   0.594   1.928
 6651TIP3   OH241511   5.782   0.709   1.773
 6651TIP3    H141512   5.837   0.744   1.842
 6651TIP3    H241513   5.827   0.731   1.692
 6652TIP3   OH241514   0.943   4.555   7.325
 6652TIP3    H141515   1.033   4.576   7.303
 6652TIP3    H241516   0.945   4.461   7.345
 6653TIP3   OH241517   0.532   1.050   7.001
 6653TIP3    H141518   0.489   1.033   7.085
 6653TIP3    H241519   0.462   1.083   6.944
 6654TIP3   OH241520   4.834   2.959   8.381
 6654TIP3    H141521   4.885   2.945   8.302
 6654TIP3    H241522   4.825   2.871   8.419
 6655TIP3   OH241523   3.457   5.889   7.824
 6655TIP3    H141524   3.503   5.809   7.848
 6655TIP3    H241525   3.399   5.907   7.898
 6656TIP3   OH241526   1.002   0.814   0.132
 6656TIP3    H141527   1.040   0.847   0.213
 6656TIP3    H241528   0.942   0.882   0.103
 6657TIP3   OH241529   5.328   4.688   7.815
 6657TIP3    H141530   5.317   4.691   7.720
 6657TIP3    H241531   5.332   4.780   7.842
 6658TIP3   OH241532   1.841   2.969   6.846
 6658TIP3    H141533   1.927   2.983   6.807
 6658TIP3    H241534   1.803   2.897   6.795
 6659TIP3   OH241535   6.666   5.128   1.387
 6659TIP3    H141536   6.608   5.181   1.441
 6659TIP3    H241537   6.614   5.107   1.309
 6660TIP3   OH241538   1.462   3.557   0.766
 6660TIP3    H141539   1.515   3.573   0.688
 6660TIP3    H241540   1.402   3.633   0.770
 6661TIP3   OH241541   0.562   0.110   6.822
 6661TIP3    H141542   0.552   0.029   6.873
 6661TIP3    H241543   0.490   0.166   6.852
 6662TIP3   OH241544   2.781   0.989   6.842
 6662TIP3    H141545   2.837   0.952   6.774
 6662TIP3    H241546   2.702   0.934   6.841
 6663TIP3   OH241547   1.014   1.830   0.069
 6663TIP3    H141548   1.107   1.843   0.089
 6663TIP3    H241549   1.003   1.866   8.601
 6664TIP3   OH241550   2.200   3.935   0.797
 6664TIP3    H141551   2.160   3.858   0.837
 6664TIP3    H241552   2.246   3.978   0.869
 6665TIP3   OH241553   2.302   5.596   0.955
 6665TIP3    H141554   2.242   5.601   1.028
 6665TIP3    H241555   2.293   5.506   0.922
 6666TIP3   OH241556   1.363   1.901   1.488
 6666TIP3    H141557   1.374   1.974   1.426
 6666TIP3    H241558   1.268   1.886   1.489
 6667TIP3   OH241559   1.010   2.949   2.442
 6667TIP3    H141560   0.995   3.018   2.377
 6667TIP3    H241561   0.949   2.968   2.513
 6668TIP3   OH241562   5.939   3.074   1.380
 6668TIP3    H141563   5.927   2.999   1.438
 6668TIP3    H241564   5.942   3.036   1.292
 6669TIP3   OH241565   3.866   5.514   1.999
 6669TIP3    H141566   3.821   5.488   1.918
 6669TIP3    H241567   3.797   5.513   2.066
 6670TIP3   OH241568   3.073   4.260   7.849
 6670TIP3    H141569   3.142   4.325   7.840
 6670TIP3    H241570   3.116   4.184   7.887
 6671TIP3   OH241571   6.288   0.250   6.157
 6671TIP3    H141572   6.333   0.314   6.212
 6671TIP3    H241573   6.249   0.303   6.087
 6672TIP3   OH241574   1.820   0.889   7.666
 6672TIP3    H141575   1.886   0.871   7.598
 6672TIP3    H241576   1.746   0.925   7.617
 6673TIP3   OH241577   3.503   5.657   2.029
 6673TIP3    H141578   3.475   5.741   2.064
 6673TIP3    H241579   3.582   5.635   2.079
 6674TIP3   OH241580   1.966   1.019   0.393
 6674TIP3    H141581   2.017   0.974   0.461
 6674TIP3    H241582   1.900   1.068   0.441
 6675TIP3   OH241583   0.012   4.434   7.221
 6675TIP3    H141584   6.834   4.481   7.250
 6675TIP3    H241585   0.062   4.499   7.172
 6676TIP3   OH241586   4.226   4.401   6.870
 6676TIP3    H141587   4.272   4.484   6.860
 6676TIP3    H241588   4.150   4.408   6.813
 6677TIP3   OH241589   1.925   5.526   7.154
 6677TIP3    H141590   1.901   5.592   7.219
 6677TIP3    H241591   1.856   5.531   7.088
 6678TIP3   OH241592   1.632   6.309   6.142
 6678TIP3    H141593   1.619   6.403   6.132
 6678TIP3    H241594   1.723   6.299   6.170
 6679TIP3   OH241595   3.417   6.691   8.140
 6679TIP3    H141596   3.504   6.666   8.111
 6679TIP3    H241597   3.432   6.749   8.215
 6680TIP3   OH241598   1.898   5.500   0.254
 6680TIP3    H141599   1.914   5.412   0.219
 6680TIP3    H241600   1.821   5.532   0.208
 6681TIP3   OH241601   5.060   0.993   8.039
 6681TIP3    H141602   5.007   1.045   8.099
 6681TIP3    H241603   5.043   0.903   8.064
 6682TIP3   OH241604   0.823   4.648   0.928
 6682TIP3    H141605   0.817   4.725   0.871
 6682TIP3    H241606   0.763   4.585   0.890
 6683TIP3   OH241607   3.987   3.454   0.879
 6683TIP3    H141608   3.946   3.478   0.962
 6683TIP3    H241609   3.987   3.358   0.880
 6684TIP3   OH241610   6.820   3.565   8.106
 6684TIP3    H141611   6.879   3.552   8.180
 6684TIP3    H241612   6.864   3.521   8.033
 6685TIP3   OH241613   1.904   5.702   8.088
 6685TIP3    H141614   1.961   5.710   8.011
 6685TIP3    H241615   1.834   5.643   8.059
 6686TIP3   OH241616   5.569   3.569   0.329
 6686TIP3    H141617   5.600   3.541   0.242
 6686TIP3    H241618   5.487   3.615   0.311
 6687TIP3   OH241619   6.468   2.349   6.386
 6687TIP3    H141620   6.471   2.258   6.413
 6687TIP3    H241621   6.461   2.399   6.467
 6688TIP3   OH241622   0.368   6.608   1.867
 6688TIP3    H141623   0.311   6.566   1.803
 6688TIP3    H241624   0.452   6.564   1.858
 6689TIP3   OH241625   4.491   0.522   7.468
 6689TIP3    H141626   4.481   0.436   7.428
 6689TIP3    H241627   4.426   0.577   7.425
 6690TIP3   OH241628   6.320   2.526   1.635
 6690TIP3    H141629   6.310   2.431   1.631
 6690TIP3    H241630   6.317   2.546   1.728
 6691TIP3   OH241631   5.882   2.509   7.025
 6691TIP3    H141632   5.923   2.519   6.939
 6691TIP3    H241633   5.865   2.599   7.054
 6692TIP3   OH241634   3.126   3.524   0.697
 6692TIP3    H141635   3.050   3.469   0.675
 6692TIP3    H241636   3.150   3.565   0.614
 6693TIP3   OH241637   6.110   6.780   0.396
 6693TIP3    H141638   6.061   6.708   0.357
 6693TIP3    H241639   6.201   6.749   0.397
 6694TIP3   OH241640   4.176   6.008   8.352
 6694TIP3    H141641   4.204   6.051   8.271
 6694TIP3    H241642   4.249   6.022   8.413
 6695TIP3   OH241643   2.075   4.484   0.077
 6695TIP3    H141644   2.162   4.522   0.083
 6695TIP3    H241645   2.079   4.430   8.617
 6696TIP3   OH241646   1.823   1.212   7.533
 6696TIP3    H141647   1.834   1.285   7.472
 6696TIP3    H241648   1.801   1.253   7.616
 6697TIP3   OH241649   1.117   1.354   6.810
 6697TIP3    H141650   1.091   1.379   6.898
 6697TIP3    H241651   1.050   1.393   6.753
 6698TIP3   OH241652   2.692   3.295   6.229
 6698TIP3    H141653   2.641   3.216   6.243
 6698TIP3    H241654   2.777   3.277   6.269
 6699TIP3   OH241655   6.672   5.390   0.095
 6699TIP3    H141656   6.647   5.330   0.026
 6699TIP3    H241657   6.634   5.474   0.069
 6700TIP3   OH241658   2.136   1.060   1.523
 6700TIP3    H141659   2.186   0.990   1.566
 6700TIP3    H241660   2.186   1.140   1.542
 6701TIP3   OH241661   6.540   2.456   1.483
 6701TIP3    H141662   6.538   2.475   1.389
 6701TIP3    H241663   6.454   2.484   1.515
 6702TIP3   OH241664   1.184   6.303   8.303
 6702TIP3    H141665   1.156   6.346   8.222
 6702TIP3    H241666   1.280   6.304   8.299
 6703TIP3   OH241667   5.627   3.868   2.390
 6703TIP3    H141668   5.703   3.909   2.432
 6703TIP3    H241669   5.551   3.910   2.430
 6704TIP3   OH241670   2.839   0.291   8.613
 6704TIP3    H141671   2.912   0.231   0.009
 6704TIP3    H241672   2.877   0.361   8.559
 6705TIP3   OH241673   4.452   3.300   6.648
 6705TIP3    H141674   4.415   3.265   6.729
 6705TIP3    H241675   4.526   3.354   6.677
 6706TIP3   OH241676   0.172   3.950   1.605
 6706TIP3    H141677   0.232   3.928   1.676
 6706TIP3    H241678   0.159   3.867   1.558
 6707TIP3   OH241679   5.886   0.188   8.062
 6707TIP3    H141680   5.841   0.224   7.985
 6707TIP3    H241681   5.823   0.126   8.099
 6708TIP3   OH241682   2.316   4.784   0.699
 6708TIP3    H141683   2.291   4.696   0.672
 6708TIP3    H241684   2.411   4.779   0.714
 6709TIP3   OH241685   4.026   3.815   6.667
 6709TIP3    H141686   4.033   3.744   6.603
 6709TIP3    H241687   3.964   3.782   6.733
 6710TIP3   OH241688   6.847   5.621   8.539
 6710TIP3    H141689   0.023   5.618   8.481
 6710TIP3    H241690   6.840   5.532   8.574
 6711TIP3   OH241691   3.769   4.699   8.186
 6711TIP3    H141692   3.812   4.722   8.103
 6711TIP3    H241693   3.738   4.782   8.221
 6712TIP3   OH241694   3.774   6.898   2.085
 6712TIP3    H141695   3.757   0.007   1.991
 6712TIP3    H241696   3.732   0.074   2.124
 6713TIP3   OH241697   5.025   0.210   0.952
 6713TIP3    H141698   5.074   0.130   0.932
 6713TIP3    H241699   4.933   0.183   0.949
 6714TIP3   OH241700   5.283   1.169   7.768
 6714TIP3    H141701   5.197   1.136   7.740
 6714TIP3    H241702   5.345   1.115   7.720
 6715TIP3   OH241703   1.410   4.543   6.703
 6715TIP3    H141704   1.463   4.505   6.633
 6715TIP3    H241705   1.455   4.623   6.727
 6716TIP3   OH241706   3.511   4.181   1.840
 6716TIP3    H141707   3.432   4.172   1.787
 6716TIP3    H241708   3.488   4.244   1.908
 6717TIP3   OH241709   5.654   2.564   6.650
 6717TIP3    H141710   5.617   2.482   6.619
 6717TIP3    H241711   5.625   2.571   6.741
 6718TIP3   OH241712   3.415   6.856   2.148
 6718TIP3    H141713   3.487   6.817   2.098
 6718TIP3    H241714   3.429   0.050   2.139
 6719TIP3   OH241715   1.182   6.676   6.825
 6719TIP3    H141716   1.159   6.768   6.813
 6719TIP3    H241717   1.102   6.627   6.804
 6720TIP3   OH241718   4.800   4.130   7.580
 6720TIP3    H141719   4.747   4.059   7.616
 6720TIP3    H241720   4.877   4.087   7.544
 6721TIP3   OH241721   0.245   3.392   1.048
 6721TIP3    H141722   0.279   3.325   1.108
 6721TIP3    H241723   0.235   3.346   0.965
 6722TIP3   OH241724   6.313   4.870   0.254
 6722TIP3    H141725   6.281   4.815   0.326
 6722TIP3    H241726   6.350   4.946   0.298
 6723TIP3   OH241727   4.392   4.839   0.845
 6723TIP3    H141728   4.409   4.919   0.795
 6723TIP3    H241729   4.414   4.768   0.784
 6724TIP3   OH241730   6.589   2.106   1.059
 6724TIP3    H141731   6.578   2.137   1.149
 6724TIP3    H241732   6.658   2.040   1.065
 6725TIP3   OH241733   4.244   1.831   7.484
 6725TIP3    H141734   4.336   1.825   7.507
 6725TIP3    H241735   4.217   1.741   7.466
 6726TIP3   OH241736   2.440   0.734   1.328
 6726TIP3    H141737   2.415   0.827   1.320
 6726TIP3    H241738   2.510   0.734   1.394
 6727TIP3   OH241739   4.603   1.144   0.849
 6727TIP3    H141740   4.640   1.056   0.853
 6727TIP3    H241741   4.569   1.159   0.937
 6728TIP3   OH241742   0.842   0.711   7.699
 6728TIP3    H141743   0.775   0.775   7.674
 6728TIP3    H241744   0.915   0.728   7.639
 6729TIP3   OH241745   3.948   4.535   8.339
 6729TIP3    H141746   4.011   4.606   8.352
 6729TIP3    H241747   3.890   4.568   8.270
 6730TIP3   OH241748   3.667   5.520   2.196
 6730TIP3    H141749   3.702   5.528   2.284
 6730TIP3    H241750   3.647   5.427   2.187
 6731TIP3   OH241751   1.125   0.680   7.558
 6731TIP3    H141752   1.190   0.612   7.580
 6731TIP3    H241753   1.081   0.646   7.481
 6732TIP3   OH241754   1.783   6.033   7.727
 6732TIP3    H141755   1.701   6.070   7.693
 6732TIP3    H241756   1.773   6.037   7.822
 6733TIP3   OH241757   6.036   4.798   0.124
 6733TIP3    H141758   6.115   4.834   0.166
 6733TIP3    H241759   5.963   4.842   0.168
 6734TIP3   OH241760   6.350   5.425   0.164
 6734TIP3    H141761   6.369   5.503   0.112
 6734TIP3    H241762   6.436   5.384   0.178
 6735TIP3   OH241763   0.890   3.638   0.013
 6735TIP3    H141764   0.979   3.661   0.040
 6735TIP3    H241765   0.892   3.543   0.002
 6736TIP3   OH241766   1.043   4.161   8.052
 6736TIP3    H141767   0.961   4.157   8.102
 6736TIP3    H241768   1.078   4.248   8.072
 6737TIP3   OH241769   0.167   6.045   2.208
 6737TIP3    H141770   0.072   6.032   2.215
 6737TIP3    H241771   0.184   6.127   2.255
 6738TIP3   OH241772   1.271   3.749   8.431
 6738TIP3    H141773   1.302   3.793   8.510
 6738TIP3    H241774   1.196   3.801   8.401
 6739TIP3   OH241775   4.324   0.108   7.033
 6739TIP3    H141776   4.251   0.112   7.094
 6739TIP3    H241777   4.383   0.042   7.071
 6740TIP3   OH241778   4.704   4.538   7.456
 6740TIP3    H141779   4.659   4.463   7.416
 6740TIP3    H241780   4.644   4.611   7.445
 6741TIP3   OH241781   4.427   0.922   8.108
 6741TIP3    H141782   4.386   0.997   8.150
 6741TIP3    H241783   4.360   0.853   8.110
 6742TIP3   OH241784   4.141   3.260   8.602
 6742TIP3    H141785   4.070   3.219   8.553
 6742TIP3    H241786   4.126   3.354   8.592
 6743TIP3   OH241787   4.570   0.492   2.157
 6743TIP3    H141788   4.606   0.405   2.137
 6743TIP3    H241789   4.477   0.478   2.170
 6744TIP3   OH241790   3.443   4.473   1.588
 6744TIP3    H141791   3.432   4.460   1.683
 6744TIP3    H241792   3.490   4.556   1.581
 6745TIP3   OH241793   4.935   0.035   1.280
 6745TIP3    H141794   4.998   6.889   1.224
 6745TIP3    H241795   4.861   0.054   1.222
 6746TIP3   OH241796   1.017   3.422   1.387
 6746TIP3    H141797   1.061   3.341   1.359
 6746TIP3    H241798   1.089   3.481   1.409
 6747TIP3   OH241799   5.133   1.669   7.090
 6747TIP3    H141800   5.120   1.655   7.184
 6747TIP3    H241801   5.181   1.591   7.061
 6748TIP3   OH241802   1.367   6.101   6.398
 6748TIP3    H141803   1.272   6.113   6.404
 6748TIP3    H241804   1.381   6.067   6.310
 6749TIP3   OH241805   5.957   3.994   0.151
 6749TIP3    H141806   5.886   3.930   0.150
 6749TIP3    H241807   6.028   3.952   0.103
 6750TIP3   OH241808   4.567   1.922   1.339
 6750TIP3    H141809   4.661   1.912   1.359
 6750TIP3    H241810   4.541   2.001   1.386
 6751TIP3   OH241811   2.013   6.532   8.334
 6751TIP3    H141812   2.096   6.496   8.302
 6751TIP3    H241813   2.026   6.627   8.336
 6752TIP3   OH241814   2.292   1.582   0.584
 6752TIP3    H141815   2.256   1.520   0.521
 6752TIP3    H241816   2.246   1.664   0.564
 6753TIP3   OH241817   0.784   0.812   0.500
 6753TIP3    H141818   0.774   0.718   0.485
 6753TIP3    H241819   0.877   0.824   0.519
 6754TIP3   OH241820   2.485   3.390   8.281
 6754TIP3    H141821   2.528   3.333   8.345
 6754TIP3    H241822   2.556   3.441   8.243
 6755TIP3   OH241823   3.791   3.875   0.831
 6755TIP3    H141824   3.883   3.890   0.853
 6755TIP3    H241825   3.788   3.885   0.735
 6756TIP3   OH241826   3.889   2.068   8.384
 6756TIP3    H141827   3.809   2.087   8.334
 6756TIP3    H241828   3.874   2.108   8.469
 6757TIP3   OH241829   5.688   2.368   0.534
 6757TIP3    H141830   5.706   2.299   0.471
 6757TIP3    H241831   5.665   2.444   0.481
 6758TIP3   OH241832   0.593   3.487   6.446
 6758TIP3    H141833   0.613   3.400   6.413
 6758TIP3    H241834   0.498   3.495   6.440
 6759TIP3   OH241835   6.429   6.382   0.076
 6759TIP3    H141836   6.396   6.301   0.115
 6759TIP3    H241837   6.521   6.386   0.104
 6760TIP3   OH241838   1.051   0.034   8.341
 6760TIP3    H141839   1.099   6.858   8.373
 6760TIP3    H241840   1.072   0.038   8.248
 6761TIP3   OH241841   0.434   3.623   1.864
 6761TIP3    H141842   0.401   3.712   1.879
 6761TIP3    H241843   0.383   3.568   1.923
 6762TIP3   OH241844   3.700   6.430   1.387
 6762TIP3    H141845   3.762   6.370   1.428
 6762TIP3    H241846   3.713   6.417   1.293
 6763TIP3   OH241847   3.081   3.021   6.405
 6763TIP3    H141848   3.126   2.939   6.425
 6763TIP3    H241849   3.144   3.071   6.354
 6764TIP3   OH241850   4.356   3.934   1.596
 6764TIP3    H141851   4.262   3.950   1.591
 6764TIP3    H241852   4.392   3.974   1.516
 6765TIP3   OH241853   1.297   3.793   6.593
 6765TIP3    H141854   1.340   3.739   6.659
 6765TIP3    H241855   1.301   3.741   6.513
 6766TIP3   OH241856   0.405   6.417   6.928
 6766TIP3    H141857   0.336   6.434   6.992
 6766TIP3    H241858   0.485   6.409   6.980
 6767TIP3   OH241859   0.768   0.479   2.459
 6767TIP3    H141860   0.805   0.567   2.467
 6767TIP3    H241861   0.842   0.424   2.433
 6768TIP3   OH241862   5.669   4.274   8.508
 6768TIP3    H141863   5.739   4.244   8.450
 6768TIP3    H241864   5.694   4.243   8.594
 6769TIP3   OH241865   2.787   3.937   0.071
 6769TIP3    H141866   2.837   4.017   0.057
 6769TIP3    H241867   2.776   3.899   8.604
 6770TIP3   OH241868   1.237   0.968   8.424
 6770TIP3    H141869   1.191   0.928   8.350
 6770TIP3    H241870   1.166   1.001   8.480
 6771TIP3   OH241871   1.359   0.151   7.767
 6771TIP3    H141872   1.430   0.105   7.721
 6771TIP3    H241873   1.390   0.158   7.857
 6772TIP3   OH241874   5.772   1.572   6.957
 6772TIP3    H141875   5.680   1.555   6.935
 6772TIP3    H241876   5.818   1.569   6.874
 6773TIP3   OH241877   6.256   1.187   7.001
 6773TIP3    H141878   6.247   1.195   7.096
 6773TIP3    H241879   6.345   1.217   6.983
 6774TIP3   OH241880   0.017   0.319   6.903
 6774TIP3    H141881   6.831   0.300   6.940
 6774TIP3    H241882   0.075   0.324   6.979
 6775TIP3   OH241883   0.548   6.042   7.761
 6775TIP3    H141884   0.553   5.958   7.806
 6775TIP3    H241885   0.461   6.043   7.721
 6776TIP3   OH241886   2.160   4.012   7.161
 6776TIP3    H141887   2.125   3.945   7.102
 6776TIP3    H241888   2.099   4.013   7.234
 6777TIP3   OH241889   2.445   2.610   8.369
 6777TIP3    H141890   2.423   2.573   8.283
 6777TIP3    H241891   2.426   2.704   8.360
 6778TIP3   OH241892   6.235   4.907   6.456
 6778TIP3    H141893   6.205   4.986   6.502
 6778TIP3    H241894   6.156   4.875   6.412
 6779TIP3   OH241895   3.073   6.177   0.950
 6779TIP3    H141896   3.140   6.244   0.934
 6779TIP3    H241897   2.994   6.211   0.909
 6780TIP3   OH241898   0.967   5.861   7.501
 6780TIP3    H141899   0.877   5.890   7.518
 6780TIP3    H241900   1.018   5.943   7.500
 6781TIP3   OH241901   2.443   3.749   2.236
 6781TIP3    H141902   2.373   3.807   2.206
 6781TIP3    H241903   2.405   3.703   2.311
 6782TIP3   OH241904   6.565   2.473   1.938
 6782TIP3    H141905   6.476   2.437   1.935
 6782TIP3    H241906   6.605   2.433   2.015
 6783TIP3   OH241907   5.252   4.504   7.387
 6783TIP3    H141908   5.275   4.495   7.480
 6783TIP3    H241909   5.164   4.469   7.381
 6784TIP3   OH241910   4.488   2.160   1.108
 6784TIP3    H141911   4.470   2.068   1.090
 6784TIP3    H241912   4.483   2.167   1.204
 6785TIP3   OH241913   4.847   0.674   1.899
 6785TIP3    H141914   4.876   0.689   1.989
 6785TIP3    H241915   4.807   0.757   1.872
 6786TIP3   OH241916   6.638   4.258   7.226
 6786TIP3    H141917   6.578   4.332   7.217
 6786TIP3    H241918   6.647   4.223   7.138
 6787TIP3   OH241919   2.326   1.405   7.070
 6787TIP3    H141920   2.285   1.322   7.093
 6787TIP3    H241921   2.263   1.449   7.013
 6788TIP3   OH241922   5.777   2.135   7.282
 6788TIP3    H141923   5.806   2.223   7.303
 6788TIP3    H241924   5.734   2.104   7.362
 6789TIP3   OH241925   0.205   5.037   8.230
 6789TIP3    H141926   0.115   5.006   8.224
 6789TIP3    H241927   0.209   5.084   8.313
 6790TIP3   OH241928   0.125   0.729   7.522
 6790TIP3    H141929   0.072   0.680   7.459
 6790TIP3    H241930   0.090   0.703   7.607
 6791TIP3   OH241931   1.132   6.254   6.482
 6791TIP3    H141932   1.200   6.307   6.523
 6791TIP3    H241933   1.122   6.292   6.394
 6792TIP3   OH241934   6.182   4.493   6.919
 6792TIP3    H141935   6.111   4.526   6.974
 6792TIP3    H241936   6.142   4.486   6.832
 6793TIP3   OH241937   2.054   6.142   8.559
 6793TIP3    H141938   2.079   6.061   8.602
 6793TIP3    H241939   1.960   6.132   8.543
 6794TIP3   OH241940   0.180   6.733   7.570
 6794TIP3    H141941   0.195   6.742   7.664
 6794TIP3    H241942   0.085   6.724   7.561
 6795TIP3   OH241943   1.662   0.701   6.718
 6795TIP3    H141944   1.709   0.752   6.785
 6795TIP3    H241945   1.660   0.758   6.641
 6796TIP3   OH241946   4.594   0.276   7.864
 6796TIP3    H141947   4.595   0.339   7.792
 6796TIP3    H241948   4.503   0.275   7.893
 6797TIP3   OH241949   3.108   5.188   1.489
 6797TIP3    H141950   3.086   5.181   1.582
 6797TIP3    H241951   3.204   5.182   1.487
 6798TIP3   OH241952   5.181   2.059   8.350
 6798TIP3    H141953   5.239   2.023   8.283
 6798TIP3    H241954   5.108   1.997   8.355
 6799TIP3   OH241955   3.792   2.243   8.580
 6799TIP3    H141956   3.710   2.292   8.573
 6799TIP3    H241957   3.860   2.311   8.577
 6800TIP3   OH241958   5.270   1.406   7.070
 6800TIP3    H141959   5.220   1.325   7.087
 6800TIP3    H241960   5.342   1.403   7.133
 6801TIP3   OH241961   1.970   5.141   0.569
 6801TIP3    H141962   1.918   5.200   0.624
 6801TIP3    H241963   2.017   5.085   0.630
 6802TIP3   OH241964   3.164   5.180   7.539
 6802TIP3    H141965   3.144   5.200   7.631
 6802TIP3    H241966   3.085   5.206   7.491
 6803TIP3   OH241967   1.721   3.116   2.019
 6803TIP3    H141968   1.757   3.155   1.940
 6803TIP3    H241969   1.628   3.103   1.999
 6804TIP3   OH241970   5.236   5.571   7.199
 6804TIP3    H141971   5.208   5.505   7.135
 6804TIP3    H241972   5.266   5.520   7.274
 6805TIP3   OH241973   0.097   4.951   1.004
 6805TIP3    H141974   0.065   4.901   1.079
 6805TIP3    H241975   0.098   4.888   0.932
 6806TIP3   OH241976   5.823   2.247   2.260
 6806TIP3    H141977   5.800   2.184   2.329
 6806TIP3    H241978   5.903   2.213   2.221
 6807TIP3   OH241979   1.072   4.247   7.662
 6807TIP3    H141980   1.090   4.341   7.651
 6807TIP3    H241981   1.135   4.218   7.727
 6808TIP3   OH241982   0.024   5.030   1.291
 6808TIP3    H141983   6.843   5.056   1.334
 6808TIP3    H241984   0.070   5.113   1.275
 6809TIP3   OH241985   3.902   1.477   1.975
 6809TIP3    H141986   3.878   1.505   1.886
 6809TIP3    H241987   3.821   1.442   2.012
 6810TIP3   OH241988   6.590   2.668   1.747
 6810TIP3    H141989   6.538   2.627   1.678
 6810TIP3    H241990   6.572   2.616   1.825
 6811TIP3   OH241991   1.650   5.928   7.383
 6811TIP3    H141992   1.687   5.845   7.413
 6811TIP3    H241993   1.572   5.902   7.334
 6812TIP3   OH241994   3.242   3.809   1.883
 6812TIP3    H141995   3.198   3.853   1.811
 6812TIP3    H241996   3.189   3.731   1.900
 6813TIP3   OH241997   4.358   2.340   8.110
 6813TIP3    H141998   4.297   2.395   8.157
 6813TIP3    H241999   4.442   2.353   8.153
 6814TIP3   OH242000   2.414   5.623   1.974
 6814TIP3    H142001   2.353   5.594   2.042
 6814TIP3    H242002   2.367   5.608   1.892
 6815TIP3   OH242003   3.561   2.585   0.849
 6815TIP3    H142004   3.634   2.542   0.894
 6815TIP3    H242005   3.525   2.646   0.913
 6816TIP3   OH242006   2.487   6.430   7.001
 6816TIP3    H142007   2.543   6.441   6.924
 6816TIP3    H242008   2.412   6.487   6.984
 6817TIP3   OH242009   1.777   4.114   7.685
 6817TIP3    H142010   1.812   4.142   7.600
 6817TIP3    H242011   1.821   4.031   7.703
 6818TIP3   OH242012   0.755   2.338   7.531
 6818TIP3    H142013   0.841   2.381   7.529
 6818TIP3    H242014   0.693   2.409   7.516
 6819TIP3   OH242015   2.202   2.497   0.691
 6819TIP3    H142016   2.207   2.480   0.598
 6819TIP3    H242017   2.274   2.447   0.729
 6820TIP3   OH242018   0.989   6.607   8.206
 6820TIP3    H142019   1.058   6.627   8.270
 6820TIP3    H242020   1.036   6.569   8.132
 6821TIP3   OH242021   2.935   1.231   8.282
 6821TIP3    H142022   2.942   1.178   8.362
 6821TIP3    H242023   2.933   1.322   8.314
 6822TIP3   OH242024   4.169   4.108   6.717
 6822TIP3    H142025   4.163   4.027   6.666
 6822TIP3    H242026   4.080   4.143   6.717
 6823TIP3   OH242027   2.685   5.705   7.673
 6823TIP3    H142028   2.689   5.639   7.603
 6823TIP3    H242029   2.612   5.761   7.648
 6824TIP3   OH242030   6.741   3.210   7.446
 6824TIP3    H142031   6.762   3.147   7.377
 6824TIP3    H242032   6.742   3.159   7.527
 6825TIP3   OH242033   0.351   1.113   1.833
 6825TIP3    H142034   0.434   1.159   1.816
 6825TIP3    H242035   0.364   1.073   1.919
 6826TIP3   OH242036   6.719   0.607   7.071
 6826TIP3    H142037   6.683   0.640   6.988
 6826TIP3    H242038   6.740   0.686   7.121
 6827TIP3   OH242039   2.799   6.188   2.571
 6827TIP3    H142040   2.716   6.181   2.523
 6827TIP3    H242041   2.799   6.277   2.606
 6828TIP3   OH242042   1.131   4.116   7.009
 6828TIP3    H142043   1.044   4.090   6.979
 6828TIP3    H242044   1.114   4.182   7.076
 6829TIP3   OH242045   2.466   1.780   7.047
 6829TIP3    H142046   2.439   1.782   7.138
 6829TIP3    H242047   2.383   1.778   6.998
 6830TIP3   OH242048   5.630   0.632   7.689
 6830TIP3    H142049   5.593   0.656   7.774
 6830TIP3    H242050   5.626   0.536   7.687
 6831TIP3   OH242051   3.471   5.128   7.225
 6831TIP3    H142052   3.481   5.052   7.168
 6831TIP3    H242053   3.392   5.172   7.195
 6832TIP3   OH242054   2.096   3.183   1.076
 6832TIP3    H142055   2.185   3.148   1.067
 6832TIP3    H242056   2.043   3.108   1.103
 6833TIP3   OH242057   1.920   3.409   7.173
 6833TIP3    H142058   1.852   3.435   7.235
 6833TIP3    H242059   1.900   3.458   7.094
 6834TIP3   OH242060   2.937   2.158   1.397
 6834TIP3    H142061   2.855   2.206   1.388
 6834TIP3    H242062   2.981   2.198   1.471
 6835TIP3   OH242063   5.142   5.831   7.339
 6835TIP3    H142064   5.169   5.756   7.287
 6835TIP3    H242065   5.069   5.869   7.291
 6836TIP3   OH242066   3.473   2.896   8.082
 6836TIP3    H142067   3.520   2.974   8.050
 6836TIP3    H242068   3.495   2.828   8.019
 6837TIP3   OH242069   1.464   2.903   6.504
 6837TIP3    H142070   1.533   2.865   6.559
 6837TIP3    H242071   1.443   2.833   6.442
 6838TIP3   OH242072   3.254   1.679   2.813
 6838TIP3    H142073   3.297   1.717   2.890
 6838TIP3    H242074   3.325   1.662   2.751
 6839TIP3   OH242075   3.829   3.065   6.559
 6839TIP3    H142076   3.876   3.106   6.487
 6839TIP3    H242077   3.820   3.134   6.625
 6840TIP3   OH242078   4.743   0.931   0.824
 6840TIP3    H142079   4.728   0.855   0.881
 6840TIP3    H242080   4.833   0.957   0.843
 6841TIP3   OH242081   6.710   4.681   0.338
 6841TIP3    H142082   6.638   4.634   0.381
 6841TIP3    H242083   6.689   4.678   0.245
 6842TIP3   OH242084   0.537   5.360   0.944
 6842TIP3    H142085   0.575   5.382   1.028
 6842TIP3    H242086   0.560   5.268   0.931
 6843TIP3   OH242087   1.416   4.044   6.417
 6843TIP3    H142088   1.461   3.978   6.364
 6843TIP3    H242089   1.390   4.112   6.355
 6844TIP3   OH242090   3.265   3.529   0.142
 6844TIP3    H142091   3.279   3.485   0.059
 6844TIP3    H242092   3.253   3.458   0.205
 6845TIP3   OH242093   3.381   4.289   0.236
 6845TIP3    H142094   3.296   4.252   0.260
 6845TIP3    H242095   3.364   4.383   0.228
 6846TIP3   OH242096   5.570   1.949   0.673
 6846TIP3    H142097   5.504   2.013   0.648
 6846TIP3    H242098   5.577   1.890   0.598
 6847TIP3   OH242099   1.491   3.057   0.959
 6847TIP3    H142100   1.473   3.138   0.912
 6847TIP3    H242101   1.582   3.038   0.939
 6848TIP3   OH242102   4.435   4.505   6.474
 6848TIP3    H142103   4.364   4.442   6.484
 6848TIP3    H242104   4.396   4.589   6.499
 6849TIP3   OH242105   4.684   4.707   1.512
 6849TIP3    H142106   4.735   4.628   1.494
 6849TIP3    H242107   4.646   4.692   1.599
 6850TIP3   OH242108   6.563   2.450   7.585
 6850TIP3    H142109   6.601   2.390   7.649
 6850TIP3    H242110   6.483   2.406   7.555
 6851TIP3   OH242111   4.785   5.734   8.343
 6851TIP3    H142112   4.857   5.739   8.281
 6851TIP3    H242113   4.722   5.674   8.303
 6852TIP3   OH242114   6.339   3.658   1.244
 6852TIP3    H142115   6.298   3.602   1.309
 6852TIP3    H242116   6.326   3.747   1.277
 6853TIP3   OH242117   0.547   6.397   0.949
 6853TIP3    H142118   0.601   6.467   0.913
 6853TIP3    H242119   0.466   6.440   0.976
 6854TIP3   OH242120   1.483   1.262   7.842
 6854TIP3    H142121   1.416   1.272   7.775
 6854TIP3    H242122   1.488   1.167   7.857
 6855TIP3   OH242123   0.860   6.629   7.875
 6855TIP3    H142124   0.795   6.573   7.918
 6855TIP3    H242125   0.941   6.578   7.879
 6856TIP3   OH242126   6.126   6.618   0.803
 6856TIP3    H142127   6.043   6.663   0.785
 6856TIP3    H242128   6.105   6.559   0.876
 6857TIP3   OH242129   5.633   5.331   8.250
 6857TIP3    H142130   5.714   5.379   8.271
 6857TIP3    H242131   5.641   5.249   8.298
 6858TIP3   OH242132   3.549   2.845   0.465
 6858TIP3    H142133   3.620   2.791   0.501
 6858TIP3    H242134   3.560   2.930   0.505
 6859TIP3   OH242135   1.128   3.015   8.322
 6859TIP3    H142136   1.092   3.078   8.385
 6859TIP3    H242137   1.203   3.060   8.284
 6860TIP3   OH242138   5.915   5.290   7.359
 6860TIP3    H142139   5.971   5.218   7.330
 6860TIP3    H242140   5.832   5.277   7.313
 6861TIP3   OH242141   6.564   1.480   1.375
 6861TIP3    H142142   6.583   1.515   1.288
 6861TIP3    H242143   6.500   1.411   1.360
 6862TIP3   OH242144   4.779   0.619   7.313
 6862TIP3    H142145   4.846   0.632   7.379
 6862TIP3    H242146   4.697   0.616   7.362
 6863TIP3   OH242147   2.684   5.610   7.939
 6863TIP3    H142148   2.689   5.647   7.850
 6863TIP3    H242149   2.592   5.620   7.963
 6864TIP3   OH242150   0.865   1.554   0.755
 6864TIP3    H142151   0.828   1.465   0.765
 6864TIP3    H242152   0.844   1.578   0.665
 6865TIP3   OH242153   1.466   3.034   7.531
 6865TIP3    H142154   1.499   2.976   7.600
 6865TIP3    H242155   1.534   3.100   7.521
 6866TIP3   OH242156   0.723   1.322   0.798
 6866TIP3    H142157   0.645   1.346   0.748
 6866TIP3    H242158   0.776   1.272   0.736
 6867TIP3   OH242159   1.057   1.178   8.010
 6867TIP3    H142160   1.087   1.253   8.061
 6867TIP3    H242161   0.961   1.180   8.018
 6868TIP3   OH242162   3.051   0.390   7.826
 6868TIP3    H142163   3.036   0.421   7.915
 6868TIP3    H242164   2.984   0.435   7.774
 6869TIP3   OH242165   0.636   2.130   0.616
 6869TIP3    H142166   0.633   2.150   0.710
 6869TIP3    H242167   0.545   2.117   0.591
 6870TIP3   OH242168   3.061   4.866   7.849
 6870TIP3    H142169   3.061   4.819   7.932
 6870TIP3    H242170   2.987   4.830   7.801
 6871TIP3   OH242171   1.310   0.551   0.922
 6871TIP3    H142172   1.345   0.483   0.979
 6871TIP3    H242173   1.276   0.618   0.982
 6872TIP3   OH242174   4.987   0.725   5.872
 6872TIP3    H142175   4.972   0.631   5.864
 6872TIP3    H242176   4.913   0.757   5.924
 6873TIP3   OH242177   1.399   6.803   1.808
 6873TIP3    H142178   1.452   6.771   1.881
 6873TIP3    H242179   1.317   6.832   1.849
 6874TIP3   OH242180   2.513   2.229   7.760
 6874TIP3    H142181   2.522   2.162   7.692
 6874TIP3    H242182   2.558   2.306   7.725
 6875TIP3   OH242183   0.907   4.782   6.376
 6875TIP3    H142184   0.878   4.719   6.442
 6875TIP3    H242185   0.988   4.818   6.411
 6876TIP3   OH242186   6.860   5.077   1.591
 6876TIP3    H142187   6.809   5.104   1.514
 6876TIP3    H242188   6.799   5.086   1.664
 6877TIP3   OH242189   4.135   4.864   0.530
 6877TIP3    H142190   4.094   4.779   0.513
 6877TIP3    H242191   4.113   4.883   0.621
 6878TIP3   OH242192   5.782   2.754   8.190
 6878TIP3    H142193   5.755   2.738   8.100
 6878TIP3    H242194   5.800   2.848   8.193
 6879TIP3   OH242195   3.927   2.172   1.091
 6879TIP3    H142196   3.869   2.244   1.067
 6879TIP3    H242197   4.015   2.204   1.069
 6880TIP3   OH242198   2.906   5.369   8.540
 6880TIP3    H142199   2.846   5.375   8.614
 6880TIP3    H242200   2.872   5.297   8.488
 6881TIP3   OH242201   4.621   0.506   7.724
 6881TIP3    H142202   4.678   0.571   7.683
 6881TIP3    H242203   4.552   0.492   7.659
 6882TIP3   OH242204   3.481   1.543   1.504
 6882TIP3    H142205   3.465   1.451   1.525
 6882TIP3    H242206   3.572   1.545   1.475
 6883TIP3   OH242207   5.132   6.807   1.125
 6883TIP3    H142208   5.205   6.748   1.145
 6883TIP3    H242209   5.125   6.805   1.030
 6884TIP3   OH242210   3.022   5.776   0.275
 6884TIP3    H142211   3.079   5.810   0.206
 6884TIP3    H242212   2.964   5.849   0.297
 6885TIP3   OH242213   5.448   2.381   7.467
 6885TIP3    H142214   5.443   2.355   7.559
 6885TIP3    H242215   5.435   2.300   7.419
 6886TIP3   OH242216   6.316   1.660   0.642
 6886TIP3    H142217   6.284   1.739   0.600
 6886TIP3    H242218   6.347   1.688   0.728
 6887TIP3   OH242219   2.565   0.995   7.869
 6887TIP3    H142220   2.502   0.938   7.913
 6887TIP3    H242221   2.612   1.038   7.940
 6888TIP3   OH242222   5.498   2.798   1.455
 6888TIP3    H142223   5.485   2.883   1.497
 6888TIP3    H242224   5.567   2.813   1.391
 6889TIP3   OH242225   0.099   1.064   1.133
 6889TIP3    H142226   0.136   0.983   1.097
 6889TIP3    H242227   0.036   1.092   1.068
 6890TIP3   OH242228   0.262   6.462   7.675
 6890TIP3    H142229   0.353   6.491   7.680
 6890TIP3    H242230   0.230   6.497   7.592
 6891TIP3   OH242231   5.004   4.757   0.103
 6891TIP3    H142232   4.982   4.847   0.077
 6891TIP3    H242233   4.929   4.705   0.075
 6892TIP3   OH242234   2.788   4.038   1.361
 6892TIP3    H142235   2.795   3.942   1.367
 6892TIP3    H242236   2.759   4.054   1.271
 6893TIP3   OH242237   2.452   6.205   0.273
 6893TIP3    H142238   2.529   6.193   0.218
 6893TIP3    H242239   2.481   6.262   0.344
 6894TIP3   OH242240   1.370   5.502   7.374
 6894TIP3    H142241   1.381   5.502   7.279
 6894TIP3    H242242   1.283   5.540   7.388
 6895TIP3   OH242243   0.173   0.776   8.141
 6895TIP3    H142244   0.235   0.809   8.076
 6895TIP3    H242245   0.216   0.699   8.178
 6896TIP3   OH242246   3.034   0.015   8.308
 6896TIP3    H142247   3.092   6.846   8.275
 6896TIP3    H242248   2.949   6.872   8.319
 6897TIP3   OH242249   6.148   1.237   0.285
 6897TIP3    H142250   6.089   1.301   0.245
 6897TIP3    H242251   6.103   1.153   0.273
 6898TIP3   OH242252   4.544   3.312   7.854
 6898TIP3    H142253   4.459   3.290   7.816
 6898TIP3    H242254   4.524   3.360   7.934
 6899TIP3   OH242255   0.473   1.071   1.263
 6899TIP3    H142256   0.380   1.093   1.261
 6899TIP3    H242257   0.511   1.114   1.187
 6900TIP3   OH242258   2.801   6.029   1.332
 6900TIP3    H142259   2.831   6.013   1.421
 6900TIP3    H242260   2.877   6.010   1.277
 6901TIP3   OH242261   1.331   6.575   1.418
 6901TIP3    H142262   1.290   6.596   1.502
 6901TIP3    H242263   1.258   6.545   1.363
 6902TIP3   OH242264   6.359   5.216   1.502
 6902TIP3    H142265   6.433   5.262   1.542
 6902TIP3    H242266   6.353   5.133   1.549
 6903TIP3   OH242267   1.928   0.397   7.785
 6903TIP3    H142268   1.883   0.341   7.722
 6903TIP3    H242269   2.008   0.423   7.740
 6904TIP3   OH242270   1.251   0.724   6.102
 6904TIP3    H142271   1.338   0.722   6.061
 6904TIP3    H242272   1.196   0.769   6.038
 6905TIP3   OH242273   4.429   5.110   0.760
 6905TIP3    H142274   4.469   5.097   0.674
 6905TIP3    H242275   4.353   5.166   0.743
 6906TIP3   OH242276   4.770   6.823   1.061
 6906TIP3    H142277   4.751   6.767   1.137
 6906TIP3    H242278   4.799   6.762   0.994
 6907TIP3   OH242279   3.232   0.376   2.020
 6907TIP3    H142280   3.167   0.306   2.016
 6907TIP3    H242281   3.315   0.331   2.033
 6908TIP3   OH242282   1.469   3.297   0.136
 6908TIP3    H142283   1.469   3.382   0.092
 6908TIP3    H242284   1.385   3.258   0.111
 6909TIP3   OH242285   6.211   4.652   7.241
 6909TIP3    H142286   6.140   4.588   7.243
 6909TIP3    H242287   6.189   4.711   7.170
 6910TIP3   OH242288   5.486   1.647   1.103
 6910TIP3    H142289   5.526   1.592   1.036
 6910TIP3    H242290   5.516   1.736   1.082
 6911TIP3   OH242291   3.925   1.190   8.045
 6911TIP3    H142292   3.840   1.234   8.044
 6911TIP3    H242293   3.908   1.105   8.004
 6912TIP3   OH242294   2.034   0.259   7.379
 6912TIP3    H142295   2.054   0.344   7.341
 6912TIP3    H242296   2.111   0.236   7.431
 6913TIP3   OH242297   0.147   0.951   7.718
 6913TIP3    H142298   0.222   1.011   7.713
 6913TIP3    H242299   0.184   0.865   7.698
 6914TIP3   OH242300   4.881   4.131   1.264
 6914TIP3    H142301   4.875   4.148   1.170
 6914TIP3    H242302   4.973   4.147   1.285
 6915TIP3   OH242303   4.705   2.712   7.047
 6915TIP3    H142304   4.727   2.625   7.079
 6915TIP3    H242305   4.646   2.748   7.113
 6916TIP3   OH242306   4.196   4.745   7.614
 6916TIP3    H142307   4.247   4.751   7.533
 6916TIP3    H242308   4.124   4.807   7.602
 6917TIP3   OH242309   4.064   0.905   7.413
 6917TIP3    H142310   4.049   0.893   7.507
 6917TIP3    H242311   3.986   0.950   7.381
 6918TIP3   OH242312   1.613   2.335   7.149
 6918TIP3    H142313   1.584   2.373   7.066
 6918TIP3    H242314   1.655   2.253   7.123
 6919TIP3   OH242315   4.476   0.070   1.551
 6919TIP3    H142316   4.545   0.035   1.608
 6919TIP3    H242317   4.518   0.078   1.466
 6920TIP3   OH242318   1.970   3.448   0.353
 6920TIP3    H142319   1.885   3.422   0.318
 6920TIP3    H242320   1.958   3.540   0.379
 6921TIP3   OH242321   1.559   0.206   8.279
 6921TIP3    H142322   1.631   0.206   8.216
 6921TIP3    H242323   1.594   0.162   8.356
 6922TIP3   OH242324   1.640   6.240   8.479
 6922TIP3    H142325   1.689   6.157   8.477
 6922TIP3    H242326   1.624   6.256   8.572
 6923TIP3   OH242327   3.393   0.734   8.247
 6923TIP3    H142328   3.327   0.691   8.192
 6923TIP3    H242329   3.377   0.828   8.235
 6924TIP3   OH242330   2.869   4.895   1.007
 6924TIP3    H142331   2.824   4.979   0.996
 6924TIP3    H242332   2.958   4.919   1.034
 6925TIP3   OH242333   4.297   6.688   1.364
 6925TIP3    H142334   4.277   6.751   1.434
 6925TIP3    H242335   4.384   6.654   1.387
 6926TIP3   OH242336   5.975   2.949   7.108
 6926TIP3    H142337   5.981   3.012   7.037
 6926TIP3    H242338   5.925   2.876   7.072
 6927TIP3   OH242339   4.506   6.651   7.808
 6927TIP3    H142340   4.580   6.591   7.813
 6927TIP3    H242341   4.456   6.620   7.733
 6928TIP3   OH242342   5.477   0.321   6.493
 6928TIP3    H142343   5.425   0.332   6.413
 6928TIP3    H242344   5.568   0.319   6.462
 6929TIP3   OH242345   5.338   1.920   0.951
 6929TIP3    H142346   5.311   1.993   1.008
 6929TIP3    H242347   5.406   1.958   0.895
 6930TIP3   OH242348   3.229   4.257   1.290
 6930TIP3    H142349   3.308   4.311   1.299
 6930TIP3    H242350   3.158   4.315   1.319
 6931TIP3   OH242351   4.602   2.631   7.948
 6931TIP3    H142352   4.507   2.639   7.937
 6931TIP3    H242353   4.637   2.714   7.915
 6932TIP3   OH242354   2.022   6.586   7.681
 6932TIP3    H142355   2.089   6.595   7.748
 6932TIP3    H242356   1.959   6.655   7.702
 6933TIP3   OH242357   4.138   6.398   7.669
 6933TIP3    H142358   4.054   6.442   7.684
 6933TIP3    H242359   4.114   6.306   7.657
 6934TIP3   OH242360   4.759   5.068   7.734
 6934TIP3    H142361   4.769   5.118   7.815
 6934TIP3    H242362   4.818   4.993   7.745
 6935TIP3   OH242363   2.404   3.990   7.535
 6935TIP3    H142364   2.380   3.913   7.587
 6935TIP3    H242365   2.326   4.045   7.538
 6936TIP3   OH242366   6.687   1.556   1.952
 6936TIP3    H142367   6.611   1.562   2.009
 6936TIP3    H242368   6.718   1.647   1.945
 6937TIP3   OH242369   3.281   0.458   1.693
 6937TIP3    H142370   3.356   0.413   1.731
 6937TIP3    H242371   3.208   0.436   1.751
 6938TIP3   OH242372   0.860   3.455   1.122
 6938TIP3    H142373   0.934   3.435   1.180
 6938TIP3    H242374   0.895   3.444   1.034
 6939TIP3   OH242375   4.792   1.608   0.119
 6939TIP3    H142376   4.805   1.676   0.184
 6939TIP3    H242377   4.764   1.655   0.040
 6940TIP3   OH242378   3.764   1.269   2.643
 6940TIP3    H142379   3.688   1.327   2.641
 6940TIP3    H242380   3.833   1.322   2.684
 6941TIP3   OH242381   2.774   4.363   0.569
 6941TIP3    H142382   2.696   4.333   0.522
 6941TIP3    H242383   2.828   4.284   0.578
 6942TIP3   OH242384   3.918   5.467   8.094
 6942TIP3    H142385   3.951   5.556   8.089
 6942TIP3    H242386   3.826   5.474   8.066
 6943TIP3   OH242387   4.367   6.052   8.183
 6943TIP3    H142388   4.313   6.020   8.110
 6943TIP3    H242389   4.436   5.986   8.192
 6944TIP3   OH242390   4.966   1.256   6.838
 6944TIP3    H142391   4.883   1.217   6.810
 6944TIP3    H242392   4.977   1.332   6.781
 6945TIP3   OH242393   6.421   3.970   0.150
 6945TIP3    H142394   6.444   3.919   0.073
 6945TIP3    H242395   6.505   3.990   0.192
 6946TIP3   OH242396   1.033   2.269   6.434
 6946TIP3    H142397   0.955   2.324   6.444
 6946TIP3    H242398   1.105   2.331   6.421
 6947TIP3   OH242399   0.100   2.301   8.298
 6947TIP3    H142400   0.068   2.226   8.248
 6947TIP3    H242401   0.114   2.369   8.232
 6948TIP3   OH242402   1.850   2.013   7.778
 6948TIP3    H142403   1.943   2.020   7.758
 6948TIP3    H242404   1.839   1.922   7.806
 6949TIP3   OH242405   6.099   4.132   0.325
 6949TIP3    H142406   6.054   4.070   0.267
 6949TIP3    H242407   6.164   4.079   0.372
 6950TIP3   OH242408   2.341   0.596   6.149
 6950TIP3    H142409   2.316   0.666   6.208
 6950TIP3    H242410   2.347   0.518   6.205
 6951TIP3   OH242411   2.940   0.344   0.362
 6951TIP3    H142412   2.934   0.399   0.284
 6951TIP3    H242413   2.974   0.402   0.430
 6952TIP3   OH242414   5.940   5.771   6.112
 6952TIP3    H142415   5.867   5.831   6.126
 6952TIP3    H242416   6.018   5.827   6.113
 6953TIP3   OH242417   0.000   5.260   7.911
 6953TIP3    H142418   6.840   5.290   7.844
 6953TIP3    H242419   0.016   5.337   7.966
 6954TIP3   OH242420   3.519   5.494   8.212
 6954TIP3    H142421   3.470   5.484   8.130
 6954TIP3    H242422   3.602   5.534   8.187
 6955TIP3   OH242423   2.624   6.559   0.009
 6955TIP3    H142424   2.708   6.549   8.584
 6955TIP3    H242425   2.564   6.500   8.582
 6956TIP3   OH242426   3.438   3.789   8.101
 6956TIP3    H142427   3.502   3.811   8.169
 6956TIP3    H242428   3.490   3.755   8.029
 6957TIP3   OH242429   3.970   3.433   8.275
 6957TIP3    H142430   4.022   3.474   8.343
 6957TIP3    H242431   3.917   3.504   8.238
 6958TIP3   OH242432   0.579   1.372   7.944
 6958TIP3    H142433   0.484   1.360   7.944
 6958TIP3    H242434   0.594   1.441   8.009
 6959TIP3   OH242435   3.476   4.511   8.578
 6959TIP3    H142436   3.437   4.598   8.585
 6959TIP3    H242437   3.569   4.528   8.560
 6960TIP3   OH242438   3.208   0.665   1.452
 6960TIP3    H142439   3.194   0.695   1.542
 6960TIP3    H242440   3.193   0.571   1.456
 6961TIP3   OH242441   6.625   5.811   0.830
 6961TIP3    H142442   6.575   5.869   0.772
 6961TIP3    H242443   6.607   5.844   0.918
 6962TIP3   OH242444   3.107   1.592   6.543
 6962TIP3    H142445   3.013   1.575   6.534
 6962TIP3    H242446   3.111   1.683   6.574
 6963TIP3   OH242447   5.039   3.641   8.103
 6963TIP3    H142448   5.135   3.640   8.113
 6963TIP3    H242449   5.008   3.583   8.172
 6964TIP3   OH242450   3.163   4.016   7.953
 6964TIP3    H142451   3.258   4.028   7.957
 6964TIP3    H242452   3.143   3.958   8.026
 6965TIP3   OH242453   2.534   2.899   1.860
 6965TIP3    H142454   2.548   2.907   1.955
 6965TIP3    H242455   2.495   2.812   1.850
 6966TIP3   OH242456   6.197   5.387   0.658
 6966TIP3    H142457   6.178   5.476   0.629
 6966TIP3    H242458   6.287   5.371   0.629
 6967TIP3   OH242459   2.399   0.299   0.685
 6967TIP3    H142460   2.331   0.233   0.674
 6967TIP3    H242461   2.356   0.369   0.734
 6968TIP3   OH242462   4.737   3.315   7.416
 6968TIP3    H142463   4.801   3.256   7.376
 6968TIP3    H242464   4.653   3.284   7.384
 6969TIP3   OH242465   5.337   4.323   6.777
 6969TIP3    H142466   5.307   4.404   6.817
 6969TIP3    H242467   5.433   4.327   6.783
 6970TIP3   OH242468   5.171   3.868   6.961
 6970TIP3    H142469   5.097   3.912   7.002
 6970TIP3    H242470   5.135   3.828   6.882
 6971TIP3   OH242471   5.852   5.344   7.753
 6971TIP3    H142472   5.898   5.353   7.670
 6971TIP3    H242473   5.786   5.414   7.752
 6972TIP3   OH242474   5.533   3.954   0.772
 6972TIP3    H142475   5.454   3.997   0.738
 6972TIP3    H242476   5.598   4.024   0.779
 6973TIP3   OH242477   1.798   3.200   0.405
 6973TIP3    H142478   1.840   3.233   0.326
 6973TIP3    H242479   1.705   3.195   0.383
 6974TIP3   OH242480   6.670   0.007   7.495
 6974TIP3    H142481   6.680   0.016   7.590
 6974TIP3    H242482   6.703   6.820   7.476
 6975TIP3   OH242483   4.022   2.657   1.201
 6975TIP3    H142484   4.050   2.623   1.286
 6975TIP3    H242485   4.068   2.603   1.137
 6976TIP3   OH242486   3.278   1.666   7.803
 6976TIP3    H142487   3.241   1.640   7.888
 6976TIP3    H242488   3.372   1.656   7.814
 6977TIP3   OH242489   2.299   3.561   7.439
 6977TIP3    H142490   2.254   3.582   7.521
 6977TIP3    H242491   2.230   3.562   7.373
 6978TIP3   OH242492   5.409   3.812   6.720
 6978TIP3    H142493   5.474   3.746   6.746
 6978TIP3    H242494   5.397   3.865   6.799
 6979TIP3   OH242495   5.247   0.788   8.383
 6979TIP3    H142496   5.174   0.778   8.444
 6979TIP3    H242497   5.324   0.761   8.434
 6980TIP3   OH242498   0.166   5.668   7.641
 6980TIP3    H142499   0.172   5.720   7.721
 6980TIP3    H242500   0.120   5.588   7.668
 6981TIP3   OH242501   4.015   0.564   8.329
 6981TIP3    H142502   3.932   0.560   8.282
 6981TIP3    H242503   4.011   0.646   8.378
 6982TIP3   OH242504   1.936   4.516   7.463
 6982TIP3    H142505   1.896   4.430   7.455
 6982TIP3    H242506   1.999   4.507   7.534
 6983TIP3   OH242507   6.594   2.929   8.548
 6983TIP3    H142508   6.546   2.846   8.549
 6983TIP3    H242509   6.543   2.986   8.490
 6984TIP3   OH242510   1.427   6.066   0.645
 6984TIP3    H142511   1.426   6.079   0.740
 6984TIP3    H242512   1.346   6.106   0.614
 6985TIP3   OH242513   5.768   2.742   1.085
 6985TIP3    H142514   5.830   2.737   1.012
 6985TIP3    H242515   5.717   2.662   1.078
 6986TIP3   OH242516   4.459   4.038   1.352
 6986TIP3    H142517   4.377   4.084   1.338
 6986TIP3    H242518   4.484   4.006   1.265
 6987TIP3   OH242519   0.233   0.993   5.667
 6987TIP3    H142520   0.172   1.000   5.741
 6987TIP3    H242521   0.177   0.987   5.590
 6988TIP3   OH242522   1.305   2.718   8.283
 6988TIP3    H142523   1.300   2.638   8.337
 6988TIP3    H242524   1.358   2.778   8.334
 6989TIP3   OH242525   3.972   4.158   1.386
 6989TIP3    H142526   3.996   4.250   1.396
 6989TIP3    H242527   3.941   4.132   1.473
 6990TIP3   OH242528   3.800   5.768   0.749
 6990TIP3    H142529   3.755   5.684   0.753
 6990TIP3    H242530   3.779   5.811   0.831
 6991TIP3   OH242531   4.442   2.622   8.303
 6991TIP3    H142532   4.417   2.588   8.389
 6991TIP3    H242533   4.466   2.713   8.319
 6992TIP3   OH242534   1.102   4.480   1.160
 6992TIP3    H142535   1.149   4.422   1.100
 6992TIP3    H242536   1.103   4.435   1.244
 6993TIP3   OH242537   5.344   0.421   6.262
 6993TIP3    H142538   5.293   0.382   6.191
 6993TIP3    H242539   5.339   0.515   6.246
 6994TIP3   OH242540   5.620   6.388   8.527
 6994TIP3    H142541   5.565   6.313   8.506
 6994TIP3    H242542   5.605   6.404   0.001
 6995TIP3   OH242543   4.761   4.493   2.115
 6995TIP3    H142544   4.735   4.483   2.206
 6995TIP3    H242545   4.839   4.438   2.106
 6996TIP3   OH242546   3.984   6.371   6.648
 6996TIP3    H142547   4.057   6.309   6.657
 6996TIP3    H242548   3.911   6.328   6.694
 6997TIP3   OH242549   0.599   3.319   8.162
 6997TIP3    H142550   0.638   3.234   8.181
 6997TIP3    H242551   0.670   3.371   8.125
 6998TIP3   OH242552   5.483   6.765   1.414
 6998TIP3    H142553   5.403   6.761   1.466
 6998TIP3    H242554   5.550   6.795   1.475
 6999TIP3   OH242555   2.308   5.275   8.603
 6999TIP3    H142556   2.287   5.221   8.526
 6999TIP3    H242557   2.230   5.330   8.615
 7000TIP3   OH242558   1.418   6.852   8.143
 7000TIP3    H142559   1.329   6.867   8.113
 7000TIP3    H242560   1.416   6.869   8.237
 7001TIP3   OH242561   5.955   0.811   1.970
 7001TIP3    H142562   5.875   0.796   2.020
 7001TIP3    H242563   6.022   0.825   2.037
 7002TIP3   OH242564   3.580   0.798   0.798
 7002TIP3    H142565   3.528   0.865   0.844
 7002TIP3    H242566   3.620   0.844   0.725
 7003TIP3   OH242567   4.585   4.339   7.321
 7003TIP3    H142568   4.498   4.380   7.316
 7003TIP3    H242569   4.568   4.250   7.353
 7004TIP3   OH242570   4.452   1.573   7.541
 7004TIP3    H142571   4.544   1.565   7.516
 7004TIP3    H242572   4.452   1.565   7.636
 7005TIP3   OH242573   0.527   2.115   6.570
 7005TIP3    H142574   0.536   2.049   6.501
 7005TIP3    H242575   0.603   2.100   6.627
 7006TIP3   OH242576   5.183   5.691   7.866
 7006TIP3    H142577   5.159   5.719   7.777
 7006TIP3    H242578   5.245   5.758   7.896
 7007TIP3   OH242579   3.489   1.101   1.130
 7007TIP3    H142580   3.540   1.035   1.177
 7007TIP3    H242581   3.410   1.055   1.101
 7008TIP3   OH242582   1.775   5.502   1.516
 7008TIP3    H142583   1.739   5.547   1.593
 7008TIP3    H242584   1.780   5.410   1.542
 7009TIP3   OH242585   1.832   5.200   1.595
 7009TIP3    H142586   1.820   5.161   1.509
 7009TIP3    H242587   1.766   5.157   1.650
 7010TIP3   OH242588   3.224   2.629   1.680
 7010TIP3    H142589   3.229   2.707   1.625
 7010TIP3    H242590   3.192   2.662   1.765
 7011TIP3   OH242591   1.310   5.042   0.305
 7011TIP3    H142592   1.265   5.090   0.235
 7011TIP3    H242593   1.383   5.098   0.330
 7012TIP3   OH242594   2.402   1.563   7.806
 7012TIP3    H142595   2.491   1.527   7.804
 7012TIP3    H242596   2.358   1.515   7.876
 7013TIP3   OH242597   2.526   2.856   0.082
 7013TIP3    H142598   2.564   2.909   0.012
 7013TIP3    H242599   2.520   2.916   0.156
 7014TIP3   OH242600   4.991   4.449   0.318
 7014TIP3    H142601   5.061   4.384   0.315
 7014TIP3    H242602   5.036   4.534   0.314
 7015TIP3   OH242603   0.914   1.068   7.681
 7015TIP3    H142604   0.889   1.147   7.727
 7015TIP3    H242605   0.841   1.008   7.694
 7016TIP3   OH242606   4.071   0.481   1.887
 7016TIP3    H142607   4.063   0.409   1.824
 7016TIP3    H242608   4.077   0.437   1.972
 7017TIP3   OH242609   4.725   5.291   1.412
 7017TIP3    H142610   4.631   5.308   1.420
 7017TIP3    H242611   4.731   5.202   1.380
 7018TIP3   OH242612   1.024   3.311   7.396
 7018TIP3    H142613   1.082   3.240   7.424
 7018TIP3    H242614   1.010   3.295   7.303
 7019TIP3   OH242615   3.330   2.361   0.423
 7019TIP3    H142616   3.341   2.451   0.453
 7019TIP3    H242617   3.246   2.333   0.460
 7020TIP3   OH242618   3.282   1.271   7.941
 7020TIP3    H142619   3.243   1.339   7.997
 7020TIP3    H242620   3.231   1.192   7.960
 7021TIP3   OH242621   0.602   2.494   1.105
 7021TIP3    H142622   0.608   2.568   1.045
 7021TIP3    H242623   0.687   2.494   1.150
 7022TIP3   OH242624   0.880   6.863   0.325
 7022TIP3    H142625   0.912   0.015   0.398
 7022TIP3    H242626   0.948   6.797   0.311
 7023TIP3   OH242627   1.987   3.512   8.143
 7023TIP3    H142628   1.897   3.480   8.139
 7023TIP3    H242629   2.013   3.501   8.235
 7024TIP3   OH242630   3.692   2.021   0.094
 7024TIP3    H142631   3.755   2.092   0.086
 7024TIP3    H242632   3.679   2.011   0.189
 7025TIP3   OH242633   5.677   0.818   2.144
 7025TIP3    H142634   5.670   0.735   2.192
 7025TIP3    H242635   5.589   0.833   2.109
 7026TIP3   OH242636   5.136   3.627   6.759
 7026TIP3    H142637   5.041   3.625   6.746
 7026TIP3    H242638   5.173   3.616   6.671
 7027TIP3   OH242639   6.704   6.722   6.396
 7027TIP3    H142640   6.699   6.807   6.440
 7027TIP3    H242641   6.640   6.728   6.325
 7028TIP3   OH242642   5.102   0.234   6.635
 7028TIP3    H142643   5.179   0.290   6.644
 7028TIP3    H242644   5.125   0.173   6.566
 7029TIP3   OH242645   3.849   3.691   6.267
 7029TIP3    H142646   3.819   3.770   6.312
 7029TIP3    H242647   3.929   3.666   6.313
 7030TIP3   OH242648   3.668   1.092   7.112
 7030TIP3    H142649   3.758   1.075   7.082
 7030TIP3    H242650   3.676   1.102   7.207
 7031TIP3   OH242651   6.442   0.659   0.156
 7031TIP3    H142652   6.381   0.720   0.116
 7031TIP3    H242653   6.399   0.574   0.151
 7032TIP3   OH242654   3.794   4.613   2.339
 7032TIP3    H142655   3.825   4.540   2.392
 7032TIP3    H242656   3.813   4.691   2.391
 7033TIP3   OH242657   1.265   3.877   1.459
 7033TIP3    H142658   1.346   3.927   1.469
 7033TIP3    H242659   1.229   3.872   1.547
 7034TIP3   OH242660   5.969   6.148   7.879
 7034TIP3    H142661   5.973   6.232   7.927
 7034TIP3    H242662   5.883   6.150   7.836
 7035TIP3   OH242663   4.631   6.013   1.705
 7035TIP3    H142664   4.553   6.011   1.761
 7035TIP3    H242665   4.635   6.102   1.672
 7036TIP3   OH242666   0.041   0.227   8.084
 7036TIP3    H142667   0.004   0.152   8.037
 7036TIP3    H242668   0.049   0.197   8.175
 7037TIP3   OH242669   0.638   1.724   0.177
 7037TIP3    H142670   0.621   1.810   0.140
 7037TIP3    H242671   0.579   1.717   0.252
 7038TIP3   OH242672   4.129   0.084   7.201
 7038TIP3    H142673   4.161   0.020   7.265
 7038TIP3    H242674   4.111   0.162   7.253
 7039TIP3   OH242675   5.891   3.157   0.283
 7039TIP3    H142676   5.873   3.249   0.302
 7039TIP3    H242677   5.876   3.111   0.365
 7040TIP3   OH242678   5.028   6.792   6.670
 7040TIP3    H142679   4.969   6.751   6.607
 7040TIP3    H242680   5.088   6.845   6.617
 7041TIP3   OH242681   4.815   5.171   0.572
 7041TIP3    H142682   4.801   5.245   0.513
 7041TIP3    H242683   4.793   5.205   0.659
 7042TIP3   OH242684   1.120   4.117   0.774
 7042TIP3    H142685   1.055   4.148   0.838
 7042TIP3    H242686   1.138   4.027   0.801
 7043TIP3   OH242687   5.084   5.243   8.411
 7043TIP3    H142688   5.066   5.330   8.446
 7043TIP3    H242689   5.154   5.208   8.467
 7044TIP3   OH242690   1.397   5.791   1.673
 7044TIP3    H142691   1.354   5.876   1.687
 7044TIP3    H242692   1.338   5.727   1.714
 7045TIP3   OH242693   5.272   4.463   0.472
 7045TIP3    H142694   5.307   4.400   0.535
 7045TIP3    H242695   5.226   4.528   0.526
 7046TIP3   OH242696   1.341   5.259   0.996
 7046TIP3    H142697   1.409   5.294   1.054
 7046TIP3    H242698   1.263   5.310   1.017
 7047TIP3   OH242699   1.403   6.852   8.417
 7047TIP3    H142700   1.497   6.835   8.431
 7047TIP3    H242701   1.385   0.029   8.469
 7048TIP3   OH242702   1.125   2.541   7.796
 7048TIP3    H142703   1.160   2.539   7.707
 7048TIP3    H242704   1.202   2.538   7.852
 7049TIP3   OH242705   4.339   6.299   1.207
 7049TIP3    H142706   4.401   6.317   1.136
 7049TIP3    H242707   4.264   6.356   1.189
 7050TIP3   OH242708   2.379   1.297   1.924
 7050TIP3    H142709   2.360   1.216   1.971
 7050TIP3    H242710   2.326   1.363   1.969
 7051TIP3   OH242711   4.073   3.151   1.256
 7051TIP3    H142712   4.163   3.157   1.288
 7051TIP3    H242713   4.074   3.077   1.195
 7052TIP3   OH242714   1.897   0.729   1.111
 7052TIP3    H142715   1.850   0.672   1.172
 7052TIP3    H242716   1.990   0.715   1.131
 7053TIP3   OH242717   0.195   5.267   0.271
 7053TIP3    H142718   0.175   5.238   0.182
 7053TIP3    H242719   0.290   5.263   0.277
 7054TIP3   OH242720   3.859   6.048   0.031
 7054TIP3    H142721   3.867   6.070   0.124
 7054TIP3    H242722   3.773   6.007   0.023
 7055TIP3   OH242723   0.246   3.319   6.032
 7055TIP3    H142724   0.206   3.354   6.112
 7055TIP3    H242725   0.260   3.395   5.976
 7056TIP3   OH242726   3.731   3.589   8.185
 7056TIP3    H142727   3.656   3.543   8.147
 7056TIP3    H242728   3.790   3.604   8.110
 7057TIP3   OH242729   4.807   6.142   0.587
 7057TIP3    H142730   4.751   6.065   0.591
 7057TIP3    H242731   4.835   6.157   0.677
 7058TIP3   OH242732   0.697   0.208   6.220
 7058TIP3    H142733   0.717   0.132   6.165
 7058TIP3    H242734   0.712   0.284   6.164
 7059TIP3   OH242735   2.183   2.077   7.250
 7059TIP3    H142736   2.118   2.115   7.309
 7059TIP3    H242737   2.161   2.114   7.164
 7060TIP3   OH242738   6.697   5.583   8.131
 7060TIP3    H142739   6.758   5.512   8.111
 7060TIP3    H242740   6.611   5.542   8.133
 7061TIP3   OH242741   0.241   5.713   0.595
 7061TIP3    H142742   0.197   5.640   0.638
 7061TIP3    H242743   0.170   5.774   0.573
 7062TIP3   OH242744   3.942   5.539   7.108
 7062TIP3    H142745   3.879   5.525   7.037
 7062TIP3    H242746   3.972   5.451   7.131
 7063TIP3   OH242747   6.306   6.221   7.209
 7063TIP3    H142748   6.368   6.293   7.198
 7063TIP3    H242749   6.220   6.263   7.209
 7064TIP3   OH242750   1.789   3.735   0.258
 7064TIP3    H142751   1.840   3.724   0.338
 7064TIP3    H242752   1.853   3.755   0.190
 7065TIP3   OH242753   0.456   3.161   7.562
 7065TIP3    H142754   0.547   3.139   7.585
 7065TIP3    H242755   0.460   3.189   7.471
 7066TIP3   OH242756   3.343   5.412   0.272
 7066TIP3    H142757   3.341   5.499   0.309
 7066TIP3    H242758   3.279   5.415   0.200
 7067TIP3   OH242759   2.165   0.945   0.604
 7067TIP3    H142760   2.248   0.979   0.572
 7067TIP3    H242761   2.156   0.982   0.692
 7068TIP3   OH242762   1.396   2.476   7.869
 7068TIP3    H142763   1.465   2.426   7.913
 7068TIP3    H242764   1.404   2.453   7.777
 7069TIP3   OH242765   1.844   6.541   7.989
 7069TIP3    H142766   1.771   6.581   8.037
 7069TIP3    H242767   1.921   6.564   8.040
 7070TIP3   OH242768   6.667   1.445   6.958
 7070TIP3    H142769   6.689   1.450   6.865
 7070TIP3    H242770   6.752   1.436   7.002
 7071TIP3   OH242771   4.578   1.878   1.770
 7071TIP3    H142772   4.665   1.907   1.797
 7071TIP3    H242773   4.527   1.958   1.760
 7072LIG      O42774   2.802   6.502   1.386
 7072LIG     C142775   2.734   6.480   1.266
 7072LIG     C242776   2.729   6.615   1.188
 7072LIG     C342777   2.810   6.386   1.180
 7072LIG     H142778   2.630   6.453   1.294
 7072LIG     H242779   2.639   6.608   1.124
 7072LIG     H342780   2.833   6.638   1.156
 7072LIG     H442781   2.708   6.696   1.262
 7072LIG     H542782   2.814   6.283   1.221
 7072LIG     H642783   2.918   6.412   1.182
 7072LIG     H742784   2.770   6.394   1.077
 7072LIG     H842785   2.811   6.411   1.418
   6.90018   6.90018   8.61953
